 Entering Gaussian System, Link 0=g16
 Initial command:
 /gpfs/loomis/apps/avx/software/Gaussian/16-C.01_AVX/g16/l1.exe "/home/fas/batista/pev4/scratch60/gauss-scratch/Gau-149701.inp" -scrdir="/home/fas/batista/pev4/scratch60/gauss-scratch/"
 Entering Link 1 = /gpfs/loomis/apps/avx/software/Gaussian/16-C.01_AVX/g16/l1.exe PID=    149702.
  
 Copyright (c) 1988-2019, Gaussian, Inc.  All Rights Reserved.
  
 This is part of the Gaussian(R) 16 program.  It is based on
 the Gaussian(R) 09 system (copyright 2009, Gaussian, Inc.),
 the Gaussian(R) 03 system (copyright 2003, Gaussian, Inc.),
 the Gaussian(R) 98 system (copyright 1998, Gaussian, Inc.),
 the Gaussian(R) 94 system (copyright 1995, Gaussian, Inc.),
 the Gaussian 92(TM) system (copyright 1992, Gaussian, Inc.),
 the Gaussian 90(TM) system (copyright 1990, Gaussian, Inc.),
 the Gaussian 88(TM) system (copyright 1988, Gaussian, Inc.),
 the Gaussian 86(TM) system (copyright 1986, Carnegie Mellon
 University), and the Gaussian 82(TM) system (copyright 1983,
 Carnegie Mellon University). Gaussian is a federally registered
 trademark of Gaussian, Inc.
  
 This software contains proprietary and confidential information,
 including trade secrets, belonging to Gaussian, Inc.
  
 This software is provided under written license and may be
 used, copied, transmitted, or stored only in accord with that
 written license.
  
 The following legend is applicable only to US Government
 contracts under FAR:
  
                    RESTRICTED RIGHTS LEGEND
  
 Use, reproduction and disclosure by the US Government is
 subject to restrictions as set forth in subparagraphs (a)
 and (c) of the Commercial Computer Software - Restricted
 Rights clause in FAR 52.227-19.
  
 Gaussian, Inc.
 340 Quinnipiac St., Bldg. 40, Wallingford CT 06492
  
  
 ---------------------------------------------------------------
 Warning -- This program may not be used in any manner that
 competes with the business of Gaussian, Inc. or will provide
 assistance to any competitor of Gaussian, Inc.  The licensee
 of this program is prohibited from giving any competitor of
 Gaussian, Inc. access to this program.  By using this program,
 the user acknowledges that Gaussian, Inc. is engaged in the
 business of creating and licensing software in the field of
 computational chemistry and represents and warrants to the
 licensee that it is not a competitor of Gaussian, Inc. and that
 it will not use this program in any manner prohibited above.
 ---------------------------------------------------------------
  

 Cite this work as:
 Gaussian 16, Revision C.01,
 M. J. Frisch, G. W. Trucks, H. B. Schlegel, G. E. Scuseria, 
 M. A. Robb, J. R. Cheeseman, G. Scalmani, V. Barone, 
 G. A. Petersson, H. Nakatsuji, X. Li, M. Caricato, A. V. Marenich, 
 J. Bloino, B. G. Janesko, R. Gomperts, B. Mennucci, H. P. Hratchian, 
 J. V. Ortiz, A. F. Izmaylov, J. L. Sonnenberg, D. Williams-Young, 
 F. Ding, F. Lipparini, F. Egidi, J. Goings, B. Peng, A. Petrone, 
 T. Henderson, D. Ranasinghe, V. G. Zakrzewski, J. Gao, N. Rega, 
 G. Zheng, W. Liang, M. Hada, M. Ehara, K. Toyota, R. Fukuda, 
 J. Hasegawa, M. Ishida, T. Nakajima, Y. Honda, O. Kitao, H. Nakai, 
 T. Vreven, K. Throssell, J. A. Montgomery, Jr., J. E. Peralta, 
 F. Ogliaro, M. J. Bearpark, J. J. Heyd, E. N. Brothers, K. N. Kudin, 
 V. N. Staroverov, T. A. Keith, R. Kobayashi, J. Normand, 
 K. Raghavachari, A. P. Rendell, J. C. Burant, S. S. Iyengar, 
 J. Tomasi, M. Cossi, J. M. Millam, M. Klene, C. Adamo, R. Cammi, 
 J. W. Ochterski, R. L. Martin, K. Morokuma, O. Farkas, 
 J. B. Foresman, and D. J. Fox, Gaussian, Inc., Wallingford CT, 2019.
 
 ******************************************
 Gaussian 16:  ES64L-G16RevC.01  3-Jul-2019
                13-Jul-2020 
 ******************************************
 %chk=HBT_ts_tdwb97xd_pvtz_optfreq.chk
 %mem=58GB
 %nprocshared=12
 Will use up to   12 processors via shared memory.
 ----------------------------------------------------------------------
 #p opt=(calcfc,ts) freq td wb97xd/cc-pvdz scrf=(solvent=carbontetrachl
 oride) int=ultrafine
 ----------------------------------------------------------------------
 1/5=1,10=4,18=20,26=6,38=1/1,3;
 2/9=110,12=2,17=6,18=5,40=1/2;
 3/5=16,11=9,25=1,30=1,70=2201,71=2,72=11,74=-58,75=-5,140=1/1,2,3,8;
 4//1;
 5/5=2,38=5,53=11/2;
 8/6=1,10=1/1;
 9/15=3,42=1,70=2/14;
 10/5=2004,20=4/2;
 11/6=1,8=1,12=-1,16=1,42=3/1,2,10;
 10/6=3,21=1/2,14;
 6/7=2,8=2,9=2,10=2/1;
 7/10=1,12=6,13=8,25=1,44=2/1,2,3,16;
 1/5=1,10=4,18=20,26=6/3(2);
 2/9=110/2;
 99//99;
 2/9=110/2;
 3/5=16,11=9,25=1,30=1,70=2205,71=1,72=11,74=-58,75=-5/1,2,3,8;
 4/5=5,16=3,69=1/1;
 5/5=2,38=5,53=11/2;
 8/6=1,10=1/1;
 9/15=2,42=1,49=4,70=2/14;
 10/5=4/2;
 7/12=6,13=5/1,2,3,16;
 1/5=1,18=20,26=6/3(-8);
 2/9=110/2;
 6/7=2,8=2,9=2,10=2/1;
 99/9=10/99;
 Leave Link    1 at Mon Jul 13 11:57:12 2020, MaxMem=  7784628224 cpu:               5.9 elap:               0.5
 (Enter /gpfs/loomis/apps/avx/software/Gaussian/16-C.01_AVX/g16/l101.exe)
 ------------------------------------------
 Opt and Freq of TS excited HBT WB97XD pVDZ
 ------------------------------------------
 Symbolic Z-matrix:
 Charge =  0 Multiplicity = 1
 C                     3.46308  -1.14288  -0.00012 
 C                     2.1378   -0.7429   -0.00009 
 C                     1.77837   0.62935  -0.00007 
 C                     2.79225   1.6019   -0.00005 
 C                     4.10603   1.19021  -0.00007 
 C                     4.44748  -0.16748  -0.00011 
 H                     3.725    -2.19154  -0.00014 
 H                     2.52847   2.64986  -0.00003 
 H                     4.89317   1.9319   -0.00007 
 H                     5.48816  -0.45884  -0.00012 
 N                     0.45181   0.85042  -0.00008 
 S                     0.70783  -1.74129  -0.0001 
 C                    -1.68854  -0.24608   0.00002 
 C                    -2.52473  -1.36848  -0.00004 
 C                    -2.32998   1.08343   0.00017 
 C                    -3.90682  -1.22537   0.00003 
 H                    -2.08948  -2.35873  -0.00015 
 C                    -3.73168   1.18009   0.00021 
 C                    -4.51497   0.03958   0.00015 
 H                    -4.52646  -2.11147  -0.00001 
 H                    -4.16413   2.17056   0.00033 
 H                    -5.59226   0.119     0.0002 
 C                    -0.282    -0.28982  -0.00007 
 O                    -1.59254   2.14137   0.00027 
 H                    -0.48808   1.7765    0.00013 
 
 Add virtual bond connecting atoms H25        and N11        Dist= 2.49D+00.
 Add virtual bond connecting atoms H25        and O24        Dist= 2.20D+00.
 ITRead=  0  0  0  0  0  0  0  0  0  0  0  0  0  0  0  0  0  0  0  0
 ITRead=  0  0  0  0  0
 MicOpt= -1 -1 -1 -1 -1 -1 -1 -1 -1 -1 -1 -1 -1 -1 -1 -1 -1 -1 -1 -1
 MicOpt= -1 -1 -1 -1 -1
 NAtoms=     25 NQM=       25 NQMF=       0 NMMI=      0 NMMIF=      0
                NMic=       0 NMicF=      0.
                    Isotopes and Nuclear Properties:
 (Nuclear quadrupole moments (NQMom) in fm**2, nuclear magnetic moments (NMagM)
  in nuclear magnetons)

  Atom         1           2           3           4           5           6           7           8           9          10
 IAtWgt=          12          12          12          12          12          12           1           1           1           1
 AtmWgt=  12.0000000  12.0000000  12.0000000  12.0000000  12.0000000  12.0000000   1.0078250   1.0078250   1.0078250   1.0078250
 NucSpn=           0           0           0           0           0           0           1           1           1           1
 AtZEff=  -0.0000000  -0.0000000  -0.0000000  -0.0000000  -0.0000000  -0.0000000  -0.0000000  -0.0000000  -0.0000000  -0.0000000
 NQMom=    0.0000000   0.0000000   0.0000000   0.0000000   0.0000000   0.0000000   0.0000000   0.0000000   0.0000000   0.0000000
 NMagM=    0.0000000   0.0000000   0.0000000   0.0000000   0.0000000   0.0000000   2.7928460   2.7928460   2.7928460   2.7928460
 AtZNuc=   6.0000000   6.0000000   6.0000000   6.0000000   6.0000000   6.0000000   1.0000000   1.0000000   1.0000000   1.0000000

  Atom        11          12          13          14          15          16          17          18          19          20
 IAtWgt=          14          32          12          12          12          12           1          12          12           1
 AtmWgt=  14.0030740  31.9720718  12.0000000  12.0000000  12.0000000  12.0000000   1.0078250  12.0000000  12.0000000   1.0078250
 NucSpn=           2           0           0           0           0           0           1           0           0           1
 AtZEff=  -0.0000000  -0.0000000  -0.0000000  -0.0000000  -0.0000000  -0.0000000  -0.0000000  -0.0000000  -0.0000000  -0.0000000
 NQMom=    2.0440000   0.0000000   0.0000000   0.0000000   0.0000000   0.0000000   0.0000000   0.0000000   0.0000000   0.0000000
 NMagM=    0.4037610   0.0000000   0.0000000   0.0000000   0.0000000   0.0000000   2.7928460   0.0000000   0.0000000   2.7928460
 AtZNuc=   7.0000000  16.0000000   6.0000000   6.0000000   6.0000000   6.0000000   1.0000000   6.0000000   6.0000000   1.0000000

  Atom        21          22          23          24          25
 IAtWgt=           1           1          12          16           1
 AtmWgt=   1.0078250   1.0078250  12.0000000  15.9949146   1.0078250
 NucSpn=           1           1           0           0           1
 AtZEff=  -0.0000000  -0.0000000  -0.0000000  -0.0000000  -0.0000000
 NQMom=    0.0000000   0.0000000   0.0000000   0.0000000   0.0000000
 NMagM=    2.7928460   2.7928460   0.0000000   0.0000000   2.7928460
 AtZNuc=   1.0000000   1.0000000   6.0000000   8.0000000   1.0000000
 Leave Link  101 at Mon Jul 13 11:57:12 2020, MaxMem=  7784628224 cpu:               4.2 elap:               0.4
 (Enter /gpfs/loomis/apps/avx/software/Gaussian/16-C.01_AVX/g16/l103.exe)

 GradGradGradGradGradGradGradGradGradGradGradGradGradGradGradGradGradGrad
 Berny optimization.
 Initialization pass.
                           ----------------------------
                           !    Initial Parameters    !
                           ! (Angstroms and Degrees)  !
 --------------------------                            --------------------------
 ! Name  Definition              Value          Derivative Info.                !
 --------------------------------------------------------------------------------
 ! R1    R(1,2)                  1.3843         calculate D2E/DX2 analytically  !
 ! R2    R(1,6)                  1.3858         calculate D2E/DX2 analytically  !
 ! R3    R(1,7)                  1.0809         calculate D2E/DX2 analytically  !
 ! R4    R(2,3)                  1.4185         calculate D2E/DX2 analytically  !
 ! R5    R(2,12)                 1.744          calculate D2E/DX2 analytically  !
 ! R6    R(3,4)                  1.4049         calculate D2E/DX2 analytically  !
 ! R7    R(3,11)                 1.3449         calculate D2E/DX2 analytically  !
 ! R8    R(4,5)                  1.3768         calculate D2E/DX2 analytically  !
 ! R9    R(4,8)                  1.0806         calculate D2E/DX2 analytically  !
 ! R10   R(5,6)                  1.4            calculate D2E/DX2 analytically  !
 ! R11   R(5,9)                  1.0815         calculate D2E/DX2 analytically  !
 ! R12   R(6,10)                 1.0807         calculate D2E/DX2 analytically  !
 ! R13   R(11,23)                1.356          calculate D2E/DX2 analytically  !
 ! R14   R(11,25)                1.3195         calculate D2E/DX2 analytically  !
 ! R15   R(12,23)                1.7569         calculate D2E/DX2 analytically  !
 ! R16   R(13,14)                1.3996         calculate D2E/DX2 analytically  !
 ! R17   R(13,15)                1.4762         calculate D2E/DX2 analytically  !
 ! R18   R(13,23)                1.4072         calculate D2E/DX2 analytically  !
 ! R19   R(14,16)                1.3895         calculate D2E/DX2 analytically  !
 ! R20   R(14,17)                1.0817         calculate D2E/DX2 analytically  !
 ! R21   R(15,18)                1.405          calculate D2E/DX2 analytically  !
 ! R22   R(15,24)                1.2896         calculate D2E/DX2 analytically  !
 ! R23   R(16,19)                1.4035         calculate D2E/DX2 analytically  !
 ! R24   R(16,20)                1.0813         calculate D2E/DX2 analytically  !
 ! R25   R(18,19)                1.3836         calculate D2E/DX2 analytically  !
 ! R26   R(18,21)                1.0808         calculate D2E/DX2 analytically  !
 ! R27   R(19,22)                1.0802         calculate D2E/DX2 analytically  !
 ! R28   R(24,25)                1.1632         calculate D2E/DX2 analytically  !
 ! A1    A(2,1,6)              118.4689         calculate D2E/DX2 analytically  !
 ! A2    A(2,1,7)              120.8175         calculate D2E/DX2 analytically  !
 ! A3    A(6,1,7)              120.7137         calculate D2E/DX2 analytically  !
 ! A4    A(1,2,3)              121.4721         calculate D2E/DX2 analytically  !
 ! A5    A(1,2,12)             128.2833         calculate D2E/DX2 analytically  !
 ! A6    A(3,2,12)             110.2446         calculate D2E/DX2 analytically  !
 ! A7    A(2,3,4)              119.1301         calculate D2E/DX2 analytically  !
 ! A8    A(2,3,11)             114.1393         calculate D2E/DX2 analytically  !
 ! A9    A(4,3,11)             126.7306         calculate D2E/DX2 analytically  !
 ! A10   A(3,4,5)              118.793          calculate D2E/DX2 analytically  !
 ! A11   A(3,4,8)              119.68           calculate D2E/DX2 analytically  !
 ! A12   A(5,4,8)              121.5269         calculate D2E/DX2 analytically  !
 ! A13   A(4,5,6)              121.5158         calculate D2E/DX2 analytically  !
 ! A14   A(4,5,9)              119.3041         calculate D2E/DX2 analytically  !
 ! A15   A(6,5,9)              119.1801         calculate D2E/DX2 analytically  !
 ! A16   A(1,6,5)              120.6201         calculate D2E/DX2 analytically  !
 ! A17   A(1,6,10)             119.6222         calculate D2E/DX2 analytically  !
 ! A18   A(5,6,10)             119.7578         calculate D2E/DX2 analytically  !
 ! A19   A(3,11,23)            113.3022         calculate D2E/DX2 analytically  !
 ! A20   A(3,11,25)            144.8856         calculate D2E/DX2 analytically  !
 ! A21   A(23,11,25)           101.8122         calculate D2E/DX2 analytically  !
 ! A22   A(2,12,23)             89.3695         calculate D2E/DX2 analytically  !
 ! A23   A(14,13,15)           117.5579         calculate D2E/DX2 analytically  !
 ! A24   A(14,13,23)           124.905          calculate D2E/DX2 analytically  !
 ! A25   A(15,13,23)           117.537          calculate D2E/DX2 analytically  !
 ! A26   A(13,14,16)           120.7746         calculate D2E/DX2 analytically  !
 ! A27   A(13,14,17)           119.5865         calculate D2E/DX2 analytically  !
 ! A28   A(16,14,17)           119.6389         calculate D2E/DX2 analytically  !
 ! A29   A(13,15,18)           119.7007         calculate D2E/DX2 analytically  !
 ! A30   A(13,15,24)           119.3655         calculate D2E/DX2 analytically  !
 ! A31   A(18,15,24)           120.9338         calculate D2E/DX2 analytically  !
 ! A32   A(14,16,19)           121.5885         calculate D2E/DX2 analytically  !
 ! A33   A(14,16,20)           119.0531         calculate D2E/DX2 analytically  !
 ! A34   A(19,16,20)           119.3584         calculate D2E/DX2 analytically  !
 ! A35   A(15,18,19)           120.5361         calculate D2E/DX2 analytically  !
 ! A36   A(15,18,21)           117.5319         calculate D2E/DX2 analytically  !
 ! A37   A(19,18,21)           121.9321         calculate D2E/DX2 analytically  !
 ! A38   A(16,19,18)           119.8423         calculate D2E/DX2 analytically  !
 ! A39   A(16,19,22)           119.8928         calculate D2E/DX2 analytically  !
 ! A40   A(18,19,22)           120.2649         calculate D2E/DX2 analytically  !
 ! A41   A(11,23,12)           112.9445         calculate D2E/DX2 analytically  !
 ! A42   A(11,23,13)           120.9824         calculate D2E/DX2 analytically  !
 ! A43   A(12,23,13)           126.0732         calculate D2E/DX2 analytically  !
 ! A44   A(15,24,25)           106.5967         calculate D2E/DX2 analytically  !
 ! A45   A(11,25,24)           153.7062         calculate D2E/DX2 analytically  !
 ! D1    D(6,1,2,3)              0.0002         calculate D2E/DX2 analytically  !
 ! D2    D(6,1,2,12)          -179.9999         calculate D2E/DX2 analytically  !
 ! D3    D(7,1,2,3)            179.9999         calculate D2E/DX2 analytically  !
 ! D4    D(7,1,2,12)            -0.0001         calculate D2E/DX2 analytically  !
 ! D5    D(2,1,6,5)              0.0            calculate D2E/DX2 analytically  !
 ! D6    D(2,1,6,10)          -180.0            calculate D2E/DX2 analytically  !
 ! D7    D(7,1,6,5)           -179.9998         calculate D2E/DX2 analytically  !
 ! D8    D(7,1,6,10)             0.0003         calculate D2E/DX2 analytically  !
 ! D9    D(1,2,3,4)             -0.0003         calculate D2E/DX2 analytically  !
 ! D10   D(1,2,3,11)           179.9985         calculate D2E/DX2 analytically  !
 ! D11   D(12,2,3,4)           179.9998         calculate D2E/DX2 analytically  !
 ! D12   D(12,2,3,11)           -0.0014         calculate D2E/DX2 analytically  !
 ! D13   D(1,2,12,23)         -179.9998         calculate D2E/DX2 analytically  !
 ! D14   D(3,2,12,23)            0.0001         calculate D2E/DX2 analytically  !
 ! D15   D(2,3,4,5)              0.0002         calculate D2E/DX2 analytically  !
 ! D16   D(2,3,4,8)            179.9999         calculate D2E/DX2 analytically  !
 ! D17   D(11,3,4,5)          -179.9984         calculate D2E/DX2 analytically  !
 ! D18   D(11,3,4,8)             0.0013         calculate D2E/DX2 analytically  !
 ! D19   D(2,3,11,23)            0.0024         calculate D2E/DX2 analytically  !
 ! D20   D(2,3,11,25)          179.985          calculate D2E/DX2 analytically  !
 ! D21   D(4,3,11,23)         -179.9989         calculate D2E/DX2 analytically  !
 ! D22   D(4,3,11,25)           -0.0162         calculate D2E/DX2 analytically  !
 ! D23   D(3,4,5,6)             -0.0001         calculate D2E/DX2 analytically  !
 ! D24   D(3,4,5,9)            179.9999         calculate D2E/DX2 analytically  !
 ! D25   D(8,4,5,6)           -179.9998         calculate D2E/DX2 analytically  !
 ! D26   D(8,4,5,9)              0.0002         calculate D2E/DX2 analytically  !
 ! D27   D(4,5,6,1)              0.0            calculate D2E/DX2 analytically  !
 ! D28   D(4,5,6,10)           179.9999         calculate D2E/DX2 analytically  !
 ! D29   D(9,5,6,1)            180.0            calculate D2E/DX2 analytically  !
 ! D30   D(9,5,6,10)             0.0            calculate D2E/DX2 analytically  !
 ! D31   D(3,11,23,12)          -0.0022         calculate D2E/DX2 analytically  !
 ! D32   D(3,11,23,13)         179.9955         calculate D2E/DX2 analytically  !
 ! D33   D(25,11,23,12)       -179.9921         calculate D2E/DX2 analytically  !
 ! D34   D(25,11,23,13)          0.0057         calculate D2E/DX2 analytically  !
 ! D35   D(3,11,25,24)        -179.9887         calculate D2E/DX2 analytically  !
 ! D36   D(23,11,25,24)         -0.0049         calculate D2E/DX2 analytically  !
 ! D37   D(2,12,23,11)           0.0012         calculate D2E/DX2 analytically  !
 ! D38   D(2,12,23,13)        -179.9965         calculate D2E/DX2 analytically  !
 ! D39   D(15,13,14,16)          0.0007         calculate D2E/DX2 analytically  !
 ! D40   D(15,13,14,17)        179.9997         calculate D2E/DX2 analytically  !
 ! D41   D(23,13,14,16)       -179.999          calculate D2E/DX2 analytically  !
 ! D42   D(23,13,14,17)          0.0001         calculate D2E/DX2 analytically  !
 ! D43   D(14,13,15,18)         -0.0018         calculate D2E/DX2 analytically  !
 ! D44   D(14,13,15,24)        179.9975         calculate D2E/DX2 analytically  !
 ! D45   D(23,13,15,18)        179.9979         calculate D2E/DX2 analytically  !
 ! D46   D(23,13,15,24)         -0.0028         calculate D2E/DX2 analytically  !
 ! D47   D(14,13,23,11)        179.9962         calculate D2E/DX2 analytically  !
 ! D48   D(14,13,23,12)         -0.0063         calculate D2E/DX2 analytically  !
 ! D49   D(15,13,23,11)         -0.0034         calculate D2E/DX2 analytically  !
 ! D50   D(15,13,23,12)        179.9941         calculate D2E/DX2 analytically  !
 ! D51   D(13,14,16,19)          0.0004         calculate D2E/DX2 analytically  !
 ! D52   D(13,14,16,20)       -179.9999         calculate D2E/DX2 analytically  !
 ! D53   D(17,14,16,19)       -179.9986         calculate D2E/DX2 analytically  !
 ! D54   D(17,14,16,20)          0.0011         calculate D2E/DX2 analytically  !
 ! D55   D(13,15,18,19)          0.0017         calculate D2E/DX2 analytically  !
 ! D56   D(13,15,18,21)        179.9997         calculate D2E/DX2 analytically  !
 ! D57   D(24,15,18,19)       -179.9975         calculate D2E/DX2 analytically  !
 ! D58   D(24,15,18,21)          0.0004         calculate D2E/DX2 analytically  !
 ! D59   D(13,15,24,25)          0.0046         calculate D2E/DX2 analytically  !
 ! D60   D(18,15,24,25)       -179.9961         calculate D2E/DX2 analytically  !
 ! D61   D(14,16,19,18)         -0.0005         calculate D2E/DX2 analytically  !
 ! D62   D(14,16,19,22)        179.9997         calculate D2E/DX2 analytically  !
 ! D63   D(20,16,19,18)        179.9998         calculate D2E/DX2 analytically  !
 ! D64   D(20,16,19,22)          0.0            calculate D2E/DX2 analytically  !
 ! D65   D(15,18,19,16)         -0.0006         calculate D2E/DX2 analytically  !
 ! D66   D(15,18,19,22)        179.9992         calculate D2E/DX2 analytically  !
 ! D67   D(21,18,19,16)       -179.9985         calculate D2E/DX2 analytically  !
 ! D68   D(21,18,19,22)          0.0013         calculate D2E/DX2 analytically  !
 ! D69   D(15,24,25,11)         -0.0007         calculate D2E/DX2 analytically  !
 --------------------------------------------------------------------------------
 Trust Radius=3.00D-01 FncErr=5.00D-06 GrdErr=5.00D-06 EigMax=2.50D+02 EigMin=1.00D-04
 Number of steps in this run=    150 maximum allowed number of steps=    150.
 Search for a saddle point of order  1.
 GradGradGradGradGradGradGradGradGradGradGradGradGradGradGradGradGradGrad

 Leave Link  103 at Mon Jul 13 11:57:12 2020, MaxMem=  7784628224 cpu:               0.3 elap:               0.0
 (Enter /gpfs/loomis/apps/avx/software/Gaussian/16-C.01_AVX/g16/l202.exe)
                          Input orientation:                          
 ---------------------------------------------------------------------
 Center     Atomic      Atomic             Coordinates (Angstroms)
 Number     Number       Type             X           Y           Z
 ---------------------------------------------------------------------
      1          6           0        3.463084   -1.142875   -0.000116
      2          6           0        2.137804   -0.742895   -0.000094
      3          6           0        1.778368    0.629349   -0.000065
      4          6           0        2.792249    1.601899   -0.000052
      5          6           0        4.106031    1.190212   -0.000073
      6          6           0        4.447483   -0.167475   -0.000105
      7          1           0        3.724998   -2.191541   -0.000137
      8          1           0        2.528474    2.649861   -0.000031
      9          1           0        4.893169    1.931895   -0.000065
     10          1           0        5.488164   -0.458840   -0.000122
     11          7           0        0.451811    0.850419   -0.000078
     12         16           0        0.707834   -1.741290   -0.000098
     13          6           0       -1.688537   -0.246075    0.000018
     14          6           0       -2.524731   -1.368477   -0.000038
     15          6           0       -2.329981    1.083431    0.000168
     16          6           0       -3.906820   -1.225367    0.000031
     17          1           0       -2.089478   -2.358731   -0.000152
     18          6           0       -3.731676    1.180091    0.000211
     19          6           0       -4.514967    0.039581    0.000150
     20          1           0       -4.526463   -2.111467   -0.000013
     21          1           0       -4.164132    2.170555    0.000327
     22          1           0       -5.592261    0.118995    0.000197
     23          6           0       -0.281995   -0.289816   -0.000065
     24          8           0       -1.592535    2.141374    0.000272
     25          1           0       -0.488080    1.776495    0.000130
 ---------------------------------------------------------------------
                    Distance matrix (angstroms):
                    1          2          3          4          5
     1  C    0.000000
     2  C    1.384323   0.000000
     3  C    2.445209   1.418537   0.000000
     4  C    2.825563   2.434411   1.404923   0.000000
     5  C    2.420057   2.758772   2.394281   1.376775   0.000000
     6  C    1.385802   2.380278   2.785517   2.422908   1.399966
     7  H    1.080879   2.148897   3.427359   3.906432   3.403151
     8  H    3.906193   3.415174   2.155256   1.080649   2.149247
     9  H    3.391070   3.840122   3.376183   2.126679   1.081517
    10  H    2.137488   3.362380   3.866102   3.393317   2.151665
    11  N    3.611231   2.319746   1.344851   2.458124   3.669984
    12  S    2.819486   1.744020   2.601148   3.939759   4.487922
    13  C    5.229096   3.858460   3.575723   4.846901   5.969919
    14  C    5.992063   4.704316   4.744256   6.090436   7.107313
    15  C    6.206129   4.826652   4.133367   5.148403   6.436898
    16  C    7.370366   6.063848   5.980078   7.271242   8.369038
    17  H    5.684123   4.525576   4.887623   6.286322   7.139981
    18  C    7.560472   6.176461   5.537500   6.537547   7.837714
    19  C    8.065203   6.698629   6.320909   7.472365   8.697446
    20  H    8.048045   6.803341   6.874807   8.206865   9.242350
    21  H    8.315843   6.942808   6.139106   6.979585   8.328065
    22  H    9.142844   7.777966   7.388277   8.514635   9.757273
    23  C    3.841006   2.461850   2.256094   3.609648   4.630902
    24  O    6.028729   4.715341   3.694483   4.417846   5.777401
    25  H    4.912679   3.639037   2.540223   3.284972   4.631370
                    6          7          8          9         10
     6  C    0.000000
     7  H    2.149146   0.000000
     8  H    3.408809   4.987068   0.000000
     9  H    2.146157   4.285714   2.471287   0.000000
    10  H    1.080699   2.472045   4.292294   2.463662   0.000000
    11  N    4.123288   4.468476   2.747821   4.571132   5.203750
    12  S    4.057323   3.050574   4.753624   5.568601   4.949367
    13  C    6.136523   5.752495   5.115626   6.932706   7.179854
    14  C    7.074897   6.303693   6.456154   8.118971   8.064361
    15  C    6.891936   6.883910   5.104732   7.272812   7.968814
    16  C    8.421016   7.692733   7.512017   9.349230   9.426202
    17  H    6.894452   5.816879   6.812597   8.195537   7.812186
    18  C    8.289426   8.183513   6.430373   8.657549   9.364376
    19  C    8.964841   8.536681   7.511566   9.596555  10.015541
    20  H    9.182092   8.251850   8.511309  10.250768  10.150070
    21  H    8.923357   9.014780   6.709747   9.060445  10.004026
    22  H   10.043830   9.599474   8.505976  10.640998  11.095482
    23  C    4.731060   4.435375   4.066994   5.631902   5.772634
    24  O    6.466266   6.859323   4.152261   6.489086   7.543037
    25  H    5.304602   5.787516   3.140440   5.383492   6.380612
                   11         12         13         14         15
    11  N    0.000000
    12  S    2.604324   0.000000
    13  C    2.404868   2.824582   0.000000
    14  C    3.712587   3.253992   1.399645   0.000000
    15  C    2.791534   4.148177   1.476156   2.459630   0.000000
    16  C    4.827686   4.643405   2.424828   1.389478   2.795884
    17  H    4.093506   2.864644   2.150365   1.081688   3.450554
    18  C    4.196457   5.314482   2.491659   2.819914   1.405024
    19  C    5.032528   5.518075   2.840828   2.437964   2.421526
    20  H    5.792752   5.247370   3.396102   2.135173   3.877100
    21  H    4.801009   6.248086   3.459577   3.900306   2.132123
    22  H    6.088168   6.569007   3.920757   3.409151   3.401854
    23  C    1.355952   1.756855   1.407222   2.488649   2.465777
    24  O    2.417833   4.512957   2.389378   3.631535   1.289601
    25  H    1.319474   3.715511   2.351996   3.746838   1.967978
                   16         17         18         19         20
    16  C    0.000000
    17  H    2.141786   0.000000
    18  C    2.411826   3.901292   0.000000
    19  C    1.403544   3.410997   1.383585   0.000000
    20  H    1.081263   2.449497   3.386154   2.151079   0.000000
    21  H    3.405656   4.981829   1.080758   2.159661   4.297324
    22  H    2.155927   4.290526   2.141892   1.080217   2.472021
    23  C    3.743609   2.747254   3.749790   4.245769   4.618866
    24  O    4.085445   4.527460   2.345206   3.599742   5.166681
    25  H    4.549611   4.434475   3.297971   4.385509   5.605781
                   21         22         23         24         25
    21  H    0.000000
    22  H    2.499690   0.000000
    23  C    4.596130   5.325979   0.000000
    24  O    2.571763   4.481944   2.761920   0.000000
    25  H    3.697113   5.366560   2.076563   1.163167   0.000000
 Stoichiometry    C13H9NOS
 Framework group  C1[X(C13H9NOS)]
 Deg. of freedom    69
 Full point group                 C1      NOp   1
 Largest Abelian subgroup         C1      NOp   1
 Largest concise Abelian subgroup C1      NOp   1
                         Standard orientation:                         
 ---------------------------------------------------------------------
 Center     Atomic      Atomic             Coordinates (Angstroms)
 Number     Number       Type             X           Y           Z
 ---------------------------------------------------------------------
      1          6           0        3.463084   -1.142875   -0.000116
      2          6           0        2.137804   -0.742895   -0.000094
      3          6           0        1.778368    0.629349   -0.000065
      4          6           0        2.792249    1.601899   -0.000052
      5          6           0        4.106031    1.190212   -0.000073
      6          6           0        4.447483   -0.167475   -0.000105
      7          1           0        3.724998   -2.191541   -0.000137
      8          1           0        2.528474    2.649861   -0.000031
      9          1           0        4.893169    1.931895   -0.000065
     10          1           0        5.488164   -0.458840   -0.000122
     11          7           0        0.451811    0.850419   -0.000078
     12         16           0        0.707834   -1.741290   -0.000098
     13          6           0       -1.688537   -0.246075    0.000018
     14          6           0       -2.524731   -1.368477   -0.000038
     15          6           0       -2.329981    1.083431    0.000168
     16          6           0       -3.906820   -1.225367    0.000031
     17          1           0       -2.089478   -2.358731   -0.000152
     18          6           0       -3.731676    1.180091    0.000211
     19          6           0       -4.514967    0.039581    0.000150
     20          1           0       -4.526463   -2.111467   -0.000013
     21          1           0       -4.164132    2.170555    0.000327
     22          1           0       -5.592261    0.118995    0.000197
     23          6           0       -0.281995   -0.289816   -0.000065
     24          8           0       -1.592535    2.141374    0.000272
     25          1           0       -0.488080    1.776495    0.000130
 ---------------------------------------------------------------------
 Rotational constants (GHZ):           1.3941617           0.2887330           0.2391953
 Leave Link  202 at Mon Jul 13 11:57:12 2020, MaxMem=  7784628224 cpu:               0.3 elap:               0.1
 (Enter /gpfs/loomis/apps/avx/software/Gaussian/16-C.01_AVX/g16/l301.exe)
 Standard basis: CC-pVDZ (5D, 7F)
 Ernie: Thresh=  0.10000D-02 Tol=  0.10000D-05 Strict=F.
 Ernie:  40 primitive shells out of 425 were deleted.
 There are   289 symmetry adapted cartesian basis functions of A   symmetry.
 There are   273 symmetry adapted basis functions of A   symmetry.
   273 basis functions,   629 primitive gaussians,   289 cartesian basis functions
    59 alpha electrons       59 beta electrons
       nuclear repulsion energy      1103.9049080502 Hartrees.
 IExCor= 4639 DFT=T Ex+Corr=wB97XD ExCW=0 ScaHFX=  1.000000
 ScaDFX=  1.000000  1.000000  1.000000  1.000000 ScalE2=  1.000000  1.000000
 IRadAn=      5 IRanWt=     -1 IRanGd=            0 ICorTp=0 IEmpDi=121
 HFx  wShort=  0.000000 wLong=  0.200000 cFull=  0.222036 cShort=  0.000000 cLong=  0.777964
 DFx  wShort=  0.000000 wLong=  0.200000 cFull=  0.000000 cShort=  0.000000 cLong=  1.000000
 NAtoms=   25 NActive=   25 NUniq=   25 SFac= 1.00D+00 NAtFMM=   60 NAOKFM=F Big=F
 Integral buffers will be    131072 words long.
 Raffenetti 1 integral format.
 Two-electron integral symmetry is turned on.
 R6Disp:  Grimme-D2 Dispersion energy=       -0.0140234774 Hartrees.
 Nuclear repulsion after empirical dispersion term =     1103.8908845727 Hartrees.
 Force inversion solution in PCM.
 ------------------------------------------------------------------------------
 Polarizable Continuum Model (PCM)
 =================================
 Model                : PCM.
 Atomic radii         : UFF (Universal Force Field).
 Polarization charges : Total charges.
 Charge compensation  : None.
 Solution method      : Matrix inversion.
 Cavity type          : Scaled VdW (van der Waals Surface) (Alpha=1.100).
 Cavity algorithm     : GePol (No added spheres)
                        Default sphere list used, NSphG=   25.
                        Lebedev-Laikov grids with approx.  5.0 points / Ang**2.
                        Smoothing algorithm: York/Karplus (Gamma=1.0000).
                        Polarization charges: spherical gaussians, with
                                              point-specific exponents (IZeta= 3).
                        Self-potential: point-specific (ISelfS= 7).
                        Self-field    : sphere-specific E.n sum rule (ISelfD= 2).
 1st derivatives      : Analytical E(r).r(x)/FMM algorithm (CHGder, D1EAlg=3).
                        Cavity 1st derivative terms included.
 2nd derivatives      : Analytical E(r).r(xy)/FMM algorithm (CHGder, D2EAlg=3).
                        Cavity 2nd derivative terms included.
 Solvent              : CarbonTetraChloride, Eps=   2.228000 Eps(inf)=   2.131892
 ------------------------------------------------------------------------------
 GePol: Number of generator spheres                  =      25
 GePol: Total number of spheres                      =      25
 GePol: Number of exposed spheres                    =      25 (100.00%)
 GePol: Number of points                             =    2160
 GePol: Average weight of points                     =       0.13
 GePol: Minimum weight of points                     =   0.80D-08
 GePol: Maximum weight of points                     =    0.20577
 GePol: Number of points with low weight             =     120
 GePol: Fraction of low-weight points (<1% of avg)   =       5.56%
 GePol: Cavity surface area                          =    272.351 Ang**2
 GePol: Cavity volume                                =    291.314 Ang**3
 Leave Link  301 at Mon Jul 13 11:57:12 2020, MaxMem=  7784628224 cpu:               1.8 elap:               0.2
 (Enter /gpfs/loomis/apps/avx/software/Gaussian/16-C.01_AVX/g16/l302.exe)
 NPDir=0 NMtPBC=     1 NCelOv=     1 NCel=       1 NClECP=     1 NCelD=      1
         NCelK=      1 NCelE2=     1 NClLst=     1 CellRange=     0.0.
 One-electron integrals computed using PRISM.
 One-electron integral symmetry used in STVInt
 NBasis=   273 RedAO= T EigKep=  2.95D-04  NBF=   273
 NBsUse=   273 1.00D-06 EigRej= -1.00D+00 NBFU=   273
 Precomputing XC quadrature grid using
 IXCGrd= 4 IRadAn=           5 IRanWt=          -1 IRanGd=           0 AccXCQ= 0.00D+00.
 Generated NRdTot=       0 NPtTot=           0 NUsed=           0 NTot=          32
 NSgBfM=   288   288   288   288   288 MxSgAt=    25 MxSgA2=    25.
 Leave Link  302 at Mon Jul 13 11:57:13 2020, MaxMem=  7784628224 cpu:               5.7 elap:               0.5
 (Enter /gpfs/loomis/apps/avx/software/Gaussian/16-C.01_AVX/g16/l303.exe)
 DipDrv:  MaxL=1.
 Leave Link  303 at Mon Jul 13 11:57:13 2020, MaxMem=  7784628224 cpu:               0.9 elap:               0.4
 (Enter /gpfs/loomis/apps/avx/software/Gaussian/16-C.01_AVX/g16/l308.exe)
 Leave Link  308 at Mon Jul 13 11:57:13 2020, MaxMem=  7784628224 cpu:               1.3 elap:               0.1
 (Enter /gpfs/loomis/apps/avx/software/Gaussian/16-C.01_AVX/g16/l401.exe)
 ExpMin= 1.22D-01 ExpMax= 1.11D+05 ExpMxC= 1.07D+03 IAcc=3 IRadAn=         5 AccDes= 0.00D+00
 Harris functional with IExCor= 4639 and IRadAn=       5 diagonalized for initial guess.
 HarFok:  IExCor= 4639 AccDes= 0.00D+00 IRadAn=         5 IDoV= 1 UseB2=F ITyADJ=14
 ICtDFT=  3500011 ScaDFX=  1.000000  1.000000  1.000000  1.000000
 FoFCou: FMM=F IPFlag=           0 FMFlag=      100000 FMFlg1=           0
         NFxFlg=           0 DoJE=T BraDBF=F KetDBF=T FulRan=T
         wScrn=  0.000000 ICntrl=       500 IOpCl=  0 I1Cent=   200000004 NGrid=           0
         NMat0=    1 NMatS0=      1 NMatT0=    0 NMatD0=    1 NMtDS0=    0 NMtDT0=    0
 Petite list used in FoFCou.
 Harris En= -994.443447402983    
 JPrj=0 DoOrth=F DoCkMO=F.
 Leave Link  401 at Mon Jul 13 11:57:15 2020, MaxMem=  7784628224 cpu:              14.4 elap:               1.2
 (Enter /gpfs/loomis/apps/avx/software/Gaussian/16-C.01_AVX/g16/l502.exe)
 Integral symmetry usage will be decided dynamically.
 Closed shell SCF:
 Using DIIS extrapolation, IDIIS=  1040.
 NGot=  7784628224 LenX=  7784454116 LenY=  7784370154
 Requested convergence on RMS density matrix=1.00D-08 within 128 cycles.
 Requested convergence on MAX density matrix=1.00D-06.
 Requested convergence on             energy=1.00D-06.
 No special actions if energy rises.
 Fock matrices will be formed incrementally for  20 cycles.

 Cycle   1  Pass 1  IDiag  1:
 FoFJK:  IHMeth= 1 ICntrl=       0 DoSepK=T KAlg= 0 I1Cent=           0 FoldK=F
 IRaf=         1 NMat=       1 IRICut=       1 DoRegI=T DoRafI=F ISym2E= 0 IDoP0=0 IntGTp=1.
 FoFCou: FMM=F IPFlag=           0 FMFlag=      100000 FMFlg1=           0
         NFxFlg=           0 DoJE=T BraDBF=F KetDBF=F FulRan=T
         wScrn=  0.000000 ICntrl=       500 IOpCl=  0 I1Cent=           0 NGrid=           0
         NMat0=    1 NMatS0=      1 NMatT0=    0 NMatD0=    1 NMtDS0=    0 NMtDT0=    0
 Symmetry not used in FoFCou.
 Inv3:  Mode=1 IEnd=    13996800.
 Iteration    1 A*A^-1 deviation from unit magnitude is 5.77D-15 for   2144.
 Iteration    1 A*A^-1 deviation from orthogonality  is 1.71D-15 for   2157   2053.
 Iteration    1 A^-1*A deviation from unit magnitude is 6.22D-15 for   2144.
 Iteration    1 A^-1*A deviation from orthogonality  is 1.39D-15 for   2156   2154.
 E= -1028.57215234769    
 DIIS: error= 3.14D-02 at cycle   1 NSaved=   1.
 NSaved= 1 IEnMin= 1 EnMin= -1028.57215234769     IErMin= 1 ErrMin= 3.14D-02
 ErrMax= 3.14D-02  0.00D+00 EMaxC= 1.00D-01 BMatC= 3.95D-01 BMatP= 3.95D-01
 IDIUse=3 WtCom= 6.86D-01 WtEn= 3.14D-01
 Coeff-Com:  0.100D+01
 Coeff-En:   0.100D+01
 Coeff:      0.100D+01
 Gap=     0.349 Goal=   None    Shift=    0.000
 GapD=    0.349 DampG=1.000 DampE=0.500 DampFc=0.5000 IDamp=-1.
 Damping current iteration by 5.00D-01
 RMSDP=3.59D-03 MaxDP=2.26D-01              OVMax= 1.78D-01

 Cycle   2  Pass 1  IDiag  1:
 RMSU=  1.79D-03    CP:  9.92D-01
 E= -1028.69236991192     Delta-E=       -0.120217564232 Rises=F Damp=T
 DIIS: error= 1.20D-02 at cycle   2 NSaved=   2.
 NSaved= 2 IEnMin= 2 EnMin= -1028.69236991192     IErMin= 2 ErrMin= 1.20D-02
 ErrMax= 1.20D-02  0.00D+00 EMaxC= 1.00D-01 BMatC= 5.75D-02 BMatP= 3.95D-01
 IDIUse=3 WtCom= 8.80D-01 WtEn= 1.20D-01
 Coeff-Com: -0.282D+00 0.128D+01
 Coeff-En:   0.000D+00 0.100D+01
 Coeff:     -0.248D+00 0.125D+01
 Gap=     0.302 Goal=   None    Shift=    0.000
 RMSDP=1.16D-03 MaxDP=2.43D-02 DE=-1.20D-01 OVMax= 1.15D-01

 Cycle   3  Pass 1  IDiag  1:
 RMSU=  1.10D-03    CP:  9.90D-01  1.20D+00
 E= -1028.79982359757     Delta-E=       -0.107453685652 Rises=F Damp=F
 DIIS: error= 5.84D-03 at cycle   3 NSaved=   3.
 NSaved= 3 IEnMin= 3 EnMin= -1028.79982359757     IErMin= 3 ErrMin= 5.84D-03
 ErrMax= 5.84D-03  0.00D+00 EMaxC= 1.00D-01 BMatC= 1.31D-02 BMatP= 5.75D-02
 IDIUse=3 WtCom= 9.42D-01 WtEn= 5.84D-02
 Coeff-Com: -0.195D+00 0.467D+00 0.728D+00
 Coeff-En:   0.000D+00 0.000D+00 0.100D+01
 Coeff:     -0.183D+00 0.440D+00 0.743D+00
 Gap=     0.260 Goal=   None    Shift=    0.000
 RMSDP=5.17D-04 MaxDP=1.79D-02 DE=-1.07D-01 OVMax= 3.75D-02

 Cycle   4  Pass 1  IDiag  1:
 RMSU=  4.09D-04    CP:  9.88D-01  1.35D+00  8.56D-01
 E= -1028.81189310233     Delta-E=       -0.012069504753 Rises=F Damp=F
 DIIS: error= 2.05D-03 at cycle   4 NSaved=   4.
 NSaved= 4 IEnMin= 4 EnMin= -1028.81189310233     IErMin= 4 ErrMin= 2.05D-03
 ErrMax= 2.05D-03  0.00D+00 EMaxC= 1.00D-01 BMatC= 1.64D-03 BMatP= 1.31D-02
 IDIUse=3 WtCom= 9.79D-01 WtEn= 2.05D-02
 Coeff-Com: -0.693D-01 0.137D+00 0.353D+00 0.580D+00
 Coeff-En:   0.000D+00 0.000D+00 0.000D+00 0.100D+01
 Coeff:     -0.678D-01 0.134D+00 0.346D+00 0.588D+00
 Gap=     0.258 Goal=   None    Shift=    0.000
 RMSDP=1.65D-04 MaxDP=9.50D-03 DE=-1.21D-02 OVMax= 1.31D-02

 Cycle   5  Pass 1  IDiag  1:
 RMSU=  1.04D-04    CP:  9.88D-01  1.36D+00  9.23D-01  7.49D-01
 E= -1028.81358078178     Delta-E=       -0.001687679450 Rises=F Damp=F
 DIIS: error= 3.70D-04 at cycle   5 NSaved=   5.
 NSaved= 5 IEnMin= 5 EnMin= -1028.81358078178     IErMin= 5 ErrMin= 3.70D-04
 ErrMax= 3.70D-04  0.00D+00 EMaxC= 1.00D-01 BMatC= 4.86D-05 BMatP= 1.64D-03
 IDIUse=3 WtCom= 9.96D-01 WtEn= 3.70D-03
 Coeff-Com: -0.837D-03-0.421D-02 0.317D-01 0.153D+00 0.820D+00
 Coeff-En:   0.000D+00 0.000D+00 0.000D+00 0.000D+00 0.100D+01
 Coeff:     -0.834D-03-0.420D-02 0.316D-01 0.153D+00 0.821D+00
 Gap=     0.259 Goal=   None    Shift=    0.000
 RMSDP=5.09D-05 MaxDP=1.57D-03 DE=-1.69D-03 OVMax= 4.89D-03

 Cycle   6  Pass 1  IDiag  1:
 RMSU=  3.23D-05    CP:  9.88D-01  1.37D+00  9.41D-01  8.28D-01  1.08D+00
 E= -1028.81368331435     Delta-E=       -0.000102532577 Rises=F Damp=F
 DIIS: error= 1.53D-04 at cycle   6 NSaved=   6.
 NSaved= 6 IEnMin= 6 EnMin= -1028.81368331435     IErMin= 6 ErrMin= 1.53D-04
 ErrMax= 1.53D-04  0.00D+00 EMaxC= 1.00D-01 BMatC= 8.25D-06 BMatP= 4.86D-05
 IDIUse=3 WtCom= 9.98D-01 WtEn= 1.53D-03
 Coeff-Com:  0.142D-01-0.291D-01-0.584D-01-0.620D-01 0.209D+00 0.926D+00
 Coeff-En:   0.000D+00 0.000D+00 0.000D+00 0.000D+00 0.000D+00 0.100D+01
 Coeff:      0.141D-01-0.291D-01-0.583D-01-0.619D-01 0.209D+00 0.926D+00
 Gap=     0.259 Goal=   None    Shift=    0.000
 RMSDP=2.88D-05 MaxDP=1.50D-03 DE=-1.03D-04 OVMax= 2.60D-03

 Cycle   7  Pass 1  IDiag  1:
 RMSU=  1.47D-05    CP:  9.88D-01  1.37D+00  9.51D-01  8.56D-01  1.25D+00
                    CP:  1.24D+00
 E= -1028.81370775545     Delta-E=       -0.000024441101 Rises=F Damp=F
 DIIS: error= 1.01D-04 at cycle   7 NSaved=   7.
 NSaved= 7 IEnMin= 7 EnMin= -1028.81370775545     IErMin= 7 ErrMin= 1.01D-04
 ErrMax= 1.01D-04  0.00D+00 EMaxC= 1.00D-01 BMatC= 1.81D-06 BMatP= 8.25D-06
 IDIUse=3 WtCom= 9.99D-01 WtEn= 1.01D-03
 Coeff-Com:  0.594D-02-0.113D-01-0.279D-01-0.443D-01-0.144D-01 0.395D+00
 Coeff-Com:  0.697D+00
 Coeff-En:   0.000D+00 0.000D+00 0.000D+00 0.000D+00 0.000D+00 0.000D+00
 Coeff-En:   0.100D+01
 Coeff:      0.593D-02-0.113D-01-0.279D-01-0.442D-01-0.144D-01 0.395D+00
 Coeff:      0.697D+00
 Gap=     0.260 Goal=   None    Shift=    0.000
 RMSDP=9.38D-06 MaxDP=3.94D-04 DE=-2.44D-05 OVMax= 1.15D-03

 Cycle   8  Pass 1  IDiag  1:
 RMSU=  5.82D-06    CP:  9.88D-01  1.37D+00  9.53D-01  8.61D-01  1.28D+00
                    CP:  1.42D+00  1.12D+00
 E= -1028.81371132486     Delta-E=       -0.000003569403 Rises=F Damp=F
 DIIS: error= 3.84D-05 at cycle   8 NSaved=   8.
 NSaved= 8 IEnMin= 8 EnMin= -1028.81371132486     IErMin= 8 ErrMin= 3.84D-05
 ErrMax= 3.84D-05  0.00D+00 EMaxC= 1.00D-01 BMatC= 2.89D-07 BMatP= 1.81D-06
 IDIUse=1 WtCom= 1.00D+00 WtEn= 0.00D+00
 Coeff-Com: -0.111D-02 0.247D-02 0.372D-02 0.108D-02-0.402D-01-0.642D-01
 Coeff-Com:  0.243D+00 0.855D+00
 Coeff:     -0.111D-02 0.247D-02 0.372D-02 0.108D-02-0.402D-01-0.642D-01
 Coeff:      0.243D+00 0.855D+00
 Gap=     0.260 Goal=   None    Shift=    0.000
 RMSDP=4.66D-06 MaxDP=1.38D-04 DE=-3.57D-06 OVMax= 6.38D-04

 Cycle   9  Pass 1  IDiag  1:
 RMSU=  2.25D-06    CP:  9.88D-01  1.37D+00  9.53D-01  8.61D-01  1.29D+00
                    CP:  1.49D+00  1.33D+00  1.14D+00
 E= -1028.81371208987     Delta-E=       -0.000000765012 Rises=F Damp=F
 DIIS: error= 1.52D-05 at cycle   9 NSaved=   9.
 NSaved= 9 IEnMin= 9 EnMin= -1028.81371208987     IErMin= 9 ErrMin= 1.52D-05
 ErrMax= 1.52D-05  0.00D+00 EMaxC= 1.00D-01 BMatC= 4.18D-08 BMatP= 2.89D-07
 IDIUse=1 WtCom= 1.00D+00 WtEn= 0.00D+00
 Coeff-Com: -0.111D-02 0.220D-02 0.477D-02 0.646D-02-0.109D-01-0.812D-01
 Coeff-Com: -0.103D-01 0.267D+00 0.823D+00
 Coeff:     -0.111D-02 0.220D-02 0.477D-02 0.646D-02-0.109D-01-0.812D-01
 Coeff:     -0.103D-01 0.267D+00 0.823D+00
 Gap=     0.260 Goal=   None    Shift=    0.000
 RMSDP=2.13D-06 MaxDP=5.54D-05 DE=-7.65D-07 OVMax= 3.37D-04

 Cycle  10  Pass 1  IDiag  1:
 RMSU=  1.03D-06    CP:  9.88D-01  1.37D+00  9.53D-01  8.61D-01  1.29D+00
                    CP:  1.52D+00  1.41D+00  1.30D+00  1.21D+00
 E= -1028.81371224675     Delta-E=       -0.000000156879 Rises=F Damp=F
 DIIS: error= 7.95D-06 at cycle  10 NSaved=  10.
 NSaved=10 IEnMin=10 EnMin= -1028.81371224675     IErMin=10 ErrMin= 7.95D-06
 ErrMax= 7.95D-06  0.00D+00 EMaxC= 1.00D-01 BMatC= 1.14D-08 BMatP= 4.18D-08
 IDIUse=1 WtCom= 1.00D+00 WtEn= 0.00D+00
 Coeff-Com: -0.146D-03 0.242D-03 0.892D-03 0.226D-02 0.425D-02-0.198D-01
 Coeff-Com: -0.477D-01-0.922D-01 0.307D+00 0.846D+00
 Coeff:     -0.146D-03 0.242D-03 0.892D-03 0.226D-02 0.425D-02-0.198D-01
 Coeff:     -0.477D-01-0.922D-01 0.307D+00 0.846D+00
 Gap=     0.260 Goal=   None    Shift=    0.000
 RMSDP=1.19D-06 MaxDP=3.21D-05 DE=-1.57D-07 OVMax= 1.95D-04

 Cycle  11  Pass 1  IDiag  1:
 RMSU=  4.74D-07    CP:  9.88D-01  1.37D+00  9.53D-01  8.61D-01  1.29D+00
                    CP:  1.53D+00  1.44D+00  1.38D+00  1.51D+00  1.23D+00
 E= -1028.81371228942     Delta-E=       -0.000000042675 Rises=F Damp=F
 DIIS: error= 3.82D-06 at cycle  11 NSaved=  11.
 NSaved=11 IEnMin=11 EnMin= -1028.81371228942     IErMin=11 ErrMin= 3.82D-06
 ErrMax= 3.82D-06  0.00D+00 EMaxC= 1.00D-01 BMatC= 1.81D-09 BMatP= 1.14D-08
 IDIUse=1 WtCom= 1.00D+00 WtEn= 0.00D+00
 Coeff-Com:  0.219D-03-0.450D-03-0.843D-03-0.744D-03 0.419D-02 0.985D-02
 Coeff-Com: -0.641D-02-0.850D-01-0.618D-01 0.224D+00 0.917D+00
 Coeff:      0.219D-03-0.450D-03-0.843D-03-0.744D-03 0.419D-02 0.985D-02
 Coeff:     -0.641D-02-0.850D-01-0.618D-01 0.224D+00 0.917D+00
 Gap=     0.260 Goal=   None    Shift=    0.000
 RMSDP=5.35D-07 MaxDP=1.38D-05 DE=-4.27D-08 OVMax= 9.96D-05

 Cycle  12  Pass 1  IDiag  1:
 RMSU=  1.94D-07    CP:  9.88D-01  1.37D+00  9.53D-01  8.61D-01  1.29D+00
                    CP:  1.53D+00  1.45D+00  1.41D+00  1.65D+00  1.52D+00
                    CP:  1.17D+00
 E= -1028.81371229809     Delta-E=       -0.000000008666 Rises=F Damp=F
 DIIS: error= 1.24D-06 at cycle  12 NSaved=  12.
 NSaved=12 IEnMin=12 EnMin= -1028.81371229809     IErMin=12 ErrMin= 1.24D-06
 ErrMax= 1.24D-06  0.00D+00 EMaxC= 1.00D-01 BMatC= 4.61D-10 BMatP= 1.81D-09
 IDIUse=1 WtCom= 1.00D+00 WtEn= 0.00D+00
 Coeff-Com:  0.101D-03-0.197D-03-0.459D-03-0.728D-03 0.865D-03 0.715D-02
 Coeff-Com:  0.892D-02-0.153D-01-0.883D-01-0.128D+00 0.322D+00 0.894D+00
 Coeff:      0.101D-03-0.197D-03-0.459D-03-0.728D-03 0.865D-03 0.715D-02
 Coeff:      0.892D-02-0.153D-01-0.883D-01-0.128D+00 0.322D+00 0.894D+00
 Gap=     0.260 Goal=   None    Shift=    0.000
 RMSDP=2.87D-07 MaxDP=6.60D-06 DE=-8.67D-09 OVMax= 4.60D-05

 Cycle  13  Pass 1  IDiag  1:
 RMSU=  7.53D-08    CP:  9.88D-01  1.37D+00  9.53D-01  8.61D-01  1.29D+00
                    CP:  1.53D+00  1.46D+00  1.42D+00  1.72D+00  1.64D+00
                    CP:  1.46D+00  1.15D+00
 E= -1028.81371229982     Delta-E=       -0.000000001731 Rises=F Damp=F
 DIIS: error= 4.18D-07 at cycle  13 NSaved=  13.
 NSaved=13 IEnMin=13 EnMin= -1028.81371229982     IErMin=13 ErrMin= 4.18D-07
 ErrMax= 4.18D-07  0.00D+00 EMaxC= 1.00D-01 BMatC= 3.20D-11 BMatP= 4.61D-10
 IDIUse=1 WtCom= 1.00D+00 WtEn= 0.00D+00
 Coeff-Com: -0.821D-05 0.191D-04 0.149D-04-0.694D-04-0.252D-03 0.291D-03
 Coeff-Com:  0.344D-02 0.791D-02-0.841D-02-0.611D-01-0.520D-01 0.203D+00
 Coeff-Com:  0.907D+00
 Coeff:     -0.821D-05 0.191D-04 0.149D-04-0.694D-04-0.252D-03 0.291D-03
 Coeff:      0.344D-02 0.791D-02-0.841D-02-0.611D-01-0.520D-01 0.203D+00
 Coeff:      0.907D+00
 Gap=     0.260 Goal=   None    Shift=    0.000
 RMSDP=6.41D-08 MaxDP=1.69D-06 DE=-1.73D-09 OVMax= 9.34D-06

 Cycle  14  Pass 1  IDiag  1:
 RMSU=  2.47D-08    CP:  9.88D-01  1.37D+00  9.53D-01  8.61D-01  1.29D+00
                    CP:  1.53D+00  1.46D+00  1.42D+00  1.74D+00  1.67D+00
                    CP:  1.52D+00  1.31D+00  1.16D+00
 E= -1028.81371229993     Delta-E=       -0.000000000106 Rises=F Damp=F
 DIIS: error= 9.20D-08 at cycle  14 NSaved=  14.
 NSaved=14 IEnMin=14 EnMin= -1028.81371229993     IErMin=14 ErrMin= 9.20D-08
 ErrMax= 9.20D-08  0.00D+00 EMaxC= 1.00D-01 BMatC= 3.28D-12 BMatP= 3.20D-11
 IDIUse=1 WtCom= 1.00D+00 WtEn= 0.00D+00
 Coeff-Com: -0.995D-05 0.202D-04 0.408D-04 0.361D-04-0.127D-03-0.509D-03
 Coeff-Com:  0.208D-03 0.293D-02 0.478D-02-0.575D-02-0.357D-01-0.166D-01
 Coeff-Com:  0.242D+00 0.809D+00
 Coeff:     -0.995D-05 0.202D-04 0.408D-04 0.361D-04-0.127D-03-0.509D-03
 Coeff:      0.208D-03 0.293D-02 0.478D-02-0.575D-02-0.357D-01-0.166D-01
 Coeff:      0.242D+00 0.809D+00
 Gap=     0.260 Goal=   None    Shift=    0.000
 RMSDP=1.44D-08 MaxDP=3.49D-07 DE=-1.06D-10 OVMax= 1.57D-06

 Cycle  15  Pass 1  IDiag  1:
 RMSU=  8.65D-09    CP:  9.88D-01  1.37D+00  9.53D-01  8.61D-01  1.29D+00
                    CP:  1.53D+00  1.46D+00  1.42D+00  1.74D+00  1.68D+00
                    CP:  1.53D+00  1.34D+00  1.26D+00  1.12D+00
 E= -1028.81371229994     Delta-E=       -0.000000000012 Rises=F Damp=F
 DIIS: error= 6.29D-08 at cycle  15 NSaved=  15.
 NSaved=15 IEnMin=15 EnMin= -1028.81371229994     IErMin=15 ErrMin= 6.29D-08
 ErrMax= 6.29D-08  0.00D+00 EMaxC= 1.00D-01 BMatC= 6.23D-13 BMatP= 3.28D-12
 IDIUse=1 WtCom= 1.00D+00 WtEn= 0.00D+00
 Coeff-Com: -0.206D-05 0.371D-05 0.124D-04 0.237D-04-0.693D-05-0.266D-03
 Coeff-Com: -0.528D-03-0.254D-03 0.336D-02 0.837D-02-0.454D-02-0.431D-01
 Coeff-Com: -0.657D-01 0.284D+00 0.819D+00
 Coeff:     -0.206D-05 0.371D-05 0.124D-04 0.237D-04-0.693D-05-0.266D-03
 Coeff:     -0.528D-03-0.254D-03 0.336D-02 0.837D-02-0.454D-02-0.431D-01
 Coeff:     -0.657D-01 0.284D+00 0.819D+00
 Gap=     0.260 Goal=   None    Shift=    0.000
 RMSDP=6.81D-09 MaxDP=1.49D-07 DE=-1.21D-11 OVMax= 8.06D-07

 Error on total polarization charges =  0.00824
 SCF Done:  E(RwB97XD) =  -1028.81371230     A.U. after   15 cycles
            NFock= 15  Conv=0.68D-08     -V/T= 2.0046
 KE= 1.024152673017D+03 PE=-4.620275547485D+03 EE= 1.463418277594D+03
 Leave Link  502 at Mon Jul 13 11:58:26 2020, MaxMem=  7784628224 cpu:             852.0 elap:              71.7
 (Enter /gpfs/loomis/apps/avx/software/Gaussian/16-C.01_AVX/g16/l801.exe)
 DoSCS=F DFT=T ScalE2(SS,OS)=  1.000000  1.000000
 ExpMin= 1.22D-01 ExpMax= 1.11D+05 ExpMxC= 1.07D+03 IAcc=3 IRadAn=         5 AccDes= 0.00D+00
 HarFok:  IExCor=  205 AccDes= 0.00D+00 IRadAn=         5 IDoV=-2 UseB2=F ITyADJ=14
 ICtDFT= 12500011 ScaDFX=  1.000000  1.000000  1.000000  1.000000
 Largest valence mixing into a core orbital is  9.49D-05
 Largest core mixing into a valence orbital is  3.02D-05
 Range of M.O.s used for correlation:    21   273
 NBasis=   273 NAE=    59 NBE=    59 NFC=    20 NFV=     0
 NROrb=    253 NOA=    39 NOB=    39 NVA=   214 NVB=   214

 **** Warning!!: The largest alpha MO coefficient is  0.11295484D+02

 Leave Link  801 at Mon Jul 13 11:58:27 2020, MaxMem=  7784628224 cpu:               1.4 elap:               0.2
 (Enter /gpfs/loomis/apps/avx/software/Gaussian/16-C.01_AVX/g16/l914.exe)
 RHF ground state
 Keep R1, R2, and R3 ints in memory in canonical form, NReq=4272833617.
 FoFCou: FMM=F IPFlag=           0 FMFlag=           0 FMFlg1=           0
         NFxFlg=           0 DoJE=F BraDBF=F KetDBF=F FulRan=T
         wScrn=  0.000000 ICntrl=       600 IOpCl=  0 I1Cent=           0 NGrid=           0
         NMat0=    1 NMatS0=  37401 NMatT0=    0 NMatD0=    1 NMtDS0=    0 NMtDT0=    0
 Symmetry not used in FoFCou.
 Two-electron integral symmetry not used.
 MDV=  7784628224 DFT=T DoStab=F Mixed=T DoRPA=T DoScal=F NonHer=T
 NEqPCM:  Using equilibrium solvation (IEInf=0, Eps=   2.2280, EpsInf=   2.1319)
 Making orbital integer symmetry assigments:
 Orbital symmetries:
       Occupied  (A) (A) (A) (A) (A) (A) (A) (A) (A) (A) (A) (A)
                 (A) (A) (A) (A) (A) (A) (A) (A) (A) (A) (A) (A)
                 (A) (A) (A) (A) (A) (A) (A) (A) (A) (A) (A) (A)
                 (A) (A) (A) (A) (A) (A) (A) (A) (A) (A) (A) (A)
                 (A) (A) (A) (A) (A) (A) (A) (A) (A) (A) (A)
       Virtual   (A) (A) (A) (A) (A) (A) (A) (A) (A) (A) (A) (A)
                 (A) (A) (A) (A) (A) (A) (A) (A) (A) (A) (A) (A)
                 (A) (A) (A) (A) (A) (A) (A) (A) (A) (A) (A) (A)
                 (A) (A) (A) (A) (A) (A) (A) (A) (A) (A) (A) (A)
                 (A) (A) (A) (A) (A) (A) (A) (A) (A) (A) (A) (A)
                 (A) (A) (A) (A) (A) (A) (A) (A) (A) (A) (A) (A)
                 (A) (A) (A) (A) (A) (A) (A) (A) (A) (A) (A) (A)
                 (A) (A) (A) (A) (A) (A) (A) (A) (A) (A) (A) (A)
                 (A) (A) (A) (A) (A) (A) (A) (A) (A) (A) (A) (A)
                 (A) (A) (A) (A) (A) (A) (A) (A) (A) (A) (A) (A)
                 (A) (A) (A) (A) (A) (A) (A) (A) (A) (A) (A) (A)
                 (A) (A) (A) (A) (A) (A) (A) (A) (A) (A) (A) (A)
                 (A) (A) (A) (A) (A) (A) (A) (A) (A) (A) (A) (A)
                 (A) (A) (A) (A) (A) (A) (A) (A) (A) (A) (A) (A)
                 (A) (A) (A) (A) (A) (A) (A) (A) (A) (A) (A) (A)
                 (A) (A) (A) (A) (A) (A) (A) (A) (A) (A) (A) (A)
                 (A) (A) (A) (A) (A) (A) (A) (A) (A) (A) (A) (A)
                 (A) (A) (A) (A) (A) (A) (A) (A) (A) (A)
    12 initial guesses have been made.
 Convergence on wavefunction:    0.000001000000000
 Davidson Disk Diagonalization:  ConvIn= 1.00D-06 SkipCon=T Conv= 1.00D-06.
 Max sub-space:  2000 roots to seek:    12 dimension of matrix:        16692
 Iteration     1 Dimension    12 NMult     0 NNew     12
 CISAX will form    12 AO SS matrices at one time.
 NMat=    12 NSing=    12 JSym2X= 0.
 New state      3 was old state      5
 Excitation Energies [eV] at current iteration:
 Root      1 :     3.877792717794814
 Root      2 :     4.997629027539215
 Root      3 :     4.998888968363949
 Root      4 :     5.189948197677964
 Root      5 :     5.942665149391912
 Root      6 :     6.190703128600535
 Root      7 :     6.366759063084560
 Root      8 :     6.493271319259533
 Root      9 :     6.905532936991395
 Root     10 :     7.191560671162518
 Root     11 :     7.322671867351897
 Root     12 :     8.035043984508617
 Iteration     2 Dimension    18 NMult    12 NNew      6
 CISAX will form     6 AO SS matrices at one time.
 NMat=     6 NSing=     6 JSym2X= 0.
 Root      1 not converged, maximum delta is    0.042870469032886
 Root      2 not converged, maximum delta is    0.088146049443610
 Root      3 not converged, maximum delta is    0.059903598394023
 Excitation Energies [eV] at current iteration:
 Root      1 :     3.390948058462451   Change is   -0.486844659332362
 Root      2 :     4.464471133149613   Change is   -0.533157894389602
 Root      3 :     4.789606743769717   Change is   -0.209282224594232
 Iteration     3 Dimension    24 NMult    18 NNew      6
 CISAX will form     6 AO SS matrices at one time.
 NMat=     6 NSing=     6 JSym2X= 0.
 Root      1 not converged, maximum delta is    0.021301469088441
 Root      2 not converged, maximum delta is    0.023245174964913
 Root      3 not converged, maximum delta is    0.026144891066524
 Excitation Energies [eV] at current iteration:
 Root      1 :     3.356525347870001   Change is   -0.034422710592450
 Root      2 :     4.430832473947095   Change is   -0.033638659202518
 Root      3 :     4.774048009000258   Change is   -0.015558734769459
 Iteration     4 Dimension    30 NMult    24 NNew      6
 CISAX will form     6 AO SS matrices at one time.
 NMat=     6 NSing=     6 JSym2X= 0.
 Root      1 not converged, maximum delta is    0.007863286931931
 Root      2 not converged, maximum delta is    0.013137528369431
 Root      3 not converged, maximum delta is    0.008236257619835
 Excitation Energies [eV] at current iteration:
 Root      1 :     3.351857594810633   Change is   -0.004667753059368
 Root      2 :     4.424981351422663   Change is   -0.005851122524432
 Root      3 :     4.772667861389062   Change is   -0.001380147611196
 Iteration     5 Dimension    36 NMult    30 NNew      6
 CISAX will form     6 AO SS matrices at one time.
 NMat=     6 NSing=     6 JSym2X= 0.
 Root      1 not converged, maximum delta is    0.002981261438094
 Root      2 not converged, maximum delta is    0.003657859045650
 Root      3 not converged, maximum delta is    0.001684162814461
 Excitation Energies [eV] at current iteration:
 Root      1 :     3.351400528298684   Change is   -0.000457066511949
 Root      2 :     4.424332332754124   Change is   -0.000649018668539
 Root      3 :     4.772550112890975   Change is   -0.000117748498088
 Iteration     6 Dimension    42 NMult    36 NNew      6
 CISAX will form     6 AO SS matrices at one time.
 NMat=     6 NSing=     6 JSym2X= 0.
 Root      1 not converged, maximum delta is    0.000529523981455
 Root      2 not converged, maximum delta is    0.001830153509268
 Root      3 not converged, maximum delta is    0.000298956674733
 Excitation Energies [eV] at current iteration:
 Root      1 :     3.351352383628621   Change is   -0.000048144670063
 Root      2 :     4.424235242904420   Change is   -0.000097089849704
 Root      3 :     4.772539645943347   Change is   -0.000010466947627
 Iteration     7 Dimension    48 NMult    42 NNew      6
 CISAX will form     6 AO SS matrices at one time.
 NMat=     6 NSing=     6 JSym2X= 0.
 Root      1 not converged, maximum delta is    0.000189138676927
 Root      2 not converged, maximum delta is    0.001730545590930
 Root      3 not converged, maximum delta is    0.000196820169618
 Excitation Energies [eV] at current iteration:
 Root      1 :     3.351348883986344   Change is   -0.000003499642277
 Root      2 :     4.424214640831396   Change is   -0.000020602073025
 Root      3 :     4.772538997289964   Change is   -0.000000648653382
 Iteration     8 Dimension    54 NMult    48 NNew      6
 CISAX will form     6 AO SS matrices at one time.
 NMat=     6 NSing=     6 JSym2X= 0.
 Root      1 not converged, maximum delta is    0.000032749883542
 Root      2 not converged, maximum delta is    0.000592030602332
 Root      3 not converged, maximum delta is    0.000518260832503
 Excitation Energies [eV] at current iteration:
 Root      1 :     3.351348602895749   Change is   -0.000000281090595
 Root      2 :     4.424211462456188   Change is   -0.000003178375208
 Root      3 :     4.772538891725300   Change is   -0.000000105564665
 Iteration     9 Dimension    60 NMult    54 NNew      6
 CISAX will form     6 AO SS matrices at one time.
 NMat=     6 NSing=     6 JSym2X= 0.
 Root      1 not converged, maximum delta is    0.000009454656621
 Root      2 not converged, maximum delta is    0.000173203938034
 Root      3 not converged, maximum delta is    0.020841780083470
 Excitation Energies [eV] at current iteration:
 Root      1 :     3.351348587149066   Change is   -0.000000015746682
 Root      2 :     4.424210975075147   Change is   -0.000000487381041
 Root      3 :     4.772536884762856   Change is   -0.000002006962444
 Iteration    10 Dimension    66 NMult    60 NNew      6
 CISAX will form     6 AO SS matrices at one time.
 NMat=     6 NSing=     6 JSym2X= 0.
 Root      1 not converged, maximum delta is    0.000002078679049
 Root      2 not converged, maximum delta is    0.000025239103637
 No map to state      3
 Excitation Energies [eV] at current iteration:
 Root      1 :     3.351348586262270   Change is   -0.000000000886797
 Root      2 :     4.424210921262692   Change is   -0.000000053812455
 Root      3 :     4.765406626256712
 Iteration    11 Dimension    72 NMult    66 NNew      6
 CISAX will form     6 AO SS matrices at one time.
 NMat=     6 NSing=     6 JSym2X= 0.
 Root      1 has converged.
 Root      2 not converged, maximum delta is    0.000004478748843
 Root      3 not converged, maximum delta is    0.003544918179017
 Excitation Energies [eV] at current iteration:
 Root      1 :     3.351348586217135   Change is   -0.000000000045134
 Root      2 :     4.424210917302723   Change is   -0.000000003959969
 Root      3 :     4.764608407446270   Change is   -0.000798218810442
 Iteration    12 Dimension    76 NMult    72 NNew      4
 CISAX will form     4 AO SS matrices at one time.
 NMat=     4 NSing=     4 JSym2X= 0.
 Root      1 has converged.
 Root      2 has converged.
 Root      3 not converged, maximum delta is    0.001073269578981
 Excitation Energies [eV] at current iteration:
 Root      1 :     3.351348586217012   Change is   -0.000000000000123
 Root      2 :     4.424210917088277   Change is   -0.000000000214446
 Root      3 :     4.764545921048637   Change is   -0.000062486397633
 Iteration    13 Dimension    78 NMult    76 NNew      2
 CISAX will form     2 AO SS matrices at one time.
 NMat=     2 NSing=     2 JSym2X= 0.
 Root      1 has converged.
 Root      2 has converged.
 Root      3 not converged, maximum delta is    0.000285398998109
 Excitation Energies [eV] at current iteration:
 Root      1 :     3.351348586216988   Change is   -0.000000000000025
 Root      2 :     4.424210917082368   Change is   -0.000000000005909
 Root      3 :     4.764541023786985   Change is   -0.000004897261652
 Iteration    14 Dimension    80 NMult    78 NNew      2
 CISAX will form     2 AO SS matrices at one time.
 NMat=     2 NSing=     2 JSym2X= 0.
 Root      1 has converged.
 Root      2 has converged.
 Root      3 not converged, maximum delta is    0.000099371598902
 Excitation Energies [eV] at current iteration:
 Root      1 :     3.351348586217037   Change is    0.000000000000049
 Root      2 :     4.424210917082238   Change is   -0.000000000000130
 Root      3 :     4.764540560300770   Change is   -0.000000463486216
 Iteration    15 Dimension    82 NMult    80 NNew      2
 CISAX will form     2 AO SS matrices at one time.
 NMat=     2 NSing=     2 JSym2X= 0.
 Root      1 has converged.
 Root      2 has converged.
 Root      3 not converged, maximum delta is    0.000040300780965
 Excitation Energies [eV] at current iteration:
 Root      1 :     3.351348586216988   Change is   -0.000000000000049
 Root      2 :     4.424210917081978   Change is   -0.000000000000261
 Root      3 :     4.764540504824341   Change is   -0.000000055476428
 Iteration    16 Dimension    84 NMult    82 NNew      2
 CISAX will form     2 AO SS matrices at one time.
 NMat=     2 NSing=     2 JSym2X= 0.
 Root      1 has converged.
 Root      2 has converged.
 Root      3 not converged, maximum delta is    0.000020301436247
 Excitation Energies [eV] at current iteration:
 Root      1 :     3.351348586216914   Change is   -0.000000000000074
 Root      2 :     4.424210917081736   Change is   -0.000000000000241
 Root      3 :     4.764540497421828   Change is   -0.000000007402513
 Iteration    17 Dimension    86 NMult    84 NNew      2
 CISAX will form     2 AO SS matrices at one time.
 NMat=     2 NSing=     2 JSym2X= 0.
 Root      1 has converged.
 Root      2 has converged.
 Root      3 not converged, maximum delta is    0.000008891633366
 Excitation Energies [eV] at current iteration:
 Root      1 :     3.351348586216865   Change is   -0.000000000000049
 Root      2 :     4.424210917081606   Change is   -0.000000000000131
 Root      3 :     4.764540496252420   Change is   -0.000000001169409
 Iteration    18 Dimension    88 NMult    86 NNew      2
 CISAX will form     2 AO SS matrices at one time.
 NMat=     2 NSing=     2 JSym2X= 0.
 Root      1 has converged.
 Root      2 has converged.
 Root      3 not converged, maximum delta is    0.000002812955291
 Excitation Energies [eV] at current iteration:
 Root      1 :     3.351348586216914   Change is    0.000000000000049
 Root      2 :     4.424210917081439   Change is   -0.000000000000167
 Root      3 :     4.764540496076066   Change is   -0.000000000176353
 Iteration    19 Dimension    90 NMult    88 NNew      2
 CISAX will form     2 AO SS matrices at one time.
 NMat=     2 NSing=     2 JSym2X= 0.
 Root      1 has converged.
 Root      2 has converged.
 Root      3 has converged.
 Excitation Energies [eV] at current iteration:
 Root      1 :     3.351348586217012   Change is    0.000000000000098
 Root      2 :     4.424210917081532   Change is    0.000000000000093
 Root      3 :     4.764540496052669   Change is   -0.000000000023397
 Convergence achieved on expansion vectors.
 ***********************************************************************
 Excited states from <AA,BB:AA,BB> singles matrix:
 ***********************************************************************
 
 1PDM for each excited state written to RWF  633
 Ground to excited state transition densities written to RWF  633
 Ground to excited state transition electric dipole moments (Au):
       state          X           Y           Z        Dip. S.      Osc.
         1         2.5086     -0.5403     -0.0001      6.5851      0.5407
         2         1.6625      0.6099      0.0000      3.1358      0.3399
         3        -0.4003     -0.5091     -0.0001      0.4194      0.0490
 Ground to excited state transition velocity dipole moments (Au):
       state          X           Y           Z        Dip. S.      Osc.
         1        -0.3050      0.0707      0.0000      0.0980      0.5307
         2        -0.2602     -0.1022     -0.0000      0.0781      0.3204
         3         0.0700      0.0878      0.0000      0.0126      0.0480
 Ground to excited state transition magnetic dipole moments (Au):
       state          X           Y           Z
         1        -0.0001      0.0001     -0.9128
         2         0.0000     -0.0001      1.1580
         3         0.0008      0.0002     -0.0047
 Ground to excited state transition velocity quadrupole moments (Au):
       state          XX          YY          ZZ          XY          XZ          YZ
         1         0.4958      0.0131     -0.0136     -0.3019     -0.0000      0.0000
         2        -0.2325     -0.1025      0.0043      0.4835      0.0000     -0.0000
         3         0.3791     -0.1020     -0.0245      0.2091     -0.0000      0.0002
 <0|del|b> * <b|rxdel|0> + <0|del|b> * <b|delr+rdel|0>
 Rotatory Strengths (R) in cgs (10**-40 erg-esu-cm/Gauss)
       state          XX          YY          ZZ    R(velocity)    E-M Angle
         1        -0.0238      0.0008      0.0872      0.0214       90.00
         2         0.0178     -0.0082     -0.0184     -0.0029       90.00
         3         0.0444      0.1386      0.1124      0.0985       90.00
 1/2[<0|r|b>*<b|rxdel|0> + (<0|rxdel|b>*<b|r|0>)*]
 Rotatory Strengths (R) in cgs (10**-40 erg-esu-cm/Gauss)
       state          XX          YY          ZZ     R(length)
         1         0.1036      0.0447     -0.0872      0.0204
         2        -0.0283      0.0234     -0.0014     -0.0021
         3         0.2392      0.0576     -0.0003      0.0989
  1/2[<0|del|b>*<b|r|0> + (<0|r|b>*<b|del|0>)*] (Au)
       state          X           Y           Z        Dip. S.   Osc.(frdel)
         1        -0.7652     -0.0382     -0.0000      0.8034      0.5356
         2        -0.4325     -0.0623     -0.0000      0.4949      0.3299
         3        -0.0280     -0.0447     -0.0000      0.0727      0.0485

 Excitation energies and oscillator strengths:
 
 Excited State   1:      Singlet-A      3.3513 eV  369.95 nm  f=0.5407  <S**2>=0.000
      59 -> 60         0.69290
 This state for optimization and/or second-order correction.
 Total Energy, E(TD-HF/TD-DFT) =  -1028.69055251    
 Copying the excited state density for this state as the 1-particle RhoCI density.
 
 Excited State   2:      Singlet-A      4.4242 eV  280.24 nm  f=0.3399  <S**2>=0.000
      57 -> 60         0.14327
      58 -> 60         0.65971
      59 -> 64        -0.10640
 
 Excited State   3:      Singlet-A      4.7645 eV  260.22 nm  f=0.0490  <S**2>=0.000
      55 -> 61        -0.10772
      57 -> 60         0.58010
      57 -> 62        -0.15020
      58 -> 60        -0.14443
      58 -> 61        -0.18691
      59 -> 61        -0.23715
 SavETr:  write IOETrn=   770 NScale= 10 NData=  16 NLR=1 NState=    3 LETran=      64.
 The selected state is a singlet.
 CISGrd: IGrad=3 NXY=2 DFT=T
 CISAX will form     1 AO SS matrices at one time.
 NMat=     1 NSing=     1 JSym2X= 0.
 GePol: Maximum number of non-zero 1st derivatives   =     257
 GePol: Maximum number of non-zero 2nd derivatives   =     257
 Leave Link  914 at Mon Jul 13 12:02:04 2020, MaxMem=  7784628224 cpu:            2552.5 elap:             217.4
 (Enter /gpfs/loomis/apps/avx/software/Gaussian/16-C.01_AVX/g16/l1002.exe)
 Minotr:  Closed shell wavefunction.
          Computing CIS/TDA/TD derivatives.
          Using Z-Vector for PSCF gradient.
          Skipping F1 and S1 gradient terms here.
          IDoAtm=1111111111111111111111111
 NEqPCM:  Using equilibrium solvation (IEInf=0, Eps=   2.2280, EpsInf=   2.1319)
          Frozen-core window.
          Direct CPHF calculation.
          Differentiating once with respect to electric field.
                with respect to dipole field.
          Differentiating once with respect to nuclear coordinates.
          Requested convergence is 1.0D-10 RMS, and 1.0D-09 maximum.
          NewPWx=F KeepS1=T KeepF1=T KeepIn=T MapXYZ=F SortEE=F KeepMc=T.
 Keep R1 ints in memory in canonical form, NReq=1422647752.
 FoFCou: FMM=F IPFlag=           0 FMFlag=           0 FMFlg1=           0
         NFxFlg=           0 DoJE=F BraDBF=F KetDBF=F FulRan=T
         wScrn=  0.000000 ICntrl=       600 IOpCl=  0 I1Cent=           0 NGrid=           0
         NMat0=    1 NMatS0=  37401 NMatT0=    0 NMatD0=    1 NMtDS0=    0 NMtDT0=    0
 Symmetry not used in FoFCou.
 Two-electron integral symmetry not used.
          MDV=    7784628224 using IRadAn=       5.
          Solving linear equations separately, MaxMat=       0.
          There are     1 degrees of freedom in the 1st order CPHF.  IDoFFX=0 NUNeed=     1.
 LinEq1:  Iter=  0 NonCon=     1 RMS=5.12D-03 Max=2.45D-01 NDo=     1
 AX will form     1 AO Fock derivatives at one time.
 LinEq1:  Iter=  1 NonCon=     1 RMS=2.14D-03 Max=9.47D-02 NDo=     1
 LinEq1:  Iter=  2 NonCon=     1 RMS=1.32D-03 Max=4.34D-02 NDo=     1
 LinEq1:  Iter=  3 NonCon=     1 RMS=4.78D-04 Max=1.29D-02 NDo=     1
 LinEq1:  Iter=  4 NonCon=     1 RMS=2.58D-04 Max=9.61D-03 NDo=     1
 LinEq1:  Iter=  5 NonCon=     1 RMS=1.34D-04 Max=5.97D-03 NDo=     1
 LinEq1:  Iter=  6 NonCon=     1 RMS=6.15D-05 Max=2.51D-03 NDo=     1
 LinEq1:  Iter=  7 NonCon=     1 RMS=3.44D-05 Max=1.14D-03 NDo=     1
 LinEq1:  Iter=  8 NonCon=     1 RMS=1.43D-05 Max=4.60D-04 NDo=     1
 LinEq1:  Iter=  9 NonCon=     1 RMS=7.87D-06 Max=2.34D-04 NDo=     1
 LinEq1:  Iter= 10 NonCon=     1 RMS=2.95D-06 Max=7.69D-05 NDo=     1
 LinEq1:  Iter= 11 NonCon=     1 RMS=1.63D-06 Max=7.98D-05 NDo=     1
 LinEq1:  Iter= 12 NonCon=     1 RMS=7.45D-07 Max=2.01D-05 NDo=     1
 LinEq1:  Iter= 13 NonCon=     1 RMS=3.13D-07 Max=9.07D-06 NDo=     1
 LinEq1:  Iter= 14 NonCon=     1 RMS=1.31D-07 Max=3.35D-06 NDo=     1
 LinEq1:  Iter= 15 NonCon=     1 RMS=6.74D-08 Max=2.21D-06 NDo=     1
 LinEq1:  Iter= 16 NonCon=     1 RMS=2.78D-08 Max=8.36D-07 NDo=     1
 LinEq1:  Iter= 17 NonCon=     1 RMS=1.34D-08 Max=5.79D-07 NDo=     1
 LinEq1:  Iter= 18 NonCon=     1 RMS=5.12D-09 Max=1.53D-07 NDo=     1
 LinEq1:  Iter= 19 NonCon=     1 RMS=2.63D-09 Max=6.54D-08 NDo=     1
 LinEq1:  Iter= 20 NonCon=     1 RMS=1.19D-09 Max=3.66D-08 NDo=     1
 LinEq1:  Iter= 21 NonCon=     1 RMS=2.82D-10 Max=6.59D-09 NDo=     1
 LinEq1:  Iter= 22 NonCon=     1 RMS=1.06D-10 Max=2.36D-09 NDo=     1
 LinEq1:  Iter= 23 NonCon=     0 RMS=4.68D-11 Max=8.01D-10 NDo=     1
 Linear equations converged to 1.000D-10 1.000D-09 after    23 iterations.
          There are     1 degrees of freedom in the 1st order CPHF.  IDoFFX=0 NUNeed=     1.
 End of Minotr F.D. properties file   721 does not exist.
 End of Minotr F.D. properties file   722 does not exist.
 End of Minotr F.D. properties file   788 does not exist.
 Leave Link 1002 at Mon Jul 13 12:03:40 2020, MaxMem=  7784628224 cpu:             805.3 elap:              96.2
 (Enter /gpfs/loomis/apps/avx/software/Gaussian/16-C.01_AVX/g16/l1101.exe)
 Using compressed Sx but separate Hx and Fx, NAtomX=    25.
 Will process     26 centers per pass.
 Leave Link 1101 at Mon Jul 13 12:03:41 2020, MaxMem=  7784628224 cpu:               7.1 elap:               0.8
 (Enter /gpfs/loomis/apps/avx/software/Gaussian/16-C.01_AVX/g16/l1102.exe)
 Use density number 6.
 Symmetrizing basis deriv contribution to polar:
 IMax=3 JMax=2 DiffMx= 0.00D+00
 Leave Link 1102 at Mon Jul 13 12:03:41 2020, MaxMem=  7784628224 cpu:               0.8 elap:               0.1
 (Enter /gpfs/loomis/apps/avx/software/Gaussian/16-C.01_AVX/g16/l1110.exe)
 Forming Gx(P) for the SCF density, NAtomX=    25.
 Integral derivatives from FoFJK, PRISM(SPDF).
 Do as many integral derivatives as possible in FoFJK.
 G2DrvN: MDV=    7784625563.
 G2DrvN: will do    26 centers at a time, making    1 passes.
 Calling FoFCou, ICntrl=  3107 FMM=F I1Cent=   0 AccDes= 0.00D+00.
 FoFJK:  IHMeth= 1 ICntrl=    3107 DoSepK=T KAlg= 0 I1Cent=           0 FoldK=F
 IRaf=         1 NMat=       1 IRICut=       1 DoRegI=T DoRafI=F ISym2E= 0 IDoP0=0 IntGTp=1.
 FoFCou: FMM=F IPFlag=           0 FMFlag=      100000 FMFlg1=           0
         NFxFlg=           0 DoJE=F BraDBF=F KetDBF=F FulRan=T
         wScrn=  0.000000 ICntrl=      3507 IOpCl=  0 I1Cent=           0 NGrid=           0
         NMat0=    1 NMatS0=      1 NMatT0=    0 NMatD0=    1 NMtDS0=    0 NMtDT0=    0
 Symmetry not used in FoFCou.
 NEqPCM:  Using equilibrium solvation (IEInf=0, Eps=   2.2280, EpsInf=   2.1319)
 G2PCM: DoFxE=T DoFxN=T DoGrad=T DoDP/DQ/DG/TGxP=FFFF NFrqRd=   0 IEInf=0 SqF1=F DoCFld=F IF1Alg=4.
 Forming Gx(P) for generalized density number  6 NAtomX=    25.
 Integral derivatives from FoFJK, PRISM(SPDF).
 Do as many integral derivatives as possible in FoFJK.
 G2DrvN: MDV=    7784625563.
 G2DrvN: will do    26 centers at a time, making    1 passes.
 Calling FoFCou, ICntrl=  3107 FMM=F I1Cent=   0 AccDes= 0.00D+00.
 NEqPCM:  Using equilibrium solvation (IEInf=0, Eps=   2.2280, EpsInf=   2.1319)
 G2PCM: DoFxE=T DoFxN=F DoGrad=F DoDP/DQ/DG/TGxP=FFFF NFrqRd=   0 IEInf=0 SqF1=F DoCFld=F IF1Alg=4.
 Forming Gx(T) for CIS/TDA/TD state  1 NAtomX=    25.
 Integral derivatives from FoFJK, PRISM(SPDF).
 Do as many integral derivatives as possible in FoFJK.
 G2DrvN: MDV=    7784625563.
 G2DrvN: will do    26 centers at a time, making    1 passes.
 Calling FoFCou, ICntrl=  3107 FMM=F I1Cent=   0 AccDes= 0.00D+00.
 NEqPCM:  Using equilibrium solvation (IEInf=0, Eps=   2.2280, EpsInf=   2.1319)
 G2PCM: DoFxE=T DoFxN=F DoGrad=F DoDP/DQ/DG/TGxP=FFFF NFrqRd=   0 IEInf=0 SqF1=T DoCFld=F IF1Alg=4.
 End of G2Drv F.D. properties file   721 does not exist.
 End of G2Drv F.D. properties file   722 does not exist.
 End of G2Drv F.D. properties file   788 does not exist.
 Leave Link 1110 at Mon Jul 13 12:07:36 2020, MaxMem=  7784628224 cpu:            2757.0 elap:             234.1
 (Enter /gpfs/loomis/apps/avx/software/Gaussian/16-C.01_AVX/g16/l1002.exe)
 Minotr:  Closed shell wavefunction.
          IDoAtm=1111111111111111111111111
 NEqPCM:  Using equilibrium solvation (IEInf=0, Eps=   2.2280, EpsInf=   2.1319)
          Frozen-core window.
          Direct CPHF calculation.
          Differentiating once with respect to electric field.
                with respect to dipole field.
          Differentiating once with respect to nuclear coordinates.
          Requested convergence is 1.0D-08 RMS, and 1.0D-07 maximum.
          Secondary convergence is 1.0D-12 RMS, and 1.0D-12 maximum.
          NewPWx=T KeepS1=T KeepF1=T KeepIn=T MapXYZ=F SortEE=F KeepMc=T.
         7528 words used for storage of precomputed grid.
 Keep R1 ints in memory in canonical form, NReq=1422613148.
 FoFCou: FMM=F IPFlag=           0 FMFlag=           0 FMFlg1=           0
         NFxFlg=           0 DoJE=F BraDBF=F KetDBF=F FulRan=T
         wScrn=  0.000000 ICntrl=       600 IOpCl=  0 I1Cent=           0 NGrid=           0
         NMat0=    1 NMatS0=  37401 NMatT0=    0 NMatD0=    1 NMtDS0=    0 NMtDT0=    0
 Symmetry not used in FoFCou.
 Two-electron integral symmetry not used.
          MDV=    7784628224 using IRadAn=       1.
          Solving linear equations simultaneously, MaxMat=       0.
          There are    78 degrees of freedom in the 1st order CPHF.  IDoFFX=6 NUNeed=    78.
     75 vectors produced by pass  0 Test12= 1.62D-14 1.28D-09 XBig12= 1.89D+02 8.84D+00.
 AX will form    75 AO Fock derivatives at one time.
     75 vectors produced by pass  1 Test12= 1.62D-14 1.28D-09 XBig12= 1.78D+01 5.61D-01.
     75 vectors produced by pass  2 Test12= 1.62D-14 1.28D-09 XBig12= 5.25D-01 1.04D-01.
     75 vectors produced by pass  3 Test12= 1.62D-14 1.28D-09 XBig12= 4.77D-03 9.63D-03.
     75 vectors produced by pass  4 Test12= 1.62D-14 1.28D-09 XBig12= 3.78D-05 7.14D-04.
     75 vectors produced by pass  5 Test12= 1.62D-14 1.28D-09 XBig12= 2.02D-07 4.94D-05.
     73 vectors produced by pass  6 Test12= 1.62D-14 1.28D-09 XBig12= 9.97D-10 3.05D-06.
     31 vectors produced by pass  7 Test12= 1.62D-14 1.28D-09 XBig12= 3.84D-12 1.76D-07.
      3 vectors produced by pass  8 Test12= 1.62D-14 1.28D-09 XBig12= 1.51D-14 1.61D-08.
 InvSVY:  IOpt=1 It=  1 EMax= 6.62D-15
 Solved reduced A of dimension   557 with    78 vectors.
 FullF1:  Do perturbations      1 to      78.
 Isotropic polarizability for W=    0.000000      210.18 Bohr**3.
 Saving first derivative matrices.
 End of Minotr F.D. properties file   721 does not exist.
 End of Minotr F.D. properties file   722 does not exist.
 End of Minotr F.D. properties file   788 does not exist.
 Leave Link 1002 at Mon Jul 13 12:09:46 2020, MaxMem=  7784628224 cpu:            1492.6 elap:             130.3
 (Enter /gpfs/loomis/apps/avx/software/Gaussian/16-C.01_AVX/g16/l1014.exe)
 This link is doing    78 degrees of freedom
 Form MO integral derivatives with frozen-active canonical formalism.
 CISSec: MDV=    7784616303
 Doing TD-HF/TD-DFT second derivatives, IDoFFX=6 IOneXC=4 IRadAn=         1.
 Frozen orbitals handled with amplitudes over full window.
 Frozen-core window:  NFC=  20 NFV=   0.
 Symmetry is being used.
 Keep R1, R2, and R3 ints in memory in canonical form, NReq=4220579073.
 FoFCou: FMM=F IPFlag=           0 FMFlag=           0 FMFlg1=           0
[...]
 ,0.,-0.00010565,0.00000351,0.,0.00000158,-0.00002976,0.,0.01227088,0.0
 0004539,-0.00000045,0.00263929,-0.00175680,-0.00000015,-0.01766761,0.0
 2971566,0.00000240,-0.02138863,-0.12917846,-0.00000409,0.00793207,0.00
 228126,0.00000034,0.05544723,0.69245834,0.00000007,-0.00000015,-0.0000
 4732,-0.00000026,-0.00000084,-0.00010013,-0.00000168,0.00000038,-0.000
 16276,0.00000075,0.00000049,-0.00021770,-0.00000046,0.00000049,-0.0000
 2935,-0.00000001,-0.00000035,0.00001581,-0.00000001,0.00000002,-0.0000
 2885,0.,-0.00000001,-0.00002254,-0.00000002,0.,0.00001171,0.,0.,0.0000
 4745,0.00000190,-0.00000018,0.00213138,0.00000043,-0.00000020,-0.00000
 993,0.00000087,0.00000372,0.00218123,0.00000808,-0.00000728,-0.0523904
 0,0.00000033,0.00000023,-0.00447055,-0.00001553,0.00003293,0.13085473,
 0.00009941,0.00011891,0.,-0.00020904,-0.00032690,-0.00000002,0.0002601
 1,-0.00004559,0.,-0.00007172,0.00000370,0.,0.00007306,-0.00002102,0.,0
 .00002898,0.00002100,0.,0.00000406,-0.00001218,0.,0.00000440,0.0000143
 1,0.,0.00000734,0.00000440,0.,0.00002058,0.00001170,0.,-0.00006166,0.0
 0014056,-0.00000005,-0.00152915,0.00061313,0.00000009,0.01015690,-0.01
 790800,-0.00000135,-0.10210426,0.10335820,0.00000901,-0.00348769,-0.00
 224071,0.00000027,-0.00737370,0.03015997,0.00000224,0.10708247,0.00017
 803,0.00009674,0.,-0.00078086,-0.00032998,0.00000001,0.00000374,0.0003
 8524,0.,0.00007962,0.00015932,0.,-0.00010204,0.00019901,0.00000001,-0.
 00001687,-0.00021713,-0.00000001,-0.00001969,-0.00000526,0.,0.00002311
 ,0.00001461,0.,-0.00000049,0.00000084,0.,0.00001419,0.00001182,0.,-0.0
 0008532,0.00078683,0.00000016,-0.00069696,0.00006724,0.,0.01314358,-0.
 01716591,-0.00000179,0.10407961,-0.29916355,-0.00002045,-0.00451965,0.
 00013277,-0.00000029,-0.00133870,0.00022996,-0.00000008,-0.11130649,0.
 31444987,0.,0.,-0.00004080,-0.00000003,0.00000003,-0.00032998,0.000000
 03,0.,0.00020627,0.,0.,0.00009476,0.,0.,0.00000586,0.,0.,0.00002070,0.
 ,0.,0.00000548,0.,0.,0.00001431,0.,0.,-0.00000059,0.,0.,-0.00000636,-0
 .00000009,0.00000014,-0.00151835,-0.00000004,0.,0.00074011,0.00000060,
 -0.00000063,0.00387274,0.00000911,-0.00002047,-0.03175981,0.00000013,-
 0.00000034,0.00743423,0.00000026,-0.00000127,0.00245842,-0.00001008,0.
 00002236,0.02048743,-0.00180873,-0.00058445,0.00000006,0.00044282,-0.0
 0164864,-0.00000006,-0.00724708,0.00250185,0.00000026,0.00308344,0.002
 10450,0.00000003,-0.00100850,0.00049914,0.00000005,0.00144577,0.000607
 45,0.,-0.00008358,-0.00003589,0.00000001,0.00006488,0.00006764,0.,0.00
 004763,0.00006071,0.,0.00005775,0.00000833,-0.00000001,0.00274654,0.00
 701242,0.00000040,-0.00058032,-0.00167148,0.00000005,-0.02834084,0.029
 62107,0.00000324,-0.02276334,0.00107198,0.00000081,-0.30245673,0.03141
 078,0.00001115,0.03587951,-0.01681072,-0.00000217,0.00013445,-0.000473
 46,-0.00000006,0.67393866,-0.00112198,-0.00036330,0.00000003,0.0002435
 4,-0.00462739,-0.00000027,-0.00962561,0.00391415,0.00000026,0.00354798
 ,0.00240414,0.00000006,-0.00147454,0.00145443,0.00000010,0.00122620,-0
 .00048527,-0.00000004,-0.00013054,0.00000556,0.,0.00003413,-0.00001192
 ,0.,0.00002904,0.00003820,0.,0.00007254,0.00002508,0.,0.00782202,0.009
 64053,0.00000084,0.00349794,-0.00293223,-0.00000028,0.02850513,0.01142
 166,-0.00000082,-0.02451262,-0.00081082,0.00000085,0.05946947,-0.12099
 787,-0.00000584,0.01324182,-0.06071787,-0.00000452,-0.00070113,-0.0000
 9707,0.00000008,0.00199296,0.75889616,0.,0.00000002,0.00012003,0.00000
 002,-0.00000015,0.00082053,-0.00000006,0.00000004,0.00189855,0.0000000
 3,0.00000004,-0.00041592,0.,0.00000004,-0.00004858,0.,-0.00000001,-0.0
 0009992,0.,0.,0.00009430,0.,0.,0.00008453,0.,0.,0.00003934,0.,0.,-0.00
 006510,-0.00000011,0.00000084,-0.00619692,0.00000025,-0.00000018,0.000
 67557,0.00000312,-0.00000110,0.01164165,-0.00000076,0.,-0.00228299,0.0
 0001284,-0.00000499,-0.06557711,-0.00000028,-0.00000342,0.00527319,-0.
 00000009,0.00000006,-0.00093545,-0.00002064,0.00004074,0.10914236,0.00
 115623,0.00084819,-0.00000001,0.00007357,0.00643964,0.00000024,0.01453
 481,-0.00484413,-0.00000062,-0.00544692,-0.00355224,-0.00000004,0.0027
 0626,-0.00256590,-0.00000017,-0.00155632,0.00149645,0.00000010,0.00010
 982,-0.00002181,-0.00000001,-0.00003911,0.00007178,0.,-0.00002640,-0.0
 0004251,0.,-0.00004920,-0.00000150,0.00000001,-0.01576933,-0.00818749,
 0.00000012,-0.00158800,0.00384537,0.00000025,0.00344502,-0.00355434,-0
 .00000053,-0.01263512,0.03888838,0.00000323,-0.03026730,-0.03175123,-0
 .00000087,-0.16298622,0.11180925,0.00001016,-0.00575607,-0.00000942,0.
 00000038,-0.20339744,-0.14040209,-0.00000291,0.74221164,0.00098713,0.0
 0138901,0.,0.00050442,0.00661575,0.00000031,0.01672148,-0.00341822,-0.
 00000038,-0.00701790,-0.00451120,-0.00000007,0.00353139,-0.00326706,-0
 .00000025,-0.00106159,0.00160820,0.00000009,0.00009345,-0.00005681,-0.
 00000002,-0.00001565,0.00005106,0.,0.00003457,-0.00004684,0.,-0.000051
 66,0.00003272,0.00000001,-0.01814255,-0.00129356,0.00000024,-0.0025122
 0,0.00231010,0.00000010,-0.00162181,-0.03668621,-0.00000212,0.07974848
 ,0.01185097,-0.00000273,-0.03747327,0.01256131,0.00000167,0.03366884,-
 0.27353750,-0.00001473,-0.00118942,0.00230065,-0.00000012,-0.10050399,
 -0.28067101,-0.00001041,0.00688462,0.64865567,0.00000001,0.00000004,0.
 00017823,0.00000004,0.00000019,-0.00037657,0.00000045,0.00000001,-0.00
 105313,-0.00000023,-0.00000015,0.00009591,0.00000013,-0.00000013,0.000
 08985,0.,0.00000005,0.00000467,0.,0.,-0.00003893,0.,0.,-0.00011012,0.,
 0.,-0.00000274,0.,0.,0.00000100,-0.00000046,0.00000009,0.00164849,-0.0
 0000010,0.,0.00034428,-0.00000038,-0.00000206,-0.00250812,0.00000583,-
 0.00000121,0.00864917,-0.00000121,0.00000190,0.00223506,0.00000533,-0.
 00001779,-0.05876633,0.00000031,-0.00000016,0.00481835,-0.00000052,-0.
 00000895,-0.04820765,-0.00002302,0.00003298,0.11031886,0.00007678,-0.0
 0001244,0.,-0.00011721,0.00009562,0.,0.00017848,-0.00016423,0.,-0.0000
 9407,-0.00000736,0.,-0.00000886,0.00000779,0.,-0.00008311,-0.00004594,
 0.,-0.00000146,0.00000819,0.,0.00000156,-0.00000454,0.,-0.00001204,-0.
 00000299,0.,-0.00000864,-0.00000201,0.,-0.00073075,0.00007920,0.,0.000
 03632,-0.00000584,0.,-0.00524555,0.00202167,0.00000055,-0.01137216,-0.
 02636480,-0.00000096,-0.00063019,0.00072202,0.00000002,-0.15435078,-0.
 13511686,-0.00000400,0.00087719,0.00008741,-0.00000016,-0.00053513,0.0
 0303840,0.00000040,0.01099312,0.01242900,0.00000060,0.15944430,0.00006
 907,-0.00001805,0.,-0.00008230,-0.00011747,0.,-0.00012128,0.00009676,-
 0.00000002,0.00008366,0.00003686,0.,-0.00007265,0.00010206,0.00000001,
 -0.00005697,-0.00009876,0.,-0.00000210,0.00000826,0.,0.00000138,-0.000
 00504,0.,-0.00000678,-0.00000381,0.,-0.00000497,-0.00000148,0.,0.00015
 974,0.00016973,0.00000005,0.00007951,0.00000756,0.,0.00219799,0.001533
 37,-0.00000035,0.00428696,0.00528666,-0.00000025,0.00097928,0.00006405
 ,0.00000005,-0.13543558,-0.25207601,-0.00000820,-0.00018968,0.00075489
 ,0.00000026,0.00383051,-0.00338654,-0.00000068,-0.01889254,-0.01606352
 ,-0.00000068,0.14455423,0.26348351,0.,0.,-0.00002823,0.,-0.00000001,0.
 00003995,0.,-0.00000001,0.00052837,0.00000002,0.,0.00012416,0.,0.00000
 001,-0.00007042,0.,0.,0.00001465,0.,0.,0.00000821,0.,0.,0.00003620,0.,
 0.,-0.00002585,0.,0.,-0.00000135,0.00000002,0.00000003,-0.00072063,0.,
 0.,-0.00010857,0.00000051,-0.00000036,0.00602312,0.00000097,0.00000087
 ,0.00691173,0.00000005,0.00000003,-0.00120074,-0.00000402,-0.00000818,
 -0.03833228,-0.00000017,0.00000025,-0.00341329,0.00000046,-0.00000062,
 0.00512631,-0.00000132,-0.00000187,0.00658383,0.00000383,0.00000951,0.
 02287669,-0.00008961,-0.00008836,-0.00000002,0.00005253,0.00015212,0.,
 -0.00014734,-0.00010824,0.00000001,0.00002680,0.00003365,0.,-0.0000119
 7,-0.00001265,0.,0.00001357,0.00004423,0.,0.00000747,0.,0.,-0.00000653
 ,-0.00000686,0.,-0.00000248,-0.00000071,0.,-0.00000542,-0.00000552,0.,
 0.00073355,-0.00018634,-0.00000005,-0.00041473,-0.00012756,0.,-0.00602
 120,-0.00156261,0.00000025,0.00013721,-0.00002205,-0.00000003,-0.00813
 476,0.03035525,0.00000240,-0.00253508,-0.00306280,0.00000017,0.0001139
 4,0.00008376,-0.00000002,-0.10346758,0.10578987,0.00000894,0.01175610,
 -0.01754075,-0.00000138,0.00043568,-0.00090684,-0.00000009,0.10365384,
 -0.00004126,0.00001674,0.00000002,-0.00001792,0.00000224,0.,-0.0000304
 3,0.00003664,-0.00000002,0.00001240,0.00000780,0.,0.00001989,-0.000042
 36,0.,0.00005517,0.00004550,0.,-0.00000039,-0.00000504,0.,0.00000031,0
 .00000447,0.,0.00000642,0.00000396,0.,0.00000495,0.00000130,0.,-0.0000
 7451,-0.00001622,0.,-0.00001139,-0.00001905,0.00000002,-0.00062959,0.0
 0094613,-0.00000015,0.00000868,0.00040917,0.00000006,-0.00305185,-0.00
 070832,-0.00000016,-0.00407022,-0.00198764,-0.00000041,0.00009840,-0.0
 0006105,0.00000002,0.10827589,-0.30219912,-0.00002109,0.01307494,-0.01
 458301,-0.00000170,0.00059518,-0.00088738,-0.00000004,-0.11456457,0.31
 697985,0.,0.00000002,-0.00034322,-0.00000002,-0.00000002,-0.00012509,-
 0.00000002,0.,0.00030678,0.00000002,0.00000001,0.00001023,-0.00000001,
 0.00000001,-0.00005803,0.,0.,0.00004470,0.,0.,-0.00000874,0.,0.,0.0000
 4859,0.,0.,-0.00000516,0.,0.,0.00006468,0.00000002,-0.00000001,0.00005
 201,0.00000002,0.00000001,-0.00025608,0.00000030,-0.00000008,0.0036949
 4,0.,0.00000007,-0.00049574,0.00000015,-0.00000152,0.00349366,0.000000
 10,-0.00000042,0.00662957,-0.00000001,0.00000002,-0.00045548,0.0000091
 6,-0.00002109,-0.03213717,0.00000054,-0.00000044,0.00418844,0.,0.,-0.0
 0048665,-0.00000990,0.00002308,0.02189239,0.00005647,-0.00006403,0.,-0
 .00011802,-0.00038497,-0.00000001,-0.00071084,0.00028842,0.00000002,0.
 00032437,0.00019873,0.,-0.00022400,0.00024964,0.00000002,-0.00003097,-
 0.00020834,0.,-0.00000788,0.00001423,0.,0.00000373,-0.00001262,0.,-0.0
 0001267,-0.00000460,0.,-0.00000762,-0.00000299,0.,0.00060389,0.0006080
 4,0.00000004,0.00015145,-0.00010904,-0.00000002,0.00125258,0.00023354,
 -0.00000008,0.00011320,0.00163920,0.00000027,0.00086112,-0.00222534,0.
 00000011,-0.00750763,-0.00344820,0.00000018,-0.00055662,-0.00005054,0.
 00000006,-0.01194443,0.00522066,0.00000091,-0.34719168,0.02315134,0.00
 001376,0.00066592,0.00008171,-0.00000015,0.00082512,-0.00001057,-0.000
 00018,0.36520236,0.00001689,0.00005531,0.,-0.00004466,0.00023841,0.,0.
 00058301,-0.00004293,0.,-0.00021852,-0.00013350,0.,0.00011792,-0.00011
 171,0.,-0.00001981,0.00006816,0.,-0.00000060,-0.00000428,0.,0.00000282
 ,0.00000614,0.,0.00000190,-0.00000018,0.,0.00000086,0.00000226,0.,-0.0
 0075844,0.00023347,0.00000002,-0.00018734,0.00009506,0.00000002,-0.000
 39363,-0.00078912,0.00000005,0.00160289,-0.00482783,-0.00000063,-0.001
 09671,-0.00438226,-0.00000065,0.02896261,0.00230913,-0.00000110,0.0013
 9987,-0.00007384,-0.00000011,-0.02645681,0.00662972,0.00000119,0.02234
 179,-0.05940232,-0.00000239,-0.00040272,0.00096903,0.00000027,0.000529
 81,0.00088395,0.00000027,-0.02435714,0.05860018,0.,0.,0.00002989,0.000
 00001,0.00000003,0.00003334,0.00000007,-0.00000001,-0.00014611,-0.0000
 0003,-0.00000002,0.00003595,0.00000002,-0.00000002,0.00000905,0.,0.000
 00002,-0.00000110,0.,0.,0.00000060,0.,0.,0.00000887,0.,0.,-0.00000101,
 0.,0.,-0.00001651,-0.00000007,-0.00000006,0.00045953,-0.00000003,0.000
 00003,-0.00020477,-0.00000014,0.00000001,-0.00142089,0.00000032,-0.000
 00060,0.00440298,0.00000015,-0.00000065,0.00697349,0.00000211,0.000000
 19,0.00235471,0.00000015,-0.00000006,0.00096283,-0.00000102,0.,0.00391
 781,0.00001371,-0.00000247,-0.03138252,-0.00000017,0.00000025,-0.00314
 241,-0.00000015,0.00000031,-0.00389939,-0.00001489,0.00000299,0.021770
 14,0.00406845,-0.00606206,-0.00000036,-0.04442969,-0.00915782,0.000000
 61,-0.08383733,-0.02908917,0.00000092,0.01003790,0.01128787,0.00000040
 ,-0.00922486,0.00949161,0.00000069,-0.00403986,-0.00892566,-0.00000031
 ,0.00003532,0.00040259,0.00000003,0.00007968,-0.00046754,-0.00000005,-
 0.00064222,0.00004063,0.,-0.00022491,-0.00032306,-0.00000001,-0.150721
 36,-0.10950943,-0.00000221,-0.06732773,0.03794394,0.00000259,-0.318295
 89,0.02261186,0.00001140,-0.04645984,-0.01736169,0.00000094,-0.0316300
 0,0.02742727,0.00000312,0.01161359,-0.00632599,-0.00000076,0.00129291,
 0.00056933,-0.00000010,0.01136959,-0.00317675,-0.00000068,0.00306795,-
 0.00148131,-0.00000018,0.00025027,-0.00033691,-0.00000005,0.00042548,0
 .00008577,0.00000007,-0.00063283,-0.00001506,0.00000005,0.71082219,-0.
 00242835,-0.00546051,-0.00000036,0.01599795,0.00950216,0.00000026,-0.0
 5393354,-0.00557070,0.00000089,0.01410558,0.00398273,-0.00000030,-0.00
 507635,0.00303924,0.00000021,0.00047577,-0.00240583,-0.00000016,0.0007
 4159,-0.00041795,-0.00000001,-0.00038066,-0.00032885,0.00000003,0.0003
 4653,-0.00000481,0.00000002,-0.00032893,-0.00043245,0.,-0.10811055,-0.
 27056618,-0.00000874,0.06187320,-0.12395599,-0.00000604,-0.00017101,-0
 .10124055,-0.00000340,-0.03811557,0.01277174,0.00000166,0.04458134,0.0
 0331070,-0.00000178,0.00599889,-0.01146840,-0.00000112,-0.00087540,-0.
 00030552,0.00000012,-0.00724971,-0.01503881,-0.00000071,0.00586507,0.0
 1008806,0.00000050,-0.00148016,0.00018371,0.00000011,0.00135122,-0.000
 11431,-0.00000019,-0.00033871,0.00031939,0.00000003,0.07187094,0.51249
 170,-0.00000019,-0.00000022,0.00163104,0.00000181,0.00000075,-0.001297
 12,-0.00000063,0.00000025,0.00497391,0.00000053,-0.00000026,0.00409810
 ,0.00000004,-0.00000019,0.00104849,0.00000019,0.00000012,0.00086781,0.
 00000003,-0.00000002,-0.00041907,-0.00000004,0.00000003,-0.00073589,0.
 00000002,0.00000003,-0.00066729,-0.00000002,0.,-0.00025914,-0.00000138
 ,-0.00000782,-0.03711703,0.00000419,-0.00000569,-0.01930609,0.00000935
 ,-0.00000414,-0.03880490,-0.00000053,0.00000089,0.00857915,0.00000430,
 -0.00000117,0.00607854,0.00000038,-0.00000077,0.00278926,-0.00000014,0
 .00000006,-0.00146024,-0.00000113,-0.00000101,-0.00007726,0.00000037,0
 .00000104,-0.00097735,-0.00000012,0.00000008,-0.00091937,0.00000012,-0
 .00000011,0.00163972,0.,0.00000002,0.00009704,-0.00001673,0.00001968,0
 .06933975,-0.00041713,0.00302914,0.00000014,-0.00541784,0.01057348,0.0
 0000046,0.02493205,0.01347041,0.00000038,-0.00585705,-0.00324434,0.000
 00003,0.00363529,-0.00466634,-0.00000029,-0.00016648,0.00367597,0.0000
 0018,-0.00057542,0.00005124,0.00000001,0.00024549,0.00011750,0.,-0.000
 17947,-0.00000395,0.,-0.00010109,0.00007738,0.,-0.10369633,0.05899310,
 0.00000892,-0.00529076,0.00504008,0.00000041,-0.00590932,-0.01200803,-
 0.00000005,0.02023577,0.01451621,0.00000014,-0.20325001,-0.16044697,-0
 .00000503,-0.01875448,0.00474244,0.00000099,0.00073951,-0.00000475,-0.
 00000010,-0.05499944,-0.05747647,-0.00000140,-0.00375076,0.00090995,0.
 00000042,0.00029416,-0.00038018,-0.00000003,0.00358401,0.00034814,-0.0
 0000018,-0.00142689,-0.00242216,-0.00000011,0.00230850,-0.01479881,-0.
 00000108,0.35497260,-0.00037358,-0.00002698,-0.00000002,0.00142586,0.0
 0115853,0.00000007,0.00119469,-0.00521127,-0.00000044,-0.00071148,-0.0
 0085048,-0.00000004,0.00064029,-0.00099995,-0.00000007,0.00065655,0.00
 085136,0.00000004,0.00013925,-0.00012055,0.,0.00006356,0.00030878,0.00
 000001,0.00015382,0.00006445,0.,0.00006893,0.00002198,0.,0.03091378,-0
 .00252483,-0.00000251,-0.00094062,0.00180867,0.00000024,-0.02670583,-0
 .05522180,-0.00000364,0.01497578,-0.00188120,-0.00000085,-0.14764919,-
 0.34615743,-0.00001376,-0.00846081,-0.00189651,0.00000016,-0.00111379,
 -0.00185053,0.00000003,-0.02827508,0.00469739,0.00000046,0.00362035,0.
 00111164,-0.00000028,-0.00015744,0.00003916,0.00000002,-0.00060010,0.0
 0118338,0.00000024,-0.00021065,0.00003532,0.00000005,-0.00133425,0.007
 39486,0.00000069,0.14788113,0.46012570,0.,-0.00000017,0.00041802,0.000
 00034,-0.00000033,-0.00095501,-0.00000099,-0.00000096,-0.00060487,0.00
 000019,0.00000007,0.00041925,-0.00000011,0.00000011,0.00018110,0.00000
 007,-0.00000010,0.00005233,0.00000003,0.,-0.00008159,-0.00000001,0.000
 00002,-0.00017924,0.00000002,0.,-0.00004941,0.,0.,-0.00009384,0.000007
 08,-0.00000379,0.01909846,0.00000010,0.00000001,-0.00118322,-0.0000008
 6,-0.00000410,0.01605247,0.00000031,-0.00000080,0.00189411,-0.00000418
 ,-0.00001328,-0.05044609,0.00000008,-0.00000032,0.00003732,-0.00000016
 ,0.,-0.00178299,0.00000052,0.00000159,0.01137141,0.00000051,-0.0000001
 8,0.00369106,-0.00000002,0.,0.00012384,-0.00000032,0.00000012,-0.00322
 734,0.00000003,0.00000010,-0.00025896,-0.00000013,0.00000136,-0.003125
 74,-0.00000199,0.00002212,0.04322368,-0.00093598,-0.00309005,-0.000000
 07,0.00486096,-0.01326262,-0.00000061,-0.03437056,-0.00734514,-0.00000
 003,0.00902402,0.00433684,-0.00000005,-0.00431744,0.00562159,0.0000003
 4,0.00095248,-0.00336317,-0.00000016,0.00051089,-0.00007069,-0.0000000
 2,-0.00046487,-0.00031328,0.,0.00030569,0.00003747,0.,0.00021010,-0.00
 009083,-0.00000001,0.02811714,-0.01951726,-0.00000333,0.00707676,-0.01
 235133,-0.00000079,0.02512560,0.00843017,-0.00000077,-0.02415100,-0.01
 088558,0.00000037,-0.04975304,-0.03956794,-0.00000085,0.01818403,-0.00
 937159,-0.00000128,0.00025459,0.00114288,0.00000013,0.00942210,0.00489
 004,0.00000043,0.00040534,0.00994746,0.00000059,-0.00006386,0.00016473
 ,0.,-0.00092857,-0.00008342,-0.00000004,0.00031188,0.00081323,0.000000
 01,0.00209471,0.01007966,0.00000066,-0.00115490,0.01479886,-0.00000054
 ,0.00928393,0.00104326,0.00206794,0.00000002,-0.00566257,0.00648457,0.
 00000027,0.01750191,0.01273107,0.00000092,-0.00471843,-0.00160684,0.00
 000008,0.00213278,-0.00302506,-0.00000018,-0.00080704,0.00151953,0.000
 00008,-0.00043261,0.00013331,0.00000002,0.00012002,-0.00030943,-0.0000
 0001,-0.00022952,-0.00002791,0.,-0.00013035,0.00000731,0.,-0.03327742,
 -0.04195533,0.,-0.00368617,0.00378238,0.00000023,-0.01521297,-0.005939
 24,0.00000056,0.01348430,0.00624095,-0.00000021,-0.01631886,0.02387329
 ,0.00000230,-0.01031453,0.00551362,0.00000076,-0.00001383,-0.00031996,
 -0.00000007,-0.00535497,-0.00678779,-0.00000067,-0.00136063,-0.0050378
 8,-0.00000030,0.00012862,-0.00007756,0.,0.00045606,0.00010239,0.000000
 05,-0.00025777,-0.00067757,0.,0.01183491,-0.02577341,-0.00000224,-0.00
 797416,-0.06205970,-0.00000148,0.05904999,0.09114134,0.00000006,0.0000
 0028,0.00038212,-0.00000061,0.00000077,0.00165866,0.00000196,0.0000018
 5,-0.00409092,-0.00000053,-0.00000015,-0.00077736,0.00000024,-0.000000
 38,-0.00011910,-0.00000004,0.00000021,-0.00006261,-0.00000006,0.000000
 02,-0.00004744,0.00000004,-0.00000001,0.00005900,-0.00000003,0.,0.0000
 6776,-0.00000002,0.,0.00005497,-0.00000401,-0.00000113,-0.02408038,-0.
 00000048,0.00000074,0.00134308,-0.00000212,-0.00000037,-0.00512816,0.0
 0000181,0.00000075,0.00024388,0.00000083,0.00000336,0.00044152,-0.0000
 0133,0.00000069,-0.00020664,0.,-0.00000011,0.00058185,-0.00000058,-0.0
 0000111,0.00583849,-0.00000011,-0.00000066,0.00057624,0.00000001,-0.00
 000002,0.00005271,0.00000005,0.00000005,-0.00056760,-0.00000006,-0.000
 00005,-0.00058255,0.00000073,-0.00000207,0.00402366,-0.00000181,-0.000
 00253,-0.03457475,0.00000603,-0.00000013,0.05491357\\0.00000203,-0.000
 00318,0.,-0.00000580,-0.00000487,0.,-0.00000254,-0.00000015,0.00000008
 ,0.00000283,0.00000368,0.,0.00000039,0.00000479,0.,0.00000346,-0.00000
 483,0.,-0.00000204,0.00000569,0.00000001,0.00000211,-0.00000669,-0.000
 00001,-0.00000466,-0.00000549,0.,-0.00000686,0.00000087,0.,0.00000433,
 -0.00000090,-0.00000015,0.00000338,0.00001032,0.00000004,0.00000755,-0
 .00000008,-0.00000004,-0.00000693,-0.00000506,0.00000001,-0.00000335,0
 .00000086,-0.00000002,0.00000537,-0.00000673,0.,-0.00000334,0.00000673
 ,0.,-0.00000294,0.00000190,0.00000001,-0.00000330,0.00000707,0.,0.0000
 0380,0.00000664,0.,0.00000303,-0.00000577,0.,0.00000710,0.00000036,0.,
 -0.00000424,-0.00000517,0.00000003,0.00000027,-0.00000007,0.,0.0000003
 3,0.00000008,0.00000004\\\@
 The archive entry for this job was punched.


 ON A CLEAR DISK YOU CAN SEEK FOREVER.
 Job cpu time:       0 days  2 hours 57 minutes 26.4 seconds.
 Elapsed time:       0 days  0 hours 15 minutes 49.2 seconds.
 File lengths (MBytes):  RWF=   1356 Int=      0 D2E=      0 Chk=     28 Scr=      8
 Normal termination of Gaussian 16 at Mon Jul 13 12:44:38 2020.
