 Entering Gaussian System, Link 0=g16
 Initial command:
 /gpfs/loomis/apps/avx/software/Gaussian/16-C.01_AVX/g16/l1.exe "/home/fas/batista/pev4/scratch60/gauss-scratch/Gau-127710.inp" -scrdir="/home/fas/batista/pev4/scratch60/gauss-scratch/"
 Entering Link 1 = /gpfs/loomis/apps/avx/software/Gaussian/16-C.01_AVX/g16/l1.exe PID=    127711.
  
 Copyright (c) 1988-2019, Gaussian, Inc.  All Rights Reserved.
  
 This is part of the Gaussian(R) 16 program.  It is based on
 the Gaussian(R) 09 system (copyright 2009, Gaussian, Inc.),
 the Gaussian(R) 03 system (copyright 2003, Gaussian, Inc.),
 the Gaussian(R) 98 system (copyright 1998, Gaussian, Inc.),
 the Gaussian(R) 94 system (copyright 1995, Gaussian, Inc.),
 the Gaussian 92(TM) system (copyright 1992, Gaussian, Inc.),
 the Gaussian 90(TM) system (copyright 1990, Gaussian, Inc.),
 the Gaussian 88(TM) system (copyright 1988, Gaussian, Inc.),
 the Gaussian 86(TM) system (copyright 1986, Carnegie Mellon
 University), and the Gaussian 82(TM) system (copyright 1983,
 Carnegie Mellon University). Gaussian is a federally registered
 trademark of Gaussian, Inc.
  
 This software contains proprietary and confidential information,
 including trade secrets, belonging to Gaussian, Inc.
  
 This software is provided under written license and may be
 used, copied, transmitted, or stored only in accord with that
 written license.
  
 The following legend is applicable only to US Government
 contracts under FAR:
  
                    RESTRICTED RIGHTS LEGEND
  
 Use, reproduction and disclosure by the US Government is
 subject to restrictions as set forth in subparagraphs (a)
 and (c) of the Commercial Computer Software - Restricted
 Rights clause in FAR 52.227-19.
  
 Gaussian, Inc.
 340 Quinnipiac St., Bldg. 40, Wallingford CT 06492
  
  
 ---------------------------------------------------------------
 Warning -- This program may not be used in any manner that
 competes with the business of Gaussian, Inc. or will provide
 assistance to any competitor of Gaussian, Inc.  The licensee
 of this program is prohibited from giving any competitor of
 Gaussian, Inc. access to this program.  By using this program,
 the user acknowledges that Gaussian, Inc. is engaged in the
 business of creating and licensing software in the field of
 computational chemistry and represents and warrants to the
 licensee that it is not a competitor of Gaussian, Inc. and that
 it will not use this program in any manner prohibited above.
 ---------------------------------------------------------------
  

 Cite this work as:
 Gaussian 16, Revision C.01,
 M. J. Frisch, G. W. Trucks, H. B. Schlegel, G. E. Scuseria, 
 M. A. Robb, J. R. Cheeseman, G. Scalmani, V. Barone, 
 G. A. Petersson, H. Nakatsuji, X. Li, M. Caricato, A. V. Marenich, 
 J. Bloino, B. G. Janesko, R. Gomperts, B. Mennucci, H. P. Hratchian, 
 J. V. Ortiz, A. F. Izmaylov, J. L. Sonnenberg, D. Williams-Young, 
 F. Ding, F. Lipparini, F. Egidi, J. Goings, B. Peng, A. Petrone, 
 T. Henderson, D. Ranasinghe, V. G. Zakrzewski, J. Gao, N. Rega, 
 G. Zheng, W. Liang, M. Hada, M. Ehara, K. Toyota, R. Fukuda, 
 J. Hasegawa, M. Ishida, T. Nakajima, Y. Honda, O. Kitao, H. Nakai, 
 T. Vreven, K. Throssell, J. A. Montgomery, Jr., J. E. Peralta, 
 F. Ogliaro, M. J. Bearpark, J. J. Heyd, E. N. Brothers, K. N. Kudin, 
 V. N. Staroverov, T. A. Keith, R. Kobayashi, J. Normand, 
 K. Raghavachari, A. P. Rendell, J. C. Burant, S. S. Iyengar, 
 J. Tomasi, M. Cossi, J. M. Millam, M. Klene, C. Adamo, R. Cammi, 
 J. W. Ochterski, R. L. Martin, K. Morokuma, O. Farkas, 
 J. B. Foresman, and D. J. Fox, Gaussian, Inc., Wallingford CT, 2019.
 
 ******************************************
 Gaussian 16:  ES64L-G16RevC.01  3-Jul-2019
                14-Jul-2020 
 ******************************************
 %chk=config_12_13_fixed.chk
 %mem=58GB
 %nprocshared=10
 Will use up to   10 processors via shared memory.
 ----------------------------------------------------------------------
 #p opt=addgic freq td wb97xd/cc-pvdz nosymm int=ultrafine scrf=(solven
 t=CarbonTetraChloride)
 ----------------------------------------------------------------------
 1/18=20,19=15,26=6,38=1,145=903/1,3;
 2/9=110,12=2,15=1,17=6,18=5,40=1/2;
 3/5=16,11=9,25=1,30=1,70=2201,71=1,72=11,74=-58,75=-5/1,2,3,8;
 4//1;
 5/5=2,38=5,53=11/2;
 8/6=1,10=1/1;
 9/15=2,42=1,70=2/14;
 10/5=4,31=1/2;
 6/7=2,8=2,9=2,10=2/1;
 7/12=6,13=5,30=1/1,2,3,16;
 1/18=20,19=15,26=6,145=903/3(2);
 2/9=110,15=1/2;
 99//99;
 2/9=110,15=1/2;
 3/5=16,11=9,25=1,30=1,70=2205,71=1,72=11,74=-58,75=-5/1,2,3,8;
 4/5=5,16=3,69=1/1;
 5/5=2,38=5,53=11/2;
 8/6=1,10=1/1;
 9/15=2,42=1,49=4,70=2/14;
 10/5=4,31=1/2;
 7/12=6,13=5,30=1/1,2,3,16;
 1/18=20,19=15,26=6,145=903/3(-8);
 2/9=110,15=1/2;
 6/7=2,8=2,9=2,10=2/1;
 99/9=10/99;
 Leave Link    1 at Tue Jul 14 11:01:22 2020, MaxMem=  7784628224 cpu:               4.5 elap:               0.5
 (Enter /gpfs/loomis/apps/avx/software/Gaussian/16-C.01_AVX/g16/l101.exe)
 ------------------------------------------------
 NM 2D-scan of HBT TD-WB97XD pVDZ in CTC Relaxed.
 ------------------------------------------------
 Symbolic Z-matrix:
 Charge =  0 Multiplicity = 1
 C                     1.59259  -3.24957  -0.00002 
 C                     1.0103   -1.9805   -0.00002 
 C                     1.77923  -0.78877  -0.00002 
 C                     3.16767  -0.89023  -0.00003 
 C                     3.7514   -2.16273  -0.00002 
 C                     2.98374  -3.33145  -0.00002 
 H                     0.96848  -4.14726  -0.00002 
 H                     3.78986   0.00853  -0.00003 
 H                     4.84099  -2.23684  -0.00002 
 H                     3.47194  -4.30799  -0.00001 
 N                     0.96919   0.35564  -0.00003 
 S                    -0.71017  -1.64773  -0.00002 
 C                    -1.35621   1.06198   0.00001 
 C                    -2.69946   0.76623   0.00001 
 C                    -0.87059   2.46276   0.00003 
 C                    -3.65688   1.82477   0.00003 
 H                    -3.05378  -0.26875   0. 
 C                    -1.8861    3.48029   0.00005 
 C                    -3.25064   3.15559   0.00004 
 H                    -4.71995   1.57182   0.00003 
 H                    -1.53903   4.51653   0.00007 
 H                    -3.99935   3.94993   0.00005 
 C                    -0.35602   0.04487  -0.00002 
 O                     0.35725   2.68432   0.00005 
 H                     1.14525   0.96068  0. 
 
 Initializing the GIC definitions file.
 Number of initial coordinates =   134
 Number of input entries/lines =    53
 Number of additional coordinates =     2
 Number of removed coordinates =     0
 Number of frozen coordinates =     3
 Number of final active and frozen coordinates =   136
 ITRead=  0  0  0  0  0  0  0  0  0  0  0  0  0  0  0  0  0  0  0  0
 ITRead=  0  0  0  0  0
 MicOpt= -1 -1 -1 -1 -1 -1 -1 -1 -1 -1 -1 -1 -1 -1 -1 -1 -1 -1 -1 -1
 MicOpt= -1 -1 -1 -1 -1
 NAtoms=     25 NQM=       25 NQMF=       0 NMMI=      0 NMMIF=      0
                NMic=       0 NMicF=      0.
                    Isotopes and Nuclear Properties:
 (Nuclear quadrupole moments (NQMom) in fm**2, nuclear magnetic moments (NMagM)
  in nuclear magnetons)

  Atom         1           2           3           4           5           6           7           8           9          10
 IAtWgt=          12          12          12          12          12          12           1           1           1           1
 AtmWgt=  12.0000000  12.0000000  12.0000000  12.0000000  12.0000000  12.0000000   1.0078250   1.0078250   1.0078250   1.0078250
 NucSpn=           0           0           0           0           0           0           1           1           1           1
 AtZEff=  -0.0000000  -0.0000000  -0.0000000  -0.0000000  -0.0000000  -0.0000000  -0.0000000  -0.0000000  -0.0000000  -0.0000000
 NQMom=    0.0000000   0.0000000   0.0000000   0.0000000   0.0000000   0.0000000   0.0000000   0.0000000   0.0000000   0.0000000
 NMagM=    0.0000000   0.0000000   0.0000000   0.0000000   0.0000000   0.0000000   2.7928460   2.7928460   2.7928460   2.7928460
 AtZNuc=   6.0000000   6.0000000   6.0000000   6.0000000   6.0000000   6.0000000   1.0000000   1.0000000   1.0000000   1.0000000

  Atom        11          12          13          14          15          16          17          18          19          20
 IAtWgt=          14          32          12          12          12          12           1          12          12           1
 AtmWgt=  14.0030740  31.9720718  12.0000000  12.0000000  12.0000000  12.0000000   1.0078250  12.0000000  12.0000000   1.0078250
 NucSpn=           2           0           0           0           0           0           1           0           0           1
 AtZEff=  -0.0000000  -0.0000000  -0.0000000  -0.0000000  -0.0000000  -0.0000000  -0.0000000  -0.0000000  -0.0000000  -0.0000000
 NQMom=    2.0440000   0.0000000   0.0000000   0.0000000   0.0000000   0.0000000   0.0000000   0.0000000   0.0000000   0.0000000
 NMagM=    0.4037610   0.0000000   0.0000000   0.0000000   0.0000000   0.0000000   2.7928460   0.0000000   0.0000000   2.7928460
 AtZNuc=   7.0000000  16.0000000   6.0000000   6.0000000   6.0000000   6.0000000   1.0000000   6.0000000   6.0000000   1.0000000

  Atom        21          22          23          24          25
 IAtWgt=           1           1          12          16           1
 AtmWgt=   1.0078250   1.0078250  12.0000000  15.9949146   1.0078250
 NucSpn=           1           1           0           0           1
 AtZEff=  -0.0000000  -0.0000000  -0.0000000  -0.0000000  -0.0000000
 NQMom=    0.0000000   0.0000000   0.0000000   0.0000000   0.0000000
 NMagM=    2.7928460   2.7928460   0.0000000   0.0000000   2.7928460
 AtZNuc=   1.0000000   1.0000000   6.0000000   8.0000000   1.0000000
 Leave Link  101 at Tue Jul 14 11:01:25 2020, MaxMem=  7784628224 cpu:              31.3 elap:               3.2
 (Enter /gpfs/loomis/apps/avx/software/Gaussian/16-C.01_AVX/g16/l103.exe)

 GradGradGradGradGradGradGradGradGradGradGradGradGradGradGradGradGradGrad
 Berny optimization.
 Initialization pass.
                           ----------------------------
                           !    Initial Parameters    !
                           ! (Angstroms and Degrees)  !
 --------------------------                            --------------------------
 ! Name  Definition              Value          Derivative Info.                !
 --------------------------------------------------------------------------------
 ! R1    R(1,2)                  1.3963         estimate D2E/DX2                !
 ! R2    R(1,6)                  1.3936         estimate D2E/DX2                !
 ! R3    R(1,7)                  1.0933         estimate D2E/DX2                !
 ! R4    R(2,3)                  1.4183         estimate D2E/DX2                !
 ! R5    R(2,12)                 1.7524         estimate D2E/DX2                !
 ! R6    R(3,4)                  1.3921         estimate D2E/DX2                !
 ! R7    R(3,11)                 1.4021         estimate D2E/DX2                !
 ! R8    R(4,5)                  1.4            estimate D2E/DX2                !
 ! R9    R(4,8)                  1.0931         estimate D2E/DX2                !
 ! R10   R(5,6)                  1.3983         estimate D2E/DX2                !
 ! R11   R(5,9)                  1.0921         estimate D2E/DX2                !
 ! R12   R(6,10)                 1.0918         estimate D2E/DX2                !
 ! R13   R(11,23)                1.3612         estimate D2E/DX2                !
 ! R14   R(11,25)                0.6301         estimate D2E/DX2                !
 ! R15   R(12,23)                1.7293         estimate D2E/DX2                !
 ! R16   R(13,14)                1.3754         estimate D2E/DX2                !
 ! R17   R(13,15)                1.4826         estimate D2E/DX2                !
 ! R18   R(13,23)                1.4265         estimate D2E/DX2                !
 ! R19   R(14,16)                1.4273         estimate D2E/DX2                !
 ! R20   R(14,17)                1.094          estimate D2E/DX2                !
 ! R21   R(15,18)                1.4376         estimate D2E/DX2                !
 ! R22   R(15,24)                1.2477         estimate D2E/DX2                !
 ! R23   R(16,19)                1.3914         estimate D2E/DX2                !
 ! R24   R(16,20)                1.0928         estimate D2E/DX2                !
 ! R25   R(18,19)                1.4026         estimate D2E/DX2                !
 ! R26   R(18,21)                1.0928         estimate D2E/DX2                !
 ! R27   R(19,22)                1.0916         estimate D2E/DX2                !
 ! A1    A(2,1,6)              118.0156         estimate D2E/DX2                !
 ! A2    A(2,1,7)              120.5447         estimate D2E/DX2                !
 ! A3    A(6,1,7)              121.4397         estimate D2E/DX2                !
 ! A4    A(1,2,3)              122.522          estimate D2E/DX2                !
 ! A5    A(1,2,12)             125.5938         estimate D2E/DX2                !
 ! A6    A(3,2,12)             111.8842         estimate D2E/DX2                !
 ! A7    A(2,3,4)              118.6515         estimate D2E/DX2                !
 ! A8    A(2,3,11)             111.8774         estimate D2E/DX2                !
 ! A9    A(4,3,11)             129.4711         estimate D2E/DX2                !
 ! A10   A(3,4,5)              118.8215         estimate D2E/DX2                !
 ! A11   A(3,4,8)              120.5148         estimate D2E/DX2                !
 ! A12   A(5,4,8)              120.6638         estimate D2E/DX2                !
 ! A13   A(4,5,6)              122.0594         estimate D2E/DX2                !
 ! A14   A(4,5,9)              118.533          estimate D2E/DX2                !
 ! A15   A(6,5,9)              119.4076         estimate D2E/DX2                !
 ! A16   A(1,6,5)              119.93           estimate D2E/DX2                !
 ! A17   A(1,6,10)             119.9307         estimate D2E/DX2                !
 ! A18   A(5,6,10)             120.1392         estimate D2E/DX2                !
 ! A19   A(3,11,23)            112.0938         estimate D2E/DX2                !
 ! A20   A(3,11,25)            128.4837         estimate D2E/DX2                !
 ! A21   A(23,11,25)           119.4225         estimate D2E/DX2                !
 ! A22   A(2,12,23)             89.1289         estimate D2E/DX2                !
 ! A23   A(14,13,15)           121.5369         estimate D2E/DX2                !
 ! A24   A(14,13,23)           122.1028         estimate D2E/DX2                !
 ! A25   A(15,13,23)           116.3602         estimate D2E/DX2                !
 ! A26   A(13,14,16)           119.7118         estimate D2E/DX2                !
 ! A27   A(13,14,17)           121.3146         estimate D2E/DX2                !
 ! A28   A(16,14,17)           118.9735         estimate D2E/DX2                !
 ! A29   A(13,15,18)           115.9368         estimate D2E/DX2                !
 ! A30   A(13,15,24)           119.3491         estimate D2E/DX2                !
 ! A31   A(18,15,24)           124.7141         estimate D2E/DX2                !
 ! A32   A(14,16,19)           120.8962         estimate D2E/DX2                !
 ! A33   A(14,16,20)           118.7444         estimate D2E/DX2                !
 ! A34   A(19,16,20)           120.3594         estimate D2E/DX2                !
 ! A35   A(15,18,19)           121.5577         estimate D2E/DX2                !
 ! A36   A(15,18,21)           116.5396         estimate D2E/DX2                !
 ! A37   A(19,18,21)           121.9027         estimate D2E/DX2                !
 ! A38   A(16,19,18)           120.3606         estimate D2E/DX2                !
 ! A39   A(16,19,22)           119.7185         estimate D2E/DX2                !
 ! A40   A(18,19,22)           119.9209         estimate D2E/DX2                !
 ! A41   A(11,23,12)           115.0156         estimate D2E/DX2                !
 ! A42   A(11,23,13)           121.3217         estimate D2E/DX2                !
 ! A43   A(12,23,13)           123.6626         estimate D2E/DX2                !
 ! D1    D(6,1,2,3)              0.0            estimate D2E/DX2                !
 ! D2    D(6,1,2,12)          -180.0            estimate D2E/DX2                !
 ! D3    D(7,1,2,3)            179.9999         estimate D2E/DX2                !
 ! D4    D(7,1,2,12)            -0.0001         estimate D2E/DX2                !
 ! D5    D(2,1,6,5)             -0.0001         estimate D2E/DX2                !
 ! D6    D(2,1,6,10)           179.9999         estimate D2E/DX2                !
 ! D7    D(7,1,6,5)            180.0            estimate D2E/DX2                !
 ! D8    D(7,1,6,10)             0.0            estimate D2E/DX2                !
 ! D9    D(1,2,3,4)              0.0002         estimate D2E/DX2                !
 ! D10   D(1,2,3,11)          -180.0            estimate D2E/DX2                !
 ! D11   D(12,2,3,4)          -179.9998         estimate D2E/DX2                !
 ! D12   D(12,2,3,11)            0.0            estimate D2E/DX2                !
 ! D13   D(1,2,12,23)          179.9997         estimate D2E/DX2                !
 ! D14   D(3,2,12,23)           -0.0002         estimate D2E/DX2                !
 ! D15   D(2,3,4,5)             -0.0002         estimate D2E/DX2                !
 ! D16   D(2,3,4,8)            179.9999         estimate D2E/DX2                !
 ! D17   D(11,3,4,5)          -180.0            estimate D2E/DX2                !
 ! D18   D(11,3,4,8)             0.0001         estimate D2E/DX2                !
 ! D19   D(2,3,11,23)            0.0003         estimate D2E/DX2                !
 ! D20   D(2,3,11,25)          179.9972         estimate D2E/DX2                !
 ! D21   D(4,3,11,23)         -179.9999         estimate D2E/DX2                !
 ! D22   D(4,3,11,25)           -0.003          estimate D2E/DX2                !
 ! D23   D(3,4,5,6)              0.0001         estimate D2E/DX2                !
 ! D24   D(3,4,5,9)           -179.9999         estimate D2E/DX2                !
 ! D25   D(8,4,5,6)            180.0            estimate D2E/DX2                !
 ! D26   D(8,4,5,9)              0.0            estimate D2E/DX2                !
 ! D27   D(4,5,6,1)              0.0001         estimate D2E/DX2                !
 ! D28   D(4,5,6,10)          -179.9999         estimate D2E/DX2                !
 ! D29   D(9,5,6,1)           -179.9999         estimate D2E/DX2                !
 ! D30   D(9,5,6,10)             0.0            estimate D2E/DX2                !
 ! D31   D(3,11,23,12)          -0.0005         estimate D2E/DX2                !
 ! D32   D(3,11,23,13)         179.9986         estimate D2E/DX2                !
 ! D33   D(25,11,23,12)       -179.9977         estimate D2E/DX2                !
 ! D34   D(25,11,23,13)          0.0014         estimate D2E/DX2                !
 ! D35   D(2,12,23,11)           0.0004         estimate D2E/DX2                !
 ! D36   D(2,12,23,13)        -179.9987         estimate D2E/DX2                !
 ! D37   D(15,13,14,16)          0.0007         estimate D2E/DX2                !
 ! D38   D(15,13,14,17)       -179.9996         estimate D2E/DX2                !
 ! D39   D(23,13,14,16)       -179.9994         estimate D2E/DX2                !
 ! D40   D(23,13,14,17)          0.0003         estimate D2E/DX2                !
 ! D41   D(14,13,15,18)         -0.0009         estimate D2E/DX2                !
 ! D42   D(14,13,15,24)        179.9989         estimate D2E/DX2                !
 ! D43   D(23,13,15,18)        179.9992         estimate D2E/DX2                !
 ! D44   D(23,13,15,24)         -0.001          estimate D2E/DX2                !
 ! D45   D(14,13,23,11)        179.9999         estimate D2E/DX2                !
 ! D46   D(14,13,23,12)         -0.0011         estimate D2E/DX2                !
 ! Atot  D(15,13,23,11)         -0.0002         Frozen                          !
 ! D48   D(15,13,23,12)        179.9988         estimate D2E/DX2                !
 ! D49   D(13,14,16,19)         -0.0001         estimate D2E/DX2                !
 ! D50   D(13,14,16,20)        179.9998         estimate D2E/DX2                !
 ! D51   D(17,14,16,19)       -179.9998         estimate D2E/DX2                !
 ! D52   D(17,14,16,20)          0.0001         estimate D2E/DX2                !
 ! D53   D(13,15,18,19)          0.0005         estimate D2E/DX2                !
 ! D54   D(13,15,18,21)        179.9999         estimate D2E/DX2                !
 ! D55   D(24,15,18,19)       -179.9993         estimate D2E/DX2                !
 ! D56   D(24,15,18,21)          0.0002         estimate D2E/DX2                !
 ! D57   D(14,16,19,18)         -0.0003         estimate D2E/DX2                !
 ! D58   D(14,16,19,22)        179.9999         estimate D2E/DX2                !
 ! D59   D(20,16,19,18)        179.9998         estimate D2E/DX2                !
 ! D60   D(20,16,19,22)         -0.0001         estimate D2E/DX2                !
 ! D61   D(15,18,19,16)          0.0            estimate D2E/DX2                !
 ! D62   D(15,18,19,22)        179.9999         estimate D2E/DX2                !
 ! D63   D(21,18,19,16)       -179.9994         estimate D2E/DX2                !
 ! D64   D(21,18,19,22)          0.0005         estimate D2E/DX2                !
 ! Qtot  GIC-1                  60.0            Frozen                          !
 ! Ptot  GIC-2                 100.0            Frozen                          !
 --------------------------------------------------------------------------------
 NOTE: GIC-type coordinates are in arbitrary units.
 Trust Radius=3.00D-01 FncErr=5.00D-06 GrdErr=5.00D-06 EigMax=2.50D+02 EigMin=1.00D-04
 Number of steps in this run=    146 maximum allowed number of steps=    150.
 GradGradGradGradGradGradGradGradGradGradGradGradGradGradGradGradGradGrad

 Leave Link  103 at Tue Jul 14 11:01:26 2020, MaxMem=  7784628224 cpu:               0.2 elap:               0.0
 (Enter /gpfs/loomis/apps/avx/software/Gaussian/16-C.01_AVX/g16/l202.exe)
                          Input orientation:                          
 ---------------------------------------------------------------------
 Center     Atomic      Atomic             Coordinates (Angstroms)
 Number     Number       Type             X           Y           Z
 ---------------------------------------------------------------------
      1          6           0        1.592588   -3.249565   -0.000019
      2          6           0        1.010302   -1.980498   -0.000022
      3          6           0        1.779230   -0.788769   -0.000024
      4          6           0        3.167669   -0.890228   -0.000027
      5          6           0        3.751396   -2.162731   -0.000023
      6          6           0        2.983735   -3.331448   -0.000018
      7          1           0        0.968484   -4.147261   -0.000016
      8          1           0        3.789863    0.008528   -0.000031
      9          1           0        4.840990   -2.236840   -0.000024
     10          1           0        3.471945   -4.307987   -0.000015
     11          7           0        0.969193    0.355640   -0.000027
     12         16           0       -0.710168   -1.647732   -0.000024
     13          6           0       -1.356208    1.061977    0.000009
     14          6           0       -2.699463    0.766233    0.000014
     15          6           0       -0.870591    2.462757    0.000035
     16          6           0       -3.656880    1.824766    0.000030
     17          1           0       -3.053777   -0.268754    0.000002
     18          6           0       -1.886104    3.480294    0.000046
     19          6           0       -3.250636    3.155586    0.000043
     20          1           0       -4.719953    1.571817    0.000031
     21          1           0       -1.539034    4.516534    0.000066
     22          1           0       -3.999351    3.949931    0.000053
     23          6           0       -0.356016    0.044869   -0.000020
     24          8           0        0.357246    2.684318    0.000050
     25          1           0        1.145255    0.960679   -0.000004
 ---------------------------------------------------------------------
                    Distance matrix (angstroms):
                    1          2          3          4          5
     1  C    0.000000
     2  C    1.396278   0.000000
     3  C    2.467864   1.418262   0.000000
     4  C    2.836786   2.417214   1.392141   0.000000
     5  C    2.416953   2.747146   2.403583   1.400001   0.000000
     6  C    1.393554   2.391549   2.813547   2.448139   1.398285
     7  H    1.093327   2.167167   3.454964   3.929972   3.418035
     8  H    3.929783   3.417921   2.162945   1.093110   2.171600
     9  H    3.402606   3.839256   3.386929   2.147875   1.092111
    10  H    2.156904   3.387756   3.905148   3.431276   2.163380
    11  N    3.658706   2.336500   1.402081   2.526952   3.752712
    12  S    2.805095   1.752355   2.633424   3.951131   4.491189
    13  C    5.223485   3.854480   3.640911   4.927126   6.040394
    14  C    5.877784   4.615938   4.740962   6.096483   7.084661
    15  C    6.220762   4.824963   4.194516   5.248814   6.538952
    16  C    7.301079   6.021845   6.031737   7.344771   8.413245
    17  H    5.520321   4.409852   4.860902   6.252409   7.063818
    18  C    7.575771   6.181376   5.626684   6.681473   7.976537
    19  C    8.030118   6.673451   6.391986   7.587045   8.792778
    20  H    7.943167   6.742014   6.914603   8.262944   9.258002
    21  H    8.373730   6.979293   6.257564   7.168412   8.520636
    22  H    9.116059   7.763156   7.473103   8.648312   9.871105
    23  C    3.827578   2.443140   2.292210   3.645650   4.663082
    24  O    6.061109   4.710306   3.752914   4.547071   5.917274
    25  H    4.233942   2.944271   1.860777   2.741535   4.067882
                    6          7          8          9         10
     6  C    0.000000
     7  H    2.174118   0.000000
     8  H    3.435882   5.023024   0.000000
     9  H    2.155820   4.318103   2.479223   0.000000
    10  H    1.091777   2.508615   4.328207   2.482727   0.000000
    11  N    4.201547   4.502902   2.841948   4.659589   5.292748
    12  S    4.059534   3.010899   4.795152   5.582330   4.956513
    13  C    6.175539   5.704415   5.252790   7.020503   7.221327
    14  C    7.006406   6.131579   6.533412   8.116457   7.989617
    15  C    6.959068   6.861088   5.267168   7.396510   8.043667
    16  C    8.407396   7.553747   7.665031   9.418622   9.403765
    17  H    6.769907   5.587611   6.849255   8.136381   7.674662
    18  C    8.373480   8.144217   6.653552   8.828330   9.453359
    19  C    8.997166   8.434011   7.711848   9.723820  10.044800
    20  H    9.131747   8.066360   8.652216  10.291623  10.083614
    21  H    9.057939   9.019367   6.979918   9.290466  10.148008
    22  H   10.088704   9.499679   8.729634  10.790169  11.136133
    23  C    4.749047   4.396391   4.146039   5.675832   5.796606
    24  O    6.564136   6.858869   4.352322   6.657458   7.654650
    25  H    4.669299   5.110998   2.810790   4.886981   5.759541
                   11         12         13         14         15
    11  N    0.000000
    12  S    2.614146   0.000000
    13  C    2.430309   2.785658   0.000000
    14  C    3.691561   3.128022   1.375427   0.000000
    15  C    2.797274   4.113618   1.482568   2.494588   0.000000
    16  C    4.853749   4.554268   2.423827   1.427284   2.858398
    17  H    4.071137   2.719206   2.156985   1.093954   3.496778
    18  C    4.232751   5.261129   2.475691   2.833316   1.437585
    19  C    5.064252   5.433769   2.823483   2.452101   2.478836
    20  H    5.817686   5.142360   3.402163   2.175165   3.951122
    21  H    4.858419   6.219743   3.459392   3.925730   2.159819
    22  H    6.132320   6.492500   3.914905   3.438843   3.464221
    23  C    1.361161   1.729255   1.426497   2.451960   2.472037
    24  O    2.407741   4.461618   2.359643   3.608673   1.247667
    25  H    0.630134   3.201000   2.503513   3.849632   2.513936
                   16         17         18         19         20
    16  C    0.000000
    17  H    2.178660   0.000000
    18  C    2.424132   3.926681   0.000000
    19  C    1.391444   3.429994   1.402634   0.000000
    20  H    1.092752   2.482709   3.416575   2.160375   0.000000
    21  H    3.425038   5.019306   1.092818   2.186724   4.334698
    22  H    2.152582   4.323356   2.164802   1.091585   2.484893
    23  C    3.750165   2.715929   3.760760   4.249163   4.623366
    24  O    4.105123   4.511731   2.380378   3.638531   5.197654
    25  H    4.879257   4.375314   3.941776   4.913398   5.896962
                   21         22         23         24         25
    21  H    0.000000
    22  H    2.524718   0.000000
    23  C    4.625508   5.340730   0.000000
    24  O    2.636834   4.536708   2.734124   0.000000
    25  H    4.455279   5.950008   1.758557   1.895228   0.000000
 Symmetry turned off by external request.
 Stoichiometry    C13H9NOS
 Framework group  C1[X(C13H9NOS)]
 Deg. of freedom    69
 Full point group                 C1      NOp   1
 Rotational constants (GHZ):           1.4127906           0.2861236           0.2379359
 Leave Link  202 at Tue Jul 14 11:01:26 2020, MaxMem=  7784628224 cpu:               0.4 elap:               0.1
 (Enter /gpfs/loomis/apps/avx/software/Gaussian/16-C.01_AVX/g16/l301.exe)
 Standard basis: CC-pVDZ (5D, 7F)
 Ernie: Thresh=  0.10000D-02 Tol=  0.10000D-05 Strict=F.
 Ernie:  40 primitive shells out of 425 were deleted.
   273 basis functions,   629 primitive gaussians,   289 cartesian basis functions
    59 alpha electrons       59 beta electrons
       nuclear repulsion energy      1103.9879923315 Hartrees.
 IExCor= 4639 DFT=T Ex+Corr=wB97XD ExCW=0 ScaHFX=  1.000000
 ScaDFX=  1.000000  1.000000  1.000000  1.000000 ScalE2=  1.000000  1.000000
 IRadAn=      5 IRanWt=     -1 IRanGd=            0 ICorTp=0 IEmpDi=121
 HFx  wShort=  0.000000 wLong=  0.200000 cFull=  0.222036 cShort=  0.000000 cLong=  0.777964
 DFx  wShort=  0.000000 wLong=  0.200000 cFull=  0.000000 cShort=  0.000000 cLong=  1.000000
 NAtoms=   25 NActive=   25 NUniq=   25 SFac= 1.00D+00 NAtFMM=   60 NAOKFM=F Big=F
 Integral buffers will be    131072 words long.
 Raffenetti 1 integral format.
 Two-electron integral symmetry is turned off.
 R6Disp:  Grimme-D2 Dispersion energy=       -0.0140971249 Hartrees.
 Nuclear repulsion after empirical dispersion term =     1103.9738952066 Hartrees.
 ------------------------------------------------------------------------------
 Polarizable Continuum Model (PCM)
 =================================
 Model                : PCM.
 Atomic radii         : UFF (Universal Force Field).
 Polarization charges : Total charges.
 Charge compensation  : None.
 Solution method      : On-the-fly selection.
 Cavity type          : Scaled VdW (van der Waals Surface) (Alpha=1.100).
 Cavity algorithm     : GePol (No added spheres)
                        Default sphere list used, NSphG=   25.
                        Lebedev-Laikov grids with approx.  5.0 points / Ang**2.
                        Smoothing algorithm: York/Karplus (Gamma=1.0000).
                        Polarization charges: spherical gaussians, with
                                              point-specific exponents (IZeta= 3).
                        Self-potential: point-specific (ISelfS= 7).
                        Self-field    : sphere-specific E.n sum rule (ISelfD= 2).
 1st derivatives      : Analytical E(r).r(x)/FMM algorithm (CHGder, D1EAlg=3).
                        Cavity 1st derivative terms included.
 Solvent              : CarbonTetraChloride, Eps=   2.228000 Eps(inf)=   2.131892
 ------------------------------------------------------------------------------
 GePol: Number of generator spheres                  =      25
 GePol: Total number of spheres                      =      25
 GePol: Number of exposed spheres                    =      25 (100.00%)
 GePol: Number of points                             =    2188
 GePol: Average weight of points                     =       0.12
 GePol: Minimum weight of points                     =   0.40D-08
 GePol: Maximum weight of points                     =    0.20577
 GePol: Number of points with low weight             =     138
 GePol: Fraction of low-weight points (<1% of avg)   =       6.31%
 GePol: Cavity surface area                          =    271.676 Ang**2
 GePol: Cavity volume                                =    291.256 Ang**3
 Leave Link  301 at Tue Jul 14 11:01:26 2020, MaxMem=  7784628224 cpu:               0.8 elap:               0.1
 (Enter /gpfs/loomis/apps/avx/software/Gaussian/16-C.01_AVX/g16/l302.exe)
 NPDir=0 NMtPBC=     1 NCelOv=     1 NCel=       1 NClECP=     1 NCelD=      1
         NCelK=      1 NCelE2=     1 NClLst=     1 CellRange=     0.0.
 One-electron integrals computed using PRISM.
 NBasis=   273 RedAO= T EigKep=  3.01D-04  NBF=   273
 NBsUse=   273 1.00D-06 EigRej= -1.00D+00 NBFU=   273
 Precomputing XC quadrature grid using
 IXCGrd= 4 IRadAn=           5 IRanWt=          -1 IRanGd=           0 AccXCQ= 0.00D+00.
 Generated NRdTot=       0 NPtTot=           0 NUsed=           0 NTot=          32
 NSgBfM=   288   288   288   288   288 MxSgAt=    25 MxSgA2=    25.
 Leave Link  302 at Tue Jul 14 11:01:26 2020, MaxMem=  7784628224 cpu:               2.7 elap:               0.5
 (Enter /gpfs/loomis/apps/avx/software/Gaussian/16-C.01_AVX/g16/l303.exe)
 DipDrv:  MaxL=1.
 Leave Link  303 at Tue Jul 14 11:01:26 2020, MaxMem=  7784628224 cpu:               0.4 elap:               0.1
 (Enter /gpfs/loomis/apps/avx/software/Gaussian/16-C.01_AVX/g16/l308.exe)
 Leave Link  308 at Tue Jul 14 11:01:26 2020, MaxMem=  7784628224 cpu:               0.8 elap:               0.1
 (Enter /gpfs/loomis/apps/avx/software/Gaussian/16-C.01_AVX/g16/l401.exe)
 ExpMin= 1.22D-01 ExpMax= 1.11D+05 ExpMxC= 1.07D+03 IAcc=3 IRadAn=         5 AccDes= 0.00D+00
 Harris functional with IExCor= 4639 and IRadAn=       5 diagonalized for initial guess.
 HarFok:  IExCor= 4639 AccDes= 0.00D+00 IRadAn=         5 IDoV= 1 UseB2=F ITyADJ=14
 ICtDFT=  3500011 ScaDFX=  1.000000  1.000000  1.000000  1.000000
 FoFCou: FMM=F IPFlag=           0 FMFlag=      100000 FMFlg1=           0
         NFxFlg=           0 DoJE=T BraDBF=F KetDBF=T FulRan=T
         wScrn=  0.000000 ICntrl=       500 IOpCl=  0 I1Cent=   200000004 NGrid=           0
         NMat0=    1 NMatS0=      1 NMatT0=    0 NMatD0=    1 NMtDS0=    0 NMtDT0=    0
 Symmetry not used in FoFCou.
 Harris En= -994.110185069168    
 JPrj=0 DoOrth=F DoCkMO=F.
 Leave Link  401 at Tue Jul 14 11:01:28 2020, MaxMem=  7784628224 cpu:              13.3 elap:               1.4
 (Enter /gpfs/loomis/apps/avx/software/Gaussian/16-C.01_AVX/g16/l502.exe)
 Two-electron integral symmetry not used.
 Closed shell SCF:
 Using DIIS extrapolation, IDIIS=  1040.
 NGot=  7784628224 LenX=  7784455381 LenY=  7784371419
 Requested convergence on RMS density matrix=1.00D-08 within 128 cycles.
 Requested convergence on MAX density matrix=1.00D-06.
 Requested convergence on             energy=1.00D-06.
 No special actions if energy rises.
 Fock matrices will be formed incrementally for  20 cycles.

 Cycle   1  Pass 1  IDiag  1:
 FoFJK:  IHMeth= 1 ICntrl=       0 DoSepK=T KAlg= 0 I1Cent=           0 FoldK=F
 IRaf=         1 NMat=       1 IRICut=       1 DoRegI=T DoRafI=F ISym2E= 0 IDoP0=0 IntGTp=1.
 FoFCou: FMM=F IPFlag=           0 FMFlag=      100000 FMFlg1=           0
         NFxFlg=           0 DoJE=T BraDBF=F KetDBF=F FulRan=T
         wScrn=  0.000000 ICntrl=       500 IOpCl=  0 I1Cent=           0 NGrid=           0
         NMat0=    1 NMatS0=      1 NMatT0=    0 NMatD0=    1 NMtDS0=    0 NMtDT0=    0
 Symmetry not used in FoFCou.
 Inv3:  Mode=1 IEnd=    14362032.
 Iteration    1 A*A^-1 deviation from unit magnitude is 7.55D-15 for   2174.
 Iteration    1 A*A^-1 deviation from orthogonality  is 1.84D-15 for   1708   1573.
 Iteration    1 A^-1*A deviation from unit magnitude is 7.55D-15 for   2174.
 Iteration    1 A^-1*A deviation from orthogonality  is 1.95D-15 for   1120    634.
 E= -1028.20883738581    
 DIIS: error= 4.15D-02 at cycle   1 NSaved=   1.
 NSaved= 1 IEnMin= 1 EnMin= -1028.20883738581     IErMin= 1 ErrMin= 4.15D-02
 ErrMax= 4.15D-02  0.00D+00 EMaxC= 1.00D-01 BMatC= 4.06D-01 BMatP= 4.06D-01
 IDIUse=3 WtCom= 5.85D-01 WtEn= 4.15D-01
 Coeff-Com:  0.100D+01
 Coeff-En:   0.100D+01
 Coeff:      0.100D+01
 Gap=     0.292 Goal=   None    Shift=    0.000
 GapD=    0.292 DampG=1.000 DampE=0.500 DampFc=0.5000 IDamp=-1.
 Damping current iteration by 5.00D-01
 RMSDP=3.77D-03 MaxDP=2.62D-01              OVMax= 2.18D-01

 Cycle   2  Pass 1  IDiag  1:
 RMSU=  1.88D-03    CP:  9.93D-01
 E= -1028.33718741886     Delta-E=       -0.128350033046 Rises=F Damp=T
 DIIS: error= 1.07D-02 at cycle   2 NSaved=   2.
 NSaved= 2 IEnMin= 2 EnMin= -1028.33718741886     IErMin= 2 ErrMin= 1.07D-02
 ErrMax= 1.07D-02  0.00D+00 EMaxC= 1.00D-01 BMatC= 5.82D-02 BMatP= 4.06D-01
 IDIUse=3 WtCom= 8.93D-01 WtEn= 1.07D-01
 Coeff-Com: -0.269D+00 0.127D+01
 Coeff-En:   0.000D+00 0.100D+01
 Coeff:     -0.240D+00 0.124D+01
 Gap=     0.366 Goal=   None    Shift=    0.000
 RMSDP=1.17D-03 MaxDP=2.97D-02 DE=-1.28D-01 OVMax= 1.42D-01

 Cycle   3  Pass 1  IDiag  1:
 RMSU=  1.13D-03    CP:  9.91D-01  1.16D+00
 E= -1028.45479095330     Delta-E=       -0.117603534439 Rises=F Damp=F
 DIIS: error= 5.31D-03 at cycle   3 NSaved=   3.
 NSaved= 3 IEnMin= 3 EnMin= -1028.45479095330     IErMin= 3 ErrMin= 5.31D-03
 ErrMax= 5.31D-03  0.00D+00 EMaxC= 1.00D-01 BMatC= 1.44D-02 BMatP= 5.82D-02
 IDIUse=3 WtCom= 9.47D-01 WtEn= 5.31D-02
 Coeff-Com: -0.193D+00 0.473D+00 0.720D+00
 Coeff-En:   0.000D+00 0.000D+00 0.100D+01
 Coeff:     -0.183D+00 0.448D+00 0.735D+00
 Gap=     0.231 Goal=   None    Shift=    0.000
 RMSDP=5.09D-04 MaxDP=2.14D-02 DE=-1.18D-01 OVMax= 4.56D-02

 Cycle   4  Pass 1  IDiag  1:
 RMSU=  4.05D-04    CP:  9.89D-01  1.31D+00  8.87D-01
 E= -1028.46880737700     Delta-E=       -0.014016423702 Rises=F Damp=F
 DIIS: error= 1.87D-03 at cycle   4 NSaved=   4.
 NSaved= 4 IEnMin= 4 EnMin= -1028.46880737700     IErMin= 4 ErrMin= 1.87D-03
 ErrMax= 1.87D-03  0.00D+00 EMaxC= 1.00D-01 BMatC= 1.66D-03 BMatP= 1.44D-02
 IDIUse=3 WtCom= 9.81D-01 WtEn= 1.87D-02
 Coeff-Com: -0.684D-01 0.135D+00 0.337D+00 0.597D+00
 Coeff-En:   0.000D+00 0.000D+00 0.000D+00 0.100D+01
 Coeff:     -0.671D-01 0.132D+00 0.330D+00 0.604D+00
 Gap=     0.234 Goal=   None    Shift=    0.000
 RMSDP=1.60D-04 MaxDP=8.43D-03 DE=-1.40D-02 OVMax= 1.19D-02

 Cycle   5  Pass 1  IDiag  1:
 RMSU=  1.13D-04    CP:  9.89D-01  1.32D+00  9.49D-01  7.87D-01
 E= -1028.47060934877     Delta-E=       -0.001801971775 Rises=F Damp=F
 DIIS: error= 6.42D-04 at cycle   5 NSaved=   5.
 NSaved= 5 IEnMin= 5 EnMin= -1028.47060934877     IErMin= 5 ErrMin= 6.42D-04
 ErrMax= 6.42D-04  0.00D+00 EMaxC= 1.00D-01 BMatC= 6.40D-05 BMatP= 1.66D-03
 IDIUse=3 WtCom= 9.94D-01 WtEn= 6.42D-03
 Coeff-Com: -0.994D-05-0.635D-02 0.240D-01 0.161D+00 0.822D+00
 Coeff-En:   0.000D+00 0.000D+00 0.000D+00 0.000D+00 0.100D+01
 Coeff:     -0.988D-05-0.631D-02 0.239D-01 0.159D+00 0.823D+00
 Gap=     0.235 Goal=   None    Shift=    0.000
 RMSDP=6.48D-05 MaxDP=2.20D-03 DE=-1.80D-03 OVMax= 7.67D-03

 Cycle   6  Pass 1  IDiag  1:
 RMSU=  4.21D-05    CP:  9.88D-01  1.32D+00  9.67D-01  8.89D-01  1.14D+00
 E= -1028.47076597507     Delta-E=       -0.000156626298 Rises=F Damp=F
 DIIS: error= 2.82D-04 at cycle   6 NSaved=   6.
 NSaved= 6 IEnMin= 6 EnMin= -1028.47076597507     IErMin= 6 ErrMin= 2.82D-04
 ErrMax= 2.82D-04  0.00D+00 EMaxC= 1.00D-01 BMatC= 1.29D-05 BMatP= 6.40D-05
 IDIUse=3 WtCom= 9.97D-01 WtEn= 2.82D-03
 Coeff-Com:  0.175D-01-0.357D-01-0.705D-01-0.856D-01 0.222D+00 0.952D+00
 Coeff-En:   0.000D+00 0.000D+00 0.000D+00 0.000D+00 0.000D+00 0.100D+01
 Coeff:      0.174D-01-0.356D-01-0.703D-01-0.853D-01 0.222D+00 0.952D+00
 Gap=     0.236 Goal=   None    Shift=    0.000
 RMSDP=4.32D-05 MaxDP=2.20D-03 DE=-1.57D-04 OVMax= 5.11D-03

 Cycle   7  Pass 1  IDiag  1:
 RMSU=  2.03D-05    CP:  9.88D-01  1.32D+00  9.82D-01  9.30D-01  1.38D+00
                    CP:  1.34D+00
 E= -1028.47081433594     Delta-E=       -0.000048360871 Rises=F Damp=F
 DIIS: error= 9.29D-05 at cycle   7 NSaved=   7.
 NSaved= 7 IEnMin= 7 EnMin= -1028.47081433594     IErMin= 7 ErrMin= 9.29D-05
 ErrMax= 9.29D-05  0.00D+00 EMaxC= 1.00D-01 BMatC= 2.60D-06 BMatP= 1.29D-05
 IDIUse=1 WtCom= 1.00D+00 WtEn= 0.00D+00
 Coeff-Com:  0.658D-02-0.123D-01-0.281D-01-0.555D-01-0.306D-01 0.363D+00
 Coeff-Com:  0.756D+00
 Coeff:      0.658D-02-0.123D-01-0.281D-01-0.555D-01-0.306D-01 0.363D+00
 Coeff:      0.756D+00
 Gap=     0.236 Goal=   None    Shift=    0.000
 RMSDP=1.64D-05 MaxDP=6.21D-04 DE=-4.84D-05 OVMax= 2.09D-03

 Cycle   8  Pass 1  IDiag  1:
 RMSU=  8.51D-06    CP:  9.88D-01  1.32D+00  9.84D-01  9.40D-01  1.44D+00
                    CP:  1.60D+00  1.18D+00
 E= -1028.47082199564     Delta-E=       -0.000007659700 Rises=F Damp=F
 DIIS: error= 6.57D-05 at cycle   8 NSaved=   8.
 NSaved= 8 IEnMin= 8 EnMin= -1028.47082199564     IErMin= 8 ErrMin= 6.57D-05
 ErrMax= 6.57D-05  0.00D+00 EMaxC= 1.00D-01 BMatC= 4.76D-07 BMatP= 2.60D-06
 IDIUse=1 WtCom= 1.00D+00 WtEn= 0.00D+00
 Coeff-Com: -0.160D-02 0.348D-02 0.720D-02 0.221D-02-0.383D-01-0.108D+00
 Coeff-Com:  0.217D+00 0.918D+00
 Coeff:     -0.160D-02 0.348D-02 0.720D-02 0.221D-02-0.383D-01-0.108D+00
 Coeff:      0.217D+00 0.918D+00
 Gap=     0.236 Goal=   None    Shift=    0.000
 RMSDP=8.45D-06 MaxDP=2.32D-04 DE=-7.66D-06 OVMax= 1.42D-03

 Cycle   9  Pass 1  IDiag  1:
 RMSU=  3.43D-06    CP:  9.88D-01  1.32D+00  9.83D-01  9.40D-01  1.46D+00
                    CP:  1.71D+00  1.44D+00  1.17D+00
 E= -1028.47082395753     Delta-E=       -0.000001961890 Rises=F Damp=F
 DIIS: error= 1.97D-05 at cycle   9 NSaved=   9.
 NSaved= 9 IEnMin= 9 EnMin= -1028.47082395753     IErMin= 9 ErrMin= 1.97D-05
 ErrMax= 1.97D-05  0.00D+00 EMaxC= 1.00D-01 BMatC= 1.50D-07 BMatP= 4.76D-07
 IDIUse=1 WtCom= 1.00D+00 WtEn= 0.00D+00
 Coeff-Com: -0.164D-02 0.325D-02 0.748D-02 0.912D-02-0.104D-01-0.116D+00
 Coeff-Com: -0.445D-01 0.394D+00 0.759D+00
 Coeff:     -0.164D-02 0.325D-02 0.748D-02 0.912D-02-0.104D-01-0.116D+00
 Coeff:     -0.445D-01 0.394D+00 0.759D+00
 Gap=     0.237 Goal=   None    Shift=    0.000
 RMSDP=4.50D-06 MaxDP=1.66D-04 DE=-1.96D-06 OVMax= 6.01D-04

 Cycle  10  Pass 1  IDiag  1:
 RMSU=  1.74D-06    CP:  9.88D-01  1.32D+00  9.83D-01  9.40D-01  1.47D+00
                    CP:  1.77D+00  1.54D+00  1.43D+00  1.13D+00
 E= -1028.47082440689     Delta-E=       -0.000000449359 Rises=F Damp=F
 DIIS: error= 1.39D-05 at cycle  10 NSaved=  10.
 NSaved=10 IEnMin=10 EnMin= -1028.47082440689     IErMin=10 ErrMin= 1.39D-05
 ErrMax= 1.39D-05  0.00D+00 EMaxC= 1.00D-01 BMatC= 2.22D-08 BMatP= 1.50D-07
 IDIUse=1 WtCom= 1.00D+00 WtEn= 0.00D+00
 Coeff-Com:  0.354D-04-0.145D-03 0.149D-03 0.156D-02 0.922D-02-0.122D-01
 Coeff-Com: -0.726D-01-0.838D-01 0.269D+00 0.889D+00
 Coeff:      0.354D-04-0.145D-03 0.149D-03 0.156D-02 0.922D-02-0.122D-01
 Coeff:     -0.726D-01-0.838D-01 0.269D+00 0.889D+00
 Gap=     0.237 Goal=   None    Shift=    0.000
 RMSDP=2.07D-06 MaxDP=5.75D-05 DE=-4.49D-07 OVMax= 3.81D-04

 Cycle  11  Pass 1  IDiag  1:
 RMSU=  6.45D-07    CP:  9.88D-01  1.32D+00  9.84D-01  9.40D-01  1.48D+00
                    CP:  1.79D+00  1.59D+00  1.53D+00  1.44D+00  1.17D+00
 E= -1028.47082450572     Delta-E=       -0.000000098827 Rises=F Damp=F
 DIIS: error= 4.26D-06 at cycle  11 NSaved=  11.
 NSaved=11 IEnMin=11 EnMin= -1028.47082450572     IErMin=11 ErrMin= 4.26D-06
 ErrMax= 4.26D-06  0.00D+00 EMaxC= 1.00D-01 BMatC= 4.77D-09 BMatP= 2.22D-08
 IDIUse=1 WtCom= 1.00D+00 WtEn= 0.00D+00
 Coeff-Com:  0.256D-03-0.528D-03-0.101D-02-0.896D-03 0.524D-02 0.121D-01
 Coeff-Com: -0.177D-01-0.812D-01-0.499D-01 0.296D+00 0.838D+00
 Coeff:      0.256D-03-0.528D-03-0.101D-02-0.896D-03 0.524D-02 0.121D-01
 Coeff:     -0.177D-01-0.812D-01-0.499D-01 0.296D+00 0.838D+00
 Gap=     0.237 Goal=   None    Shift=    0.000
 RMSDP=7.97D-07 MaxDP=2.54D-05 DE=-9.88D-08 OVMax= 1.21D-04

 Cycle  12  Pass 1  IDiag  1:
 RMSU=  2.58D-07    CP:  9.88D-01  1.32D+00  9.84D-01  9.41D-01  1.48D+00
                    CP:  1.79D+00  1.60D+00  1.57D+00  1.53D+00  1.41D+00
                    CP:  1.17D+00
 E= -1028.47082451992     Delta-E=       -0.000000014203 Rises=F Damp=F
 DIIS: error= 1.65D-06 at cycle  12 NSaved=  12.
 NSaved=12 IEnMin=12 EnMin= -1028.47082451992     IErMin=12 ErrMin= 1.65D-06
 ErrMax= 1.65D-06  0.00D+00 EMaxC= 1.00D-01 BMatC= 6.79D-10 BMatP= 4.77D-09
 IDIUse=1 WtCom= 1.00D+00 WtEn= 0.00D+00
 Coeff-Com:  0.118D-03-0.227D-03-0.518D-03-0.918D-03 0.515D-03 0.818D-02
 Coeff-Com:  0.885D-02-0.145D-01-0.851D-01-0.603D-01 0.292D+00 0.851D+00
 Coeff:      0.118D-03-0.227D-03-0.518D-03-0.918D-03 0.515D-03 0.818D-02
 Coeff:      0.885D-02-0.145D-01-0.851D-01-0.603D-01 0.292D+00 0.851D+00
 Gap=     0.237 Goal=   None    Shift=    0.000
 RMSDP=3.27D-07 MaxDP=9.13D-06 DE=-1.42D-08 OVMax= 5.06D-05

 Cycle  13  Pass 1  IDiag  1:
 RMSU=  9.83D-08    CP:  9.88D-01  1.32D+00  9.84D-01  9.41D-01  1.48D+00
                    CP:  1.80D+00  1.60D+00  1.59D+00  1.57D+00  1.50D+00
                    CP:  1.39D+00  1.07D+00
 E= -1028.47082452227     Delta-E=       -0.000000002345 Rises=F Damp=F
 DIIS: error= 6.47D-07 at cycle  13 NSaved=  13.
 NSaved=13 IEnMin=13 EnMin= -1028.47082452227     IErMin=13 ErrMin= 6.47D-07
 ErrMax= 6.47D-07  0.00D+00 EMaxC= 1.00D-01 BMatC= 6.73D-11 BMatP= 6.79D-10
 IDIUse=1 WtCom= 1.00D+00 WtEn= 0.00D+00
 Coeff-Com: -0.914D-05 0.208D-04 0.337D-04-0.723D-04-0.250D-03 0.256D-03
 Coeff-Com:  0.306D-02 0.582D-02-0.115D-01-0.370D-01-0.544D-01 0.177D+00
 Coeff-Com:  0.917D+00
 Coeff:     -0.914D-05 0.208D-04 0.337D-04-0.723D-04-0.250D-03 0.256D-03
 Coeff:      0.306D-02 0.582D-02-0.115D-01-0.370D-01-0.544D-01 0.177D+00
 Coeff:      0.917D+00
 Gap=     0.237 Goal=   None    Shift=    0.000
 RMSDP=8.87D-08 MaxDP=2.24D-06 DE=-2.35D-09 OVMax= 1.04D-05

 Cycle  14  Pass 1  IDiag  1:
 RMSU=  3.53D-08    CP:  9.88D-01  1.32D+00  9.84D-01  9.41D-01  1.48D+00
                    CP:  1.80D+00  1.60D+00  1.59D+00  1.58D+00  1.53D+00
                    CP:  1.44D+00  1.23D+00  1.17D+00
 E= -1028.47082452247     Delta-E=       -0.000000000204 Rises=F Damp=F
 DIIS: error= 1.86D-07 at cycle  14 NSaved=  14.
 NSaved=14 IEnMin=14 EnMin= -1028.47082452247     IErMin=14 ErrMin= 1.86D-07
 ErrMax= 1.86D-07  0.00D+00 EMaxC= 1.00D-01 BMatC= 1.02D-11 BMatP= 6.73D-11
 IDIUse=1 WtCom= 1.00D+00 WtEn= 0.00D+00
 Coeff-Com: -0.148D-04 0.295D-04 0.650D-04 0.636D-04-0.127D-03-0.759D-03
 Coeff-Com:  0.864D-04 0.372D-02 0.443D-02-0.541D-02-0.502D-01-0.321D-01
 Coeff-Com:  0.331D+00 0.749D+00
 Coeff:     -0.148D-04 0.295D-04 0.650D-04 0.636D-04-0.127D-03-0.759D-03
 Coeff:      0.864D-04 0.372D-02 0.443D-02-0.541D-02-0.502D-01-0.321D-01
 Coeff:      0.331D+00 0.749D+00
 Gap=     0.237 Goal=   None    Shift=    0.000
 RMSDP=2.36D-08 MaxDP=5.68D-07 DE=-2.04D-10 OVMax= 2.88D-06

 Cycle  15  Pass 1  IDiag  1:
 RMSU=  1.22D-08    CP:  9.88D-01  1.32D+00  9.84D-01  9.41D-01  1.48D+00
                    CP:  1.80D+00  1.60D+00  1.59D+00  1.58D+00  1.53D+00
                    CP:  1.46D+00  1.26D+00  1.31D+00  1.10D+00
 E= -1028.47082452249     Delta-E=       -0.000000000023 Rises=F Damp=F
 DIIS: error= 7.18D-08 at cycle  15 NSaved=  15.
 NSaved=15 IEnMin=15 EnMin= -1028.47082452249     IErMin=15 ErrMin= 7.18D-08
 ErrMax= 7.18D-08  0.00D+00 EMaxC= 1.00D-01 BMatC= 1.29D-12 BMatP= 1.02D-11
 IDIUse=1 WtCom= 1.00D+00 WtEn= 0.00D+00
 Coeff-Com: -0.224D-05 0.396D-05 0.127D-04 0.334D-04 0.550D-05-0.313D-03
 Coeff-Com: -0.649D-03 0.243D-04 0.359D-02 0.690D-02-0.183D-02-0.515D-01
 Coeff-Com: -0.875D-01 0.172D+00 0.959D+00
 Coeff:     -0.224D-05 0.396D-05 0.127D-04 0.334D-04 0.550D-05-0.313D-03
 Coeff:     -0.649D-03 0.243D-04 0.359D-02 0.690D-02-0.183D-02-0.515D-01
 Coeff:     -0.875D-01 0.172D+00 0.959D+00
 Gap=     0.237 Goal=   None    Shift=    0.000
 RMSDP=1.25D-08 MaxDP=2.93D-07 DE=-2.25D-11 OVMax= 1.42D-06

 Cycle  16  Pass 1  IDiag  1:
 RMSU=  5.12D-09    CP:  9.88D-01  1.32D+00  9.84D-01  9.41D-01  1.48D+00
                    CP:  1.80D+00  1.60D+00  1.59D+00  1.58D+00  1.53D+00
                    CP:  1.46D+00  1.27D+00  1.38D+00  1.29D+00  1.21D+00
 E= -1028.47082452250     Delta-E=       -0.000000000003 Rises=F Damp=F
 DIIS: error= 2.54D-08 at cycle  16 NSaved=  16.
 NSaved=16 IEnMin=16 EnMin= -1028.47082452250     IErMin=16 ErrMin= 2.54D-08
 ErrMax= 2.54D-08  0.00D+00 EMaxC= 1.00D-01 BMatC= 1.33D-13 BMatP= 1.29D-12
 IDIUse=1 WtCom= 1.00D+00 WtEn= 0.00D+00
 Coeff-Com:  0.827D-06-0.177D-05-0.264D-05 0.185D-05 0.996D-05-0.892D-05
 Coeff-Com: -0.172D-03-0.329D-03 0.341D-03 0.205D-02 0.443D-02-0.104D-01
 Coeff-Com: -0.468D-01-0.328D-01 0.238D+00 0.846D+00
 Coeff:      0.827D-06-0.177D-05-0.264D-05 0.185D-05 0.996D-05-0.892D-05
 Coeff:     -0.172D-03-0.329D-03 0.341D-03 0.205D-02 0.443D-02-0.104D-01
 Coeff:     -0.468D-01-0.328D-01 0.238D+00 0.846D+00
 Gap=     0.237 Goal=   None    Shift=    0.000
 RMSDP=3.67D-09 MaxDP=1.18D-07 DE=-2.73D-12 OVMax= 5.01D-07

 Error on total polarization charges =  0.00874
 SCF Done:  E(RwB97XD) =  -1028.47082452     A.U. after   16 cycles
            NFock= 16  Conv=0.37D-08     -V/T= 2.0033
 KE= 1.025043759206D+03 PE=-4.619958971432D+03 EE= 1.462470492498D+03
 Leave Link  502 at Tue Jul 14 11:02:55 2020, MaxMem=  7784628224 cpu:             869.3 elap:              87.6
 (Enter /gpfs/loomis/apps/avx/software/Gaussian/16-C.01_AVX/g16/l801.exe)
 DoSCS=F DFT=T ScalE2(SS,OS)=  1.000000  1.000000
 ExpMin= 1.22D-01 ExpMax= 1.11D+05 ExpMxC= 1.07D+03 IAcc=3 IRadAn=         5 AccDes= 0.00D+00
 HarFok:  IExCor=  205 AccDes= 0.00D+00 IRadAn=         5 IDoV=-2 UseB2=F ITyADJ=14
 ICtDFT= 12500011 ScaDFX=  1.000000  1.000000  1.000000  1.000000
 Largest valence mixing into a core orbital is  9.46D-05
 Largest core mixing into a valence orbital is  3.27D-05
 Range of M.O.s used for correlation:    21   273
 NBasis=   273 NAE=    59 NBE=    59 NFC=    20 NFV=     0
 NROrb=    253 NOA=    39 NOB=    39 NVA=   214 NVB=   214
 Leave Link  801 at Tue Jul 14 11:02:56 2020, MaxMem=  7784628224 cpu:               0.9 elap:               0.1
 (Enter /gpfs/loomis/apps/avx/software/Gaussian/16-C.01_AVX/g16/l914.exe)
 RHF ground state
 Keep R1, R2, and R3 ints in memory in canonical form, NReq=4262515490.
 FoFCou: FMM=F IPFlag=           0 FMFlag=           0 FMFlg1=           0
         NFxFlg=           0 DoJE=F BraDBF=F KetDBF=F FulRan=T
         wScrn=  0.000000 ICntrl=       600 IOpCl=  0 I1Cent=           0 NGrid=           0
         NMat0=    1 NMatS0=  37401 NMatT0=    0 NMatD0=    1 NMtDS0=    0 NMtDT0=    0
 Symmetry not used in FoFCou.
 Two-electron integral symmetry not used.
 MDV=  7784628224 DFT=T DoStab=F Mixed=T DoRPA=T DoScal=F NonHer=T
 NEqPCM:  Using equilibrium solvation (IEInf=0, Eps=   2.2280, EpsInf=   2.1319)
 Making orbital integer symmetry assigments:
    12 initial guesses have been made.
 Convergence on wavefunction:    0.000001000000000
 Davidson Disk Diagonalization:  ConvIn= 1.00D-06 SkipCon=T Conv= 1.00D-06.
 Max sub-space:  2000 roots to seek:    12 dimension of matrix:        16692
 Iteration     1 Dimension    12 NMult     0 NNew     12
 CISAX will form    12 AO SS matrices at one time.
 NMat=    12 NSing=    12 JSym2X= 0.
 New state      3 was old state      4
 Excitation Energies [eV] at current iteration:
 Root      1 :     3.395607891044496
 Root      2 :     3.542705894025636
 Root      3 :     4.931372299568840
 Root      4 :     5.186458957206392
 Root      5 :     5.190860468743640
 Root      6 :     5.670943356472019
 Root      7 :     5.849454262769735
 Root      8 :     6.486900988710182
 Root      9 :     6.656143352177995
 Root     10 :     6.758682774688188
 Root     11 :     6.922729845565396
 Root     12 :     6.948122847718865
 Iteration     2 Dimension    18 NMult    12 NNew      6
 CISAX will form     6 AO SS matrices at one time.
 NMat=     6 NSing=     6 JSym2X= 0.
 Root      1 not converged, maximum delta is    0.042706261284108
 Root      2 not converged, maximum delta is    0.059576645691948
 Root      3 not converged, maximum delta is    0.058723595774952
 Excitation Energies [eV] at current iteration:
 Root      1 :     2.871689015929979   Change is   -0.523918875114517
 Root      2 :     3.420340600747507   Change is   -0.122365293278129
 Root      3 :     4.385125483043461   Change is   -0.546246816525380
 Iteration     3 Dimension    24 NMult    18 NNew      6
 CISAX will form     6 AO SS matrices at one time.
 NMat=     6 NSing=     6 JSym2X= 0.
 Root      1 not converged, maximum delta is    0.014162943339858
 Root      2 not converged, maximum delta is    0.034978582736328
 Root      3 not converged, maximum delta is    0.013744070417422
 Excitation Energies [eV] at current iteration:
 Root      1 :     2.844793681080114   Change is   -0.026895334849865
 Root      2 :     3.401318970099279   Change is   -0.019021630648228
 Root      3 :     4.354438926946926   Change is   -0.030686556096534
 Iteration     4 Dimension    30 NMult    24 NNew      6
 CISAX will form     6 AO SS matrices at one time.
 NMat=     6 NSing=     6 JSym2X= 0.
 Root      1 not converged, maximum delta is    0.008115299398657
 Root      2 not converged, maximum delta is    0.005959543147479
 Root      3 not converged, maximum delta is    0.014233217965608
 Excitation Energies [eV] at current iteration:
 Root      1 :     2.839926245587554   Change is   -0.004867435492560
 Root      2 :     3.400121654822284   Change is   -0.001197315276994
 Root      3 :     4.348349779278204   Change is   -0.006089147668723
 Iteration     5 Dimension    36 NMult    30 NNew      6
 CISAX will form     6 AO SS matrices at one time.
 NMat=     6 NSing=     6 JSym2X= 0.
 Root      1 not converged, maximum delta is    0.001851302445130
 Root      2 not converged, maximum delta is    0.000878112246347
 Root      3 not converged, maximum delta is    0.008881599800759
 Excitation Energies [eV] at current iteration:
 Root      1 :     2.839437138823365   Change is   -0.000489106764190
 Root      2 :     3.400055448092823   Change is   -0.000066206729461
 Root      3 :     4.346973264695049   Change is   -0.001376514583154
 Iteration     6 Dimension    42 NMult    36 NNew      6
 CISAX will form     6 AO SS matrices at one time.
 NMat=     6 NSing=     6 JSym2X= 0.
 Root      1 not converged, maximum delta is    0.000501537841429
 Root      2 not converged, maximum delta is    0.000269387873977
 Root      3 not converged, maximum delta is    0.003268126316900
 Excitation Energies [eV] at current iteration:
 Root      1 :     2.839395855848216   Change is   -0.000041282975149
 Root      2 :     3.400051015012577   Change is   -0.000004433080246
 Root      3 :     4.346695792513891   Change is   -0.000277472181158
 Iteration     7 Dimension    48 NMult    42 NNew      6
 CISAX will form     6 AO SS matrices at one time.
 NMat=     6 NSing=     6 JSym2X= 0.
 Root      1 not converged, maximum delta is    0.000081584980430
 Root      2 not converged, maximum delta is    0.000055283469613
 Root      3 not converged, maximum delta is    0.000987326317941
 Excitation Energies [eV] at current iteration:
 Root      1 :     2.839393422820441   Change is   -0.000002433027775
 Root      2 :     3.400050736404304   Change is   -0.000000278608273
 Root      3 :     4.346652675418542   Change is   -0.000043117095349
 Iteration     8 Dimension    54 NMult    48 NNew      6
 CISAX will form     6 AO SS matrices at one time.
 NMat=     6 NSing=     6 JSym2X= 0.
 Root      1 not converged, maximum delta is    0.000015737906060
 Root      2 not converged, maximum delta is    0.000007402392483
 Root      3 not converged, maximum delta is    0.000531203969173
 Excitation Energies [eV] at current iteration:
 Root      1 :     2.839393314617130   Change is   -0.000000108203311
 Root      2 :     3.400050723912527   Change is   -0.000000012491778
 Root      3 :     4.346645955443521   Change is   -0.000006719975021
 Iteration     9 Dimension    60 NMult    54 NNew      6
 CISAX will form     6 AO SS matrices at one time.
 NMat=     6 NSing=     6 JSym2X= 0.
 Root      1 not converged, maximum delta is    0.000005688407269
 Root      2 not converged, maximum delta is    0.000002029562601
 Root      3 not converged, maximum delta is    0.000161597682359
 Excitation Energies [eV] at current iteration:
 Root      1 :     2.839393305744697   Change is   -0.000000008872434
 Root      2 :     3.400050723368201   Change is   -0.000000000544326
 Root      3 :     4.346645321105699   Change is   -0.000000634337822
 Iteration    10 Dimension    66 NMult    60 NNew      6
 CISAX will form     6 AO SS matrices at one time.
 NMat=     6 NSing=     6 JSym2X= 0.
 Root      1 not converged, maximum delta is    0.000001062600958
 Root      2 has converged.
 Root      3 not converged, maximum delta is    0.000032749480608
 Excitation Energies [eV] at current iteration:
 Root      1 :     2.839393305339246   Change is   -0.000000000405451
 Root      2 :     3.400050723332102   Change is   -0.000000000036098
 Root      3 :     4.346645257845400   Change is   -0.000000063260300
 Iteration    11 Dimension    70 NMult    66 NNew      4
 CISAX will form     4 AO SS matrices at one time.
 NMat=     4 NSing=     4 JSym2X= 0.
 Root      1 has converged.
 Root      2 has converged.
 Root      3 not converged, maximum delta is    0.000008089540464
 Excitation Energies [eV] at current iteration:
 Root      1 :     2.839393305313247   Change is   -0.000000000025999
 Root      2 :     3.400050723332054   Change is   -0.000000000000048
 Root      3 :     4.346645252496331   Change is   -0.000000005349068
 Iteration    12 Dimension    72 NMult    70 NNew      2
 CISAX will form     2 AO SS matrices at one time.
 NMat=     2 NSing=     2 JSym2X= 0.
 Root      1 has converged.
 Root      2 has converged.
 Root      3 not converged, maximum delta is    0.000002370511615
 Excitation Energies [eV] at current iteration:
 Root      1 :     2.839393305313275   Change is    0.000000000000029
 Root      2 :     3.400050723332078   Change is    0.000000000000024
 Root      3 :     4.346645252055718   Change is   -0.000000000440613
 Iteration    13 Dimension    74 NMult    72 NNew      2
 CISAX will form     2 AO SS matrices at one time.
 NMat=     2 NSing=     2 JSym2X= 0.
 Root      1 has converged.
 Root      2 has converged.
 Root      3 has converged.
 Excitation Energies [eV] at current iteration:
 Root      1 :     2.839393305313130   Change is   -0.000000000000145
 Root      2 :     3.400050723332054   Change is   -0.000000000000024
 Root      3 :     4.346645252023755   Change is   -0.000000000031963
 Convergence achieved on expansion vectors.
 ***********************************************************************
 Excited states from <AA,BB:AA,BB> singles matrix:
 ***********************************************************************
 
 1PDM for each excited state written to RWF  633
 Ground to excited state transition densities written to RWF  633
 Ground to excited state transition electric dipole moments (Au):
       state          X           Y           Z        Dip. S.      Osc.
         1         1.1518     -2.2478     -0.0000      6.3792      0.4438
         2        -0.0000      0.0000     -0.0060      0.0000      0.0000
         3        -1.5535      1.0237      0.0000      3.4613      0.3686
 Ground to excited state transition velocity dipole moments (Au):
       state          X           Y           Z        Dip. S.      Osc.
         1        -0.1164      0.2388      0.0000      0.0706      0.4508
         2         0.0000     -0.0000      0.0010      0.0000      0.0000
         3         0.2433     -0.1542     -0.0000      0.0830      0.3463
 Ground to excited state transition magnetic dipole moments (Au):
       state          X           Y           Z
         1         0.0000      0.0000     -1.1251
         2         0.4281     -0.0111      0.0000
         3        -0.0000      0.0000     -1.0511
 Ground to excited state transition velocity quadrupole moments (Au):
       state          XX          YY          ZZ          XY          XZ          YZ
         1         0.0665      0.6607     -0.0122     -0.2977     -0.0000      0.0000
         2        -0.0000     -0.0000      0.0000      0.0000     -0.0055      0.0203
         3        -0.5255      0.5281      0.0074      0.1145      0.0000      0.0000
 <0|del|b> * <b|rxdel|0> + <0|del|b> * <b|delr+rdel|0>
 Rotatory Strengths (R) in cgs (10**-40 erg-esu-cm/Gauss)
       state          XX          YY          ZZ    R(velocity)    E-M Angle
         1         0.0018     -0.0185      0.0161     -0.0002       90.00
         2         0.0001      0.0006      0.0007      0.0005       90.00
         3         0.0046      0.0043     -0.0068      0.0007       90.00
 1/2[<0|r|b>*<b|rxdel|0> + (<0|rxdel|b>*<b|r|0>)*]
 Rotatory Strengths (R) in cgs (10**-40 erg-esu-cm/Gauss)
       state          XX          YY          ZZ     R(length)
         1        -0.0056      0.0336     -0.0293     -0.0004
         2         0.0013      0.0001      0.0001      0.0005
         3        -0.0058     -0.0023      0.0108      0.0009
  1/2[<0|del|b>*<b|r|0> + (<0|r|b>*<b|del|0>)*] (Au)
       state          X           Y           Z        Dip. S.   Osc.(frdel)
         1        -0.1341     -0.5367     -0.0000      0.6708      0.4472
         2        -0.0000     -0.0000     -0.0000      0.0000      0.0000
         3        -0.3780     -0.1578     -0.0000      0.5358      0.3572

 Excitation energies and oscillator strengths:
 
 Excited state symmetry could not be determined.
 Excited State   1:      Singlet-?Sym    2.8394 eV  436.66 nm  f=0.4438  <S**2>=0.000
      59 -> 60         0.70002
 This state for optimization and/or second-order correction.
 Total Energy, E(TD-HF/TD-DFT) =  -1028.36647874    
 Copying the excited state density for this state as the 1-particle RhoCI density.
 
 Excited state symmetry could not be determined.
 Excited State   2:      Singlet-?Sym    3.4001 eV  364.65 nm  f=0.0000  <S**2>=0.000
      58 -> 60         0.68526
      58 -> 62         0.10890
      58 -> 64         0.10769
 
 Excited state symmetry could not be determined.
 Excited State   3:      Singlet-?Sym    4.3466 eV  285.24 nm  f=0.3686  <S**2>=0.000
      57 -> 60         0.68555
 SavETr:  write IOETrn=   770 NScale= 10 NData=  16 NLR=1 NState=    3 LETran=      64.
 The selected state is a singlet.
 CISGrd: IGrad=2 NXY=2 DFT=T
 CISAX will form     1 AO SS matrices at one time.
 NMat=     1 NSing=     1 JSym2X= 0.
 GePol: Maximum number of non-zero 1st derivatives   =     260
 Leave Link  914 at Tue Jul 14 11:05:50 2020, MaxMem=  7784628224 cpu:            1715.4 elap:             174.0
 (Enter /gpfs/loomis/apps/avx/software/Gaussian/16-C.01_AVX/g16/l1002.exe)
 Minotr:  Closed shell wavefunction.
          Computing CIS/TDA/TD derivatives.
          Using Z-Vector for PSCF gradient.
          Skipping F1 and S1 gradient terms here.
          IDoAtm=1111111111111111111111111
 NEqPCM:  Using equilibrium solvation (IEInf=0, Eps=   2.2280, EpsInf=   2.1319)
          Frozen-core window.
          Direct CPHF calculation.
          Differentiating once with respect to electric field.
                with respect to dipole field.
          Differentiating once with respect to nuclear coordinates.
          Requested convergence is 1.0D-10 RMS, and 1.0D-09 maximum.
          NewPWx=F KeepS1=T KeepF1=T KeepIn=T MapXYZ=F SortEE=F KeepMc=T.
 Keep R1 ints in memory in canonical form, NReq=1421471443.
 FoFCou: FMM=F IPFlag=           0 FMFlag=           0 FMFlg1=           0
         NFxFlg=           0 DoJE=F BraDBF=F KetDBF=F FulRan=T
         wScrn=  0.000000 ICntrl=       600 IOpCl=  0 I1Cent=           0 NGrid=           0
         NMat0=    1 NMatS0=  37401 NMatT0=    0 NMatD0=    1 NMtDS0=    0 NMtDT0=    0
 Symmetry not used in FoFCou.
 Two-electron integral symmetry not used.
          MDV=    7784628224 using IRadAn=       5.
          Solving linear equations separately, MaxMat=       0.
          There are     1 degrees of freedom in the 1st order CPHF.  IDoFFX=0 NUNeed=     1.
 LinEq1:  Iter=  0 NonCon=     1 RMS=6.98D-03 Max=5.73D-01 NDo=     1
 AX will form     1 AO Fock derivatives at one time.
 LinEq1:  Iter=  1 NonCon=     1 RMS=3.20D-03 Max=1.76D-01 NDo=     1
 LinEq1:  Iter=  2 NonCon=     1 RMS=1.58D-03 Max=3.73D-02 NDo=     1
 LinEq1:  Iter=  3 NonCon=     1 RMS=7.63D-04 Max=2.13D-02 NDo=     1
 LinEq1:  Iter=  4 NonCon=     1 RMS=4.48D-04 Max=1.37D-02 NDo=     1
 LinEq1:  Iter=  5 NonCon=     1 RMS=2.21D-04 Max=8.30D-03 NDo=     1
 LinEq1:  Iter=  6 NonCon=     1 RMS=9.11D-05 Max=4.60D-03 NDo=     1
 LinEq1:  Iter=  7 NonCon=     1 RMS=4.63D-05 Max=1.43D-03 NDo=     1
 LinEq1:  Iter=  8 NonCon=     1 RMS=1.76D-05 Max=6.08D-04 NDo=     1
 LinEq1:  Iter=  9 NonCon=     1 RMS=7.92D-06 Max=1.86D-04 NDo=     1
 LinEq1:  Iter= 10 NonCon=     1 RMS=3.12D-06 Max=8.17D-05 NDo=     1
 LinEq1:  Iter= 11 NonCon=     1 RMS=1.52D-06 Max=5.29D-05 NDo=     1
 LinEq1:  Iter= 12 NonCon=     1 RMS=6.87D-07 Max=2.19D-05 NDo=     1
 LinEq1:  Iter= 13 NonCon=     1 RMS=3.52D-07 Max=1.16D-05 NDo=     1
 LinEq1:  Iter= 14 NonCon=     1 RMS=1.12D-07 Max=2.49D-06 NDo=     1
 LinEq1:  Iter= 15 NonCon=     1 RMS=5.94D-08 Max=1.79D-06 NDo=     1
 LinEq1:  Iter= 16 NonCon=     1 RMS=2.51D-08 Max=7.47D-07 NDo=     1
 LinEq1:  Iter= 17 NonCon=     1 RMS=1.14D-08 Max=3.03D-07 NDo=     1
 LinEq1:  Iter= 18 NonCon=     1 RMS=4.96D-09 Max=1.18D-07 NDo=     1
 LinEq1:  Iter= 19 NonCon=     1 RMS=1.90D-09 Max=4.86D-08 NDo=     1
 LinEq1:  Iter= 20 NonCon=     1 RMS=9.52D-10 Max=2.61D-08 NDo=     1
 LinEq1:  Iter= 21 NonCon=     1 RMS=3.53D-10 Max=9.64D-09 NDo=     1
 LinEq1:  Iter= 22 NonCon=     1 RMS=1.47D-10 Max=4.24D-09 NDo=     1
 LinEq1:  Iter= 23 NonCon=     1 RMS=6.51D-11 Max=1.56D-09 NDo=     1
 LinEq1:  Iter= 24 NonCon=     0 RMS=1.86D-11 Max=4.82D-10 NDo=     1
 Linear equations converged to 1.000D-10 1.000D-09 after    24 iterations.
 End of Minotr F.D. properties file   721 does not exist.
 End of Minotr F.D. properties file   722 does not exist.
 End of Minotr F.D. properties file   788 does not exist.
 Leave Link 1002 at Tue Jul 14 11:07:27 2020, MaxMem=  7784628224 cpu:             734.9 elap:              97.7
 (Enter /gpfs/loomis/apps/avx/software/Gaussian/16-C.01_AVX/g16/l601.exe)
 Copying SCF densities to generalized density rwf, IOpCl= 0 IROHF=0.

 **********************************************************************

            Population analysis using the SCF Density.

 **********************************************************************

 Alpha  occ. eigenvalues --  -89.10703 -19.20347 -14.50781 -10.41862 -10.38112
 Alpha  occ. eigenvalues --  -10.36527 -10.35417 -10.33578 -10.33288 -10.32787
 Alpha  occ. eigenvalues --  -10.32600 -10.31400 -10.30698 -10.30416 -10.29221
 Alpha  occ. eigenvalues --  -10.28326  -8.12769  -6.07639  -6.07272  -6.06778
 Alpha  occ. eigenvalues --   -1.16787  -1.09398  -1.00263  -0.96824  -0.93674
 Alpha  occ. eigenvalues --   -0.89350  -0.87764  -0.83782  -0.81468  -0.79711
 Alpha  occ. eigenvalues --   -0.75603  -0.72374  -0.69699  -0.67829  -0.65855
 Alpha  occ. eigenvalues --   -0.60919  -0.59771  -0.57272  -0.56419  -0.56288
 Alpha  occ. eigenvalues --   -0.55149  -0.53730  -0.53146  -0.50424  -0.49498
 Alpha  occ. eigenvalues --   -0.48847  -0.48578  -0.47058  -0.45629  -0.44988
 Alpha  occ. eigenvalues --   -0.44001  -0.43125  -0.42745  -0.40064  -0.36833
 Alpha  occ. eigenvalues --   -0.34003  -0.31669  -0.31042  -0.25644
 Alpha virt. eigenvalues --   -0.01984   0.03417   0.05180   0.06135   0.09576
 Alpha virt. eigenvalues --    0.10709   0.14069   0.14772   0.16638   0.17336
 Alpha virt. eigenvalues --    0.18826   0.19969   0.20968   0.21326   0.23187
 Alpha virt. eigenvalues --    0.23537   0.24418   0.25914   0.27920   0.30040
 Alpha virt. eigenvalues --    0.30613   0.34185   0.35488   0.35673   0.36702
 Alpha virt. eigenvalues --    0.37810   0.39485   0.39952   0.41659   0.45107
 Alpha virt. eigenvalues --    0.46924   0.48744   0.50713   0.51294   0.51636
 Alpha virt. eigenvalues --    0.52612   0.52829   0.53019   0.53990   0.55453
 Alpha virt. eigenvalues --    0.56182   0.56495   0.56544   0.57269   0.57650
 Alpha virt. eigenvalues --    0.57947   0.58947   0.59390   0.59709   0.60879
 Alpha virt. eigenvalues --    0.61418   0.61604   0.62855   0.62962   0.63534
 Alpha virt. eigenvalues --    0.64672   0.66931   0.66995   0.68689   0.70168
 Alpha virt. eigenvalues --    0.70329   0.70717   0.71951   0.72451   0.73028
 Alpha virt. eigenvalues --    0.74345   0.75461   0.75811   0.77371   0.78478
 Alpha virt. eigenvalues --    0.78758   0.79943   0.81010   0.81737   0.83775
 Alpha virt. eigenvalues --    0.86076   0.89420   0.91157   0.91917   0.93336
 Alpha virt. eigenvalues --    0.94515   0.94659   0.96404   0.97455   0.98518
 Alpha virt. eigenvalues --    0.99506   1.00601   1.00681   1.01034   1.01194
 Alpha virt. eigenvalues --    1.02742   1.05244   1.06202   1.06232   1.07239
 Alpha virt. eigenvalues --    1.09251   1.09671   1.10087   1.10953   1.11317
 Alpha virt. eigenvalues --    1.12813   1.13540   1.13753   1.14261   1.15619
 Alpha virt. eigenvalues --    1.17426   1.19115   1.20085   1.22641   1.24247
 Alpha virt. eigenvalues --    1.26468   1.27531   1.31349   1.33779   1.34322
 Alpha virt. eigenvalues --    1.34747   1.36612   1.38324   1.41760   1.45393
 Alpha virt. eigenvalues --    1.49334   1.49593   1.53157   1.54641   1.55401
 Alpha virt. eigenvalues --    1.55864   1.57116   1.57390   1.57996   1.59863
 Alpha virt. eigenvalues --    1.60546   1.61638   1.63212   1.65363   1.68056
 Alpha virt. eigenvalues --    1.68633   1.70062   1.71008   1.71820   1.71889
 Alpha virt. eigenvalues --    1.72893   1.73681   1.73782   1.75039   1.76483
 Alpha virt. eigenvalues --    1.77882   1.79294   1.80487   1.81900   1.82206
 Alpha virt. eigenvalues --    1.84394   1.84800   1.85068   1.85370   1.86254
 Alpha virt. eigenvalues --    1.87524   1.90473   1.91463   1.92060   1.92358
 Alpha virt. eigenvalues --    1.94640   1.95628   1.95982   1.96640   1.98715
 Alpha virt. eigenvalues --    2.00800   2.00983   2.03094   2.05289   2.06573
 Alpha virt. eigenvalues --    2.07375   2.08487   2.09757   2.12449   2.15398
 Alpha virt. eigenvalues --    2.17619   2.22959   2.24487   2.24738   2.26990
 Alpha virt. eigenvalues --    2.27943   2.30198   2.35543   2.36876   2.38639
 Alpha virt. eigenvalues --    2.41394   2.42973   2.46287   2.48568   2.50081
 Alpha virt. eigenvalues --    2.51746   2.55365   2.61712   2.67797   2.68574
 Alpha virt. eigenvalues --    2.73189   2.73434   2.75461   2.78974   2.81421
 Alpha virt. eigenvalues --    2.81827   2.82278   2.82887   2.89291   2.94620
 Alpha virt. eigenvalues --    2.95982   3.11204   3.18858   3.34877   3.50891
 Alpha virt. eigenvalues --    3.53699   3.60522   3.69897   5.31000
          Condensed to atoms (all electrons):
               1          2          3          4          5          6
     1  C    4.748253   0.478199   0.016492  -0.055501  -0.010271   0.501486
     2  C    0.478199   5.392936   0.258070  -0.065048  -0.079573   0.000858
     3  C    0.016492   0.258070   4.932464   0.513038  -0.000722  -0.071427
     4  C   -0.055501  -0.065048   0.513038   4.820571   0.508219  -0.011101
     5  C   -0.010271  -0.079573  -0.000722   0.508219   4.739091   0.501482
     6  C    0.501486   0.000858  -0.071427  -0.011101   0.501482   4.734758
     7  H    0.404677  -0.039650   0.009509  -0.000654   0.008091  -0.039259
     8  H   -0.000566   0.010521  -0.025898   0.395329  -0.041052   0.007331
     9  H    0.008728  -0.000407   0.008200  -0.037933   0.405537  -0.043672
    10  H   -0.042975   0.009441  -0.000526   0.008471  -0.041947   0.408022
    11  N    0.003638  -0.043958   0.421671  -0.044662   0.002767   0.000296
    12  S   -0.071225   0.337617  -0.142706   0.003178  -0.000007   0.004862
    13  C   -0.000272  -0.001068   0.015406   0.000072   0.000018  -0.000001
    14  C   -0.000010   0.000052   0.000447   0.000009  -0.000000   0.000000
    15  C    0.000005  -0.000263   0.000404   0.000010  -0.000000   0.000000
    16  C    0.000000  -0.000005   0.000002  -0.000000   0.000000   0.000000
    17  H   -0.000009   0.000181   0.000002   0.000001   0.000000   0.000000
    18  C    0.000000   0.000011  -0.000042  -0.000001  -0.000000  -0.000000
    19  C   -0.000000  -0.000000   0.000003   0.000000  -0.000000   0.000000
    20  H   -0.000000  -0.000000  -0.000000   0.000000   0.000000  -0.000000
    21  H   -0.000000   0.000000  -0.000002  -0.000000  -0.000000   0.000000
    22  H    0.000000  -0.000000  -0.000000  -0.000000   0.000000  -0.000000
    23  C    0.003590  -0.059130  -0.086095   0.005868   0.000547  -0.000517
    24  O    0.000001  -0.000167  -0.001044   0.000090   0.000001  -0.000000
    25  H    0.000236   0.030792  -0.032986  -0.031772  -0.001109   0.000024
               7          8          9         10         11         12
     1  C    0.404677  -0.000566   0.008728  -0.042975   0.003638  -0.071225
     2  C   -0.039650   0.010521  -0.000407   0.009441  -0.043958   0.337617
     3  C    0.009509  -0.025898   0.008200  -0.000526   0.421671  -0.142706
     4  C   -0.000654   0.395329  -0.037933   0.008471  -0.044662   0.003178
     5  C    0.008091  -0.041052   0.405537  -0.041947   0.002767  -0.000007
     6  C   -0.039259   0.007331  -0.043672   0.408022   0.000296   0.004862
     7  H    0.647613   0.000027  -0.000148  -0.011137  -0.000098  -0.007904
     8  H    0.000027   0.636252  -0.011846  -0.000107  -0.006265  -0.000252
     9  H   -0.000148  -0.011846   0.654115  -0.012101  -0.000083   0.000020
    10  H   -0.011137  -0.000107  -0.012101   0.654308   0.000006  -0.000144
    11  N   -0.000098  -0.006265  -0.000083   0.000006   5.618438  -0.043032
    12  S   -0.007904  -0.000252   0.000020  -0.000144  -0.043032  15.466098
    13  C    0.000002   0.000048  -0.000000  -0.000000  -0.010701  -0.078865
    14  C    0.000001   0.000001   0.000000  -0.000000   0.004147  -0.009095
    15  C   -0.000000  -0.000014   0.000000   0.000000  -0.009933   0.004715
    16  C    0.000000  -0.000000  -0.000000  -0.000000  -0.000075   0.000276
    17  H    0.000001   0.000000   0.000000  -0.000000   0.000258   0.007673
    18  C    0.000000  -0.000000   0.000000  -0.000000  -0.000589  -0.000137
    19  C   -0.000000   0.000000  -0.000000   0.000000   0.000011   0.000013
    20  H    0.000000  -0.000000   0.000000   0.000000   0.000001   0.000006
    21  H   -0.000000   0.000000  -0.000000   0.000000  -0.000002   0.000003
    22  H    0.000000  -0.000000  -0.000000  -0.000000  -0.000000  -0.000000
    23  C    0.000285  -0.000618   0.000006   0.000004   0.485273   0.295477
    24  O    0.000000  -0.000127   0.000000  -0.000000  -0.009806   0.000097
    25  H    0.000011   0.000913  -0.000019   0.000000   0.300517   0.014407
              13         14         15         16         17         18
     1  C   -0.000272  -0.000010   0.000005   0.000000  -0.000009   0.000000
     2  C   -0.001068   0.000052  -0.000263  -0.000005   0.000181   0.000011
     3  C    0.015406   0.000447   0.000404   0.000002   0.000002  -0.000042
     4  C    0.000072   0.000009   0.000010  -0.000000   0.000001  -0.000001
     5  C    0.000018  -0.000000  -0.000000   0.000000   0.000000  -0.000000
     6  C   -0.000001   0.000000   0.000000   0.000000   0.000000  -0.000000
     7  H    0.000002   0.000001  -0.000000   0.000000   0.000001   0.000000
     8  H    0.000048   0.000001  -0.000014  -0.000000   0.000000  -0.000000
     9  H   -0.000000   0.000000   0.000000  -0.000000   0.000000   0.000000
    10  H   -0.000000  -0.000000   0.000000  -0.000000  -0.000000  -0.000000
    11  N   -0.010701   0.004147  -0.009933  -0.000075   0.000258  -0.000589
    12  S   -0.078865  -0.009095   0.004715   0.000276   0.007673  -0.000137
    13  C    5.546895   0.416205   0.149608  -0.003637  -0.042564  -0.042726
    14  C    0.416205   4.890589   0.010989   0.536979   0.399641  -0.067266
    15  C    0.149608   0.010989   4.720655  -0.053692   0.005629   0.433165
    16  C   -0.003637   0.536979  -0.053692   4.766597  -0.030406  -0.015754
    17  H   -0.042564   0.399641   0.005629  -0.030406   0.675883  -0.001035
    18  C   -0.042726  -0.067266   0.433165  -0.015754  -0.001035   4.968695
    19  C   -0.053998  -0.017166   0.001506   0.473396   0.008262   0.486140
    20  H    0.009190  -0.036895  -0.000144   0.399849  -0.011721   0.008369
    21  H    0.016222  -0.000564  -0.025649   0.007697   0.000057   0.370720
    22  H   -0.001883   0.009948   0.008312  -0.046570  -0.000209  -0.039470
    23  C    0.340772  -0.101123  -0.067578   0.006125  -0.021833   0.012943
    24  O   -0.111628   0.006603   0.715559  -0.000246  -0.000078  -0.071279
    25  H   -0.070580  -0.001047  -0.003597   0.000078  -0.000122   0.003434
              19         20         21         22         23         24
     1  C   -0.000000  -0.000000  -0.000000   0.000000   0.003590   0.000001
     2  C   -0.000000  -0.000000   0.000000  -0.000000  -0.059130  -0.000167
     3  C    0.000003  -0.000000  -0.000002  -0.000000  -0.086095  -0.001044
     4  C    0.000000   0.000000  -0.000000  -0.000000   0.005868   0.000090
     5  C   -0.000000   0.000000  -0.000000   0.000000   0.000547   0.000001
     6  C    0.000000  -0.000000   0.000000  -0.000000  -0.000517  -0.000000
     7  H   -0.000000   0.000000  -0.000000   0.000000   0.000285   0.000000
     8  H    0.000000  -0.000000   0.000000  -0.000000  -0.000618  -0.000127
     9  H   -0.000000   0.000000  -0.000000  -0.000000   0.000006   0.000000
    10  H    0.000000   0.000000   0.000000  -0.000000   0.000004  -0.000000
    11  N    0.000011   0.000001  -0.000002  -0.000000   0.485273  -0.009806
    12  S    0.000013   0.000006   0.000003  -0.000000   0.295477   0.000097
    13  C   -0.053998   0.009190   0.016222  -0.001883   0.340772  -0.111628
    14  C   -0.017166  -0.036895  -0.000564   0.009948  -0.101123   0.006603
    15  C    0.001506  -0.000144  -0.025649   0.008312  -0.067578   0.715559
    16  C    0.473396   0.399849   0.007697  -0.046570   0.006125  -0.000246
    17  H    0.008262  -0.011721   0.000057  -0.000209  -0.021833  -0.000078
    18  C    0.486140   0.008369   0.370720  -0.039470   0.012943  -0.071279
    19  C    4.753509  -0.046919  -0.047066   0.402701   0.000090   0.004778
    20  H   -0.046919   0.690139  -0.000162  -0.012720  -0.000408   0.000000
    21  H   -0.047066  -0.000162   0.686337  -0.012973  -0.000521   0.005470
    22  H    0.402701  -0.012720  -0.012973   0.678998   0.000009  -0.000073
    23  C    0.000090  -0.000408  -0.000521   0.000009   5.154844  -0.016436
    24  O    0.004778   0.000000   0.005470  -0.000073  -0.016436   7.793969
    25  H   -0.000291  -0.000000  -0.000006   0.000003   0.028052   0.061157
              25
     1  C    0.000236
     2  C    0.030792
     3  C   -0.032986
     4  C   -0.031772
     5  C   -0.001109
     6  C    0.000024
     7  H    0.000011
     8  H    0.000913
     9  H   -0.000019
    10  H    0.000000
    11  N    0.300517
    12  S    0.014407
    13  C   -0.070580
    14  C   -0.001047
    15  C   -0.003597
    16  C    0.000078
    17  H   -0.000122
    18  C    0.003434
    19  C   -0.000291
    20  H   -0.000000
    21  H   -0.000006
[...]
 9,-0.00000001,0.,-0.00001981,0.,0.,0.00002606,0.,0.,0.00003279,0.00000
 031,-0.00000144,0.00192182,0.00000043,-0.00000012,-0.00077066,0.000002
 12,0.00000349,0.00203058,0.00000004,-0.00000980,-0.05464986,0.00000230
 ,-0.00000167,-0.00558042,0.00000950,0.00003671,0.12218996,0.00023050,0
 .00005979,0.,-0.00060221,0.00033247,0.00000006,0.00037782,-0.00021349,
 -0.00000008,-0.00008200,0.00012531,-0.00000001,0.00006102,-0.00008966,
 0.,0.00003630,-0.00004026,0.,-0.00002061,-0.00001120,0.,0.00003668,0.0
 0000411,0.,0.00001321,-0.00000531,0.,0.00003734,-0.00000917,0.,0.00064
 639,0.00050953,0.00000010,-0.00138727,0.00130760,-0.00000032,-0.004216
 79,-0.03035811,-0.00000274,-0.08623011,-0.08530746,-0.00000736,-0.0041
 4342,0.00365652,-0.00000042,0.01027512,0.02125190,0.00000178,0.0888983
 3,0.00004655,-0.00001792,-0.00000003,-0.00019352,0.00061523,-0.0000001
 0,0.00031381,0.00001992,-0.00000012,-0.00001195,0.00005703,0.,0.000018
 84,0.00005010,0.,-0.00009444,-0.00001551,0.00000001,-0.00001058,0.0000
 1174,-0.00000001,0.00002183,-0.00000454,-0.00000001,-0.00000199,0.0000
 0130,0.,0.00000071,0.00000242,0.00000001,0.00009136,0.00014862,0.00000
 024,0.00018547,-0.00064632,0.00000013,0.00049658,-0.00357116,-0.000000
 83,-0.08408727,-0.31039471,-0.00002465,0.00003466,0.00259197,-0.000000
 76,-0.01077216,-0.01644330,-0.00000184,0.08975579,0.32937779,0.0000000
 1,0.00000018,0.00003043,0.00000048,0.00000022,-0.00040121,0.00000061,-
 0.00000076,0.00082236,-0.00000045,0.00000011,0.00011161,0.00000002,-0.
 00000033,-0.00002442,0.00000016,0.00000011,-0.00000680,-0.00000001,0.,
 0.00003537,0.00000002,0.,0.00002703,0.,0.,-0.00001081,0.00000001,0.,-0
 .00001318,0.00000030,0.00000163,-0.00141339,-0.00000069,0.00000004,0.0
 0165144,0.00000181,-0.00000389,0.00884298,-0.00000854,-0.00002401,-0.0
 3652514,-0.00000104,0.00000154,0.01007968,-0.00000057,-0.00000142,0.00
 392208,0.00000847,0.00002737,0.02026180,-0.00140583,0.00030369,0.00000
 034,-0.00459624,-0.00354557,0.00000041,-0.00467948,0.01115171,-0.00000
 079,0.00486867,-0.00064972,-0.00000007,-0.00022084,0.00160642,-0.00000
 005,0.00114250,-0.00122668,-0.00000002,-0.00010979,0.00008851,0.000000
 01,0.00005485,-0.00000533,0.00000001,0.00012180,-0.00000436,0.,0.00009
 087,-0.00006714,-0.00000008,0.01032715,-0.00232354,0.00000170,0.000724
 09,-0.00272631,0.00000037,0.02527416,0.01200432,0.00000138,-0.03951584
 ,0.01884404,0.00000115,-0.12314766,0.05868699,0.00000764,-0.00800603,-
 0.08703195,-0.00000646,-0.00053000,0.00030879,0.00000062,0.62621582,0.
 00064145,-0.00004731,-0.00000002,0.00009363,-0.00004916,0.00000005,0.0
 0074897,-0.00133145,0.00000026,-0.00085440,0.00010524,0.,0.00012088,-0
 .00024067,0.,-0.00032454,0.00011202,0.,0.00000402,0.00000627,0.,-0.000
 00761,-0.00000516,0.,-0.00001822,-0.00000153,0.,0.00001314,0.00000895,
 0.,-0.00036569,0.00047804,-0.00000045,0.00139214,-0.00071549,0.0000000
 8,0.01346296,-0.02800257,-0.00000098,0.00808027,-0.00357662,-0.0000004
 6,0.05992075,-0.21336672,-0.00000998,-0.03703114,-0.00413648,-0.000000
 64,-0.00029402,0.00076081,-0.00000029,0.06209592,0.68059317,0.00000020
 ,0.00000005,0.00018817,0.00000035,0.00000041,0.00060290,0.00000094,-0.
 00000118,0.00152209,-0.00000049,0.00000006,-0.00011920,0.00000007,-0.0
 0000019,-0.00007688,-0.00000009,0.00000015,-0.00011715,0.,0.,0.0001253
 2,0.00000002,0.,0.00009072,-0.00000001,0.,-0.00000571,0.,0.,-0.0000744
 4,-0.00000108,0.00000229,-0.00175459,-0.00000010,-0.00000021,0.0012289
 9,0.00000105,-0.00000338,0.01481905,-0.00000112,0.00000174,-0.00590008
 ,0.00000787,-0.00001008,-0.06705688,-0.00000215,-0.00000169,0.00814846
 ,0.00000021,0.00000028,-0.00260791,0.00000241,0.00004443,0.10957128,0.
 00127741,0.00033051,-0.00000028,0.00554559,0.00321709,-0.00000062,0.00
 601134,-0.01251047,0.00000020,-0.00588704,0.00083200,0.00000012,0.0002
 6211,-0.00258507,0.00000013,-0.00038693,0.00157414,0.00000001,0.000079
 54,-0.00007943,-0.00000005,-0.00000107,0.00002576,-0.00000006,-0.00010
 128,-0.00001421,0.,-0.00004868,0.00006123,0.00000009,-0.01079869,0.006
 72666,-0.00000067,-0.00002371,0.00098195,-0.00000034,-0.01356791,-0.01
 216655,-0.00000186,0.05495128,0.00769830,0.00000087,-0.05665011,0.0185
 8701,-0.00000112,-0.14347584,-0.01589307,-0.00000082,-0.00323907,0.004
 50188,0.00000008,-0.29933827,-0.06914509,-0.00000364,0.65034971,0.0002
 1937,0.00095088,-0.00000015,0.00329192,0.00124955,-0.00000011,0.003215
 11,-0.00548231,0.00000051,-0.00347620,0.00063315,0.00000008,0.00008969
 ,-0.00226857,0.00000007,0.00080947,0.00090714,-0.00000003,0.00000364,-
 0.00005116,0.,0.00001435,0.00001327,0.,-0.00001030,-0.00004867,0.,0.00
 001503,0.00003180,0.00000003,-0.00103401,0.00395139,-0.00000074,-0.001
 57434,0.00035874,0.00000015,-0.03260922,-0.00623667,0.00000016,0.05919
 962,-0.05369364,-0.00000368,-0.01062037,0.02686975,-0.00000089,-0.1085
 1962,-0.33733683,-0.00001958,0.00332827,-0.00141330,-0.00000085,0.0034
 6474,-0.12972517,-0.00000615,-0.05709338,0.71840319,-0.00000001,0.0000
 0004,0.00013121,0.00000015,-0.00000005,-0.00037122,-0.00000010,-0.0000
 0010,-0.00098863,-0.00000011,0.00000002,0.00006422,-0.00000002,-0.0000
 0008,0.00009104,0.00000005,0.,0.00001166,0.,0.,-0.00005471,0.,0.,-0.00
 010921,0.,0.,0.00000455,0.,0.,0.00000925,0.00000015,-0.00000045,0.0003
 8210,-0.00000004,0.00000018,0.00052339,-0.00000296,-0.00000064,-0.0016
 3871,0.00000487,-0.00000409,0.00802030,0.00000061,0.00000366,0.0007345
 8,-0.00000793,-0.00002041,-0.05712009,0.00000011,-0.00000040,0.0035567
 4,0.00000027,-0.00000623,-0.05098905,-0.00000488,0.00004405,0.11652565
 ,0.00006981,-0.00011408,0.,-0.00010478,0.00013791,0.,-0.00003496,-0.00
 008167,0.,0.00002899,0.00001148,0.,0.00000527,0.00011039,0.,-0.0001578
 1,-0.00000570,0.,0.00000666,0.00000631,0.,0.00000128,-0.00000402,0.,-0
 .00001017,0.00000817,0.,-0.00000918,0.00000470,0.,-0.00021186,0.000376
 43,0.,0.00005091,0.00000885,0.,-0.00018408,0.00347086,0.00000032,-0.01
 498649,-0.00857214,-0.00000082,0.00053927,0.00044872,0.00000005,-0.328
 41804,-0.07216717,-0.00000716,0.00071299,0.00012032,0.,0.00148122,-0.0
 0140001,-0.00000018,-0.00365491,0.00229916,0.00000011,0.34516993,0.000
 00944,-0.00000022,0.,-0.00005301,-0.00007692,0.,0.00002806,0.00018231,
 -0.00000005,0.00004226,-0.00005243,0.,0.00001318,0.00003545,0.,-0.0000
 0978,-0.00002565,0.,0.00000006,-0.00000197,0.,0.00000028,0.00000094,0.
 ,0.00000283,-0.00000354,0.,0.00000204,-0.00000141,0.,0.00035105,-0.000
 41514,0.,0.00001140,0.00003762,0.,0.00310283,-0.00378693,-0.00000058,0
 .02214921,0.00831559,0.00000055,0.00062980,-0.00084525,0.00000012,-0.0
 7148201,-0.07771640,-0.00000379,-0.00028207,0.00082267,0.00000020,-0.0
 0067493,-0.00531941,-0.00000093,-0.02923875,-0.00026379,-0.00000053,0.
 07635804,0.07708373,0.,0.,-0.00001017,-0.00000004,0.,0.00008500,0.0000
 0003,0.00000006,0.00043756,0.00000003,0.,0.00005717,0.,0.00000002,-0.0
 0005745,-0.00000001,0.,0.00000502,0.,0.,0.00001278,0.,0.,0.00003546,0.
 ,0.,-0.00001669,0.,0.,-0.00000674,-0.00000005,0.,0.00024940,0.,0.,-0.0
 0020942,-0.00000028,-0.00000020,0.00382749,0.00000136,-0.00000002,0.00
 441875,0.00000006,-0.00000037,-0.00154697,-0.00000700,-0.00000382,-0.0
 3397018,0.,0.00000027,-0.00201268,0.00000012,-0.00000054,0.00681943,-0
 .00000192,-0.00000056,0.00621050,0.00000767,0.00000446,0.02150027,-0.0
 0012276,0.00003579,-0.00000001,0.00011973,0.00005803,-0.00000001,-0.00
 009631,0.00007434,0.,0.00003618,0.00000921,0.,-0.00002107,-0.00004071,
 0.,0.00008867,0.00001503,0.,-0.00000042,-0.00000432,0.,-0.00000498,-0.
 00000008,0.,0.00000252,-0.00000112,0.,-0.00000362,-0.00000119,0.,0.000
 24960,-0.00013547,0.,-0.00032385,0.00015316,0.,-0.00368525,0.00315523,
 0.00000013,-0.00015043,0.00032450,0.00000001,0.00989723,0.02147156,0.0
 0000194,-0.00599910,0.00004235,0.,0.00009598,-0.00008332,0.00000001,-0
 .08097298,-0.08096588,-0.00000678,-0.00260621,-0.02914635,-0.00000241,
 -0.00033904,-0.00146936,-0.00000009,0.08051887,0.00002893,0.00006407,0
 .00000004,-0.00009565,-0.00015172,0.00000006,0.00003171,0.00005736,0.0
 0000007,-0.00000019,0.00000083,0.,0.00000473,-0.00004948,0.,0.00007255
 ,-0.00001816,-0.00000001,-0.00000650,0.00000082,0.,0.00000584,0.000003
 89,0.,0.00000836,-0.00000447,0.,0.00001169,-0.00000358,-0.00000001,-0.
 00008731,0.00001780,-0.00000009,0.00029292,-0.00015195,0.00000010,0.00
 387852,-0.00216556,-0.00000021,0.00050852,0.00033701,-0.00000001,-0.01
 296730,-0.01655638,-0.00000167,-0.00088622,0.00146195,-0.00000029,-0.0
 0007376,-0.00008560,-0.00000016,-0.08066211,-0.32119077,-0.00002471,0.
 00246885,-0.00143658,-0.00000069,0.00005403,-0.00020786,0.00000008,0.0
 8754545,0.33743888,0.,-0.00000012,-0.00033702,-0.00000039,-0.00000013,
 -0.00040937,-0.00000040,0.00000057,-0.00030988,0.00000032,-0.00000006,
 0.00002024,-0.00000001,0.00000021,-0.00002885,-0.00000010,-0.00000009,
 0.00009280,0.,0.,-0.00005043,0.,0.,0.00001492,0.,0.,-0.00000137,0.,0.,
 0.00007615,0.00000009,-0.00000092,0.00052723,0.00000026,0.00000008,-0.
 00087051,0.00000023,0.00000066,0.00203519,0.00000059,-0.00000080,0.000
 25803,-0.00000291,-0.00000296,0.00378625,-0.00000011,-0.00000037,0.005
 03616,-0.00000010,-0.00000008,0.00057042,-0.00000641,-0.00002516,-0.03
 051571,0.00000069,0.00000072,0.00410211,0.,0.00000001,-0.00037068,0.00
 000751,0.00002697,0.02007853,0.00004660,-0.00003397,0.,-0.00000598,0.0
 0010745,-0.00000002,0.00012987,-0.00010610,-0.00000006,-0.00005817,0.0
 0000674,0.,0.00001224,0.00001705,0.,-0.00006811,0.00000923,0.,0.000002
 45,0.00000293,0.,0.00000614,-0.00000325,0.,-0.00000612,0.00000232,0.,-
 0.00000393,0.00000381,0.,0.00008103,0.00025040,0.00000006,-0.00007445,
 0.00005588,-0.00000004,-0.00036314,-0.00049180,-0.00000022,0.00083276,
 -0.00224782,-0.00000009,-0.00235865,-0.00438931,-0.00000018,0.00909008
 ,-0.00861451,-0.00000065,0.00034573,-0.00036355,0.00000007,-0.01405242
 ,0.02380112,0.00000171,-0.19436480,0.14488349,0.00001051,0.00070512,0.
 00031735,0.00000002,0.00106167,-0.00029851,-0.00000008,0.20102682,-0.0
 0000167,0.00006997,-0.00000001,0.00013952,0.00007738,-0.00000004,0.000
 17692,-0.00028448,-0.00000004,-0.00015434,0.00003469,0.,0.00000275,-0.
 00012833,0.,0.00007981,0.00004175,0.,-0.00000447,-0.00000479,0.,0.0000
 0316,0.00000347,0.,0.00000447,-0.00000384,0.,0.00000587,-0.00000221,0.
 ,-0.00020688,0.00008979,0.00000003,-0.00009276,-0.00000188,-0.00000001
 ,-0.00060690,0.00026914,-0.00000006,-0.00288546,-0.00421933,-0.0000007
 5,-0.00240292,-0.00014926,-0.00000035,0.02319527,-0.01526097,-0.000001
 32,0.00106423,-0.00104639,-0.00000009,-0.00718585,0.00835951,0.0000004
 8,0.14292525,-0.21009480,-0.00001305,-0.00017825,0.00102333,0.00000044
 ,0.00035133,0.00065198,0.00000022,-0.15406127,0.21977043,-0.00000003,0
 .00000008,0.00000881,0.00000018,0.00000002,0.00009200,0.00000017,-0.00
 000021,0.00020120,-0.00000015,0.00000004,0.00001174,0.,-0.00000014,-0.
 00000507,0.00000010,0.00000005,-0.00000981,0.,0.,0.00001231,0.,0.,0.00
 001600,0.,0.,-0.00000145,0.,0.,-0.00001093,0.00000011,0.00000032,-0.00
 019468,-0.00000013,-0.00000009,-0.00002739,0.00000033,-0.00000024,-0.0
 0056842,-0.00000021,-0.00000050,0.00634450,-0.00000066,-0.00000069,0.0
 0624754,0.00000177,-0.00000096,0.00374335,0.00000007,-0.00000008,0.000
 36792,0.00000038,0.00000045,0.00308617,0.00000959,-0.00001354,-0.03392
 484,0.00000005,0.00000040,-0.00433027,0.00000002,0.00000035,-0.0032316
 6,-0.00001127,0.00001430,0.02354853,-0.00282930,-0.00670250,0.00000007
 ,-0.00185087,0.02171264,-0.00000017,-0.05194510,0.03261736,-0.00000220
 ,0.00520266,-0.00300049,0.00000016,-0.00085446,0.00430368,-0.00000002,
 -0.00515472,-0.00164804,0.00000007,0.00020985,-0.00073620,0.00000004,-
 0.00074001,-0.00004192,-0.00000008,0.00020980,-0.00015000,0.,-0.000667
 65,-0.00015168,0.00000007,-0.34833186,-0.02732574,0.00000432,-0.050660
 86,-0.05401672,0.00000379,-0.15265336,0.06207895,0.00000687,-0.0438846
 7,0.03079741,0.00000156,0.04430125,0.01481927,-0.00000068,-0.00367210,
 -0.01019465,0.00000053,0.00031615,0.00067774,-0.00000171,-0.00551954,-
 0.00218099,-0.00000074,-0.00094177,0.00436016,0.00000077,-0.00053175,0
 .00067263,0.00000010,0.00065636,-0.00101129,0.00000039,0.00010915,-0.0
 0008346,-0.00000049,0.64521595,-0.00023879,-0.00041958,0.00000010,0.02
 110882,-0.01987356,0.00000145,0.01877877,0.01174771,-0.00000128,0.0010
 0376,-0.00647719,0.00000061,-0.00035966,-0.00084187,0.00000016,0.00124
 834,-0.00087864,-0.00000006,0.00009033,-0.00042202,0.00000005,-0.00042
 728,0.00012004,-0.00000006,0.00024440,-0.00050463,-0.00000004,-0.00021
 129,0.00006106,-0.00000004,-0.02124438,-0.12422764,0.00000482,-0.01596
 935,-0.18387554,0.00001116,0.04701790,-0.16929868,-0.00000613,0.023156
 06,0.01159700,0.00000076,0.01939439,-0.04571051,-0.00000263,-0.0045501
 8,0.00223300,-0.00000137,-0.00177732,-0.00004878,0.00000172,-0.0123554
 9,-0.00424367,-0.00000004,0.00705289,-0.00056652,-0.00000010,-0.000780
 35,0.00093624,-0.00000007,0.00087328,-0.00063319,-0.00000065,-0.000033
 76,0.00035188,0.00000046,-0.06655163,0.51621963,0.00000034,0.,0.000794
 01,-0.00000162,0.00000012,-0.00110191,-0.00000053,0.00000044,0.0044416
 9,0.00000024,0.00000018,0.00126092,0.00000009,0.00000022,0.00118140,-0
 .00000013,-0.00000003,0.00076951,0.,0.00000003,-0.00036110,0.00000002,
 -0.00000003,-0.00054710,0.,0.,-0.00040438,0.00000003,-0.00000001,-0.00
 020749,0.00000616,0.00000430,-0.01981160,0.00000275,0.00000856,-0.0167
 6208,-0.00000278,-0.00000064,-0.03260665,0.00000099,0.00000332,0.00756
 990,0.00000372,-0.00000436,0.00365613,0.00000026,-0.00000258,0.0050200
 3,0.00000011,0.00000031,-0.00393343,-0.00000374,-0.00000026,-0.0007095
 4,0.00000326,0.00000022,-0.00037625,-0.00000002,0.00000014,-0.00106745
 ,0.00000005,-0.00000028,0.00240406,0.00000009,0.00000016,-0.00061306,-
 0.00001134,-0.00000970,0.06124213,-0.00063336,0.00135029,0.00000023,-0
 .00066721,-0.00020416,-0.00000025,0.00419064,0.00154792,-0.00000096,-0
 .00008748,0.00008204,0.00000003,0.00001770,-0.00106394,0.00000011,0.00
 172901,0.00008506,-0.00000001,-0.00013647,0.00012025,-0.00000005,0.000
 27183,0.00007263,-0.00000007,0.00007470,-0.00001548,0.,0.00010859,-0.0
 0001674,-0.00000004,0.00286709,0.01606119,0.00000313,-0.00022792,-0.00
 198484,-0.00000018,-0.03582824,-0.05813907,-0.00000267,0.00265528,-0.0
 0491911,-0.00000014,-0.54942536,-0.09364364,-0.00000410,-0.00894073,-0
 .01027494,-0.00000071,-0.00179201,-0.00104944,0.00000010,-0.08976396,0
 .02214302,0.00000118,0.01715011,0.01892963,0.00000097,-0.00018426,-0.0
 0049110,-0.00000004,0.00164094,0.00119235,0.00000054,-0.00223233,-0.00
 004638,0.00000013,-0.02170959,0.00792704,-0.00000013,0.67636422,-0.000
 20393,-0.00014179,-0.00000003,0.00060426,-0.00119847,0.00000029,-0.003
 36863,-0.00077574,0.00000024,0.00014560,-0.00029032,0.00000002,0.00003
 261,0.00024550,-0.00000001,-0.00001980,-0.00027376,0.00000002,0.000021
 04,-0.00012815,0.00000002,0.00007403,0.00002915,0.,0.00006384,-0.00005
 640,-0.00000001,0.00001371,-0.00002658,0.,0.01048493,-0.01425353,-0.00
 000213,0.00008580,0.00154317,-0.00000031,-0.05401340,-0.01650259,0.000
 00056,-0.00000658,-0.01100722,-0.00000185,-0.09214414,-0.10181865,-0.0
 0000090,0.00046482,-0.00152112,0.00000018,-0.00260537,-0.00062501,-0.0
 0000067,0.03127670,0.02191999,-0.00000081,0.00222207,-0.00294169,-0.00
 000120,-0.00012865,0.00033159,0.00000028,-0.00230688,0.00263743,0.0000
 0155,0.00140963,0.00046609,0.00000018,0.00116801,0.00860322,0.00000117
 ,0.10843235,0.12575580,-0.00000013,0.00000003,0.00022556,0.00000039,-0
 .00000030,-0.00014654,-0.00000059,-0.00000021,-0.00007875,-0.00000012,
 0.00000001,0.00005302,-0.00000003,-0.00000011,0.00016286,0.00000011,-0
 .00000002,0.00001227,0.00000001,-0.00000003,-0.00006686,0.,0.,-0.00017
 817,0.,0.,-0.00001082,0.,0.,-0.00006046,0.00000201,-0.00000278,0.00489
 446,-0.00000014,0.00000040,-0.00033453,-0.00000069,-0.00000310,0.02069
 303,-0.00000130,0.00000023,0.00225083,-0.00000509,-0.00000013,-0.05476
 260,0.00000047,-0.00000118,0.00040267,0.00000008,0.00000021,-0.0025690
 8,0.00000123,-0.00000006,0.01469103,0.00000074,0.00000033,0.00462538,0
 .,0.,0.00005132,-0.00000043,0.00000054,-0.00336251,0.00000013,0.000000
 04,-0.00059373,0.00000038,0.00000167,-0.00378039,0.00000440,0.00000393
 ,0.02058293,0.00142763,0.00028430,0.00000003,-0.00219298,0.00608654,-0
 .00000029,0.01610053,0.02192037,-0.00000202,0.00083633,0.00141534,0.00
 000018,-0.00035621,-0.00032885,0.,-0.00045576,0.00005088,0.,-0.0001652
 1,0.00031052,0.,-0.00140105,-0.00064109,-0.00000004,-0.00000102,-0.000
 01183,0.,-0.00006665,-0.00008438,0.00000002,-0.20574273,-0.23216478,0.
 00002273,-0.00382611,-0.00081473,0.00000019,0.00166159,0.00044183,-0.0
 0000062,0.00007379,-0.00012111,0.00000008,-0.00656359,-0.00082776,0.,0
 .00017063,0.00034833,-0.00000014,0.00015994,0.00009388,0.00000024,0.00
 155775,0.00006931,0.00000037,-0.00054081,-0.00003987,-0.00000011,0.000
 05588,0.00001056,0.00000003,-0.00004172,-0.00001558,-0.00000012,0.0001
 3845,-0.00003798,0.00000004,-0.00427355,-0.02339649,0.00000220,0.00455
 878,-0.00170202,-0.00000144,0.19888607,-0.00069837,-0.00064040,0.00000
 007,0.00289062,-0.00241870,0.00000047,-0.01053795,-0.03052232,0.000003
 23,-0.00164225,0.00235366,-0.00000001,-0.00034756,-0.00096411,-0.00000
 008,-0.00005903,0.00066656,-0.00000002,0.00021046,-0.00016287,0.,0.000
 88893,-0.00007183,0.00000004,-0.00012156,0.00015907,0.,0.00001224,0.00
 005972,0.,-0.22077366,-0.38094204,0.00003920,0.00268083,0.00415264,-0.
 00000025,-0.00280803,0.00114424,0.00000107,0.00232397,-0.00081946,-0.0
 0000031,0.00853069,0.00251789,0.00000033,-0.00185435,0.00207185,0.0000
 0055,-0.00032830,-0.00014706,-0.00000065,-0.00137284,-0.00039181,-0.00
 000053,-0.00047956,-0.00180916,0.00000008,0.00001666,-0.00005256,-0.00
 000002,0.00004545,-0.00001672,0.00000033,-0.00022357,-0.00001311,-0.00
 000018,0.00058748,0.00615227,-0.00000128,-0.00609493,-0.00997090,0.000
 00051,0.22915461,0.40966516,0.00000018,0.00000009,0.00055242,0.0000000
 9,0.00000059,0.00342895,0.00000203,0.00000066,0.00502211,-0.00000018,-
 0.00000006,-0.00167447,0.00000010,-0.00000023,-0.00061660,0.00000003,0
 .00000011,-0.00001039,-0.00000003,0.00000001,-0.00006369,-0.00000007,0
 .,0.00035886,0.,-0.00000001,0.00010276,0.,0.,-0.00001275,0.00002257,0.
 00004315,-0.00442515,-0.00000058,-0.00000026,0.00396040,0.00000041,-0.
 00000101,0.00048040,-0.00000128,0.00000080,-0.00054816,0.00000061,0.00
 000107,0.00040301,0.00000044,-0.00000088,0.00055152,0.00000005,0.00000
 007,-0.00076180,-0.00000044,-0.00000021,-0.00096647,0.00000048,-0.0000
 0002,0.00058005,-0.00000002,0.,-0.00011145,0.00000003,-0.00000008,0.00
 048591,0.,0.00000005,-0.00016874,-0.00000171,-0.00000078,-0.00605733,-
 0.00000145,-0.00000051,-0.00270094,-0.00002128,-0.00004255,0.00219157\
 \0.00154691,0.00566158,-0.00000025,0.00785942,0.01162219,-0.00000059,0
 .01458567,-0.00011878,0.00000010,-0.00118511,0.00222226,0.00000017,-0.
 00043037,-0.00437554,0.00000012,0.00164468,0.00177095,-0.00000017,-0.0
 0013341,0.00077961,-0.00000025,0.00044224,0.00001790,0.00000007,0.0000
 4875,0.00014074,0.00000002,0.00013231,0.00021358,-0.00000011,-0.019839
 04,0.01383444,0.00000125,0.00501143,0.01406641,-0.00000073,-0.01171755
 ,0.00744743,0.00000328,0.01186725,-0.00151133,0.00000037,0.02064170,0.
 00445543,-0.00000316,-0.00422732,0.01027401,-0.00000008,0.00033988,-0.
 00012139,0.00000025,-0.00544056,0.00035535,0.00000079,-0.00818080,-0.0
 0202985,0.00000012,-0.00027443,-0.00015318,-0.00000005,-0.00058008,-0.
 00005103,-0.00000006,-0.00088922,-0.00038248,0.00000006,-0.01199973,-0
 .00778979,-0.00000260,-0.01137410,-0.01594712,0.00000057,0.01215146,-0
 .04038140,0.00000087\\\@
 The archive entry for this job was punched.


 ALL MEN WHO EXPLORE
 DEPLORE
 THAT FRUSTRATING HURDLE
 THE GIRDLE.

         -- COLIN FLETCHER
 Job cpu time:       0 days  2 hours 49 minutes 28.2 seconds.
 Elapsed time:       0 days  0 hours 17 minutes 28.3 seconds.
 File lengths (MBytes):  RWF=   1376 Int=      0 D2E=      0 Chk=     48 Scr=      8
 Normal termination of Gaussian 16 at Tue Jul 14 12:08:27 2020.
