 Entering Gaussian System, Link 0=g16
 Initial command:
 /gpfs/loomis/apps/avx/software/Gaussian/16-C.01_AVX/g16/l1.exe "/home/fas/batista/pev4/scratch60/gauss-scratch/Gau-141483.inp" -scrdir="/home/fas/batista/pev4/scratch60/gauss-scratch/"
 Entering Link 1 = /gpfs/loomis/apps/avx/software/Gaussian/16-C.01_AVX/g16/l1.exe PID=    141484.
  
 Copyright (c) 1988-2019, Gaussian, Inc.  All Rights Reserved.
  
 This is part of the Gaussian(R) 16 program.  It is based on
 the Gaussian(R) 09 system (copyright 2009, Gaussian, Inc.),
 the Gaussian(R) 03 system (copyright 2003, Gaussian, Inc.),
 the Gaussian(R) 98 system (copyright 1998, Gaussian, Inc.),
 the Gaussian(R) 94 system (copyright 1995, Gaussian, Inc.),
 the Gaussian 92(TM) system (copyright 1992, Gaussian, Inc.),
 the Gaussian 90(TM) system (copyright 1990, Gaussian, Inc.),
 the Gaussian 88(TM) system (copyright 1988, Gaussian, Inc.),
 the Gaussian 86(TM) system (copyright 1986, Carnegie Mellon
 University), and the Gaussian 82(TM) system (copyright 1983,
 Carnegie Mellon University). Gaussian is a federally registered
 trademark of Gaussian, Inc.
  
 This software contains proprietary and confidential information,
 including trade secrets, belonging to Gaussian, Inc.
  
 This software is provided under written license and may be
 used, copied, transmitted, or stored only in accord with that
 written license.
  
 The following legend is applicable only to US Government
 contracts under FAR:
  
                    RESTRICTED RIGHTS LEGEND
  
 Use, reproduction and disclosure by the US Government is
 subject to restrictions as set forth in subparagraphs (a)
 and (c) of the Commercial Computer Software - Restricted
 Rights clause in FAR 52.227-19.
  
 Gaussian, Inc.
 340 Quinnipiac St., Bldg. 40, Wallingford CT 06492
  
  
 ---------------------------------------------------------------
 Warning -- This program may not be used in any manner that
 competes with the business of Gaussian, Inc. or will provide
 assistance to any competitor of Gaussian, Inc.  The licensee
 of this program is prohibited from giving any competitor of
 Gaussian, Inc. access to this program.  By using this program,
 the user acknowledges that Gaussian, Inc. is engaged in the
 business of creating and licensing software in the field of
 computational chemistry and represents and warrants to the
 licensee that it is not a competitor of Gaussian, Inc. and that
 it will not use this program in any manner prohibited above.
 ---------------------------------------------------------------
  

 Cite this work as:
 Gaussian 16, Revision C.01,
 M. J. Frisch, G. W. Trucks, H. B. Schlegel, G. E. Scuseria, 
 M. A. Robb, J. R. Cheeseman, G. Scalmani, V. Barone, 
 G. A. Petersson, H. Nakatsuji, X. Li, M. Caricato, A. V. Marenich, 
 J. Bloino, B. G. Janesko, R. Gomperts, B. Mennucci, H. P. Hratchian, 
 J. V. Ortiz, A. F. Izmaylov, J. L. Sonnenberg, D. Williams-Young, 
 F. Ding, F. Lipparini, F. Egidi, J. Goings, B. Peng, A. Petrone, 
 T. Henderson, D. Ranasinghe, V. G. Zakrzewski, J. Gao, N. Rega, 
 G. Zheng, W. Liang, M. Hada, M. Ehara, K. Toyota, R. Fukuda, 
 J. Hasegawa, M. Ishida, T. Nakajima, Y. Honda, O. Kitao, H. Nakai, 
 T. Vreven, K. Throssell, J. A. Montgomery, Jr., J. E. Peralta, 
 F. Ogliaro, M. J. Bearpark, J. J. Heyd, E. N. Brothers, K. N. Kudin, 
 V. N. Staroverov, T. A. Keith, R. Kobayashi, J. Normand, 
 K. Raghavachari, A. P. Rendell, J. C. Burant, S. S. Iyengar, 
 J. Tomasi, M. Cossi, J. M. Millam, M. Klene, C. Adamo, R. Cammi, 
 J. W. Ochterski, R. L. Martin, K. Morokuma, O. Farkas, 
 J. B. Foresman, and D. J. Fox, Gaussian, Inc., Wallingford CT, 2019.
 
 ******************************************
 Gaussian 16:  ES64L-G16RevC.01  3-Jul-2019
                14-Jul-2020 
 ******************************************
 %chk=config_12_8_fixed.chk
 %mem=58GB
 %nprocshared=10
 Will use up to   10 processors via shared memory.
 ----------------------------------------------------------------------
 #p opt=addgic freq td wb97xd/cc-pvdz nosymm int=ultrafine scrf=(solven
 t=CarbonTetraChloride)
 ----------------------------------------------------------------------
 1/18=20,19=15,26=6,38=1,145=903/1,3;
 2/9=110,12=2,15=1,17=6,18=5,40=1/2;
 3/5=16,11=9,25=1,30=1,70=2201,71=1,72=11,74=-58,75=-5/1,2,3,8;
 4//1;
 5/5=2,38=5,53=11/2;
 8/6=1,10=1/1;
 9/15=2,42=1,70=2/14;
 10/5=4,31=1/2;
 6/7=2,8=2,9=2,10=2/1;
 7/12=6,13=5,30=1/1,2,3,16;
 1/18=20,19=15,26=6,145=903/3(2);
 2/9=110,15=1/2;
 99//99;
 2/9=110,15=1/2;
 3/5=16,11=9,25=1,30=1,70=2205,71=1,72=11,74=-58,75=-5/1,2,3,8;
 4/5=5,16=3,69=1/1;
 5/5=2,38=5,53=11/2;
 8/6=1,10=1/1;
 9/15=2,42=1,49=4,70=2/14;
 10/5=4,31=1/2;
 7/12=6,13=5,30=1/1,2,3,16;
 1/18=20,19=15,26=6,145=903/3(-8);
 2/9=110,15=1/2;
 6/7=2,8=2,9=2,10=2/1;
 99/9=10/99;
 Leave Link    1 at Tue Jul 14 10:57:22 2020, MaxMem=  7784628224 cpu:               5.0 elap:               0.6
 (Enter /gpfs/loomis/apps/avx/software/Gaussian/16-C.01_AVX/g16/l101.exe)
 ------------------------------------------------
 NM 2D-scan of HBT TD-WB97XD pVDZ in CTC Relaxed.
 ------------------------------------------------
 Symbolic Z-matrix:
 Charge =  0 Multiplicity = 1
 C                     1.66431  -3.25675  -0.00002 
 C                     1.01074  -2.02426  -0.00002 
 C                     1.73367  -0.80731  -0.00002 
 C                     3.12334  -0.82646  -0.00002 
 C                     3.7723   -2.06001  -0.00002 
 C                     3.05873  -3.2619   -0.00002 
 H                     1.09833  -4.18919  -0.00002 
 H                     3.68589   0.10747  -0.00002 
 H                     4.86308  -2.08142  -0.00002 
 H                     3.59373  -4.21206  -0.00002 
 N                     0.90033   0.30595  -0.00002 
 S                    -0.72783  -1.73469  -0.00002 
 C                    -1.39183   1.0374    0. 
 C                    -2.74983   0.82296   0. 
 C                    -0.85478   2.42948   0.00003 
 C                    -3.65304   1.92681   0.00003 
 H                    -3.15847  -0.19091  -0.00002 
 C                    -1.81606   3.49105   0.00005 
 C                    -3.18978   3.2387    0.00005 
 H                    -4.72498   1.72338   0.00002 
 H                    -1.41041   4.50388   0.00008 
 H                    -3.89933   4.06641   0.00007 
 C                    -0.42032  -0.01494  -0.00002 
 O                     0.37797   2.63597   0.00004 
 H                     1.11097   0.9452   -0.00001 
 
 Initializing the GIC definitions file.
 Number of initial coordinates =   134
 Number of input entries/lines =    53
 Number of additional coordinates =     2
 Number of removed coordinates =     0
 Number of frozen coordinates =     3
 Number of final active and frozen coordinates =   136
 ITRead=  0  0  0  0  0  0  0  0  0  0  0  0  0  0  0  0  0  0  0  0
 ITRead=  0  0  0  0  0
 MicOpt= -1 -1 -1 -1 -1 -1 -1 -1 -1 -1 -1 -1 -1 -1 -1 -1 -1 -1 -1 -1
 MicOpt= -1 -1 -1 -1 -1
 NAtoms=     25 NQM=       25 NQMF=       0 NMMI=      0 NMMIF=      0
                NMic=       0 NMicF=      0.
                    Isotopes and Nuclear Properties:
 (Nuclear quadrupole moments (NQMom) in fm**2, nuclear magnetic moments (NMagM)
  in nuclear magnetons)

  Atom         1           2           3           4           5           6           7           8           9          10
 IAtWgt=          12          12          12          12          12          12           1           1           1           1
 AtmWgt=  12.0000000  12.0000000  12.0000000  12.0000000  12.0000000  12.0000000   1.0078250   1.0078250   1.0078250   1.0078250
 NucSpn=           0           0           0           0           0           0           1           1           1           1
 AtZEff=  -0.0000000  -0.0000000  -0.0000000  -0.0000000  -0.0000000  -0.0000000  -0.0000000  -0.0000000  -0.0000000  -0.0000000
 NQMom=    0.0000000   0.0000000   0.0000000   0.0000000   0.0000000   0.0000000   0.0000000   0.0000000   0.0000000   0.0000000
 NMagM=    0.0000000   0.0000000   0.0000000   0.0000000   0.0000000   0.0000000   2.7928460   2.7928460   2.7928460   2.7928460
 AtZNuc=   6.0000000   6.0000000   6.0000000   6.0000000   6.0000000   6.0000000   1.0000000   1.0000000   1.0000000   1.0000000

  Atom        11          12          13          14          15          16          17          18          19          20
 IAtWgt=          14          32          12          12          12          12           1          12          12           1
 AtmWgt=  14.0030740  31.9720718  12.0000000  12.0000000  12.0000000  12.0000000   1.0078250  12.0000000  12.0000000   1.0078250
 NucSpn=           2           0           0           0           0           0           1           0           0           1
 AtZEff=  -0.0000000  -0.0000000  -0.0000000  -0.0000000  -0.0000000  -0.0000000  -0.0000000  -0.0000000  -0.0000000  -0.0000000
 NQMom=    2.0440000   0.0000000   0.0000000   0.0000000   0.0000000   0.0000000   0.0000000   0.0000000   0.0000000   0.0000000
 NMagM=    0.4037610   0.0000000   0.0000000   0.0000000   0.0000000   0.0000000   2.7928460   0.0000000   0.0000000   2.7928460
 AtZNuc=   7.0000000  16.0000000   6.0000000   6.0000000   6.0000000   6.0000000   1.0000000   6.0000000   6.0000000   1.0000000

  Atom        21          22          23          24          25
 IAtWgt=           1           1          12          16           1
 AtmWgt=   1.0078250   1.0078250  12.0000000  15.9949146   1.0078250
 NucSpn=           1           1           0           0           1
 AtZEff=  -0.0000000  -0.0000000  -0.0000000  -0.0000000  -0.0000000
 NQMom=    0.0000000   0.0000000   0.0000000   0.0000000   0.0000000
 NMagM=    2.7928460   2.7928460   0.0000000   0.0000000   2.7928460
 AtZNuc=   1.0000000   1.0000000   6.0000000   8.0000000   1.0000000
 Leave Link  101 at Tue Jul 14 10:57:25 2020, MaxMem=  7784628224 cpu:              31.7 elap:               3.2
 (Enter /gpfs/loomis/apps/avx/software/Gaussian/16-C.01_AVX/g16/l103.exe)

 GradGradGradGradGradGradGradGradGradGradGradGradGradGradGradGradGradGrad
 Berny optimization.
 Initialization pass.
                           ----------------------------
                           !    Initial Parameters    !
                           ! (Angstroms and Degrees)  !
 --------------------------                            --------------------------
 ! Name  Definition              Value          Derivative Info.                !
 --------------------------------------------------------------------------------
 ! R1    R(1,2)                  1.3951         estimate D2E/DX2                !
 ! R2    R(1,6)                  1.3944         estimate D2E/DX2                !
 ! R3    R(1,7)                  1.0908         estimate D2E/DX2                !
 ! R4    R(2,3)                  1.4155         estimate D2E/DX2                !
 ! R5    R(2,12)                 1.7625         estimate D2E/DX2                !
 ! R6    R(3,4)                  1.3898         estimate D2E/DX2                !
 ! R7    R(3,11)                 1.3906         estimate D2E/DX2                !
 ! R8    R(4,5)                  1.3938         estimate D2E/DX2                !
 ! R9    R(4,8)                  1.0903         estimate D2E/DX2                !
 ! R10   R(5,6)                  1.3978         estimate D2E/DX2                !
 ! R11   R(5,9)                  1.091          estimate D2E/DX2                !
 ! R12   R(6,10)                 1.0904         estimate D2E/DX2                !
 ! R13   R(11,23)                1.3591         estimate D2E/DX2                !
 ! R14   R(11,25)                0.6731         estimate D2E/DX2                !
 ! R15   R(12,23)                1.747          estimate D2E/DX2                !
 ! R16   R(13,14)                1.3748         estimate D2E/DX2                !
 ! R17   R(13,15)                1.4921         estimate D2E/DX2                !
 ! R18   R(13,23)                1.4322         estimate D2E/DX2                !
 ! R19   R(14,16)                1.4263         estimate D2E/DX2                !
 ! R20   R(14,17)                1.0931         estimate D2E/DX2                !
 ! R21   R(15,18)                1.4321         estimate D2E/DX2                !
 ! R22   R(15,24)                1.2499         estimate D2E/DX2                !
 ! R23   R(16,19)                1.3913         estimate D2E/DX2                !
 ! R24   R(16,20)                1.0911         estimate D2E/DX2                !
 ! R25   R(18,19)                1.3967         estimate D2E/DX2                !
 ! R26   R(18,21)                1.091          estimate D2E/DX2                !
 ! R27   R(19,22)                1.0902         estimate D2E/DX2                !
 ! A1    A(2,1,6)              118.1476         estimate D2E/DX2                !
 ! A2    A(2,1,7)              120.8068         estimate D2E/DX2                !
 ! A3    A(6,1,7)              121.0456         estimate D2E/DX2                !
 ! A4    A(1,2,3)              121.3513         estimate D2E/DX2                !
 ! A5    A(1,2,12)             127.3927         estimate D2E/DX2                !
 ! A6    A(3,2,12)             111.256          estimate D2E/DX2                !
 ! A7    A(2,3,4)              119.9228         estimate D2E/DX2                !
 ! A8    A(2,3,11)             112.4706         estimate D2E/DX2                !
 ! A9    A(4,3,11)             127.6066         estimate D2E/DX2                !
 ! A10   A(3,4,5)              118.5381         estimate D2E/DX2                !
 ! A11   A(3,4,8)              120.273          estimate D2E/DX2                !
 ! A12   A(5,4,8)              121.1889         estimate D2E/DX2                !
 ! A13   A(4,5,6)              121.5538         estimate D2E/DX2                !
 ! A14   A(4,5,9)              118.873          estimate D2E/DX2                !
 ! A15   A(6,5,9)              119.5732         estimate D2E/DX2                !
 ! A16   A(1,6,5)              120.4864         estimate D2E/DX2                !
 ! A17   A(1,6,10)             119.5935         estimate D2E/DX2                !
 ! A18   A(5,6,10)             119.9201         estimate D2E/DX2                !
 ! A19   A(3,11,23)            113.1596         estimate D2E/DX2                !
 ! A20   A(3,11,25)            124.9453         estimate D2E/DX2                !
 ! A21   A(23,11,25)           121.8951         estimate D2E/DX2                !
 ! A22   A(2,12,23)             89.3184         estimate D2E/DX2                !
 ! A23   A(14,13,15)           120.0694         estimate D2E/DX2                !
 ! A24   A(14,13,23)           123.7393         estimate D2E/DX2                !
 ! A25   A(15,13,23)           116.1913         estimate D2E/DX2                !
 ! A26   A(13,14,16)           120.3177         estimate D2E/DX2                !
 ! A27   A(13,14,17)           120.9253         estimate D2E/DX2                !
 ! A28   A(16,14,17)           118.757          estimate D2E/DX2                !
 ! A29   A(13,15,18)           116.7421         estimate D2E/DX2                !
 ! A30   A(13,15,24)           120.6047         estimate D2E/DX2                !
 ! A31   A(18,15,24)           122.6532         estimate D2E/DX2                !
 ! A32   A(14,16,19)           121.2595         estimate D2E/DX2                !
 ! A33   A(14,16,20)           118.5457         estimate D2E/DX2                !
 ! A34   A(19,16,20)           120.1948         estimate D2E/DX2                !
 ! A35   A(15,18,19)           121.7527         estimate D2E/DX2                !
 ! A36   A(15,18,21)           116.0111         estimate D2E/DX2                !
 ! A37   A(19,18,21)           122.2362         estimate D2E/DX2                !
 ! A38   A(16,19,18)           119.8587         estimate D2E/DX2                !
 ! A39   A(16,19,22)           119.9461         estimate D2E/DX2                !
 ! A40   A(18,19,22)           120.1952         estimate D2E/DX2                !
 ! A41   A(11,23,12)           113.7953         estimate D2E/DX2                !
 ! A42   A(11,23,13)           119.0554         estimate D2E/DX2                !
 ! A43   A(12,23,13)           127.1493         estimate D2E/DX2                !
 ! D1    D(6,1,2,3)              0.0            estimate D2E/DX2                !
 ! D2    D(6,1,2,12)          -180.0            estimate D2E/DX2                !
 ! D3    D(7,1,2,3)            179.9999         estimate D2E/DX2                !
 ! D4    D(7,1,2,12)             0.0            estimate D2E/DX2                !
 ! D5    D(2,1,6,5)             -0.0001         estimate D2E/DX2                !
 ! D6    D(2,1,6,10)           180.0            estimate D2E/DX2                !
 ! D7    D(7,1,6,5)           -180.0            estimate D2E/DX2                !
 ! D8    D(7,1,6,10)             0.0            estimate D2E/DX2                !
 ! D9    D(1,2,3,4)              0.0001         estimate D2E/DX2                !
 ! D10   D(1,2,3,11)           180.0            estimate D2E/DX2                !
 ! D11   D(12,2,3,4)          -180.0            estimate D2E/DX2                !
 ! D12   D(12,2,3,11)           -0.0001         estimate D2E/DX2                !
 ! D13   D(1,2,12,23)          179.9999         estimate D2E/DX2                !
 ! D14   D(3,2,12,23)           -0.0001         estimate D2E/DX2                !
 ! D15   D(2,3,4,5)             -0.0001         estimate D2E/DX2                !
 ! D16   D(2,3,4,8)            179.9999         estimate D2E/DX2                !
 ! D17   D(11,3,4,5)          -180.0            estimate D2E/DX2                !
 ! D18   D(11,3,4,8)             0.0001         estimate D2E/DX2                !
 ! D19   D(2,3,11,23)            0.0003         estimate D2E/DX2                !
 ! D20   D(2,3,11,25)          179.9986         estimate D2E/DX2                !
 ! D21   D(4,3,11,23)         -179.9999         estimate D2E/DX2                !
 ! D22   D(4,3,11,25)           -0.0015         estimate D2E/DX2                !
 ! D23   D(3,4,5,6)              0.0            estimate D2E/DX2                !
 ! D24   D(3,4,5,9)           -180.0            estimate D2E/DX2                !
 ! D25   D(8,4,5,6)           -180.0            estimate D2E/DX2                !
 ! D26   D(8,4,5,9)              0.0            estimate D2E/DX2                !
 ! D27   D(4,5,6,1)              0.0            estimate D2E/DX2                !
 ! D28   D(4,5,6,10)          -180.0            estimate D2E/DX2                !
 ! D29   D(9,5,6,1)           -180.0            estimate D2E/DX2                !
 ! D30   D(9,5,6,10)             0.0            estimate D2E/DX2                !
 ! D31   D(3,11,23,12)          -0.0003         estimate D2E/DX2                !
 ! D32   D(3,11,23,13)         179.999          estimate D2E/DX2                !
 ! D33   D(25,11,23,12)       -179.9987         estimate D2E/DX2                !
 ! D34   D(25,11,23,13)          0.0006         estimate D2E/DX2                !
 ! D35   D(2,12,23,11)           0.0002         estimate D2E/DX2                !
 ! D36   D(2,12,23,13)        -179.9991         estimate D2E/DX2                !
 ! D37   D(15,13,14,16)          0.0            estimate D2E/DX2                !
 ! D38   D(15,13,14,17)        179.9999         estimate D2E/DX2                !
 ! D39   D(23,13,14,16)        179.9999         estimate D2E/DX2                !
 ! D40   D(23,13,14,17)         -0.0001         estimate D2E/DX2                !
 ! D41   D(14,13,15,18)         -0.0001         estimate D2E/DX2                !
 ! D42   D(14,13,15,24)        179.9998         estimate D2E/DX2                !
 ! D43   D(23,13,15,18)        180.0            estimate D2E/DX2                !
 ! D44   D(23,13,15,24)         -0.0001         estimate D2E/DX2                !
 ! D45   D(14,13,23,11)        179.9995         estimate D2E/DX2                !
 ! D46   D(14,13,23,12)         -0.0012         estimate D2E/DX2                !
 ! Atot  D(15,13,23,11)         -0.0006         Frozen                          !
 ! D48   D(15,13,23,12)        179.9987         estimate D2E/DX2                !
 ! D49   D(13,14,16,19)          0.0            estimate D2E/DX2                !
 ! D50   D(13,14,16,20)       -180.0            estimate D2E/DX2                !
 ! D51   D(17,14,16,19)       -179.9999         estimate D2E/DX2                !
 ! D52   D(17,14,16,20)          0.0001         estimate D2E/DX2                !
 ! D53   D(13,15,18,19)          0.0002         estimate D2E/DX2                !
 ! D54   D(13,15,18,21)        179.9998         estimate D2E/DX2                !
 ! D55   D(24,15,18,19)       -179.9997         estimate D2E/DX2                !
 ! D56   D(24,15,18,21)          0.0            estimate D2E/DX2                !
 ! D57   D(14,16,19,18)          0.0            estimate D2E/DX2                !
 ! D58   D(14,16,19,22)       -179.9999         estimate D2E/DX2                !
 ! D59   D(20,16,19,18)       -180.0            estimate D2E/DX2                !
 ! D60   D(20,16,19,22)          0.0            estimate D2E/DX2                !
 ! D61   D(15,18,19,16)         -0.0001         estimate D2E/DX2                !
 ! D62   D(15,18,19,22)        179.9999         estimate D2E/DX2                !
 ! D63   D(21,18,19,16)       -179.9998         estimate D2E/DX2                !
 ! D64   D(21,18,19,22)          0.0002         estimate D2E/DX2                !
 ! Qtot  GIC-1                  60.0            Frozen                          !
 ! Ptot  GIC-2                   0.0            Frozen                          !
 --------------------------------------------------------------------------------
 NOTE: GIC-type coordinates are in arbitrary units.
 Trust Radius=3.00D-01 FncErr=5.00D-06 GrdErr=5.00D-06 EigMax=2.50D+02 EigMin=1.00D-04
 Number of steps in this run=    146 maximum allowed number of steps=    150.
 GradGradGradGradGradGradGradGradGradGradGradGradGradGradGradGradGradGrad

 Leave Link  103 at Tue Jul 14 10:57:25 2020, MaxMem=  7784628224 cpu:               0.3 elap:               0.1
 (Enter /gpfs/loomis/apps/avx/software/Gaussian/16-C.01_AVX/g16/l202.exe)
                          Input orientation:                          
 ---------------------------------------------------------------------
 Center     Atomic      Atomic             Coordinates (Angstroms)
 Number     Number       Type             X           Y           Z
 ---------------------------------------------------------------------
      1          6           0        1.664307   -3.256755   -0.000022
      2          6           0        1.010738   -2.024263   -0.000022
      3          6           0        1.733670   -0.807309   -0.000021
      4          6           0        3.123338   -0.826463   -0.000023
      5          6           0        3.772295   -2.060009   -0.000023
      6          6           0        3.058729   -3.261899   -0.000022
      7          1           0        1.098335   -4.189193   -0.000020
      8          1           0        3.685889    0.107465   -0.000024
      9          1           0        4.863084   -2.081421   -0.000023
     10          1           0        3.593726   -4.212059   -0.000021
     11          7           0        0.900330    0.305953   -0.000022
     12         16           0       -0.727828   -1.734685   -0.000021
     13          6           0       -1.391826    1.037399    0.000005
     14          6           0       -2.749834    0.822957    0.000002
     15          6           0       -0.854778    2.429485    0.000033
     16          6           0       -3.653041    1.926809    0.000026
     17          1           0       -3.158473   -0.190909   -0.000020
     18          6           0       -1.816062    3.491050    0.000054
     19          6           0       -3.189780    3.238696    0.000052
     20          1           0       -4.724984    1.723383    0.000024
     21          1           0       -1.410408    4.503880    0.000077
     22          1           0       -3.899325    4.066406    0.000071
     23          6           0       -0.420319   -0.014944   -0.000017
     24          8           0        0.377974    2.635971    0.000039
     25          1           0        1.110972    0.945204   -0.000008
 ---------------------------------------------------------------------
                    Distance matrix (angstroms):
                    1          2          3          4          5
     1  C    0.000000
     2  C    1.395059   0.000000
     3  C    2.450427   1.415488   0.000000
     4  C    2.834624   2.428540   1.389800   0.000000
     5  C    2.424008   2.761789   2.392749   1.393837   0.000000
     6  C    1.394431   2.392909   2.789407   2.436293   1.397754
     7  H    1.090764   2.166702   3.441045   3.925378   3.418112
     8  H    3.924891   3.420629   2.155916   1.090269   2.169196
     9  H    3.407871   3.852770   3.378845   2.145143   1.090999
    10  H    2.152967   3.385009   3.879707   3.418117   2.159446
    11  N    3.643700   2.332830   1.390615   2.494820   3.721016
    12  S    2.835314   1.762517   2.630399   3.956810   4.511867
    13  C    5.270646   3.891798   3.629281   4.884741   6.021801
    14  C    6.010715   4.716838   4.770700   6.100388   7.130895
    15  C    6.219253   4.828666   4.144502   5.140681   6.447120
    16  C    7.425868   6.112430   6.040866   7.314357   8.427950
    17  H    5.714771   4.554503   4.930822   6.313880   7.178376
    18  C    7.592486   6.197538   5.574630   6.560381   7.876801
    19  C    8.108825   6.733727   6.372639   7.508727   8.749101
    20  H    8.100915   6.851522   6.936759   8.252144   9.301495
    21  H    8.347534   6.962657   6.172030   6.997671   8.363315
    22  H    9.196885   7.823360   7.448741   8.559087   9.817674
    23  C    3.854219   2.466837   2.295106   3.635391   4.664794
    24  O    6.031490   4.702995   3.700553   4.418763   5.794277
    25  H    4.238235   2.971157   1.859853   2.681122   4.014217
                    6          7          8          9         10
     6  C    0.000000
     7  H    2.168645   0.000000
     8  H    3.427236   5.015647   0.000000
     9  H    2.156206   4.314630   2.485359   0.000000
    10  H    1.090425   2.495496   4.320507   2.480098   0.000000
    11  N    4.169923   4.499505   2.792622   4.626335   5.259926
    12  S    4.082939   3.059327   4.782721   5.601653   4.981286
    13  C    6.188005   5.789488   5.162168   6.989345   7.239651
    14  C    7.101088   6.319023   6.475374   8.148125   8.098898
    15  C    6.907053   6.900837   5.099944   7.283009   7.993703
    16  C    8.483546   7.744744   7.561079   9.412242   9.497438
    17  H    6.934304   5.840093   6.850863   8.241323   7.858870
    18  C    8.328620   8.214612   6.459111   8.698473   9.412954
    19  C    9.016740   8.576798   7.555094   9.651542  10.076195
    20  H    9.243335   8.298772   8.564694  10.315405  10.219120
    21  H    8.959939   9.047834   6.730580   9.095212  10.050320
    22  H   10.105374   9.650468   8.556208  10.703999  11.165966
    23  C    4.758833   4.441921   4.108032   5.673153   5.807610
    24  O    6.478527   6.863074   4.163610   6.509224   7.565486
    25  H    4.636105   5.134412   2.707767   4.820664   5.723759
                   11         12         13         14         15
    11  N    0.000000
    12  S    2.610575   0.000000
    13  C    2.406033   2.850499   0.000000
    14  C    3.686597   3.260375   1.374835   0.000000
    15  C    2.754957   4.166105   1.492087   2.484386   0.000000
    16  C    4.833256   4.686514   2.429844   1.426279   2.843055
    17  H    4.089102   2.879458   2.151693   1.093119   3.489051
    18  C    4.186124   5.337843   2.490056   2.826774   1.432127
    19  C    5.032890   5.549390   2.842243   2.455473   2.471247
    20  H    5.801144   5.285404   3.403016   2.170711   3.934092
    21  H    4.791878   6.275795   3.466530   3.917047   2.147519
    22  H    6.097352   6.611434   3.932230   3.441118   3.456701
    23  C    1.359076   1.747018   1.432220   2.475625   2.482738
    24  O    2.387852   4.508373   2.384874   3.615274   1.249925
    25  H    0.673061   3.250075   2.504496   3.862742   2.463182
                   16         17         18         19         20
    16  C    0.000000
    17  H    2.174702   0.000000
    18  C    2.412746   3.919042   0.000000
    19  C    1.391280   3.429748   1.396704   0.000000
    20  H    1.091075   2.473555   3.403891   2.157087   0.000000
    21  H    3.416241   5.009668   1.091045   2.183313   4.326382
    22  H    2.153725   4.321296   2.161254   1.090210   2.484244
    23  C    3.771061   2.743802   3.773605   4.272715   4.642405
    24  O    4.092920   4.527439   2.354773   3.618307   5.183917
    25  H    4.864090   4.418022   3.879287   4.874072   5.887610
                   21         22         23         24         25
    21  H    0.000000
    22  H    2.527072   0.000000
    23  C    4.626018   5.362920   0.000000
    24  O    2.585999   4.510148   2.768505   0.000000
    25  H    4.361368   5.902964   1.807411   1.842819   0.000000
 Symmetry turned off by external request.
 Stoichiometry    C13H9NOS
 Framework group  C1[X(C13H9NOS)]
 Deg. of freedom    69
 Full point group                 C1      NOp   1
 Rotational constants (GHZ):           1.3927075           0.2858187           0.2371496
 Leave Link  202 at Tue Jul 14 10:57:26 2020, MaxMem=  7784628224 cpu:               0.4 elap:               0.1
 (Enter /gpfs/loomis/apps/avx/software/Gaussian/16-C.01_AVX/g16/l301.exe)
 Standard basis: CC-pVDZ (5D, 7F)
 Ernie: Thresh=  0.10000D-02 Tol=  0.10000D-05 Strict=F.
 Ernie:  40 primitive shells out of 425 were deleted.
   273 basis functions,   629 primitive gaussians,   289 cartesian basis functions
    59 alpha electrons       59 beta electrons
       nuclear repulsion energy      1101.7782766227 Hartrees.
 IExCor= 4639 DFT=T Ex+Corr=wB97XD ExCW=0 ScaHFX=  1.000000
 ScaDFX=  1.000000  1.000000  1.000000  1.000000 ScalE2=  1.000000  1.000000
 IRadAn=      5 IRanWt=     -1 IRanGd=            0 ICorTp=0 IEmpDi=121
 HFx  wShort=  0.000000 wLong=  0.200000 cFull=  0.222036 cShort=  0.000000 cLong=  0.777964
 DFx  wShort=  0.000000 wLong=  0.200000 cFull=  0.000000 cShort=  0.000000 cLong=  1.000000
 NAtoms=   25 NActive=   25 NUniq=   25 SFac= 1.00D+00 NAtFMM=   60 NAOKFM=F Big=F
 Integral buffers will be    131072 words long.
 Raffenetti 1 integral format.
 Two-electron integral symmetry is turned off.
 R6Disp:  Grimme-D2 Dispersion energy=       -0.0141464095 Hartrees.
 Nuclear repulsion after empirical dispersion term =     1101.7641302132 Hartrees.
 ------------------------------------------------------------------------------
 Polarizable Continuum Model (PCM)
 =================================
 Model                : PCM.
 Atomic radii         : UFF (Universal Force Field).
 Polarization charges : Total charges.
 Charge compensation  : None.
 Solution method      : On-the-fly selection.
 Cavity type          : Scaled VdW (van der Waals Surface) (Alpha=1.100).
 Cavity algorithm     : GePol (No added spheres)
                        Default sphere list used, NSphG=   25.
                        Lebedev-Laikov grids with approx.  5.0 points / Ang**2.
                        Smoothing algorithm: York/Karplus (Gamma=1.0000).
                        Polarization charges: spherical gaussians, with
                                              point-specific exponents (IZeta= 3).
                        Self-potential: point-specific (ISelfS= 7).
                        Self-field    : sphere-specific E.n sum rule (ISelfD= 2).
 1st derivatives      : Analytical E(r).r(x)/FMM algorithm (CHGder, D1EAlg=3).
                        Cavity 1st derivative terms included.
 Solvent              : CarbonTetraChloride, Eps=   2.228000 Eps(inf)=   2.131892
 ------------------------------------------------------------------------------
 GePol: Number of generator spheres                  =      25
 GePol: Total number of spheres                      =      25
 GePol: Number of exposed spheres                    =      25 (100.00%)
 GePol: Number of points                             =    2187
 GePol: Average weight of points                     =       0.13
 GePol: Minimum weight of points                     =   0.93D-08
 GePol: Maximum weight of points                     =    0.20577
 GePol: Number of points with low weight             =     134
 GePol: Fraction of low-weight points (<1% of avg)   =       6.13%
 GePol: Cavity surface area                          =    273.572 Ang**2
 GePol: Cavity volume                                =    292.579 Ang**3
 Leave Link  301 at Tue Jul 14 10:57:26 2020, MaxMem=  7784628224 cpu:               2.5 elap:               0.3
 (Enter /gpfs/loomis/apps/avx/software/Gaussian/16-C.01_AVX/g16/l302.exe)
 NPDir=0 NMtPBC=     1 NCelOv=     1 NCel=       1 NClECP=     1 NCelD=      1
         NCelK=      1 NCelE2=     1 NClLst=     1 CellRange=     0.0.
 One-electron integrals computed using PRISM.
 NBasis=   273 RedAO= T EigKep=  2.98D-04  NBF=   273
 NBsUse=   273 1.00D-06 EigRej= -1.00D+00 NBFU=   273
 Precomputing XC quadrature grid using
 IXCGrd= 4 IRadAn=           5 IRanWt=          -1 IRanGd=           0 AccXCQ= 0.00D+00.
 Generated NRdTot=       0 NPtTot=           0 NUsed=           0 NTot=          32
 NSgBfM=   288   288   288   288   288 MxSgAt=    25 MxSgA2=    25.
 Leave Link  302 at Tue Jul 14 10:57:26 2020, MaxMem=  7784628224 cpu:               2.7 elap:               0.3
 (Enter /gpfs/loomis/apps/avx/software/Gaussian/16-C.01_AVX/g16/l303.exe)
 DipDrv:  MaxL=1.
 Leave Link  303 at Tue Jul 14 10:57:27 2020, MaxMem=  7784628224 cpu:               0.8 elap:               0.1
 (Enter /gpfs/loomis/apps/avx/software/Gaussian/16-C.01_AVX/g16/l308.exe)
 Leave Link  308 at Tue Jul 14 10:57:27 2020, MaxMem=  7784628224 cpu:               0.6 elap:               0.1
 (Enter /gpfs/loomis/apps/avx/software/Gaussian/16-C.01_AVX/g16/l401.exe)
 ExpMin= 1.22D-01 ExpMax= 1.11D+05 ExpMxC= 1.07D+03 IAcc=3 IRadAn=         5 AccDes= 0.00D+00
 Harris functional with IExCor= 4639 and IRadAn=       5 diagonalized for initial guess.
 HarFok:  IExCor= 4639 AccDes= 0.00D+00 IRadAn=         5 IDoV= 1 UseB2=F ITyADJ=14
 ICtDFT=  3500011 ScaDFX=  1.000000  1.000000  1.000000  1.000000
 FoFCou: FMM=F IPFlag=           0 FMFlag=      100000 FMFlg1=           0
         NFxFlg=           0 DoJE=T BraDBF=F KetDBF=T FulRan=T
         wScrn=  0.000000 ICntrl=       500 IOpCl=  0 I1Cent=   200000004 NGrid=           0
         NMat0=    1 NMatS0=      1 NMatT0=    0 NMatD0=    1 NMtDS0=    0 NMtDT0=    0
 Symmetry not used in FoFCou.
 Harris En= -994.208591075610    
 JPrj=0 DoOrth=F DoCkMO=F.
 Leave Link  401 at Tue Jul 14 10:57:28 2020, MaxMem=  7784628224 cpu:              13.5 elap:               1.4
 (Enter /gpfs/loomis/apps/avx/software/Gaussian/16-C.01_AVX/g16/l502.exe)
 Two-electron integral symmetry not used.
 Closed shell SCF:
 Using DIIS extrapolation, IDIIS=  1040.
 NGot=  7784628224 LenX=  7784455381 LenY=  7784371419
 Requested convergence on RMS density matrix=1.00D-08 within 128 cycles.
 Requested convergence on MAX density matrix=1.00D-06.
 Requested convergence on             energy=1.00D-06.
 No special actions if energy rises.
 Fock matrices will be formed incrementally for  20 cycles.

 Cycle   1  Pass 1  IDiag  1:
 FoFJK:  IHMeth= 1 ICntrl=       0 DoSepK=T KAlg= 0 I1Cent=           0 FoldK=F
 IRaf=         1 NMat=       1 IRICut=       1 DoRegI=T DoRafI=F ISym2E= 0 IDoP0=0 IntGTp=1.
 FoFCou: FMM=F IPFlag=           0 FMFlag=      100000 FMFlg1=           0
         NFxFlg=           0 DoJE=T BraDBF=F KetDBF=F FulRan=T
         wScrn=  0.000000 ICntrl=       500 IOpCl=  0 I1Cent=           0 NGrid=           0
         NMat0=    1 NMatS0=      1 NMatT0=    0 NMatD0=    1 NMtDS0=    0 NMtDT0=    0
 Symmetry not used in FoFCou.
 Inv3:  Mode=1 IEnd=    14348907.
 Iteration    1 A*A^-1 deviation from unit magnitude is 3.89D-15 for   2180.
 Iteration    1 A*A^-1 deviation from orthogonality  is 2.31D-15 for   1951   1323.
 Iteration    1 A^-1*A deviation from unit magnitude is 3.66D-15 for   2180.
 Iteration    1 A^-1*A deviation from orthogonality  is 1.67D-15 for   2169   2067.
 E= -1028.30955873342    
 DIIS: error= 4.28D-02 at cycle   1 NSaved=   1.
 NSaved= 1 IEnMin= 1 EnMin= -1028.30955873342     IErMin= 1 ErrMin= 4.28D-02
 ErrMax= 4.28D-02  0.00D+00 EMaxC= 1.00D-01 BMatC= 4.02D-01 BMatP= 4.02D-01
 IDIUse=3 WtCom= 5.72D-01 WtEn= 4.28D-01
 Coeff-Com:  0.100D+01
 Coeff-En:   0.100D+01
 Coeff:      0.100D+01
 Gap=     0.295 Goal=   None    Shift=    0.000
 GapD=    0.295 DampG=1.000 DampE=0.500 DampFc=0.5000 IDamp=-1.
 Damping current iteration by 5.00D-01
 RMSDP=3.76D-03 MaxDP=2.61D-01              OVMax= 2.15D-01

 Cycle   2  Pass 1  IDiag  1:
 RMSU=  1.87D-03    CP:  9.94D-01
 E= -1028.43666431675     Delta-E=       -0.127105583328 Rises=F Damp=T
 DIIS: error= 1.11D-02 at cycle   2 NSaved=   2.
 NSaved= 2 IEnMin= 2 EnMin= -1028.43666431675     IErMin= 2 ErrMin= 1.11D-02
 ErrMax= 1.11D-02  0.00D+00 EMaxC= 1.00D-01 BMatC= 5.81D-02 BMatP= 4.02D-01
 IDIUse=3 WtCom= 8.89D-01 WtEn= 1.11D-01
 Coeff-Com: -0.273D+00 0.127D+01
 Coeff-En:   0.000D+00 0.100D+01
 Coeff:     -0.243D+00 0.124D+01
 Gap=     0.365 Goal=   None    Shift=    0.000
 RMSDP=1.18D-03 MaxDP=3.13D-02 DE=-1.27D-01 OVMax= 1.50D-01

 Cycle   3  Pass 1  IDiag  1:
 RMSU=  1.14D-03    CP:  9.91D-01  1.16D+00
 E= -1028.55293130966     Delta-E=       -0.116266992912 Rises=F Damp=F
 DIIS: error= 5.78D-03 at cycle   3 NSaved=   3.
 NSaved= 3 IEnMin= 3 EnMin= -1028.55293130966     IErMin= 3 ErrMin= 5.78D-03
 ErrMax= 5.78D-03  0.00D+00 EMaxC= 1.00D-01 BMatC= 1.47D-02 BMatP= 5.81D-02
 IDIUse=3 WtCom= 9.42D-01 WtEn= 5.78D-02
 Coeff-Com: -0.196D+00 0.481D+00 0.715D+00
 Coeff-En:   0.000D+00 0.000D+00 0.100D+01
 Coeff:     -0.185D+00 0.453D+00 0.731D+00
 Gap=     0.230 Goal=   None    Shift=    0.000
 RMSDP=5.26D-04 MaxDP=2.29D-02 DE=-1.16D-01 OVMax= 4.78D-02

 Cycle   4  Pass 1  IDiag  1:
 RMSU=  4.18D-04    CP:  9.89D-01  1.31D+00  8.77D-01
 E= -1028.56748782271     Delta-E=       -0.014556513044 Rises=F Damp=F
 DIIS: error= 1.94D-03 at cycle   4 NSaved=   4.
 NSaved= 4 IEnMin= 4 EnMin= -1028.56748782271     IErMin= 4 ErrMin= 1.94D-03
 ErrMax= 1.94D-03  0.00D+00 EMaxC= 1.00D-01 BMatC= 1.74D-03 BMatP= 1.47D-02
 IDIUse=3 WtCom= 9.81D-01 WtEn= 1.94D-02
 Coeff-Com: -0.695D-01 0.137D+00 0.338D+00 0.595D+00
 Coeff-En:   0.000D+00 0.000D+00 0.000D+00 0.100D+01
 Coeff:     -0.681D-01 0.134D+00 0.331D+00 0.602D+00
 Gap=     0.234 Goal=   None    Shift=    0.000
 RMSDP=1.65D-04 MaxDP=8.85D-03 DE=-1.46D-02 OVMax= 1.27D-02

 Cycle   5  Pass 1  IDiag  1:
 RMSU=  1.14D-04    CP:  9.89D-01  1.32D+00  9.43D-01  7.83D-01
 E= -1028.56940678603     Delta-E=       -0.001918963327 Rises=F Damp=F
 DIIS: error= 6.44D-04 at cycle   5 NSaved=   5.
 NSaved= 5 IEnMin= 5 EnMin= -1028.56940678603     IErMin= 5 ErrMin= 6.44D-04
 ErrMax= 6.44D-04  0.00D+00 EMaxC= 1.00D-01 BMatC= 6.32D-05 BMatP= 1.74D-03
 IDIUse=3 WtCom= 9.94D-01 WtEn= 6.44D-03
 Coeff-Com:  0.118D-03-0.666D-02 0.225D-01 0.155D+00 0.829D+00
 Coeff-En:   0.000D+00 0.000D+00 0.000D+00 0.000D+00 0.100D+01
 Coeff:      0.118D-03-0.662D-02 0.223D-01 0.154D+00 0.830D+00
 Gap=     0.235 Goal=   None    Shift=    0.000
 RMSDP=6.42D-05 MaxDP=2.10D-03 DE=-1.92D-03 OVMax= 7.57D-03

 Cycle   6  Pass 1  IDiag  1:
 RMSU=  4.11D-05    CP:  9.89D-01  1.32D+00  9.61D-01  8.80D-01  1.15D+00
 E= -1028.56956427504     Delta-E=       -0.000157489008 Rises=F Damp=F
 DIIS: error= 2.68D-04 at cycle   6 NSaved=   6.
 NSaved= 6 IEnMin= 6 EnMin= -1028.56956427504     IErMin= 6 ErrMin= 2.68D-04
 ErrMax= 2.68D-04  0.00D+00 EMaxC= 1.00D-01 BMatC= 1.25D-05 BMatP= 6.32D-05
 IDIUse=3 WtCom= 9.97D-01 WtEn= 2.68D-03
 Coeff-Com:  0.177D-01-0.361D-01-0.716D-01-0.894D-01 0.214D+00 0.965D+00
 Coeff-En:   0.000D+00 0.000D+00 0.000D+00 0.000D+00 0.000D+00 0.100D+01
 Coeff:      0.177D-01-0.360D-01-0.714D-01-0.892D-01 0.214D+00 0.965D+00
 Gap=     0.236 Goal=   None    Shift=    0.000
 RMSDP=4.31D-05 MaxDP=2.10D-03 DE=-1.57D-04 OVMax= 4.96D-03

 Cycle   7  Pass 1  IDiag  1:
 RMSU=  1.98D-05    CP:  9.89D-01  1.32D+00  9.75D-01  9.20D-01  1.38D+00
                    CP:  1.36D+00
 E= -1028.56961159616     Delta-E=       -0.000047321116 Rises=F Damp=F
 DIIS: error= 9.08D-05 at cycle   7 NSaved=   7.
 NSaved= 7 IEnMin= 7 EnMin= -1028.56961159616     IErMin= 7 ErrMin= 9.08D-05
 ErrMax= 9.08D-05  0.00D+00 EMaxC= 1.00D-01 BMatC= 2.25D-06 BMatP= 1.25D-05
 IDIUse=1 WtCom= 1.00D+00 WtEn= 0.00D+00
 Coeff-Com:  0.617D-02-0.115D-01-0.259D-01-0.521D-01-0.279D-01 0.342D+00
 Coeff-Com:  0.769D+00
 Coeff:      0.617D-02-0.115D-01-0.259D-01-0.521D-01-0.279D-01 0.342D+00
 Coeff:      0.769D+00
 Gap=     0.236 Goal=   None    Shift=    0.000
 RMSDP=1.50D-05 MaxDP=5.50D-04 DE=-4.73D-05 OVMax= 1.98D-03

 Cycle   8  Pass 1  IDiag  1:
 RMSU=  7.82D-06    CP:  9.89D-01  1.32D+00  9.77D-01  9.28D-01  1.43D+00
                    CP:  1.60D+00  1.20D+00
 E= -1028.56961844832     Delta-E=       -0.000006852165 Rises=F Damp=F
 DIIS: error= 5.88D-05 at cycle   8 NSaved=   8.
 NSaved= 8 IEnMin= 8 EnMin= -1028.56961844832     IErMin= 8 ErrMin= 5.88D-05
 ErrMax= 5.88D-05  0.00D+00 EMaxC= 1.00D-01 BMatC= 4.47D-07 BMatP= 2.25D-06
 IDIUse=1 WtCom= 1.00D+00 WtEn= 0.00D+00
 Coeff-Com: -0.192D-02 0.408D-02 0.875D-02 0.485D-02-0.370D-01-0.127D+00
 Coeff-Com:  0.210D+00 0.939D+00
 Coeff:     -0.192D-02 0.408D-02 0.875D-02 0.485D-02-0.370D-01-0.127D+00
 Coeff:      0.210D+00 0.939D+00
 Gap=     0.236 Goal=   None    Shift=    0.000
 RMSDP=8.27D-06 MaxDP=2.02D-04 DE=-6.85D-06 OVMax= 1.33D-03

 Cycle   9  Pass 1  IDiag  1:
 RMSU=  3.17D-06    CP:  9.89D-01  1.32D+00  9.77D-01  9.27D-01  1.45D+00
                    CP:  1.71D+00  1.47D+00  1.22D+00
 E= -1028.56962030609     Delta-E=       -0.000001857761 Rises=F Damp=F
 DIIS: error= 1.85D-05 at cycle   9 NSaved=   9.
 NSaved= 9 IEnMin= 9 EnMin= -1028.56962030609     IErMin= 9 ErrMin= 1.85D-05
 ErrMax= 1.85D-05  0.00D+00 EMaxC= 1.00D-01 BMatC= 1.02D-07 BMatP= 4.47D-07
 IDIUse=1 WtCom= 1.00D+00 WtEn= 0.00D+00
 Coeff-Com: -0.140D-02 0.274D-02 0.647D-02 0.816D-02-0.766D-02-0.103D+00
 Coeff-Com: -0.510D-01 0.308D+00 0.838D+00
 Coeff:     -0.140D-02 0.274D-02 0.647D-02 0.816D-02-0.766D-02-0.103D+00
 Coeff:     -0.510D-01 0.308D+00 0.838D+00
 Gap=     0.236 Goal=   None    Shift=    0.000
 RMSDP=4.27D-06 MaxDP=1.46D-04 DE=-1.86D-06 OVMax= 5.93D-04

 Cycle  10  Pass 1  IDiag  1:
 RMSU=  1.66D-06    CP:  9.89D-01  1.32D+00  9.77D-01  9.27D-01  1.46D+00
                    CP:  1.77D+00  1.57D+00  1.48D+00  1.22D+00
 E= -1028.56962068428     Delta-E=       -0.000000378192 Rises=F Damp=F
 DIIS: error= 1.32D-05 at cycle  10 NSaved=  10.
 NSaved=10 IEnMin=10 EnMin= -1028.56962068428     IErMin=10 ErrMin= 1.32D-05
 ErrMax= 1.32D-05  0.00D+00 EMaxC= 1.00D-01 BMatC= 2.47D-08 BMatP= 1.02D-07
 IDIUse=1 WtCom= 1.00D+00 WtEn= 0.00D+00
 Coeff-Com:  0.848D-04-0.241D-03-0.575D-04 0.118D-02 0.887D-02-0.895D-02
 Coeff-Com: -0.705D-01-0.100D+00 0.368D+00 0.802D+00
 Coeff:      0.848D-04-0.241D-03-0.575D-04 0.118D-02 0.887D-02-0.895D-02
 Coeff:     -0.705D-01-0.100D+00 0.368D+00 0.802D+00
 Gap=     0.236 Goal=   None    Shift=    0.000
 RMSDP=1.72D-06 MaxDP=6.02D-05 DE=-3.78D-07 OVMax= 3.23D-04

 Cycle  11  Pass 1  IDiag  1:
 RMSU=  6.29D-07    CP:  9.89D-01  1.32D+00  9.77D-01  9.28D-01  1.47D+00
                    CP:  1.78D+00  1.61D+00  1.56D+00  1.52D+00  1.06D+00
 E= -1028.56962076464     Delta-E=       -0.000000080365 Rises=F Damp=F
 DIIS: error= 3.95D-06 at cycle  11 NSaved=  11.
 NSaved=11 IEnMin=11 EnMin= -1028.56962076464     IErMin=11 ErrMin= 3.95D-06
 ErrMax= 3.95D-06  0.00D+00 EMaxC= 1.00D-01 BMatC= 4.91D-09 BMatP= 2.47D-08
 IDIUse=1 WtCom= 1.00D+00 WtEn= 0.00D+00
 Coeff-Com:  0.266D-03-0.548D-03-0.104D-02-0.967D-03 0.524D-02 0.126D-01
 Coeff-Com: -0.192D-01-0.914D-01-0.179D-01 0.305D+00 0.808D+00
 Coeff:      0.266D-03-0.548D-03-0.104D-02-0.967D-03 0.524D-02 0.126D-01
 Coeff:     -0.192D-01-0.914D-01-0.179D-01 0.305D+00 0.808D+00
 Gap=     0.236 Goal=   None    Shift=    0.000
 RMSDP=8.03D-07 MaxDP=2.61D-05 DE=-8.04D-08 OVMax= 1.18D-04

 Cycle  12  Pass 1  IDiag  1:
 RMSU=  2.63D-07    CP:  9.89D-01  1.32D+00  9.77D-01  9.28D-01  1.47D+00
                    CP:  1.79D+00  1.62D+00  1.61D+00  1.63D+00  1.31D+00
                    CP:  1.12D+00
 E= -1028.56962077824     Delta-E=       -0.000000013594 Rises=F Damp=F
 DIIS: error= 1.65D-06 at cycle  12 NSaved=  12.
 NSaved=12 IEnMin=12 EnMin= -1028.56962077824     IErMin=12 ErrMin= 1.65D-06
 ErrMax= 1.65D-06  0.00D+00 EMaxC= 1.00D-01 BMatC= 6.69D-10 BMatP= 4.91D-09
 IDIUse=1 WtCom= 1.00D+00 WtEn= 0.00D+00
 Coeff-Com:  0.119D-03-0.230D-03-0.511D-03-0.892D-03 0.719D-03 0.801D-02
 Coeff-Com:  0.780D-02-0.169D-01-0.904D-01-0.393D-01 0.296D+00 0.836D+00
 Coeff:      0.119D-03-0.230D-03-0.511D-03-0.892D-03 0.719D-03 0.801D-02
 Coeff:      0.780D-02-0.169D-01-0.904D-01-0.393D-01 0.296D+00 0.836D+00
 Gap=     0.236 Goal=   None    Shift=    0.000
 RMSDP=3.09D-07 MaxDP=8.02D-06 DE=-1.36D-08 OVMax= 4.94D-05

 Cycle  13  Pass 1  IDiag  1:
 RMSU=  9.83D-08    CP:  9.89D-01  1.32D+00  9.77D-01  9.28D-01  1.47D+00
                    CP:  1.79D+00  1.63D+00  1.62D+00  1.68D+00  1.39D+00
                    CP:  1.34D+00  1.04D+00
 E= -1028.56962078045     Delta-E=       -0.000000002213 Rises=F Damp=F
 DIIS: error= 6.35D-07 at cycle  13 NSaved=  13.
 NSaved=13 IEnMin=13 EnMin= -1028.56962078045     IErMin=13 ErrMin= 6.35D-07
 ErrMax= 6.35D-07  0.00D+00 EMaxC= 1.00D-01 BMatC= 7.45D-11 BMatP= 6.69D-10
 IDIUse=1 WtCom= 1.00D+00 WtEn= 0.00D+00
 Coeff-Com: -0.956D-05 0.216D-04 0.373D-04-0.669D-04-0.238D-03 0.247D-03
 Coeff-Com:  0.323D-02 0.628D-02-0.158D-01-0.375D-01-0.549D-01 0.193D+00
 Coeff-Com:  0.906D+00
 Coeff:     -0.956D-05 0.216D-04 0.373D-04-0.669D-04-0.238D-03 0.247D-03
 Coeff:      0.323D-02 0.628D-02-0.158D-01-0.375D-01-0.549D-01 0.193D+00
 Coeff:      0.906D+00
 Gap=     0.236 Goal=   None    Shift=    0.000
 RMSDP=9.17D-08 MaxDP=2.32D-06 DE=-2.21D-09 OVMax= 1.09D-05

 Cycle  14  Pass 1  IDiag  1:
 RMSU=  3.56D-08    CP:  9.89D-01  1.32D+00  9.77D-01  9.28D-01  1.47D+00
                    CP:  1.79D+00  1.63D+00  1.63D+00  1.69D+00  1.42D+00
                    CP:  1.39D+00  1.20D+00  1.16D+00
 E= -1028.56962078066     Delta-E=       -0.000000000211 Rises=F Damp=F
 DIIS: error= 1.83D-07 at cycle  14 NSaved=  14.
 NSaved=14 IEnMin=14 EnMin= -1028.56962078066     IErMin=14 ErrMin= 1.83D-07
 ErrMax= 1.83D-07  0.00D+00 EMaxC= 1.00D-01 BMatC= 1.02D-11 BMatP= 7.45D-11
 IDIUse=1 WtCom= 1.00D+00 WtEn= 0.00D+00
 Coeff-Com: -0.146D-04 0.291D-04 0.634D-04 0.589D-04-0.145D-03-0.717D-03
 Coeff-Com:  0.292D-03 0.407D-02 0.337D-02-0.761D-02-0.518D-01-0.177D-01
 Coeff-Com:  0.335D+00 0.735D+00
 Coeff:     -0.146D-04 0.291D-04 0.634D-04 0.589D-04-0.145D-03-0.717D-03
 Coeff:      0.292D-03 0.407D-02 0.337D-02-0.761D-02-0.518D-01-0.177D-01
 Coeff:      0.335D+00 0.735D+00
 Gap=     0.236 Goal=   None    Shift=    0.000
 RMSDP=2.24D-08 MaxDP=5.35D-07 DE=-2.11D-10 OVMax= 2.71D-06

 Cycle  15  Pass 1  IDiag  1:
 RMSU=  1.21D-08    CP:  9.89D-01  1.32D+00  9.77D-01  9.28D-01  1.47D+00
                    CP:  1.79D+00  1.63D+00  1.63D+00  1.69D+00  1.42D+00
                    CP:  1.40D+00  1.23D+00  1.29D+00  1.10D+00
 E= -1028.56962078067     Delta-E=       -0.000000000015 Rises=F Damp=F
 DIIS: error= 7.13D-08 at cycle  15 NSaved=  15.
 NSaved=15 IEnMin=15 EnMin= -1028.56962078067     IErMin=15 ErrMin= 7.13D-08
 ErrMax= 7.13D-08  0.00D+00 EMaxC= 1.00D-01 BMatC= 1.27D-12 BMatP= 1.02D-11
 IDIUse=1 WtCom= 1.00D+00 WtEn= 0.00D+00
 Coeff-Com: -0.215D-05 0.380D-05 0.117D-04 0.317D-04-0.281D-05-0.297D-03
 Coeff-Com: -0.625D-03 0.918D-05 0.424D-02 0.664D-02-0.349D-02-0.499D-01
 Coeff-Com: -0.873D-01 0.166D+00 0.964D+00
 Coeff:     -0.215D-05 0.380D-05 0.117D-04 0.317D-04-0.281D-05-0.297D-03
 Coeff:     -0.625D-03 0.918D-05 0.424D-02 0.664D-02-0.349D-02-0.499D-01
 Coeff:     -0.873D-01 0.166D+00 0.964D+00
 Gap=     0.236 Goal=   None    Shift=    0.000
 RMSDP=1.27D-08 MaxDP=3.06D-07 DE=-1.46D-11 OVMax= 1.45D-06

 Cycle  16  Pass 1  IDiag  1:
 RMSU=  5.15D-09    CP:  9.89D-01  1.32D+00  9.77D-01  9.28D-01  1.47D+00
                    CP:  1.79D+00  1.63D+00  1.63D+00  1.69D+00  1.42D+00
                    CP:  1.41D+00  1.24D+00  1.36D+00  1.29D+00  1.22D+00
 E= -1028.56962078068     Delta-E=       -0.000000000008 Rises=F Damp=F
 DIIS: error= 2.60D-08 at cycle  16 NSaved=  16.
 NSaved=16 IEnMin=16 EnMin= -1028.56962078068     IErMin=16 ErrMin= 2.60D-08
 ErrMax= 2.60D-08  0.00D+00 EMaxC= 1.00D-01 BMatC= 1.39D-13 BMatP= 1.27D-12
 IDIUse=1 WtCom= 1.00D+00 WtEn= 0.00D+00
 Coeff-Com:  0.735D-06-0.159D-05-0.230D-05 0.266D-05 0.898D-05-0.154D-04
 Coeff-Com: -0.191D-03-0.344D-03 0.618D-03 0.231D-02 0.374D-02-0.114D-01
 Coeff-Com: -0.472D-01-0.308D-01 0.252D+00 0.832D+00
 Coeff:      0.735D-06-0.159D-05-0.230D-05 0.266D-05 0.898D-05-0.154D-04
 Coeff:     -0.191D-03-0.344D-03 0.618D-03 0.231D-02 0.374D-02-0.114D-01
 Coeff:     -0.472D-01-0.308D-01 0.252D+00 0.832D+00
 Gap=     0.236 Goal=   None    Shift=    0.000
 RMSDP=3.63D-09 MaxDP=1.16D-07 DE=-8.19D-12 OVMax= 4.96D-07

 Error on total polarization charges =  0.00873
 SCF Done:  E(RwB97XD) =  -1028.56962078     A.U. after   16 cycles
            NFock= 16  Conv=0.36D-08     -V/T= 2.0036
 KE= 1.024842043863D+03 PE=-4.615605564013D+03 EE= 1.460429769157D+03
 Leave Link  502 at Tue Jul 14 10:58:57 2020, MaxMem=  7784628224 cpu:             879.9 elap:              88.7
 (Enter /gpfs/loomis/apps/avx/software/Gaussian/16-C.01_AVX/g16/l801.exe)
 DoSCS=F DFT=T ScalE2(SS,OS)=  1.000000  1.000000
 ExpMin= 1.22D-01 ExpMax= 1.11D+05 ExpMxC= 1.07D+03 IAcc=3 IRadAn=         5 AccDes= 0.00D+00
 HarFok:  IExCor=  205 AccDes= 0.00D+00 IRadAn=         5 IDoV=-2 UseB2=F ITyADJ=14
 ICtDFT= 12500011 ScaDFX=  1.000000  1.000000  1.000000  1.000000
 Largest valence mixing into a core orbital is  9.52D-05
 Largest core mixing into a valence orbital is  3.17D-05
 Range of M.O.s used for correlation:    21   273
 NBasis=   273 NAE=    59 NBE=    59 NFC=    20 NFV=     0
 NROrb=    253 NOA=    39 NOB=    39 NVA=   214 NVB=   214
 Leave Link  801 at Tue Jul 14 10:58:57 2020, MaxMem=  7784628224 cpu:               1.0 elap:               0.1
 (Enter /gpfs/loomis/apps/avx/software/Gaussian/16-C.01_AVX/g16/l914.exe)
 RHF ground state
 Keep R1, R2, and R3 ints in memory in canonical form, NReq=4262515490.
 FoFCou: FMM=F IPFlag=           0 FMFlag=           0 FMFlg1=           0
         NFxFlg=           0 DoJE=F BraDBF=F KetDBF=F FulRan=T
         wScrn=  0.000000 ICntrl=       600 IOpCl=  0 I1Cent=           0 NGrid=           0
         NMat0=    1 NMatS0=  37401 NMatT0=    0 NMatD0=    1 NMtDS0=    0 NMtDT0=    0
 Symmetry not used in FoFCou.
 Two-electron integral symmetry not used.
 MDV=  7784628224 DFT=T DoStab=F Mixed=T DoRPA=T DoScal=F NonHer=T
 NEqPCM:  Using equilibrium solvation (IEInf=0, Eps=   2.2280, EpsInf=   2.1319)
 Making orbital integer symmetry assigments:
    12 initial guesses have been made.
 Convergence on wavefunction:    0.000001000000000
 Davidson Disk Diagonalization:  ConvIn= 1.00D-06 SkipCon=T Conv= 1.00D-06.
 Max sub-space:  2000 roots to seek:    12 dimension of matrix:        16692
 Iteration     1 Dimension    12 NMult     0 NNew     12
 CISAX will form    12 AO SS matrices at one time.
 NMat=    12 NSing=    12 JSym2X= 0.
 New state      3 was old state      4
 Excitation Energies [eV] at current iteration:
 Root      1 :     3.399331960254105
 Root      2 :     3.633300666098089
 Root      3 :     4.846464039356245
 Root      4 :     5.140712130565044
 Root      5 :     5.173052156197149
 Root      6 :     5.692552848176497
 Root      7 :     5.842421480206483
 Root      8 :     6.301015156092588
 Root      9 :     6.484516331215501
 Root     10 :     6.656066025945784
 Root     11 :     6.967102980825871
 Root     12 :     7.187658407736359
 Iteration     2 Dimension    18 NMult    12 NNew      6
 CISAX will form     6 AO SS matrices at one time.
 NMat=     6 NSing=     6 JSym2X= 0.
 Root      1 not converged, maximum delta is    0.043277346152118
 Root      2 not converged, maximum delta is    0.107788278390811
 Root      3 not converged, maximum delta is    0.080316981632855
 Excitation Energies [eV] at current iteration:
 Root      1 :     2.881264974622419   Change is   -0.518066985631686
 Root      2 :     3.427627616451149   Change is   -0.205673049646941
 Root      3 :     4.408066659934162   Change is   -0.438397379422083
 Iteration     3 Dimension    24 NMult    18 NNew      6
 CISAX will form     6 AO SS matrices at one time.
 NMat=     6 NSing=     6 JSym2X= 0.
 Root      1 not converged, maximum delta is    0.015852596335936
 Root      2 not converged, maximum delta is    0.028107960696726
 Root      3 not converged, maximum delta is    0.028963001786413
 Excitation Energies [eV] at current iteration:
 Root      1 :     2.852441474629749   Change is   -0.028823499992670
 Root      2 :     3.407709546924599   Change is   -0.019918069526549
 Root      3 :     4.379045490745298   Change is   -0.029021169188864
 Iteration     4 Dimension    30 NMult    24 NNew      6
 CISAX will form     6 AO SS matrices at one time.
 NMat=     6 NSing=     6 JSym2X= 0.
 Root      1 not converged, maximum delta is    0.008455497661416
 Root      2 not converged, maximum delta is    0.009495406216908
 Root      3 not converged, maximum delta is    0.015796883369832
 Excitation Energies [eV] at current iteration:
 Root      1 :     2.847980541700647   Change is   -0.004460932929102
 Root      2 :     3.405829039722375   Change is   -0.001880507202225
 Root      3 :     4.373342104826647   Change is   -0.005703385918651
 Iteration     5 Dimension    36 NMult    30 NNew      6
 CISAX will form     6 AO SS matrices at one time.
 NMat=     6 NSing=     6 JSym2X= 0.
 Root      1 not converged, maximum delta is    0.001805587675161
 Root      2 not converged, maximum delta is    0.001289091948447
 Root      3 not converged, maximum delta is    0.009393140459350
 Excitation Energies [eV] at current iteration:
 Root      1 :     2.847397930238859   Change is   -0.000582611461789
 Root      2 :     3.405728694246290   Change is   -0.000100345476085
 Root      3 :     4.371989190764492   Change is   -0.001352914062154
 Iteration     6 Dimension    42 NMult    36 NNew      6
 CISAX will form     6 AO SS matrices at one time.
 NMat=     6 NSing=     6 JSym2X= 0.
 Root      1 not converged, maximum delta is    0.000330880076387
 Root      2 not converged, maximum delta is    0.000321669681107
 Root      3 not converged, maximum delta is    0.002399083625068
 Excitation Energies [eV] at current iteration:
 Root      1 :     2.847356433990493   Change is   -0.000041496248365
 Root      2 :     3.405723652298372   Change is   -0.000005041947918
 Root      3 :     4.371803735430575   Change is   -0.000185455333918
 Iteration     7 Dimension    48 NMult    42 NNew      6
 CISAX will form     6 AO SS matrices at one time.
 NMat=     6 NSing=     6 JSym2X= 0.
 Root      1 not converged, maximum delta is    0.000107205006412
 Root      2 not converged, maximum delta is    0.000118432195424
 Root      3 not converged, maximum delta is    0.000478200124123
 Excitation Energies [eV] at current iteration:
 Root      1 :     2.847353074006047   Change is   -0.000003359984447
 Root      2 :     3.405723212572196   Change is   -0.000000439726177
 Root      3 :     4.371784299210681   Change is   -0.000019436219894
 Iteration     8 Dimension    54 NMult    48 NNew      6
 CISAX will form     6 AO SS matrices at one time.
 NMat=     6 NSing=     6 JSym2X= 0.
 Root      1 not converged, maximum delta is    0.000030162445488
 Root      2 not converged, maximum delta is    0.000011601848476
 Root      3 not converged, maximum delta is    0.000180765961928
 Excitation Energies [eV] at current iteration:
 Root      1 :     2.847352917860060   Change is   -0.000000156145987
 Root      2 :     3.405723193187387   Change is   -0.000000019384809
 Root      3 :     4.371782396221628   Change is   -0.000001902989052
 Iteration     9 Dimension    60 NMult    54 NNew      6
 CISAX will form     6 AO SS matrices at one time.
 NMat=     6 NSing=     6 JSym2X= 0.
 Root      1 not converged, maximum delta is    0.000010305219331
 Root      2 not converged, maximum delta is    0.000001574117610
 Root      3 not converged, maximum delta is    0.000038962232515
 Excitation Energies [eV] at current iteration:
 Root      1 :     2.847352906451088   Change is   -0.000000011408972
 Root      2 :     3.405723192449173   Change is   -0.000000000738214
 Root      3 :     4.371782269554488   Change is   -0.000000126667142
 Iteration    10 Dimension    66 NMult    60 NNew      6
 CISAX will form     6 AO SS matrices at one time.
 NMat=     6 NSing=     6 JSym2X= 0.
 Root      1 not converged, maximum delta is    0.000002765690048
 Root      2 has converged.
 Root      3 not converged, maximum delta is    0.000019157196146
 Excitation Energies [eV] at current iteration:
 Root      1 :     2.847352905584219   Change is   -0.000000000866869
 Root      2 :     3.405723192405822   Change is   -0.000000000043352
 Root      3 :     4.371782254396054   Change is   -0.000000015158433
 Iteration    11 Dimension    70 NMult    66 NNew      4
 CISAX will form     4 AO SS matrices at one time.
 NMat=     4 NSing=     4 JSym2X= 0.
 Root      1 has converged.
 Root      2 has converged.
 Root      3 not converged, maximum delta is    0.000004567927100
 Excitation Energies [eV] at current iteration:
 Root      1 :     2.847352905531269   Change is   -0.000000000052950
 Root      2 :     3.405723192405894   Change is    0.000000000000073
 Root      3 :     4.371782252885312   Change is   -0.000000001510741
 Iteration    12 Dimension    72 NMult    70 NNew      2
 CISAX will form     2 AO SS matrices at one time.
 NMat=     2 NSing=     2 JSym2X= 0.
 Root      1 has converged.
 Root      2 has converged.
 Root      3 has converged.
 Excitation Energies [eV] at current iteration:
 Root      1 :     2.847352905529422   Change is   -0.000000000001848
 Root      2 :     3.405723192405822   Change is   -0.000000000000073
 Root      3 :     4.371782252777226   Change is   -0.000000000108086
 Convergence achieved on expansion vectors.
 ***********************************************************************
 Excited states from <AA,BB:AA,BB> singles matrix:
 ***********************************************************************
 
 1PDM for each excited state written to RWF  633
 Ground to excited state transition densities written to RWF  633
 Ground to excited state transition electric dipole moments (Au):
       state          X           Y           Z        Dip. S.      Osc.
         1         1.1390     -2.2650     -0.0000      6.4275      0.4484
         2        -0.0000      0.0000     -0.0057      0.0000      0.0000
         3        -1.6263      1.0585      0.0000      3.7652      0.4033
 Ground to excited state transition velocity dipole moments (Au):
       state          X           Y           Z        Dip. S.      Osc.
         1        -0.1149      0.2403      0.0000      0.0710      0.4521
         2         0.0000     -0.0000      0.0007      0.0000      0.0000
         3         0.2561     -0.1599     -0.0000      0.0912      0.3784
 Ground to excited state transition magnetic dipole moments (Au):
       state          X           Y           Z
         1         0.0000      0.0000     -1.1722
         2         0.4277     -0.0157      0.0000
         3        -0.0000      0.0000     -0.9527
 Ground to excited state transition velocity quadrupole moments (Au):
       state          XX          YY          ZZ          XY          XZ          YZ
         1         0.0273      0.6557     -0.0117     -0.2835     -0.0000      0.0000
         2        -0.0000     -0.0000      0.0000      0.0000     -0.0050      0.0199
         3        -0.4703      0.4832      0.0051      0.1182      0.0000      0.0000
 <0|del|b> * <b|rxdel|0> + <0|del|b> * <b|delr+rdel|0>
 Rotatory Strengths (R) in cgs (10**-40 erg-esu-cm/Gauss)
       state          XX          YY          ZZ    R(velocity)    E-M Angle
         1         0.0084     -0.0218      0.0189      0.0018       90.00
         2         0.0002      0.0029      0.0030      0.0020       90.00
         3         0.0012      0.0027     -0.0068     -0.0010       90.00
 1/2[<0|r|b>*<b|rxdel|0> + (<0|rxdel|b>*<b|r|0>)*]
 Rotatory Strengths (R) in cgs (10**-40 erg-esu-cm/Gauss)
       state          XX          YY          ZZ     R(length)
         1        -0.0101      0.0455     -0.0302      0.0017
         2         0.0057      0.0005      0.0001      0.0021
         3        -0.0051     -0.0046      0.0072     -0.0008
  1/2[<0|del|b>*<b|r|0> + (<0|r|b>*<b|del|0>)*] (Au)
       state          X           Y           Z        Dip. S.   Osc.(frdel)
         1        -0.1309     -0.5444     -0.0000      0.6752      0.4502
         2        -0.0000     -0.0000     -0.0000      0.0000      0.0000
         3        -0.4166     -0.1693     -0.0000      0.5858      0.3906

 Excitation energies and oscillator strengths:
 
 Excited state symmetry could not be determined.
 Excited State   1:      Singlet-?Sym    2.8474 eV  435.44 nm  f=0.4484  <S**2>=0.000
      59 -> 60         0.69989
 This state for optimization and/or second-order correction.
 Total Energy, E(TD-HF/TD-DFT) =  -1028.46498249    
 Copying the excited state density for this state as the 1-particle RhoCI density.
 
 Excited state symmetry could not be determined.
 Excited State   2:      Singlet-?Sym    3.4057 eV  364.05 nm  f=0.0000  <S**2>=0.000
      58 -> 60         0.68472
      58 -> 62         0.11107
      58 -> 64         0.10875
 
 Excited state symmetry could not be determined.
 Excited State   3:      Singlet-?Sym    4.3718 eV  283.60 nm  f=0.4033  <S**2>=0.000
      57 -> 60         0.68458
 SavETr:  write IOETrn=   770 NScale= 10 NData=  16 NLR=1 NState=    3 LETran=      64.
 The selected state is a singlet.
 CISGrd: IGrad=2 NXY=2 DFT=T
 CISAX will form     1 AO SS matrices at one time.
 NMat=     1 NSing=     1 JSym2X= 0.
 GePol: Maximum number of non-zero 1st derivatives   =     256
 Leave Link  914 at Tue Jul 14 11:01:51 2020, MaxMem=  7784628224 cpu:            1711.0 elap:             173.7
 (Enter /gpfs/loomis/apps/avx/software/Gaussian/16-C.01_AVX/g16/l1002.exe)
 Minotr:  Closed shell wavefunction.
          Computing CIS/TDA/TD derivatives.
          Using Z-Vector for PSCF gradient.
          Skipping F1 and S1 gradient terms here.
          IDoAtm=1111111111111111111111111
 NEqPCM:  Using equilibrium solvation (IEInf=0, Eps=   2.2280, EpsInf=   2.1319)
          Frozen-core window.
          Direct CPHF calculation.
          Differentiating once with respect to electric field.
                with respect to dipole field.
          Differentiating once with respect to nuclear coordinates.
          Requested convergence is 1.0D-10 RMS, and 1.0D-09 maximum.
          NewPWx=F KeepS1=T KeepF1=T KeepIn=T MapXYZ=F SortEE=F KeepMc=T.
 Keep R1 ints in memory in canonical form, NReq=1421461813.
 FoFCou: FMM=F IPFlag=           0 FMFlag=           0 FMFlg1=           0
         NFxFlg=           0 DoJE=F BraDBF=F KetDBF=F FulRan=T
         wScrn=  0.000000 ICntrl=       600 IOpCl=  0 I1Cent=           0 NGrid=           0
         NMat0=    1 NMatS0=  37401 NMatT0=    0 NMatD0=    1 NMtDS0=    0 NMtDT0=    0
 Symmetry not used in FoFCou.
 Two-electron integral symmetry not used.
          MDV=    7784628224 using IRadAn=       5.
          Solving linear equations separately, MaxMat=       0.
          There are     1 degrees of freedom in the 1st order CPHF.  IDoFFX=0 NUNeed=     1.
 LinEq1:  Iter=  0 NonCon=     1 RMS=6.97D-03 Max=5.71D-01 NDo=     1
 AX will form     1 AO Fock derivatives at one time.
 LinEq1:  Iter=  1 NonCon=     1 RMS=3.21D-03 Max=1.76D-01 NDo=     1
 LinEq1:  Iter=  2 NonCon=     1 RMS=1.60D-03 Max=3.83D-02 NDo=     1
 LinEq1:  Iter=  3 NonCon=     1 RMS=7.62D-04 Max=2.15D-02 NDo=     1
 LinEq1:  Iter=  4 NonCon=     1 RMS=4.55D-04 Max=1.40D-02 NDo=     1
 LinEq1:  Iter=  5 NonCon=     1 RMS=2.22D-04 Max=8.19D-03 NDo=     1
 LinEq1:  Iter=  6 NonCon=     1 RMS=9.12D-05 Max=4.55D-03 NDo=     1
 LinEq1:  Iter=  7 NonCon=     1 RMS=4.70D-05 Max=1.54D-03 NDo=     1
 LinEq1:  Iter=  8 NonCon=     1 RMS=1.79D-05 Max=6.06D-04 NDo=     1
 LinEq1:  Iter=  9 NonCon=     1 RMS=8.07D-06 Max=1.89D-04 NDo=     1
 LinEq1:  Iter= 10 NonCon=     1 RMS=3.17D-06 Max=8.57D-05 NDo=     1
 LinEq1:  Iter= 11 NonCon=     1 RMS=1.56D-06 Max=5.23D-05 NDo=     1
 LinEq1:  Iter= 12 NonCon=     1 RMS=7.14D-07 Max=2.23D-05 NDo=     1
 LinEq1:  Iter= 13 NonCon=     1 RMS=3.57D-07 Max=1.16D-05 NDo=     1
 LinEq1:  Iter= 14 NonCon=     1 RMS=1.14D-07 Max=2.46D-06 NDo=     1
 LinEq1:  Iter= 15 NonCon=     1 RMS=5.99D-08 Max=1.76D-06 NDo=     1
 LinEq1:  Iter= 16 NonCon=     1 RMS=2.53D-08 Max=7.22D-07 NDo=     1
 LinEq1:  Iter= 17 NonCon=     1 RMS=1.18D-08 Max=3.48D-07 NDo=     1
 LinEq1:  Iter= 18 NonCon=     1 RMS=5.13D-09 Max=1.17D-07 NDo=     1
 LinEq1:  Iter= 19 NonCon=     1 RMS=2.01D-09 Max=5.19D-08 NDo=     1
 LinEq1:  Iter= 20 NonCon=     1 RMS=1.02D-09 Max=2.78D-08 NDo=     1
 LinEq1:  Iter= 21 NonCon=     1 RMS=3.56D-10 Max=1.01D-08 NDo=     1
 LinEq1:  Iter= 22 NonCon=     1 RMS=1.51D-10 Max=4.39D-09 NDo=     1
 LinEq1:  Iter= 23 NonCon=     1 RMS=6.57D-11 Max=1.71D-09 NDo=     1
 LinEq1:  Iter= 24 NonCon=     0 RMS=1.81D-11 Max=4.47D-10 NDo=     1
 Linear equations converged to 1.000D-10 1.000D-09 after    24 iterations.
 End of Minotr F.D. properties file   721 does not exist.
 End of Minotr F.D. properties file   722 does not exist.
 End of Minotr F.D. properties file   788 does not exist.
 Leave Link 1002 at Tue Jul 14 11:03:35 2020, MaxMem=  7784628224 cpu:             764.4 elap:             103.8
 (Enter /gpfs/loomis/apps/avx/software/Gaussian/16-C.01_AVX/g16/l601.exe)
 Copying SCF densities to generalized density rwf, IOpCl= 0 IROHF=0.

 **********************************************************************

            Population analysis using the SCF Density.

 **********************************************************************

 Alpha  occ. eigenvalues --  -89.10927 -19.20395 -14.50470 -10.42085 -10.37731
 Alpha  occ. eigenvalues --  -10.36559 -10.35481 -10.33569 -10.33061 -10.32691
 Alpha  occ. eigenvalues --  -10.32512 -10.31339 -10.30705 -10.30573 -10.29136
 Alpha  occ. eigenvalues --  -10.28175  -8.12910  -6.07792  -6.07421  -6.06916
 Alpha  occ. eigenvalues --   -1.16236  -1.09377  -0.99764  -0.96535  -0.93669
 Alpha  occ. eigenvalues --   -0.89257  -0.87567  -0.83945  -0.81308  -0.79170
 Alpha  occ. eigenvalues --   -0.75733  -0.72323  -0.69697  -0.67714  -0.65747
 Alpha  occ. eigenvalues --   -0.60869  -0.59823  -0.57111  -0.56412  -0.56258
 Alpha  occ. eigenvalues --   -0.55120  -0.53681  -0.53163  -0.50587  -0.49510
 Alpha  occ. eigenvalues --   -0.48829  -0.48517  -0.47018  -0.45606  -0.44947
 Alpha  occ. eigenvalues --   -0.44144  -0.43012  -0.42623  -0.40083  -0.36848
 Alpha  occ. eigenvalues --   -0.33967  -0.31711  -0.31075  -0.25617
 Alpha virt. eigenvalues --   -0.02001   0.03480   0.05416   0.05903   0.09602
 Alpha virt. eigenvalues --    0.10635   0.13502   0.14594   0.16419   0.17370
 Alpha virt. eigenvalues --    0.18995   0.20076   0.21132   0.21319   0.23211
 Alpha virt. eigenvalues --    0.23637   0.24171   0.25845   0.28377   0.30070
 Alpha virt. eigenvalues --    0.30649   0.34010   0.35633   0.35885   0.36730
 Alpha virt. eigenvalues --    0.38190   0.39365   0.39900   0.41804   0.45155
 Alpha virt. eigenvalues --    0.46768   0.49006   0.50855   0.51038   0.51354
 Alpha virt. eigenvalues --    0.52771   0.52860   0.52894   0.53943   0.55588
 Alpha virt. eigenvalues --    0.56204   0.56418   0.56478   0.57177   0.57637
 Alpha virt. eigenvalues --    0.57835   0.59091   0.59395   0.59728   0.60746
 Alpha virt. eigenvalues --    0.61457   0.61659   0.62587   0.62699   0.63791
 Alpha virt. eigenvalues --    0.64588   0.66968   0.67073   0.68680   0.69941
 Alpha virt. eigenvalues --    0.70176   0.70706   0.72006   0.72157   0.72969
 Alpha virt. eigenvalues --    0.74410   0.75301   0.76056   0.76799   0.78788
 Alpha virt. eigenvalues --    0.79046   0.79543   0.81450   0.81492   0.83384
 Alpha virt. eigenvalues --    0.86245   0.88263   0.91264   0.91807   0.92960
 Alpha virt. eigenvalues --    0.94063   0.94545   0.96309   0.97631   0.98327
 Alpha virt. eigenvalues --    0.99653   0.99882   1.00555   1.00776   1.01159
 Alpha virt. eigenvalues --    1.02666   1.05142   1.06029   1.06380   1.07193
 Alpha virt. eigenvalues --    1.08946   1.09252   1.10238   1.11340   1.11427
 Alpha virt. eigenvalues --    1.12612   1.12871   1.13824   1.14299   1.15837
 Alpha virt. eigenvalues --    1.17464   1.18702   1.20327   1.23282   1.24213
 Alpha virt. eigenvalues --    1.27019   1.27195   1.31207   1.33351   1.33844
 Alpha virt. eigenvalues --    1.34621   1.36547   1.38110   1.41707   1.44865
 Alpha virt. eigenvalues --    1.49426   1.49489   1.53253   1.54820   1.55082
 Alpha virt. eigenvalues --    1.55924   1.57320   1.57367   1.57896   1.60045
 Alpha virt. eigenvalues --    1.60303   1.61934   1.63265   1.65318   1.67899
 Alpha virt. eigenvalues --    1.68772   1.70141   1.71387   1.71886   1.71933
 Alpha virt. eigenvalues --    1.72650   1.73699   1.73779   1.75033   1.76450
 Alpha virt. eigenvalues --    1.78161   1.78970   1.80533   1.81945   1.82441
 Alpha virt. eigenvalues --    1.84342   1.84771   1.84976   1.85491   1.86667
 Alpha virt. eigenvalues --    1.86977   1.90419   1.91416   1.92439   1.92576
 Alpha virt. eigenvalues --    1.93936   1.95094   1.95727   1.96595   1.98488
 Alpha virt. eigenvalues --    2.00718   2.01757   2.02620   2.05336   2.06871
 Alpha virt. eigenvalues --    2.07065   2.08236   2.09800   2.11606   2.14198
 Alpha virt. eigenvalues --    2.17912   2.23140   2.24491   2.24530   2.27353
 Alpha virt. eigenvalues --    2.28882   2.30333   2.34668   2.37194   2.39538
 Alpha virt. eigenvalues --    2.41216   2.43268   2.46653   2.48913   2.50718
 Alpha virt. eigenvalues --    2.52496   2.54502   2.62132   2.66265   2.69081
 Alpha virt. eigenvalues --    2.69203   2.73376   2.75074   2.79404   2.81427
 Alpha virt. eigenvalues --    2.81730   2.82525   2.82882   2.89469   2.94795
 Alpha virt. eigenvalues --    2.95559   3.08078   3.18326   3.34612   3.50400
 Alpha virt. eigenvalues --    3.53786   3.59817   3.69856   4.80386
          Condensed to atoms (all electrons):
               1          2          3          4          5          6
     1  C    4.739741   0.475577   0.015534  -0.053274  -0.010593   0.506967
     2  C    0.475577   5.413772   0.255132  -0.072061  -0.075994  -0.001043
     3  C    0.015534   0.255132   4.910116   0.515904  -0.002392  -0.071096
     4  C   -0.053274  -0.072061   0.515904   4.816927   0.513720  -0.014229
     5  C   -0.010593  -0.075994  -0.002392   0.513720   4.728017   0.502630
     6  C    0.506967  -0.001043  -0.071096  -0.014229   0.502630   4.734110
     7  H    0.405034  -0.040788   0.009459  -0.000568   0.008152  -0.038638
     8  H   -0.000580   0.010653  -0.023502   0.394142  -0.041149   0.007325
     9  H    0.008529  -0.000249   0.008128  -0.038047   0.405517  -0.043413
    10  H   -0.042772   0.009603  -0.000576   0.008710  -0.042541   0.407905
    11  N    0.003800  -0.045606   0.428658  -0.044880   0.003014   0.000322
    12  S   -0.067091   0.340582  -0.141667   0.002742   0.000069   0.004433
    13  C   -0.000237  -0.000295   0.014411  -0.000015   0.000018  -0.000002
    14  C   -0.000006   0.000019   0.000368   0.000009  -0.000000  -0.000000
    15  C    0.000004  -0.000234   0.000696  -0.000001  -0.000001   0.000000
    16  C    0.000000  -0.000002   0.000003  -0.000000   0.000000   0.000000
    17  H   -0.000004   0.000101  -0.000004   0.000000   0.000000   0.000000
    18  C    0.000000   0.000011  -0.000049  -0.000001  -0.000000  -0.000000
    19  C   -0.000000  -0.000000   0.000003  -0.000000   0.000000   0.000000
    20  H   -0.000000  -0.000000  -0.000000   0.000000   0.000000  -0.000000
    21  H   -0.000000   0.000000  -0.000001  -0.000000  -0.000000   0.000000
    22  H    0.000000  -0.000000  -0.000000  -0.000000   0.000000  -0.000000
    23  C    0.003654  -0.059758  -0.086757   0.007148   0.000484  -0.000464
    24  O    0.000002  -0.000214  -0.001444   0.000136   0.000001  -0.000000
    25  H    0.000213   0.026765  -0.010880  -0.032907  -0.000949   0.000001
               7          8          9         10         11         12
     1  C    0.405034  -0.000580   0.008529  -0.042772   0.003800  -0.067091
     2  C   -0.040788   0.010653  -0.000249   0.009603  -0.045606   0.340582
     3  C    0.009459  -0.023502   0.008128  -0.000576   0.428658  -0.141667
     4  C   -0.000568   0.394142  -0.038047   0.008710  -0.044880   0.002742
     5  C    0.008152  -0.041149   0.405517  -0.042541   0.003014   0.000069
     6  C   -0.038638   0.007325  -0.043413   0.407905   0.000322   0.004433
     7  H    0.648903   0.000028  -0.000143  -0.011628  -0.000105  -0.007210
     8  H    0.000028   0.636703  -0.011599  -0.000116  -0.006673  -0.000255
     9  H   -0.000143  -0.011599   0.655075  -0.012226  -0.000092   0.000022
    10  H   -0.011628  -0.000116  -0.012226   0.656278   0.000005  -0.000132
    11  N   -0.000105  -0.006673  -0.000092   0.000005   5.624126  -0.041070
    12  S   -0.007210  -0.000255   0.000022  -0.000132  -0.041070  15.450029
    13  C    0.000005   0.000061  -0.000000  -0.000000  -0.019495  -0.072563
    14  C    0.000001   0.000001   0.000000  -0.000000   0.003766  -0.006482
    15  C   -0.000000  -0.000015   0.000000   0.000000  -0.007231   0.004035
    16  C   -0.000000  -0.000000  -0.000000  -0.000000  -0.000081   0.000054
    17  H    0.000001   0.000000   0.000000  -0.000000   0.000264   0.006354
    18  C    0.000000  -0.000001   0.000000  -0.000000  -0.000712  -0.000093
    19  C    0.000000   0.000000  -0.000000   0.000000   0.000020   0.000013
    20  H    0.000000  -0.000000   0.000000   0.000000   0.000001   0.000001
    21  H   -0.000000   0.000000  -0.000000   0.000000  -0.000000   0.000003
    22  H    0.000000  -0.000000  -0.000000  -0.000000  -0.000000  -0.000000
    23  C    0.000223  -0.000639   0.000006   0.000003   0.489999   0.299086
    24  O    0.000000  -0.000180  -0.000000  -0.000000  -0.015173  -0.000024
    25  H    0.000010   0.000962  -0.000021   0.000000   0.337951   0.011053
              13         14         15         16         17         18
     1  C   -0.000237  -0.000006   0.000004   0.000000  -0.000004   0.000000
     2  C   -0.000295   0.000019  -0.000234  -0.000002   0.000101   0.000011
     3  C    0.014411   0.000368   0.000696   0.000003  -0.000004  -0.000049
     4  C   -0.000015   0.000009  -0.000001  -0.000000   0.000000  -0.000001
     5  C    0.000018  -0.000000  -0.000001   0.000000   0.000000  -0.000000
     6  C   -0.000002  -0.000000   0.000000   0.000000   0.000000  -0.000000
     7  H    0.000005   0.000001  -0.000000  -0.000000   0.000001   0.000000
     8  H    0.000061   0.000001  -0.000015  -0.000000   0.000000  -0.000001
     9  H   -0.000000   0.000000   0.000000  -0.000000   0.000000   0.000000
    10  H   -0.000000  -0.000000   0.000000  -0.000000  -0.000000  -0.000000
    11  N   -0.019495   0.003766  -0.007231  -0.000081   0.000264  -0.000712
    12  S   -0.072563  -0.006482   0.004035   0.000054   0.006354  -0.000093
    13  C    5.535410   0.421102   0.159001  -0.003192  -0.043987  -0.040808
    14  C    0.421102   4.870219   0.014198   0.537058   0.400997  -0.067352
    15  C    0.159001   0.014198   4.717976  -0.056010   0.006214   0.445440
    16  C   -0.003192   0.537058  -0.056010   4.772371  -0.032194  -0.015537
    17  H   -0.043987   0.400997   0.006214  -0.032194   0.683960  -0.001085
    18  C   -0.040808  -0.067352   0.445440  -0.015537  -0.001085   4.945613
    19  C   -0.052801  -0.015875  -0.001695   0.471473   0.008560   0.484947
    20  H    0.009272  -0.036894  -0.000159   0.399941  -0.012182   0.008470
    21  H    0.016082  -0.000593  -0.024086   0.007751   0.000057   0.370292
    22  H   -0.001726   0.009711   0.008487  -0.047012  -0.000205  -0.038923
    23  C    0.337688  -0.102572  -0.070635   0.006450  -0.020680   0.012769
    24  O   -0.102591   0.006431   0.698555  -0.000231  -0.000076  -0.071455
    25  H   -0.061095  -0.000871  -0.004115   0.000069  -0.000096   0.003851
              19         20         21         22         23         24
     1  C   -0.000000  -0.000000  -0.000000   0.000000   0.003654   0.000002
     2  C   -0.000000  -0.000000   0.000000  -0.000000  -0.059758  -0.000214
     3  C    0.000003  -0.000000  -0.000001  -0.000000  -0.086757  -0.001444
     4  C   -0.000000   0.000000  -0.000000  -0.000000   0.007148   0.000136
     5  C    0.000000   0.000000  -0.000000   0.000000   0.000484   0.000001
     6  C    0.000000  -0.000000   0.000000  -0.000000  -0.000464  -0.000000
     7  H    0.000000   0.000000  -0.000000   0.000000   0.000223   0.000000
     8  H    0.000000  -0.000000   0.000000  -0.000000  -0.000639  -0.000180
     9  H   -0.000000   0.000000  -0.000000  -0.000000   0.000006  -0.000000
    10  H    0.000000   0.000000   0.000000  -0.000000   0.000003  -0.000000
    11  N    0.000020   0.000001  -0.000000  -0.000000   0.489999  -0.015173
    12  S    0.000013   0.000001   0.000003  -0.000000   0.299086  -0.000024
    13  C   -0.052801   0.009272   0.016082  -0.001726   0.337688  -0.102591
    14  C   -0.015875  -0.036894  -0.000593   0.009711  -0.102572   0.006431
    15  C   -0.001695  -0.000159  -0.024086   0.008487  -0.070635   0.698555
    16  C    0.471473   0.399941   0.007751  -0.047012   0.006450  -0.000231
    17  H    0.008560  -0.012182   0.000057  -0.000205  -0.020680  -0.000076
    18  C    0.484947   0.008470   0.370292  -0.038923   0.012769  -0.071455
    19  C    4.757418  -0.047560  -0.047902   0.402596   0.000010   0.005201
    20  H   -0.047560   0.691627  -0.000174  -0.012782  -0.000393   0.000000
    21  H   -0.047902  -0.000174   0.686825  -0.012990  -0.000501   0.005976
    22  H    0.402596  -0.012782  -0.012990   0.680267   0.000013  -0.000083
    23  C    0.000010  -0.000393  -0.000501   0.000013   5.162832  -0.018220
    24  O    0.005201   0.000000   0.005976  -0.000083  -0.018220   7.808236
    25  H   -0.000326  -0.000000   0.000000   0.000004   0.008868   0.065012
              25
     1  C    0.000213
     2  C    0.026765
     3  C   -0.010880
     4  C   -0.032907
     5  C   -0.000949
     6  C    0.000001
     7  H    0.000010
     8  H    0.000962
     9  H   -0.000021
    10  H    0.000000
    11  N    0.337951
    12  S    0.011053
    13  C   -0.061095
    14  C   -0.000871
    15  C   -0.004115
    16  C    0.000069
    17  H   -0.000096
    18  C    0.003851
    19  C   -0.000326
    20  H   -0.000000
    21  H    0.000000
    22  H    0.000004
    23  C    0.008868
    24  O    0.065012
    25  H    0.865121
 Mulliken charges:
               1
     1  C    0.015504
     2  C   -0.235970
     3  C    0.179957
     4  C   -0.003455
     5  C    0.012000
     6  C    0.005193
     7  H    0.027265
     8  H    0.034833
     9  H    0.028514
    10  H    0.027486
    11  N    0.289190
    12  S    0.218110
    13  C   -0.094243
    14  C   -0.033234
    15  C    0.109578
    16  C   -0.040912
    17  H    0.004005
    18  C   -0.035380
[...]
 42,0.00000304,-0.00000016,-0.00000018,0.00002959,0.,0.,-0.00004345,0.,
 0.,-0.00002043,0.,0.,0.00002059,0.,0.,0.00003423,0.00000029,-0.0000012
 8,0.00201694,0.00000036,-0.00000011,-0.00064370,0.00000215,0.00000271,
 0.00167763,-0.00000039,-0.00000839,-0.05499948,0.00000198,-0.00000128,
 -0.00544989,0.00000935,0.00003106,0.12255231,0.00019976,0.00006548,0.,
 -0.00054240,0.00027379,0.00000006,0.00036894,-0.00017670,-0.00000007,-
 0.00008083,0.00009809,0.,0.00005552,-0.00006944,0.,0.00002515,-0.00003
 605,0.,-0.00001744,-0.00000647,0.,0.00003242,0.00000396,0.,0.00001078,
 -0.00000393,0.,0.00003226,-0.00000442,0.,0.00063280,0.00050143,0.00000
 013,-0.00045516,0.00103041,-0.00000027,-0.00601789,-0.03058600,-0.0000
 0225,-0.09529314,-0.09579971,-0.00000707,-0.00408044,0.00387634,-0.000
 00034,0.01069971,0.01983434,0.00000142,0.09818615,0.00001245,-0.000027
 55,-0.00000002,-0.00017933,0.00046389,-0.00000013,0.00023824,0.0000595
 7,-0.00000008,-0.00003149,0.00002968,0.,0.00001642,0.00002741,0.,-0.00
 007084,0.00000409,0.00000001,-0.00000680,0.00001333,0.,0.00001233,-0.0
 0000318,0.,-0.00000282,0.00000065,0.,-0.00000434,0.00000265,0.,0.00007
 673,0.00017480,0.00000019,-0.00058573,-0.00036139,0.00000001,0.0007436
 0,-0.00169436,-0.00000056,-0.09456025,-0.30060171,-0.00001973,0.000283
 61,0.00226314,-0.00000061,-0.01218568,-0.01680313,-0.00000157,0.101792
 40,0.31820611,0.,0.00000014,0.00004158,0.00000039,0.00000017,-0.000244
 42,0.00000053,-0.00000058,0.00079091,-0.00000036,0.00000006,0.00006900
 ,0.00000002,-0.00000026,-0.00001603,0.00000013,0.00000010,-0.00001678,
 0.,0.,0.00003741,0.00000001,0.,0.00003285,0.,0.,-0.00000569,0.,0.,-0.0
 0001675,0.00000021,0.00000139,-0.00162631,-0.00000058,-0.00000006,0.00
 113108,0.00000103,-0.00000300,0.00877795,-0.00000777,-0.00001913,-0.03
 671016,-0.00000077,0.00000098,0.00996811,-0.00000058,-0.00000123,0.003
 80756,0.00000805,0.00002202,0.02098492,-0.00155651,0.00036195,0.000000
 31,-0.00430249,-0.00377250,0.00000031,-0.00498035,0.01065819,-0.000000
 77,0.00497183,-0.00046972,-0.00000004,-0.00026934,0.00167770,-0.000000
 02,0.00124558,-0.00112882,-0.00000002,-0.00011718,0.00008139,0.,0.0000
 6696,0.00000599,0.,0.00011978,0.00000335,0.,0.00009488,-0.00006970,-0.
 00000007,0.01014364,-0.00124207,0.00000170,0.00102917,-0.00298127,0.00
 000027,0.02625191,0.00984510,0.00000114,-0.03778785,0.02049614,0.00000
 095,-0.11921760,0.05600242,0.00000628,-0.01446444,-0.08664574,-0.00000
 574,-0.00058714,0.00047544,0.00000051,0.64288132,0.00073155,-0.0000252
 9,-0.00000005,0.00027648,0.00014497,0.,0.00101890,-0.00173076,0.000000
 22,-0.00112191,0.00010127,0.,0.00014320,-0.00034510,0.,-0.00038977,0.0
 0014613,0.,0.00000825,0.00000552,0.,-0.00001170,-0.00000774,0.,-0.0000
 2407,-0.00000235,0.,0.00000976,0.00001607,0.00000001,-0.00072266,0.000
 48805,-0.00000051,0.00123708,-0.00054055,0.,0.01063724,-0.02948432,-0.
 00000119,0.00953978,-0.00513355,-0.00000040,0.05879883,-0.21936208,-0.
 00001008,-0.03702033,0.00158322,-0.00000024,-0.00021267,0.00078104,-0.
 00000018,0.06500796,0.67178189,0.00000021,0.00000005,0.00021577,0.0000
 0025,0.00000039,0.00063957,0.00000093,-0.00000099,0.00153129,-0.000000
 44,0.00000003,-0.00016846,0.00000007,-0.00000016,-0.00006650,-0.000000
 10,0.00000012,-0.00013845,0.,0.,0.00013729,0.00000002,0.,0.00010131,-0
 .00000001,0.,0.00000523,0.,0.,-0.00008079,-0.00000093,0.00000222,-0.00
 267373,-0.00000005,-0.00000026,0.00161255,0.00000059,-0.00000278,0.014
 54921,-0.00000087,0.00000151,-0.00569026,0.00000603,-0.00001024,-0.067
 29113,-0.00000206,-0.00000142,0.00814692,0.00000018,0.00000024,-0.0025
 9463,0.00000463,0.00003918,0.10871046,0.00157734,0.00026134,-0.0000002
 6,0.00542624,0.00378380,-0.00000051,0.00682313,-0.01257012,0.00000023,
 -0.00632762,0.00060700,0.00000010,0.00036518,-0.00275968,0.00000009,-0
 .00058672,0.00153022,0.00000003,0.00008548,-0.00007425,-0.00000005,-0.
 00001013,0.00001510,-0.00000005,-0.00010175,-0.00002169,0.,-0.00005017
 ,0.00007317,0.00000008,-0.01079718,0.00682467,-0.00000055,-0.00041270,
 0.00137895,-0.00000038,-0.01553085,-0.01215827,-0.00000154,0.05769097,
 0.00189462,0.00000048,-0.05491224,0.02187581,-0.00000127,-0.14972911,-
 0.02459960,-0.00000168,-0.00278344,0.00447224,0.00000005,-0.30785358,-
 0.06031016,-0.00000302,0.64900997,0.00016623,0.00090604,-0.00000012,0.
 00293355,0.00120685,-0.00000004,0.00315431,-0.00461838,0.00000045,-0.0
 0330484,0.00048640,0.00000004,0.00014797,-0.00225079,0.00000004,0.0008
 2637,0.00083683,-0.00000002,-0.00000153,-0.00003621,0.,0.00000642,0.00
 000243,0.,-0.00000069,-0.00005006,0.,0.00002079,0.00004080,0.00000002,
 -0.00025808,0.00378203,-0.00000085,-0.00164338,0.00030845,0.00000016,-
 0.03195150,-0.00451987,0.00000020,0.05316851,-0.05630551,-0.00000332,-
 0.00511750,0.02558407,-0.00000089,-0.11718366,-0.33098944,-0.00001679,
 0.00342091,-0.00188571,-0.00000073,0.01151197,-0.12621842,-0.00000544,
 -0.05334767,0.72350758,-0.00000002,0.00000003,0.00013058,0.00000013,-0
 .00000006,-0.00032259,-0.00000013,-0.00000004,-0.00103133,-0.00000008,
 0.00000001,0.00008126,-0.00000002,-0.00000007,0.00009109,0.00000005,0.
 ,0.00001887,0.,0.,-0.00005877,0.,0.,-0.00011348,0.,0.,0.00000081,0.,0.
 ,0.00000617,0.00000018,-0.00000050,0.00067325,-0.00000003,0.00000015,0
 .00028151,-0.00000251,-0.00000055,-0.00144921,0.00000395,-0.00000381,0
 .00777503,0.00000079,0.00000320,0.00081072,-0.00000803,-0.00001730,-0.
 05682830,0.00000009,-0.00000033,0.00361511,0.00000020,-0.00000559,-0.0
 5046812,-0.00000271,0.00003913,0.11553481,0.00007488,-0.00010425,0.,-0
 .00011073,0.00012580,0.,-0.00002399,-0.00007163,0.,0.00002450,0.000008
 54,0.,0.00000396,0.00010722,0.,-0.00015338,-0.00001020,0.,0.00000607,0
 .00000610,0.,0.00000140,-0.00000380,0.,-0.00001036,0.00000713,0.,-0.00
 000918,0.00000370,0.,-0.00018657,0.00036471,0.,0.00003625,0.00000934,0
 .,0.00014431,0.00324036,0.00000025,-0.01424548,-0.00745230,-0.00000064
 ,0.00057743,0.00040249,0.00000004,-0.33524094,-0.05970205,-0.00000571,
 0.00066539,0.00010932,0.,0.00138030,-0.00175845,-0.00000019,-0.0049253
 2,0.00247860,0.00000009,0.35235152,0.00000155,0.00000969,0.,-0.0000375
 3,-0.00008338,0.,0.00002707,0.00017716,-0.00000004,0.00004264,-0.00004
 961,0.,0.00001207,0.00002793,0.,0.00000343,-0.00002378,0.,-0.00000049,
 -0.00000228,0.,0.00000057,0.00000151,0.,0.00000384,-0.00000385,0.,0.00
 000277,-0.00000180,0.,0.00037921,-0.00041999,0.,0.00001327,0.00003168,
 -0.00000001,0.00290327,-0.00409345,-0.00000051,0.02330261,0.00751433,0
 .00000046,0.00053758,-0.00089993,0.00000010,-0.05901956,-0.07140738,-0
 .00000290,-0.00033061,0.00086421,0.00000020,-0.00102612,-0.00524833,-0
 .00000081,-0.02906082,0.00110359,-0.00000041,0.06308293,0.07040747,0.,
 0.,-0.00000241,-0.00000003,0.,0.00008209,0.00000003,0.00000004,0.00045
 554,0.00000002,0.,0.00005235,0.,0.00000001,-0.00005706,0.,0.,0.0000027
 8,0.,0.,0.00001399,0.,0.,0.00003531,0.,0.,-0.00001554,0.,0.,-0.0000083
 2,-0.00000005,0.00000004,0.00017767,0.,0.,-0.00015823,-0.00000022,-0.0
 0000018,0.00383064,0.00000120,-0.00000005,0.00444949,0.,-0.00000028,-0
 .00153916,-0.00000549,-0.00000293,-0.03406225,-0.00000001,0.00000023,-
 0.00205433,0.00000010,-0.00000052,0.00678451,-0.00000174,-0.00000041,0
 .00638105,0.00000614,0.00000342,0.02143851,-0.00012400,0.00003258,0.,0
 .00011290,0.00005021,0.,-0.00010337,0.00007103,0.,0.00004121,0.0000131
 4,0.,-0.00002155,-0.00004392,0.,0.00009462,0.00001656,0.,-0.00000041,-
 0.00000436,0.,-0.00000507,0.00000020,0.,0.00000324,-0.00000103,0.,-0.0
 0000276,-0.00000167,0.,0.00022946,-0.00015339,-0.00000001,-0.00030351,
 0.00014875,0.00000002,-0.00330299,0.00312674,0.00000012,-0.00007284,0.
 00033164,0.,0.00978082,0.02025655,0.00000165,-0.00604975,0.00042852,0.
 00000001,0.00008576,-0.00009888,0.,-0.09047245,-0.09395713,-0.00000701
 ,-0.00394505,-0.02894289,-0.00000213,-0.00040104,-0.00145535,-0.000000
 07,0.09099095,0.00003683,0.00005926,0.00000004,-0.00010662,-0.00014871
 ,0.00000004,0.00004430,0.00005778,0.00000004,-0.00000438,-0.00000052,0
 .,0.00000908,-0.00004190,0.,0.00005996,-0.00001683,0.,-0.00000657,0.00
 000199,0.,0.00000637,0.00000345,0.,0.00000778,-0.00000403,0.,0.0000117
 6,-0.00000213,0.,-0.00012853,0.00007360,-0.00000009,0.00031788,-0.0001
 8807,0.00000009,0.00392943,-0.00250812,-0.00000024,0.00054370,0.000317
 56,0.00000002,-0.01417918,-0.01723071,-0.00000165,-0.00047171,0.001486
 70,-0.00000029,-0.00008110,-0.00006121,-0.00000011,-0.09320022,-0.3108
 3433,-0.00002094,0.00258811,0.00009912,-0.00000049,0.00007443,-0.00012
 375,0.00000008,0.10137034,0.32645767,0.,-0.00000009,-0.00035573,-0.000
 00030,-0.00000011,-0.00039883,-0.00000034,0.00000043,-0.00019879,0.000
 00025,-0.00000003,0.00003228,-0.00000001,0.00000017,-0.00004070,-0.000
 00007,-0.00000007,0.00009240,0.,0.,-0.00004707,0.,0.,0.00001965,0.,0.,
 -0.00000513,0.,0.,0.00008025,0.00000007,-0.00000076,0.00069570,0.00000
 017,0.00000006,-0.00090005,0.00000039,0.00000034,0.00196773,0.00000037
 ,-0.00000058,0.00016378,-0.00000267,-0.00000249,0.00407508,-0.00000005
 ,-0.00000038,0.00510970,-0.00000008,-0.00000005,0.00047612,-0.00000675
 ,-0.00002137,-0.03069316,0.00000060,0.00000059,0.00426143,0.,0.0000000
 2,-0.00040159,0.00000761,0.00002329,0.02028774,0.00004517,-0.00002388,
 0.,0.00000501,0.00010777,-0.00000002,0.00015493,-0.00011632,-0.0000000
 5,-0.00007271,0.00000329,0.,0.00001297,0.00000406,0.,-0.00005900,0.000
 01126,0.,0.00000203,0.00000288,0.,0.00000597,-0.00000287,0.,-0.0000059
 4,0.00000172,0.,-0.00000390,0.00000349,0.,0.00010837,0.00030652,0.0000
 0007,-0.00007975,0.00007259,-0.00000005,-0.00043138,-0.00044877,-0.000
 00017,0.00054932,-0.00249536,-0.00000011,-0.00253783,-0.00422998,-0.00
 000017,0.00980997,-0.00987887,-0.00000064,0.00037907,-0.00044094,0.000
 00006,-0.01317645,0.02506423,0.00000163,-0.17935614,0.14283362,0.00000
 887,0.00069271,0.00037985,0.00000004,0.00106868,-0.00033699,-0.0000000
 5,0.18495913,-0.00000189,0.00006404,0.,0.00014166,0.00007283,-0.000000
 03,0.00017450,-0.00027519,-0.00000003,-0.00015573,0.00002622,0.,0.0000
 0468,-0.00012827,0.,0.00007627,0.00004176,0.,-0.00000383,-0.00000471,0
 .,0.00000184,0.00000364,0.,0.00000486,-0.00000355,0.,0.00000588,-0.000
 00146,0.,-0.00022386,0.00006836,0.00000004,-0.00008278,0.00001834,-0.0
 0000001,-0.00054100,0.00033019,-0.00000004,-0.00313295,-0.00387993,-0.
 00000066,-0.00227764,0.00017600,-0.00000030,0.02191070,-0.01580275,-0.
 00000117,0.00099097,-0.00107517,-0.00000009,-0.00607211,0.00750357,0.0
 0000037,0.14101212,-0.22470819,-0.00001232,-0.00015051,0.00100425,0.00
 000041,0.00030750,0.00062299,0.00000020,-0.15198423,0.23520697,-0.0000
 0003,0.00000006,0.00000984,0.00000015,0.00000003,0.00009442,0.00000015
 ,-0.00000018,0.00018887,-0.00000013,0.00000003,0.00000534,0.,-0.000000
 11,-0.00000310,0.00000007,0.00000004,-0.00000942,0.,0.,0.00001122,0.,0
 .,0.00001475,0.,0.,-0.00000034,0.,0.,-0.00001070,0.00000008,0.00000028
 ,-0.00020945,-0.00000010,-0.00000005,-0.00004192,0.00000024,-0.0000001
 9,-0.00060548,-0.00000017,-0.00000046,0.00636799,-0.00000059,-0.000000
 58,0.00629324,0.00000154,-0.00000087,0.00366813,0.00000006,-0.00000009
 ,0.00039385,0.00000037,0.00000034,0.00312786,0.00000804,-0.00001271,-0
 .03391766,0.00000005,0.00000036,-0.00431104,0.00000003,0.00000032,-0.0
 0326661,-0.00000956,0.00001344,0.02353415,-0.00198730,-0.00714190,0.00
 000004,-0.00264753,0.02174361,-0.00000003,-0.05348881,0.03014272,-0.00
 000116,0.00583100,-0.00275532,0.,-0.00101738,0.00477181,-0.00000003,-0
 .00554949,-0.00197070,0.00000003,0.00027593,-0.00073365,0.00000003,-0.
 00069226,-0.00006084,-0.00000004,0.00020414,-0.00011875,0.,-0.00066130
 ,-0.00020288,0.00000006,-0.35289639,-0.03385977,0.00000428,-0.04941870
 ,-0.04744769,0.00000273,-0.14879555,0.06112676,0.00000594,-0.04012112,
 0.03246305,0.00000153,0.04424807,0.01156139,-0.00000027,-0.00424568,-0
 .00969078,0.00000038,0.00017774,0.00073151,-0.00000129,-0.00604006,-0.
 00257193,-0.00000082,-0.00035092,0.00405739,0.00000072,-0.00050953,0.0
 0069541,0.00000005,0.00063168,-0.00108567,0.00000027,0.00007830,-0.000
 05315,-0.00000039,0.64216078,-0.00041580,-0.00063158,0.00000004,0.0214
 8075,-0.01772432,0.00000123,0.01727267,0.01219626,-0.00000113,0.001529
 99,-0.00620470,0.00000053,-0.00036020,-0.00088983,0.00000011,0.0013164
 8,-0.00083420,-0.00000005,0.00012295,-0.00043832,0.00000005,-0.0004158
 6,0.00008559,-0.00000005,0.00027205,-0.00048054,-0.00000003,-0.0002220
 6,0.00005042,-0.00000002,-0.02604510,-0.12608519,0.00000303,-0.0091946
 2,-0.17832025,0.00000799,0.04206731,-0.16812830,-0.00000509,0.02412579
 ,0.00941330,0.00000052,0.01703133,-0.04708886,-0.00000233,-0.00406579,
 0.00204910,-0.00000120,-0.00161613,0.00020934,0.00000142,-0.01298507,-
 0.00320119,0.,0.00780732,-0.00069761,-0.00000008,-0.00067577,0.0009333
 8,-0.00000005,0.00076558,-0.00065297,-0.00000052,0.00001163,0.00035795
 ,0.00000038,-0.06086512,0.51155281,0.00000026,0.00000007,0.00073739,-0
 .00000147,-0.00000003,-0.00112980,-0.00000048,0.00000048,0.00430259,0.
 00000024,0.00000018,0.00138610,0.00000007,0.00000016,0.00122475,-0.000
 00005,-0.00000003,0.00069059,0.,0.00000003,-0.00031414,0.00000002,-0.0
 0000002,-0.00058850,0.,0.,-0.00040836,0.00000003,0.,-0.00020454,0.0000
 0693,0.00000327,-0.02172533,0.00000212,0.00000552,-0.01623138,-0.00000
 199,-0.00000038,-0.03250090,0.00000095,0.00000251,0.00701570,0.0000028
 0,-0.00000395,0.00340921,0.00000023,-0.00000230,0.00526247,0.00000009,
 0.00000028,-0.00401370,-0.00000316,0.00000012,-0.00095365,0.00000285,0
 .00000012,-0.00038615,0.,0.00000012,-0.00104699,0.00000002,-0.00000023
 ,0.00242705,0.00000009,0.00000014,-0.00060844,-0.00001105,-0.00000614,
 0.06201279,-0.00055650,0.00130811,0.00000021,-0.00052237,0.00015097,-0
 .00000026,0.00487091,0.00109637,-0.00000082,-0.00022889,-0.00005854,0.
 00000010,0.00004738,-0.00099791,0.00000010,0.00162970,0.00015104,0.,-0
 .00014577,0.00011893,-0.00000004,0.00026759,0.00009677,-0.00000008,0.0
 0007048,-0.00000878,0.,0.00010432,-0.00000739,-0.00000004,0.00389957,0
 .02037607,0.00000343,0.00019916,-0.00151666,-0.00000032,-0.03833644,-0
 .05368273,-0.00000302,0.00305406,-0.00507709,-0.00000019,-0.55835242,-
 0.08035984,-0.00000912,-0.00971601,-0.00877121,-0.00000065,-0.00188287
 ,-0.00090379,0.00000013,-0.08893380,0.02568192,0.00000055,0.01720557,0
 .01687478,0.00000074,-0.00020566,-0.00046386,-0.00000002,0.00180648,0.
 00060811,0.00000070,-0.00229891,0.00010118,0.00000014,-0.02064216,0.00
 780133,-0.00000009,0.68501385,-0.00032794,-0.00019755,-0.00000003,0.00
 074516,-0.00162454,0.00000033,-0.00451836,-0.00113427,0.00000023,0.000
 32692,-0.00028002,0.,0.00000203,0.00033420,-0.00000001,0.00000805,-0.0
 0033173,0.,0.00004474,-0.00015311,0.00000002,0.00006442,0.00003299,0.,
 0.00007308,-0.00005538,0.,0.00001572,-0.00002814,0.,0.01309594,-0.0189
 3884,-0.00000313,0.00024597,0.00152782,-0.00000012,-0.05060228,-0.0129
 7704,-0.00000003,-0.00072534,-0.01089786,-0.00000145,-0.07796754,-0.09
 643345,-0.00000202,0.00062488,-0.00142136,0.00000016,-0.00255988,-0.00
 041076,-0.00000054,0.03517092,0.02003922,-0.00000065,0.00174312,-0.003
 15578,-0.00000100,-0.00010232,0.00035348,0.00000021,-0.00233856,0.0026
 5681,0.00000104,0.00146514,0.00038189,0.00000014,0.00183459,0.00896742
 ,0.00000106,0.08382256,0.13205631,-0.00000016,0.,0.00022670,0.00000029
 ,-0.00000044,-0.00026825,-0.00000092,0.,-0.00028758,0.00000006,0.,0.00
 009545,-0.00000005,-0.00000003,0.00019059,0.00000012,-0.00000006,0.000
 03755,0.00000001,-0.00000003,-0.00008714,0.,0.,-0.00021332,0.00000001,
 0.,-0.00001840,0.,0.,-0.00006517,0.00000193,-0.00000319,0.00714680,-0.
 00000003,0.00000039,-0.00082649,-0.00000155,-0.00000293,0.01912787,-0.
 00000056,-0.00000032,0.00244356,-0.00000890,-0.00000152,-0.05465604,-0
 .00000006,-0.00000078,0.00021520,0.,0.00000014,-0.00218650,0.00000017,
 0.00000043,0.01601186,0.00000083,0.00000050,0.00429768,0.,0.,0.0000779
 9,-0.00000023,0.00000019,-0.00374217,0.00000006,0.00000002,-0.00056971
 ,0.00000060,0.00000145,-0.00327362,0.00000900,0.00000745,0.01947800,0.
 00146442,0.00041256,0.,-0.00263393,0.00607145,-0.00000031,0.01580612,0
 .02410165,-0.00000154,0.00120980,0.00176207,0.00000022,-0.00033551,-0.
 00032737,0.00000002,-0.00045343,0.00000049,0.,-0.00019147,0.00031814,-
 0.00000001,-0.00203465,-0.00083318,-0.00000004,0.00000272,-0.00001382,
 0.,-0.00006314,-0.00008771,0.00000001,-0.18634950,-0.22212426,0.000013
 77,-0.00400278,-0.00118299,0.00000007,0.00195889,0.00012831,-0.0000005
 7,-0.00002207,-0.00012210,0.00000006,-0.00762298,-0.00011370,0.0000000
 6,0.00027414,0.00024303,-0.00000014,0.00018931,0.00010657,0.00000025,0
 .00157387,-0.00005438,0.00000042,-0.00051096,0.00015033,-0.00000013,0.
 00006345,0.00000628,0.00000003,-0.00004101,-0.00000708,-0.00000011,0.0
 0015040,-0.00005248,0.00000003,-0.00454349,-0.02474366,0.00000161,0.00
 365274,-0.00014102,-0.00000061,0.18245906,-0.00046351,-0.00063286,0.00
 000009,0.00308205,-0.00140213,0.00000032,-0.00717465,-0.03011093,0.000
 00222,-0.00191980,0.00253450,0.00000041,-0.00034143,-0.00111660,-0.000
 00003,-0.00013216,0.00074681,-0.00000002,0.00018897,-0.00011314,0.,0.0
 0084134,-0.00033558,-0.00000002,-0.00015083,0.00016636,0.,-0.00000423,
 0.00006598,-0.00000002,-0.21054366,-0.39821751,0.00002823,0.00274254,0
 .00520680,-0.00000038,-0.00385837,0.00216658,0.00000098,0.00301829,-0.
 00137150,-0.00000029,0.01069489,0.00326740,0.00000061,-0.00227497,0.00
 304915,0.00000055,-0.00040500,-0.00017576,-0.00000058,-0.00170516,-0.0
 0045695,-0.00000044,-0.00096532,-0.00242823,0.00000002,0.00001061,-0.0
 0007115,-0.00000002,0.00007783,-0.00002365,0.00000029,-0.00030983,0.00
 000022,-0.00000017,-0.00057009,0.00556229,-0.00000097,-0.00634037,-0.0
 1831031,-0.00000126,0.21650287,0.43200022,0.00000010,0.00000014,0.0005
 5771,0.00000003,0.00000050,0.00352730,0.00000162,0.00000087,0.00493709
 ,-0.00000001,0.00000048,-0.00136825,0.00000006,-0.00000019,-0.00062755
 ,0.00000007,0.00000007,-0.00001273,-0.00000003,0.00000002,-0.00006867,
 -0.00000002,-0.00000013,0.00018217,0.,0.,0.00011253,0.,0.,-0.00000875,
 0.00001375,0.00002970,-0.00662623,-0.00000033,-0.00000008,0.00410211,0
 .00000034,-0.00000078,-0.00005736,-0.00000110,0.00000066,-0.00044877,0
 .00000020,0.00000090,0.00044839,0.00000038,-0.00000080,0.00048313,0.00
 000002,0.00000006,-0.00064116,-0.00000035,-0.00000019,-0.00075495,0.00
 000037,0.00000006,0.00061625,-0.00000001,0.,-0.00012499,0.00000001,-0.
 00000005,0.00036092,0.,0.00000004,-0.00015579,-0.00000157,-0.00000008,
 -0.00508312,-0.00000043,-0.00000166,-0.00315484,-0.00001312,-0.0000295
 1,0.00380556\\0.00204758,0.00562530,-0.00000028,0.00810672,0.01105131,
 -0.00000058,0.01394221,-0.00003873,0.00000019,-0.00164944,0.00289398,0
 .00000012,-0.00028639,-0.00349475,0.00000016,0.00255101,0.00251834,-0.
 00000019,-0.00005284,0.00075796,-0.00000017,0.00037767,0.00006200,0.00
 000005,0.00004204,0.00025483,0.,0.00021076,0.00026805,-0.00000005,-0.0
 2063056,0.01314412,0.00000214,0.00460116,0.01182709,-0.00000070,-0.012
 25334,0.00764956,0.00000312,0.01171158,-0.00109668,0.00000025,0.021149
 42,0.00398979,-0.00000425,-0.00442437,0.01155874,-0.00000008,0.0002348
 0,-0.00001150,0.00000011,-0.00490522,0.00040734,0.00000126,-0.00743574
 ,-0.00117162,0.00000016,-0.00022849,-0.00000277,0.00000001,-0.00042799
 ,0.00000028,-0.00000006,-0.00075410,-0.00019047,0.00000008,-0.01289489
 ,-0.00876426,-0.00000217,-0.01125630,-0.01665430,0.00000057,0.01222471
 ,-0.04058361,0.00000034\\\@
 The archive entry for this job was punched.


 KNOWING HOW CONTENTED, FREE, AND JOYFUL IS LIFE IN
 THE REALMS OF SCIENCE, ONE FERVENTLY WISHES THAT
 MANY WOULD ENTER HER PORTALS.
   --  DMITRI IVANOVICH MENDELEEV
 "FIRST PRINCIPLES OF CHEMISTRY", LONGMANS, GREEN,
 AND CO.  LONDON, 1891
 Job cpu time:       0 days  2 hours 51 minutes 33.3 seconds.
 Elapsed time:       0 days  0 hours 17 minutes 41.0 seconds.
 File lengths (MBytes):  RWF=   1376 Int=      0 D2E=      0 Chk=     48 Scr=      8
 Normal termination of Gaussian 16 at Tue Jul 14 12:01:49 2020.
