 Entering Gaussian System, Link 0=g16
 Initial command:
 /gpfs/loomis/apps/avx/software/Gaussian/16-C.01_AVX/g16/l1.exe "/home/fas/batista/pev4/scratch60/gauss-scratch/Gau-233355.inp" -scrdir="/home/fas/batista/pev4/scratch60/gauss-scratch/"
 Entering Link 1 = /gpfs/loomis/apps/avx/software/Gaussian/16-C.01_AVX/g16/l1.exe PID=    233356.
  
 Copyright (c) 1988-2019, Gaussian, Inc.  All Rights Reserved.
  
 This is part of the Gaussian(R) 16 program.  It is based on
 the Gaussian(R) 09 system (copyright 2009, Gaussian, Inc.),
 the Gaussian(R) 03 system (copyright 2003, Gaussian, Inc.),
 the Gaussian(R) 98 system (copyright 1998, Gaussian, Inc.),
 the Gaussian(R) 94 system (copyright 1995, Gaussian, Inc.),
 the Gaussian 92(TM) system (copyright 1992, Gaussian, Inc.),
 the Gaussian 90(TM) system (copyright 1990, Gaussian, Inc.),
 the Gaussian 88(TM) system (copyright 1988, Gaussian, Inc.),
 the Gaussian 86(TM) system (copyright 1986, Carnegie Mellon
 University), and the Gaussian 82(TM) system (copyright 1983,
 Carnegie Mellon University). Gaussian is a federally registered
 trademark of Gaussian, Inc.
  
 This software contains proprietary and confidential information,
 including trade secrets, belonging to Gaussian, Inc.
  
 This software is provided under written license and may be
 used, copied, transmitted, or stored only in accord with that
 written license.
  
 The following legend is applicable only to US Government
 contracts under FAR:
  
                    RESTRICTED RIGHTS LEGEND
  
 Use, reproduction and disclosure by the US Government is
 subject to restrictions as set forth in subparagraphs (a)
 and (c) of the Commercial Computer Software - Restricted
 Rights clause in FAR 52.227-19.
  
 Gaussian, Inc.
 340 Quinnipiac St., Bldg. 40, Wallingford CT 06492
  
  
 ---------------------------------------------------------------
 Warning -- This program may not be used in any manner that
 competes with the business of Gaussian, Inc. or will provide
 assistance to any competitor of Gaussian, Inc.  The licensee
 of this program is prohibited from giving any competitor of
 Gaussian, Inc. access to this program.  By using this program,
 the user acknowledges that Gaussian, Inc. is engaged in the
 business of creating and licensing software in the field of
 computational chemistry and represents and warrants to the
 licensee that it is not a competitor of Gaussian, Inc. and that
 it will not use this program in any manner prohibited above.
 ---------------------------------------------------------------
  

 Cite this work as:
 Gaussian 16, Revision C.01,
 M. J. Frisch, G. W. Trucks, H. B. Schlegel, G. E. Scuseria, 
 M. A. Robb, J. R. Cheeseman, G. Scalmani, V. Barone, 
 G. A. Petersson, H. Nakatsuji, X. Li, M. Caricato, A. V. Marenich, 
 J. Bloino, B. G. Janesko, R. Gomperts, B. Mennucci, H. P. Hratchian, 
 J. V. Ortiz, A. F. Izmaylov, J. L. Sonnenberg, D. Williams-Young, 
 F. Ding, F. Lipparini, F. Egidi, J. Goings, B. Peng, A. Petrone, 
 T. Henderson, D. Ranasinghe, V. G. Zakrzewski, J. Gao, N. Rega, 
 G. Zheng, W. Liang, M. Hada, M. Ehara, K. Toyota, R. Fukuda, 
 J. Hasegawa, M. Ishida, T. Nakajima, Y. Honda, O. Kitao, H. Nakai, 
 T. Vreven, K. Throssell, J. A. Montgomery, Jr., J. E. Peralta, 
 F. Ogliaro, M. J. Bearpark, J. J. Heyd, E. N. Brothers, K. N. Kudin, 
 V. N. Staroverov, T. A. Keith, R. Kobayashi, J. Normand, 
 K. Raghavachari, A. P. Rendell, J. C. Burant, S. S. Iyengar, 
 J. Tomasi, M. Cossi, J. M. Millam, M. Klene, C. Adamo, R. Cammi, 
 J. W. Ochterski, R. L. Martin, K. Morokuma, O. Farkas, 
 J. B. Foresman, and D. J. Fox, Gaussian, Inc., Wallingford CT, 2019.
 
 ******************************************
 Gaussian 16:  ES64L-G16RevC.01  3-Jul-2019
                13-Jul-2020 
 ******************************************
 %chk=config_1_4.chk
 %mem=58GB
 %nprocshared=10
 Will use up to   10 processors via shared memory.
 ----------------------------------------------------------------------
 #p opt=addgic freq td wb97xd/cc-pvdz nosymm int=ultrafine scrf=(solven
 t=CarbonTetraChloride)
 ----------------------------------------------------------------------
 1/18=20,19=15,26=6,38=1,145=903/1,3;
 2/9=110,12=2,15=1,17=6,18=5,40=1/2;
 3/5=16,11=9,25=1,30=1,70=2201,71=1,72=11,74=-58,75=-5/1,2,3,8;
 4//1;
 5/5=2,38=5,53=11/2;
 8/6=1,10=1/1;
 9/15=2,42=1,70=2/14;
 10/5=4,31=1/2;
 6/7=2,8=2,9=2,10=2/1;
 7/12=6,13=5,30=1/1,2,3,16;
 1/18=20,19=15,26=6,145=903/3(2);
 2/9=110,15=1/2;
 99//99;
 2/9=110,15=1/2;
 3/5=16,11=9,25=1,30=1,70=2205,71=1,72=11,74=-58,75=-5/1,2,3,8;
 4/5=5,16=3,69=1/1;
 5/5=2,38=5,53=11/2;
 8/6=1,10=1/1;
 9/15=2,42=1,49=4,70=2/14;
 10/5=4,31=1/2;
 7/12=6,13=5,30=1/1,2,3,16;
 1/18=20,19=15,26=6,145=903/3(-8);
 2/9=110,15=1/2;
 6/7=2,8=2,9=2,10=2/1;
 99/9=10/99;
 Leave Link    1 at Mon Jul 13 19:48:21 2020, MaxMem=  7784628224 cpu:               4.2 elap:               0.5
 (Enter /gpfs/loomis/apps/avx/software/Gaussian/16-C.01_AVX/g16/l101.exe)
 ------------------------------------------------
 NM 2D-scan of HBT TD-WB97XD pVDZ in CTC Relaxed.
 ------------------------------------------------
 Symbolic Z-matrix:
 Charge =  0 Multiplicity = 1
 C                     1.71771  -3.27659  -0.00002 
 C                     0.99147  -2.08834  -0.00002 
 C                     1.66085  -0.82149  -0.00002 
 C                     3.09135  -0.78117  -0.00002 
 C                     3.79024  -1.96698  -0.00002 
 C                     3.11438  -3.21092  -0.00002 
 H                     1.21167  -4.24459  -0.00002 
 H                     3.59032   0.19071  -0.00002 
 H                     4.88266  -1.95536  -0.00002 
 H                     3.69256  -4.13737  -0.00003 
 N                     0.88859   0.23646  -0.00002 
 S                    -0.74656  -1.81703  -0.00002 
 C                    -1.39033   0.99882   0. 
 C                    -2.82005   0.87154  -0.00001 
 C                    -0.89511   2.39157   0.00003 
 C                    -3.63947   1.98109   0.00002 
 H                    -3.25133  -0.13043  -0.00004 
 C                    -1.74715   3.49845   0.00006 
 C                    -3.12127   3.30933   0.00006 
 H                    -4.72311   1.84079   0.00002 
 H                    -1.29767   4.49272   0.00009 
 H                    -3.79892   4.16404   0.00009 
 C                    -0.44093  -0.04261  -0.00001 
 O                     0.41597   2.62796   0.00003 
 H                     0.71816   2.15769   0.00002 
 
 Initializing the GIC definitions file.
 Number of initial coordinates =   131
 Number of input entries/lines =    52
 Number of additional coordinates =     2
 Number of removed coordinates =     0
 Number of frozen coordinates =     2
 Number of final active and frozen coordinates =   133
 ITRead=  0  0  0  0  0  0  0  0  0  0  0  0  0  0  0  0  0  0  0  0
 ITRead=  0  0  0  0  0
 MicOpt= -1 -1 -1 -1 -1 -1 -1 -1 -1 -1 -1 -1 -1 -1 -1 -1 -1 -1 -1 -1
 MicOpt= -1 -1 -1 -1 -1
 NAtoms=     25 NQM=       25 NQMF=       0 NMMI=      0 NMMIF=      0
                NMic=       0 NMicF=      0.
                    Isotopes and Nuclear Properties:
 (Nuclear quadrupole moments (NQMom) in fm**2, nuclear magnetic moments (NMagM)
  in nuclear magnetons)

  Atom         1           2           3           4           5           6           7           8           9          10
 IAtWgt=          12          12          12          12          12          12           1           1           1           1
 AtmWgt=  12.0000000  12.0000000  12.0000000  12.0000000  12.0000000  12.0000000   1.0078250   1.0078250   1.0078250   1.0078250
 NucSpn=           0           0           0           0           0           0           1           1           1           1
 AtZEff=  -0.0000000  -0.0000000  -0.0000000  -0.0000000  -0.0000000  -0.0000000  -0.0000000  -0.0000000  -0.0000000  -0.0000000
 NQMom=    0.0000000   0.0000000   0.0000000   0.0000000   0.0000000   0.0000000   0.0000000   0.0000000   0.0000000   0.0000000
 NMagM=    0.0000000   0.0000000   0.0000000   0.0000000   0.0000000   0.0000000   2.7928460   2.7928460   2.7928460   2.7928460
 AtZNuc=   6.0000000   6.0000000   6.0000000   6.0000000   6.0000000   6.0000000   1.0000000   1.0000000   1.0000000   1.0000000

  Atom        11          12          13          14          15          16          17          18          19          20
 IAtWgt=          14          32          12          12          12          12           1          12          12           1
 AtmWgt=  14.0030740  31.9720718  12.0000000  12.0000000  12.0000000  12.0000000   1.0078250  12.0000000  12.0000000   1.0078250
 NucSpn=           2           0           0           0           0           0           1           0           0           1
 AtZEff=  -0.0000000  -0.0000000  -0.0000000  -0.0000000  -0.0000000  -0.0000000  -0.0000000  -0.0000000  -0.0000000  -0.0000000
 NQMom=    2.0440000   0.0000000   0.0000000   0.0000000   0.0000000   0.0000000   0.0000000   0.0000000   0.0000000   0.0000000
 NMagM=    0.4037610   0.0000000   0.0000000   0.0000000   0.0000000   0.0000000   2.7928460   0.0000000   0.0000000   2.7928460
 AtZNuc=   7.0000000  16.0000000   6.0000000   6.0000000   6.0000000   6.0000000   1.0000000   6.0000000   6.0000000   1.0000000

  Atom        21          22          23          24          25
 IAtWgt=           1           1          12          16           1
 AtmWgt=   1.0078250   1.0078250  12.0000000  15.9949146   1.0078250
 NucSpn=           1           1           0           0           1
 AtZEff=  -0.0000000  -0.0000000  -0.0000000  -0.0000000  -0.0000000
 NQMom=    0.0000000   0.0000000   0.0000000   0.0000000   0.0000000
 NMagM=    2.7928460   2.7928460   0.0000000   0.0000000   2.7928460
 AtZNuc=   1.0000000   1.0000000   6.0000000   8.0000000   1.0000000
 Leave Link  101 at Mon Jul 13 19:48:24 2020, MaxMem=  7784628224 cpu:              34.5 elap:               3.5
 (Enter /gpfs/loomis/apps/avx/software/Gaussian/16-C.01_AVX/g16/l103.exe)

 GradGradGradGradGradGradGradGradGradGradGradGradGradGradGradGradGradGrad
 Berny optimization.
 Initialization pass.
                           ----------------------------
                           !    Initial Parameters    !
                           ! (Angstroms and Degrees)  !
 --------------------------                            --------------------------
 ! Name  Definition              Value          Derivative Info.                !
 --------------------------------------------------------------------------------
 ! R1    R(1,2)                  1.3926         estimate D2E/DX2                !
 ! R2    R(1,6)                  1.3982         estimate D2E/DX2                !
 ! R3    R(1,7)                  1.0923         estimate D2E/DX2                !
 ! R4    R(2,3)                  1.4328         estimate D2E/DX2                !
 ! R5    R(2,12)                 1.7591         estimate D2E/DX2                !
 ! R6    R(3,4)                  1.4311         estimate D2E/DX2                !
 ! R7    R(3,11)                 1.3098         estimate D2E/DX2                !
 ! R8    R(4,5)                  1.3764         estimate D2E/DX2                !
 ! R9    R(4,8)                  1.0925         estimate D2E/DX2                !
 ! R10   R(5,6)                  1.4157         estimate D2E/DX2                !
 ! R11   R(5,9)                  1.0925         estimate D2E/DX2                !
 ! R12   R(6,10)                 1.0921         estimate D2E/DX2                !
 ! R13   R(11,23)                1.3585         estimate D2E/DX2                !
 ! R14   R(12,23)                1.8005         estimate D2E/DX2                !
 ! R15   R(13,14)                1.4354         estimate D2E/DX2                !
 ! R16   R(13,15)                1.4782         estimate D2E/DX2                !
 ! R17   R(13,23)                1.4092         estimate D2E/DX2                !
 ! R18   R(14,16)                1.3793         estimate D2E/DX2                !
 ! R19   R(14,17)                1.0909         estimate D2E/DX2                !
 ! R20   R(15,18)                1.3968         estimate D2E/DX2                !
 ! R21   R(15,24)                1.3322         estimate D2E/DX2                !
 ! R22   R(16,19)                1.4257         estimate D2E/DX2                !
 ! R23   R(16,20)                1.0927         estimate D2E/DX2                !
 ! R24   R(18,19)                1.3871         estimate D2E/DX2                !
 ! R25   R(18,21)                1.0911         estimate D2E/DX2                !
 ! R26   R(19,22)                1.0908         estimate D2E/DX2                !
 ! R27   R(24,25)                0.559          estimate D2E/DX2                !
 ! A1    A(2,1,6)              118.7401         estimate D2E/DX2                !
 ! A2    A(2,1,7)              120.9685         estimate D2E/DX2                !
 ! A3    A(6,1,7)              120.2914         estimate D2E/DX2                !
 ! A4    A(1,2,3)              120.7166         estimate D2E/DX2                !
 ! A5    A(1,2,12)             130.3047         estimate D2E/DX2                !
 ! A6    A(3,2,12)             108.9787         estimate D2E/DX2                !
 ! A7    A(2,3,4)              119.4655         estimate D2E/DX2                !
 ! A8    A(2,3,11)             116.0213         estimate D2E/DX2                !
 ! A9    A(4,3,11)             124.5132         estimate D2E/DX2                !
 ! A10   A(3,4,5)              118.9            estimate D2E/DX2                !
 ! A11   A(3,4,8)              118.7906         estimate D2E/DX2                !
 ! A12   A(5,4,8)              122.3094         estimate D2E/DX2                !
 ! A13   A(4,5,6)              120.9691         estimate D2E/DX2                !
 ! A14   A(4,5,9)              119.9046         estimate D2E/DX2                !
 ! A15   A(6,5,9)              119.1263         estimate D2E/DX2                !
 ! A16   A(1,6,5)              121.2088         estimate D2E/DX2                !
 ! A17   A(1,6,10)             119.2753         estimate D2E/DX2                !
 ! A18   A(5,6,10)             119.5159         estimate D2E/DX2                !
 ! A19   A(3,11,23)            114.2733         estimate D2E/DX2                !
 ! A20   A(2,12,23)             89.0995         estimate D2E/DX2                !
 ! A21   A(14,13,15)           114.6608         estimate D2E/DX2                !
 ! A22   A(14,13,23)           127.2662         estimate D2E/DX2                !
 ! A23   A(15,13,23)           118.073          estimate D2E/DX2                !
 ! A24   A(13,14,16)           121.3595         estimate D2E/DX2                !
 ! A25   A(13,14,17)           118.3753         estimate D2E/DX2                !
 ! A26   A(16,14,17)           120.2653         estimate D2E/DX2                !
 ! A27   A(13,15,18)           122.8381         estimate D2E/DX2                !
 ! A28   A(13,15,24)           119.7948         estimate D2E/DX2                !
 ! A29   A(18,15,24)           117.367          estimate D2E/DX2                !
 ! A30   A(14,16,19)           122.2407         estimate D2E/DX2                !
 ! A31   A(14,16,20)           119.0692         estimate D2E/DX2                !
 ! A32   A(19,16,20)           118.6901         estimate D2E/DX2                !
 ! A33   A(15,18,19)           119.7516         estimate D2E/DX2                !
 ! A34   A(15,18,21)           118.0856         estimate D2E/DX2                !
 ! A35   A(19,18,21)           122.1628         estimate D2E/DX2                !
 ! A36   A(16,19,18)           119.1493         estimate D2E/DX2                !
 ! A37   A(16,19,22)           120.2781         estimate D2E/DX2                !
 ! A38   A(18,19,22)           120.5726         estimate D2E/DX2                !
 ! A39   A(11,23,12)           111.6272         estimate D2E/DX2                !
 ! A40   A(11,23,13)           120.4988         estimate D2E/DX2                !
 ! A41   A(12,23,13)           127.874          estimate D2E/DX2                !
 ! A42   A(15,24,25)           112.5032         estimate D2E/DX2                !
 ! D1    D(6,1,2,3)              0.0001         estimate D2E/DX2                !
 ! D2    D(6,1,2,12)          -179.9999         estimate D2E/DX2                !
 ! D3    D(7,1,2,3)            180.0            estimate D2E/DX2                !
 ! D4    D(7,1,2,12)             0.0            estimate D2E/DX2                !
 ! D5    D(2,1,6,5)              0.0            estimate D2E/DX2                !
 ! D6    D(2,1,6,10)           180.0            estimate D2E/DX2                !
 ! D7    D(7,1,6,5)           -179.9999         estimate D2E/DX2                !
 ! D8    D(7,1,6,10)             0.0            estimate D2E/DX2                !
 ! D9    D(1,2,3,4)             -0.0001         estimate D2E/DX2                !
 ! D10   D(1,2,3,11)           179.9999         estimate D2E/DX2                !
 ! D11   D(12,2,3,4)           179.9999         estimate D2E/DX2                !
 ! D12   D(12,2,3,11)           -0.0001         estimate D2E/DX2                !
 ! D13   D(1,2,12,23)          179.9999         estimate D2E/DX2                !
 ! D14   D(3,2,12,23)           -0.0001         estimate D2E/DX2                !
 ! D15   D(2,3,4,5)              0.0001         estimate D2E/DX2                !
 ! D16   D(2,3,4,8)           -179.9999         estimate D2E/DX2                !
 ! D17   D(11,3,4,5)          -180.0            estimate D2E/DX2                !
 ! D18   D(11,3,4,8)             0.0            estimate D2E/DX2                !
 ! D19   D(2,3,11,23)            0.0002         estimate D2E/DX2                !
 ! D20   D(4,3,11,23)         -179.9998         estimate D2E/DX2                !
 ! D21   D(3,4,5,6)              0.0            estimate D2E/DX2                !
 ! D22   D(3,4,5,9)            180.0            estimate D2E/DX2                !
 ! D23   D(8,4,5,6)           -180.0            estimate D2E/DX2                !
 ! D24   D(8,4,5,9)              0.0            estimate D2E/DX2                !
 ! D25   D(4,5,6,1)              0.0            estimate D2E/DX2                !
 ! D26   D(4,5,6,10)           180.0            estimate D2E/DX2                !
 ! D27   D(9,5,6,1)            180.0            estimate D2E/DX2                !
 ! D28   D(9,5,6,10)             0.0            estimate D2E/DX2                !
 ! D29   D(3,11,23,12)          -0.0002         estimate D2E/DX2                !
 ! D30   D(3,11,23,13)         179.9994         estimate D2E/DX2                !
 ! D31   D(2,12,23,11)           0.0002         estimate D2E/DX2                !
 ! D32   D(2,12,23,13)        -179.9995         estimate D2E/DX2                !
 ! D33   D(15,13,14,16)         -0.0005         estimate D2E/DX2                !
 ! D34   D(15,13,14,17)        179.9996         estimate D2E/DX2                !
 ! D35   D(23,13,14,16)        179.9993         estimate D2E/DX2                !
 ! D36   D(23,13,14,17)         -0.0005         estimate D2E/DX2                !
 ! D37   D(14,13,15,18)          0.0006         estimate D2E/DX2                !
 ! D38   D(14,13,15,24)       -179.9995         estimate D2E/DX2                !
 ! D39   D(23,13,15,18)       -179.9992         estimate D2E/DX2                !
 ! D40   D(23,13,15,24)          0.0006         estimate D2E/DX2                !
 ! D41   D(14,13,23,11)        179.9993         estimate D2E/DX2                !
 ! D42   D(14,13,23,12)         -0.0011         estimate D2E/DX2                !
 ! D43   D(15,13,23,11)         -0.0009         estimate D2E/DX2                !
 ! D44   D(15,13,23,12)        179.9987         estimate D2E/DX2                !
 ! D45   D(13,14,16,19)          0.0001         estimate D2E/DX2                !
 ! D46   D(13,14,16,20)       -179.9999         estimate D2E/DX2                !
 ! D47   D(17,14,16,19)        179.9999         estimate D2E/DX2                !
 ! D48   D(17,14,16,20)          0.0            estimate D2E/DX2                !
 ! D49   D(13,15,18,19)         -0.0003         estimate D2E/DX2                !
 ! D50   D(13,15,18,21)        179.9998         estimate D2E/DX2                !
 ! D51   D(24,15,18,19)        179.9999         estimate D2E/DX2                !
 ! D52   D(24,15,18,21)         -0.0001         estimate D2E/DX2                !
 ! D53   D(13,15,24,25)         -0.0006         estimate D2E/DX2                !
 ! D54   D(18,15,24,25)        179.9993         estimate D2E/DX2                !
 ! D55   D(14,16,19,18)          0.0003         estimate D2E/DX2                !
 ! D56   D(14,16,19,22)       -179.9998         estimate D2E/DX2                !
 ! D57   D(20,16,19,18)       -179.9998         estimate D2E/DX2                !
 ! D58   D(20,16,19,22)          0.0002         estimate D2E/DX2                !
 ! D59   D(15,18,19,16)         -0.0002         estimate D2E/DX2                !
 ! D60   D(15,18,19,22)        179.9999         estimate D2E/DX2                !
 ! D61   D(21,18,19,16)        179.9997         estimate D2E/DX2                !
 ! D62   D(21,18,19,22)         -0.0002         estimate D2E/DX2                !
 ! Qtot  GIC-1                 -50.0            Frozen                          !
 ! Ptot  GIC-2                 -80.0            Frozen                          !
 --------------------------------------------------------------------------------
 NOTE: GIC-type coordinates are in arbitrary units.
 Trust Radius=3.00D-01 FncErr=5.00D-06 GrdErr=5.00D-06 EigMax=2.50D+02 EigMin=1.00D-04
 Number of steps in this run=    143 maximum allowed number of steps=    150.
 GradGradGradGradGradGradGradGradGradGradGradGradGradGradGradGradGradGrad

 Leave Link  103 at Mon Jul 13 19:48:24 2020, MaxMem=  7784628224 cpu:               0.1 elap:               0.0
 (Enter /gpfs/loomis/apps/avx/software/Gaussian/16-C.01_AVX/g16/l202.exe)
                          Input orientation:                          
 ---------------------------------------------------------------------
 Center     Atomic      Atomic             Coordinates (Angstroms)
 Number     Number       Type             X           Y           Z
 ---------------------------------------------------------------------
      1          6           0        1.717710   -3.276594   -0.000024
      2          6           0        0.991472   -2.088336   -0.000021
      3          6           0        1.660845   -0.821494   -0.000020
      4          6           0        3.091346   -0.781175   -0.000020
      5          6           0        3.790244   -1.966985   -0.000022
      6          6           0        3.114380   -3.210917   -0.000024
      7          1           0        1.211671   -4.244594   -0.000024
      8          1           0        3.590316    0.190713   -0.000018
      9          1           0        4.882659   -1.955357   -0.000022
     10          1           0        3.692563   -4.137367   -0.000026
     11          7           0        0.888592    0.236458   -0.000019
     12         16           0       -0.746563   -1.817026   -0.000018
     13          6           0       -1.390326    0.998816    0.000000
     14          6           0       -2.820052    0.871545   -0.000008
     15          6           0       -0.895106    2.391565    0.000030
     16          6           0       -3.639468    1.981092    0.000022
     17          1           0       -3.251328   -0.130430   -0.000036
     18          6           0       -1.747149    3.498447    0.000062
     19          6           0       -3.121265    3.309328    0.000060
     20          1           0       -4.723107    1.840791    0.000017
     21          1           0       -1.297667    4.492716    0.000086
     22          1           0       -3.798921    4.164040    0.000087
     23          6           0       -0.440934   -0.042612   -0.000014
     24          8           0        0.415971    2.627960    0.000031
     25          1           0        0.718162    2.157685    0.000024
 ---------------------------------------------------------------------
                    Distance matrix (angstroms):
                    1          2          3          4          5
     1  C    0.000000
     2  C    1.392616   0.000000
     3  C    2.455758   1.432812   0.000000
     4  C    2.848507   2.473487   1.431068   0.000000
     5  C    2.451626   2.801401   2.417951   1.376446   0.000000
     6  C    1.398213   2.401442   2.796802   2.429851   1.415683
     7  H    1.092291   2.167472   3.452444   3.940615   3.440427
     8  H    3.940669   3.456596   2.178858   1.092492   2.166940
     9  H    3.429660   3.893459   3.415513   2.141847   1.092478
    10  H    2.154292   3.390342   3.888816   3.409617   2.172579
    11  N    3.609566   2.327069   1.309823   2.426458   3.643452
    12  S    2.864085   1.759084   2.605130   3.975240   4.539284
    13  C    5.285737   3.899163   3.552911   4.822214   5.969445
    14  C    6.148035   4.825827   4.790075   6.138086   7.193973
    15  C    6.241381   4.860935   4.105683   5.094907   6.399176
    16  C    7.506172   6.164888   5.995649   7.275573   8.413556
    17  H    5.881300   4.672767   4.960546   6.375969   7.277133
    18  C    7.609627   6.221911   5.502391   6.459581   7.780337
    19  C    8.172518   6.785969   6.319198   7.438330   8.695311
    20  H    8.226285   6.935017   6.916835   8.242596   9.326108
    21  H    8.333947   6.967812   6.082238   6.861294   8.222808
    22  H    9.262627   7.876552   7.393551   8.481211   9.756274
    23  C    3.888237   2.497354   2.241458   3.608667   4.648234
    24  O    6.046344   4.751279   3.667212   4.333570   5.700810
    25  H    5.525440   4.254809   3.124766   3.777420   5.143014
                    6          7          8          9         10
     6  C    0.000000
     7  H    2.165361   0.000000
     8  H    3.434763   5.032882   0.000000
     9  H    2.168696   4.326287   2.505148   0.000000
    10  H    1.092065   2.483208   4.329287   2.485457   0.000000
    11  N    4.103477   4.492683   2.702111   4.555944   5.195440
    12  S    4.104852   3.118936   4.779073   5.630922   5.008974
    13  C    6.165568   5.853523   5.045774   6.933793   7.226073
    14  C    7.203053   6.513805   6.446421   8.205067   8.216042
    15  C    6.889396   6.962551   4.996275   7.230374   7.979578
    16  C    8.518885   7.892573   7.448170   9.387347   9.549566
    17  H    7.071891   6.069984   6.849178   8.336193   8.017055
    18  C    8.285530   8.289106   6.279302   8.584773   9.375292
    19  C    9.022021   8.708390   7.400749   9.580173  10.093637
    20  H    9.324481   8.500206   8.475599  10.328673  10.322881
    21  H    8.877618   9.090509   6.511498   8.931634   9.968988
    22  H   10.108596   9.788318   8.389765  10.621528  11.181936
    23  C    4.762186   4.515280   4.037997   5.656787   5.818317
    24  O    6.432254   6.918463   4.002080   6.399852   7.517027
    25  H    5.879094   6.421272   3.481128   5.853218   6.962381
                   11         12         13         14         15
    11  N    0.000000
    12  S    2.624982   0.000000
    13  C    2.403052   2.888494   0.000000
    14  C    3.762629   3.395257   1.435379   0.000000
    15  C    2.797511   4.211212   1.478173   2.452729   0.000000
    16  C    4.852533   4.774369   2.454283   1.379325   2.774890
    17  H    4.156146   3.019678   2.176815   1.090850   3.451412
    18  C    4.193769   5.408828   2.524970   2.837558   1.396841
    19  C    5.051879   5.649665   2.886973   2.456321   2.407919
    20  H    5.836528   5.403011   3.437492   2.135664   3.867422
    21  H    4.784920   6.333763   3.495128   3.928172   2.139366
    22  H    6.115447   6.714912   3.977433   3.434925   3.402031
    23  C    1.358499   1.800544   1.409226   2.548702   2.476184
    24  O    2.437756   4.594495   2.432451   3.681961   1.332218
    25  H    1.928772   4.236007   2.405972   3.764719   1.630132
                   16         17         18         19         20
    16  C    0.000000
    17  H    2.146900   0.000000
    18  C    2.425539   3.928270   0.000000
    19  C    1.425743   3.442216   1.387070   0.000000
    20  H    1.092684   2.460050   3.406487   2.173131   0.000000
    21  H    3.433990   5.018991   1.091148   2.173918   4.332014
    22  H    2.188765   4.329242   2.157032   1.090757   2.500322
    23  C    3.784970   2.811766   3.774293   4.291815   4.678057
    24  O    4.106705   4.588878   2.331702   3.602264   5.199015
    25  H    4.361206   4.581738   2.806313   4.008426   5.450489
                   21         22         23         24         25
    21  H    0.000000
    22  H    2.522756   0.000000
    23  C    4.615537   5.382564   0.000000
    24  O    2.532562   4.486074   2.804681   0.000000
    25  H    3.084790   4.942620   2.486928   0.558997   0.000000
 Symmetry turned off by external request.
 Stoichiometry    C13H9NOS
 Framework group  C1[X(C13H9NOS)]
 Deg. of freedom    69
 Full point group                 C1      NOp   1
 Rotational constants (GHZ):           1.3469062           0.2856370           0.2356607
 Leave Link  202 at Mon Jul 13 19:48:25 2020, MaxMem=  7784628224 cpu:               0.1 elap:               0.0
 (Enter /gpfs/loomis/apps/avx/software/Gaussian/16-C.01_AVX/g16/l301.exe)
 Standard basis: CC-pVDZ (5D, 7F)
 Ernie: Thresh=  0.10000D-02 Tol=  0.10000D-05 Strict=F.
 Ernie:  40 primitive shells out of 425 were deleted.
   273 basis functions,   629 primitive gaussians,   289 cartesian basis functions
    59 alpha electrons       59 beta electrons
       nuclear repulsion energy      1097.5625119508 Hartrees.
 IExCor= 4639 DFT=T Ex+Corr=wB97XD ExCW=0 ScaHFX=  1.000000
 ScaDFX=  1.000000  1.000000  1.000000  1.000000 ScalE2=  1.000000  1.000000
 IRadAn=      5 IRanWt=     -1 IRanGd=            0 ICorTp=0 IEmpDi=121
 HFx  wShort=  0.000000 wLong=  0.200000 cFull=  0.222036 cShort=  0.000000 cLong=  0.777964
 DFx  wShort=  0.000000 wLong=  0.200000 cFull=  0.000000 cShort=  0.000000 cLong=  1.000000
 NAtoms=   25 NActive=   25 NUniq=   25 SFac= 1.00D+00 NAtFMM=   60 NAOKFM=F Big=F
 Integral buffers will be    131072 words long.
 Raffenetti 1 integral format.
 Two-electron integral symmetry is turned off.
 R6Disp:  Grimme-D2 Dispersion energy=       -0.0140027570 Hartrees.
 Nuclear repulsion after empirical dispersion term =     1097.5485091938 Hartrees.
 ------------------------------------------------------------------------------
 Polarizable Continuum Model (PCM)
 =================================
 Model                : PCM.
 Atomic radii         : UFF (Universal Force Field).
 Polarization charges : Total charges.
 Charge compensation  : None.
 Solution method      : On-the-fly selection.
 Cavity type          : Scaled VdW (van der Waals Surface) (Alpha=1.100).
 Cavity algorithm     : GePol (No added spheres)
                        Default sphere list used, NSphG=   25.
                        Lebedev-Laikov grids with approx.  5.0 points / Ang**2.
                        Smoothing algorithm: York/Karplus (Gamma=1.0000).
                        Polarization charges: spherical gaussians, with
                                              point-specific exponents (IZeta= 3).
                        Self-potential: point-specific (ISelfS= 7).
                        Self-field    : sphere-specific E.n sum rule (ISelfD= 2).
 1st derivatives      : Analytical E(r).r(x)/FMM algorithm (CHGder, D1EAlg=3).
                        Cavity 1st derivative terms included.
 Solvent              : CarbonTetraChloride, Eps=   2.228000 Eps(inf)=   2.131892
 ------------------------------------------------------------------------------
 GePol: Number of generator spheres                  =      25
 GePol: Total number of spheres                      =      25
 GePol: Number of exposed spheres                    =      25 (100.00%)
 GePol: Number of points                             =    2189
 GePol: Average weight of points                     =       0.13
 GePol: Minimum weight of points                     =   0.23D-08
 GePol: Maximum weight of points                     =    0.20577
 GePol: Number of points with low weight             =     128
 GePol: Fraction of low-weight points (<1% of avg)   =       5.85%
 GePol: Cavity surface area                          =    275.652 Ang**2
 GePol: Cavity volume                                =    294.243 Ang**3
 Leave Link  301 at Mon Jul 13 19:48:25 2020, MaxMem=  7784628224 cpu:               0.9 elap:               0.1
 (Enter /gpfs/loomis/apps/avx/software/Gaussian/16-C.01_AVX/g16/l302.exe)
 NPDir=0 NMtPBC=     1 NCelOv=     1 NCel=       1 NClECP=     1 NCelD=      1
         NCelK=      1 NCelE2=     1 NClLst=     1 CellRange=     0.0.
 One-electron integrals computed using PRISM.
 NBasis=   273 RedAO= T EigKep=  3.16D-04  NBF=   273
 NBsUse=   273 1.00D-06 EigRej= -1.00D+00 NBFU=   273
 Precomputing XC quadrature grid using
 IXCGrd= 4 IRadAn=           5 IRanWt=          -1 IRanGd=           0 AccXCQ= 0.00D+00.
 Generated NRdTot=       0 NPtTot=           0 NUsed=           0 NTot=          32
 NSgBfM=   288   288   288   288   288 MxSgAt=    25 MxSgA2=    25.
 Leave Link  302 at Mon Jul 13 19:48:25 2020, MaxMem=  7784628224 cpu:               4.1 elap:               0.5
 (Enter /gpfs/loomis/apps/avx/software/Gaussian/16-C.01_AVX/g16/l303.exe)
 DipDrv:  MaxL=1.
 Leave Link  303 at Mon Jul 13 19:48:25 2020, MaxMem=  7784628224 cpu:               0.4 elap:               0.1
 (Enter /gpfs/loomis/apps/avx/software/Gaussian/16-C.01_AVX/g16/l308.exe)
 Leave Link  308 at Mon Jul 13 19:48:25 2020, MaxMem=  7784628224 cpu:               0.5 elap:               0.1
 (Enter /gpfs/loomis/apps/avx/software/Gaussian/16-C.01_AVX/g16/l401.exe)
 ExpMin= 1.22D-01 ExpMax= 1.11D+05 ExpMxC= 1.07D+03 IAcc=3 IRadAn=         5 AccDes= 0.00D+00
 Harris functional with IExCor= 4639 and IRadAn=       5 diagonalized for initial guess.
 HarFok:  IExCor= 4639 AccDes= 0.00D+00 IRadAn=         5 IDoV= 1 UseB2=F ITyADJ=14
 ICtDFT=  3500011 ScaDFX=  1.000000  1.000000  1.000000  1.000000
 FoFCou: FMM=F IPFlag=           0 FMFlag=      100000 FMFlg1=           0
         NFxFlg=           0 DoJE=T BraDBF=F KetDBF=T FulRan=T
         wScrn=  0.000000 ICntrl=       500 IOpCl=  0 I1Cent=   200000004 NGrid=           0
         NMat0=    1 NMatS0=      1 NMatT0=    0 NMatD0=    1 NMtDS0=    0 NMtDT0=    0
 Symmetry not used in FoFCou.
 Harris En= -993.935592102891    
 JPrj=0 DoOrth=F DoCkMO=F.
 Leave Link  401 at Mon Jul 13 19:48:27 2020, MaxMem=  7784628224 cpu:              14.0 elap:               1.4
 (Enter /gpfs/loomis/apps/avx/software/Gaussian/16-C.01_AVX/g16/l502.exe)
 Two-electron integral symmetry not used.
 Closed shell SCF:
 Using DIIS extrapolation, IDIIS=  1040.
 NGot=  7784628224 LenX=  7784455381 LenY=  7784371419
 Requested convergence on RMS density matrix=1.00D-08 within 128 cycles.
 Requested convergence on MAX density matrix=1.00D-06.
 Requested convergence on             energy=1.00D-06.
 No special actions if energy rises.
 Fock matrices will be formed incrementally for  20 cycles.

 Cycle   1  Pass 1  IDiag  1:
 FoFJK:  IHMeth= 1 ICntrl=       0 DoSepK=T KAlg= 0 I1Cent=           0 FoldK=F
 IRaf=         1 NMat=       1 IRICut=       1 DoRegI=T DoRafI=F ISym2E= 0 IDoP0=0 IntGTp=1.
 FoFCou: FMM=F IPFlag=           0 FMFlag=      100000 FMFlg1=           0
         NFxFlg=           0 DoJE=T BraDBF=F KetDBF=F FulRan=T
         wScrn=  0.000000 ICntrl=       500 IOpCl=  0 I1Cent=           0 NGrid=           0
         NMat0=    1 NMatS0=      1 NMatT0=    0 NMatD0=    1 NMtDS0=    0 NMtDT0=    0
 Symmetry not used in FoFCou.
 Inv3:  Mode=1 IEnd=    14375163.
 Iteration    1 A*A^-1 deviation from unit magnitude is 4.33D-15 for   2158.
 Iteration    1 A*A^-1 deviation from orthogonality  is 2.33D-15 for   1807    365.
 Iteration    1 A^-1*A deviation from unit magnitude is 4.11D-15 for   2158.
 Iteration    1 A^-1*A deviation from orthogonality  is 2.16D-15 for   1083    732.
 E= -1028.07740059533    
 DIIS: error= 3.29D-02 at cycle   1 NSaved=   1.
 NSaved= 1 IEnMin= 1 EnMin= -1028.07740059533     IErMin= 1 ErrMin= 3.29D-02
 ErrMax= 3.29D-02  0.00D+00 EMaxC= 1.00D-01 BMatC= 3.96D-01 BMatP= 3.96D-01
 IDIUse=3 WtCom= 6.71D-01 WtEn= 3.29D-01
 Coeff-Com:  0.100D+01
 Coeff-En:   0.100D+01
 Coeff:      0.100D+01
 Gap=     0.369 Goal=   None    Shift=    0.000
 GapD=    0.369 DampG=1.000 DampE=0.500 DampFc=0.5000 IDamp=-1.
 Damping current iteration by 5.00D-01
 RMSDP=3.56D-03 MaxDP=2.31D-01              OVMax= 1.71D-01

 Cycle   2  Pass 1  IDiag  1:
 RMSU=  1.77D-03    CP:  9.93D-01
 E= -1028.19528048363     Delta-E=       -0.117879888303 Rises=F Damp=T
 DIIS: error= 1.00D-02 at cycle   2 NSaved=   2.
 NSaved= 2 IEnMin= 2 EnMin= -1028.19528048363     IErMin= 2 ErrMin= 1.00D-02
 ErrMax= 1.00D-02  0.00D+00 EMaxC= 1.00D-01 BMatC= 5.77D-02 BMatP= 3.96D-01
 IDIUse=3 WtCom= 9.00D-01 WtEn= 1.00D-01
 Coeff-Com: -0.285D+00 0.128D+01
 Coeff-En:   0.000D+00 0.100D+01
 Coeff:     -0.256D+00 0.126D+01
 Gap=     0.294 Goal=   None    Shift=    0.000
 RMSDP=1.18D-03 MaxDP=2.59D-02 DE=-1.18D-01 OVMax= 1.38D-01

 Cycle   3  Pass 1  IDiag  1:
 RMSU=  1.13D-03    CP:  9.89D-01  1.18D+00
 E= -1028.29943723575     Delta-E=       -0.104156752121 Rises=F Damp=F
 DIIS: error= 6.43D-03 at cycle   3 NSaved=   3.
 NSaved= 3 IEnMin= 3 EnMin= -1028.29943723575     IErMin= 3 ErrMin= 6.43D-03
 ErrMax= 6.43D-03  0.00D+00 EMaxC= 1.00D-01 BMatC= 1.46D-02 BMatP= 5.77D-02
 IDIUse=3 WtCom= 9.36D-01 WtEn= 6.43D-02
 Coeff-Com: -0.201D+00 0.489D+00 0.712D+00
 Coeff-En:   0.000D+00 0.000D+00 0.100D+01
 Coeff:     -0.188D+00 0.457D+00 0.730D+00
 Gap=     0.260 Goal=   None    Shift=    0.000
 RMSDP=5.26D-04 MaxDP=2.28D-02 DE=-1.04D-01 OVMax= 4.29D-02

 Cycle   4  Pass 1  IDiag  1:
 RMSU=  3.91D-04    CP:  9.88D-01  1.35D+00  8.24D-01
 E= -1028.31221294627     Delta-E=       -0.012775710518 Rises=F Damp=F
 DIIS: error= 2.74D-03 at cycle   4 NSaved=   4.
 NSaved= 4 IEnMin= 4 EnMin= -1028.31221294627     IErMin= 4 ErrMin= 2.74D-03
 ErrMax= 2.74D-03  0.00D+00 EMaxC= 1.00D-01 BMatC= 2.32D-03 BMatP= 1.46D-02
 IDIUse=3 WtCom= 9.73D-01 WtEn= 2.74D-02
 Coeff-Com: -0.799D-01 0.161D+00 0.373D+00 0.546D+00
 Coeff-En:   0.000D+00 0.000D+00 0.240D-01 0.976D+00
 Coeff:     -0.777D-01 0.157D+00 0.363D+00 0.557D+00
 Gap=     0.259 Goal=   None    Shift=    0.000
 RMSDP=1.80D-04 MaxDP=1.05D-02 DE=-1.28D-02 OVMax= 1.40D-02

 Cycle   5  Pass 1  IDiag  1:
 RMSU=  1.11D-04    CP:  9.87D-01  1.35D+00  9.06D-01  7.29D-01
 E= -1028.31452329604     Delta-E=       -0.002310349768 Rises=F Damp=F
 DIIS: error= 5.45D-04 at cycle   5 NSaved=   5.
 NSaved= 5 IEnMin= 5 EnMin= -1028.31452329604     IErMin= 5 ErrMin= 5.45D-04
 ErrMax= 5.45D-04  0.00D+00 EMaxC= 1.00D-01 BMatC= 8.87D-05 BMatP= 2.32D-03
 IDIUse=3 WtCom= 9.95D-01 WtEn= 5.45D-03
 Coeff-Com: -0.966D-02 0.135D-01 0.657D-01 0.203D+00 0.727D+00
 Coeff-En:   0.000D+00 0.000D+00 0.000D+00 0.000D+00 0.100D+01
 Coeff:     -0.961D-02 0.134D-01 0.654D-01 0.202D+00 0.728D+00
 Gap=     0.260 Goal=   None    Shift=    0.000
 RMSDP=5.00D-05 MaxDP=1.56D-03 DE=-2.31D-03 OVMax= 5.26D-03

 Cycle   6  Pass 1  IDiag  1:
 RMSU=  3.56D-05    CP:  9.87D-01  1.36D+00  9.17D-01  8.06D-01  1.03D+00
 E= -1028.31465964273     Delta-E=       -0.000136346687 Rises=F Damp=F
 DIIS: error= 1.80D-04 at cycle   6 NSaved=   6.
 NSaved= 6 IEnMin= 6 EnMin= -1028.31465964273     IErMin= 6 ErrMin= 1.80D-04
 ErrMax= 1.80D-04  0.00D+00 EMaxC= 1.00D-01 BMatC= 1.12D-05 BMatP= 8.87D-05
 IDIUse=3 WtCom= 9.98D-01 WtEn= 1.80D-03
 Coeff-Com:  0.139D-01-0.293D-01-0.541D-01-0.417D-01 0.206D+00 0.906D+00
 Coeff-En:   0.000D+00 0.000D+00 0.000D+00 0.000D+00 0.000D+00 0.100D+01
 Coeff:      0.138D-01-0.293D-01-0.540D-01-0.416D-01 0.205D+00 0.906D+00
 Gap=     0.261 Goal=   None    Shift=    0.000
 RMSDP=3.43D-05 MaxDP=1.60D-03 DE=-1.36D-04 OVMax= 3.10D-03

 Cycle   7  Pass 1  IDiag  1:
 RMSU=  1.83D-05    CP:  9.87D-01  1.36D+00  9.30D-01  8.46D-01  1.20D+00
                    CP:  1.19D+00
 E= -1028.31469243688     Delta-E=       -0.000032794148 Rises=F Damp=F
 DIIS: error= 1.29D-04 at cycle   7 NSaved=   7.
 NSaved= 7 IEnMin= 7 EnMin= -1028.31469243688     IErMin= 7 ErrMin= 1.29D-04
 ErrMax= 1.29D-04  0.00D+00 EMaxC= 1.00D-01 BMatC= 2.15D-06 BMatP= 1.12D-05
 IDIUse=3 WtCom= 9.99D-01 WtEn= 1.29D-03
 Coeff-Com:  0.668D-02-0.128D-01-0.294D-01-0.462D-01-0.408D-01 0.347D+00
 Coeff-Com:  0.776D+00
 Coeff-En:   0.000D+00 0.000D+00 0.000D+00 0.000D+00 0.000D+00 0.000D+00
 Coeff-En:   0.100D+01
 Coeff:      0.667D-02-0.128D-01-0.294D-01-0.461D-01-0.407D-01 0.346D+00
 Coeff:      0.776D+00
 Gap=     0.261 Goal=   None    Shift=    0.000
 RMSDP=1.21D-05 MaxDP=6.31D-04 DE=-3.28D-05 OVMax= 1.48D-03

 Cycle   8  Pass 1  IDiag  1:
 RMSU=  7.39D-06    CP:  9.87D-01  1.36D+00  9.32D-01  8.52D-01  1.24D+00
                    CP:  1.40D+00  1.10D+00
 E= -1028.31469774147     Delta-E=       -0.000005304594 Rises=F Damp=F
 DIIS: error= 3.67D-05 at cycle   8 NSaved=   8.
 NSaved= 8 IEnMin= 8 EnMin= -1028.31469774147     IErMin= 8 ErrMin= 3.67D-05
 ErrMax= 3.67D-05  0.00D+00 EMaxC= 1.00D-01 BMatC= 2.60D-07 BMatP= 2.15D-06
 IDIUse=1 WtCom= 1.00D+00 WtEn= 0.00D+00
 Coeff-Com: -0.444D-03 0.124D-02 0.882D-03-0.514D-02-0.402D-01-0.385D-01
 Coeff-Com:  0.227D+00 0.855D+00
 Coeff:     -0.444D-03 0.124D-02 0.882D-03-0.514D-02-0.402D-01-0.385D-01
 Coeff:      0.227D+00 0.855D+00
 Gap=     0.261 Goal=   None    Shift=    0.000
 RMSDP=4.80D-06 MaxDP=1.44D-04 DE=-5.30D-06 OVMax= 6.36D-04

 Cycle   9  Pass 1  IDiag  1:
 RMSU=  2.40D-06    CP:  9.87D-01  1.36D+00  9.32D-01  8.53D-01  1.25D+00
                    CP:  1.46D+00  1.28D+00  1.09D+00
 E= -1028.31469847827     Delta-E=       -0.000000736802 Rises=F Damp=F
 DIIS: error= 1.91D-05 at cycle   9 NSaved=   9.
 NSaved= 9 IEnMin= 9 EnMin= -1028.31469847827     IErMin= 9 ErrMin= 1.91D-05
 ErrMax= 1.91D-05  0.00D+00 EMaxC= 1.00D-01 BMatC= 5.05D-08 BMatP= 2.60D-07
 IDIUse=1 WtCom= 1.00D+00 WtEn= 0.00D+00
 Coeff-Com: -0.104D-02 0.209D-02 0.423D-02 0.480D-02-0.846D-02-0.627D-01
 Coeff-Com: -0.275D-01 0.311D+00 0.777D+00
 Coeff:     -0.104D-02 0.209D-02 0.423D-02 0.480D-02-0.846D-02-0.627D-01
 Coeff:     -0.275D-01 0.311D+00 0.777D+00
 Gap=     0.261 Goal=   None    Shift=    0.000
 RMSDP=2.00D-06 MaxDP=6.28D-05 DE=-7.37D-07 OVMax= 1.89D-04

 Cycle  10  Pass 1  IDiag  1:
 RMSU=  9.96D-07    CP:  9.87D-01  1.36D+00  9.32D-01  8.53D-01  1.25D+00
                    CP:  1.48D+00  1.32D+00  1.26D+00  1.06D+00
 E= -1028.31469860561     Delta-E=       -0.000000127335 Rises=F Damp=F
 DIIS: error= 6.98D-06 at cycle  10 NSaved=  10.
 NSaved=10 IEnMin=10 EnMin= -1028.31469860561     IErMin=10 ErrMin= 6.98D-06
 ErrMax= 6.98D-06  0.00D+00 EMaxC= 1.00D-01 BMatC= 7.87D-09 BMatP= 5.05D-08
 IDIUse=1 WtCom= 1.00D+00 WtEn= 0.00D+00
 Coeff-Com: -0.319D-03 0.599D-03 0.148D-02 0.284D-02 0.295D-02-0.200D-01
 Coeff-Com: -0.484D-01-0.172D-01 0.263D+00 0.815D+00
 Coeff:     -0.319D-03 0.599D-03 0.148D-02 0.284D-02 0.295D-02-0.200D-01
 Coeff:     -0.484D-01-0.172D-01 0.263D+00 0.815D+00
 Gap=     0.261 Goal=   None    Shift=    0.000
 RMSDP=9.02D-07 MaxDP=2.74D-05 DE=-1.27D-07 OVMax= 1.25D-04

 Cycle  11  Pass 1  IDiag  1:
 RMSU=  4.31D-07    CP:  9.87D-01  1.36D+00  9.32D-01  8.53D-01  1.25D+00
                    CP:  1.49D+00  1.34D+00  1.31D+00  1.25D+00  1.13D+00
 E= -1028.31469863186     Delta-E=       -0.000000026250 Rises=F Damp=F
 DIIS: error= 2.79D-06 at cycle  11 NSaved=  11.
 NSaved=11 IEnMin=11 EnMin= -1028.31469863186     IErMin=11 ErrMin= 2.79D-06
 ErrMax= 2.79D-06  0.00D+00 EMaxC= 1.00D-01 BMatC= 1.51D-09 BMatP= 7.87D-09
 IDIUse=1 WtCom= 1.00D+00 WtEn= 0.00D+00
 Coeff-Com:  0.111D-03-0.234D-03-0.382D-03 0.558D-05 0.227D-02 0.424D-02
 Coeff-Com: -0.841D-02-0.486D-01-0.591D-01 0.257D+00 0.853D+00
 Coeff:      0.111D-03-0.234D-03-0.382D-03 0.558D-05 0.227D-02 0.424D-02
 Coeff:     -0.841D-02-0.486D-01-0.591D-01 0.257D+00 0.853D+00
 Gap=     0.261 Goal=   None    Shift=    0.000
 RMSDP=3.90D-07 MaxDP=9.10D-06 DE=-2.62D-08 OVMax= 5.78D-05

 Cycle  12  Pass 1  IDiag  1:
 RMSU=  1.75D-07    CP:  9.87D-01  1.36D+00  9.32D-01  8.53D-01  1.25D+00
                    CP:  1.49D+00  1.35D+00  1.33D+00  1.32D+00  1.38D+00
                    CP:  1.13D+00
 E= -1028.31469863733     Delta-E=       -0.000000005478 Rises=F Damp=F
 DIIS: error= 1.18D-06 at cycle  12 NSaved=  12.
 NSaved=12 IEnMin=12 EnMin= -1028.31469863733     IErMin=12 ErrMin= 1.18D-06
 ErrMax= 1.18D-06  0.00D+00 EMaxC= 1.00D-01 BMatC= 3.01D-10 BMatP= 1.51D-09
 IDIUse=1 WtCom= 1.00D+00 WtEn= 0.00D+00
 Coeff-Com:  0.108D-03-0.213D-03-0.463D-03-0.599D-03 0.186D-03 0.582D-02
 Coeff-Com:  0.748D-02-0.114D-01-0.881D-01-0.980D-01 0.258D+00 0.928D+00
 Coeff:      0.108D-03-0.213D-03-0.463D-03-0.599D-03 0.186D-03 0.582D-02
 Coeff:      0.748D-02-0.114D-01-0.881D-01-0.980D-01 0.258D+00 0.928D+00
 Gap=     0.261 Goal=   None    Shift=    0.000
 RMSDP=2.21D-07 MaxDP=4.74D-06 DE=-5.48D-09 OVMax= 3.39D-05

 Cycle  13  Pass 1  IDiag  1:
 RMSU=  7.41D-08    CP:  9.87D-01  1.36D+00  9.32D-01  8.53D-01  1.25D+00
                    CP:  1.49D+00  1.35D+00  1.34D+00  1.36D+00  1.48D+00
                    CP:  1.43D+00  1.22D+00
 E= -1028.31469863873     Delta-E=       -0.000000001395 Rises=F Damp=F
 DIIS: error= 5.21D-07 at cycle  13 NSaved=  13.
 NSaved=13 IEnMin=13 EnMin= -1028.31469863873     IErMin=13 ErrMin= 5.21D-07
 ErrMax= 5.21D-07  0.00D+00 EMaxC= 1.00D-01 BMatC= 4.48D-11 BMatP= 3.01D-10
 IDIUse=1 WtCom= 1.00D+00 WtEn= 0.00D+00
 Coeff-Com:  0.110D-04-0.195D-04-0.629D-04-0.154D-03-0.240D-03 0.112D-02
 Coeff-Com:  0.360D-02 0.595D-02-0.170D-01-0.698D-01-0.832D-01 0.260D+00
 Coeff-Com:  0.900D+00
 Coeff:      0.110D-04-0.195D-04-0.629D-04-0.154D-03-0.240D-03 0.112D-02
 Coeff:      0.360D-02 0.595D-02-0.170D-01-0.698D-01-0.832D-01 0.260D+00
 Coeff:      0.900D+00
 Gap=     0.261 Goal=   None    Shift=    0.000
 RMSDP=7.87D-08 MaxDP=2.03D-06 DE=-1.39D-09 OVMax= 1.06D-05

 Cycle  14  Pass 1  IDiag  1:
 RMSU=  2.85D-08    CP:  9.87D-01  1.36D+00  9.32D-01  8.53D-01  1.25D+00
                    CP:  1.49D+00  1.35D+00  1.34D+00  1.36D+00  1.52D+00
                    CP:  1.51D+00  1.45D+00  1.19D+00
 E= -1028.31469863889     Delta-E=       -0.000000000163 Rises=F Damp=F
 DIIS: error= 1.42D-07 at cycle  14 NSaved=  14.
 NSaved=14 IEnMin=14 EnMin= -1028.31469863889     IErMin=14 ErrMin= 1.42D-07
 ErrMax= 1.42D-07  0.00D+00 EMaxC= 1.00D-01 BMatC= 7.66D-12 BMatP= 4.48D-11
 IDIUse=1 WtCom= 1.00D+00 WtEn= 0.00D+00
 Coeff-Com: -0.106D-04 0.217D-04 0.392D-04 0.245D-04-0.110D-03-0.381D-03
 Coeff-Com:  0.170D-03 0.376D-02 0.566D-02-0.918D-02-0.659D-01-0.278D-01
 Coeff-Com:  0.360D+00 0.733D+00
 Coeff:     -0.106D-04 0.217D-04 0.392D-04 0.245D-04-0.110D-03-0.381D-03
 Coeff:      0.170D-03 0.376D-02 0.566D-02-0.918D-02-0.659D-01-0.278D-01
 Coeff:      0.360D+00 0.733D+00
 Gap=     0.261 Goal=   None    Shift=    0.000
 RMSDP=1.89D-08 MaxDP=4.69D-07 DE=-1.63D-10 OVMax= 2.57D-06

 Cycle  15  Pass 1  IDiag  1:
 RMSU=  9.87D-09    CP:  9.87D-01  1.36D+00  9.32D-01  8.53D-01  1.25D+00
                    CP:  1.49D+00  1.35D+00  1.34D+00  1.37D+00  1.53D+00
                    CP:  1.52D+00  1.50D+00  1.34D+00  1.05D+00
 E= -1028.31469863890     Delta-E=       -0.000000000010 Rises=F Damp=F
 DIIS: error= 5.29D-08 at cycle  15 NSaved=  15.
 NSaved=15 IEnMin=15 EnMin= -1028.31469863890     IErMin=15 ErrMin= 5.29D-08
 ErrMax= 5.29D-08  0.00D+00 EMaxC= 1.00D-01 BMatC= 4.86D-13 BMatP= 7.66D-12
 IDIUse=1 WtCom= 1.00D+00 WtEn= 0.00D+00
 Coeff-Com: -0.311D-05 0.593D-05 0.151D-04 0.263D-04 0.777D-05-0.234D-03
 Coeff-Com: -0.473D-03-0.133D-03 0.299D-02 0.834D-02-0.115D-02-0.421D-01
 Coeff-Com: -0.563D-01 0.749D-01 0.101D+01
 Coeff:     -0.311D-05 0.593D-05 0.151D-04 0.263D-04 0.777D-05-0.234D-03
 Coeff:     -0.473D-03-0.133D-03 0.299D-02 0.834D-02-0.115D-02-0.421D-01
 Coeff:     -0.563D-01 0.749D-01 0.101D+01
 Gap=     0.261 Goal=   None    Shift=    0.000
 RMSDP=8.77D-09 MaxDP=2.13D-07 DE=-1.00D-11 OVMax= 9.35D-07

 Error on total polarization charges =  0.00801
 SCF Done:  E(RwB97XD) =  -1028.31469864     A.U. after   15 cycles
            NFock= 15  Conv=0.88D-08     -V/T= 2.0029
 KE= 1.025368878176D+03 PE=-4.607386758559D+03 EE= 1.456154672551D+03
 Leave Link  502 at Mon Jul 13 19:49:54 2020, MaxMem=  7784628224 cpu:             864.9 elap:              87.2
 (Enter /gpfs/loomis/apps/avx/software/Gaussian/16-C.01_AVX/g16/l801.exe)
 DoSCS=F DFT=T ScalE2(SS,OS)=  1.000000  1.000000
 ExpMin= 1.22D-01 ExpMax= 1.11D+05 ExpMxC= 1.07D+03 IAcc=3 IRadAn=         5 AccDes= 0.00D+00
 HarFok:  IExCor=  205 AccDes= 0.00D+00 IRadAn=         5 IDoV=-2 UseB2=F ITyADJ=14
 ICtDFT= 12500011 ScaDFX=  1.000000  1.000000  1.000000  1.000000
 Largest valence mixing into a core orbital is  9.57D-05
 Largest core mixing into a valence orbital is  3.16D-05
 Range of M.O.s used for correlation:    21   273
 NBasis=   273 NAE=    59 NBE=    59 NFC=    20 NFV=     0
 NROrb=    253 NOA=    39 NOB=    39 NVA=   214 NVB=   214

 **** Warning!!: The largest alpha MO coefficient is  0.11863656D+02

 Leave Link  801 at Mon Jul 13 19:49:54 2020, MaxMem=  7784628224 cpu:               1.0 elap:               0.1
 (Enter /gpfs/loomis/apps/avx/software/Gaussian/16-C.01_AVX/g16/l914.exe)
 RHF ground state
 Keep R1, R2, and R3 ints in memory in canonical form, NReq=4262515490.
 FoFCou: FMM=F IPFlag=           0 FMFlag=           0 FMFlg1=           0
         NFxFlg=           0 DoJE=F BraDBF=F KetDBF=F FulRan=T
         wScrn=  0.000000 ICntrl=       600 IOpCl=  0 I1Cent=           0 NGrid=           0
         NMat0=    1 NMatS0=  37401 NMatT0=    0 NMatD0=    1 NMtDS0=    0 NMtDT0=    0
 Symmetry not used in FoFCou.
 Two-electron integral symmetry not used.
 MDV=  7784628224 DFT=T DoStab=F Mixed=T DoRPA=T DoScal=F NonHer=T
 NEqPCM:  Using equilibrium solvation (IEInf=0, Eps=   2.2280, EpsInf=   2.1319)
 Making orbital integer symmetry assigments:
    12 initial guesses have been made.
 Convergence on wavefunction:    0.000001000000000
 Davidson Disk Diagonalization:  ConvIn= 1.00D-06 SkipCon=T Conv= 1.00D-06.
 Max sub-space:  2000 roots to seek:    12 dimension of matrix:        16692
 Iteration     1 Dimension    12 NMult     0 NNew     12
 CISAX will form    12 AO SS matrices at one time.
 NMat=    12 NSing=    12 JSym2X= 0.
 Excitation Energies [eV] at current iteration:
 Root      1 :     4.113940081680096
 Root      2 :     4.913910394886279
 Root      3 :     5.027724278672525
 Root      4 :     5.126661604604672
 Root      5 :     5.915946288614353
 Root      6 :     6.176371823069903
 Root      7 :     6.262216647600215
 Root      8 :     6.581661160684164
 Root      9 :     6.839255091980461
 Root     10 :     7.124117017140253
 Root     11 :     7.529241098741522
 Root     12 :     7.875288690155980
 Iteration     2 Dimension    18 NMult    12 NNew      6
 CISAX will form     6 AO SS matrices at one time.
 NMat=     6 NSing=     6 JSym2X= 0.
 Root      1 not converged, maximum delta is    0.049213485275446
 Root      2 not converged, maximum delta is    0.361930439337920
 Root      3 not converged, maximum delta is    0.335318606680691
 Excitation Energies [eV] at current iteration:
 Root      1 :     3.604706203829206   Change is   -0.509233877850890
 Root      2 :     4.513728528463037   Change is   -0.400181866423241
 Root      3 :     4.555364098801204   Change is   -0.472360179871322
 Iteration     3 Dimension    24 NMult    18 NNew      6
 CISAX will form     6 AO SS matrices at one time.
 NMat=     6 NSing=     6 JSym2X= 0.
 Root      1 not converged, maximum delta is    0.018602103300933
 Root      2 not converged, maximum delta is    0.065536511082169
 Root      3 not converged, maximum delta is    0.063922651577462
 Excitation Energies [eV] at current iteration:
 Root      1 :     3.572570708234985   Change is   -0.032135495594221
 Root      2 :     4.468321112759580   Change is   -0.045407415703457
 Root      3 :     4.506865099778580   Change is   -0.048498999022623
 Iteration     4 Dimension    30 NMult    24 NNew      6
 CISAX will form     6 AO SS matrices at one time.
 NMat=     6 NSing=     6 JSym2X= 0.
 Root      1 not converged, maximum delta is    0.006977648697078
 Root      2 not converged, maximum delta is    0.013263450520701
 Root      3 not converged, maximum delta is    0.013316573819265
 Excitation Energies [eV] at current iteration:
 Root      1 :     3.568914267185967   Change is   -0.003656441049018
 Root      2 :     4.463743131624508   Change is   -0.004577981135073
 Root      3 :     4.501162034444227   Change is   -0.005703065334353
 Iteration     5 Dimension    36 NMult    30 NNew      6
 CISAX will form     6 AO SS matrices at one time.
 NMat=     6 NSing=     6 JSym2X= 0.
 Root      1 not converged, maximum delta is    0.002251246272569
 Root      2 not converged, maximum delta is    0.002053133279522
 Root      3 not converged, maximum delta is    0.002011329216397
 Excitation Energies [eV] at current iteration:
 Root      1 :     3.568564370227427   Change is   -0.000349896958540
 Root      2 :     4.463150340276615   Change is   -0.000592791347893
 Root      3 :     4.500734930675578   Change is   -0.000427103768649
 Iteration     6 Dimension    42 NMult    36 NNew      6
 CISAX will form     6 AO SS matrices at one time.
 NMat=     6 NSing=     6 JSym2X= 0.
 Root      1 not converged, maximum delta is    0.000502295744342
 Root      2 not converged, maximum delta is    0.000567515968365
 Root      3 not converged, maximum delta is    0.000686059669773
 Excitation Energies [eV] at current iteration:
 Root      1 :     3.568535325505251   Change is   -0.000029044722176
 Root      2 :     4.463110216010265   Change is   -0.000040124266349
 Root      3 :     4.500692371242841   Change is   -0.000042559432738
 Iteration     7 Dimension    48 NMult    42 NNew      6
 CISAX will form     6 AO SS matrices at one time.
 NMat=     6 NSing=     6 JSym2X= 0.
 Root      1 not converged, maximum delta is    0.000082542827972
 Root      2 not converged, maximum delta is    0.000120486022972
 Root      3 not converged, maximum delta is    0.000182698501878
 Excitation Energies [eV] at current iteration:
 Root      1 :     3.568533827842990   Change is   -0.000001497662261
 Root      2 :     4.463107085490547   Change is   -0.000003130519719
 Root      3 :     4.500688129182943   Change is   -0.000004242059898
 Iteration     8 Dimension    54 NMult    48 NNew      6
 CISAX will form     6 AO SS matrices at one time.
 NMat=     6 NSing=     6 JSym2X= 0.
 Root      1 not converged, maximum delta is    0.000015951484130
 Root      2 not converged, maximum delta is    0.000054858823849
 Root      3 not converged, maximum delta is    0.000068598645029
 Excitation Energies [eV] at current iteration:
 Root      1 :     3.568533758427008   Change is   -0.000000069415982
 Root      2 :     4.463106800686347   Change is   -0.000000284804199
 Root      3 :     4.500687761862606   Change is   -0.000000367320336
 Iteration     9 Dimension    60 NMult    54 NNew      6
 CISAX will form     6 AO SS matrices at one time.
 NMat=     6 NSing=     6 JSym2X= 0.
 Root      1 not converged, maximum delta is    0.000004256292750
 Root      2 not converged, maximum delta is    0.000012735416588
 Root      3 not converged, maximum delta is    0.000020383106624
 Excitation Energies [eV] at current iteration:
 Root      1 :     3.568533754004246   Change is   -0.000000004422762
 Root      2 :     4.463106781807455   Change is   -0.000000018878892
 Root      3 :     4.500687721961613   Change is   -0.000000039900993
 Iteration    10 Dimension    66 NMult    60 NNew      6
 CISAX will form     6 AO SS matrices at one time.
 NMat=     6 NSing=     6 JSym2X= 0.
 Root      1 has converged.
 Root      2 not converged, maximum delta is    0.000002336413742
 Root      3 not converged, maximum delta is    0.000003420087432
 Excitation Energies [eV] at current iteration:
 Root      1 :     3.568533753800302   Change is   -0.000000000203944
 Root      2 :     4.463106780755527   Change is   -0.000000001051928
 Root      3 :     4.500687720171536   Change is   -0.000000001790078
 Iteration    11 Dimension    70 NMult    66 NNew      4
 CISAX will form     4 AO SS matrices at one time.
 NMat=     4 NSing=     4 JSym2X= 0.
 Root      1 has converged.
 Root      2 has converged.
 Root      3 not converged, maximum delta is    0.000001252264139
 Excitation Energies [eV] at current iteration:
 Root      1 :     3.568533753797054   Change is   -0.000000000003248
 Root      2 :     4.463106780697597   Change is   -0.000000000057929
 Root      3 :     4.500687720060061   Change is   -0.000000000111474
 Iteration    12 Dimension    72 NMult    70 NNew      2
 CISAX will form     2 AO SS matrices at one time.
 NMat=     2 NSing=     2 JSym2X= 0.
 Root      1 has converged.
 Root      2 has converged.
 Root      3 has converged.
 Excitation Energies [eV] at current iteration:
 Root      1 :     3.568533753796962   Change is   -0.000000000000092
 Root      2 :     4.463106780697100   Change is   -0.000000000000498
 Root      3 :     4.500687720054509   Change is   -0.000000000005553
 Convergence achieved on expansion vectors.
 ***********************************************************************
 Excited states from <AA,BB:AA,BB> singles matrix:
 ***********************************************************************
 
 1PDM for each excited state written to RWF  633
 Ground to excited state transition densities written to RWF  633
 Ground to excited state transition electric dipole moments (Au):
       state          X           Y           Z        Dip. S.      Osc.
         1         2.0994     -2.3670     -0.0000     10.0103      0.8752
         2        -1.1859     -0.1264     -0.0000      1.4223      0.1555
         3         0.4233     -0.2405      0.0000      0.2370      0.0261
 Ground to excited state transition velocity dipole moments (Au):
       state          X           Y           Z        Dip. S.      Osc.
         1        -0.2679      0.3061      0.0000      0.1654      0.8409
         2         0.1928      0.0242      0.0000      0.0378      0.1535
         3        -0.0675      0.0338     -0.0000      0.0057      0.0229
 Ground to excited state transition magnetic dipole moments (Au):
       state          X           Y           Z
         1         0.0000      0.0000     -0.4163
         2         0.0000      0.0000     -0.4089
         3         0.0000     -0.0000      1.0079
 Ground to excited state transition velocity quadrupole moments (Au):
       state          XX          YY          ZZ          XY          XZ          YZ
         1        -0.1240      0.3931     -0.0065     -0.1614     -0.0000      0.0000
         2         0.2636      0.3429     -0.0252     -0.3560     -0.0000      0.0000
         3         0.4927     -0.6154     -0.0085     -0.0560      0.0000     -0.0000
 <0|del|b> * <b|rxdel|0> + <0|del|b> * <b|delr+rdel|0>
 Rotatory Strengths (R) in cgs (10**-40 erg-esu-cm/Gauss)
       state          XX          YY          ZZ    R(velocity)    E-M Angle
         1         0.0188     -0.0169      0.0190      0.0070       90.00
         2        -0.0003      0.0039      0.0001      0.0012       90.00
         3        -0.0031     -0.0016     -0.0029     -0.0026       90.00
 1/2[<0|r|b>*<b|rxdel|0> + (<0|rxdel|b>*<b|r|0>)*]
 Rotatory Strengths (R) in cgs (10**-40 erg-esu-cm/Gauss)
       state          XX          YY          ZZ     R(length)
         1        -0.0103      0.0406     -0.0093      0.0070
         2         0.0042      0.0006     -0.0011      0.0013
         3        -0.0016     -0.0030     -0.0035     -0.0027
  1/2[<0|del|b>*<b|r|0> + (<0|r|b>*<b|del|0>)*] (Au)
       state          X           Y           Z        Dip. S.   Osc.(frdel)
         1        -0.5623     -0.7244     -0.0000      1.2868      0.8579
         2        -0.2286     -0.0031     -0.0000      0.2317      0.1545
         3        -0.0286     -0.0081     -0.0000      0.0367      0.0245

 Excitation energies and oscillator strengths:
 
 Excited state symmetry could not be determined.
 Excited State   1:      Singlet-?Sym    3.5685 eV  347.44 nm  f=0.8752  <S**2>=0.000
      59 -> 60         0.68905
 This state for optimization and/or second-order correction.
 Total Energy, E(TD-HF/TD-DFT) =  -1028.18355744    
 Copying the excited state density for this state as the 1-particle RhoCI density.
 
 Excited state symmetry could not be determined.
 Excited State   2:      Singlet-?Sym    4.4631 eV  277.80 nm  f=0.1555  <S**2>=0.000
      57 -> 60        -0.20338
      58 -> 60         0.60490
      59 -> 61        -0.12436
      59 -> 62         0.15377
 
 Excited state symmetry could not be determined.
 Excited State   3:      Singlet-?Sym    4.5007 eV  275.48 nm  f=0.0261  <S**2>=0.000
      57 -> 60         0.60595
      58 -> 60         0.18694
      58 -> 63        -0.14451
      59 -> 61        -0.20123
      59 -> 62        -0.11298
 SavETr:  write IOETrn=   770 NScale= 10 NData=  16 NLR=1 NState=    3 LETran=      64.
 The selected state is a singlet.
 CISGrd: IGrad=2 NXY=2 DFT=T
 CISAX will form     1 AO SS matrices at one time.
 NMat=     1 NSing=     1 JSym2X= 0.
 GePol: Maximum number of non-zero 1st derivatives   =     271
 Leave Link  914 at Mon Jul 13 19:52:51 2020, MaxMem=  7784628224 cpu:            1744.5 elap:             177.1
 (Enter /gpfs/loomis/apps/avx/software/Gaussian/16-C.01_AVX/g16/l1002.exe)
 Minotr:  Closed shell wavefunction.
          Computing CIS/TDA/TD derivatives.
          Using Z-Vector for PSCF gradient.
          Skipping F1 and S1 gradient terms here.
          IDoAtm=1111111111111111111111111
 NEqPCM:  Using equilibrium solvation (IEInf=0, Eps=   2.2280, EpsInf=   2.1319)
          Frozen-core window.
          Direct CPHF calculation.
          Differentiating once with respect to electric field.
                with respect to dipole field.
          Differentiating once with respect to nuclear coordinates.
          Requested convergence is 1.0D-10 RMS, and 1.0D-09 maximum.
          NewPWx=F KeepS1=T KeepF1=T KeepIn=T MapXYZ=F SortEE=F KeepMc=T.
 Keep R1 ints in memory in canonical form, NReq=1421478745.
 FoFCou: FMM=F IPFlag=           0 FMFlag=           0 FMFlg1=           0
         NFxFlg=           0 DoJE=F BraDBF=F KetDBF=F FulRan=T
         wScrn=  0.000000 ICntrl=       600 IOpCl=  0 I1Cent=           0 NGrid=           0
         NMat0=    1 NMatS0=  37401 NMatT0=    0 NMatD0=    1 NMtDS0=    0 NMtDT0=    0
 Symmetry not used in FoFCou.
 Two-electron integral symmetry not used.
          MDV=    7784628224 using IRadAn=       5.
          Solving linear equations separately, MaxMat=       0.
          There are     1 degrees of freedom in the 1st order CPHF.  IDoFFX=0 NUNeed=     1.
 LinEq1:  Iter=  0 NonCon=     1 RMS=3.04D-03 Max=1.43D-01 NDo=     1
 AX will form     1 AO Fock derivatives at one time.
 LinEq1:  Iter=  1 NonCon=     1 RMS=1.32D-03 Max=6.51D-02 NDo=     1
 LinEq1:  Iter=  2 NonCon=     1 RMS=7.35D-04 Max=2.48D-02 NDo=     1
 LinEq1:  Iter=  3 NonCon=     1 RMS=2.88D-04 Max=9.27D-03 NDo=     1
 LinEq1:  Iter=  4 NonCon=     1 RMS=1.50D-04 Max=6.56D-03 NDo=     1
 LinEq1:  Iter=  5 NonCon=     1 RMS=8.24D-05 Max=3.46D-03 NDo=     1
 LinEq1:  Iter=  6 NonCon=     1 RMS=3.68D-05 Max=1.28D-03 NDo=     1
 LinEq1:  Iter=  7 NonCon=     1 RMS=2.22D-05 Max=8.97D-04 NDo=     1
 LinEq1:  Iter=  8 NonCon=     1 RMS=7.84D-06 Max=2.60D-04 NDo=     1
 LinEq1:  Iter=  9 NonCon=     1 RMS=3.92D-06 Max=1.31D-04 NDo=     1
 LinEq1:  Iter= 10 NonCon=     1 RMS=1.38D-06 Max=5.49D-05 NDo=     1
 LinEq1:  Iter= 11 NonCon=     1 RMS=6.47D-07 Max=2.76D-05 NDo=     1
 LinEq1:  Iter= 12 NonCon=     1 RMS=3.00D-07 Max=1.01D-05 NDo=     1
 LinEq1:  Iter= 13 NonCon=     1 RMS=1.20D-07 Max=3.32D-06 NDo=     1
 LinEq1:  Iter= 14 NonCon=     1 RMS=6.44D-08 Max=2.04D-06 NDo=     1
 LinEq1:  Iter= 15 NonCon=     1 RMS=2.37D-08 Max=7.64D-07 NDo=     1
 LinEq1:  Iter= 16 NonCon=     1 RMS=1.06D-08 Max=2.58D-07 NDo=     1
 LinEq1:  Iter= 17 NonCon=     1 RMS=4.26D-09 Max=8.91D-08 NDo=     1
 LinEq1:  Iter= 18 NonCon=     1 RMS=1.47D-09 Max=3.94D-08 NDo=     1
 LinEq1:  Iter= 19 NonCon=     1 RMS=5.93D-10 Max=1.41D-08 NDo=     1
 LinEq1:  Iter= 20 NonCon=     1 RMS=3.14D-10 Max=1.06D-08 NDo=     1
 LinEq1:  Iter= 21 NonCon=     1 RMS=1.13D-10 Max=3.25D-09 NDo=     1
 LinEq1:  Iter= 22 NonCon=     0 RMS=4.17D-11 Max=7.12D-10 NDo=     1
 Linear equations converged to 1.000D-10 1.000D-09 after    22 iterations.
 End of Minotr F.D. properties file   721 does not exist.
 End of Minotr F.D. properties file   722 does not exist.
 End of Minotr F.D. properties file   788 does not exist.
 Leave Link 1002 at Mon Jul 13 19:54:30 2020, MaxMem=  7784628224 cpu:             738.0 elap:              97.5
 (Enter /gpfs/loomis/apps/avx/software/Gaussian/16-C.01_AVX/g16/l601.exe)
 Copying SCF densities to generalized density rwf, IOpCl= 0 IROHF=0.

 **********************************************************************

            Population analysis using the SCF Density.

 **********************************************************************

 Alpha  occ. eigenvalues --  -89.08790 -19.27028 -14.45581 -10.39201 -10.38894
 Alpha  occ. eigenvalues --  -10.34467 -10.34211 -10.33536 -10.32642 -10.32378
 Alpha  occ. eigenvalues --  -10.32005 -10.31310 -10.31166 -10.31089 -10.31077
 Alpha  occ. eigenvalues --  -10.31068  -8.10672  -6.05522  -6.05185  -6.04741
 Alpha  occ. eigenvalues --   -1.30475  -1.08045  -0.97548  -0.95524  -0.91289
 Alpha  occ. eigenvalues --   -0.88865  -0.87914  -0.84155  -0.82914  -0.77943
 Alpha  occ. eigenvalues --   -0.73743  -0.70274  -0.69536  -0.68583  -0.64942
 Alpha  occ. eigenvalues --   -0.60197  -0.59545  -0.58295  -0.56327  -0.54849
 Alpha  occ. eigenvalues --   -0.53912  -0.53612  -0.52543  -0.51172  -0.51080
 Alpha  occ. eigenvalues --   -0.49434  -0.48474  -0.46188  -0.45625  -0.45098
 Alpha  occ. eigenvalues --   -0.43582  -0.43319  -0.42111  -0.39559  -0.36831
 Alpha  occ. eigenvalues --   -0.36498  -0.32484  -0.31671  -0.28101
 Alpha virt. eigenvalues --   -0.01995   0.05460   0.06457   0.07126   0.07808
 Alpha virt. eigenvalues --    0.11579   0.13283   0.15180   0.15967   0.18102
 Alpha virt. eigenvalues --    0.18556   0.21282   0.21779   0.22277   0.22965
 Alpha virt. eigenvalues --    0.23280   0.23690   0.25248   0.27927   0.30778
 Alpha virt. eigenvalues --    0.31973   0.33585   0.35007   0.36168   0.36824
 Alpha virt. eigenvalues --    0.37971   0.38452   0.40723   0.43986   0.46413
 Alpha virt. eigenvalues --    0.46643   0.48684   0.50886   0.51247   0.51835
 Alpha virt. eigenvalues --    0.52350   0.53625   0.54685   0.54736   0.55808
 Alpha virt. eigenvalues --    0.55983   0.56322   0.57223   0.58144   0.58149
 Alpha virt. eigenvalues --    0.58752   0.59034   0.59628   0.59807   0.59922
 Alpha virt. eigenvalues --    0.60724   0.60983   0.62089   0.62595   0.64142
 Alpha virt. eigenvalues --    0.65308   0.66056   0.66487   0.68811   0.69009
 Alpha virt. eigenvalues --    0.70310   0.72037   0.72460   0.72948   0.73241
 Alpha virt. eigenvalues --    0.73982   0.75598   0.76158   0.77376   0.78818
 Alpha virt. eigenvalues --    0.79412   0.79617   0.81623   0.82577   0.82744
 Alpha virt. eigenvalues --    0.85460   0.88643   0.91649   0.93519   0.93857
 Alpha virt. eigenvalues --    0.94819   0.95043   0.96251   0.96748   0.98171
 Alpha virt. eigenvalues --    0.98730   0.99122   1.00542   1.00951   1.02372
 Alpha virt. eigenvalues --    1.03517   1.04778   1.05951   1.06314   1.07538
 Alpha virt. eigenvalues --    1.07991   1.09085   1.09774   1.10525   1.10662
 Alpha virt. eigenvalues --    1.11797   1.13255   1.13534   1.15665   1.16500
 Alpha virt. eigenvalues --    1.17148   1.18563   1.20495   1.22005   1.23979
 Alpha virt. eigenvalues --    1.25465   1.28777   1.33444   1.34437   1.35049
 Alpha virt. eigenvalues --    1.35418   1.36621   1.38564   1.42769   1.44197
 Alpha virt. eigenvalues --    1.47984   1.48755   1.52289   1.54662   1.54824
 Alpha virt. eigenvalues --    1.55370   1.56222   1.57301   1.57757   1.58145
 Alpha virt. eigenvalues --    1.59787   1.62999   1.65035   1.66317   1.66396
 Alpha virt. eigenvalues --    1.67828   1.68223   1.70243   1.70732   1.71672
 Alpha virt. eigenvalues --    1.71888   1.72649   1.72951   1.74944   1.75331
 Alpha virt. eigenvalues --    1.77055   1.77726   1.79990   1.81333   1.82482
 Alpha virt. eigenvalues --    1.83469   1.83694   1.84748   1.86072   1.86720
 Alpha virt. eigenvalues --    1.86950   1.88233   1.89665   1.90994   1.92193
 Alpha virt. eigenvalues --    1.93008   1.93045   1.93996   1.94280   1.94982
 Alpha virt. eigenvalues --    2.00636   2.00768   2.02264   2.03706   2.04414
 Alpha virt. eigenvalues --    2.07739   2.08529   2.09999   2.10962   2.12158
 Alpha virt. eigenvalues --    2.17914   2.17944   2.20754   2.24953   2.26312
 Alpha virt. eigenvalues --    2.27727   2.29583   2.36489   2.38688   2.42017
 Alpha virt. eigenvalues --    2.42102   2.45852   2.47362   2.47691   2.49140
 Alpha virt. eigenvalues --    2.50274   2.51072   2.54839   2.61658   2.62635
 Alpha virt. eigenvalues --    2.67459   2.72569   2.74797   2.79002   2.81506
 Alpha virt. eigenvalues --    2.82693   2.84355   2.89765   2.91678   2.97918
 Alpha virt. eigenvalues --    3.05873   3.11793   3.29177   3.47168   3.48277
 Alpha virt. eigenvalues --    3.56891   3.61732   3.78086   5.62814
          Condensed to atoms (all electrons):
               1          2          3          4          5          6
     1  C    4.767697   0.432244   0.014903  -0.054353  -0.012407   0.525802
     2  C    0.432244   5.350381   0.336865  -0.035242  -0.063710  -0.006390
     3  C    0.014903   0.336865   4.737040   0.486104  -0.006277  -0.065258
     4  C   -0.054353  -0.035242   0.486104   4.784265   0.526412  -0.014052
     5  C   -0.012407  -0.063710  -0.006277   0.526412   4.735828   0.484667
     6  C    0.525802  -0.006390  -0.065258  -0.014052   0.484667   4.753051
     7  H    0.401032  -0.039040   0.007919  -0.000432   0.007995  -0.038510
     8  H   -0.001206   0.012485  -0.030453   0.391083  -0.045261   0.008128
     9  H    0.008846  -0.000829   0.008783  -0.039878   0.405143  -0.045564
    10  H   -0.041931   0.009850  -0.000697   0.008788  -0.044109   0.405270
    11  N    0.009636  -0.067341   0.533617  -0.043468   0.003185  -0.000095
    12  S   -0.063648   0.348491  -0.097397   0.007326   0.000172   0.003403
    13  C   -0.000144   0.004409   0.006838  -0.000841   0.000009   0.000001
    14  C   -0.000006  -0.000045   0.000362   0.000007  -0.000000  -0.000000
    15  C    0.000006   0.000003  -0.001328   0.000006   0.000000  -0.000000
    16  C    0.000000  -0.000001   0.000004  -0.000000   0.000000   0.000000
    17  H   -0.000001   0.000038  -0.000012  -0.000001   0.000000  -0.000000
    18  C    0.000000   0.000006  -0.000035   0.000000  -0.000000   0.000000
    19  C   -0.000000   0.000000   0.000003  -0.000000   0.000000   0.000000
    20  H   -0.000000  -0.000000  -0.000000   0.000000   0.000000  -0.000000
    21  H    0.000000  -0.000000   0.000000   0.000000  -0.000000  -0.000000
    22  H   -0.000000  -0.000000   0.000000  -0.000000   0.000000   0.000000
    23  C    0.005152  -0.059652  -0.136046   0.000504   0.000258  -0.000194
    24  O    0.000000  -0.000069  -0.000292   0.000032  -0.000000  -0.000000
    25  H   -0.000048   0.001247  -0.001612  -0.000706   0.000011   0.000007
               7          8          9         10         11         12
     1  C    0.401032  -0.001206   0.008846  -0.041931   0.009636  -0.063648
     2  C   -0.039040   0.012485  -0.000829   0.009850  -0.067341   0.348491
     3  C    0.007919  -0.030453   0.008783  -0.000697   0.533617  -0.097397
     4  C   -0.000432   0.391083  -0.039878   0.008788  -0.043468   0.007326
     5  C    0.007995  -0.045261   0.405143  -0.044109   0.003185   0.000172
     6  C   -0.038510   0.008128  -0.045564   0.405270  -0.000095   0.003403
     7  H    0.661875   0.000036  -0.000145  -0.012175  -0.000127  -0.006269
     8  H    0.000036   0.662508  -0.012446  -0.000126  -0.000349  -0.000078
     9  H   -0.000145  -0.012446   0.670758  -0.012268  -0.000111   0.000020
    10  H   -0.012175  -0.000126  -0.012268   0.667293  -0.000003  -0.000138
    11  N   -0.000127  -0.000349  -0.000111  -0.000003   6.396442  -0.083397
    12  S   -0.006269  -0.000078   0.000020  -0.000138  -0.083397  15.499646
    13  C    0.000006   0.000049  -0.000000  -0.000000  -0.021198  -0.061463
    14  C    0.000000   0.000001   0.000000  -0.000000   0.003452  -0.004688
    15  C   -0.000000  -0.000072   0.000000   0.000000  -0.023657   0.004752
    16  C   -0.000000  -0.000000  -0.000000   0.000000  -0.000095  -0.000115
    17  H    0.000001   0.000000  -0.000000  -0.000000   0.000172   0.005805
    18  C   -0.000000   0.000001  -0.000000  -0.000000   0.000017  -0.000058
    19  C    0.000000   0.000000  -0.000000  -0.000000   0.000053   0.000012
    20  H   -0.000000  -0.000000   0.000000   0.000000   0.000001  -0.000002
    21  H   -0.000000  -0.000000   0.000000   0.000000  -0.000018   0.000002
    22  H    0.000000   0.000000  -0.000000  -0.000000   0.000000  -0.000000
    23  C    0.000022  -0.001083   0.000009   0.000002   0.560890   0.302169
    24  O   -0.000000  -0.000125   0.000000  -0.000000  -0.017487  -0.000068
    25  H    0.000000   0.001132  -0.000003   0.000000   0.049977   0.002037
              13         14         15         16         17         18
     1  C   -0.000144  -0.000006   0.000006   0.000000  -0.000001   0.000000
     2  C    0.004409  -0.000045   0.000003  -0.000001   0.000038   0.000006
     3  C    0.006838   0.000362  -0.001328   0.000004  -0.000012  -0.000035
     4  C   -0.000841   0.000007   0.000006  -0.000000  -0.000001   0.000000
     5  C    0.000009  -0.000000   0.000000   0.000000   0.000000  -0.000000
     6  C    0.000001  -0.000000  -0.000000   0.000000  -0.000000   0.000000
     7  H    0.000006   0.000000  -0.000000  -0.000000   0.000001  -0.000000
     8  H    0.000049   0.000001  -0.000072  -0.000000   0.000000   0.000001
     9  H   -0.000000   0.000000   0.000000  -0.000000  -0.000000  -0.000000
    10  H   -0.000000  -0.000000   0.000000   0.000000  -0.000000  -0.000000
    11  N   -0.021198   0.003452  -0.023657  -0.000095   0.000172   0.000017
    12  S   -0.061463  -0.004688   0.004752  -0.000115   0.005805  -0.000058
    13  C    5.357707   0.505961   0.254611  -0.011981  -0.037537  -0.096522
    14  C    0.505961   4.786569  -0.026242   0.528742   0.403855  -0.053221
    15  C    0.254611  -0.026242   4.954020  -0.066524   0.008697   0.478787
    16  C   -0.011981   0.528742  -0.066524   4.747915  -0.038004  -0.012386
    17  H   -0.037537   0.403855   0.008697  -0.038004   0.670029  -0.000824
    18  C   -0.096522  -0.053221   0.478787  -0.012386  -0.000824   4.859058
    19  C   -0.040417  -0.016162  -0.003799   0.483872   0.008468   0.487366
    20  H    0.008633  -0.035288  -0.000393   0.402285  -0.013088   0.008543
    21  H    0.010396  -0.000357  -0.024621   0.007069   0.000036   0.385929
    22  H   -0.000730   0.008628   0.009098  -0.042572  -0.000139  -0.041750
    23  C    0.287609  -0.088007  -0.064949   0.007927  -0.020383   0.007523
    24  O   -0.043952   0.003554   0.459075   0.000020  -0.000053  -0.066247
    25  H   -0.067441  -0.001555   0.021982  -0.000038   0.000050   0.016716
              19         20         21         22         23         24
     1  C   -0.000000  -0.000000   0.000000  -0.000000   0.005152   0.000000
     2  C    0.000000  -0.000000  -0.000000  -0.000000  -0.059652  -0.000069
     3  C    0.000003  -0.000000   0.000000   0.000000  -0.136046  -0.000292
     4  C   -0.000000   0.000000   0.000000  -0.000000   0.000504   0.000032
     5  C    0.000000   0.000000  -0.000000   0.000000   0.000258  -0.000000
     6  C    0.000000  -0.000000  -0.000000   0.000000  -0.000194  -0.000000
     7  H    0.000000  -0.000000  -0.000000   0.000000   0.000022  -0.000000
     8  H    0.000000  -0.000000  -0.000000   0.000000  -0.001083  -0.000125
     9  H   -0.000000   0.000000   0.000000  -0.000000   0.000009   0.000000
    10  H   -0.000000   0.000000   0.000000  -0.000000   0.000002  -0.000000
    11  N    0.000053   0.000001  -0.000018   0.000000   0.560890  -0.017487
    12  S    0.000012  -0.000002   0.000002  -0.000000   0.302169  -0.000068
    13  C   -0.040417   0.008633   0.010396  -0.000730   0.287609  -0.043952
    14  C   -0.016162  -0.035288  -0.000357   0.008628  -0.088007   0.003554
    15  C   -0.003799  -0.000393  -0.024621   0.009098  -0.064949   0.459075
    16  C    0.483872   0.402285   0.007069  -0.042572   0.007927   0.000020
    17  H    0.008468  -0.013088   0.000036  -0.000139  -0.020383  -0.000053
    18  C    0.487366   0.008543   0.385929  -0.041750   0.007523  -0.066247
    19  C    4.746345  -0.047050  -0.042954   0.407568   0.000292   0.002989
    20  H   -0.047050   0.671555  -0.000153  -0.011538  -0.000305   0.000003
    21  H   -0.042954  -0.000153   0.648865  -0.011559  -0.000386   0.000947
    22  H    0.407568  -0.011538  -0.011559   0.656557   0.000003  -0.000053
    23  C    0.000292  -0.000305  -0.000386   0.000003   5.140567  -0.006258
    24  O    0.002989   0.000003   0.000947  -0.000053  -0.006258   7.032634
    25  H   -0.000176  -0.000000   0.000403   0.000001   0.006579   0.394925
              25
     1  C   -0.000048
     2  C    0.001247
     3  C   -0.001612
     4  C   -0.000706
     5  C    0.000011
     6  C    0.000007
     7  H    0.000000
     8  H    0.001132
     9  H   -0.000003
    10  H    0.000000
    11  N    0.049977
    12  S    0.002037
    13  C   -0.067441
    14  C   -0.001555
    15  C    0.021982
    16  C   -0.000038
    17  H    0.000050
    18  C    0.016716
    19  C   -0.000176
    20  H   -0.000000
    21  H    0.000403
    22  H    0.000001
    23  C    0.006579
    24  O    0.394925
    25  H    0.831701
 Mulliken charges:
               1
     1  C    0.008428
     2  C   -0.223702
     3  C    0.206971
     4  C   -0.015554
     5  C    0.008083
     6  C   -0.010266
     7  H    0.017812
     8  H    0.015777
     9  H    0.017683
    10  H    0.020246
    11  N   -0.300095
    12  S    0.143486
    13  C   -0.054003
    14  C   -0.015561
    15  C    0.020550
    16  C   -0.006118
    17  H    0.012891
    18  C    0.027099
    19  C    0.013591
    20  H    0.016798
    21  H    0.026401
    22  H    0.026487
    23  C    0.057759
    24  O    0.240426
    25  H   -0.255190
 Sum of Mulliken charges =  -0.00000
 Mulliken charges with hydrogens summed into heavy atoms:
               1
     1  C    0.026240
     2  C   -0.223702
     3  C    0.206971
     4  C    0.000223
     5  C    0.025766
     6  C    0.009980
    11  N   -0.300095
    12  S    0.143486
    13  C   -0.054003
    14  C   -0.002670
    15  C    0.020550
    16  C    0.010680
    18  C    0.053501
    19  C    0.040077
    23  C    0.057759
    24  O   -0.014764
 Electronic spatial extent (au):  <R**2>=           4361.5938
 Charge=             -0.0000 electrons
 Dipole moment (field-independent basis, Debye):
    X=             -1.0726    Y=             -0.9944    Z=              0.0000  Tot=              1.4626
 Quadrupole moment (field-independent basis, Debye-Ang):
   XX=            -82.5164   YY=            -86.2898   ZZ=           -104.0449
   XY=             -7.9490   XZ=             -0.0001   YZ=              0.0003
 Traceless Quadrupole moment (field-independent basis, Debye-Ang):
[...]
 0007,-0.00172549,-0.00180850,0.00000004,-0.00570000,0.00685013,0.00000
 006,0.00407763,-0.00052231,-0.00000003,-0.00011037,0.00203460,0.,0.000
 03080,0.00006925,0.,-0.00002485,0.00006791,0.,0.00000416,-0.00000268,0
 .,-0.00006068,0.00005111,0.,0.00001130,-0.00002804,0.,0.00803589,-0.00
 468259,0.00000011,0.00036131,-0.00169903,-0.00000011,0.05081340,0.0296
 7995,0.00000068,0.09117357,-0.27675269,-0.00000987,0.00174867,-0.02811
 050,-0.00000157,-0.01564640,0.65436044,-0.00000014,0.00000004,-0.00008
 347,-0.00000005,-0.00000019,-0.00014881,-0.00000036,0.00000047,-0.0001
 2772,0.00000027,-0.00000004,-0.00005704,-0.00000001,0.00000012,-0.0000
 6647,0.00000005,-0.00000002,0.00002656,0.,0.,-0.00003603,0.,0.,-0.0000
 3493,0.,0.,-0.00001384,0.,0.,0.00007395,0.00000050,-0.00000027,0.00170
 577,0.,-0.00000015,0.00011839,0.00000191,0.00000126,0.00274561,0.00000
 611,-0.00001164,-0.05335281,0.00000013,-0.00000119,-0.00327914,-0.0000
 0424,0.00002732,0.13068909,0.00014874,-0.00001907,0.,-0.00101968,-0.00
 030446,0.00000005,-0.00004044,0.00068211,0.,0.00043451,-0.00002317,0.,
 0.00007323,0.00040009,0.,-0.00016652,-0.00020602,0.,-0.00001066,0.0000
 1397,0.,0.00001284,-0.00000950,0.,-0.00000588,0.00000118,0.,0.00002263
 ,-0.00000031,0.,0.00079384,0.00004505,0.00000002,-0.00038910,0.0010915
 5,-0.00000003,-0.00665091,-0.02761013,-0.00000119,-0.10153408,-0.10468
 671,-0.00000456,-0.00622622,0.00194933,0.00000002,0.01060434,0.0190634
 5,0.00000082,0.10468916,-0.00003198,-0.00007656,0.,-0.00032585,-0.0000
 9205,-0.00000002,-0.00033412,0.00072973,-0.00000002,0.00045672,-0.0000
 9271,0.,0.00001836,0.00047262,0.,-0.00023523,-0.00019857,0.,0.00000049
 ,0.00001936,0.,-0.00000473,-0.00001357,0.,-0.00001529,0.00000372,0.,-0
 .00001038,0.00000338,0.,0.00080114,-0.00009439,0.00000008,-0.00013932,
 -0.00042778,0.00000005,0.00276485,0.00019952,-0.00000007,-0.10345983,-
 0.29880564,-0.00001151,0.00003534,0.00133265,-0.00000021,-0.01269240,-
 0.01844161,-0.00000090,0.10900884,0.31633603,0.00000008,-0.00000004,-0
 .00006082,-0.00000008,0.00000009,-0.00025203,0.00000004,-0.00000009,0.
 00016340,-0.00000003,0.,0.00007050,0.,0.00000001,0.00000794,-0.0000000
 6,0.,0.00002226,0.,0.,0.00001083,0.,0.,0.00003539,0.,0.,0.00000469,0.,
 0.,-0.00002099,-0.00000008,0.00000003,-0.00106429,0.,0.00000010,0.0003
 1568,0.00000082,-0.00000003,0.00223602,-0.00000520,-0.00001138,-0.0314
 3252,0.00000005,-0.00000019,0.00514536,-0.00000043,-0.00000155,0.00324
 634,0.00000462,0.00001274,0.02130552,-0.00212338,0.00170903,-0.0000000
 4,0.00270041,-0.00058324,-0.00000001,-0.00037550,0.00217617,0.00000006
 ,0.00044271,0.00014783,0.,-0.00033865,-0.00175312,0.,0.00313419,0.0004
 0329,0.,-0.00011739,-0.00007360,0.,0.00017900,0.00010993,0.,0.00017042
 ,-0.00003252,0.,0.00010831,-0.00003263,0.00000001,0.00579187,0.0052646
 7,-0.00000007,-0.00189041,-0.00111200,0.00000001,0.01970722,0.01967779
 ,0.00000118,-0.01634314,0.02458737,0.00000138,-0.17543966,0.07970705,0
 .00000592,-0.01388668,-0.06113884,-0.00000263,-0.00028064,0.00045707,-
 0.00000019,0.78709389,-0.00005370,-0.00046755,-0.00000003,-0.00362164,
 -0.00375479,-0.00000002,-0.00336992,0.00608297,-0.00000007,0.00341279,
 -0.00071929,0.00000001,0.00030672,0.00335487,0.,-0.00166260,-0.0013161
 7,0.,0.00002050,0.00011733,0.,-0.00011978,-0.00011241,0.,-0.00010941,0
 .00002327,0.,-0.00000968,0.00000176,0.,0.00736697,-0.00438638,0.000000
 22,0.00160395,-0.00371641,0.00000006,0.01924221,-0.03347176,-0.0000024
 4,-0.00387502,-0.00204668,0.00000026,0.13169080,-0.27555224,-0.0000131
 7,-0.03551656,-0.00424906,-0.00000012,-0.00039618,0.00031477,0.0000001
 9,0.03916344,0.72156978,-0.00000003,-0.00000003,0.00054355,-0.00000020
 ,-0.00000023,0.00047545,-0.00000022,0.00000031,0.00050328,0.00000019,-
 0.00000003,-0.00033432,0.00000002,0.00000018,0.00003045,-0.00000007,-0
 .00000007,-0.00002990,0.,0.,-0.00000374,0.,0.,-0.00000875,0.,0.,0.0000
 3030,0.,0.,-0.00012146,0.00000029,-0.00000042,-0.00158934,0.00000010,-
 0.00000007,-0.00012857,0.00000045,-0.00000151,0.00905031,0.00000029,-0
 .00000048,-0.00108867,0.00000867,-0.00001279,-0.06690187,-0.00000159,0
 .00000021,0.00612470,0.00000001,0.00000006,-0.00067723,-0.00001393,0.0
 0002878,0.11166368,0.00275850,-0.00149589,0.00000006,-0.00079851,0.002
 81611,-0.00000001,0.00485791,-0.00816937,-0.00000003,-0.00389211,0.000
 54639,0.,0.00049281,-0.00075708,0.,-0.00246395,0.00055439,0.,0.0000981
 2,0.00005051,0.,-0.00007357,-0.00006408,0.,-0.00013748,-0.00000117,0.,
 -0.00008285,0.00006043,0.,-0.01167098,0.00165784,-0.00000004,0.0026640
 0,0.00207141,0.00000007,-0.01561072,-0.02254962,-0.00000096,0.04287642
 ,-0.01042607,-0.00000092,-0.04554119,0.04355696,0.00000341,-0.14466946
 ,-0.02814310,-0.00000094,-0.00207473,0.00431557,0.00000046,-0.40191211
 ,-0.06387260,0.00000401,0.74977803,-0.00104305,-0.00022613,0.00000003,
 -0.00499183,-0.00600668,0.00000001,-0.00580562,0.01238849,-0.00000005,
 0.00692439,-0.00151550,0.00000002,0.00003950,0.00591251,0.00000002,-0.
 00161570,-0.00302823,-0.00000002,0.00000481,0.00015784,0.,-0.00011304,
 -0.00018700,0.00000001,-0.00009929,0.00004093,0.,-0.00003724,0.0000061
 9,-0.00000002,0.01380786,-0.00562598,-0.00000009,-0.00083925,-0.004217
 98,0.00000002,-0.01171793,-0.00958220,-0.00000038,0.01830212,-0.057913
 26,-0.00000370,0.01290899,0.03464356,0.00000132,-0.09001753,-0.2823778
 7,-0.00001196,0.00310362,-0.00176231,-0.00000026,-0.01380970,-0.128404
 48,-0.00000309,-0.04420841,0.67653648,-0.00000014,0.00000002,0.0001000
 2,-0.00000032,-0.00000047,-0.00028866,-0.00000050,0.00000105,-0.000806
 93,0.00000056,-0.00000012,0.00008023,-0.00000001,0.00000042,0.00007627
 ,-0.00000005,-0.00000022,-0.00001062,0.,0.,-0.00001172,0.,-0.00000001,
 -0.00009208,0.,0.,-0.00000571,0.,0.,0.00001152,0.00000125,-0.00000037,
 0.00121022,-0.00000014,-0.00000035,0.00026362,-0.00000027,0.00000018,-
 0.00433175,0.00000028,-0.00000314,0.00818866,0.00000179,0.00000057,0.0
 0227355,-0.00000383,-0.00001250,-0.06092235,0.00000021,-0.00000048,0.0
 0678753,0.00000533,-0.00000252,-0.04960098,-0.00001256,0.00003159,0.11
 736528,0.00003671,-0.00006793,0.,-0.00011105,0.00004647,0.,-0.00000171
 ,-0.00006748,0.,0.00000116,0.00002321,0.,0.00002111,0.00008617,0.,-0.0
 0013206,0.00000934,0.,0.00000487,0.00001270,0.,-0.00000284,-0.00000843
 ,0.,-0.00001547,0.00000392,0.,-0.00000819,0.00000541,0.,-0.00022316,0.
 00038366,-0.00000002,0.00006833,-0.00003783,0.,0.00042265,0.00310590,0
 .00000019,-0.01397891,-0.00651474,-0.00000026,0.00061778,0.00014604,0.
 ,-0.33964141,-0.04320702,-0.00000061,0.00083327,0.00010197,-0.00000003
 ,0.00134093,-0.00211021,-0.00000014,-0.00658566,0.00214747,0.00000022,
 0.35776044,-0.00003645,0.00001558,0.,-0.00004499,-0.00012947,0.,-0.000
 03098,0.00023047,-0.00000004,0.00010579,-0.00005535,0.,0.00001443,0.00
 006320,0.,0.00000489,-0.00001666,0.,0.00000015,-0.00000037,0.,-0.00000
 082,-0.00000007,0.,0.00000133,-0.00000282,0.,0.00000211,-0.00000102,0.
 ,0.00054227,-0.00046562,0.00000009,0.00002767,-0.00003199,0.,0.0031194
 8,-0.00381017,-0.00000058,0.02475569,0.00721160,-0.00000005,0.00035689
 ,-0.00133545,-0.00000002,-0.04408672,-0.06535065,-0.00000143,0.0000222
 6,0.00086658,0.00000027,-0.00113683,-0.00558731,-0.00000057,-0.0296186
 7,0.00058059,0.,0.04653113,0.06544238,-0.00000002,0.,-0.00005069,-0.00
 000002,-0.00000004,0.00004771,-0.00000004,0.00000008,0.00058435,0.0000
 0004,-0.00000001,0.00013154,0.,0.00000003,-0.00007749,0.,0.,0.00002220
 ,0.,0.,0.00000178,0.,0.,0.00003898,0.,0.,-0.00002374,0.,0.,0.00000015,
 0.00000013,-0.00000009,-0.00121410,0.,-0.00000002,-0.00006867,0.000000
 27,-0.00000054,0.00790630,0.00000116,0.00000046,0.00580436,0.00000002,
 -0.00000014,-0.00091617,-0.00000056,-0.00000171,-0.03781145,-0.0000000
 2,0.00000026,-0.00476397,-0.00000006,-0.00000065,0.00468650,-0.0000014
 8,-0.00000003,0.00475642,0.00000062,0.00000200,0.02418170,-0.00007194,
 0.00003704,0.,0.00007874,0.00009579,0.,-0.00000066,0.00005882,0.000000
 02,0.00000391,0.00000771,0.,-0.00002412,-0.00005907,0.,0.00008814,0.00
 001512,0.,-0.00000090,-0.00000375,0.,-0.00000413,0.00000320,0.,0.00000
 467,0.00000070,0.,-0.00000105,-0.00000244,0.,0.00002418,0.00001317,-0.
 00000002,-0.00025640,0.00007613,-0.00000001,-0.00307329,0.00245003,0.0
 0000032,-0.00003167,0.00028822,0.,0.00816238,0.01949584,0.00000077,-0.
 00564369,0.00072552,0.00000032,0.00010963,-0.00010317,-0.00000003,-0.1
 0301356,-0.10966536,-0.00000306,-0.00448444,-0.02831857,-0.00000113,-0
 .00040587,-0.00140283,-0.00000011,0.10611633,0.00013539,0.00000035,0.0
 0000002,-0.00002251,0.00007857,0.,0.00020993,-0.00021974,-0.00000003,-
 0.00013317,0.00001093,0.,-0.00000700,-0.00008940,0.,0.00000429,-0.0000
 1282,0.,-0.00000559,-0.00000469,0.,0.00001196,0.00000553,0.,0.00000970
 ,-0.00000199,0.,0.00000722,-0.00000094,0.,-0.00036733,0.00035701,0.000
 00002,0.00024001,-0.00003272,0.00000001,0.00374902,-0.00112148,-0.0000
 0038,0.00045422,0.00021032,0.00000004,-0.01304122,-0.01907852,-0.00000
 059,-0.00015747,0.00172871,-0.00000021,-0.00005857,-0.00005402,0.00000
 003,-0.10470451,-0.30199876,-0.00001000,0.00176096,0.00153927,-0.00000
 006,0.00009752,-0.00002754,0.,0.11443797,0.31680960,0.00000006,-0.0000
 0002,-0.00028700,0.00000002,0.00000008,0.00004034,0.00000010,-0.000000
 21,0.00045038,-0.00000010,0.00000002,-0.00004090,0.,-0.00000005,-0.000
 04613,-0.00000002,0.00000002,0.00001582,0.,0.,0.00000155,0.,0.,0.00005
 256,0.,0.,0.00000391,0.,0.,0.00004901,-0.00000030,0.00000006,-0.000528
 78,0.00000008,0.00000005,-0.00010610,0.00000022,-0.00000034,0.00432274
 ,0.00000028,-0.00000014,-0.00075773,-0.00000093,-0.00000121,0.00441407
 ,0.00000019,0.,0.00708986,0.,0.00000004,-0.00065647,-0.00000233,-0.000
 00959,-0.03416177,-0.00000037,0.00000027,0.00340032,0.,0.00000005,-0.0
 0006691,0.00000334,0.00001077,0.02393495,-0.00003137,-0.00002999,0.,-0
 .00023391,-0.00019207,0.,-0.00019315,0.00046295,0.,0.00027184,-0.00006
 040,0.,0.00001381,0.00026082,0.,-0.00011361,-0.00009534,0.,0.00000136,
 0.00001114,0.,-0.00000178,-0.00001072,0.,-0.00001079,0.00000301,0.,-0.
 00000388,0.00000211,0.,0.00061633,-0.00009677,0.,-0.00001172,-0.000092
 08,0.,0.00019400,-0.00046598,-0.00000003,-0.00097446,-0.00245384,-0.00
 000006,-0.00410567,-0.00265064,0.00000007,0.01046140,-0.01130260,-0.00
 000071,0.00034563,-0.00053406,0.,-0.01194428,0.02591426,0.00000163,-0.
 17443403,0.14159255,0.00000950,0.00065729,0.00046008,-0.00000002,0.001
 09746,-0.00023341,-0.00000011,0.18046367,0.00012365,0.00000439,0.,0.00
 018872,0.00032533,0.,0.00044866,-0.00073068,0.,-0.00040688,0.00008049,
 0.,0.00000150,-0.00030126,0.,0.00006548,0.00009633,0.,-0.00000206,-0.0
 0001117,0.,0.00000634,0.00001024,0.,0.00001018,-0.00000371,0.,0.000004
 92,-0.00000073,0.,-0.00086648,0.00031325,0.,0.00000658,0.00026784,0.,-
 0.00140949,0.00007960,0.00000008,-0.00282375,-0.00383100,-0.00000046,-
 0.00152611,0.00046073,-0.00000033,0.02050993,-0.01465206,-0.00000117,0
 .00092725,-0.00098973,-0.00000006,-0.00636459,0.00769791,0.00000027,0.
 14274447,-0.23305933,-0.00001325,-0.00009405,0.00097712,0.00000022,0.0
 0026265,0.00059984,0.00000024,-0.15211188,0.24262459,0.00000002,0.,0.0
 0000132,0.00000002,0.00000005,0.00002426,0.00000006,-0.00000010,-0.000
 01313,-0.00000005,0.00000001,0.00001469,0.,-0.00000004,0.00000749,0.,0
 .00000002,-0.00000525,0.,0.,0.00001215,0.,0.,0.00002084,0.,0.,0.000003
 29,0.,0.,-0.00001920,-0.00000010,0.00000005,0.00004798,0.,0.00000002,-
 0.00009093,-0.00000011,0.00000007,-0.00131190,-0.00000018,-0.00000051,
 0.00417345,0.00000017,-0.00000025,0.00752168,0.00000108,-0.00000074,0.
 00274075,0.00000006,-0.00000008,0.00059520,0.00000016,-0.00000021,0.00
 456699,0.00000934,-0.00001314,-0.03323577,0.,0.00000021,-0.00274226,-0
 .00000011,0.00000020,-0.00408252,-0.00001037,0.00001442,0.02228023,-0.
 01269171,-0.00120640,0.,0.00192123,0.00809449,-0.00000008,-0.10067134,
 0.04864338,-0.00000062,0.02013924,-0.00148457,-0.00000005,-0.00146442,
 0.00811717,0.00000002,0.00002684,0.00159771,0.,0.00044275,-0.00052367,
 0.,-0.00040150,-0.00006877,0.,-0.00026691,0.00019788,0.,-0.00047625,-0
 .00016203,0.,-0.29512840,-0.04464503,0.00000006,-0.05324937,-0.0164187
 7,0.00000023,-0.17621006,0.13169096,0.00000036,-0.04659085,0.04250527,
 0.00000176,0.00656775,-0.00441385,-0.00000024,0.00134715,-0.01660108,-
 0.00000093,-0.00018355,-0.00030868,0.00000003,-0.00366880,-0.01338856,
 -0.00000047,0.00703506,-0.00618406,-0.00000065,-0.00059444,0.00049387,
 0.,0.00060862,-0.00059786,0.00000016,-0.00041391,0.00083439,0.00000008
 ,0.64498962,-0.01158039,0.00667650,0.00000007,0.04975256,-0.01696991,0
 .00000011,0.02640952,-0.01368120,-0.00000017,-0.00036612,-0.00464030,-
 0.00000006,-0.00046176,-0.00743822,0.00000002,0.01102847,0.00423256,0.
 ,0.00016921,-0.00101687,0.,0.00007209,0.00063062,-0.00000002,0.0004723
 4,-0.00045854,0.,-0.00003172,-0.00001465,0.,-0.05134890,-0.08657614,0.
 00000035,-0.01035203,-0.05634754,0.00000033,0.10178630,-0.23567813,-0.
 00000046,0.01894394,0.01001090,-0.00000015,0.03052712,-0.04234936,-0.0
 0000056,-0.00624815,-0.00208550,-0.00000026,-0.00119130,0.00074746,0.0
 0000011,-0.01568068,0.00698240,0.00000032,0.00893018,0.00655760,0.0000
 0018,-0.00060558,0.00107365,0.00000013,0.00027371,-0.00056017,-0.00000
 006,0.00038872,-0.00008378,0.00000002,-0.13878557,0.43120752,-0.000000
 18,0.00000008,0.00285939,-0.00000005,-0.00000040,-0.00423284,-0.000000
 53,0.00000077,0.00379693,0.00000030,-0.00000006,0.00642512,-0.00000002
 ,0.00000020,0.00080388,0.00000006,-0.00000011,0.00078203,0.,0.,-0.0001
 9263,0.,0.,-0.00100522,0.,0.,-0.00092424,0.,0.,-0.00036544,-0.00000005
 ,-0.00000028,-0.03732236,0.,0.00000068,-0.02168919,-0.00000027,-0.0000
 0017,-0.03962239,0.00000024,0.00000037,0.00598548,0.00000012,-0.000000
 95,0.00523870,0.,-0.00000019,0.00196396,0.00000005,0.00000007,-0.00055
 008,-0.00000026,-0.00000004,0.00002385,0.00000011,0.00000009,-0.000785
 89,0.00000002,0.00000003,-0.00034779,0.00000002,-0.00000009,0.00108274
 ,0.,0.,0.00012103,0.00000039,-0.00000006,0.07859736,0.00334624,0.00098
 500,0.00000014,0.00702341,0.01156371,-0.00000004,0.01563801,-0.0177225
 8,-0.00000021,-0.01118481,0.00185533,0.00000003,-0.00079827,-0.0094543
 4,0.,0.00311755,0.00303284,0.,-0.00018874,-0.00020418,0.,0.00056149,0.
 00029944,-0.00000003,0.00031445,-0.00005535,0.,0.00008702,0.00002993,-
 0.00000001,-0.01593364,0.02437491,0.00000005,0.00035184,0.00822258,-0.
 00000008,-0.03552748,-0.01228416,0.00000061,0.02241827,-0.01045931,-0.
 00000097,-0.32973973,-0.09436615,0.00000787,-0.00855808,0.01040995,0.0
 0000058,0.00020523,0.00020245,0.00000002,-0.08819960,0.01519773,0.0000
 0434,0.00490368,0.00974027,0.00000028,-0.00010953,-0.00004939,0.000000
 06,0.00080358,-0.00198080,-0.00000025,-0.00130221,-0.00050339,-0.00000
 008,0.01046454,-0.00840091,0.00000002,0.61284357,-0.00020135,-0.000574
 28,0.00000002,-0.00097024,-0.00263205,0.,-0.00716108,0.00082896,0.,0.0
 0106197,-0.00053447,0.00000002,0.00002275,0.00093041,0.,-0.00020003,-0
 .00074103,0.,0.00009727,-0.00017379,0.,0.00005014,0.00004031,0.,0.0001
 3552,-0.00005382,0.,0.00004834,-0.00005558,0.,0.00594580,-0.02707071,0
 .00000017,0.00059099,-0.00181560,-0.00000002,-0.03276828,-0.00254540,0
 .00000089,0.00037567,-0.00819718,-0.00000027,-0.05927249,-0.13914699,0
 .00000056,-0.00132592,0.00239238,0.00000014,-0.00184050,-0.00004167,-0
 .00000001,0.04582654,0.01509175,-0.00000164,-0.00152359,-0.00811240,-0
 .00000064,-0.00002599,0.00041848,0.00000004,0.00111770,0.00192778,0.00
 000001,0.00143245,0.00033227,0.00000004,0.00735433,0.00600802,0.000000
 02,-0.14016778,0.48203838,0.00000005,-0.00000006,0.00037425,-0.0000000
 5,0.,-0.00028414,-0.00000004,-0.00000013,-0.00027819,-0.00000005,0.,0.
 00004894,0.00000004,0.00000003,0.00021946,-0.00000011,0.00000003,-0.00
 000063,0.,0.,-0.00000864,-0.00000001,0.,-0.00017942,0.,0.,-0.00001354,
 0.,0.,-0.00010844,-0.00000006,0.00000004,0.00674716,0.00000006,-0.0000
 0007,-0.00079880,0.00000028,-0.00000099,0.00968067,-0.00000049,0.00000
 003,0.00218152,0.00000751,0.00000240,-0.04390008,0.00000022,-0.0000003
 2,-0.00057673,-0.00000006,-0.00000001,-0.00054752,0.00000509,-0.000000
 83,0.01094070,-0.00000026,-0.00000047,0.00393884,0.,0.00000002,-0.0001
 1655,-0.00000029,0.00000018,-0.00332855,0.00000006,0.00000002,0.000129
 89,-0.00000039,0.00000032,-0.00201621,-0.00001432,0.00000326,0.0291711
 8,-0.00089307,-0.00018144,-0.00000003,-0.00201900,-0.00258094,0.000000
 04,-0.00326231,0.00625870,0.00000006,0.00339977,-0.00017254,-0.0000000
 2,-0.00001000,0.00241804,0.,-0.00069689,-0.00084812,0.,0.00002624,0.00
 006406,0.,-0.00048028,-0.00010234,0.00000002,-0.00006121,0.00002289,0.
 ,-0.00002986,-0.00004799,0.,-0.00544704,-0.00305674,-0.00000008,-0.000
 82846,-0.00229570,0.00000002,0.00536471,0.00054116,-0.00000008,-0.0038
 7721,0.00257474,0.00000021,-0.04605746,0.03432016,0.00000131,0.0009043
 5,-0.00140816,-0.00000009,0.00030936,0.00003223,0.,-0.00113514,-0.0061
 4813,-0.00000030,-0.00103274,0.00022963,0.00000017,0.00004576,-0.00003
 036,0.,-0.00008588,0.00019125,-0.00000004,-0.00034805,-0.00002604,0.00
 000001,-0.00153127,-0.00370105,0.00000003,-0.19053678,0.18139780,0.000
 00284,0.24828248,0.00293510,0.00015224,0.00000006,0.00288530,0.0085150
 0,-0.00000005,0.01533381,-0.01177476,-0.00000014,-0.00682045,0.0017932
 6,0.00000002,-0.00047536,-0.00476855,0.,0.00042002,0.00171687,0.000000
 01,-0.00016150,0.00012449,0.,0.00040884,0.00007089,-0.00000002,-0.0000
 5534,0.00006675,0.,-0.00005412,0.00009299,0.,-0.00991109,0.01390536,0.
 ,0.00147105,0.00603707,-0.00000002,-0.01068005,-0.00132927,-0.00000003
 ,0.00918804,-0.00393728,-0.00000039,0.01073361,0.01881590,-0.00000036,
 -0.00179003,0.00345990,0.00000017,0.00003722,0.00006479,0.00000002,-0.
 01280790,0.00454650,0.00000080,0.00176444,0.00365591,0.00000011,0.0000
 3834,-0.00006514,0.00000001,0.00019589,-0.00006515,0.00000002,-0.00019
 830,-0.00020650,-0.00000005,-0.00474055,-0.00622691,0.00000005,0.20973
 418,-0.31831376,-0.00000347,-0.20745114,0.28366938,0.00000004,0.,-0.00
 012163,0.00000013,0.00000016,0.00038796,0.00000014,-0.00000032,-0.0006
 0493,-0.00000017,0.00000002,-0.00026664,0.,-0.00000015,-0.00011310,0.0
 0000004,0.00000007,-0.00000063,0.,0.,-0.00001505,0.,0.,0.00017972,0.,0
 .,0.00002860,0.,0.,0.00006378,-0.00000021,0.00000025,-0.00711035,-0.00
 000004,0.00000009,0.00063167,-0.00000049,0.00000030,-0.00342371,0.0000
 0028,-0.00000014,0.00008546,0.00000156,-0.00000110,-0.00211362,-0.0000
 0011,0.00000021,-0.00001419,0.,0.,0.00007926,0.00000037,0.00000016,0.0
 0600684,0.00000014,-0.00000019,0.00164000,0.,0.,0.00003779,0.,0.000000
 09,-0.00079536,0.00000004,0.00000004,-0.00076026,0.00000033,-0.0000001
 9,0.00137379,0.00000200,-0.00000259,-0.01127517,-0.00000406,0.00000327
 ,0.01609977\\0.00216018,-0.00294498,-0.00000006,-0.00361356,-0.0075036
 0,0.00000008,-0.00887139,-0.00086253,-0.00000006,-0.00130851,0.0016540
 8,0.00000009,0.00114415,0.00631681,0.00000004,0.00235213,0.00208016,-0
 .00000016,0.00059140,-0.00052045,0.00000004,-0.00057972,0.00039794,0.,
 0.00007663,0.00055004,0.,0.00041619,0.00026581,0.00000002,0.00652173,-
 0.00874909,0.00000003,-0.00442213,-0.01608674,0.00000044,0.00420471,-0
 .00442236,-0.00000047,-0.00770860,0.00301705,-0.00000035,-0.00940632,-
 0.00377845,-0.00000079,0.00210617,-0.00083892,-0.00000043,-0.00052747,
 0.00026497,0.,0.00529300,0.00019663,0.00000060,0.00643657,0.00434130,0
 .00000049,0.00010632,0.00049595,0.,0.00068246,-0.00004446,-0.00000004,
 0.00072747,0.00052927,0.00000002,0.00289667,0.00087619,0.00000010,0.00
 663619,0.00523503,-0.00000023,-0.00591427,0.01953035,0.00000063\\\@
 The archive entry for this job was punched.


 Standing in the middle of the road is very dangerous;
 you get knocked down by the traffic from both sides.
                                -- Margaret Thatcher
 Job cpu time:       0 days  2 hours 57 minutes  7.4 seconds.
 Elapsed time:       0 days  0 hours 18 minutes 13.8 seconds.
 File lengths (MBytes):  RWF=   1380 Int=      0 D2E=      0 Chk=     48 Scr=      8
 Normal termination of Gaussian 16 at Mon Jul 13 20:50:16 2020.
