 Entering Gaussian System, Link 0=g16
 Initial command:
 /gpfs/loomis/apps/avx/software/Gaussian/16-C.01_AVX/g16/l1.exe "/home/fas/batista/pev4/scratch60/gauss-scratch/Gau-196250.inp" -scrdir="/home/fas/batista/pev4/scratch60/gauss-scratch/"
 Entering Link 1 = /gpfs/loomis/apps/avx/software/Gaussian/16-C.01_AVX/g16/l1.exe PID=    196251.
  
 Copyright (c) 1988-2019, Gaussian, Inc.  All Rights Reserved.
  
 This is part of the Gaussian(R) 16 program.  It is based on
 the Gaussian(R) 09 system (copyright 2009, Gaussian, Inc.),
 the Gaussian(R) 03 system (copyright 2003, Gaussian, Inc.),
 the Gaussian(R) 98 system (copyright 1998, Gaussian, Inc.),
 the Gaussian(R) 94 system (copyright 1995, Gaussian, Inc.),
 the Gaussian 92(TM) system (copyright 1992, Gaussian, Inc.),
 the Gaussian 90(TM) system (copyright 1990, Gaussian, Inc.),
 the Gaussian 88(TM) system (copyright 1988, Gaussian, Inc.),
 the Gaussian 86(TM) system (copyright 1986, Carnegie Mellon
 University), and the Gaussian 82(TM) system (copyright 1983,
 Carnegie Mellon University). Gaussian is a federally registered
 trademark of Gaussian, Inc.
  
 This software contains proprietary and confidential information,
 including trade secrets, belonging to Gaussian, Inc.
  
 This software is provided under written license and may be
 used, copied, transmitted, or stored only in accord with that
 written license.
  
 The following legend is applicable only to US Government
 contracts under FAR:
  
                    RESTRICTED RIGHTS LEGEND
  
 Use, reproduction and disclosure by the US Government is
 subject to restrictions as set forth in subparagraphs (a)
 and (c) of the Commercial Computer Software - Restricted
 Rights clause in FAR 52.227-19.
  
 Gaussian, Inc.
 340 Quinnipiac St., Bldg. 40, Wallingford CT 06492
  
  
 ---------------------------------------------------------------
 Warning -- This program may not be used in any manner that
 competes with the business of Gaussian, Inc. or will provide
 assistance to any competitor of Gaussian, Inc.  The licensee
 of this program is prohibited from giving any competitor of
 Gaussian, Inc. access to this program.  By using this program,
 the user acknowledges that Gaussian, Inc. is engaged in the
 business of creating and licensing software in the field of
 computational chemistry and represents and warrants to the
 licensee that it is not a competitor of Gaussian, Inc. and that
 it will not use this program in any manner prohibited above.
 ---------------------------------------------------------------
  

 Cite this work as:
 Gaussian 16, Revision C.01,
 M. J. Frisch, G. W. Trucks, H. B. Schlegel, G. E. Scuseria, 
 M. A. Robb, J. R. Cheeseman, G. Scalmani, V. Barone, 
 G. A. Petersson, H. Nakatsuji, X. Li, M. Caricato, A. V. Marenich, 
 J. Bloino, B. G. Janesko, R. Gomperts, B. Mennucci, H. P. Hratchian, 
 J. V. Ortiz, A. F. Izmaylov, J. L. Sonnenberg, D. Williams-Young, 
 F. Ding, F. Lipparini, F. Egidi, J. Goings, B. Peng, A. Petrone, 
 T. Henderson, D. Ranasinghe, V. G. Zakrzewski, J. Gao, N. Rega, 
 G. Zheng, W. Liang, M. Hada, M. Ehara, K. Toyota, R. Fukuda, 
 J. Hasegawa, M. Ishida, T. Nakajima, Y. Honda, O. Kitao, H. Nakai, 
 T. Vreven, K. Throssell, J. A. Montgomery, Jr., J. E. Peralta, 
 F. Ogliaro, M. J. Bearpark, J. J. Heyd, E. N. Brothers, K. N. Kudin, 
 V. N. Staroverov, T. A. Keith, R. Kobayashi, J. Normand, 
 K. Raghavachari, A. P. Rendell, J. C. Burant, S. S. Iyengar, 
 J. Tomasi, M. Cossi, J. M. Millam, M. Klene, C. Adamo, R. Cammi, 
 J. W. Ochterski, R. L. Martin, K. Morokuma, O. Farkas, 
 J. B. Foresman, and D. J. Fox, Gaussian, Inc., Wallingford CT, 2019.
 
 ******************************************
 Gaussian 16:  ES64L-G16RevC.01  3-Jul-2019
                13-Jul-2020 
 ******************************************
 %chk=config_6_5.chk
 %mem=58GB
 %nprocshared=10
 Will use up to   10 processors via shared memory.
 ----------------------------------------------------------------------
 #p opt=addgic freq td wb97xd/cc-pvdz nosymm int=ultrafine scrf=(solven
 t=CarbonTetraChloride)
 ----------------------------------------------------------------------
 1/18=20,19=15,26=6,38=1,145=903/1,3;
 2/9=110,12=2,15=1,17=6,18=5,40=1/2;
 3/5=16,11=9,25=1,30=1,70=2201,71=1,72=11,74=-58,75=-5/1,2,3,8;
 4//1;
 5/5=2,38=5,53=11/2;
 8/6=1,10=1/1;
 9/15=2,42=1,70=2/14;
 10/5=4,31=1/2;
 6/7=2,8=2,9=2,10=2/1;
 7/12=6,13=5,30=1/1,2,3,16;
 1/18=20,19=15,26=6,145=903/3(2);
 2/9=110,15=1/2;
 99//99;
 2/9=110,15=1/2;
 3/5=16,11=9,25=1,30=1,70=2205,71=1,72=11,74=-58,75=-5/1,2,3,8;
 4/5=5,16=3,69=1/1;
 5/5=2,38=5,53=11/2;
 8/6=1,10=1/1;
 9/15=2,42=1,49=4,70=2/14;
 10/5=4,31=1/2;
 7/12=6,13=5,30=1/1,2,3,16;
 1/18=20,19=15,26=6,145=903/3(-8);
 2/9=110,15=1/2;
 6/7=2,8=2,9=2,10=2/1;
 99/9=10/99;
 Leave Link    1 at Mon Jul 13 14:27:40 2020, MaxMem=  7784628224 cpu:               4.4 elap:               0.5
 (Enter /gpfs/loomis/apps/avx/software/Gaussian/16-C.01_AVX/g16/l101.exe)
 ------------------------------------------------
 NM 2D-scan of HBT TD-WB97XD pVDZ in CTC Relaxed.
 ------------------------------------------------
 Symbolic Z-matrix:
 Charge =  0 Multiplicity = 1
 C                     1.70517  -3.26875  -0.00002 
 C                     1.0003   -2.06637  -0.00002 
 C                     1.68649  -0.81808  -0.00002 
 C                     3.09863  -0.79133  -0.00002 
 C                     3.78551  -1.99246  -0.00002 
 C                     3.10136  -3.22271  -0.00002 
 H                     1.1814   -4.22627  -0.00002 
 H                     3.61674   0.16906  -0.00002 
 H                     4.87738  -1.98723  -0.00002 
 H                     3.66757  -4.15562  -0.00002 
 N                     0.88266   0.25992  -0.00002 
 S                    -0.74094  -1.79383  -0.00002 
 C                    -1.39684   1.01233   0. 
 C                    -2.79638   0.85874  -0.00001 
 C                    -0.87419   2.40336   0.00003 
 C                    -3.64501   1.97312   0.00002 
 H                    -3.22625  -0.14518  -0.00003 
 C                    -1.76701   3.49684   0.00006 
 C                    -3.14245   3.29082   0.00006 
 H                    -4.72478   1.81223   0.00002 
 H                    -1.32786   4.49572   0.00008 
 H                    -3.82819   4.13872   0.00008 
 C                    -0.44209  -0.03982  -0.00001 
 O                     0.40209   2.62369   0.00003 
 H                     0.8911    1.60403   0.00001 
 
 Initializing the GIC definitions file.
 Number of initial coordinates =   131
 Number of input entries/lines =    52
 Number of additional coordinates =     2
 Number of removed coordinates =     0
 Number of frozen coordinates =     2
 Number of final active and frozen coordinates =   133
 ITRead=  0  0  0  0  0  0  0  0  0  0  0  0  0  0  0  0  0  0  0  0
 ITRead=  0  0  0  0  0
 MicOpt= -1 -1 -1 -1 -1 -1 -1 -1 -1 -1 -1 -1 -1 -1 -1 -1 -1 -1 -1 -1
 MicOpt= -1 -1 -1 -1 -1
 NAtoms=     25 NQM=       25 NQMF=       0 NMMI=      0 NMMIF=      0
                NMic=       0 NMicF=      0.
                    Isotopes and Nuclear Properties:
 (Nuclear quadrupole moments (NQMom) in fm**2, nuclear magnetic moments (NMagM)
  in nuclear magnetons)

  Atom         1           2           3           4           5           6           7           8           9          10
 IAtWgt=          12          12          12          12          12          12           1           1           1           1
 AtmWgt=  12.0000000  12.0000000  12.0000000  12.0000000  12.0000000  12.0000000   1.0078250   1.0078250   1.0078250   1.0078250
 NucSpn=           0           0           0           0           0           0           1           1           1           1
 AtZEff=  -0.0000000  -0.0000000  -0.0000000  -0.0000000  -0.0000000  -0.0000000  -0.0000000  -0.0000000  -0.0000000  -0.0000000
 NQMom=    0.0000000   0.0000000   0.0000000   0.0000000   0.0000000   0.0000000   0.0000000   0.0000000   0.0000000   0.0000000
 NMagM=    0.0000000   0.0000000   0.0000000   0.0000000   0.0000000   0.0000000   2.7928460   2.7928460   2.7928460   2.7928460
 AtZNuc=   6.0000000   6.0000000   6.0000000   6.0000000   6.0000000   6.0000000   1.0000000   1.0000000   1.0000000   1.0000000

  Atom        11          12          13          14          15          16          17          18          19          20
 IAtWgt=          14          32          12          12          12          12           1          12          12           1
 AtmWgt=  14.0030740  31.9720718  12.0000000  12.0000000  12.0000000  12.0000000   1.0078250  12.0000000  12.0000000   1.0078250
 NucSpn=           2           0           0           0           0           0           1           0           0           1
 AtZEff=  -0.0000000  -0.0000000  -0.0000000  -0.0000000  -0.0000000  -0.0000000  -0.0000000  -0.0000000  -0.0000000  -0.0000000
 NQMom=    2.0440000   0.0000000   0.0000000   0.0000000   0.0000000   0.0000000   0.0000000   0.0000000   0.0000000   0.0000000
 NMagM=    0.4037610   0.0000000   0.0000000   0.0000000   0.0000000   0.0000000   2.7928460   0.0000000   0.0000000   2.7928460
 AtZNuc=   7.0000000  16.0000000   6.0000000   6.0000000   6.0000000   6.0000000   1.0000000   6.0000000   6.0000000   1.0000000

  Atom        21          22          23          24          25
 IAtWgt=           1           1          12          16           1
 AtmWgt=   1.0078250   1.0078250  12.0000000  15.9949146   1.0078250
 NucSpn=           1           1           0           0           1
 AtZEff=  -0.0000000  -0.0000000  -0.0000000  -0.0000000  -0.0000000
 NQMom=    0.0000000   0.0000000   0.0000000   0.0000000   0.0000000
 NMagM=    2.7928460   2.7928460   0.0000000   0.0000000   2.7928460
 AtZNuc=   1.0000000   1.0000000   6.0000000   8.0000000   1.0000000
 Leave Link  101 at Mon Jul 13 14:27:43 2020, MaxMem=  7784628224 cpu:              31.9 elap:               3.2
 (Enter /gpfs/loomis/apps/avx/software/Gaussian/16-C.01_AVX/g16/l103.exe)

 GradGradGradGradGradGradGradGradGradGradGradGradGradGradGradGradGradGrad
 Berny optimization.
 Initialization pass.
                           ----------------------------
                           !    Initial Parameters    !
                           ! (Angstroms and Degrees)  !
 --------------------------                            --------------------------
 ! Name  Definition              Value          Derivative Info.                !
 --------------------------------------------------------------------------------
 ! R1    R(1,2)                  1.3938         estimate D2E/DX2                !
 ! R2    R(1,6)                  1.3969         estimate D2E/DX2                !
 ! R3    R(1,7)                  1.0914         estimate D2E/DX2                !
 ! R4    R(2,3)                  1.4245         estimate D2E/DX2                !
 ! R5    R(2,12)                 1.7624         estimate D2E/DX2                !
 ! R6    R(3,4)                  1.4124         estimate D2E/DX2                !
 ! R7    R(3,11)                 1.3447         estimate D2E/DX2                !
 ! R8    R(4,5)                  1.3837         estimate D2E/DX2                !
 ! R9    R(4,8)                  1.0912         estimate D2E/DX2                !
 ! R10   R(5,6)                  1.4077         estimate D2E/DX2                !
 ! R11   R(5,9)                  1.0919         estimate D2E/DX2                !
 ! R12   R(6,10)                 1.0913         estimate D2E/DX2                !
 ! R13   R(11,23)                1.3582         estimate D2E/DX2                !
 ! R14   R(12,23)                1.7793         estimate D2E/DX2                !
 ! R15   R(13,14)                1.4079         estimate D2E/DX2                !
 ! R16   R(13,15)                1.486          estimate D2E/DX2                !
 ! R17   R(13,23)                1.4208         estimate D2E/DX2                !
 ! R18   R(14,16)                1.4007         estimate D2E/DX2                !
 ! R19   R(14,17)                1.0921         estimate D2E/DX2                !
 ! R20   R(15,18)                1.4117         estimate D2E/DX2                !
 ! R21   R(15,24)                1.2952         estimate D2E/DX2                !
 ! R22   R(16,19)                1.4103         estimate D2E/DX2                !
 ! R23   R(16,20)                1.0917         estimate D2E/DX2                !
 ! R24   R(18,19)                1.3908         estimate D2E/DX2                !
 ! R25   R(18,21)                1.0911         estimate D2E/DX2                !
 ! R26   R(19,22)                1.0905         estimate D2E/DX2                !
 ! R27   R(24,25)                1.1309         estimate D2E/DX2                !
 ! A1    A(2,1,6)              118.4913         estimate D2E/DX2                !
 ! A2    A(2,1,7)              120.941          estimate D2E/DX2                !
 ! A3    A(6,1,7)              120.5677         estimate D2E/DX2                !
 ! A4    A(1,2,3)              120.8221         estimate D2E/DX2                !
 ! A5    A(1,2,12)             129.2761         estimate D2E/DX2                !
 ! A6    A(3,2,12)             109.9018         estimate D2E/DX2                !
 ! A7    A(2,3,4)              119.8832         estimate D2E/DX2                !
 ! A8    A(2,3,11)             114.4913         estimate D2E/DX2                !
 ! A9    A(4,3,11)             125.6255         estimate D2E/DX2                !
 ! A10   A(3,4,5)              118.6778         estimate D2E/DX2                !
 ! A11   A(3,4,8)              119.4314         estimate D2E/DX2                !
 ! A12   A(5,4,8)              121.8908         estimate D2E/DX2                !
 ! A13   A(4,5,6)              121.1581         estimate D2E/DX2                !
 ! A14   A(4,5,9)              119.4886         estimate D2E/DX2                !
 ! A15   A(6,5,9)              119.3533         estimate D2E/DX2                !
 ! A16   A(1,6,5)              120.9675         estimate D2E/DX2                !
 ! A17   A(1,6,10)             119.3659         estimate D2E/DX2                !
 ! A18   A(5,6,10)             119.6666         estimate D2E/DX2                !
 ! A19   A(3,11,23)            113.9617         estimate D2E/DX2                !
 ! A20   A(2,12,23)             89.2267         estimate D2E/DX2                !
 ! A21   A(14,13,15)           116.8555         estimate D2E/DX2                !
 ! A22   A(14,13,23)           125.9586         estimate D2E/DX2                !
 ! A23   A(15,13,23)           117.1859         estimate D2E/DX2                !
 ! A24   A(13,14,16)           121.0277         estimate D2E/DX2                !
 ! A25   A(13,14,17)           119.4432         estimate D2E/DX2                !
 ! A26   A(16,14,17)           119.5291         estimate D2E/DX2                !
 ! A27   A(13,15,18)           120.1759         estimate D2E/DX2                !
 ! A28   A(13,15,24)           120.3875         estimate D2E/DX2                !
 ! A29   A(18,15,24)           119.4366         estimate D2E/DX2                !
 ! A30   A(14,16,19)           121.8332         estimate D2E/DX2                !
 ! A31   A(14,16,20)           118.8156         estimate D2E/DX2                !
 ! A32   A(19,16,20)           119.3512         estimate D2E/DX2                !
 ! A33   A(15,18,19)           120.7126         estimate D2E/DX2                !
 ! A34   A(15,18,21)           117.0363         estimate D2E/DX2                !
 ! A35   A(19,18,21)           122.2511         estimate D2E/DX2                !
 ! A36   A(16,19,18)           119.3951         estimate D2E/DX2                !
 ! A37   A(16,19,22)           120.1594         estimate D2E/DX2                !
 ! A38   A(18,19,22)           120.4455         estimate D2E/DX2                !
 ! A39   A(11,23,12)           112.4185         estimate D2E/DX2                !
 ! A40   A(11,23,13)           119.4722         estimate D2E/DX2                !
 ! A41   A(12,23,13)           128.1093         estimate D2E/DX2                !
 ! A42   A(15,24,25)           105.8266         estimate D2E/DX2                !
 ! D1    D(6,1,2,3)              0.0            estimate D2E/DX2                !
 ! D2    D(6,1,2,12)          -179.9999         estimate D2E/DX2                !
 ! D3    D(7,1,2,3)            180.0            estimate D2E/DX2                !
 ! D4    D(7,1,2,12)             0.0            estimate D2E/DX2                !
 ! D5    D(2,1,6,5)              0.0            estimate D2E/DX2                !
 ! D6    D(2,1,6,10)           180.0            estimate D2E/DX2                !
 ! D7    D(7,1,6,5)           -179.9999         estimate D2E/DX2                !
 ! D8    D(7,1,6,10)             0.0            estimate D2E/DX2                !
 ! D9    D(1,2,3,4)              0.0            estimate D2E/DX2                !
 ! D10   D(1,2,3,11)           180.0            estimate D2E/DX2                !
 ! D11   D(12,2,3,4)           179.9999         estimate D2E/DX2                !
 ! D12   D(12,2,3,11)           -0.0001         estimate D2E/DX2                !
 ! D13   D(1,2,12,23)          179.9999         estimate D2E/DX2                !
 ! D14   D(3,2,12,23)           -0.0001         estimate D2E/DX2                !
 ! D15   D(2,3,4,5)              0.0            estimate D2E/DX2                !
 ! D16   D(2,3,4,8)           -180.0            estimate D2E/DX2                !
 ! D17   D(11,3,4,5)          -180.0            estimate D2E/DX2                !
 ! D18   D(11,3,4,8)             0.0            estimate D2E/DX2                !
 ! D19   D(2,3,11,23)            0.0002         estimate D2E/DX2                !
 ! D20   D(4,3,11,23)         -179.9998         estimate D2E/DX2                !
 ! D21   D(3,4,5,6)              0.0            estimate D2E/DX2                !
 ! D22   D(3,4,5,9)           -180.0            estimate D2E/DX2                !
 ! D23   D(8,4,5,6)           -180.0            estimate D2E/DX2                !
 ! D24   D(8,4,5,9)              0.0            estimate D2E/DX2                !
 ! D25   D(4,5,6,1)              0.0            estimate D2E/DX2                !
 ! D26   D(4,5,6,10)          -180.0            estimate D2E/DX2                !
 ! D27   D(9,5,6,1)            180.0            estimate D2E/DX2                !
 ! D28   D(9,5,6,10)             0.0            estimate D2E/DX2                !
 ! D29   D(3,11,23,12)          -0.0003         estimate D2E/DX2                !
 ! D30   D(3,11,23,13)         179.9993         estimate D2E/DX2                !
 ! D31   D(2,12,23,11)           0.0002         estimate D2E/DX2                !
 ! D32   D(2,12,23,13)        -179.9994         estimate D2E/DX2                !
 ! D33   D(15,13,14,16)         -0.0004         estimate D2E/DX2                !
 ! D34   D(15,13,14,17)        179.9997         estimate D2E/DX2                !
 ! D35   D(23,13,14,16)        179.9995         estimate D2E/DX2                !
 ! D36   D(23,13,14,17)         -0.0004         estimate D2E/DX2                !
 ! D37   D(14,13,15,18)          0.0004         estimate D2E/DX2                !
 ! D38   D(14,13,15,24)       -179.9997         estimate D2E/DX2                !
 ! D39   D(23,13,15,18)       -179.9995         estimate D2E/DX2                !
 ! D40   D(23,13,15,24)          0.0004         estimate D2E/DX2                !
 ! D41   D(14,13,23,11)        179.9993         estimate D2E/DX2                !
 ! D42   D(14,13,23,12)         -0.0012         estimate D2E/DX2                !
 ! D43   D(15,13,23,11)         -0.0008         estimate D2E/DX2                !
 ! D44   D(15,13,23,12)        179.9987         estimate D2E/DX2                !
 ! D45   D(13,14,16,19)          0.0001         estimate D2E/DX2                !
 ! D46   D(13,14,16,20)       -179.9999         estimate D2E/DX2                !
 ! D47   D(17,14,16,19)        180.0            estimate D2E/DX2                !
 ! D48   D(17,14,16,20)          0.0            estimate D2E/DX2                !
 ! D49   D(13,15,18,19)         -0.0001         estimate D2E/DX2                !
 ! D50   D(13,15,18,21)        179.9998         estimate D2E/DX2                !
 ! D51   D(24,15,18,19)        180.0            estimate D2E/DX2                !
 ! D52   D(24,15,18,21)         -0.0001         estimate D2E/DX2                !
 ! D53   D(13,15,24,25)          0.0            estimate D2E/DX2                !
 ! D54   D(18,15,24,25)        179.9999         estimate D2E/DX2                !
 ! D55   D(14,16,19,18)          0.0002         estimate D2E/DX2                !
 ! D56   D(14,16,19,22)       -179.9998         estimate D2E/DX2                !
 ! D57   D(20,16,19,18)       -179.9998         estimate D2E/DX2                !
 ! D58   D(20,16,19,22)          0.0001         estimate D2E/DX2                !
 ! D59   D(15,18,19,16)         -0.0002         estimate D2E/DX2                !
 ! D60   D(15,18,19,22)        179.9999         estimate D2E/DX2                !
 ! D61   D(21,18,19,16)        179.9999         estimate D2E/DX2                !
 ! D62   D(21,18,19,22)         -0.0001         estimate D2E/DX2                !
 ! Qtot  GIC-1                   0.0            Frozen                          !
 ! Ptot  GIC-2                 -60.0            Frozen                          !
 --------------------------------------------------------------------------------
 NOTE: GIC-type coordinates are in arbitrary units.
 Trust Radius=3.00D-01 FncErr=5.00D-06 GrdErr=5.00D-06 EigMax=2.50D+02 EigMin=1.00D-04
 Number of steps in this run=    143 maximum allowed number of steps=    150.
 GradGradGradGradGradGradGradGradGradGradGradGradGradGradGradGradGradGrad

 Leave Link  103 at Mon Jul 13 14:27:43 2020, MaxMem=  7784628224 cpu:               0.1 elap:               0.0
 (Enter /gpfs/loomis/apps/avx/software/Gaussian/16-C.01_AVX/g16/l202.exe)
                          Input orientation:                          
 ---------------------------------------------------------------------
 Center     Atomic      Atomic             Coordinates (Angstroms)
 Number     Number       Type             X           Y           Z
 ---------------------------------------------------------------------
      1          6           0        1.705172   -3.268753   -0.000023
      2          6           0        1.000300   -2.066373   -0.000021
      3          6           0        1.686492   -0.818080   -0.000020
      4          6           0        3.098634   -0.791326   -0.000021
      5          6           0        3.785505   -1.992459   -0.000022
      6          6           0        3.101356   -3.222710   -0.000024
      7          1           0        1.181403   -4.226273   -0.000023
      8          1           0        3.616745    0.169063   -0.000020
      9          1           0        4.877377   -1.987227   -0.000022
     10          1           0        3.667565   -4.155620   -0.000025
     11          7           0        0.882659    0.259916   -0.000019
     12         16           0       -0.740937   -1.793827   -0.000019
     13          6           0       -1.396837    1.012332    0.000001
     14          6           0       -2.796377    0.858742   -0.000006
     15          6           0       -0.874187    2.403357    0.000031
     16          6           0       -3.645009    1.973115    0.000023
     17          1           0       -3.226253   -0.145183   -0.000032
     18          6           0       -1.767012    3.496845    0.000060
     19          6           0       -3.142450    3.290822    0.000058
     20          1           0       -4.724784    1.812226    0.000019
     21          1           0       -1.327865    4.495719    0.000084
     22          1           0       -3.828192    4.138721    0.000083
     23          6           0       -0.442086   -0.039823   -0.000015
     24          8           0        0.402091    2.623690    0.000033
     25          1           0        0.891102    1.604025    0.000009
 ---------------------------------------------------------------------
                    Distance matrix (angstroms):
                    1          2          3          4          5
     1  C    0.000000
     2  C    1.393757   0.000000
     3  C    2.450743   1.424463   0.000000
     4  C    2.842425   2.455351   1.412395   0.000000
     5  C    2.440637   2.786185   2.405207   1.383660   0.000000
     6  C    1.396943   2.398238   2.789997   2.431385   1.407685
     7  H    1.091412   2.167479   3.445416   3.933781   3.430929
     8  H    3.933534   3.441360   2.168024   1.091231   2.168100
     9  H    3.421285   3.877884   3.398330   2.143387   1.091884
    10  H    2.153491   3.388105   3.881214   3.412061   2.166374
    11  N    3.623262   2.329262   1.344702   2.452683   3.674195
    12  S    2.856371   1.762438   2.616198   3.968288   4.530798
    13  C    5.286789   3.901883   3.585711   4.843804   5.990445
    14  C    6.107385   4.792813   4.786215   6.121591   7.172902
    15  C    6.231045   4.846874   4.115184   5.097970   6.405930
    16  C    7.490101   6.156003   6.017947   7.288268   8.422489
    17  H    5.837435   4.642707   4.958615   6.357806   7.251013
    18  C    7.604562   6.213486   5.526777   6.485592   7.807874
    19  C    8.156437   6.772143   6.340486   7.457551   8.712613
    20  H    8.195161   6.915209   6.929861   8.245262   9.322052
    21  H    8.335847   6.962860   6.109240   6.895414   8.260933
    22  H    9.246014   7.862412   7.414959   8.502133   9.775467
    23  C    3.877718   2.487445   2.266391   3.619592   4.656749
    24  O    6.034807   4.728059   3.673618   4.351284   5.723314
    25  H    4.940311   3.672022   2.549361   3.257438   4.616521
                    6          7          8          9         10
     6  C    0.000000
     7  H    2.166416   0.000000
     8  H    3.430707   5.024925   0.000000
     9  H    2.163485   4.321290   2.497755   0.000000
    10  H    1.091291   2.487166   4.324982   2.483057   0.000000
    11  N    4.129322   4.496125   2.735595   4.583385   5.220408
    12  S    4.099380   3.100352   4.779365   5.621641   5.001296
    13  C    6.178132   5.838690   5.084005   6.954359   7.235738
    14  C    7.172273   6.456014   6.450100   8.184500   8.180854
    15  C    6.888945   6.940998   5.016028   7.235863   7.977951
    16  C    8.515283   7.856633   7.482492   9.397626   9.541234
    17  H    7.036321   6.006891   6.850210   8.310352   7.975484
    18  C    8.297796   8.266783   6.329215   8.615273   9.385886
    19  C    9.022816   8.671933   7.445274   9.600803  10.090878
    20  H    9.305860   8.446686   8.501828  10.326535  10.297898
    21  H    8.898997   9.075769   6.570321   8.974052   9.989995
    22  H   10.109861   9.750342   8.437136  10.644912  11.179556
    23  C    4.763060   4.490221   4.064202   5.664721   5.816272
    24  O    6.439442   6.894151   4.044650   6.425631   7.524784
    25  H    5.308728   5.837521   3.080300   5.365396   6.393924
                   11         12         13         14         15
    11  N    0.000000
    12  S    2.618000   0.000000
    13  C    2.400465   2.881794   0.000000
    14  C    3.727452   3.355735   1.407943   0.000000
    15  C    2.771434   4.199299   1.485972   2.465898   0.000000
    16  C    4.840954   4.756416   2.444869   1.400716   2.804026
    17  H    4.128834   2.982420   2.164857   1.092088   3.468035
    18  C    4.183116   5.389252   2.511938   2.831816   1.411684
    19  C    5.038641   5.623249   2.870311   2.456579   2.435695
    20  H    5.818340   5.373514   3.422727   2.151252   3.895707
    21  H    4.777913   6.316873   3.484070   3.922262   2.140982
    22  H    6.102233   6.687770   3.960529   3.438445   3.426022
    23  C    1.358231   1.779282   1.420767   2.519942   2.481097
    24  O    2.412130   4.563000   2.415081   3.653114   1.295158
    25  H    1.344135   3.769476   2.363211   3.762041   1.937828
                   16         17         18         19         20
    16  C    0.000000
    17  H    2.159292   0.000000
    18  C    2.418393   3.923487   0.000000
    19  C    1.410289   3.437026   1.390783   0.000000
    20  H    1.091695   2.465165   3.403874   2.165647   0.000000
    21  H    3.425301   5.014165   1.091147   2.178187   4.328995
    22  H    2.173339   4.325986   2.158812   1.090492   2.493282
    23  C    3.782941   2.786161   3.776698   4.287793   4.666004
    24  O    4.099057   4.564158   2.338249   3.606777   5.190696
    25  H    4.551103   4.473516   3.263179   4.372051   5.619744
                   21         22         23         24         25
    21  H    0.000000
    22  H    2.525684   0.000000
    23  C    4.621228   5.378284   0.000000
    24  O    2.548969   4.493397   2.794089   0.000000
    25  H    3.644957   5.356903   2.116513   1.130861   0.000000
 Symmetry turned off by external request.
 Stoichiometry    C13H9NOS
 Framework group  C1[X(C13H9NOS)]
 Deg. of freedom    69
 Full point group                 C1      NOp   1
 Rotational constants (GHZ):           1.3639849           0.2857115           0.2362290
 Leave Link  202 at Mon Jul 13 14:27:43 2020, MaxMem=  7784628224 cpu:               0.1 elap:               0.0
 (Enter /gpfs/loomis/apps/avx/software/Gaussian/16-C.01_AVX/g16/l301.exe)
 Standard basis: CC-pVDZ (5D, 7F)
 Ernie: Thresh=  0.10000D-02 Tol=  0.10000D-05 Strict=F.
 Ernie:  40 primitive shells out of 425 were deleted.
   273 basis functions,   629 primitive gaussians,   289 cartesian basis functions
    59 alpha electrons       59 beta electrons
       nuclear repulsion energy      1096.6309662355 Hartrees.
 IExCor= 4639 DFT=T Ex+Corr=wB97XD ExCW=0 ScaHFX=  1.000000
 ScaDFX=  1.000000  1.000000  1.000000  1.000000 ScalE2=  1.000000  1.000000
 IRadAn=      5 IRanWt=     -1 IRanGd=            0 ICorTp=0 IEmpDi=121
 HFx  wShort=  0.000000 wLong=  0.200000 cFull=  0.222036 cShort=  0.000000 cLong=  0.777964
 DFx  wShort=  0.000000 wLong=  0.200000 cFull=  0.000000 cShort=  0.000000 cLong=  1.000000
 NAtoms=   25 NActive=   25 NUniq=   25 SFac= 1.00D+00 NAtFMM=   60 NAOKFM=F Big=F
 Integral buffers will be    131072 words long.
 Raffenetti 1 integral format.
 Two-electron integral symmetry is turned off.
 R6Disp:  Grimme-D2 Dispersion energy=       -0.0139908651 Hartrees.
 Nuclear repulsion after empirical dispersion term =     1096.6169753704 Hartrees.
 ------------------------------------------------------------------------------
 Polarizable Continuum Model (PCM)
 =================================
 Model                : PCM.
 Atomic radii         : UFF (Universal Force Field).
 Polarization charges : Total charges.
 Charge compensation  : None.
 Solution method      : On-the-fly selection.
 Cavity type          : Scaled VdW (van der Waals Surface) (Alpha=1.100).
 Cavity algorithm     : GePol (No added spheres)
                        Default sphere list used, NSphG=   25.
                        Lebedev-Laikov grids with approx.  5.0 points / Ang**2.
                        Smoothing algorithm: York/Karplus (Gamma=1.0000).
                        Polarization charges: spherical gaussians, with
                                              point-specific exponents (IZeta= 3).
                        Self-potential: point-specific (ISelfS= 7).
                        Self-field    : sphere-specific E.n sum rule (ISelfD= 2).
 1st derivatives      : Analytical E(r).r(x)/FMM algorithm (CHGder, D1EAlg=3).
                        Cavity 1st derivative terms included.
 Solvent              : CarbonTetraChloride, Eps=   2.228000 Eps(inf)=   2.131892
 ------------------------------------------------------------------------------
 GePol: Number of generator spheres                  =      25
 GePol: Total number of spheres                      =      25
 GePol: Number of exposed spheres                    =      25 (100.00%)
 GePol: Number of points                             =    2192
 GePol: Average weight of points                     =       0.13
 GePol: Minimum weight of points                     =   0.24D-10
 GePol: Maximum weight of points                     =    0.20577
 GePol: Number of points with low weight             =     142
 GePol: Fraction of low-weight points (<1% of avg)   =       6.48%
 GePol: Cavity surface area                          =    275.041 Ang**2
 GePol: Cavity volume                                =    294.140 Ang**3
 Leave Link  301 at Mon Jul 13 14:27:43 2020, MaxMem=  7784628224 cpu:               0.8 elap:               0.1
 (Enter /gpfs/loomis/apps/avx/software/Gaussian/16-C.01_AVX/g16/l302.exe)
 NPDir=0 NMtPBC=     1 NCelOv=     1 NCel=       1 NClECP=     1 NCelD=      1
         NCelK=      1 NCelE2=     1 NClLst=     1 CellRange=     0.0.
 One-electron integrals computed using PRISM.
 NBasis=   273 RedAO= T EigKep=  3.12D-04  NBF=   273
 NBsUse=   273 1.00D-06 EigRej= -1.00D+00 NBFU=   273
 Precomputing XC quadrature grid using
 IXCGrd= 4 IRadAn=           5 IRanWt=          -1 IRanGd=           0 AccXCQ= 0.00D+00.
 Generated NRdTot=       0 NPtTot=           0 NUsed=           0 NTot=          32
 NSgBfM=   288   288   288   288   288 MxSgAt=    25 MxSgA2=    25.
 Leave Link  302 at Mon Jul 13 14:27:43 2020, MaxMem=  7784628224 cpu:               2.5 elap:               0.3
 (Enter /gpfs/loomis/apps/avx/software/Gaussian/16-C.01_AVX/g16/l303.exe)
 DipDrv:  MaxL=1.
 Leave Link  303 at Mon Jul 13 14:27:43 2020, MaxMem=  7784628224 cpu:               0.4 elap:               0.1
 (Enter /gpfs/loomis/apps/avx/software/Gaussian/16-C.01_AVX/g16/l308.exe)
 Leave Link  308 at Mon Jul 13 14:27:43 2020, MaxMem=  7784628224 cpu:               0.5 elap:               0.1
 (Enter /gpfs/loomis/apps/avx/software/Gaussian/16-C.01_AVX/g16/l401.exe)
 ExpMin= 1.22D-01 ExpMax= 1.11D+05 ExpMxC= 1.07D+03 IAcc=3 IRadAn=         5 AccDes= 0.00D+00
 Harris functional with IExCor= 4639 and IRadAn=       5 diagonalized for initial guess.
 HarFok:  IExCor= 4639 AccDes= 0.00D+00 IRadAn=         5 IDoV= 1 UseB2=F ITyADJ=14
 ICtDFT=  3500011 ScaDFX=  1.000000  1.000000  1.000000  1.000000
 FoFCou: FMM=F IPFlag=           0 FMFlag=      100000 FMFlg1=           0
         NFxFlg=           0 DoJE=T BraDBF=F KetDBF=T FulRan=T
         wScrn=  0.000000 ICntrl=       500 IOpCl=  0 I1Cent=   200000004 NGrid=           0
         NMat0=    1 NMatS0=      1 NMatT0=    0 NMatD0=    1 NMtDS0=    0 NMtDT0=    0
 Symmetry not used in FoFCou.
 Harris En= -994.459793614999    
 JPrj=0 DoOrth=F DoCkMO=F.
 Leave Link  401 at Mon Jul 13 14:27:45 2020, MaxMem=  7784628224 cpu:              13.4 elap:               1.4
 (Enter /gpfs/loomis/apps/avx/software/Gaussian/16-C.01_AVX/g16/l502.exe)
 Two-electron integral symmetry not used.
 Closed shell SCF:
 Using DIIS extrapolation, IDIIS=  1040.
 NGot=  7784628224 LenX=  7784455381 LenY=  7784371419
 Requested convergence on RMS density matrix=1.00D-08 within 128 cycles.
 Requested convergence on MAX density matrix=1.00D-06.
 Requested convergence on             energy=1.00D-06.
 No special actions if energy rises.
 Fock matrices will be formed incrementally for  20 cycles.

 Cycle   1  Pass 1  IDiag  1:
 FoFJK:  IHMeth= 1 ICntrl=       0 DoSepK=T KAlg= 0 I1Cent=           0 FoldK=F
 IRaf=         1 NMat=       1 IRICut=       1 DoRegI=T DoRafI=F ISym2E= 0 IDoP0=0 IntGTp=1.
 FoFCou: FMM=F IPFlag=           0 FMFlag=      100000 FMFlg1=           0
         NFxFlg=           0 DoJE=T BraDBF=F KetDBF=F FulRan=T
         wScrn=  0.000000 ICntrl=       500 IOpCl=  0 I1Cent=           0 NGrid=           0
         NMat0=    1 NMatS0=      1 NMatT0=    0 NMatD0=    1 NMtDS0=    0 NMtDT0=    0
 Symmetry not used in FoFCou.
 Inv3:  Mode=1 IEnd=    14414592.
 Iteration    1 A*A^-1 deviation from unit magnitude is 7.11D-15 for   2175.
 Iteration    1 A*A^-1 deviation from orthogonality  is 1.56D-15 for   2175   2084.
 Iteration    1 A^-1*A deviation from unit magnitude is 6.88D-15 for   2175.
 Iteration    1 A^-1*A deviation from orthogonality  is 1.72D-15 for   1873   1481.
 E= -1028.57731759681    
 DIIS: error= 3.44D-02 at cycle   1 NSaved=   1.
 NSaved= 1 IEnMin= 1 EnMin= -1028.57731759681     IErMin= 1 ErrMin= 3.44D-02
 ErrMax= 3.44D-02  0.00D+00 EMaxC= 1.00D-01 BMatC= 3.91D-01 BMatP= 3.91D-01
 IDIUse=3 WtCom= 6.56D-01 WtEn= 3.44D-01
 Coeff-Com:  0.100D+01
 Coeff-En:   0.100D+01
 Coeff:      0.100D+01
 Gap=     0.349 Goal=   None    Shift=    0.000
 GapD=    0.349 DampG=1.000 DampE=0.500 DampFc=0.5000 IDamp=-1.
 Damping current iteration by 5.00D-01
 RMSDP=3.52D-03 MaxDP=2.25D-01              OVMax= 1.75D-01

 Cycle   2  Pass 1  IDiag  1:
 RMSU=  1.75D-03    CP:  9.93D-01
 E= -1028.69538807055     Delta-E=       -0.118070473736 Rises=F Damp=T
 DIIS: error= 1.26D-02 at cycle   2 NSaved=   2.
 NSaved= 2 IEnMin= 2 EnMin= -1028.69538807055     IErMin= 2 ErrMin= 1.26D-02
 ErrMax= 1.26D-02  0.00D+00 EMaxC= 1.00D-01 BMatC= 5.76D-02 BMatP= 3.91D-01
 IDIUse=3 WtCom= 8.74D-01 WtEn= 1.26D-01
 Coeff-Com: -0.293D+00 0.129D+01
 Coeff-En:   0.000D+00 0.100D+01
 Coeff:     -0.256D+00 0.126D+01
 Gap=     0.300 Goal=   None    Shift=    0.000
 RMSDP=1.14D-03 MaxDP=2.36D-02 DE=-1.18D-01 OVMax= 1.14D-01

 Cycle   3  Pass 1  IDiag  1:
 RMSU=  1.08D-03    CP:  9.91D-01  1.20D+00
 E= -1028.80042360663     Delta-E=       -0.105035536080 Rises=F Damp=F
 DIIS: error= 5.53D-03 at cycle   3 NSaved=   3.
 NSaved= 3 IEnMin= 3 EnMin= -1028.80042360663     IErMin= 3 ErrMin= 5.53D-03
 ErrMax= 5.53D-03  0.00D+00 EMaxC= 1.00D-01 BMatC= 1.28D-02 BMatP= 5.76D-02
 IDIUse=3 WtCom= 9.45D-01 WtEn= 5.53D-02
 Coeff-Com: -0.198D+00 0.472D+00 0.726D+00
 Coeff-En:   0.000D+00 0.000D+00 0.100D+01
 Coeff:     -0.187D+00 0.446D+00 0.741D+00
 Gap=     0.260 Goal=   None    Shift=    0.000
 RMSDP=5.04D-04 MaxDP=1.76D-02 DE=-1.05D-01 OVMax= 3.75D-02

 Cycle   4  Pass 1  IDiag  1:
 RMSU=  3.96D-04    CP:  9.89D-01  1.36D+00  8.57D-01
 E= -1028.81250655502     Delta-E=       -0.012082948397 Rises=F Damp=F
 DIIS: error= 1.96D-03 at cycle   4 NSaved=   4.
 NSaved= 4 IEnMin= 4 EnMin= -1028.81250655502     IErMin= 4 ErrMin= 1.96D-03
 ErrMax= 1.96D-03  0.00D+00 EMaxC= 1.00D-01 BMatC= 1.53D-03 BMatP= 1.28D-02
 IDIUse=3 WtCom= 9.80D-01 WtEn= 1.96D-02
 Coeff-Com: -0.703D-01 0.139D+00 0.349D+00 0.582D+00
 Coeff-En:   0.000D+00 0.000D+00 0.000D+00 0.100D+01
 Coeff:     -0.690D-01 0.136D+00 0.342D+00 0.590D+00
 Gap=     0.257 Goal=   None    Shift=    0.000
 RMSDP=1.58D-04 MaxDP=9.30D-03 DE=-1.21D-02 OVMax= 1.25D-02

 Cycle   5  Pass 1  IDiag  1:
 RMSU=  1.02D-04    CP:  9.89D-01  1.37D+00  9.22D-01  7.58D-01
 E= -1028.81410326848     Delta-E=       -0.001596713461 Rises=F Damp=F
 DIIS: error= 3.47D-04 at cycle   5 NSaved=   5.
 NSaved= 5 IEnMin= 5 EnMin= -1028.81410326848     IErMin= 5 ErrMin= 3.47D-04
 ErrMax= 3.47D-04  0.00D+00 EMaxC= 1.00D-01 BMatC= 4.91D-05 BMatP= 1.53D-03
 IDIUse=3 WtCom= 9.97D-01 WtEn= 3.47D-03
 Coeff-Com: -0.915D-03-0.413D-02 0.322D-01 0.158D+00 0.815D+00
 Coeff-En:   0.000D+00 0.000D+00 0.000D+00 0.000D+00 0.100D+01
 Coeff:     -0.912D-03-0.411D-02 0.321D-01 0.158D+00 0.815D+00
 Gap=     0.258 Goal=   None    Shift=    0.000
 RMSDP=5.03D-05 MaxDP=1.54D-03 DE=-1.60D-03 OVMax= 4.87D-03

 Cycle   6  Pass 1  IDiag  1:
 RMSU=  3.23D-05    CP:  9.89D-01  1.37D+00  9.40D-01  8.38D-01  1.08D+00
 E= -1028.81420669969     Delta-E=       -0.000103431204 Rises=F Damp=F
 DIIS: error= 1.47D-04 at cycle   6 NSaved=   6.
 NSaved= 6 IEnMin= 6 EnMin= -1028.81420669969     IErMin= 6 ErrMin= 1.47D-04
 ErrMax= 1.47D-04  0.00D+00 EMaxC= 1.00D-01 BMatC= 7.58D-06 BMatP= 4.91D-05
 IDIUse=3 WtCom= 9.99D-01 WtEn= 1.47D-03
 Coeff-Com:  0.143D-01-0.294D-01-0.583D-01-0.646D-01 0.187D+00 0.951D+00
 Coeff-En:   0.000D+00 0.000D+00 0.000D+00 0.000D+00 0.000D+00 0.100D+01
 Coeff:      0.143D-01-0.293D-01-0.582D-01-0.645D-01 0.187D+00 0.951D+00
 Gap=     0.259 Goal=   None    Shift=    0.000
 RMSDP=2.91D-05 MaxDP=1.51D-03 DE=-1.03D-04 OVMax= 2.52D-03

 Cycle   7  Pass 1  IDiag  1:
 RMSU=  1.47D-05    CP:  9.89D-01  1.37D+00  9.51D-01  8.67D-01  1.24D+00
                    CP:  1.25D+00
 E= -1028.81423128442     Delta-E=       -0.000024584736 Rises=F Damp=F
 DIIS: error= 7.10D-05 at cycle   7 NSaved=   7.
 NSaved= 7 IEnMin= 7 EnMin= -1028.81423128442     IErMin= 7 ErrMin= 7.10D-05
 ErrMax= 7.10D-05  0.00D+00 EMaxC= 1.00D-01 BMatC= 1.59D-06 BMatP= 7.58D-06
 IDIUse=1 WtCom= 1.00D+00 WtEn= 0.00D+00
 Coeff-Com:  0.570D-02-0.108D-01-0.265D-01-0.431D-01-0.203D-01 0.385D+00
 Coeff-Com:  0.710D+00
 Coeff:      0.570D-02-0.108D-01-0.265D-01-0.431D-01-0.203D-01 0.385D+00
 Coeff:      0.710D+00
 Gap=     0.259 Goal=   None    Shift=    0.000
 RMSDP=9.07D-06 MaxDP=3.63D-04 DE=-2.46D-05 OVMax= 1.15D-03

 Cycle   8  Pass 1  IDiag  1:
 RMSU=  5.62D-06    CP:  9.89D-01  1.37D+00  9.52D-01  8.73D-01  1.27D+00
                    CP:  1.43D+00  1.12D+00
 E= -1028.81423455468     Delta-E=       -0.000003270259 Rises=F Damp=F
 DIIS: error= 3.39D-05 at cycle   8 NSaved=   8.
 NSaved= 8 IEnMin= 8 EnMin= -1028.81423455468     IErMin= 8 ErrMin= 3.39D-05
 ErrMax= 3.39D-05  0.00D+00 EMaxC= 1.00D-01 BMatC= 2.89D-07 BMatP= 1.59D-06
 IDIUse=1 WtCom= 1.00D+00 WtEn= 0.00D+00
 Coeff-Com: -0.118D-02 0.262D-02 0.381D-02 0.126D-02-0.403D-01-0.656D-01
 Coeff-Com:  0.265D+00 0.834D+00
 Coeff:     -0.118D-02 0.262D-02 0.381D-02 0.126D-02-0.403D-01-0.656D-01
 Coeff:      0.265D+00 0.834D+00
 Gap=     0.259 Goal=   None    Shift=    0.000
 RMSDP=4.45D-06 MaxDP=1.35D-04 DE=-3.27D-06 OVMax= 5.71D-04

 Cycle   9  Pass 1  IDiag  1:
 RMSU=  2.18D-06    CP:  9.89D-01  1.37D+00  9.52D-01  8.72D-01  1.28D+00
                    CP:  1.49D+00  1.32D+00  1.10D+00
 E= -1028.81423527838     Delta-E=       -0.000000723693 Rises=F Damp=F
 DIIS: error= 1.52D-05 at cycle   9 NSaved=   9.
 NSaved= 9 IEnMin= 9 EnMin= -1028.81423527838     IErMin= 9 ErrMin= 1.52D-05
 ErrMax= 1.52D-05  0.00D+00 EMaxC= 1.00D-01 BMatC= 3.70D-08 BMatP= 2.89D-07
 IDIUse=1 WtCom= 1.00D+00 WtEn= 0.00D+00
 Coeff-Com: -0.107D-02 0.213D-02 0.448D-02 0.623D-02-0.101D-01-0.786D-01
 Coeff-Com: -0.672D-02 0.243D+00 0.840D+00
 Coeff:     -0.107D-02 0.213D-02 0.448D-02 0.623D-02-0.101D-01-0.786D-01
 Coeff:     -0.672D-02 0.243D+00 0.840D+00
 Gap=     0.259 Goal=   None    Shift=    0.000
 RMSDP=2.06D-06 MaxDP=5.46D-05 DE=-7.24D-07 OVMax= 3.21D-04

 Cycle  10  Pass 1  IDiag  1:
 RMSU=  9.89D-07    CP:  9.89D-01  1.37D+00  9.52D-01  8.72D-01  1.28D+00
                    CP:  1.52D+00  1.40D+00  1.26D+00  1.22D+00
 E= -1028.81423542240     Delta-E=       -0.000000144021 Rises=F Damp=F
 DIIS: error= 7.69D-06 at cycle  10 NSaved=  10.
 NSaved=10 IEnMin=10 EnMin= -1028.81423542240     IErMin=10 ErrMin= 7.69D-06
 ErrMax= 7.69D-06  0.00D+00 EMaxC= 1.00D-01 BMatC= 1.08D-08 BMatP= 3.70D-08
 IDIUse=1 WtCom= 1.00D+00 WtEn= 0.00D+00
 Coeff-Com: -0.154D-03 0.259D-03 0.897D-03 0.231D-02 0.401D-02-0.201D-01
 Coeff-Com: -0.466D-01-0.860D-01 0.327D+00 0.819D+00
 Coeff:     -0.154D-03 0.259D-03 0.897D-03 0.231D-02 0.401D-02-0.201D-01
 Coeff:     -0.466D-01-0.860D-01 0.327D+00 0.819D+00
 Gap=     0.259 Goal=   None    Shift=    0.000
 RMSDP=1.07D-06 MaxDP=2.81D-05 DE=-1.44D-07 OVMax= 1.75D-04

 Cycle  11  Pass 1  IDiag  1:
 RMSU=  4.45D-07    CP:  9.89D-01  1.37D+00  9.52D-01  8.72D-01  1.28D+00
                    CP:  1.53D+00  1.43D+00  1.34D+00  1.50D+00  1.23D+00
 E= -1028.81423545983     Delta-E=       -0.000000037436 Rises=F Damp=F
 DIIS: error= 3.61D-06 at cycle  11 NSaved=  11.
 NSaved=11 IEnMin=11 EnMin= -1028.81423545983     IErMin=11 ErrMin= 3.61D-06
 ErrMax= 3.61D-06  0.00D+00 EMaxC= 1.00D-01 BMatC= 1.75D-09 BMatP= 1.08D-08
 IDIUse=1 WtCom= 1.00D+00 WtEn= 0.00D+00
 Coeff-Com:  0.211D-03-0.433D-03-0.795D-03-0.679D-03 0.394D-02 0.936D-02
 Coeff-Com: -0.638D-02-0.824D-01-0.603D-01 0.215D+00 0.922D+00
 Coeff:      0.211D-03-0.433D-03-0.795D-03-0.679D-03 0.394D-02 0.936D-02
 Coeff:     -0.638D-02-0.824D-01-0.603D-01 0.215D+00 0.922D+00
 Gap=     0.259 Goal=   None    Shift=    0.000
 RMSDP=5.23D-07 MaxDP=1.32D-05 DE=-3.74D-08 OVMax= 9.65D-05

 Cycle  12  Pass 1  IDiag  1:
 RMSU=  1.93D-07    CP:  9.89D-01  1.37D+00  9.52D-01  8.72D-01  1.28D+00
                    CP:  1.53D+00  1.44D+00  1.36D+00  1.64D+00  1.51D+00
                    CP:  1.19D+00
 E= -1028.81423546825     Delta-E=       -0.000000008420 Rises=F Damp=F
 DIIS: error= 1.22D-06 at cycle  12 NSaved=  12.
 NSaved=12 IEnMin=12 EnMin= -1028.81423546825     IErMin=12 ErrMin= 1.22D-06
 ErrMax= 1.22D-06  0.00D+00 EMaxC= 1.00D-01 BMatC= 4.95D-10 BMatP= 1.75D-09
 IDIUse=1 WtCom= 1.00D+00 WtEn= 0.00D+00
 Coeff-Com:  0.110D-03-0.214D-03-0.486D-03-0.761D-03 0.892D-03 0.746D-02
 Coeff-Com:  0.916D-02-0.180D-01-0.951D-01-0.128D+00 0.354D+00 0.871D+00
 Coeff:      0.110D-03-0.214D-03-0.486D-03-0.761D-03 0.892D-03 0.746D-02
 Coeff:      0.916D-02-0.180D-01-0.951D-01-0.128D+00 0.354D+00 0.871D+00
 Gap=     0.259 Goal=   None    Shift=    0.000
 RMSDP=2.80D-07 MaxDP=6.43D-06 DE=-8.42D-09 OVMax= 4.54D-05

 Cycle  13  Pass 1  IDiag  1:
 RMSU=  7.95D-08    CP:  9.89D-01  1.37D+00  9.52D-01  8.72D-01  1.28D+00
                    CP:  1.53D+00  1.44D+00  1.37D+00  1.72D+00  1.65D+00
                    CP:  1.49D+00  1.12D+00
 E= -1028.81423547001     Delta-E=       -0.000000001758 Rises=F Damp=F
 DIIS: error= 4.18D-07 at cycle  13 NSaved=  13.
 NSaved=13 IEnMin=13 EnMin= -1028.81423547001     IErMin=13 ErrMin= 4.18D-07
 ErrMax= 4.18D-07  0.00D+00 EMaxC= 1.00D-01 BMatC= 3.92D-11 BMatP= 4.95D-10
 IDIUse=1 WtCom= 1.00D+00 WtEn= 0.00D+00
 Coeff-Com: -0.690D-05 0.166D-04 0.730D-05-0.835D-04-0.219D-03 0.430D-03
 Coeff-Com:  0.393D-02 0.709D-02-0.106D-01-0.665D-01-0.482D-01 0.213D+00
 Coeff-Com:  0.901D+00
 Coeff:     -0.690D-05 0.166D-04 0.730D-05-0.835D-04-0.219D-03 0.430D-03
 Coeff:      0.393D-02 0.709D-02-0.106D-01-0.665D-01-0.482D-01 0.213D+00
 Coeff:      0.901D+00
 Gap=     0.259 Goal=   None    Shift=    0.000
 RMSDP=7.10D-08 MaxDP=1.93D-06 DE=-1.76D-09 OVMax= 1.02D-05

 Cycle  14  Pass 1  IDiag  1:
 RMSU=  2.76D-08    CP:  9.89D-01  1.37D+00  9.52D-01  8.72D-01  1.28D+00
                    CP:  1.53D+00  1.44D+00  1.37D+00  1.73D+00  1.68D+00
                    CP:  1.56D+00  1.29D+00  1.14D+00
 E= -1028.81423547014     Delta-E=       -0.000000000129 Rises=F Damp=F
 DIIS: error= 1.16D-07 at cycle  14 NSaved=  14.
 NSaved=14 IEnMin=14 EnMin= -1028.81423547014     IErMin=14 ErrMin= 1.16D-07
 ErrMax= 1.16D-07  0.00D+00 EMaxC= 1.00D-01 BMatC= 5.89D-12 BMatP= 3.92D-11
 IDIUse=1 WtCom= 1.00D+00 WtEn= 0.00D+00
 Coeff-Com: -0.108D-04 0.222D-04 0.407D-04 0.252D-04-0.149D-03-0.497D-03
 Coeff-Com:  0.744D-03 0.378D-02 0.436D-02-0.141D-01-0.436D-01 0.878D-02
 Coeff-Com:  0.343D+00 0.698D+00
 Coeff:     -0.108D-04 0.222D-04 0.407D-04 0.252D-04-0.149D-03-0.497D-03
 Coeff:      0.744D-03 0.378D-02 0.436D-02-0.141D-01-0.436D-01 0.878D-02
 Coeff:      0.343D+00 0.698D+00
 Gap=     0.259 Goal=   None    Shift=    0.000
 RMSDP=1.45D-08 MaxDP=5.18D-07 DE=-1.29D-10 OVMax= 1.70D-06

 Cycle  15  Pass 1  IDiag  1:
 RMSU=  9.69D-09    CP:  9.89D-01  1.37D+00  9.52D-01  8.72D-01  1.28D+00
                    CP:  1.53D+00  1.44D+00  1.37D+00  1.73D+00  1.68D+00
                    CP:  1.56D+00  1.32D+00  1.24D+00  1.03D+00
 E= -1028.81423547014     Delta-E=       -0.000000000006 Rises=F Damp=F
 DIIS: error= 5.53D-08 at cycle  15 NSaved=  15.
 NSaved=15 IEnMin=15 EnMin= -1028.81423547014     IErMin=15 ErrMin= 5.53D-08
 ErrMax= 5.53D-08  0.00D+00 EMaxC= 1.00D-01 BMatC= 1.05D-12 BMatP= 5.89D-12
 IDIUse=1 WtCom= 1.00D+00 WtEn= 0.00D+00
 Coeff-Com: -0.345D-05 0.650D-05 0.181D-04 0.303D-04-0.187D-04-0.337D-03
 Coeff-Com: -0.553D-03 0.462D-04 0.425D-02 0.845D-02-0.889D-02-0.472D-01
 Coeff-Com: -0.490D-01 0.268D+00 0.825D+00
 Coeff:     -0.345D-05 0.650D-05 0.181D-04 0.303D-04-0.187D-04-0.337D-03
 Coeff:     -0.553D-03 0.462D-04 0.425D-02 0.845D-02-0.889D-02-0.472D-01
 Coeff:     -0.490D-01 0.268D+00 0.825D+00
 Gap=     0.259 Goal=   None    Shift=    0.000
 RMSDP=8.93D-09 MaxDP=2.48D-07 DE=-5.91D-12 OVMax= 9.95D-07

 Error on total polarization charges =  0.00821
 SCF Done:  E(RwB97XD) =  -1028.81423547     A.U. after   15 cycles
            NFock= 15  Conv=0.89D-08     -V/T= 2.0050
 KE= 1.023678799317D+03 PE=-4.605345433808D+03 EE= 1.456235423650D+03
 Leave Link  502 at Mon Jul 13 14:29:08 2020, MaxMem=  7784628224 cpu:             822.3 elap:              82.9
 (Enter /gpfs/loomis/apps/avx/software/Gaussian/16-C.01_AVX/g16/l801.exe)
 DoSCS=F DFT=T ScalE2(SS,OS)=  1.000000  1.000000
 ExpMin= 1.22D-01 ExpMax= 1.11D+05 ExpMxC= 1.07D+03 IAcc=3 IRadAn=         5 AccDes= 0.00D+00
 HarFok:  IExCor=  205 AccDes= 0.00D+00 IRadAn=         5 IDoV=-2 UseB2=F ITyADJ=14
 ICtDFT= 12500011 ScaDFX=  1.000000  1.000000  1.000000  1.000000
 Largest valence mixing into a core orbital is  9.56D-05
 Largest core mixing into a valence orbital is  3.01D-05
 Range of M.O.s used for correlation:    21   273
 NBasis=   273 NAE=    59 NBE=    59 NFC=    20 NFV=     0
 NROrb=    253 NOA=    39 NOB=    39 NVA=   214 NVB=   214

 **** Warning!!: The largest alpha MO coefficient is  0.10135644D+02

 Leave Link  801 at Mon Jul 13 14:29:08 2020, MaxMem=  7784628224 cpu:               1.5 elap:               0.2
 (Enter /gpfs/loomis/apps/avx/software/Gaussian/16-C.01_AVX/g16/l914.exe)
 RHF ground state
 Keep R1, R2, and R3 ints in memory in canonical form, NReq=4262515490.
 FoFCou: FMM=F IPFlag=           0 FMFlag=           0 FMFlg1=           0
         NFxFlg=           0 DoJE=F BraDBF=F KetDBF=F FulRan=T
         wScrn=  0.000000 ICntrl=       600 IOpCl=  0 I1Cent=           0 NGrid=           0
         NMat0=    1 NMatS0=  37401 NMatT0=    0 NMatD0=    1 NMtDS0=    0 NMtDT0=    0
 Symmetry not used in FoFCou.
 Two-electron integral symmetry not used.
 MDV=  7784628224 DFT=T DoStab=F Mixed=T DoRPA=T DoScal=F NonHer=T
 NEqPCM:  Using equilibrium solvation (IEInf=0, Eps=   2.2280, EpsInf=   2.1319)
 Making orbital integer symmetry assigments:
    12 initial guesses have been made.
 Convergence on wavefunction:    0.000001000000000
 Davidson Disk Diagonalization:  ConvIn= 1.00D-06 SkipCon=T Conv= 1.00D-06.
 Max sub-space:  2000 roots to seek:    12 dimension of matrix:        16692
 Iteration     1 Dimension    12 NMult     0 NNew     12
 CISAX will form    12 AO SS matrices at one time.
 NMat=    12 NSing=    12 JSym2X= 0.
 New state      3 was old state      5
 Excitation Energies [eV] at current iteration:
 Root      1 :     3.871649712184052
 Root      2 :     4.966052143864426
 Root      3 :     5.024068091319331
 Root      4 :     5.124286697232690
 Root      5 :     5.884604155093140
 Root      6 :     6.172843954289863
 Root      7 :     6.316710968012903
 Root      8 :     6.485830554084510
 Root      9 :     6.839173586060500
 Root     10 :     7.147913053341511
 Root     11 :     7.281169108527517
 Root     12 :     7.972485238870183
 Iteration     2 Dimension    18 NMult    12 NNew      6
 CISAX will form     6 AO SS matrices at one time.
 NMat=     6 NSing=     6 JSym2X= 0.
 Root      1 not converged, maximum delta is    0.043026924733275
 Root      2 not converged, maximum delta is    0.089391188033636
 Root      3 not converged, maximum delta is    0.055414809081784
 Excitation Energies [eV] at current iteration:
 Root      1 :     3.387242897603695   Change is   -0.484406814580358
 Root      2 :     4.426232129333806   Change is   -0.539820014530619
 Root      3 :     4.809236653656601   Change is   -0.214831437662730
 Iteration     3 Dimension    24 NMult    18 NNew      6
 CISAX will form     6 AO SS matrices at one time.
 NMat=     6 NSing=     6 JSym2X= 0.
 Root      1 not converged, maximum delta is    0.022283008583560
 Root      2 not converged, maximum delta is    0.024882524542057
 Root      3 not converged, maximum delta is    0.025257651577571
 Excitation Energies [eV] at current iteration:
 Root      1 :     3.352501885398788   Change is   -0.034741012204906
 Root      2 :     4.390768844236655   Change is   -0.035463285097151
 Root      3 :     4.793520587096606   Change is   -0.015716066559994
 Iteration     4 Dimension    30 NMult    24 NNew      6
 CISAX will form     6 AO SS matrices at one time.
 NMat=     6 NSing=     6 JSym2X= 0.
 Root      1 not converged, maximum delta is    0.008207292621379
 Root      2 not converged, maximum delta is    0.015231924712199
 Root      3 not converged, maximum delta is    0.007682886235390
 Excitation Energies [eV] at current iteration:
 Root      1 :     3.347681205273125   Change is   -0.004820680125663
 Root      2 :     4.384373018315959   Change is   -0.006395825920696
 Root      3 :     4.792155223673391   Change is   -0.001365363423215
 Iteration     5 Dimension    36 NMult    30 NNew      6
 CISAX will form     6 AO SS matrices at one time.
 NMat=     6 NSing=     6 JSym2X= 0.
 Root      1 not converged, maximum delta is    0.003102051067939
 Root      2 not converged, maximum delta is    0.004796084495709
 Root      3 not converged, maximum delta is    0.001501777465067
 Excitation Energies [eV] at current iteration:
 Root      1 :     3.347212386306966   Change is   -0.000468818966159
 Root      2 :     4.383621546359023   Change is   -0.000751471956936
 Root      3 :     4.792040542081685   Change is   -0.000114681591706
 Iteration     6 Dimension    42 NMult    36 NNew      6
 CISAX will form     6 AO SS matrices at one time.
 NMat=     6 NSing=     6 JSym2X= 0.
 Root      1 not converged, maximum delta is    0.000516729020777
 Root      2 not converged, maximum delta is    0.002496431999000
 Root      3 not converged, maximum delta is    0.000271350804350
 Excitation Energies [eV] at current iteration:
 Root      1 :     3.347162202328490   Change is   -0.000050183978476
 Root      2 :     4.383495077451106   Change is   -0.000126468907916
 Root      3 :     4.792030001374691   Change is   -0.000010540706994
 Iteration     7 Dimension    48 NMult    42 NNew      6
 CISAX will form     6 AO SS matrices at one time.
 NMat=     6 NSing=     6 JSym2X= 0.
 Root      1 not converged, maximum delta is    0.000189187966788
 Root      2 not converged, maximum delta is    0.002377508739053
 Root      3 not converged, maximum delta is    0.002078054068444
 Excitation Energies [eV] at current iteration:
 Root      1 :     3.347158493307194   Change is   -0.000003709021297
 Root      2 :     4.383463701422684   Change is   -0.000031376028422
 Root      3 :     4.792029191679509   Change is   -0.000000809695182
 Iteration     8 Dimension    54 NMult    48 NNew      6
 CISAX will form     6 AO SS matrices at one time.
 NMat=     6 NSing=     6 JSym2X= 0.
 Root      1 not converged, maximum delta is    0.000040449052257
 Root      2 not converged, maximum delta is    0.000883805337836
 No map to state      3
 Excitation Energies [eV] at current iteration:
 Root      1 :     3.347158179566478   Change is   -0.000000313740716
 Root      2 :     4.383458478770465   Change is   -0.000005222652219
 Root      3 :     4.714756262456161
 Iteration     9 Dimension    60 NMult    54 NNew      6
 CISAX will form     6 AO SS matrices at one time.
 NMat=     6 NSing=     6 JSym2X= 0.
 Root      1 not converged, maximum delta is    0.000008291195130
 Root      2 not converged, maximum delta is    0.000142303901162
 Root      3 not converged, maximum delta is    0.017068950588907
 Excitation Energies [eV] at current iteration:
 Root      1 :     3.347158163564989   Change is   -0.000000016001488
 Root      2 :     4.383457869752717   Change is   -0.000000609017749
 Root      3 :     4.701228366266157   Change is   -0.013527896190004
 Iteration    10 Dimension    66 NMult    60 NNew      6
 CISAX will form     6 AO SS matrices at one time.
 NMat=     6 NSing=     6 JSym2X= 0.
 Root      1 not converged, maximum delta is    0.000002132557555
 Root      2 not converged, maximum delta is    0.000024819705499
 Root      3 not converged, maximum delta is    0.003720791320222
 Excitation Energies [eV] at current iteration:
 Root      1 :     3.347158162647315   Change is   -0.000000000917674
 Root      2 :     4.383457801246201   Change is   -0.000000068506516
 Root      3 :     4.699670255720563   Change is   -0.001558110545595
 Iteration    11 Dimension    72 NMult    66 NNew      6
 CISAX will form     6 AO SS matrices at one time.
 NMat=     6 NSing=     6 JSym2X= 0.
 Root      1 has converged.
 Root      2 not converged, maximum delta is    0.000004244632901
 Root      3 not converged, maximum delta is    0.000949624067228
 Excitation Energies [eV] at current iteration:
 Root      1 :     3.347158162615436   Change is   -0.000000000031879
 Root      2 :     4.383457796692946   Change is   -0.000000004553255
 Root      3 :     4.699541507897725   Change is   -0.000128747822838
 Iteration    12 Dimension    76 NMult    72 NNew      4
 CISAX will form     4 AO SS matrices at one time.
 NMat=     4 NSing=     4 JSym2X= 0.
 Root      1 has converged.
 Root      2 not converged, maximum delta is    0.000002063317485
 Root      3 not converged, maximum delta is    0.000643866127360
 Excitation Energies [eV] at current iteration:
 Root      1 :     3.347158162615313   Change is   -0.000000000000123
 Root      2 :     4.383457796392282   Change is   -0.000000000300665
 Root      3 :     4.699526928405664   Change is   -0.000014579492061
 Iteration    13 Dimension    80 NMult    76 NNew      4
 CISAX will form     4 AO SS matrices at one time.
 NMat=     4 NSing=     4 JSym2X= 0.
 Root      1 has converged.
 Root      2 has converged.
 Root      3 not converged, maximum delta is    0.000339108886797
 Excitation Energies [eV] at current iteration:
 Root      1 :     3.347158162614969   Change is   -0.000000000000344
 Root      2 :     4.383457796372515   Change is   -0.000000000019767
 Root      3 :     4.699525114989032   Change is   -0.000001813416632
 Iteration    14 Dimension    82 NMult    80 NNew      2
 CISAX will form     2 AO SS matrices at one time.
 NMat=     2 NSing=     2 JSym2X= 0.
 Root      1 has converged.
 Root      2 has converged.
 Root      3 not converged, maximum delta is    0.000148050061790
 Excitation Energies [eV] at current iteration:
 Root      1 :     3.347158162614993   Change is    0.000000000000025
 Root      2 :     4.383457796371276   Change is   -0.000000000001238
 Root      3 :     4.699524827639229   Change is   -0.000000287349803
 Iteration    15 Dimension    84 NMult    82 NNew      2
 CISAX will form     2 AO SS matrices at one time.
 NMat=     2 NSing=     2 JSym2X= 0.
 Root      1 has converged.
 Root      2 has converged.
 Root      3 not converged, maximum delta is    0.000036257735313
 Excitation Energies [eV] at current iteration:
 Root      1 :     3.347158162615018   Change is    0.000000000000025
 Root      2 :     4.383457796371109   Change is   -0.000000000000168
 Root      3 :     4.699524793715876   Change is   -0.000000033923353
 Iteration    16 Dimension    86 NMult    84 NNew      2
 CISAX will form     2 AO SS matrices at one time.
 NMat=     2 NSing=     2 JSym2X= 0.
 Root      1 has converged.
 Root      2 has converged.
 Root      3 not converged, maximum delta is    0.000007687320827
 Excitation Energies [eV] at current iteration:
 Root      1 :     3.347158162614944   Change is   -0.000000000000074
 Root      2 :     4.383457796371090   Change is   -0.000000000000019
 Root      3 :     4.699524790868166   Change is   -0.000000002847711
 Iteration    17 Dimension    88 NMult    86 NNew      2
 CISAX will form     2 AO SS matrices at one time.
 NMat=     2 NSing=     2 JSym2X= 0.
 Root      1 has converged.
 Root      2 has converged.
 Root      3 not converged, maximum delta is    0.000001993848024
 Excitation Energies [eV] at current iteration:
 Root      1 :     3.347158162614895   Change is   -0.000000000000049
 Root      2 :     4.383457796370977   Change is   -0.000000000000113
 Root      3 :     4.699524790585605   Change is   -0.000000000282561
 Iteration    18 Dimension    90 NMult    88 NNew      2
 CISAX will form     2 AO SS matrices at one time.
 NMat=     2 NSing=     2 JSym2X= 0.
 Root      1 has converged.
 Root      2 has converged.
 Root      3 has converged.
 Excitation Energies [eV] at current iteration:
 Root      1 :     3.347158162614895   Change is    0.000000000000000
 Root      2 :     4.383457796371034   Change is    0.000000000000057
 Root      3 :     4.699524790558526   Change is   -0.000000000027079
 Convergence achieved on expansion vectors.
 ***********************************************************************
 Excited states from <AA,BB:AA,BB> singles matrix:
 ***********************************************************************
 
 1PDM for each excited state written to RWF  633
 Ground to excited state transition densities written to RWF  633
 Ground to excited state transition electric dipole moments (Au):
       state          X           Y           Z        Dip. S.      Osc.
         1         1.4111     -2.1574     -0.0000      6.6455      0.5450
         2         1.6623     -0.7443     -0.0000      3.3172      0.3562
         3        -0.5902     -0.1129      0.0000      0.3611      0.0416
 Ground to excited state transition velocity dipole moments (Au):
       state          X           Y           Z        Dip. S.      Osc.
         1        -0.1675      0.2649      0.0000      0.0982      0.5324
         2        -0.2628      0.1106      0.0000      0.0813      0.3363
         3         0.1011      0.0182     -0.0000      0.0106      0.0408
 Ground to excited state transition magnetic dipole moments (Au):
       state          X           Y           Z
         1         0.0000      0.0000     -0.9329
         2         0.0000     -0.0000      1.0929
         3         0.0000     -0.0000      0.0486
 Ground to excited state transition velocity quadrupole moments (Au):
       state          XX          YY          ZZ          XY          XZ          YZ
         1        -0.0950      0.5667     -0.0128     -0.2256     -0.0000      0.0000
         2         0.2704     -0.6137      0.0058      0.0749      0.0000     -0.0000
         3         0.3657     -0.1049     -0.0232     -0.2431     -0.0000     -0.0000
 <0|del|b> * <b|rxdel|0> + <0|del|b> * <b|delr+rdel|0>
 Rotatory Strengths (R) in cgs (10**-40 erg-esu-cm/Gauss)
       state          XX          YY          ZZ    R(velocity)    E-M Angle
         1         0.0159     -0.0183      0.0213      0.0063       90.00
         2        -0.0028      0.0021     -0.0070     -0.0026       90.00
         3        -0.0002      0.0015      0.0014      0.0009       90.00
 1/2[<0|r|b>*<b|rxdel|0> + (<0|rxdel|b>*<b|r|0>)*]
 Rotatory Strengths (R) in cgs (10**-40 erg-esu-cm/Gauss)
       state          XX          YY          ZZ     R(length)
         1        -0.0080      0.0475     -0.0213      0.0061
         2        -0.0033     -0.0063      0.0021     -0.0025
         3         0.0033     -0.0006     -0.0000      0.0009
  1/2[<0|del|b>*<b|r|0> + (<0|r|b>*<b|del|0>)*] (Au)
       state          X           Y           Z        Dip. S.   Osc.(frdel)
         1        -0.2364     -0.5715     -0.0000      0.8079      0.5386
         2        -0.4368     -0.0823     -0.0000      0.5191      0.3461
         3        -0.0597     -0.0021     -0.0000      0.0617      0.0412

 Excitation energies and oscillator strengths:
 
 Excited state symmetry could not be determined.
 Excited State   1:      Singlet-?Sym    3.3472 eV  370.42 nm  f=0.5450  <S**2>=0.000
      59 -> 60         0.69227
 This state for optimization and/or second-order correction.
 Total Energy, E(TD-HF/TD-DFT) =  -1028.69122967    
 Copying the excited state density for this state as the 1-particle RhoCI density.
 
 Excited state symmetry could not be determined.
 Excited State   2:      Singlet-?Sym    4.3835 eV  282.85 nm  f=0.3562  <S**2>=0.000
      57 -> 60         0.14280
      58 -> 60         0.65873
      59 -> 62        -0.10090
      59 -> 64        -0.10730
 
 Excited state symmetry could not be determined.
 Excited State   3:      Singlet-?Sym    4.6995 eV  263.82 nm  f=0.0416  <S**2>=0.000
      55 -> 61        -0.11083
      57 -> 60         0.57895
      57 -> 62        -0.15141
      58 -> 60        -0.14182
      58 -> 61        -0.18888
      59 -> 61        -0.23845
 SavETr:  write IOETrn=   770 NScale= 10 NData=  16 NLR=1 NState=    3 LETran=      64.
 The selected state is a singlet.
 CISGrd: IGrad=2 NXY=2 DFT=T
 CISAX will form     1 AO SS matrices at one time.
 NMat=     1 NSing=     1 JSym2X= 0.
 GePol: Maximum number of non-zero 1st derivatives   =     268
 Leave Link  914 at Mon Jul 13 14:33:05 2020, MaxMem=  7784628224 cpu:            2336.0 elap:             236.9
 (Enter /gpfs/loomis/apps/avx/software/Gaussian/16-C.01_AVX/g16/l1002.exe)
 Minotr:  Closed shell wavefunction.
          Computing CIS/TDA/TD derivatives.
          Using Z-Vector for PSCF gradient.
          Skipping F1 and S1 gradient terms here.
          IDoAtm=1111111111111111111111111
 NEqPCM:  Using equilibrium solvation (IEInf=0, Eps=   2.2280, EpsInf=   2.1319)
          Frozen-core window.
          Direct CPHF calculation.
          Differentiating once with respect to electric field.
                with respect to dipole field.
          Differentiating once with respect to nuclear coordinates.
          Requested convergence is 1.0D-10 RMS, and 1.0D-09 maximum.
          NewPWx=F KeepS1=T KeepF1=T KeepIn=T MapXYZ=F SortEE=F KeepMc=T.
 Keep R1 ints in memory in canonical form, NReq=1421507426.
 FoFCou: FMM=F IPFlag=           0 FMFlag=           0 FMFlg1=           0
         NFxFlg=           0 DoJE=F BraDBF=F KetDBF=F FulRan=T
         wScrn=  0.000000 ICntrl=       600 IOpCl=  0 I1Cent=           0 NGrid=           0
         NMat0=    1 NMatS0=  37401 NMatT0=    0 NMatD0=    1 NMtDS0=    0 NMtDT0=    0
 Symmetry not used in FoFCou.
 Two-electron integral symmetry not used.
          MDV=    7784628224 using IRadAn=       5.
          Solving linear equations separately, MaxMat=       0.
          There are     1 degrees of freedom in the 1st order CPHF.  IDoFFX=0 NUNeed=     1.
 LinEq1:  Iter=  0 NonCon=     1 RMS=5.08D-03 Max=2.36D-01 NDo=     1
 AX will form     1 AO Fock derivatives at one time.
 LinEq1:  Iter=  1 NonCon=     1 RMS=2.11D-03 Max=9.42D-02 NDo=     1
 LinEq1:  Iter=  2 NonCon=     1 RMS=1.29D-03 Max=4.56D-02 NDo=     1
 LinEq1:  Iter=  3 NonCon=     1 RMS=4.71D-04 Max=1.33D-02 NDo=     1
 LinEq1:  Iter=  4 NonCon=     1 RMS=2.51D-04 Max=9.53D-03 NDo=     1
 LinEq1:  Iter=  5 NonCon=     1 RMS=1.28D-04 Max=5.31D-03 NDo=     1
 LinEq1:  Iter=  6 NonCon=     1 RMS=5.78D-05 Max=2.31D-03 NDo=     1
 LinEq1:  Iter=  7 NonCon=     1 RMS=3.30D-05 Max=1.22D-03 NDo=     1
 LinEq1:  Iter=  8 NonCon=     1 RMS=1.44D-05 Max=4.58D-04 NDo=     1
 LinEq1:  Iter=  9 NonCon=     1 RMS=7.84D-06 Max=2.48D-04 NDo=     1
 LinEq1:  Iter= 10 NonCon=     1 RMS=2.99D-06 Max=7.71D-05 NDo=     1
 LinEq1:  Iter= 11 NonCon=     1 RMS=1.63D-06 Max=7.86D-05 NDo=     1
 LinEq1:  Iter= 12 NonCon=     1 RMS=7.34D-07 Max=1.74D-05 NDo=     1
 LinEq1:  Iter= 13 NonCon=     1 RMS=3.15D-07 Max=9.19D-06 NDo=     1
 LinEq1:  Iter= 14 NonCon=     1 RMS=1.26D-07 Max=3.95D-06 NDo=     1
 LinEq1:  Iter= 15 NonCon=     1 RMS=6.22D-08 Max=1.64D-06 NDo=     1
 LinEq1:  Iter= 16 NonCon=     1 RMS=2.67D-08 Max=7.84D-07 NDo=     1
 LinEq1:  Iter= 17 NonCon=     1 RMS=1.39D-08 Max=6.14D-07 NDo=     1
 LinEq1:  Iter= 18 NonCon=     1 RMS=5.19D-09 Max=1.63D-07 NDo=     1
 LinEq1:  Iter= 19 NonCon=     1 RMS=2.67D-09 Max=7.97D-08 NDo=     1
 LinEq1:  Iter= 20 NonCon=     1 RMS=1.29D-09 Max=3.93D-08 NDo=     1
 LinEq1:  Iter= 21 NonCon=     1 RMS=3.13D-10 Max=7.47D-09 NDo=     1
 LinEq1:  Iter= 22 NonCon=     1 RMS=1.26D-10 Max=2.96D-09 NDo=     1
 LinEq1:  Iter= 23 NonCon=     0 RMS=5.33D-11 Max=9.16D-10 NDo=     1
 Linear equations converged to 1.000D-10 1.000D-09 after    23 iterations.
 End of Minotr F.D. properties file   721 does not exist.
 End of Minotr F.D. properties file   722 does not exist.
 End of Minotr F.D. properties file   788 does not exist.
 Leave Link 1002 at Mon Jul 13 14:34:42 2020, MaxMem=  7784628224 cpu:             721.3 elap:              96.8
 (Enter /gpfs/loomis/apps/avx/software/Gaussian/16-C.01_AVX/g16/l601.exe)
 Copying SCF densities to generalized density rwf, IOpCl= 0 IROHF=0.

 **********************************************************************

            Population analysis using the SCF Density.

 **********************************************************************

 Alpha  occ. eigenvalues --  -89.09651 -19.25931 -14.48110 -10.40532 -10.37540
 Alpha  occ. eigenvalues --  -10.35669 -10.35308 -10.32636 -10.32196 -10.32098
 Alpha  occ. eigenvalues --  -10.31886 -10.31759 -10.31705 -10.31629 -10.30051
 Alpha  occ. eigenvalues --  -10.29722  -8.11573  -6.06435  -6.06084  -6.05620
 Alpha  occ. eigenvalues --   -1.15200  -1.09209  -0.96996  -0.95405  -0.92140
 Alpha  occ. eigenvalues --   -0.88889  -0.85277  -0.83987  -0.82324  -0.75918
 Alpha  occ. eigenvalues --   -0.71188  -0.70479  -0.68767  -0.68285  -0.63456
 Alpha  occ. eigenvalues --   -0.60707  -0.59057  -0.58181  -0.55555  -0.54351
 Alpha  occ. eigenvalues --   -0.54318  -0.53247  -0.52676  -0.51149  -0.49853
 Alpha  occ. eigenvalues --   -0.49819  -0.47359  -0.46190  -0.45547  -0.44873
 Alpha  occ. eigenvalues --   -0.43956  -0.42830  -0.42389  -0.40418  -0.36535
 Alpha  occ. eigenvalues --   -0.35856  -0.32591  -0.31183  -0.27666
 Alpha virt. eigenvalues --   -0.01770   0.04674   0.06808   0.07048   0.07735
 Alpha virt. eigenvalues --    0.10755   0.13382   0.15009   0.16065   0.17859
 Alpha virt. eigenvalues --    0.18755   0.20852   0.21641   0.22300   0.22501
 Alpha virt. eigenvalues --    0.23540   0.24130   0.24417   0.28447   0.30219
 Alpha virt. eigenvalues --    0.32078   0.33076   0.35280   0.35999   0.36898
 Alpha virt. eigenvalues --    0.38090   0.38626   0.40631   0.43360   0.43788
 Alpha virt. eigenvalues --    0.47083   0.47802   0.49905   0.51582   0.51648
 Alpha virt. eigenvalues --    0.52288   0.53290   0.53945   0.54910   0.55315
 Alpha virt. eigenvalues --    0.55993   0.56088   0.56615   0.57399   0.58263
 Alpha virt. eigenvalues --    0.58370   0.58497   0.58944   0.59600   0.60148
 Alpha virt. eigenvalues --    0.60409   0.60706   0.62189   0.62260   0.62987
 Alpha virt. eigenvalues --    0.64769   0.65414   0.66749   0.67674   0.68975
 Alpha virt. eigenvalues --    0.70223   0.70266   0.71954   0.72628   0.72704
 Alpha virt. eigenvalues --    0.72915   0.74488   0.75287   0.76228   0.77234
 Alpha virt. eigenvalues --    0.78991   0.79333   0.79915   0.82056   0.82179
 Alpha virt. eigenvalues --    0.82954   0.88288   0.89364   0.91151   0.93045
 Alpha virt. eigenvalues --    0.94569   0.95115   0.96166   0.96253   0.96852
 Alpha virt. eigenvalues --    0.98488   0.98846   1.00035   1.00149   1.01581
 Alpha virt. eigenvalues --    1.02588   1.05022   1.05982   1.07413   1.07651
 Alpha virt. eigenvalues --    1.08124   1.08443   1.09981   1.10874   1.11902
 Alpha virt. eigenvalues --    1.11915   1.12353   1.13212   1.15079   1.15325
 Alpha virt. eigenvalues --    1.15954   1.19099   1.20233   1.22678   1.23688
 Alpha virt. eigenvalues --    1.26020   1.28019   1.33377   1.33786   1.34765
 Alpha virt. eigenvalues --    1.35079   1.36191   1.38407   1.41430   1.46577
 Alpha virt. eigenvalues --    1.48579   1.49083   1.50702   1.54172   1.55162
 Alpha virt. eigenvalues --    1.56285   1.56442   1.57161   1.58187   1.58573
 Alpha virt. eigenvalues --    1.59412   1.59566   1.64035   1.66378   1.66682
 Alpha virt. eigenvalues --    1.68569   1.69210   1.69679   1.70181   1.70961
 Alpha virt. eigenvalues --    1.71858   1.72555   1.73321   1.73509   1.74863
 Alpha virt. eigenvalues --    1.76961   1.78397   1.80329   1.80853   1.82361
 Alpha virt. eigenvalues --    1.83283   1.83531   1.84697   1.84949   1.85245
 Alpha virt. eigenvalues --    1.87422   1.88431   1.88489   1.89344   1.92132
 Alpha virt. eigenvalues --    1.92296   1.92775   1.93269   1.94593   1.95335
 Alpha virt. eigenvalues --    1.98807   2.00300   2.01890   2.03310   2.03921
 Alpha virt. eigenvalues --    2.04994   2.07785   2.08985   2.10992   2.13001
 Alpha virt. eigenvalues --    2.13684   2.17094   2.18613   2.20757   2.24168
 Alpha virt. eigenvalues --    2.26742   2.29817   2.33398   2.38777   2.40291
 Alpha virt. eigenvalues --    2.40943   2.41093   2.43497   2.45601   2.47173
 Alpha virt. eigenvalues --    2.48204   2.50649   2.52591   2.53129   2.61989
 Alpha virt. eigenvalues --    2.62477   2.71438   2.73577   2.74610   2.80287
 Alpha virt. eigenvalues --    2.81705   2.83973   2.85351   2.89875   2.93246
 Alpha virt. eigenvalues --    2.95828   3.03188   3.08690   3.20522   3.37363
 Alpha virt. eigenvalues --    3.47624   3.56636   3.62125   3.91017
          Condensed to atoms (all electrons):
               1          2          3          4          5          6
     1  C    4.732303   0.474744   0.004073  -0.050764  -0.013272   0.524696
     2  C    0.474744   5.318356   0.340849  -0.046427  -0.064048  -0.011214
     3  C    0.004073   0.340849   4.761804   0.505348  -0.006192  -0.063155
     4  C   -0.050764  -0.046427   0.505348   4.772781   0.524168  -0.015718
     5  C   -0.013272  -0.064048  -0.006192   0.524168   4.726397   0.493397
     6  C    0.524696  -0.011214  -0.063155  -0.015718   0.493397   4.742368
     7  H    0.402745  -0.039776   0.008423  -0.000487   0.008100  -0.038563
     8  H   -0.000757   0.011261  -0.027937   0.392753  -0.043075   0.007635
     9  H    0.008648  -0.000503   0.008460  -0.038938   0.405009  -0.044654
    10  H   -0.041988   0.009605  -0.000574   0.008723  -0.043608   0.406260
    11  N    0.006232  -0.055177   0.436500  -0.039917   0.003004   0.000213
    12  S   -0.062323   0.340442  -0.110494   0.005889   0.000235   0.003466
    13  C   -0.000162   0.003164   0.009234  -0.000765   0.000009   0.000000
    14  C   -0.000004   0.000060   0.000128   0.000005  -0.000000  -0.000000
    15  C    0.000002  -0.000319   0.000667   0.000080  -0.000000   0.000000
    16  C    0.000000  -0.000001   0.000004  -0.000000   0.000000   0.000000
    17  H   -0.000003   0.000053   0.000001  -0.000000   0.000000  -0.000000
    18  C    0.000000   0.000006  -0.000026  -0.000000  -0.000000   0.000000
    19  C   -0.000000   0.000000   0.000001  -0.000000   0.000000   0.000000
    20  H   -0.000000  -0.000000  -0.000000   0.000000   0.000000  -0.000000
    21  H   -0.000000  -0.000000   0.000001  -0.000000   0.000000   0.000000
    22  H    0.000000  -0.000000  -0.000000  -0.000000   0.000000  -0.000000
    23  C    0.003805  -0.051693  -0.118051   0.001340   0.000213  -0.000158
    24  O    0.000002  -0.000065  -0.001818  -0.000094  -0.000001  -0.000000
    25  H   -0.000038   0.004140  -0.012942  -0.001909  -0.000020   0.000010
               7          8          9         10         11         12
     1  C    0.402745  -0.000757   0.008648  -0.041988   0.006232  -0.062323
     2  C   -0.039776   0.011261  -0.000503   0.009605  -0.055177   0.340442
     3  C    0.008423  -0.027937   0.008460  -0.000574   0.436500  -0.110494
     4  C   -0.000487   0.392753  -0.038938   0.008723  -0.039917   0.005889
     5  C    0.008100  -0.043075   0.405009  -0.043608   0.003004   0.000235
     6  C   -0.038563   0.007635  -0.044654   0.406260   0.000213   0.003466
     7  H    0.656897   0.000033  -0.000143  -0.012000  -0.000116  -0.006514
     8  H    0.000033   0.651486  -0.011997  -0.000128  -0.002391  -0.000188
     9  H   -0.000143  -0.011997   0.664560  -0.012277  -0.000116   0.000022
    10  H   -0.012000  -0.000128  -0.012277   0.663315   0.000001  -0.000138
    11  N   -0.000116  -0.002391  -0.000116   0.000001   6.466644  -0.066243
    12  S   -0.006514  -0.000188   0.000022  -0.000138  -0.066243  15.455021
    13  C    0.000006   0.000054  -0.000000  -0.000000  -0.020710  -0.060895
    14  C    0.000000   0.000001   0.000000  -0.000000   0.003106  -0.005488
    15  C   -0.000000  -0.000020   0.000000   0.000000  -0.011528   0.003594
    16  C   -0.000000  -0.000000  -0.000000   0.000000  -0.000097  -0.000065
    17  H    0.000001   0.000000  -0.000000  -0.000000   0.000220   0.005950
    18  C   -0.000000  -0.000000  -0.000000  -0.000000  -0.000568  -0.000103
    19  C    0.000000   0.000000  -0.000000  -0.000000   0.000057   0.000020
    20  H   -0.000000  -0.000000   0.000000   0.000000   0.000001  -0.000000
    21  H   -0.000000   0.000000  -0.000000   0.000000   0.000026   0.000003
    22  H    0.000000  -0.000000  -0.000000  -0.000000  -0.000000  -0.000000
    23  C    0.000081  -0.000832   0.000007   0.000004   0.531692   0.322456
    24  O   -0.000000  -0.000268   0.000000  -0.000000  -0.085764  -0.000340
    25  H    0.000002   0.001395  -0.000007   0.000000   0.161182   0.002794
              13         14         15         16         17         18
     1  C   -0.000162  -0.000004   0.000002   0.000000  -0.000003   0.000000
     2  C    0.003164   0.000060  -0.000319  -0.000001   0.000053   0.000006
     3  C    0.009234   0.000128   0.000667   0.000004   0.000001  -0.000026
     4  C   -0.000765   0.000005   0.000080  -0.000000  -0.000000  -0.000000
     5  C    0.000009  -0.000000  -0.000000   0.000000   0.000000  -0.000000
     6  C    0.000000  -0.000000   0.000000   0.000000  -0.000000   0.000000
     7  H    0.000006   0.000000  -0.000000  -0.000000   0.000001  -0.000000
     8  H    0.000054   0.000001  -0.000020  -0.000000   0.000000  -0.000000
     9  H   -0.000000   0.000000   0.000000  -0.000000  -0.000000  -0.000000
    10  H   -0.000000  -0.000000   0.000000   0.000000  -0.000000  -0.000000
    11  N   -0.020710   0.003106  -0.011528  -0.000097   0.000220  -0.000568
    12  S   -0.060895  -0.005488   0.003594  -0.000065   0.005950  -0.000103
    13  C    5.333659   0.474181   0.266665  -0.007678  -0.039708  -0.043603
    14  C    0.474181   4.802791   0.001738   0.530042   0.401317  -0.055014
    15  C    0.266665   0.001738   4.766746  -0.061092   0.007443   0.504666
    16  C   -0.007678   0.530042  -0.061092   4.758011  -0.035115  -0.019377
    17  H   -0.039708   0.401317   0.007443  -0.035115   0.675937  -0.000746
    18  C   -0.043603  -0.055014   0.504666  -0.019377  -0.000746   4.808992
    19  C   -0.049837  -0.017606  -0.010545   0.488888   0.008402   0.514271
    20  H    0.008875  -0.036004  -0.000233   0.401145  -0.012690   0.008368
    21  H    0.013117  -0.000527  -0.022823   0.007349   0.000045   0.377289
    22  H   -0.001164   0.009138   0.009050  -0.044630  -0.000161  -0.041166
    23  C    0.332255  -0.092162  -0.078741   0.007166  -0.019587   0.007114
    24  O   -0.082941   0.004444   0.539863  -0.000004  -0.000061  -0.060136
    25  H   -0.023800  -0.000595  -0.027445  -0.000022  -0.000007   0.004328
              19         20         21         22         23         24
     1  C   -0.000000  -0.000000  -0.000000   0.000000   0.003805   0.000002
     2  C    0.000000  -0.000000  -0.000000  -0.000000  -0.051693  -0.000065
     3  C    0.000001  -0.000000   0.000001  -0.000000  -0.118051  -0.001818
     4  C   -0.000000   0.000000  -0.000000  -0.000000   0.001340  -0.000094
     5  C    0.000000   0.000000   0.000000   0.000000   0.000213  -0.000001
     6  C    0.000000  -0.000000   0.000000  -0.000000  -0.000158  -0.000000
     7  H    0.000000  -0.000000  -0.000000   0.000000   0.000081  -0.000000
     8  H    0.000000  -0.000000   0.000000  -0.000000  -0.000832  -0.000268
     9  H   -0.000000   0.000000  -0.000000  -0.000000   0.000007   0.000000
    10  H   -0.000000   0.000000   0.000000  -0.000000   0.000004  -0.000000
    11  N    0.000057   0.000001   0.000026  -0.000000   0.531692  -0.085764
[...]
 0.00032955,-0.00000021,0.73103607,-0.00128060,-0.00194618,-0.00000006,
 -0.01062262,-0.00708168,-0.00000010,-0.01446532,0.02141483,0.00000034,
 0.01328270,-0.00249438,0.00000003,0.00004442,0.00981589,0.00000010,-0.
 00331890,-0.00342768,-0.00000006,0.00003656,0.00027067,0.,-0.00013338,
 -0.00016707,0.00000001,-0.00018361,0.00014407,0.,-0.00006096,-0.000051
 60,0.,0.01922513,-0.02030488,0.00000022,0.00227397,-0.00598190,-0.0000
 0008,0.05991079,0.02402108,0.00000029,0.04559128,-0.24517534,-0.000004
 68,0.00006662,-0.00673051,-0.00000068,0.01490704,0.61908138,-0.0000000
 5,-0.00000004,-0.00004777,-0.00000027,-0.00000021,-0.00010768,-0.00000
 039,0.00000059,-0.00015862,0.00000035,-0.00000006,-0.00020349,0.,0.000
 00025,-0.00003203,-0.00000007,-0.00000009,0.00001541,0.,0.,-0.00002822
 ,0.,0.,-0.00001806,0.,0.,0.00001009,0.,0.,0.00004523,0.00000056,-0.000
 00057,0.00205238,0.00000007,-0.00000018,0.00002282,0.00000148,0.000000
 47,0.00193985,0.00000257,-0.00000590,-0.05251729,-0.00000003,-0.000000
 15,-0.00440943,-0.00000372,0.00001315,0.13119477,0.00021457,-0.0000194
 3,0.,-0.00079037,0.00011442,0.,0.00026800,0.00009090,0.,0.00010909,0.0
 0006133,0.,0.00006810,0.00012926,0.,-0.00009307,-0.00010506,0.,-0.0000
 1436,0.00000200,0.,0.00002556,0.00000048,0.,0.00000384,-0.00000032,0.,
 0.00002630,-0.00000353,0.,0.00040305,0.00047139,-0.00000002,-0.0003727
 1,0.00113536,0.00000001,-0.00674783,-0.02902819,-0.00000062,-0.1031055
 3,-0.10523873,-0.00000209,-0.00513805,0.00297936,0.00000011,0.01090642
 ,0.01874290,0.00000037,0.10584945,-0.00000853,-0.00005149,0.,-0.000231
 54,0.00019693,0.,0.00000194,0.00037456,0.,0.00016366,-0.00001248,0.,0.
 00001563,0.00019245,0.,-0.00012107,-0.00008495,0.,-0.00000505,0.000016
 27,0.,0.00000416,-0.00000919,0.,-0.00000652,0.00000179,0.,-0.00000661,
 0.00000298,0.,0.00036423,0.00028767,0.00000003,-0.00030149,-0.00022532
 ,0.00000001,0.00207626,-0.00013118,-0.00000005,-0.10434644,-0.29829689
 ,-0.00000555,0.00079941,0.00154947,-0.00000018,-0.01275475,-0.01822758
 ,-0.00000037,0.11070869,0.31510166,0.00000001,-0.00000001,-0.00003944,
 -0.00000004,0.,-0.00024634,-0.00000003,0.00000004,0.00018548,0.0000000
 3,0.,0.00008198,0.,0.00000003,0.00000944,-0.00000002,-0.00000001,0.000
 01726,0.,0.,0.00000565,0.,0.,0.00001487,0.,0.,-0.00000010,0.,0.,-0.000
 00735,0.00000002,-0.00000005,-0.00140116,0.,0.,0.00042279,0.00000039,0
 .00000004,0.00381191,-0.00000235,-0.00000537,-0.03203607,0.00000004,-0
 .00000010,0.00736179,-0.00000026,-0.00000085,0.00246019,0.00000209,0.0
 0000613,0.02096009,-0.00217865,0.00111374,-0.00000004,-0.00222444,-0.0
 0358723,0.00000005,-0.00525404,0.01101305,0.00000034,0.00537826,-0.000
 82879,-0.00000002,-0.00033453,0.00198847,0.00000001,0.00165947,-0.0011
 1817,-0.00000002,-0.00012921,0.00007940,0.,0.00008859,-0.00000421,0.00
 000001,0.00009329,0.00001139,0.,0.00008988,-0.00004978,0.,0.01389206,0
 .00385970,-0.00000053,-0.00088829,-0.00378208,-0.00000003,0.02191964,0
 .01918999,0.00000070,-0.02246425,0.02465470,0.00000095,-0.16316146,0.0
 7439622,0.00000251,-0.01689454,-0.06310408,-0.00000135,-0.00058218,0.0
 0007549,-0.00000008,0.73258021,0.00042962,-0.00023318,0.,-0.00159856,-
 0.00152251,-0.00000007,-0.00068910,0.00192956,-0.00000010,0.00051514,-
 0.00011493,0.00000003,0.00024444,0.00086893,0.00000001,-0.00074450,-0.
 00047225,0.,0.00000260,0.00004667,0.,-0.00006101,-0.00003140,0.,-0.000
 03025,-0.00000047,0.,0.00001198,0.00000224,0.,0.00376232,-0.00181138,0
 .00000033,0.00143080,-0.00245873,0.,0.01754481,-0.03765919,-0.00000143
 ,-0.00150035,-0.00087184,0.00000008,0.10549045,-0.26322199,-0.00000654
 ,-0.03355582,-0.00837907,-0.00000006,-0.00021377,0.00062184,0.00000007
 ,0.04268970,0.71174186,-0.00000001,-0.00000001,0.00014947,-0.00000005,
 -0.00000013,0.00085302,-0.00000013,0.00000008,0.00183088,0.00000004,0.
 00000001,-0.00046624,0.,0.00000003,-0.00002811,0.,-0.00000004,-0.00009
 259,0.,0.,0.00007699,0.,0.,0.00007800,0.,0.,0.00004654,0.,0.,-0.000073
 32,0.00000011,-0.00000057,-0.00614879,0.00000009,0.,0.00063649,0.00000
 049,-0.00000133,0.01118385,0.00000026,-0.00000026,-0.00206942,0.000003
 54,-0.00000586,-0.06616513,-0.00000071,0.00000019,0.00537217,0.,0.0000
 0005,-0.00090035,-0.00000694,0.00001442,0.10967780,0.00270731,-0.00024
 218,0.00000004,0.00603635,0.00671137,0.00000004,0.01195252,-0.01939670
 ,-0.00000033,-0.01040150,0.00185808,-0.00000002,0.00037060,-0.00588018
 ,-0.00000006,-0.00022887,0.00268642,0.00000004,0.00007948,-0.00012554,
 0.,0.00002537,0.00007233,-0.00000001,-0.00004294,-0.00005168,0.,-0.000
 04726,0.00007706,0.,-0.02207309,0.01128950,-0.00000008,0.00115587,0.00
 524998,0.00000007,-0.02064233,-0.02140687,-0.00000066,0.05895057,-0.01
 199711,-0.00000075,-0.04133521,0.02692892,0.00000176,-0.14792303,-0.01
 940711,-0.00000004,-0.00207143,0.00460091,0.00000027,-0.37149457,-0.05
 229826,0.00000223,0.70658690,0.00002103,0.00032969,0.00000002,-0.00014
 457,-0.00063133,-0.00000004,0.00100755,0.00088030,-0.00000011,-0.00052
 669,0.00011102,0.00000002,0.00006681,-0.00026469,0.,0.00023683,-0.0004
 0345,0.,-0.00002093,0.00001145,0.,-0.00000375,-0.00003847,0.,0.0000246
 4,-0.00002787,0.,0.00001352,0.00001857,0.,0.00349061,0.00345549,0.0000
 0010,-0.00112185,-0.00064297,0.00000002,-0.01881913,-0.01258750,-0.000
 00034,0.02862520,-0.05974712,-0.00000222,0.02083654,0.02487799,0.00000
 063,-0.09709089,-0.28816142,-0.00000595,0.00344988,-0.00137073,-0.0000
 0010,-0.01281628,-0.12000570,-0.00000124,-0.04694068,0.69039198,-0.000
 00003,0.00000002,0.00018122,-0.00000004,-0.00000006,-0.00035274,-0.000
 00004,0.00000018,-0.00105950,0.00000006,-0.00000001,0.00010318,0.,0.00
 000003,0.00008922,0.00000002,-0.00000003,0.00000310,0.,0.,-0.00003498,
 0.,0.,-0.00010855,0.,0.,-0.00000484,0.,0.,-0.00000148,0.00000031,0.000
 00013,0.00172524,-0.00000007,-0.00000008,0.00025701,-0.00000038,0.0000
 0008,-0.00253696,0.00000035,-0.00000179,0.00842231,0.00000093,-0.00000
 013,0.00226023,-0.00000184,-0.00000625,-0.05901276,0.00000015,-0.00000
 019,0.00496065,0.00000301,-0.00000108,-0.04831713,-0.00000718,0.000016
 37,0.11094555,0.00005929,-0.00008361,0.,-0.00011234,0.00008081,0.,-0.0
 0000029,-0.00005871,0.,0.00000799,0.00001846,0.,0.00001473,0.00009564,
 0.,-0.00014223,-0.00000406,0.,0.00000573,0.00000976,0.,-0.00000319,-0.
 00000664,0.,-0.00001326,0.00000547,0.,-0.00000856,0.00000490,0.,-0.000
 16198,0.00040023,0.,0.00005327,-0.00004844,0.,0.00043430,0.00316971,0.
 00000012,-0.01363373,-0.00636633,-0.00000003,0.00058894,0.00017272,0.,
 -0.34090905,-0.04201213,0.00000097,0.00078490,0.00007200,-0.00000003,0
 .00139585,-0.00203285,-0.00000004,-0.00652482,0.00225715,0.00000017,0.
 35856661,-0.00001581,0.00000607,0.,-0.00008050,-0.00013364,0.,-0.00003
 294,0.00028410,-0.00000001,0.00012134,-0.00006409,0.,0.00001306,0.0000
 8159,0.,-0.00000684,-0.00003918,0.,-0.00000056,-0.00000009,0.,-0.00000
 018,0.00000009,0.,0.00000250,-0.00000296,0.,0.00000239,-0.00000176,0.,
 0.00052461,-0.00041022,0.00000002,0.00002886,-0.00001832,0.,0.00336135
 ,-0.00414080,-0.00000027,0.02428903,0.00744414,-0.00000017,0.00041419,
 -0.00115728,-0.00000001,-0.04237977,-0.06569155,-0.00000049,-0.0001538
 5,0.00087811,0.00000011,-0.00123517,-0.00537662,-0.00000029,-0.0290523
 9,0.00134851,0.00000008,0.04489689,0.06471807,0.,0.,-0.00002762,0.,-0.
 00000001,0.00003823,-0.00000002,0.00000002,0.00055855,0.00000001,0.,0.
 00012003,0.,0.,-0.00007253,0.,0.,0.00001505,0.,0.,0.00000759,0.,0.,0.0
 0003699,0.,0.,-0.00002465,0.,0.,-0.00000171,0.00000006,-0.00000003,-0.
 00080878,0.,0.,-0.00009181,0.00000018,-0.00000029,0.00613451,0.0000006
 9,0.00000025,0.00688428,0.00000005,0.,-0.00118836,0.00000101,-0.000000
 64,-0.03822101,-0.00000003,0.00000009,-0.00350574,-0.00000008,-0.00000
 033,0.00504097,-0.00000067,-0.00000004,0.00662436,-0.00000113,0.000000
 84,0.02274088,-0.00009502,0.00002659,0.,0.00007960,0.00006406,0.,-0.00
 010556,0.00006044,0.,0.00003878,0.00000351,0.,-0.00002395,-0.00003412,
 0.,0.00007968,0.00001094,0.,0.00000086,-0.00000505,0.,-0.00000430,0.00
 000190,0.,0.00000379,-0.00000010,0.,-0.00000201,-0.00000209,0.,0.00017
 437,-0.00036673,0.00000003,-0.00027574,0.00010713,0.,-0.00339266,0.002
 94073,0.00000016,0.00026438,0.00011921,0.,0.00910828,0.01967795,0.0000
 0040,-0.00582360,0.00095241,0.00000018,0.00011221,-0.00010157,-0.00000
 001,-0.10244857,-0.10767822,-0.00000156,-0.00431361,-0.02826632,-0.000
 00057,-0.00041243,-0.00140282,-0.00000005,0.10323158,0.00008225,0.0000
 2619,0.,-0.00010496,-0.00003119,0.,0.00015038,-0.00000359,0.,-0.000029
 63,-0.00000553,0.,0.00000295,-0.00003024,0.,0.00001450,-0.00001919,0.,
 -0.00000643,0.00000196,0.,0.00000945,0.00000238,0.,0.00000642,-0.00000
 193,0.,0.00000831,-0.00000106,0.,-0.00033059,0.00056189,-0.00000003,0.
 00026553,-0.00013666,0.,0.00397561,-0.00153464,-0.00000019,0.00016378,
 0.00028045,0.00000002,-0.01365668,-0.01849455,-0.00000030,-0.00002434,
 0.00130255,-0.00000011,-0.00008525,-0.00005396,0.00000001,-0.10479012,
 -0.30326282,-0.00000517,0.00223668,0.00169635,-0.00000005,0.00010380,-
 0.00002712,0.,0.11390321,0.31784257,0.00000002,0.,-0.00035247,0.,0.000
 00002,-0.00010104,0.00000004,-0.00000006,0.00037270,-0.00000003,0.,0.0
 0000536,0.,-0.00000001,-0.00006248,0.,0.,0.00003961,0.,0.,-0.00000518,
 0.,0.,0.00005262,0.,0.,-0.00000446,0.,0.,0.00006668,-0.00000012,0.0000
 0004,-0.00008512,0.00000002,0.,-0.00021743,0.00000018,-0.00000024,0.00
 366112,0.00000005,0.,-0.00050657,-0.00000035,-0.00000058,0.00361938,0.
 00000013,-0.00000005,0.00668732,0.,0.00000001,-0.00047738,-0.00000132,
 -0.00000506,-0.03245698,-0.00000008,0.00000014,0.00423340,0.,0.0000000
 4,-0.00049033,0.00000164,0.00000557,0.02219282,0.00002350,-0.00003324,
 0.,-0.00013843,-0.00000540,0.,0.00004809,0.00017464,0.,0.00008560,-0.0
 0001912,0.,0.00001379,0.00011876,0.,-0.00008697,-0.00004316,0.,0.00000
 039,0.00000837,0.,0.00000025,-0.00000641,0.,-0.00000786,0.00000273,0.,
 -0.00000371,0.00000282,0.,0.00036179,0.00046686,-0.00000003,-0.0000254
 6,0.00001911,0.,0.00008393,-0.00066601,-0.00000001,-0.00087753,-0.0025
 2121,-0.00000004,-0.00355148,-0.00305833,0.00000001,0.01046675,-0.0119
 3682,-0.00000040,0.00036833,-0.00052121,0.,-0.01260217,0.02576433,0.00
 000079,-0.17300716,0.14265263,0.00000510,0.00069832,0.00037737,-0.0000
 0002,0.00111319,-0.00025982,-0.00000006,0.17927465,0.00006334,0.000062
 77,0.,0.00033712,0.00030947,0.,0.00051929,-0.00084047,0.,-0.00046524,0
 .00009449,0.,-0.00000278,-0.00036044,0.,0.00012712,0.00013410,0.,-0.00
 000384,-0.00001220,0.,0.00000834,0.00001010,0.,0.00000966,-0.00000504,
 0.,0.00000604,-0.00000069,0.,-0.00094051,0.00047248,-0.00000003,-0.000
 05703,0.00028339,0.,-0.00135762,0.00035763,0.00000005,-0.00252844,-0.0
 0380143,-0.00000021,-0.00191483,0.00004289,-0.00000016,0.02038535,-0.0
 1535317,-0.00000063,0.00092330,-0.00099720,-0.00000005,-0.00596962,0.0
 0752091,0.00000011,0.14195159,-0.23384582,-0.00000689,-0.00008800,0.00
 096274,0.00000011,0.00028014,0.00059247,0.00000012,-0.15170601,0.24423
 805,0.00000001,0.,0.00002660,0.,0.00000002,0.00001762,0.00000002,-0.00
 000002,-0.00015127,0.,0.,0.00004201,0.,0.,0.00000830,-0.00000001,0.,-0
 .00000109,0.,0.,0.00000210,0.,0.,0.00000751,0.,0.,-0.00000164,0.,0.,-0
 .00001497,-0.00000004,0.00000004,0.00047172,0.,0.,-0.00017991,-0.00000
 005,0.00000009,-0.00139139,-0.00000014,-0.00000019,0.00435971,0.000000
 06,-0.00000011,0.00707925,0.00000049,-0.00000050,0.00230563,0.00000003
 ,-0.00000005,0.00093262,0.00000010,-0.00000013,0.00397126,0.00000505,-
 0.00000686,-0.03167558,-0.00000003,0.00000011,-0.00308542,-0.00000006,
 0.00000010,-0.00390895,-0.00000545,0.00000752,0.02197863,-0.00543176,-
 0.00630629,-0.00000005,-0.01324606,0.01305248,0.00000006,-0.08883287,0
 .05009630,-0.00000051,0.02072189,-0.00364804,0.00000008,-0.00124828,0.
 01355436,0.00000016,-0.00689170,-0.00384116,-0.00000009,0.00038659,-0.
 00040372,0.,-0.00052551,-0.00024887,-0.00000001,-0.00015351,0.00018390
 ,0.,-0.00063098,-0.00014509,0.,-0.31786656,-0.06220732,-0.00000164,-0.
 04648567,-0.03653703,-0.00000032,-0.18960932,0.11753178,0.00000146,-0.
 04393281,0.04156920,0.00000112,0.02079283,0.00707071,-0.00000021,0.000
 05070,-0.01919019,-0.00000055,0.00030568,-0.00009279,0.,-0.00810959,-0
 .01110154,-0.00000015,0.01008140,-0.00057770,-0.00000012,-0.00065628,0
 .00053831,0.00000002,0.00081390,-0.00091588,0.00000002,-0.00031262,0.0
 0073115,0.00000004,0.67326076,-0.00337638,0.00329179,0.00000011,0.0394
 4318,-0.01811173,0.00000012,0.02550070,-0.00369565,-0.00000016,-0.0014
 0346,-0.00543660,-0.00000009,-0.00108866,-0.00541948,-0.00000005,0.005
 64746,0.00116242,0.00000002,0.00000329,-0.00079046,0.,-0.00013936,0.00
 030748,-0.00000002,0.00048791,-0.00049058,0.,-0.00012171,0.00000224,0.
 ,-0.06116423,-0.10127936,-0.00000040,-0.01271489,-0.13568633,-0.000000
 80,0.09276783,-0.21996233,-0.00000225,0.01956441,0.00981278,0.00000010
 ,0.02564419,-0.05026774,-0.00000076,-0.00528852,0.00039892,0.,-0.00133
 083,0.00068052,0.00000004,-0.01522880,0.00417394,0.00000024,0.00757078
 ,0.00422444,-0.00000004,-0.00055897,0.00111210,0.00000005,0.00032530,-
 0.00056449,0.00000002,0.00031188,-0.00000266,-0.00000001,-0.09667053,0
 .52420442,-0.00000006,0.00000004,0.00163480,0.00000027,-0.00000016,-0.
 00153382,-0.00000029,0.00000031,0.00481768,0.00000013,-0.00000011,0.00
 427858,-0.00000005,0.,0.00104437,0.00000005,-0.00000005,0.00082620,0.,
 0.,-0.00037250,0.,0.00000001,-0.00077265,0.,0.,-0.00068078,0.,0.,-0.00
 025903,-0.00000188,-0.00000068,-0.03726482,-0.00000021,-0.00000082,-0.
 01962010,0.00000015,-0.00000156,-0.03885551,0.00000067,0.00000015,0.00
 806912,0.00000043,-0.00000117,0.00573196,-0.00000003,-0.00000011,0.002
 82698,0.00000002,0.00000003,-0.00144232,-0.00000058,0.00000006,-0.0000
 9723,0.00000042,0.00000009,-0.00095184,0.,0.00000004,-0.00089137,0.,-0
 .00000005,0.00159865,0.,0.,0.00008702,0.00000068,0.00000369,0.07119262
 ,0.00145217,0.00171403,0.00000004,0.00398318,0.00840902,0.00000024,0.0
 1741915,-0.00982276,0.00000001,-0.00609383,0.00115068,-0.00000012,-0.0
 0061724,-0.00536283,-0.00000006,0.00238404,0.00207348,0.00000002,-0.00
 025117,0.00013730,0.,0.00039337,0.00009179,0.,0.00004240,0.00003422,0.
 00000001,0.00003086,0.00007089,0.,-0.00628863,0.06278559,-0.00000212,0
 .00040979,0.00665698,0.,-0.04902904,-0.01468024,0.00000090,0.02419427,
 -0.01217028,-0.00000035,-0.42774537,-0.07581861,0.00000665,-0.01170034
 ,0.01599133,0.00000048,-0.00104454,-0.00062731,-0.00000001,-0.06886263
 ,0.01693446,0.00000216,0.00051712,0.00104392,0.00000002,-0.00010412,-0
 .00021463,-0.00000001,0.00206200,-0.00099953,-0.00000012,-0.00196056,-
 0.00033855,0.,-0.00180025,-0.00453628,-0.00000032,0.55894324,-0.001671
 11,-0.00153764,-0.00000005,-0.00146554,-0.00861169,-0.00000018,-0.0217
 6251,0.00274940,0.00000027,0.00425073,-0.00138453,0.00000006,0.0002861
 5,0.00361672,0.00000004,-0.00093695,-0.00189317,-0.00000003,0.00028927
 ,-0.00042185,0.,-0.00000856,0.00017205,0.00000001,0.00020161,-0.000124
 18,0.,0.00006611,-0.00011787,0.,0.03432777,-0.10133111,0.00000193,0.00
 054696,-0.00437601,0.,-0.02985639,-0.00968787,-0.00000005,-0.01138584,
 -0.00494696,-0.00000005,-0.06218521,-0.12009599,-0.00000101,0.00166376
 ,-0.00847253,-0.00000017,-0.00181996,0.00007852,0.00000001,0.04759692,
 0.01585820,-0.00000039,0.00332705,-0.00408803,-0.00000006,0.00000089,0
 .00044128,0.,-0.00136987,0.00257746,0.00000003,0.00186852,0.00057471,-
 0.00000005,0.00953706,0.01298701,0.00000025,0.03775154,0.28373722,-0.0
 0000002,-0.00000004,0.00043170,0.00000005,-0.00000010,-0.00101842,-0.0
 0000056,-0.00000006,-0.00070577,0.00000002,-0.00000005,0.00046521,0.00
 000004,0.00000007,0.00018818,-0.00000007,0.00000002,0.00004718,0.,-0.0
 0000001,-0.00006367,0.,0.,-0.00019021,0.,0.,-0.00005552,0.,0.,-0.00009
 902,0.00000037,-0.00000168,0.01976002,-0.00000008,-0.00000013,-0.00120
 490,0.00000041,-0.00000021,0.01551983,-0.00000043,0.00000016,0.0018397
 0,0.00000694,-0.00000060,-0.05024181,0.00000026,-0.00000033,0.00002427
 ,0.,0.00000006,-0.00172162,0.00000317,-0.00000015,0.01172164,0.0000000
 3,-0.00000036,0.00363310,0.,0.00000002,0.00014291,-0.00000014,0.000000
 17,-0.00328433,0.00000012,0.00000003,-0.00025002,0.00000025,0.00000003
 ,-0.00301523,-0.00001036,0.00000354,0.04298118,-0.00051414,-0.00042759
 ,0.,-0.00347760,-0.00282269,-0.00000009,-0.00499672,0.01108400,-0.0000
 0020,0.00353224,-0.00060553,0.00000006,0.00012849,0.00228459,0.0000000
 4,-0.00071945,-0.00092689,-0.00000002,0.00005215,0.00001514,0.,-0.0005
 0891,-0.00016254,0.,0.00003589,-0.00002972,0.,-0.00000171,-0.00008330,
 0.,-0.03310195,-0.02536240,0.00000138,-0.00241436,-0.00543794,-0.00000
 006,0.00580753,-0.00353992,-0.00000018,-0.00698903,0.00314557,0.000000
 09,-0.04242507,0.02875328,0.00000199,0.00169277,-0.00530943,-0.0000001
 6,0.00051454,0.00024250,0.,0.00053190,-0.00331641,-0.00000009,0.001642
 33,0.00260249,0.00000014,0.00007234,0.00000557,0.,-0.00018516,0.000280
 37,0.,0.00003539,0.00003004,0.,-0.00068000,-0.01364431,0.00000059,-0.0
 3633386,-0.00925240,0.,0.11830239,0.00400278,0.00136908,0.00000012,0.0
 0427247,0.01552940,0.00000043,0.03582442,-0.01614623,-0.00000068,-0.01
 035504,0.00368201,-0.00000014,-0.00093433,-0.00766399,-0.00000011,0.00
 120017,0.00322618,0.00000004,-0.00037904,0.00051749,0.,0.00034253,-0.0
 0024461,0.,-0.00029354,0.00022143,0.00000001,-0.00013485,0.00022212,0.
 ,-0.03762167,0.02369538,-0.00000278,0.00274243,0.01331575,0.00000018,-
 0.02692202,0.01256937,0.00000031,0.02687951,-0.01112540,-0.00000027,0.
 05026964,0.01404109,-0.00000043,-0.00612428,0.02119715,0.00000052,-0.0
 0081036,-0.00052178,0.00000005,-0.01415444,0.00265790,0.00000016,-0.00
 776197,-0.00553070,-0.00000023,-0.00002868,-0.00021317,-0.00000002,0.0
 0075336,-0.00071731,0.,-0.00099128,-0.00043711,0.00000004,-0.01197911,
 -0.02065064,0.00000002,-0.03027421,-0.05570315,-0.00000036,0.02247751,
 0.00670975,0.00000004,-0.00000013,0.00030440,0.00000009,-0.00000001,0.
 00159563,0.00000009,-0.00000095,-0.00326828,-0.00000026,0.00000004,-0.
 00080461,0.00000005,-0.00000011,-0.00015041,-0.00000005,0.00000007,-0.
 00004716,0.00000001,-0.00000002,-0.00005474,-0.00000004,0.00000002,0.0
 0010792,0.,0.,0.00006726,0.,0.,0.00006026,0.00000073,0.00000308,-0.023
 36591,-0.00000009,-0.00000028,0.00129703,-0.00000022,0.00000011,-0.005
 23753,-0.00000004,-0.00000001,0.00021388,0.00000034,-0.00000094,0.0008
 8440,0.00000004,0.00000005,-0.00020072,-0.00000002,-0.00000002,0.00055
 315,0.00000015,-0.00000004,0.00617620,-0.00000009,-0.00000013,0.000617
 78,0.,0.,0.00006499,0.,0.00000001,-0.00057695,0.,0.00000002,-0.0006297
 4,-0.00000021,0.00000018,0.00364922,0.00000294,-0.00000409,-0.03490441
 ,-0.00000347,0.00000315,0.05364835\\0.00072624,-0.00010888,-0.00000005
 ,-0.00002967,-0.00056701,-0.00000018,-0.00058879,-0.00017037,0.0000005
 6,-0.00043057,0.00063897,0.00000007,0.00019695,0.00109781,-0.00000002,
 0.00074312,0.00070684,0.,0.00012784,-0.00001825,0.,-0.00010960,0.00005
 794,0.,0.00000305,0.00013408,0.,0.00009409,0.00009561,0.,-0.00067213,-
 0.00069855,0.00000190,-0.00049651,-0.00246511,0.00000007,-0.00029987,-
 0.00029564,0.00000011,-0.00060882,0.00059657,-0.00000012,-0.00000305,-
 0.00033848,0.00000035,0.00008477,0.00096882,-0.00000012,-0.00008225,0.
 00009131,-0.00000002,0.00076157,0.00010798,-0.00000049,0.00069480,0.00
 085544,0.00000018,0.00001324,0.00013222,0.00000002,0.00010087,-0.00003
 252,0.00000006,0.00010391,0.00009044,0.00000006,-0.00057009,-0.0005935
 8,-0.00000051,0.00043060,-0.00074350,0.00000256,-0.00018972,0.00045784
 ,-0.00000444\\\@
 The archive entry for this job was punched.


 NOTHING PUZZLES ME MORE THAN TIME AND SPACE; AND YET NOTHING TROUBLES ME LESS
                                                          -- CHARLES LAMB (1810)
 Job cpu time:       0 days  2 hours 51 minutes 53.0 seconds.
 Elapsed time:       0 days  0 hours 17 minutes 46.3 seconds.
 File lengths (MBytes):  RWF=   1380 Int=      0 D2E=      0 Chk=     48 Scr=      8
 Normal termination of Gaussian 16 at Mon Jul 13 15:08:52 2020.
