 Entering Gaussian System, Link 0=g16
 Initial command:
 /gpfs/loomis/apps/avx/software/Gaussian/16-C.01_AVX/g16/l1.exe "/home/fas/batista/pev4/scratch60/gauss-scratch/Gau-13755.inp" -scrdir="/home/fas/batista/pev4/scratch60/gauss-scratch/"
 Entering Link 1 = /gpfs/loomis/apps/avx/software/Gaussian/16-C.01_AVX/g16/l1.exe PID=     13756.
  
 Copyright (c) 1988-2019, Gaussian, Inc.  All Rights Reserved.
  
 This is part of the Gaussian(R) 16 program.  It is based on
 the Gaussian(R) 09 system (copyright 2009, Gaussian, Inc.),
 the Gaussian(R) 03 system (copyright 2003, Gaussian, Inc.),
 the Gaussian(R) 98 system (copyright 1998, Gaussian, Inc.),
 the Gaussian(R) 94 system (copyright 1995, Gaussian, Inc.),
 the Gaussian 92(TM) system (copyright 1992, Gaussian, Inc.),
 the Gaussian 90(TM) system (copyright 1990, Gaussian, Inc.),
 the Gaussian 88(TM) system (copyright 1988, Gaussian, Inc.),
 the Gaussian 86(TM) system (copyright 1986, Carnegie Mellon
 University), and the Gaussian 82(TM) system (copyright 1983,
 Carnegie Mellon University). Gaussian is a federally registered
 trademark of Gaussian, Inc.
  
 This software contains proprietary and confidential information,
 including trade secrets, belonging to Gaussian, Inc.
  
 This software is provided under written license and may be
 used, copied, transmitted, or stored only in accord with that
 written license.
  
 The following legend is applicable only to US Government
 contracts under FAR:
  
                    RESTRICTED RIGHTS LEGEND
  
 Use, reproduction and disclosure by the US Government is
 subject to restrictions as set forth in subparagraphs (a)
 and (c) of the Commercial Computer Software - Restricted
 Rights clause in FAR 52.227-19.
  
 Gaussian, Inc.
 340 Quinnipiac St., Bldg. 40, Wallingford CT 06492
  
  
 ---------------------------------------------------------------
 Warning -- This program may not be used in any manner that
 competes with the business of Gaussian, Inc. or will provide
 assistance to any competitor of Gaussian, Inc.  The licensee
 of this program is prohibited from giving any competitor of
 Gaussian, Inc. access to this program.  By using this program,
 the user acknowledges that Gaussian, Inc. is engaged in the
 business of creating and licensing software in the field of
 computational chemistry and represents and warrants to the
 licensee that it is not a competitor of Gaussian, Inc. and that
 it will not use this program in any manner prohibited above.
 ---------------------------------------------------------------
  

 Cite this work as:
 Gaussian 16, Revision C.01,
 M. J. Frisch, G. W. Trucks, H. B. Schlegel, G. E. Scuseria, 
 M. A. Robb, J. R. Cheeseman, G. Scalmani, V. Barone, 
 G. A. Petersson, H. Nakatsuji, X. Li, M. Caricato, A. V. Marenich, 
 J. Bloino, B. G. Janesko, R. Gomperts, B. Mennucci, H. P. Hratchian, 
 J. V. Ortiz, A. F. Izmaylov, J. L. Sonnenberg, D. Williams-Young, 
 F. Ding, F. Lipparini, F. Egidi, J. Goings, B. Peng, A. Petrone, 
 T. Henderson, D. Ranasinghe, V. G. Zakrzewski, J. Gao, N. Rega, 
 G. Zheng, W. Liang, M. Hada, M. Ehara, K. Toyota, R. Fukuda, 
 J. Hasegawa, M. Ishida, T. Nakajima, Y. Honda, O. Kitao, H. Nakai, 
 T. Vreven, K. Throssell, J. A. Montgomery, Jr., J. E. Peralta, 
 F. Ogliaro, M. J. Bearpark, J. J. Heyd, E. N. Brothers, K. N. Kudin, 
 V. N. Staroverov, T. A. Keith, R. Kobayashi, J. Normand, 
 K. Raghavachari, A. P. Rendell, J. C. Burant, S. S. Iyengar, 
 J. Tomasi, M. Cossi, J. M. Millam, M. Klene, C. Adamo, R. Cammi, 
 J. W. Ochterski, R. L. Martin, K. Morokuma, O. Farkas, 
 J. B. Foresman, and D. J. Fox, Gaussian, Inc., Wallingford CT, 2019.
 
 ******************************************
 Gaussian 16:  ES64L-G16RevC.01  3-Jul-2019
                14-Jul-2020 
 ******************************************
 %chk=config_12_9_fixed.chk
 %mem=58GB
 %nprocshared=10
 Will use up to   10 processors via shared memory.
 ----------------------------------------------------------------------
 #p opt=addgic freq td wb97xd/cc-pvdz nosymm int=ultrafine scrf=(solven
 t=CarbonTetraChloride)
 ----------------------------------------------------------------------
 1/18=20,19=15,26=6,38=1,145=903/1,3;
 2/9=110,12=2,15=1,17=6,18=5,40=1/2;
 3/5=16,11=9,25=1,30=1,70=2201,71=1,72=11,74=-58,75=-5/1,2,3,8;
 4//1;
 5/5=2,38=5,53=11/2;
 8/6=1,10=1/1;
 9/15=2,42=1,70=2/14;
 10/5=4,31=1/2;
 6/7=2,8=2,9=2,10=2/1;
 7/12=6,13=5,30=1/1,2,3,16;
 1/18=20,19=15,26=6,145=903/3(2);
 2/9=110,15=1/2;
 99//99;
 2/9=110,15=1/2;
 3/5=16,11=9,25=1,30=1,70=2205,71=1,72=11,74=-58,75=-5/1,2,3,8;
 4/5=5,16=3,69=1/1;
 5/5=2,38=5,53=11/2;
 8/6=1,10=1/1;
 9/15=2,42=1,49=4,70=2/14;
 10/5=4,31=1/2;
 7/12=6,13=5,30=1/1,2,3,16;
 1/18=20,19=15,26=6,145=903/3(-8);
 2/9=110,15=1/2;
 6/7=2,8=2,9=2,10=2/1;
 99/9=10/99;
 Leave Link    1 at Tue Jul 14 10:58:25 2020, MaxMem=  7784628224 cpu:               6.4 elap:               0.7
 (Enter /gpfs/loomis/apps/avx/software/Gaussian/16-C.01_AVX/g16/l101.exe)
 ------------------------------------------------
 NM 2D-scan of HBT TD-WB97XD pVDZ in CTC Relaxed.
 ------------------------------------------------
 Symbolic Z-matrix:
 Charge =  0 Multiplicity = 1
 C                     1.64996  -3.25532  -0.00002 
 C                     1.01065  -2.01551  -0.00002 
 C                     1.74278  -0.8036   -0.00002 
 C                     3.1322   -0.83922  -0.00002 
 C                     3.76812  -2.08055  -0.00002 
 C                     3.04373  -3.27581  -0.00002 
 H                     1.07236  -4.18081  -0.00002 
 H                     3.70668   0.08768  -0.00003 
 H                     4.85866  -2.11251  -0.00002 
 H                     3.56937  -4.23124  -0.00002 
 N                     0.9141    0.31589  -0.00002 
 S                    -0.7243   -1.71729  -0.00002 
 C                    -1.3847    1.04231   0.00001 
 C                    -2.73976   0.81161   0. 
 C                    -0.85794   2.43614   0.00003 
 C                    -3.65381   1.9064    0.00003 
 H                    -3.13753  -0.20648  -0.00002 
 C                    -1.83007   3.4889    0.00005 
 C                    -3.20195   3.22207   0.00005 
 H                    -4.72398   1.69307   0.00003 
 H                    -1.43613   4.50641   0.00008 
 H                    -3.91933   4.04311   0.00007 
 C                    -0.40746  -0.00298  -0.00002 
 O                     0.37383   2.64564   0.00004 
 H                     1.11783   0.9483   -0.00001 
 
 Initializing the GIC definitions file.
 Number of initial coordinates =   134
 Number of input entries/lines =    53
 Number of additional coordinates =     2
 Number of removed coordinates =     0
 Number of frozen coordinates =     3
 Number of final active and frozen coordinates =   136
 ITRead=  0  0  0  0  0  0  0  0  0  0  0  0  0  0  0  0  0  0  0  0
 ITRead=  0  0  0  0  0
 MicOpt= -1 -1 -1 -1 -1 -1 -1 -1 -1 -1 -1 -1 -1 -1 -1 -1 -1 -1 -1 -1
 MicOpt= -1 -1 -1 -1 -1
 NAtoms=     25 NQM=       25 NQMF=       0 NMMI=      0 NMMIF=      0
                NMic=       0 NMicF=      0.
                    Isotopes and Nuclear Properties:
 (Nuclear quadrupole moments (NQMom) in fm**2, nuclear magnetic moments (NMagM)
  in nuclear magnetons)

  Atom         1           2           3           4           5           6           7           8           9          10
 IAtWgt=          12          12          12          12          12          12           1           1           1           1
 AtmWgt=  12.0000000  12.0000000  12.0000000  12.0000000  12.0000000  12.0000000   1.0078250   1.0078250   1.0078250   1.0078250
 NucSpn=           0           0           0           0           0           0           1           1           1           1
 AtZEff=  -0.0000000  -0.0000000  -0.0000000  -0.0000000  -0.0000000  -0.0000000  -0.0000000  -0.0000000  -0.0000000  -0.0000000
 NQMom=    0.0000000   0.0000000   0.0000000   0.0000000   0.0000000   0.0000000   0.0000000   0.0000000   0.0000000   0.0000000
 NMagM=    0.0000000   0.0000000   0.0000000   0.0000000   0.0000000   0.0000000   2.7928460   2.7928460   2.7928460   2.7928460
 AtZNuc=   6.0000000   6.0000000   6.0000000   6.0000000   6.0000000   6.0000000   1.0000000   1.0000000   1.0000000   1.0000000

  Atom        11          12          13          14          15          16          17          18          19          20
 IAtWgt=          14          32          12          12          12          12           1          12          12           1
 AtmWgt=  14.0030740  31.9720718  12.0000000  12.0000000  12.0000000  12.0000000   1.0078250  12.0000000  12.0000000   1.0078250
 NucSpn=           2           0           0           0           0           0           1           0           0           1
 AtZEff=  -0.0000000  -0.0000000  -0.0000000  -0.0000000  -0.0000000  -0.0000000  -0.0000000  -0.0000000  -0.0000000  -0.0000000
 NQMom=    2.0440000   0.0000000   0.0000000   0.0000000   0.0000000   0.0000000   0.0000000   0.0000000   0.0000000   0.0000000
 NMagM=    0.4037610   0.0000000   0.0000000   0.0000000   0.0000000   0.0000000   2.7928460   0.0000000   0.0000000   2.7928460
 AtZNuc=   7.0000000  16.0000000   6.0000000   6.0000000   6.0000000   6.0000000   1.0000000   6.0000000   6.0000000   1.0000000

  Atom        21          22          23          24          25
 IAtWgt=           1           1          12          16           1
 AtmWgt=   1.0078250   1.0078250  12.0000000  15.9949146   1.0078250
 NucSpn=           1           1           0           0           1
 AtZEff=  -0.0000000  -0.0000000  -0.0000000  -0.0000000  -0.0000000
 NQMom=    0.0000000   0.0000000   0.0000000   0.0000000   0.0000000
 NMagM=    2.7928460   2.7928460   0.0000000   0.0000000   2.7928460
 AtZNuc=   1.0000000   1.0000000   6.0000000   8.0000000   1.0000000
 Leave Link  101 at Tue Jul 14 10:58:29 2020, MaxMem=  7784628224 cpu:              32.0 elap:               3.2
 (Enter /gpfs/loomis/apps/avx/software/Gaussian/16-C.01_AVX/g16/l103.exe)

 GradGradGradGradGradGradGradGradGradGradGradGradGradGradGradGradGradGrad
 Berny optimization.
 Initialization pass.
                           ----------------------------
                           !    Initial Parameters    !
                           ! (Angstroms and Degrees)  !
 --------------------------                            --------------------------
 ! Name  Definition              Value          Derivative Info.                !
 --------------------------------------------------------------------------------
 ! R1    R(1,2)                  1.3949         estimate D2E/DX2                !
 ! R2    R(1,6)                  1.3939         estimate D2E/DX2                !
 ! R3    R(1,7)                  1.0909         estimate D2E/DX2                !
 ! R4    R(2,3)                  1.4159         estimate D2E/DX2                !
 ! R5    R(2,12)                 1.7604         estimate D2E/DX2                !
 ! R6    R(3,4)                  1.3899         estimate D2E/DX2                !
 ! R7    R(3,11)                 1.3928         estimate D2E/DX2                !
 ! R8    R(4,5)                  1.3947         estimate D2E/DX2                !
 ! R9    R(4,8)                  1.0905         estimate D2E/DX2                !
 ! R10   R(5,6)                  1.3976         estimate D2E/DX2                !
 ! R11   R(5,9)                  1.091          estimate D2E/DX2                !
 ! R12   R(6,10)                 1.0905         estimate D2E/DX2                !
 ! R13   R(11,23)                1.3595         estimate D2E/DX2                !
 ! R14   R(11,25)                0.6644         estimate D2E/DX2                !
 ! R15   R(12,23)                1.7433         estimate D2E/DX2                !
 ! R16   R(13,14)                1.3746         estimate D2E/DX2                !
 ! R17   R(13,15)                1.49           estimate D2E/DX2                !
 ! R18   R(13,23)                1.431          estimate D2E/DX2                !
 ! R19   R(14,16)                1.4262         estimate D2E/DX2                !
 ! R20   R(14,17)                1.093          estimate D2E/DX2                !
 ! R21   R(15,18)                1.4329         estimate D2E/DX2                !
 ! R22   R(15,24)                1.2495         estimate D2E/DX2                !
 ! R23   R(16,19)                1.3911         estimate D2E/DX2                !
 ! R24   R(16,20)                1.0912         estimate D2E/DX2                !
 ! R25   R(18,19)                1.3976         estimate D2E/DX2                !
 ! R26   R(18,21)                1.0911         estimate D2E/DX2                !
 ! R27   R(19,22)                1.0903         estimate D2E/DX2                !
 ! A1    A(2,1,6)              118.1204         estimate D2E/DX2                !
 ! A2    A(2,1,7)              120.7536         estimate D2E/DX2                !
 ! A3    A(6,1,7)              121.126          estimate D2E/DX2                !
 ! A4    A(1,2,3)              121.5851         estimate D2E/DX2                !
 ! A5    A(1,2,12)             127.0312         estimate D2E/DX2                !
 ! A6    A(3,2,12)             111.3837         estimate D2E/DX2                !
 ! A7    A(2,3,4)              119.6685         estimate D2E/DX2                !
 ! A8    A(2,3,11)             112.3533         estimate D2E/DX2                !
 ! A9    A(4,3,11)             127.9782         estimate D2E/DX2                !
 ! A10   A(3,4,5)              118.5934         estimate D2E/DX2                !
 ! A11   A(3,4,8)              120.3219         estimate D2E/DX2                !
 ! A12   A(5,4,8)              121.0846         estimate D2E/DX2                !
 ! A13   A(4,5,6)              121.6569         estimate D2E/DX2                !
 ! A14   A(4,5,9)              118.8033         estimate D2E/DX2                !
 ! A15   A(6,5,9)              119.5398         estimate D2E/DX2                !
 ! A16   A(1,6,5)              120.3757         estimate D2E/DX2                !
 ! A17   A(1,6,10)             119.66           estimate D2E/DX2                !
 ! A18   A(5,6,10)             119.9643         estimate D2E/DX2                !
 ! A19   A(3,11,23)            112.9446         estimate D2E/DX2                !
 ! A20   A(3,11,25)            125.6341         estimate D2E/DX2                !
 ! A21   A(23,11,25)           121.4213         estimate D2E/DX2                !
 ! A22   A(2,12,23)             89.2819         estimate D2E/DX2                !
 ! A23   A(14,13,15)           120.365          estimate D2E/DX2                !
 ! A24   A(14,13,23)           123.4108         estimate D2E/DX2                !
 ! A25   A(15,13,23)           116.2242         estimate D2E/DX2                !
 ! A26   A(13,14,16)           120.1967         estimate D2E/DX2                !
 ! A27   A(13,14,17)           121.003          estimate D2E/DX2                !
 ! A28   A(16,14,17)           118.8003         estimate D2E/DX2                !
 ! A29   A(13,15,18)           116.5774         estimate D2E/DX2                !
 ! A30   A(13,15,24)           120.3555         estimate D2E/DX2                !
 ! A31   A(18,15,24)           123.0672         estimate D2E/DX2                !
 ! A32   A(14,16,19)           121.1866         estimate D2E/DX2                !
 ! A33   A(14,16,20)           118.5851         estimate D2E/DX2                !
 ! A34   A(19,16,20)           120.2283         estimate D2E/DX2                !
 ! A35   A(15,18,19)           121.7134         estimate D2E/DX2                !
 ! A36   A(15,18,21)           116.1159         estimate D2E/DX2                !
 ! A37   A(19,18,21)           122.1707         estimate D2E/DX2                !
 ! A38   A(16,19,18)           119.961          estimate D2E/DX2                !
 ! A39   A(16,19,22)           119.9001         estimate D2E/DX2                !
 ! A40   A(18,19,22)           120.1389         estimate D2E/DX2                !
 ! A41   A(11,23,12)           114.0365         estimate D2E/DX2                !
 ! A42   A(11,23,13)           119.5076         estimate D2E/DX2                !
 ! A43   A(12,23,13)           126.4559         estimate D2E/DX2                !
 ! D1    D(6,1,2,3)              0.0            estimate D2E/DX2                !
 ! D2    D(6,1,2,12)          -180.0            estimate D2E/DX2                !
 ! D3    D(7,1,2,3)            179.9999         estimate D2E/DX2                !
 ! D4    D(7,1,2,12)             0.0            estimate D2E/DX2                !
 ! D5    D(2,1,6,5)             -0.0001         estimate D2E/DX2                !
 ! D6    D(2,1,6,10)           179.9999         estimate D2E/DX2                !
 ! D7    D(7,1,6,5)           -180.0            estimate D2E/DX2                !
 ! D8    D(7,1,6,10)             0.0            estimate D2E/DX2                !
 ! D9    D(1,2,3,4)              0.0001         estimate D2E/DX2                !
 ! D10   D(1,2,3,11)           180.0            estimate D2E/DX2                !
 ! D11   D(12,2,3,4)          -179.9999         estimate D2E/DX2                !
 ! D12   D(12,2,3,11)           -0.0001         estimate D2E/DX2                !
 ! D13   D(1,2,12,23)          179.9998         estimate D2E/DX2                !
 ! D14   D(3,2,12,23)           -0.0001         estimate D2E/DX2                !
 ! D15   D(2,3,4,5)             -0.0001         estimate D2E/DX2                !
 ! D16   D(2,3,4,8)            179.9999         estimate D2E/DX2                !
 ! D17   D(11,3,4,5)          -180.0            estimate D2E/DX2                !
 ! D18   D(11,3,4,8)             0.0001         estimate D2E/DX2                !
 ! D19   D(2,3,11,23)            0.0003         estimate D2E/DX2                !
 ! D20   D(2,3,11,25)          179.9983         estimate D2E/DX2                !
 ! D21   D(4,3,11,23)         -179.9999         estimate D2E/DX2                !
 ! D22   D(4,3,11,25)           -0.0018         estimate D2E/DX2                !
 ! D23   D(3,4,5,6)              0.0            estimate D2E/DX2                !
 ! D24   D(3,4,5,9)           -179.9999         estimate D2E/DX2                !
 ! D25   D(8,4,5,6)            180.0            estimate D2E/DX2                !
 ! D26   D(8,4,5,9)              0.0            estimate D2E/DX2                !
 ! D27   D(4,5,6,1)              0.0001         estimate D2E/DX2                !
 ! D28   D(4,5,6,10)          -180.0            estimate D2E/DX2                !
 ! D29   D(9,5,6,1)           -180.0            estimate D2E/DX2                !
 ! D30   D(9,5,6,10)             0.0            estimate D2E/DX2                !
 ! D31   D(3,11,23,12)          -0.0004         estimate D2E/DX2                !
 ! D32   D(3,11,23,13)         179.9989         estimate D2E/DX2                !
 ! D33   D(25,11,23,12)       -179.9985         estimate D2E/DX2                !
 ! D34   D(25,11,23,13)          0.0008         estimate D2E/DX2                !
 ! D35   D(2,12,23,11)           0.0003         estimate D2E/DX2                !
 ! D36   D(2,12,23,13)        -179.999          estimate D2E/DX2                !
 ! D37   D(15,13,14,16)          0.0001         estimate D2E/DX2                !
 ! D38   D(15,13,14,17)       -180.0            estimate D2E/DX2                !
 ! D39   D(23,13,14,16)       -180.0            estimate D2E/DX2                !
 ! D40   D(23,13,14,17)         -0.0001         estimate D2E/DX2                !
 ! D41   D(14,13,15,18)         -0.0002         estimate D2E/DX2                !
 ! D42   D(14,13,15,24)        179.9996         estimate D2E/DX2                !
 ! D43   D(23,13,15,18)        179.9998         estimate D2E/DX2                !
 ! D44   D(23,13,15,24)         -0.0003         estimate D2E/DX2                !
 ! D45   D(14,13,23,11)        179.9996         estimate D2E/DX2                !
 ! D46   D(14,13,23,12)         -0.0012         estimate D2E/DX2                !
 ! Atot  D(15,13,23,11)         -0.0005         Frozen                          !
 ! D48   D(15,13,23,12)        179.9987         estimate D2E/DX2                !
 ! D49   D(13,14,16,19)          0.0            estimate D2E/DX2                !
 ! D50   D(13,14,16,20)        180.0            estimate D2E/DX2                !
 ! D51   D(17,14,16,19)       -179.9999         estimate D2E/DX2                !
 ! D52   D(17,14,16,20)          0.0001         estimate D2E/DX2                !
 ! D53   D(13,15,18,19)          0.0002         estimate D2E/DX2                !
 ! D54   D(13,15,18,21)        179.9999         estimate D2E/DX2                !
 ! D55   D(24,15,18,19)       -179.9996         estimate D2E/DX2                !
 ! D56   D(24,15,18,21)          0.0            estimate D2E/DX2                !
 ! D57   D(14,16,19,18)          0.0            estimate D2E/DX2                !
 ! D58   D(14,16,19,22)       -180.0            estimate D2E/DX2                !
 ! D59   D(20,16,19,18)        180.0            estimate D2E/DX2                !
 ! D60   D(20,16,19,22)          0.0            estimate D2E/DX2                !
 ! D61   D(15,18,19,16)         -0.0001         estimate D2E/DX2                !
 ! D62   D(15,18,19,22)        179.9999         estimate D2E/DX2                !
 ! D63   D(21,18,19,16)       -179.9997         estimate D2E/DX2                !
 ! D64   D(21,18,19,22)          0.0002         estimate D2E/DX2                !
 ! Qtot  GIC-1                  60.0            Frozen                          !
 ! Ptot  GIC-2                  20.0            Frozen                          !
 --------------------------------------------------------------------------------
 NOTE: GIC-type coordinates are in arbitrary units.
 Trust Radius=3.00D-01 FncErr=5.00D-06 GrdErr=5.00D-06 EigMax=2.50D+02 EigMin=1.00D-04
 Number of steps in this run=    146 maximum allowed number of steps=    150.
 GradGradGradGradGradGradGradGradGradGradGradGradGradGradGradGradGradGrad

 Leave Link  103 at Tue Jul 14 10:58:29 2020, MaxMem=  7784628224 cpu:               0.2 elap:               0.0
 (Enter /gpfs/loomis/apps/avx/software/Gaussian/16-C.01_AVX/g16/l202.exe)
                          Input orientation:                          
 ---------------------------------------------------------------------
 Center     Atomic      Atomic             Coordinates (Angstroms)
 Number     Number       Type             X           Y           Z
 ---------------------------------------------------------------------
      1          6           0        1.649963   -3.255317   -0.000021
      2          6           0        1.010650   -2.015510   -0.000022
      3          6           0        1.742782   -0.803601   -0.000022
      4          6           0        3.132204   -0.839216   -0.000024
      5          6           0        3.768115   -2.080553   -0.000023
      6          6           0        3.043730   -3.275809   -0.000021
      7          1           0        1.072365   -4.180807   -0.000020
      8          1           0        3.706684    0.087678   -0.000025
      9          1           0        4.858665   -2.112505   -0.000023
     10          1           0        3.569370   -4.231244   -0.000020
     11          7           0        0.914103    0.315891   -0.000023
     12         16           0       -0.724296   -1.717295   -0.000021
     13          6           0       -1.384703    1.042315    0.000005
     14          6           0       -2.739760    0.811612    0.000004
     15          6           0       -0.857940    2.436139    0.000033
     16          6           0       -3.653809    1.906400    0.000027
     17          1           0       -3.137534   -0.206478   -0.000015
     18          6           0       -1.830071    3.488899    0.000053
     19          6           0       -3.201951    3.222074    0.000050
     20          1           0       -4.723978    1.693070    0.000025
     21          1           0       -1.436133    4.506411    0.000075
     22          1           0       -3.919330    4.043111    0.000068
     23          6           0       -0.407458   -0.002982   -0.000017
     24          8           0        0.373828    2.645640    0.000041
     25          1           0        1.117829    0.948299   -0.000007
 ---------------------------------------------------------------------
                    Distance matrix (angstroms):
                    1          2          3          4          5
     1  C    0.000000
     2  C    1.394935   0.000000
     3  C    2.453472   1.415888   0.000000
     4  C    2.834534   2.425831   1.389879   0.000000
     5  C    2.422114   2.758232   2.394281   1.394741   0.000000
     6  C    1.393918   2.392022   2.793613   2.438199   1.397630
     7  H    1.090941   2.166176   3.443106   3.925452   3.417329
     8  H    3.925012   3.419356   2.156685   1.090486   2.169101
     9  H    3.406139   3.849237   3.379638   2.145212   1.091018
    10  H    2.153267   3.384749   3.883962   3.420084   2.159854
    11  N    3.646233   2.333399   1.392829   2.500849   3.726705
    12  S    2.828890   1.760389   2.630838   3.955201   4.507074
    13  C    5.261068   3.884328   3.631607   4.893118   6.025267
    14  C    5.984111   4.696615   4.764672   6.099606   7.121592
    15  C    6.219506   4.827920   4.154476   5.162287   6.465362
    16  C    7.400900   6.094141   6.038816   7.320408   8.425008
    17  H    5.675874   4.525486   4.916710   6.301585   7.155428
    18  C    7.589143   6.194208   5.584876   6.584584   7.896739
    19  C    8.093063   6.721480   6.376241   7.524334   8.757836
    20  H    8.069304   6.829314   6.931980   8.254215   9.292787
    21  H    8.352748   6.965787   6.188839   7.031744   8.394778
    22  H    9.180636   7.810992   7.453196   8.576786   9.828331
    23  C    3.848463   2.461971   2.294455   3.637100   4.663874
    24  O    6.037368   4.704451   3.710970   4.444419   5.818770
    25  H    4.237163   2.965745   1.860032   2.693124   4.024669
                    6          7          8          9         10
     6  C    0.000000
     7  H    2.169171   0.000000
     8  H    3.428199   5.015935   0.000000
     9  H    2.155751   4.314388   2.483519   0.000000
    10  H    1.090484   2.497515   4.321105   2.480189   0.000000
    11  N    4.175598   4.499482   2.801891   4.632135   5.265632
    12  S    4.077620   3.049079   4.784507   5.596932   4.975491
    13  C    6.185241   5.772190   5.180111   6.995179   7.235556
    14  C    7.082074   6.281444   6.486966   8.141654   8.076851
    15  C    6.917325   6.892754   5.133329   7.305460   8.003442
    16  C    8.468313   7.706543   7.581860   9.413491   9.478660
    17  H    6.901363   5.789519   6.850536   8.220227   7.821847
    18  C    8.337578   8.200519   6.497997   8.724386   9.420965
    19  C    9.012825   8.548241   7.586415   9.665985  10.069893
    20  H    9.221011   8.252274   8.582153  10.310647  10.192013
    21  H    8.979538   9.042141   6.780396   9.134250  10.069840
    22  H   10.102020   9.620283   8.590783  10.721232  11.160000
    23  C    4.756270   4.432166   4.115141   5.672931   5.804599
    24  O    6.495532   6.862094   4.201321   6.538632   7.583075
    25  H    4.642432   5.129307   2.728157   4.833464   5.730421
                   11         12         13         14         15
    11  N    0.000000
    12  S    2.611167   0.000000
    13  C    2.410850   2.837531   0.000000
    14  C    3.687337   3.233801   1.374556   0.000000
    15  C    2.763257   4.155583   1.490042   2.486028   0.000000
    16  C    4.836893   4.659744   2.428062   1.426200   2.845611
    17  H    4.085172   2.847153   2.152185   1.093038   3.489982
    18  C    4.195053   5.322329   2.486790   2.827614   1.432948
    19  C    5.038631   5.525952   2.837912   2.454373   2.472263
    20  H    5.803842   5.256239   3.402094   2.171195   3.936801
    21  H    4.804588   6.264281   3.464478   3.918033   2.149495
    22  H    6.103626   6.587148   3.927991   3.440054   3.457523
    23  C    1.359486   1.743346   1.430962   2.470465   2.480372
    24  O    2.391574   4.499008   2.379724   3.613598   1.249458
    25  H    0.664413   3.240187   2.504297   3.860010   2.473324
                   16         17         18         19         20
    16  C    0.000000
    17  H    2.175039   0.000000
    18  C    2.414606   3.919856   0.000000
    19  C    1.391105   3.429158   1.397588   0.000000
    20  H    1.091225   2.474892   3.405833   2.157410   0.000000
    21  H    3.417330   5.010597   1.091108   2.183492   4.327218
    22  H    2.153145   4.320904   2.161517   1.090291   2.483979
    23  C    3.766236   2.737649   3.770551   4.267338   4.637773
    24  O    4.094916   4.523742   2.359716   3.621944   5.186041
    25  H    4.866876   4.409265   3.891627   4.881655   5.889091
                   21         22         23         24         25
    21  H    0.000000
    22  H    2.526048   0.000000
    23  C    4.625234   5.357622   0.000000
    24  O    2.595848   4.514880   2.761450   0.000000
    25  H    4.379827   5.911923   1.797619   1.853242   0.000000
 Symmetry turned off by external request.
 Stoichiometry    C13H9NOS
 Framework group  C1[X(C13H9NOS)]
 Deg. of freedom    69
 Full point group                 C1      NOp   1
 Rotational constants (GHZ):           1.3972879           0.2858936           0.2373337
 Leave Link  202 at Tue Jul 14 10:58:29 2020, MaxMem=  7784628224 cpu:               0.2 elap:               0.0
 (Enter /gpfs/loomis/apps/avx/software/Gaussian/16-C.01_AVX/g16/l301.exe)
 Standard basis: CC-pVDZ (5D, 7F)
 Ernie: Thresh=  0.10000D-02 Tol=  0.10000D-05 Strict=F.
 Ernie:  40 primitive shells out of 425 were deleted.
   273 basis functions,   629 primitive gaussians,   289 cartesian basis functions
    59 alpha electrons       59 beta electrons
       nuclear repulsion energy      1102.3153365149 Hartrees.
 IExCor= 4639 DFT=T Ex+Corr=wB97XD ExCW=0 ScaHFX=  1.000000
 ScaDFX=  1.000000  1.000000  1.000000  1.000000 ScalE2=  1.000000  1.000000
 IRadAn=      5 IRanWt=     -1 IRanGd=            0 ICorTp=0 IEmpDi=121
 HFx  wShort=  0.000000 wLong=  0.200000 cFull=  0.222036 cShort=  0.000000 cLong=  0.777964
 DFx  wShort=  0.000000 wLong=  0.200000 cFull=  0.000000 cShort=  0.000000 cLong=  1.000000
 NAtoms=   25 NActive=   25 NUniq=   25 SFac= 1.00D+00 NAtFMM=   60 NAOKFM=F Big=F
 Integral buffers will be    131072 words long.
 Raffenetti 1 integral format.
 Two-electron integral symmetry is turned off.
 R6Disp:  Grimme-D2 Dispersion energy=       -0.0141374991 Hartrees.
 Nuclear repulsion after empirical dispersion term =     1102.3011990158 Hartrees.
 ------------------------------------------------------------------------------
 Polarizable Continuum Model (PCM)
 =================================
 Model                : PCM.
 Atomic radii         : UFF (Universal Force Field).
 Polarization charges : Total charges.
 Charge compensation  : None.
 Solution method      : On-the-fly selection.
 Cavity type          : Scaled VdW (van der Waals Surface) (Alpha=1.100).
 Cavity algorithm     : GePol (No added spheres)
                        Default sphere list used, NSphG=   25.
                        Lebedev-Laikov grids with approx.  5.0 points / Ang**2.
                        Smoothing algorithm: York/Karplus (Gamma=1.0000).
                        Polarization charges: spherical gaussians, with
                                              point-specific exponents (IZeta= 3).
                        Self-potential: point-specific (ISelfS= 7).
                        Self-field    : sphere-specific E.n sum rule (ISelfD= 2).
 1st derivatives      : Analytical E(r).r(x)/FMM algorithm (CHGder, D1EAlg=3).
                        Cavity 1st derivative terms included.
 Solvent              : CarbonTetraChloride, Eps=   2.228000 Eps(inf)=   2.131892
 ------------------------------------------------------------------------------
 GePol: Number of generator spheres                  =      25
 GePol: Total number of spheres                      =      25
 GePol: Number of exposed spheres                    =      25 (100.00%)
 GePol: Number of points                             =    2181
 GePol: Average weight of points                     =       0.13
 GePol: Minimum weight of points                     =   0.14D-09
 GePol: Maximum weight of points                     =    0.20577
 GePol: Number of points with low weight             =     123
 GePol: Fraction of low-weight points (<1% of avg)   =       5.64%
 GePol: Cavity surface area                          =    273.142 Ang**2
 GePol: Cavity volume                                =    292.232 Ang**3
 Leave Link  301 at Tue Jul 14 10:58:29 2020, MaxMem=  7784628224 cpu:               0.8 elap:               0.1
 (Enter /gpfs/loomis/apps/avx/software/Gaussian/16-C.01_AVX/g16/l302.exe)
 NPDir=0 NMtPBC=     1 NCelOv=     1 NCel=       1 NClECP=     1 NCelD=      1
         NCelK=      1 NCelE2=     1 NClLst=     1 CellRange=     0.0.
 One-electron integrals computed using PRISM.
 NBasis=   273 RedAO= T EigKep=  2.98D-04  NBF=   273
 NBsUse=   273 1.00D-06 EigRej= -1.00D+00 NBFU=   273
 Precomputing XC quadrature grid using
 IXCGrd= 4 IRadAn=           5 IRanWt=          -1 IRanGd=           0 AccXCQ= 0.00D+00.
 Generated NRdTot=       0 NPtTot=           0 NUsed=           0 NTot=          32
 NSgBfM=   288   288   288   288   288 MxSgAt=    25 MxSgA2=    25.
 Leave Link  302 at Tue Jul 14 10:58:29 2020, MaxMem=  7784628224 cpu:               2.8 elap:               0.3
 (Enter /gpfs/loomis/apps/avx/software/Gaussian/16-C.01_AVX/g16/l303.exe)
 DipDrv:  MaxL=1.
 Leave Link  303 at Tue Jul 14 10:58:29 2020, MaxMem=  7784628224 cpu:               0.7 elap:               0.1
 (Enter /gpfs/loomis/apps/avx/software/Gaussian/16-C.01_AVX/g16/l308.exe)
 Leave Link  308 at Tue Jul 14 10:58:29 2020, MaxMem=  7784628224 cpu:               0.8 elap:               0.1
 (Enter /gpfs/loomis/apps/avx/software/Gaussian/16-C.01_AVX/g16/l401.exe)
 ExpMin= 1.22D-01 ExpMax= 1.11D+05 ExpMxC= 1.07D+03 IAcc=3 IRadAn=         5 AccDes= 0.00D+00
 Harris functional with IExCor= 4639 and IRadAn=       5 diagonalized for initial guess.
 HarFok:  IExCor= 4639 AccDes= 0.00D+00 IRadAn=         5 IDoV= 1 UseB2=F ITyADJ=14
 ICtDFT=  3500011 ScaDFX=  1.000000  1.000000  1.000000  1.000000
 FoFCou: FMM=F IPFlag=           0 FMFlag=      100000 FMFlg1=           0
         NFxFlg=           0 DoJE=T BraDBF=F KetDBF=T FulRan=T
         wScrn=  0.000000 ICntrl=       500 IOpCl=  0 I1Cent=   200000004 NGrid=           0
         NMat0=    1 NMatS0=      1 NMatT0=    0 NMatD0=    1 NMtDS0=    0 NMtDT0=    0
 Symmetry not used in FoFCou.
 Harris En= -994.190944435362    
 JPrj=0 DoOrth=F DoCkMO=F.
 Leave Link  401 at Tue Jul 14 10:58:31 2020, MaxMem=  7784628224 cpu:              13.9 elap:               1.4
 (Enter /gpfs/loomis/apps/avx/software/Gaussian/16-C.01_AVX/g16/l502.exe)
 Two-electron integral symmetry not used.
 Closed shell SCF:
 Using DIIS extrapolation, IDIIS=  1040.
 NGot=  7784628224 LenX=  7784455381 LenY=  7784371419
 Requested convergence on RMS density matrix=1.00D-08 within 128 cycles.
 Requested convergence on MAX density matrix=1.00D-06.
 Requested convergence on             energy=1.00D-06.
 No special actions if energy rises.
 Fock matrices will be formed incrementally for  20 cycles.

 Cycle   1  Pass 1  IDiag  1:
 FoFJK:  IHMeth= 1 ICntrl=       0 DoSepK=T KAlg= 0 I1Cent=           0 FoldK=F
 IRaf=         1 NMat=       1 IRICut=       1 DoRegI=T DoRafI=F ISym2E= 0 IDoP0=0 IntGTp=1.
 FoFCou: FMM=F IPFlag=           0 FMFlag=      100000 FMFlg1=           0
         NFxFlg=           0 DoJE=T BraDBF=F KetDBF=F FulRan=T
         wScrn=  0.000000 ICntrl=       500 IOpCl=  0 I1Cent=           0 NGrid=           0
         NMat0=    1 NMatS0=      1 NMatT0=    0 NMatD0=    1 NMtDS0=    0 NMtDT0=    0
 Symmetry not used in FoFCou.
 Inv3:  Mode=1 IEnd=    14270283.
 Iteration    1 A*A^-1 deviation from unit magnitude is 5.55D-15 for   2179.
 Iteration    1 A*A^-1 deviation from orthogonality  is 2.27D-15 for   2174    130.
 Iteration    1 A^-1*A deviation from unit magnitude is 5.77D-15 for   2179.
 Iteration    1 A^-1*A deviation from orthogonality  is 1.77D-15 for   2170   2106.
 E= -1028.29200622379    
 DIIS: error= 4.27D-02 at cycle   1 NSaved=   1.
 NSaved= 1 IEnMin= 1 EnMin= -1028.29200622379     IErMin= 1 ErrMin= 4.27D-02
 ErrMax= 4.27D-02  0.00D+00 EMaxC= 1.00D-01 BMatC= 4.03D-01 BMatP= 4.03D-01
 IDIUse=3 WtCom= 5.73D-01 WtEn= 4.27D-01
 Coeff-Com:  0.100D+01
 Coeff-En:   0.100D+01
 Coeff:      0.100D+01
 Gap=     0.294 Goal=   None    Shift=    0.000
 GapD=    0.294 DampG=1.000 DampE=0.500 DampFc=0.5000 IDamp=-1.
 Damping current iteration by 5.00D-01
 RMSDP=3.76D-03 MaxDP=2.61D-01              OVMax= 2.14D-01

 Cycle   2  Pass 1  IDiag  1:
 RMSU=  1.88D-03    CP:  9.94D-01
 E= -1028.41935275839     Delta-E=       -0.127346534601 Rises=F Damp=T
 DIIS: error= 1.11D-02 at cycle   2 NSaved=   2.
 NSaved= 2 IEnMin= 2 EnMin= -1028.41935275839     IErMin= 2 ErrMin= 1.11D-02
 ErrMax= 1.11D-02  0.00D+00 EMaxC= 1.00D-01 BMatC= 5.81D-02 BMatP= 4.03D-01
 IDIUse=3 WtCom= 8.89D-01 WtEn= 1.11D-01
 Coeff-Com: -0.273D+00 0.127D+01
 Coeff-En:   0.000D+00 0.100D+01
 Coeff:     -0.242D+00 0.124D+01
 Gap=     0.365 Goal=   None    Shift=    0.000
 RMSDP=1.18D-03 MaxDP=3.10D-02 DE=-1.27D-01 OVMax= 1.48D-01

 Cycle   3  Pass 1  IDiag  1:
 RMSU=  1.14D-03    CP:  9.91D-01  1.16D+00
 E= -1028.53586936598     Delta-E=       -0.116516607587 Rises=F Damp=F
 DIIS: error= 5.69D-03 at cycle   3 NSaved=   3.
 NSaved= 3 IEnMin= 3 EnMin= -1028.53586936598     IErMin= 3 ErrMin= 5.69D-03
 ErrMax= 5.69D-03  0.00D+00 EMaxC= 1.00D-01 BMatC= 1.46D-02 BMatP= 5.81D-02
 IDIUse=3 WtCom= 9.43D-01 WtEn= 5.69D-02
 Coeff-Com: -0.195D+00 0.479D+00 0.716D+00
 Coeff-En:   0.000D+00 0.000D+00 0.100D+01
 Coeff:     -0.184D+00 0.452D+00 0.732D+00
 Gap=     0.230 Goal=   None    Shift=    0.000
 RMSDP=5.23D-04 MaxDP=2.26D-02 DE=-1.17D-01 OVMax= 4.73D-02

 Cycle   4  Pass 1  IDiag  1:
 RMSU=  4.15D-04    CP:  9.89D-01  1.31D+00  8.79D-01
 E= -1028.55028823862     Delta-E=       -0.014418872639 Rises=F Damp=F
 DIIS: error= 1.91D-03 at cycle   4 NSaved=   4.
 NSaved= 4 IEnMin= 4 EnMin= -1028.55028823862     IErMin= 4 ErrMin= 1.91D-03
 ErrMax= 1.91D-03  0.00D+00 EMaxC= 1.00D-01 BMatC= 1.73D-03 BMatP= 1.46D-02
 IDIUse=3 WtCom= 9.81D-01 WtEn= 1.91D-02
 Coeff-Com: -0.692D-01 0.137D+00 0.338D+00 0.595D+00
 Coeff-En:   0.000D+00 0.000D+00 0.000D+00 0.100D+01
 Coeff:     -0.679D-01 0.134D+00 0.331D+00 0.603D+00
 Gap=     0.234 Goal=   None    Shift=    0.000
 RMSDP=1.64D-04 MaxDP=8.76D-03 DE=-1.44D-02 OVMax= 1.25D-02

 Cycle   5  Pass 1  IDiag  1:
 RMSU=  1.14D-04    CP:  9.89D-01  1.32D+00  9.44D-01  7.83D-01
 E= -1028.55218370653     Delta-E=       -0.001895467916 Rises=F Damp=F
 DIIS: error= 6.42D-04 at cycle   5 NSaved=   5.
 NSaved= 5 IEnMin= 5 EnMin= -1028.55218370653     IErMin= 5 ErrMin= 6.42D-04
 ErrMax= 6.42D-04  0.00D+00 EMaxC= 1.00D-01 BMatC= 6.32D-05 BMatP= 1.73D-03
 IDIUse=3 WtCom= 9.94D-01 WtEn= 6.42D-03
 Coeff-Com:  0.636D-04-0.654D-02 0.230D-01 0.156D+00 0.827D+00
 Coeff-En:   0.000D+00 0.000D+00 0.000D+00 0.000D+00 0.100D+01
 Coeff:      0.632D-04-0.650D-02 0.228D-01 0.155D+00 0.828D+00
 Gap=     0.235 Goal=   None    Shift=    0.000
 RMSDP=6.42D-05 MaxDP=2.12D-03 DE=-1.90D-03 OVMax= 7.57D-03

 Cycle   6  Pass 1  IDiag  1:
 RMSU=  4.13D-05    CP:  9.89D-01  1.32D+00  9.62D-01  8.82D-01  1.15D+00
 E= -1028.55234060539     Delta-E=       -0.000156898853 Rises=F Damp=F
 DIIS: error= 2.72D-04 at cycle   6 NSaved=   6.
 NSaved= 6 IEnMin= 6 EnMin= -1028.55234060539     IErMin= 6 ErrMin= 2.72D-04
 ErrMax= 2.72D-04  0.00D+00 EMaxC= 1.00D-01 BMatC= 1.25D-05 BMatP= 6.32D-05
 IDIUse=3 WtCom= 9.97D-01 WtEn= 2.72D-03
 Coeff-Com:  0.177D-01-0.360D-01-0.714D-01-0.887D-01 0.216D+00 0.963D+00
 Coeff-En:   0.000D+00 0.000D+00 0.000D+00 0.000D+00 0.000D+00 0.100D+01
 Coeff:      0.176D-01-0.359D-01-0.712D-01-0.884D-01 0.215D+00 0.963D+00
 Gap=     0.236 Goal=   None    Shift=    0.000
 RMSDP=4.31D-05 MaxDP=2.12D-03 DE=-1.57D-04 OVMax= 4.99D-03

 Cycle   7  Pass 1  IDiag  1:
 RMSU=  1.99D-05    CP:  9.89D-01  1.32D+00  9.77D-01  9.22D-01  1.38D+00
                    CP:  1.36D+00
 E= -1028.55238801197     Delta-E=       -0.000047406583 Rises=F Damp=F
 DIIS: error= 9.00D-05 at cycle   7 NSaved=   7.
 NSaved= 7 IEnMin= 7 EnMin= -1028.55238801197     IErMin= 7 ErrMin= 9.00D-05
 ErrMax= 9.00D-05  0.00D+00 EMaxC= 1.00D-01 BMatC= 2.33D-06 BMatP= 1.25D-05
 IDIUse=1 WtCom= 1.00D+00 WtEn= 0.00D+00
 Coeff-Com:  0.628D-02-0.117D-01-0.265D-01-0.529D-01-0.284D-01 0.349D+00
 Coeff-Com:  0.765D+00
 Coeff:      0.628D-02-0.117D-01-0.265D-01-0.529D-01-0.284D-01 0.349D+00
 Coeff:      0.765D+00
 Gap=     0.236 Goal=   None    Shift=    0.000
 RMSDP=1.53D-05 MaxDP=5.62D-04 DE=-4.74D-05 OVMax= 1.98D-03

 Cycle   8  Pass 1  IDiag  1:
 RMSU=  8.00D-06    CP:  9.89D-01  1.32D+00  9.78D-01  9.30D-01  1.43D+00
                    CP:  1.60D+00  1.20D+00
 E= -1028.55239499733     Delta-E=       -0.000006985361 Rises=F Damp=F
 DIIS: error= 6.08D-05 at cycle   8 NSaved=   8.
 NSaved= 8 IEnMin= 8 EnMin= -1028.55239499733     IErMin= 8 ErrMin= 6.08D-05
 ErrMax= 6.08D-05  0.00D+00 EMaxC= 1.00D-01 BMatC= 4.51D-07 BMatP= 2.33D-06
 IDIUse=1 WtCom= 1.00D+00 WtEn= 0.00D+00
 Coeff-Com: -0.182D-02 0.390D-02 0.831D-02 0.410D-02-0.371D-01-0.121D+00
 Coeff-Com:  0.212D+00 0.932D+00
 Coeff:     -0.182D-02 0.390D-02 0.831D-02 0.410D-02-0.371D-01-0.121D+00
 Coeff:      0.212D+00 0.932D+00
 Gap=     0.236 Goal=   None    Shift=    0.000
 RMSDP=8.27D-06 MaxDP=2.04D-04 DE=-6.99D-06 OVMax= 1.35D-03

 Cycle   9  Pass 1  IDiag  1:
 RMSU=  3.25D-06    CP:  9.89D-01  1.32D+00  9.78D-01  9.29D-01  1.45D+00
                    CP:  1.71D+00  1.46D+00  1.20D+00
 E= -1028.55239686547     Delta-E=       -0.000001868140 Rises=F Damp=F
 DIIS: error= 1.81D-05 at cycle   9 NSaved=   9.
 NSaved= 9 IEnMin= 9 EnMin= -1028.55239686547     IErMin= 9 ErrMin= 1.81D-05
 ErrMax= 1.81D-05  0.00D+00 EMaxC= 1.00D-01 BMatC= 1.17D-07 BMatP= 4.51D-07
 IDIUse=1 WtCom= 1.00D+00 WtEn= 0.00D+00
 Coeff-Com: -0.150D-02 0.295D-02 0.690D-02 0.853D-02-0.901D-02-0.108D+00
 Coeff-Com: -0.468D-01 0.345D+00 0.802D+00
 Coeff:     -0.150D-02 0.295D-02 0.690D-02 0.853D-02-0.901D-02-0.108D+00
 Coeff:     -0.468D-01 0.345D+00 0.802D+00
 Gap=     0.236 Goal=   None    Shift=    0.000
 RMSDP=4.30D-06 MaxDP=1.51D-04 DE=-1.87D-06 OVMax= 5.85D-04

 Cycle  10  Pass 1  IDiag  1:
 RMSU=  1.70D-06    CP:  9.89D-01  1.32D+00  9.78D-01  9.30D-01  1.47D+00
                    CP:  1.77D+00  1.56D+00  1.46D+00  1.18D+00
 E= -1028.55239725997     Delta-E=       -0.000000394500 Rises=F Damp=F
 DIIS: error= 1.36D-05 at cycle  10 NSaved=  10.
 NSaved=10 IEnMin=10 EnMin= -1028.55239725997     IErMin=10 ErrMin= 1.36D-05
 ErrMax= 1.36D-05  0.00D+00 EMaxC= 1.00D-01 BMatC= 2.43D-08 BMatP= 1.17D-07
 IDIUse=1 WtCom= 1.00D+00 WtEn= 0.00D+00
 Coeff-Com:  0.674D-04-0.207D-03 0.188D-04 0.130D-02 0.888D-02-0.101D-01
 Coeff-Com: -0.718D-01-0.941D-01 0.336D+00 0.830D+00
 Coeff:      0.674D-04-0.207D-03 0.188D-04 0.130D-02 0.888D-02-0.101D-01
 Coeff:     -0.718D-01-0.941D-01 0.336D+00 0.830D+00
 Gap=     0.236 Goal=   None    Shift=    0.000
 RMSDP=1.84D-06 MaxDP=6.05D-05 DE=-3.94D-07 OVMax= 3.44D-04

 Cycle  11  Pass 1  IDiag  1:
 RMSU=  6.38D-07    CP:  9.89D-01  1.32D+00  9.78D-01  9.30D-01  1.47D+00
                    CP:  1.78D+00  1.60D+00  1.55D+00  1.49D+00  1.09D+00
 E= -1028.55239734700     Delta-E=       -0.000000087029 Rises=F Damp=F
 DIIS: error= 4.08D-06 at cycle  11 NSaved=  11.
 NSaved=11 IEnMin=11 EnMin= -1028.55239734700     IErMin=11 ErrMin= 4.08D-06
 ErrMax= 4.08D-06  0.00D+00 EMaxC= 1.00D-01 BMatC= 4.93D-09 BMatP= 2.43D-08
 IDIUse=1 WtCom= 1.00D+00 WtEn= 0.00D+00
 Coeff-Com:  0.265D-03-0.546D-03-0.103D-02-0.946D-03 0.529D-02 0.125D-01
 Coeff-Com: -0.193D-01-0.888D-01-0.278D-01 0.305D+00 0.816D+00
 Coeff:      0.265D-03-0.546D-03-0.103D-02-0.946D-03 0.529D-02 0.125D-01
 Coeff:     -0.193D-01-0.888D-01-0.278D-01 0.305D+00 0.816D+00
 Gap=     0.236 Goal=   None    Shift=    0.000
 RMSDP=8.01D-07 MaxDP=2.56D-05 DE=-8.70D-08 OVMax= 1.19D-04

 Cycle  12  Pass 1  IDiag  1:
 RMSU=  2.60D-07    CP:  9.89D-01  1.32D+00  9.78D-01  9.30D-01  1.47D+00
                    CP:  1.79D+00  1.61D+00  1.60D+00  1.59D+00  1.33D+00
                    CP:  1.14D+00
 E= -1028.55239736091     Delta-E=       -0.000000013915 Rises=F Damp=F
 DIIS: error= 1.68D-06 at cycle  12 NSaved=  12.
 NSaved=12 IEnMin=12 EnMin= -1028.55239736091     IErMin=12 ErrMin= 1.68D-06
 ErrMax= 1.68D-06  0.00D+00 EMaxC= 1.00D-01 BMatC= 6.61D-10 BMatP= 4.93D-09
 IDIUse=1 WtCom= 1.00D+00 WtEn= 0.00D+00
 Coeff-Com:  0.119D-03-0.229D-03-0.513D-03-0.896D-03 0.675D-03 0.805D-02
 Coeff-Com:  0.802D-02-0.163D-01-0.887D-01-0.453D-01 0.287D+00 0.848D+00
 Coeff:      0.119D-03-0.229D-03-0.513D-03-0.896D-03 0.675D-03 0.805D-02
 Coeff:      0.802D-02-0.163D-01-0.887D-01-0.453D-01 0.287D+00 0.848D+00
 Gap=     0.236 Goal=   None    Shift=    0.000
 RMSDP=3.18D-07 MaxDP=8.07D-06 DE=-1.39D-08 OVMax= 5.05D-05

 Cycle  13  Pass 1  IDiag  1:
 RMSU=  9.79D-08    CP:  9.89D-01  1.32D+00  9.78D-01  9.30D-01  1.47D+00
                    CP:  1.79D+00  1.62D+00  1.61D+00  1.64D+00  1.42D+00
                    CP:  1.36D+00  1.06D+00
 E= -1028.55239736318     Delta-E=       -0.000000002270 Rises=F Damp=F
 DIIS: error= 6.34D-07 at cycle  13 NSaved=  13.
 NSaved=13 IEnMin=13 EnMin= -1028.55239736318     IErMin=13 ErrMin= 6.34D-07
 ErrMax= 6.34D-07  0.00D+00 EMaxC= 1.00D-01 BMatC= 7.17D-11 BMatP= 6.61D-10
 IDIUse=1 WtCom= 1.00D+00 WtEn= 0.00D+00
 Coeff-Com: -0.939D-05 0.212D-04 0.362D-04-0.681D-04-0.240D-03 0.257D-03
 Coeff-Com:  0.318D-02 0.615D-02-0.144D-01-0.369D-01-0.559D-01 0.188D+00
 Coeff-Com:  0.910D+00
 Coeff:     -0.939D-05 0.212D-04 0.362D-04-0.681D-04-0.240D-03 0.257D-03
 Coeff:      0.318D-02 0.615D-02-0.144D-01-0.369D-01-0.559D-01 0.188D+00
 Coeff:      0.910D+00
 Gap=     0.236 Goal=   None    Shift=    0.000
 RMSDP=9.04D-08 MaxDP=2.26D-06 DE=-2.27D-09 OVMax= 1.06D-05

 Cycle  14  Pass 1  IDiag  1:
 RMSU=  3.54D-08    CP:  9.89D-01  1.32D+00  9.78D-01  9.30D-01  1.47D+00
                    CP:  1.79D+00  1.62D+00  1.62D+00  1.65D+00  1.45D+00
                    CP:  1.41D+00  1.22D+00  1.17D+00
 E= -1028.55239736340     Delta-E=       -0.000000000214 Rises=F Damp=F
 DIIS: error= 1.83D-07 at cycle  14 NSaved=  14.
 NSaved=14 IEnMin=14 EnMin= -1028.55239736340     IErMin=14 ErrMin= 1.83D-07
 ErrMax= 1.83D-07  0.00D+00 EMaxC= 1.00D-01 BMatC= 1.01D-11 BMatP= 7.17D-11
 IDIUse=1 WtCom= 1.00D+00 WtEn= 0.00D+00
 Coeff-Com: -0.146D-04 0.292D-04 0.636D-04 0.597D-04-0.142D-03-0.722D-03
 Coeff-Com:  0.244D-03 0.397D-02 0.366D-02-0.687D-02-0.508D-01-0.223D-01
 Coeff-Com:  0.335D+00 0.738D+00
 Coeff:     -0.146D-04 0.292D-04 0.636D-04 0.597D-04-0.142D-03-0.722D-03
 Coeff:      0.244D-03 0.397D-02 0.366D-02-0.687D-02-0.508D-01-0.223D-01
 Coeff:      0.335D+00 0.738D+00
 Gap=     0.236 Goal=   None    Shift=    0.000
 RMSDP=2.27D-08 MaxDP=5.36D-07 DE=-2.14D-10 OVMax= 2.74D-06

 Cycle  15  Pass 1  IDiag  1:
 RMSU=  1.20D-08    CP:  9.89D-01  1.32D+00  9.78D-01  9.30D-01  1.47D+00
                    CP:  1.79D+00  1.62D+00  1.62D+00  1.65D+00  1.45D+00
                    CP:  1.42D+00  1.25D+00  1.30D+00  1.10D+00
 E= -1028.55239736342     Delta-E=       -0.000000000018 Rises=F Damp=F
 DIIS: error= 7.13D-08 at cycle  15 NSaved=  15.
 NSaved=15 IEnMin=15 EnMin= -1028.55239736342     IErMin=15 ErrMin= 7.13D-08
 ErrMax= 7.13D-08  0.00D+00 EMaxC= 1.00D-01 BMatC= 1.26D-12 BMatP= 1.01D-11
 IDIUse=1 WtCom= 1.00D+00 WtEn= 0.00D+00
 Coeff-Com: -0.216D-05 0.381D-05 0.119D-04 0.319D-04-0.118D-05-0.299D-03
 Coeff-Com: -0.630D-03 0.133D-04 0.400D-02 0.664D-02-0.254D-02-0.505D-01
 Coeff-Com: -0.873D-01 0.166D+00 0.964D+00
 Coeff:     -0.216D-05 0.381D-05 0.119D-04 0.319D-04-0.118D-05-0.299D-03
 Coeff:     -0.630D-03 0.133D-04 0.400D-02 0.664D-02-0.254D-02-0.505D-01
 Coeff:     -0.873D-01 0.166D+00 0.964D+00
 Gap=     0.236 Goal=   None    Shift=    0.000
 RMSDP=1.26D-08 MaxDP=3.02D-07 DE=-1.82D-11 OVMax= 1.43D-06

 Cycle  16  Pass 1  IDiag  1:
 RMSU=  5.13D-09    CP:  9.89D-01  1.32D+00  9.78D-01  9.30D-01  1.47D+00
                    CP:  1.79D+00  1.62D+00  1.62D+00  1.65D+00  1.45D+00
                    CP:  1.43D+00  1.26D+00  1.37D+00  1.29D+00  1.22D+00
 E= -1028.55239736343     Delta-E=       -0.000000000014 Rises=F Damp=F
 DIIS: error= 2.58D-08 at cycle  16 NSaved=  16.
 NSaved=16 IEnMin=16 EnMin= -1028.55239736343     IErMin=16 ErrMin= 2.58D-08
 ErrMax= 2.58D-08  0.00D+00 EMaxC= 1.00D-01 BMatC= 1.37D-13 BMatP= 1.26D-12
 IDIUse=1 WtCom= 1.00D+00 WtEn= 0.00D+00
 Coeff-Com:  0.751D-06-0.162D-05-0.236D-05 0.250D-05 0.919D-05-0.143D-04
 Coeff-Com: -0.187D-03-0.339D-03 0.532D-03 0.221D-02 0.400D-02-0.112D-01
 Coeff-Com: -0.471D-01-0.313D-01 0.249D+00 0.834D+00
 Coeff:      0.751D-06-0.162D-05-0.236D-05 0.250D-05 0.919D-05-0.143D-04
 Coeff:     -0.187D-03-0.339D-03 0.532D-03 0.221D-02 0.400D-02-0.112D-01
 Coeff:     -0.471D-01-0.313D-01 0.249D+00 0.834D+00
 Gap=     0.236 Goal=   None    Shift=    0.000
 RMSDP=3.62D-09 MaxDP=1.16D-07 DE=-1.43D-11 OVMax= 4.95D-07

 Error on total polarization charges =  0.00879
 SCF Done:  E(RwB97XD) =  -1028.55239736     A.U. after   16 cycles
            NFock= 16  Conv=0.36D-08     -V/T= 2.0036
 KE= 1.024891466263D+03 PE=-4.616678856326D+03 EE= 1.460933793683D+03
 Leave Link  502 at Tue Jul 14 11:00:00 2020, MaxMem=  7784628224 cpu:             876.4 elap:              88.9
 (Enter /gpfs/loomis/apps/avx/software/Gaussian/16-C.01_AVX/g16/l801.exe)
 DoSCS=F DFT=T ScalE2(SS,OS)=  1.000000  1.000000
 ExpMin= 1.22D-01 ExpMax= 1.11D+05 ExpMxC= 1.07D+03 IAcc=3 IRadAn=         5 AccDes= 0.00D+00
 HarFok:  IExCor=  205 AccDes= 0.00D+00 IRadAn=         5 IDoV=-2 UseB2=F ITyADJ=14
 ICtDFT= 12500011 ScaDFX=  1.000000  1.000000  1.000000  1.000000
 Largest valence mixing into a core orbital is  9.51D-05
 Largest core mixing into a valence orbital is  3.19D-05
 Range of M.O.s used for correlation:    21   273
 NBasis=   273 NAE=    59 NBE=    59 NFC=    20 NFV=     0
 NROrb=    253 NOA=    39 NOB=    39 NVA=   214 NVB=   214
 Leave Link  801 at Tue Jul 14 11:00:00 2020, MaxMem=  7784628224 cpu:               1.0 elap:               0.1
 (Enter /gpfs/loomis/apps/avx/software/Gaussian/16-C.01_AVX/g16/l914.exe)
 RHF ground state
 Keep R1, R2, and R3 ints in memory in canonical form, NReq=4262515490.
 FoFCou: FMM=F IPFlag=           0 FMFlag=           0 FMFlg1=           0
         NFxFlg=           0 DoJE=F BraDBF=F KetDBF=F FulRan=T
         wScrn=  0.000000 ICntrl=       600 IOpCl=  0 I1Cent=           0 NGrid=           0
         NMat0=    1 NMatS0=  37401 NMatT0=    0 NMatD0=    1 NMtDS0=    0 NMtDT0=    0
 Symmetry not used in FoFCou.
 Two-electron integral symmetry not used.
 MDV=  7784628224 DFT=T DoStab=F Mixed=T DoRPA=T DoScal=F NonHer=T
 NEqPCM:  Using equilibrium solvation (IEInf=0, Eps=   2.2280, EpsInf=   2.1319)
 Making orbital integer symmetry assigments:
    12 initial guesses have been made.
 Convergence on wavefunction:    0.000001000000000
 Davidson Disk Diagonalization:  ConvIn= 1.00D-06 SkipCon=T Conv= 1.00D-06.
 Max sub-space:  2000 roots to seek:    12 dimension of matrix:        16692
 Iteration     1 Dimension    12 NMult     0 NNew     12
 CISAX will form    12 AO SS matrices at one time.
 NMat=    12 NSing=    12 JSym2X= 0.
 New state      3 was old state      4
 Excitation Energies [eV] at current iteration:
 Root      1 :     3.398282345740539
 Root      2 :     3.631251844539795
 Root      3 :     4.844114349323525
 Root      4 :     5.149470233004568
 Root      5 :     5.177121302867277
 Root      6 :     5.689946228872594
 Root      7 :     5.840501295014820
 Root      8 :     6.304521592605129
 Root      9 :     6.487293071263949
 Root     10 :     6.657750690234804
 Root     11 :     6.966145931439780
 Root     12 :     7.188403363528229
 Iteration     2 Dimension    18 NMult    12 NNew      6
 CISAX will form     6 AO SS matrices at one time.
 NMat=     6 NSing=     6 JSym2X= 0.
 Root      1 not converged, maximum delta is    0.043257307220047
 Root      2 not converged, maximum delta is    0.107473154295636
 Root      3 not converged, maximum delta is    0.080113612574138
 Excitation Energies [eV] at current iteration:
 Root      1 :     2.880572557723960   Change is   -0.517709788016579
 Root      2 :     3.426670195453051   Change is   -0.204581649086744
 Root      3 :     4.405508487896395   Change is   -0.438605861427129
 Iteration     3 Dimension    24 NMult    18 NNew      6
 CISAX will form     6 AO SS matrices at one time.
 NMat=     6 NSing=     6 JSym2X= 0.
 Root      1 not converged, maximum delta is    0.015781772206454
 Root      2 not converged, maximum delta is    0.028093870237515
 Root      3 not converged, maximum delta is    0.028857483388738
 Excitation Energies [eV] at current iteration:
 Root      1 :     2.851859473581831   Change is   -0.028713084142128
 Root      2 :     3.406873217508347   Change is   -0.019796977944703
 Root      3 :     4.376532552697078   Change is   -0.028975935199318
 Iteration     4 Dimension    30 NMult    24 NNew      6
 CISAX will form     6 AO SS matrices at one time.
 NMat=     6 NSing=     6 JSym2X= 0.
 Root      1 not converged, maximum delta is    0.008440042662210
 Root      2 not converged, maximum delta is    0.009541658977071
 Root      3 not converged, maximum delta is    0.015728895559013
 Excitation Energies [eV] at current iteration:
 Root      1 :     2.847419830623335   Change is   -0.004439642958496
 Root      2 :     3.404994016143334   Change is   -0.001879201365013
 Root      3 :     4.370858263799863   Change is   -0.005674288897214
 Iteration     5 Dimension    36 NMult    30 NNew      6
 CISAX will form     6 AO SS matrices at one time.
 NMat=     6 NSing=     6 JSym2X= 0.
 Root      1 not converged, maximum delta is    0.001842302797403
 Root      2 not converged, maximum delta is    0.001288554963455
 Root      3 not converged, maximum delta is    0.009458494216973
 Excitation Energies [eV] at current iteration:
 Root      1 :     2.846843101452383   Change is   -0.000576729170953
 Root      2 :     3.404894157216881   Change is   -0.000099858926453
 Root      3 :     4.369508709631133   Change is   -0.001349554168730
 Iteration     6 Dimension    42 NMult    36 NNew      6
 CISAX will form     6 AO SS matrices at one time.
 NMat=     6 NSing=     6 JSym2X= 0.
 Root      1 not converged, maximum delta is    0.000323796591562
 Root      2 not converged, maximum delta is    0.000324826205400
 Root      3 not converged, maximum delta is    0.002430957187346
 Excitation Energies [eV] at current iteration:
 Root      1 :     2.846801831928202   Change is   -0.000041269524181
 Root      2 :     3.404889095397666   Change is   -0.000005061819215
 Root      3 :     4.369321830233756   Change is   -0.000186879397378
 Iteration     7 Dimension    48 NMult    42 NNew      6
 CISAX will form     6 AO SS matrices at one time.
 NMat=     6 NSing=     6 JSym2X= 0.
 Root      1 not converged, maximum delta is    0.000107264388845
 Root      2 not converged, maximum delta is    0.000118336495131
 Root      3 not converged, maximum delta is    0.000477571785030
 Excitation Energies [eV] at current iteration:
 Root      1 :     2.846798491853368   Change is   -0.000003340074834
 Root      2 :     3.404888654103459   Change is   -0.000000441294207
 Root      3 :     4.369302593330844   Change is   -0.000019236902911
 Iteration     8 Dimension    54 NMult    48 NNew      6
 CISAX will form     6 AO SS matrices at one time.
 NMat=     6 NSing=     6 JSym2X= 0.
 Root      1 not converged, maximum delta is    0.000029972432485
 Root      2 not converged, maximum delta is    0.000011319892760
 Root      3 not converged, maximum delta is    0.000178119390937
 Excitation Energies [eV] at current iteration:
 Root      1 :     2.846798332856759   Change is   -0.000000158996609
 Root      2 :     3.404888634820809   Change is   -0.000000019282651
 Root      3 :     4.369300747101715   Change is   -0.000001846229130
 Iteration     9 Dimension    60 NMult    54 NNew      6
 CISAX will form     6 AO SS matrices at one time.
 NMat=     6 NSing=     6 JSym2X= 0.
 Root      1 not converged, maximum delta is    0.000010222709928
 Root      2 not converged, maximum delta is    0.000001470536276
 Root      3 not converged, maximum delta is    0.000034552689553
 Excitation Energies [eV] at current iteration:
 Root      1 :     2.846798321383710   Change is   -0.000000011473049
 Root      2 :     3.404888634097721   Change is   -0.000000000723087
 Root      3 :     4.369300631410341   Change is   -0.000000115691374
 Iteration    10 Dimension    66 NMult    60 NNew      6
 CISAX will form     6 AO SS matrices at one time.
 NMat=     6 NSing=     6 JSym2X= 0.
 Root      1 not converged, maximum delta is    0.000002861188887
 Root      2 has converged.
 Root      3 not converged, maximum delta is    0.000016112005208
 Excitation Energies [eV] at current iteration:
 Root      1 :     2.846798320474021   Change is   -0.000000000909689
 Root      2 :     3.404888634056725   Change is   -0.000000000040997
 Root      3 :     4.369300618835206   Change is   -0.000000012575135
 Iteration    11 Dimension    70 NMult    66 NNew      4
 CISAX will form     4 AO SS matrices at one time.
 NMat=     4 NSing=     4 JSym2X= 0.
 Root      1 has converged.
 Root      2 has converged.
 Root      3 not converged, maximum delta is    0.000003602495784
 Excitation Energies [eV] at current iteration:
 Root      1 :     2.846798320416960   Change is   -0.000000000057061
 Root      2 :     3.404888634056628   Change is   -0.000000000000097
 Root      3 :     4.369300617630175   Change is   -0.000000001205032
 Iteration    12 Dimension    72 NMult    70 NNew      2
 CISAX will form     2 AO SS matrices at one time.
 NMat=     2 NSing=     2 JSym2X= 0.
 Root      1 has converged.
 Root      2 has converged.
 Root      3 has converged.
 Excitation Energies [eV] at current iteration:
 Root      1 :     2.846798320415458   Change is   -0.000000000001502
 Root      2 :     3.404888634056628   Change is    0.000000000000000
 Root      3 :     4.369300617548781   Change is   -0.000000000081393
 Convergence achieved on expansion vectors.
 ***********************************************************************
 Excited states from <AA,BB:AA,BB> singles matrix:
 ***********************************************************************
 
 1PDM for each excited state written to RWF  633
 Ground to excited state transition densities written to RWF  633
 Ground to excited state transition electric dipole moments (Au):
       state          X           Y           Z        Dip. S.      Osc.
         1         1.1410     -2.2618     -0.0000      6.4178      0.4476
         2        -0.0000      0.0000     -0.0058      0.0000      0.0000
         3        -1.6127      1.0533      0.0000      3.7102      0.3972
 Ground to excited state transition velocity dipole moments (Au):
       state          X           Y           Z        Dip. S.      Osc.
         1        -0.1152      0.2401      0.0000      0.0709      0.4520
         2         0.0000     -0.0000      0.0007      0.0000      0.0000
         3         0.2539     -0.1591     -0.0000      0.0898      0.3727
 Ground to excited state transition magnetic dipole moments (Au):
       state          X           Y           Z
         1         0.0000      0.0000     -1.1633
         2         0.4280     -0.0147      0.0000
         3        -0.0000      0.0000     -0.9714
 Ground to excited state transition velocity quadrupole moments (Au):
       state          XX          YY          ZZ          XY          XZ          YZ
         1         0.0352      0.6570     -0.0118     -0.2865     -0.0000      0.0000
         2        -0.0000     -0.0000      0.0000      0.0000     -0.0051      0.0200
         3        -0.4817      0.4924      0.0055      0.1179      0.0000      0.0000
 <0|del|b> * <b|rxdel|0> + <0|del|b> * <b|delr+rdel|0>
 Rotatory Strengths (R) in cgs (10**-40 erg-esu-cm/Gauss)
       state          XX          YY          ZZ    R(velocity)    E-M Angle
         1         0.0069     -0.0213      0.0182      0.0013       90.00
         2         0.0002      0.0025      0.0026      0.0018       90.00
         3         0.0018      0.0028     -0.0068     -0.0007       90.00
 1/2[<0|r|b>*<b|rxdel|0> + (<0|rxdel|b>*<b|r|0>)*]
 Rotatory Strengths (R) in cgs (10**-40 erg-esu-cm/Gauss)
       state          XX          YY          ZZ     R(length)
         1        -0.0095      0.0429     -0.0300      0.0011
         2         0.0050      0.0004      0.0001      0.0018
         3        -0.0053     -0.0042      0.0079     -0.0006
  1/2[<0|del|b>*<b|r|0> + (<0|r|b>*<b|del|0>)*] (Au)
       state          X           Y           Z        Dip. S.   Osc.(frdel)
         1        -0.1314     -0.5432     -0.0000      0.6746      0.4497
         2        -0.0000     -0.0000     -0.0000      0.0000      0.0000
         3        -0.4094     -0.1676     -0.0000      0.5770      0.3847

 Excitation energies and oscillator strengths:
 
 Excited state symmetry could not be determined.
 Excited State   1:      Singlet-?Sym    2.8468 eV  435.52 nm  f=0.4476  <S**2>=0.000
      59 -> 60         0.69993
 This state for optimization and/or second-order correction.
 Total Energy, E(TD-HF/TD-DFT) =  -1028.44777945    
 Copying the excited state density for this state as the 1-particle RhoCI density.
 
 Excited state symmetry could not be determined.
 Excited State   2:      Singlet-?Sym    3.4049 eV  364.14 nm  f=0.0000  <S**2>=0.000
      58 -> 60         0.68484
      58 -> 62         0.11063
      58 -> 64         0.10851
 
 Excited state symmetry could not be determined.
 Excited State   3:      Singlet-?Sym    4.3693 eV  283.76 nm  f=0.3972  <S**2>=0.000
      57 -> 60         0.68478
 SavETr:  write IOETrn=   770 NScale= 10 NData=  16 NLR=1 NState=    3 LETran=      64.
 The selected state is a singlet.
 CISGrd: IGrad=2 NXY=2 DFT=T
 CISAX will form     1 AO SS matrices at one time.
 NMat=     1 NSing=     1 JSym2X= 0.
 GePol: Maximum number of non-zero 1st derivatives   =     258
 Leave Link  914 at Tue Jul 14 11:02:46 2020, MaxMem=  7784628224 cpu:            1630.2 elap:             165.6
 (Enter /gpfs/loomis/apps/avx/software/Gaussian/16-C.01_AVX/g16/l1002.exe)
 Minotr:  Closed shell wavefunction.
          Computing CIS/TDA/TD derivatives.
          Using Z-Vector for PSCF gradient.
          Skipping F1 and S1 gradient terms here.
          IDoAtm=1111111111111111111111111
 NEqPCM:  Using equilibrium solvation (IEInf=0, Eps=   2.2280, EpsInf=   2.1319)
          Frozen-core window.
          Direct CPHF calculation.
          Differentiating once with respect to electric field.
                with respect to dipole field.
          Differentiating once with respect to nuclear coordinates.
          Requested convergence is 1.0D-10 RMS, and 1.0D-09 maximum.
          NewPWx=F KeepS1=T KeepF1=T KeepIn=T MapXYZ=F SortEE=F KeepMc=T.
 Keep R1 ints in memory in canonical form, NReq=1421406429.
 FoFCou: FMM=F IPFlag=           0 FMFlag=           0 FMFlg1=           0
         NFxFlg=           0 DoJE=F BraDBF=F KetDBF=F FulRan=T
         wScrn=  0.000000 ICntrl=       600 IOpCl=  0 I1Cent=           0 NGrid=           0
         NMat0=    1 NMatS0=  37401 NMatT0=    0 NMatD0=    1 NMtDS0=    0 NMtDT0=    0
 Symmetry not used in FoFCou.
 Two-electron integral symmetry not used.
          MDV=    7784628224 using IRadAn=       5.
          Solving linear equations separately, MaxMat=       0.
          There are     1 degrees of freedom in the 1st order CPHF.  IDoFFX=0 NUNeed=     1.
 LinEq1:  Iter=  0 NonCon=     1 RMS=6.97D-03 Max=5.72D-01 NDo=     1
 AX will form     1 AO Fock derivatives at one time.
 LinEq1:  Iter=  1 NonCon=     1 RMS=3.21D-03 Max=1.76D-01 NDo=     1
 LinEq1:  Iter=  2 NonCon=     1 RMS=1.59D-03 Max=3.77D-02 NDo=     1
 LinEq1:  Iter=  3 NonCon=     1 RMS=7.62D-04 Max=2.15D-02 NDo=     1
 LinEq1:  Iter=  4 NonCon=     1 RMS=4.54D-04 Max=1.39D-02 NDo=     1
 LinEq1:  Iter=  5 NonCon=     1 RMS=2.22D-04 Max=8.21D-03 NDo=     1
 LinEq1:  Iter=  6 NonCon=     1 RMS=9.12D-05 Max=4.57D-03 NDo=     1
 LinEq1:  Iter=  7 NonCon=     1 RMS=4.68D-05 Max=1.52D-03 NDo=     1
 LinEq1:  Iter=  8 NonCon=     1 RMS=1.78D-05 Max=6.07D-04 NDo=     1
 LinEq1:  Iter=  9 NonCon=     1 RMS=8.03D-06 Max=1.88D-04 NDo=     1
 LinEq1:  Iter= 10 NonCon=     1 RMS=3.16D-06 Max=8.48D-05 NDo=     1
 LinEq1:  Iter= 11 NonCon=     1 RMS=1.55D-06 Max=5.23D-05 NDo=     1
 LinEq1:  Iter= 12 NonCon=     1 RMS=7.08D-07 Max=2.22D-05 NDo=     1
 LinEq1:  Iter= 13 NonCon=     1 RMS=3.56D-07 Max=1.16D-05 NDo=     1
 LinEq1:  Iter= 14 NonCon=     1 RMS=1.13D-07 Max=2.47D-06 NDo=     1
 LinEq1:  Iter= 15 NonCon=     1 RMS=5.96D-08 Max=1.76D-06 NDo=     1
 LinEq1:  Iter= 16 NonCon=     1 RMS=2.52D-08 Max=7.25D-07 NDo=     1
 LinEq1:  Iter= 17 NonCon=     1 RMS=1.16D-08 Max=3.38D-07 NDo=     1
 LinEq1:  Iter= 18 NonCon=     1 RMS=5.08D-09 Max=1.16D-07 NDo=     1
 LinEq1:  Iter= 19 NonCon=     1 RMS=1.98D-09 Max=5.11D-08 NDo=     1
 LinEq1:  Iter= 20 NonCon=     1 RMS=1.01D-09 Max=2.76D-08 NDo=     1
 LinEq1:  Iter= 21 NonCon=     1 RMS=3.55D-10 Max=1.00D-08 NDo=     1
 LinEq1:  Iter= 22 NonCon=     1 RMS=1.50D-10 Max=4.34D-09 NDo=     1
 LinEq1:  Iter= 23 NonCon=     1 RMS=6.53D-11 Max=1.67D-09 NDo=     1
 LinEq1:  Iter= 24 NonCon=     0 RMS=1.81D-11 Max=4.52D-10 NDo=     1
 Linear equations converged to 1.000D-10 1.000D-09 after    24 iterations.
 End of Minotr F.D. properties file   721 does not exist.
 End of Minotr F.D. properties file   722 does not exist.
 End of Minotr F.D. properties file   788 does not exist.
 Leave Link 1002 at Tue Jul 14 11:04:30 2020, MaxMem=  7784628224 cpu:             746.6 elap:             104.2
 (Enter /gpfs/loomis/apps/avx/software/Gaussian/16-C.01_AVX/g16/l601.exe)
 Copying SCF densities to generalized density rwf, IOpCl= 0 IROHF=0.

 **********************************************************************

            Population analysis using the SCF Density.

 **********************************************************************

 Alpha  occ. eigenvalues --  -89.10881 -19.20379 -14.50512 -10.42037 -10.37797
 Alpha  occ. eigenvalues --  -10.36546 -10.35459 -10.33558 -10.33093 -10.32700
 Alpha  occ. eigenvalues --  -10.32518 -10.31339 -10.30637 -10.30588 -10.29141
 Alpha  occ. eigenvalues --  -10.28192  -8.12881  -6.07760  -6.07390  -6.06887
 Alpha  occ. eigenvalues --   -1.16339  -1.09376  -0.99865  -0.96603  -0.93680
 Alpha  occ. eigenvalues --   -0.89275  -0.87619  -0.83921  -0.81340  -0.79290
 Alpha  occ. eigenvalues --   -0.75712  -0.72340  -0.69702  -0.67742  -0.65776
 Alpha  occ. eigenvalues --   -0.60881  -0.59820  -0.57148  -0.56416  -0.56266
 Alpha  occ. eigenvalues --   -0.55132  -0.53695  -0.53162  -0.50554  -0.49511
 Alpha  occ. eigenvalues --   -0.48838  -0.48529  -0.47029  -0.45614  -0.44956
 Alpha  occ. eigenvalues --   -0.44115  -0.43036  -0.42649  -0.40080  -0.36847
 Alpha  occ. eigenvalues --   -0.33975  -0.31707  -0.31065  -0.25620
 Alpha virt. eigenvalues --   -0.01993   0.03475   0.05377   0.05950   0.09605
 Alpha virt. eigenvalues --    0.10658   0.13659   0.14619   0.16459   0.17365
 Alpha virt. eigenvalues --    0.18971   0.20062   0.21115   0.21329   0.23220
 Alpha virt. eigenvalues --    0.23626   0.24228   0.25873   0.28305   0.30065
 Alpha virt. eigenvalues --    0.30653   0.34065   0.35620   0.35858   0.36737
 Alpha virt. eigenvalues --    0.38128   0.39442   0.39878   0.41771   0.45163
 Alpha virt. eigenvalues --    0.46797   0.48966   0.50829   0.51157   0.51377
 Alpha virt. eigenvalues --    0.52738   0.52877   0.52918   0.53964   0.55576
 Alpha virt. eigenvalues --    0.56201   0.56434   0.56507   0.57210   0.57657
 Alpha virt. eigenvalues --    0.57851   0.59066   0.59392   0.59731   0.60784
 Alpha virt. eigenvalues --    0.61454   0.61649   0.62661   0.62753   0.63734
 Alpha virt. eigenvalues --    0.64609   0.66982   0.67060   0.68686   0.69993
 Alpha virt. eigenvalues --    0.70212   0.70728   0.72002   0.72214   0.72993
 Alpha virt. eigenvalues --    0.74411   0.75340   0.76013   0.76942   0.78733
 Alpha virt. eigenvalues --    0.78998   0.79638   0.81397   0.81506   0.83467
 Alpha virt. eigenvalues --    0.86233   0.88488   0.91256   0.91854   0.93066
 Alpha virt. eigenvalues --    0.94186   0.94543   0.96330   0.97637   0.98421
 Alpha virt. eigenvalues --    0.99636   1.00029   1.00586   1.00826   1.01167
 Alpha virt. eigenvalues --    1.02686   1.05173   1.06079   1.06362   1.07208
 Alpha virt. eigenvalues --    1.09046   1.09332   1.10221   1.11288   1.11418
 Alpha virt. eigenvalues --    1.12848   1.12873   1.13820   1.14288   1.15774
 Alpha virt. eigenvalues --    1.17469   1.18796   1.20291   1.23146   1.24233
 Alpha virt. eigenvalues --    1.27066   1.27133   1.31241   1.33633   1.33839
 Alpha virt. eigenvalues --    1.34570   1.36625   1.38111   1.41723   1.44971
 Alpha virt. eigenvalues --    1.49425   1.49508   1.53258   1.54796   1.55156
 Alpha virt. eigenvalues --    1.55911   1.57295   1.57388   1.57938   1.60027
 Alpha virt. eigenvalues --    1.60370   1.61889   1.63267   1.65374   1.67939
 Alpha virt. eigenvalues --    1.68793   1.70152   1.71387   1.71902   1.71936
 Alpha virt. eigenvalues --    1.72725   1.73746   1.73770   1.75033   1.76471
 Alpha virt. eigenvalues --    1.78141   1.79043   1.80558   1.81977   1.82426
 Alpha virt. eigenvalues --    1.84427   1.84821   1.84987   1.85473   1.86625
 Alpha virt. eigenvalues --    1.87091   1.90451   1.91455   1.92376   1.92563
 Alpha virt. eigenvalues --    1.94155   1.95229   1.95839   1.96574   1.98528
 Alpha virt. eigenvalues --    2.00758   2.01639   2.02752   2.05356   2.06850
 Alpha virt. eigenvalues --    2.07125   2.08317   2.09815   2.11831   2.14399
 Alpha virt. eigenvalues --    2.17878   2.23147   2.24530   2.24786   2.27325
 Alpha virt. eigenvalues --    2.28572   2.30433   2.34838   2.37099   2.39378
 Alpha virt. eigenvalues --    2.41290   2.43235   2.46632   2.48894   2.50669
 Alpha virt. eigenvalues --    2.52412   2.54725   2.62124   2.66611   2.69119
 Alpha virt. eigenvalues --    2.69892   2.73478   2.75230   2.79385   2.81600
 Alpha virt. eigenvalues --    2.81774   2.82464   2.82886   2.89534   2.94808
 Alpha virt. eigenvalues --    2.95728   3.08731   3.18446   3.34676   3.50587
 Alpha virt. eigenvalues --    3.53839   3.60042   3.69934   4.89560
          Condensed to atoms (all electrons):
               1          2          3          4          5          6
     1  C    4.740908   0.476051   0.015934  -0.053796  -0.010442   0.505841
     2  C    0.476051   5.411235   0.254365  -0.070790  -0.076977  -0.000447
     3  C    0.015934   0.254365   4.915463   0.515541  -0.001946  -0.071393
     4  C   -0.053796  -0.070790   0.515541   4.817102   0.512723  -0.013538
     5  C   -0.010442  -0.076977  -0.001946   0.512723   4.730013   0.502500
     6  C    0.505841  -0.000447  -0.071393  -0.013538   0.502500   4.734019
     7  H    0.404977  -0.040562   0.009504  -0.000587   0.008155  -0.038828
     8  H   -0.000580   0.010669  -0.023925   0.394342  -0.041203   0.007339
     9  H    0.008577  -0.000277   0.008150  -0.038013   0.405520  -0.043500
    10  H   -0.042831   0.009585  -0.000565   0.008672  -0.042450   0.407947
    11  N    0.003770  -0.045272   0.427003  -0.044814   0.002983   0.000317
    12  S   -0.067974   0.340208  -0.142140   0.002818   0.000052   0.004530
    13  C   -0.000245  -0.000466   0.014628   0.000007   0.000018  -0.000002
    14  C   -0.000007   0.000026   0.000385   0.000009  -0.000000  -0.000000
    15  C    0.000004  -0.000242   0.000631   0.000001  -0.000001   0.000000
    16  C    0.000000  -0.000003   0.000003  -0.000000   0.000000   0.000000
    17  H   -0.000005   0.000114  -0.000003   0.000000   0.000000   0.000000
    18  C    0.000000   0.000011  -0.000048  -0.000001  -0.000000  -0.000000
    19  C   -0.000000  -0.000000   0.000003  -0.000000  -0.000000   0.000000
    20  H   -0.000000  -0.000000  -0.000000   0.000000   0.000000  -0.000000
    21  H   -0.000000   0.000000  -0.000001  -0.000000  -0.000000   0.000000
    22  H    0.000000  -0.000000  -0.000000  -0.000000   0.000000  -0.000000
    23  C    0.003646  -0.059828  -0.086309   0.006921   0.000502  -0.000478
    24  O    0.000002  -0.000206  -0.001352   0.000127   0.000001  -0.000000
    25  H    0.000217   0.027636  -0.014608  -0.032822  -0.000983   0.000005
               7          8          9         10         11         12
     1  C    0.404977  -0.000580   0.008577  -0.042831   0.003770  -0.067974
     2  C   -0.040562   0.010669  -0.000277   0.009585  -0.045272   0.340208
     3  C    0.009504  -0.023925   0.008150  -0.000565   0.427003  -0.142140
     4  C   -0.000587   0.394342  -0.038013   0.008672  -0.044814   0.002818
     5  C    0.008155  -0.041203   0.405520  -0.042450   0.002983   0.000052
     6  C   -0.038828   0.007339  -0.043500   0.407947   0.000317   0.004530
     7  H    0.648948   0.000028  -0.000145  -0.011555  -0.000104  -0.007370
     8  H    0.000028   0.636928  -0.011674  -0.000115  -0.006613  -0.000254
     9  H   -0.000145  -0.011674   0.655092  -0.012222  -0.000090   0.000022
    10  H   -0.011555  -0.000115  -0.012222   0.656088   0.000005  -0.000135
    11  N   -0.000104  -0.006613  -0.000090   0.000005   5.621253  -0.041364
    12  S   -0.007370  -0.000254   0.000022  -0.000135  -0.041364  15.453118
    13  C    0.000004   0.000058  -0.000000  -0.000000  -0.017787  -0.073873
    14  C    0.000001   0.000001   0.000000  -0.000000   0.003845  -0.006963
    15  C   -0.000000  -0.000015   0.000000   0.000000  -0.007867   0.004172
    16  C    0.000000  -0.000000  -0.000000  -0.000000  -0.000080   0.000087
    17  H    0.000001   0.000000   0.000000  -0.000000   0.000264   0.006635
    18  C    0.000000  -0.000000   0.000000  -0.000000  -0.000695  -0.000101
    19  C    0.000000   0.000000  -0.000000   0.000000   0.000018   0.000013
    20  H    0.000000  -0.000000   0.000000   0.000000   0.000001   0.000001
    21  H   -0.000000   0.000000  -0.000000   0.000000  -0.000001   0.000003
    22  H    0.000000  -0.000000  -0.000000  -0.000000  -0.000000  -0.000000
    23  C    0.000236  -0.000637   0.000006   0.000004   0.489439   0.298480
    24  O    0.000000  -0.000169   0.000000  -0.000000  -0.013955  -0.000001
    25  H    0.000010   0.000950  -0.000021   0.000000   0.331746   0.011671
              13         14         15         16         17         18
     1  C   -0.000245  -0.000007   0.000004   0.000000  -0.000005   0.000000
     2  C   -0.000466   0.000026  -0.000242  -0.000003   0.000114   0.000011
     3  C    0.014628   0.000385   0.000631   0.000003  -0.000003  -0.000048
     4  C    0.000007   0.000009   0.000001  -0.000000   0.000000  -0.000001
     5  C    0.000018  -0.000000  -0.000001   0.000000   0.000000  -0.000000
     6  C   -0.000002  -0.000000   0.000000   0.000000   0.000000  -0.000000
     7  H    0.000004   0.000001  -0.000000   0.000000   0.000001   0.000000
     8  H    0.000058   0.000001  -0.000015  -0.000000   0.000000  -0.000000
     9  H   -0.000000   0.000000   0.000000  -0.000000   0.000000   0.000000
    10  H   -0.000000  -0.000000   0.000000  -0.000000  -0.000000  -0.000000
    11  N   -0.017787   0.003845  -0.007867  -0.000080   0.000264  -0.000695
    12  S   -0.073873  -0.006963   0.004172   0.000087   0.006635  -0.000101
    13  C    5.537958   0.420281   0.156653  -0.003169  -0.043806  -0.041137
    14  C    0.420281   4.873750   0.013615   0.537162   0.400741  -0.067445
    15  C    0.156653   0.013615   4.718775  -0.055625   0.006113   0.443080
    16  C   -0.003169   0.537162  -0.055625   4.770867  -0.031831  -0.015510
    17  H   -0.043806   0.400741   0.006113  -0.031831   0.682683  -0.001077
    18  C   -0.041137  -0.067445   0.443080  -0.015510  -0.001077   4.949806
    19  C   -0.053145  -0.016108  -0.000960   0.471930   0.008517   0.485216
    20  H    0.009268  -0.036897  -0.000154   0.399928  -0.012111   0.008461
    21  H    0.016141  -0.000585  -0.024374   0.007749   0.000057   0.370336
    22  H   -0.001758   0.009771   0.008463  -0.046958  -0.000206  -0.039048
    23  C    0.338154  -0.102416  -0.069898   0.006395  -0.020896   0.012831
    24  O   -0.104357   0.006473   0.702102  -0.000234  -0.000077  -0.071455
    25  H   -0.062946  -0.000904  -0.003942   0.000070  -0.000100   0.003776
              19         20         21         22         23         24
     1  C   -0.000000  -0.000000  -0.000000   0.000000   0.003646   0.000002
     2  C   -0.000000  -0.000000   0.000000  -0.000000  -0.059828  -0.000206
     3  C    0.000003  -0.000000  -0.000001  -0.000000  -0.086309  -0.001352
     4  C   -0.000000   0.000000  -0.000000  -0.000000   0.006921   0.000127
     5  C   -0.000000   0.000000  -0.000000   0.000000   0.000502   0.000001
     6  C    0.000000  -0.000000   0.000000  -0.000000  -0.000478  -0.000000
     7  H    0.000000   0.000000  -0.000000   0.000000   0.000236   0.000000
     8  H    0.000000  -0.000000   0.000000  -0.000000  -0.000637  -0.000169
     9  H   -0.000000   0.000000  -0.000000  -0.000000   0.000006   0.000000
    10  H    0.000000   0.000000   0.000000  -0.000000   0.000004  -0.000000
    11  N    0.000018   0.000001  -0.000001  -0.000000   0.489439  -0.013955
    12  S    0.000013   0.000001   0.000003  -0.000000   0.298480  -0.000001
    13  C   -0.053145   0.009268   0.016141  -0.001758   0.338154  -0.104357
    14  C   -0.016108  -0.036897  -0.000585   0.009771  -0.102416   0.006473
    15  C   -0.000960  -0.000154  -0.024374   0.008463  -0.069898   0.702102
    16  C    0.471930   0.399928   0.007749  -0.046958   0.006395  -0.000234
    17  H    0.008517  -0.012111   0.000057  -0.000206  -0.020896  -0.000077
    18  C    0.485216   0.008461   0.370336  -0.039048   0.012831  -0.071455
    19  C    4.756387  -0.047470  -0.047781   0.402634   0.000030   0.005119
    20  H   -0.047470   0.691541  -0.000172  -0.012790  -0.000398   0.000000
    21  H   -0.047781  -0.000172   0.686978  -0.013014  -0.000506   0.005876
    22  H    0.402634  -0.012790  -0.013014   0.680219   0.000012  -0.000081
    23  C    0.000030  -0.000398  -0.000506   0.000012   5.161477  -0.017957
    24  O    0.005119   0.000000   0.005876  -0.000081  -0.017957   7.805280
    25  H   -0.000319  -0.000000  -0.000001   0.000004   0.012188   0.064165
              25
     1  C    0.000217
     2  C    0.027636
     3  C   -0.014608
     4  C   -0.032822
     5  C   -0.000983
     6  C    0.000005
     7  H    0.000010
     8  H    0.000950
     9  H   -0.000021
    10  H    0.000000
    11  N    0.331746
    12  S    0.011671
    13  C   -0.062946
    14  C   -0.000904
    15  C   -0.003942
    16  C    0.000070
    17  H   -0.000100
    18  C    0.003776
    19  C   -0.000319
    20  H   -0.000000
    21  H   -0.000001
    22  H    0.000004
    23  C    0.012188
    24  O    0.064165
    25  H    0.883902
 Mulliken charges:
               1
     1  C    0.015953
     2  C   -0.234832
     3  C    0.180680
     4  C   -0.003903
     5  C    0.011536
     6  C    0.005687
     7  H    0.027286
     8  H    0.034869
     9  H    0.028574
    10  H    0.027571
    11  N    0.297996
    12  S    0.218363
    13  C   -0.090480
    14  C   -0.034734
    15  C    0.109469
    16  C   -0.040782
    17  H    0.004985
    18  C   -0.036999
[...]
 0,-0.00006846,-0.00000071,-0.00000025,-0.00007250,-0.00000075,0.000001
 08,-0.00059956,0.00000067,-0.00000010,-0.00023128,-0.00000003,0.000000
 44,0.00000369,-0.00000017,-0.00000019,0.00002912,0.,0.,-0.00004366,0.,
 0.,-0.00002043,0.,0.,0.00002172,0.,0.,0.00003412,0.00000029,-0.0000013
 6,0.00199878,0.00000039,-0.00000011,-0.00066700,0.00000219,0.00000295,
 0.00174514,-0.00000033,-0.00000891,-0.05492553,0.00000204,-0.00000141,
 -0.00547646,0.00000946,0.00003252,0.12245386,0.00019418,0.00006026,0.,
 -0.00052057,0.00025139,0.00000007,0.00034466,-0.00016148,-0.00000007,-
 0.00007669,0.00009475,0.,0.00005509,-0.00007032,0.,0.00002719,-0.00003
 356,0.,-0.00001705,-0.00000566,0.,0.00003072,0.00000354,0.,0.00001059,
 -0.00000414,0.,0.00003123,-0.00000501,0.,0.00064809,0.00050097,0.00000
 013,-0.00121973,0.00143864,-0.00000033,-0.00566196,-0.03057124,-0.0000
 0246,-0.09346579,-0.09357078,-0.00000726,-0.00408389,0.00384076,-0.000
 00034,0.01065549,0.02012056,0.00000153,0.09682022,0.00002820,-0.000023
 27,-0.00000002,-0.00021160,0.00051267,-0.00000014,0.00027335,0.0000353
 4,-0.00000009,-0.00002912,0.00004120,0.,0.00001766,0.00003354,0.,-0.00
 007831,-0.00000274,0.00000001,-0.00000794,0.00001223,-0.00000001,0.000
 01602,-0.00000323,-0.00000001,-0.00000258,0.00000088,0.,-0.00000201,0.
 00000268,0.,0.00005860,0.00016958,0.00000021,-0.00006020,-0.00078874,0
 .00000025,0.00068219,-0.00206732,-0.00000063,-0.09233417,-0.30271981,-
 0.00002119,0.00023315,0.00234121,-0.00000065,-0.01192221,-0.01674306,-
 0.00000167,0.09892490,0.32099785,0.,0.00000016,0.00003937,0.00000043,0
 .00000018,-0.00028011,0.00000056,-0.00000064,0.00080274,-0.00000040,0.
 00000007,0.00007751,0.00000002,-0.00000028,-0.00001780,0.00000014,0.00
 000010,-0.00001458,0.,0.,0.00003703,0.00000001,0.,0.00003191,0.,0.,-0.
 00000682,0.,0.,-0.00001614,0.00000024,0.00000151,-0.00158708,-0.000000
 67,0.00000015,0.00120186,0.00000124,-0.00000328,0.00880669,-0.00000806
 ,-0.00002050,-0.03666589,-0.00000087,0.00000116,0.00999409,-0.00000063
 ,-0.00000132,0.00382483,0.00000837,0.00002343,0.02086602,-0.00152653,0
 .00035273,0.00000033,-0.00436741,-0.00372871,0.00000035,-0.00491417,0.
 01076882,-0.00000076,0.00495480,-0.00050832,-0.00000005,-0.00025964,0.
 00166336,-0.00000003,0.00122812,-0.00114889,-0.00000003,-0.00011579,0.
 00008337,0.00000001,0.00006599,0.00000450,0.,0.00012044,0.00000252,0.,
 0.00009370,-0.00006930,-0.00000008,0.01014158,-0.00130535,0.00000175,0
 .00097975,-0.00294039,0.00000031,0.02608118,0.01023702,0.00000125,-0.0
 3814845,0.02011461,0.00000103,-0.11996659,0.05652016,0.00000646,-0.013
 17123,-0.08677721,-0.00000588,-0.00058558,0.00044418,0.00000054,0.6392
 5305,0.00071307,-0.00002991,-0.00000005,0.00024326,0.00010433,0.000000
 02,0.00095797,-0.00165545,0.00000024,-0.00106708,0.00010401,0.,0.00013
 806,-0.00032275,0.,-0.00037692,0.00013979,0.,0.00000734,0.00000583,0.,
 -0.00001154,-0.00000780,0.,-0.00002294,-0.00000241,0.,0.00001060,0.000
 01460,0.00000001,-0.00062922,0.00047292,-0.00000053,0.00126740,-0.0005
 7702,0.00000002,0.01114162,-0.02922328,-0.00000106,0.00925398,-0.00481
 948,-0.00000044,0.05885886,-0.21816611,-0.00000985,-0.03697965,0.00036
 830,-0.00000031,-0.00022605,0.00077565,-0.00000022,0.06466286,0.673682
 64,0.00000021,0.00000005,0.00020950,0.00000030,0.00000041,0.00063354,0
 .00000097,-0.00000107,0.00153580,-0.00000047,0.00000004,-0.00015854,0.
 00000007,-0.00000018,-0.00006859,-0.00000009,0.00000013,-0.00013417,0.
 ,0.,0.00013523,0.00000002,0.,0.00009916,-0.00000001,0.,0.00000284,0.,0
 .,-0.00007963,-0.00000097,0.00000235,-0.00248521,-0.00000007,-0.000000
 24,0.00153175,0.00000075,-0.00000302,0.01461952,-0.00000103,0.00000164
 ,-0.00574163,0.00000627,-0.00000997,-0.06718599,-0.00000198,-0.0000015
 2,0.00814860,0.00000019,0.00000026,-0.00260257,0.00000381,0.00003979,0
 .10883088,0.00151675,0.00027317,-0.00000028,0.00545748,0.00367149,-0.0
 0000054,0.00665357,-0.01256523,0.00000020,-0.00624040,0.00065659,0.000
 00011,0.00034384,-0.00272324,0.00000010,-0.00054905,0.00154036,0.00000
 003,0.00008403,-0.00007527,-0.00000005,-0.00001013,0.00001636,-0.00000
 006,-0.00010200,-0.00002112,0.,-0.00004931,0.00007073,0.00000008,-0.01
 077089,0.00676083,-0.00000059,-0.00034919,0.00129554,-0.00000041,-0.01
 515879,-0.01219835,-0.00000173,0.05717735,0.00302413,0.00000056,-0.055
 42687,0.02125429,-0.00000114,-0.14842753,-0.02290710,-0.00000159,-0.00
 286713,0.00448755,0.00000008,-0.30607113,-0.06215765,-0.00000309,0.649
 18826,0.00018057,0.00091255,-0.00000013,0.00300562,0.00121954,-0.00000
 005,0.00316610,-0.00479415,0.00000044,-0.00334133,0.00051660,0.0000000
 5,0.00013629,-0.00225397,0.00000005,0.00081964,0.00085062,-0.00000002,
 -0.00000079,-0.00003824,0.,0.00000616,0.00000331,0.,-0.00000285,-0.000
 05073,0.,0.00002011,0.00003905,0.00000002,-0.00038837,0.00373493,-0.00
 000083,-0.00164141,0.00032472,0.00000015,-0.03208297,-0.00480970,0.000
 00016,0.05436852,-0.05581008,-0.00000345,-0.00621875,0.02584392,-0.000
 00093,-0.11557651,-0.33233863,-0.00001740,0.00341338,-0.00179882,-0.00
 000077,0.00986017,-0.12683522,-0.00000548,-0.05403569,0.72252377,-0.00
 000002,0.00000003,0.00013074,0.00000013,-0.00000007,-0.00033204,-0.000
 00013,-0.00000004,-0.00102481,-0.00000008,0.00000001,0.00007768,-0.000
 00002,-0.00000007,0.00009107,0.00000005,0.,0.00001739,0.,0.,-0.0000580
 8,0.,0.,-0.00011252,0.,0.,0.00000164,0.,0.,0.00000688,0.00000017,-0.00
 000052,0.00061306,-0.00000003,0.00000016,0.00033069,-0.00000261,-0.000
 00056,-0.00148934,0.00000417,-0.00000394,0.00782749,0.00000078,0.00000
 330,0.00079671,-0.00000812,-0.00001794,-0.05686147,0.00000009,-0.00000
 036,0.00360167,0.00000023,-0.00000567,-0.05057119,-0.00000315,0.000040
 21,0.11569976,0.00007396,-0.00010652,0.,-0.00010985,0.00012805,0.,-0.0
 0002634,-0.00007338,0.,0.00002536,0.00000882,0.,0.00000428,0.00010816,
 0.,-0.00015472,-0.00000946,0.,0.00000626,0.00000607,0.,0.00000154,-0.0
 0000362,0.,-0.00001036,0.00000741,0.,-0.00000924,0.00000393,0.,-0.0001
 9230,0.00036788,0.,0.00003927,0.00000946,0.,0.00007934,0.00328784,0.00
 000027,-0.01440364,-0.00767064,-0.00000069,0.00057032,0.00041226,0.000
 00004,-0.33399311,-0.06221014,-0.00000610,0.00067337,0.00010614,0.,0.0
 0140138,-0.00168708,-0.00000019,-0.00465807,0.00242951,0.00000009,0.35
 103808,0.00000314,0.00000789,0.,-0.00004060,-0.00008204,0.,0.00002745,
 0.00017826,-0.00000004,0.00004248,-0.00005019,0.,0.00001229,0.00002930
 ,0.,0.00000091,-0.00002416,0.,-0.00000037,-0.00000222,0.,0.00000054,0.
 00000140,0.,0.00000364,-0.00000379,0.,0.00000263,-0.00000173,0.,0.0003
 7370,-0.00041807,0.,0.00001268,0.00003228,-0.00000001,0.00294771,-0.00
 403675,-0.00000054,0.02307819,0.00768400,0.00000049,0.00055568,-0.0008
 8941,0.00000011,-0.06151675,-0.07253654,-0.00000312,-0.00034065,0.0008
 5333,0.00000021,-0.00095430,-0.00526090,-0.00000084,-0.02911652,0.0008
 4956,-0.00000044,0.06576596,0.07158508,0.,0.,-0.00000397,-0.00000003,0
 .,0.00008265,0.00000003,0.00000005,0.00045199,0.00000002,0.,0.00005342
 ,0.,0.00000002,-0.00005715,0.,0.,0.00000322,0.,0.,0.00001376,0.,0.,0.0
 0003531,0.,0.,-0.00001578,0.,0.,-0.00000801,-0.00000005,0.00000003,0.0
 0019311,0.,0.,-0.00016871,-0.00000024,-0.00000018,0.00382757,0.0000012
 7,-0.00000006,0.00444294,0.00000002,-0.00000031,-0.00153989,-0.0000059
 4,-0.00000315,-0.03404132,-0.00000001,0.00000025,-0.00204571,0.0000001
 1,-0.00000052,0.00679440,-0.00000178,-0.00000044,0.00634542,0.00000656
 ,0.00000368,0.02145089,-0.00012404,0.00003347,0.,0.00011472,0.00005120
 ,0.,-0.00010259,0.00007179,0.,0.00004046,0.00001245,0.,-0.00002156,-0.
 00004338,0.,0.00009381,0.00001619,0.,-0.00000046,-0.00000439,0.,-0.000
 00515,0.00000003,0.,0.00000314,-0.00000108,0.,-0.00000290,-0.00000162,
 0.,0.00023462,-0.00015578,0.,-0.00030788,0.00015088,0.00000002,-0.0033
 7859,0.00314043,0.00000013,-0.00009136,0.00033101,0.,0.00983642,0.0204
 9970,0.00000171,-0.00604575,0.00034842,0.00000002,0.00008839,-0.000096
 45,0.,-0.08845292,-0.09141711,-0.00000688,-0.00368750,-0.02899947,-0.0
 0000217,-0.00038913,-0.00145875,-0.00000008,0.08872548,0.00003491,0.00
 006036,0.00000004,-0.00010440,-0.00014971,0.00000005,0.00004070,0.0000
 5824,0.00000005,-0.00000280,-0.00000011,0.,0.00000799,-0.00004355,0.,0
 .00006313,-0.00001704,0.,-0.00000660,0.00000183,0.,0.00000616,0.000003
 54,0.,0.00000793,-0.00000413,0.,0.00001179,-0.00000245,0.,-0.00012154,
 0.00006242,-0.00000010,0.00031413,-0.00018036,0.00000009,0.00391717,-0
 .00243713,-0.00000022,0.00054059,0.00032168,0.00000001,-0.01393507,-0.
 01707595,-0.00000167,-0.00055610,0.00148888,-0.00000028,-0.00008091,-0
 .00006723,-0.00000012,-0.09072187,-0.31303456,-0.00002140,0.00256282,-
 0.00022791,-0.00000054,0.00006936,-0.00014093,0.00000008,0.09874993,0.
 32882307,0.,-0.00000010,-0.00035185,-0.00000033,-0.00000011,-0.0004021
 0,-0.00000036,0.00000047,-0.00022506,0.00000027,-0.00000004,0.00003048
 ,-0.00000001,0.00000018,-0.00003829,-0.00000007,-0.00000007,0.00009265
 ,0.,0.,-0.00004796,0.,0.,0.00001848,0.,0.,-0.00000440,0.,0.,0.00007950
 ,0.00000007,-0.00000082,0.00066730,0.00000019,0.00000006,-0.00089564,0
 .00000034,0.00000043,0.00198185,0.00000046,-0.00000066,0.00018309,-0.0
 0000273,-0.00000257,0.00401473,-0.00000007,-0.00000034,0.00508904,-0.0
 0000009,-0.00000006,0.00049771,-0.00000655,-0.00002191,-0.03064764,0.0
 0000061,0.00000062,0.00422726,0.,0.00000002,-0.00039476,0.00000748,0.0
 0002381,0.02024265,0.00004552,-0.00002587,0.,0.00000254,0.00010774,-0.
 00000002,0.00014995,-0.00011408,-0.00000005,-0.00006996,0.00000392,0.,
 0.00001283,0.00000664,0.,-0.00006089,0.00001081,0.,0.00000215,0.000002
 86,0.,0.00000609,-0.00000278,0.,-0.00000598,0.00000185,0.,-0.00000392,
 0.00000355,0.,0.00010252,0.00030046,0.00000007,-0.00007954,0.00006917,
 -0.00000005,-0.00041703,-0.00045849,-0.00000019,0.00060618,-0.00245071
 ,-0.00000011,-0.00250843,-0.00426460,-0.00000015,0.00967241,-0.0096200
 5,-0.00000064,0.00037446,-0.00042615,0.00000006,-0.01336908,0.02483023
 ,0.00000161,-0.18228125,0.14335464,0.00000921,0.00068706,0.00037205,0.
 00000004,0.00106910,-0.00033134,-0.00000006,0.18811655,-0.00000198,0.0
 0006538,0.,0.00014127,0.00007326,-0.00000003,0.00017472,-0.00027648,-0
 .00000004,-0.00015523,0.00002804,0.,0.00000421,-0.00012826,0.,0.000077
 21,0.00004181,0.,-0.00000401,-0.00000464,0.,0.00000194,0.00000342,0.,0
 .00000479,-0.00000367,0.,0.00000592,-0.00000162,0.,-0.00021910,0.00007
 213,0.00000004,-0.00008624,0.00001602,-0.00000001,-0.00055313,0.000320
 09,-0.00000005,-0.00308837,-0.00394760,-0.00000068,-0.00230320,0.00011
 366,-0.00000031,0.02217105,-0.01570980,-0.00000120,0.00100782,-0.00107
 280,-0.00000009,-0.00628892,0.00768806,0.00000038,0.14151817,-0.221841
 26,-0.00001246,-0.00015549,0.00100903,0.00000042,0.00031689,0.00062263
 ,0.00000021,-0.15253044,0.23217863,-0.00000003,0.00000007,0.00000978,0
 .00000016,0.00000002,0.00009480,0.00000015,-0.00000018,0.00019246,-0.0
 0000014,0.00000003,0.00000648,0.,-0.00000012,-0.00000351,0.00000008,0.
 00000004,-0.00000962,0.,0.,0.00001153,0.,0.,0.00001504,0.,0.,-0.000000
 55,0.,0.,-0.00001081,0.00000010,0.00000030,-0.00020821,-0.00000011,-0.
 00000006,-0.00003868,0.00000027,-0.00000020,-0.00059740,-0.00000020,-0
 .00000046,0.00636375,-0.00000059,-0.00000062,0.00628166,0.00000160,-0.
 00000093,0.00368258,0.00000006,-0.00000009,0.00038896,0.00000035,0.000
 00036,0.00312003,0.00000838,-0.00001284,-0.03390990,0.00000005,0.00000
 037,-0.00431725,0.00000003,0.00000032,-0.00325848,-0.00000991,0.000013
 62,0.02353021,-0.00215889,-0.00705764,0.00000005,-0.00246828,0.0216266
 2,-0.00000004,-0.05316585,0.03067709,-0.00000152,0.00571371,-0.0027958
 3,0.00000003,-0.00098383,0.00467494,-0.00000003,-0.00547156,-0.0019031
 9,0.00000003,0.00026380,-0.00073710,0.00000004,-0.00070143,-0.00006304
 ,-0.00000004,0.00020624,-0.00012425,0.,-0.00066269,-0.00019278,0.00000
 006,-0.35209674,-0.03208165,0.00000431,-0.04968968,-0.04880034,0.00000
 297,-0.14970951,0.06138645,0.00000628,-0.04094109,0.03214845,0.0000015
 8,0.04439223,0.01221630,-0.00000048,-0.00413550,-0.00980285,0.00000043
 ,0.00023178,0.00073441,-0.00000140,-0.00595165,-0.00249879,-0.00000083
 ,-0.00046875,0.00414057,0.00000074,-0.00051281,0.00069061,0.00000007,0
 .00063877,-0.00106965,0.00000029,0.00008489,-0.00006005,-0.00000042,0.
 64294517,-0.00037583,-0.00058990,0.00000006,0.02139860,-0.01802582,0.0
 0000134,0.01746357,0.01210418,-0.00000121,0.00144009,-0.00627159,0.000
 00058,-0.00035829,-0.00087281,0.00000012,0.00129542,-0.00084317,-0.000
 00006,0.00011531,-0.00043701,0.00000005,-0.00042141,0.00009205,-0.0000
 0005,0.00026646,-0.00048599,-0.00000004,-0.00022036,0.00005244,-0.0000
 0003,-0.02487741,-0.12600416,0.00000370,-0.01063544,-0.17946832,0.0000
 0883,0.04321048,-0.16873754,-0.00000549,0.02395205,0.00988769,0.000000
 60,0.01747468,-0.04685622,-0.00000244,-0.00416249,0.00208894,-0.000001
 27,-0.00162361,0.00013790,0.00000153,-0.01285905,-0.00341561,0.0000000
 2,0.00765444,-0.00067193,-0.00000010,-0.00069767,0.00093595,-0.0000000
 6,0.00078790,-0.00065101,-0.00000056,0.00000222,0.00035767,0.00000040,
 -0.06221184,0.51313566,0.00000030,0.00000004,0.00074527,-0.00000158,0.
 00000004,-0.00112000,-0.00000056,0.00000050,0.00433848,0.00000026,0.00
 000018,0.00135906,0.00000007,0.00000019,0.00121680,-0.00000009,-0.0000
 0004,0.00070627,0.,0.00000003,-0.00032320,0.00000002,-0.00000002,-0.00
 057979,0.,0.,-0.00040758,0.00000003,0.,-0.00020468,0.00000675,0.000003
 65,-0.02134087,0.00000230,0.00000631,-0.01634908,-0.00000234,-0.000000
 43,-0.03253598,0.00000103,0.00000279,0.00713049,0.00000304,-0.00000424
 ,0.00346712,0.00000024,-0.00000247,0.00522369,0.00000010,0.00000029,-0
 .00400355,-0.00000344,0.00000003,-0.00089976,0.00000309,0.00000018,-0.
 00038626,-0.00000001,0.00000012,-0.00105026,0.00000003,-0.00000024,0.0
 0242324,0.00000009,0.00000014,-0.00061117,-0.00001114,-0.00000704,0.06
 188020,-0.00056594,0.00134281,0.00000022,-0.00058247,0.00012044,-0.000
 00027,0.00497087,0.00130652,-0.00000088,-0.00020026,-0.00003080,0.0000
 0010,0.00003776,-0.00102999,0.00000010,0.00166817,0.00014242,0.,-0.000
 14801,0.00012474,-0.00000005,0.00027214,0.00009685,-0.00000008,0.00007
 019,-0.00000836,0.,0.00010498,-0.00000849,-0.00000004,0.00288824,0.021
 50959,0.00000350,0.00009885,-0.00162807,-0.00000032,-0.03783431,-0.054
 79757,-0.00000274,0.00288630,-0.00505142,-0.00000018,-0.55620585,-0.08
 264240,-0.00000585,-0.00955552,-0.00918484,-0.00000064,-0.00187617,-0.
 00094049,0.00000010,-0.08920171,0.02505431,0.00000099,0.01728677,0.017
 38814,0.00000078,-0.00020359,-0.00047087,-0.00000002,0.00181251,0.0006
 0783,0.00000067,-0.00229016,0.00007275,0.00000012,-0.02116280,0.007918
 41,-0.00000005,0.68060586,-0.00031691,-0.00023141,-0.00000003,0.000780
 84,-0.00161240,0.00000035,-0.00470895,-0.00125205,0.00000026,0.0002886
 2,-0.00029223,0.,0.00001578,0.00034929,-0.00000001,-0.00002848,-0.0003
 2692,0.,0.00004661,-0.00015775,0.00000003,0.00006159,0.00003447,0.,0.0
 0007367,-0.00005812,0.,0.00001547,-0.00002942,0.,0.01394860,-0.0210820
 2,-0.00000299,0.00024332,0.00158010,-0.00000014,-0.05155100,-0.0134426
 6,0.00000037,-0.00039588,-0.01093419,-0.00000161,-0.08148554,-0.097672
 60,-0.00000140,0.00053763,-0.00122878,0.00000021,-0.00256243,-0.000455
 31,-0.00000063,0.03472589,0.02036914,-0.00000078,0.00170797,-0.0033163
 1,-0.00000103,-0.00010737,0.00035308,0.00000023,-0.00241929,0.00262348
 ,0.00000114,0.00146469,0.00039765,0.00000014,0.00218863,0.00859152,0.0
 0000104,0.09333997,0.12236767,-0.00000015,-0.00000002,0.00022701,0.000
 00034,-0.00000042,-0.00024364,-0.00000098,-0.00000013,-0.00024851,0.,0
 .,0.00008441,-0.00000004,-0.00000004,0.00018516,0.00000009,-0.00000005
 ,0.00003229,0.00000002,-0.00000003,-0.00008341,0.,0.,-0.00020584,0.000
 00001,-0.00000001,-0.00001663,0.,0.,-0.00006416,0.00000225,-0.00000428
 ,0.00663032,-0.00000004,0.00000043,-0.00072171,-0.00000128,-0.00000270
 ,0.01944853,-0.00000070,-0.00000018,0.00241072,-0.00000613,-0.00000087
 ,-0.05471354,0.00000010,-0.00000079,0.00025228,0.00000004,0.00000016,-
 0.00226058,0.00000081,0.00000024,0.01572335,0.00000070,0.00000037,0.00
 436881,0.,0.,0.00007077,-0.00000028,0.00000020,-0.00367191,0.00000008,
 0.00000002,-0.00057293,0.00000084,0.00000141,-0.00338361,0.00000656,0.
 00000414,0.01969410,0.00145271,0.00036184,0.00000002,-0.00251878,0.006
 03871,-0.00000030,0.01567219,0.02355394,-0.00000180,0.00113827,0.00163
 840,0.00000035,-0.00033392,-0.00031325,0.00000001,-0.00047119,0.000009
 11,0.,-0.00018219,0.00031247,0.,-0.00203606,-0.00080971,-0.00000013,0.
 00000276,-0.00001446,0.,-0.00006373,-0.00008761,0.00000001,-0.18950834
 ,-0.22659818,0.00001696,-0.00395216,-0.00109153,0.00000012,0.00179738,
 0.00038344,-0.00000062,0.00010024,-0.00012441,0.00000006,-0.00790531,-
 0.00046036,0.00000005,0.00022934,0.00037733,-0.00000014,0.00018911,0.0
 0010487,0.00000024,0.00178188,-0.00006554,0.00000043,-0.00059006,-0.00
 000129,-0.00000012,0.00006294,0.00000915,0.00000003,-0.00004760,-0.000
 00415,-0.00000012,0.00015401,-0.00005057,0.00000003,-0.00419552,-0.024
 53625,0.00000187,0.00712414,-0.00586341,-0.00000223,0.18209990,-0.0004
 9062,-0.00056906,0.00000008,0.00296530,-0.00149779,0.00000037,-0.00722
 384,-0.02993792,0.00000267,-0.00186565,0.00245040,0.00000034,-0.000355
 03,-0.00113443,-0.00000006,-0.00007381,0.00074062,-0.00000002,0.000183
 21,-0.00011052,0.,0.00081237,-0.00026705,-0.00000005,-0.00014808,0.000
 16849,0.,-0.00000127,0.00006693,-0.00000001,-0.21469119,-0.38980995,0.
 00003322,0.00269007,0.00495065,-0.00000034,-0.00334732,0.00146062,0.00
 000111,0.00261920,-0.00124069,-0.00000030,0.01157303,0.00358945,0.0000
 0052,-0.00211921,0.00256363,0.00000056,-0.00040112,-0.00017174,-0.0000
 0063,-0.00213789,-0.00037477,-0.00000057,-0.00069428,-0.00203164,0.000
 00005,0.00001054,-0.00007243,-0.00000002,0.00008702,-0.00003409,0.0000
 0032,-0.00030632,-0.00000139,-0.00000017,-0.00108509,0.00594707,-0.000
 00105,-0.01323149,-0.00457419,0.00000253,0.22723146,0.40988980,0.00000
 014,0.00000013,0.00055678,0.00000003,0.00000057,0.00351069,0.00000193,
 0.00000084,0.00496311,0.,0.00000046,-0.00146811,0.00000007,-0.00000022
 ,-0.00062548,0.00000006,0.00000009,-0.00001242,-0.00000003,0.00000002,
 -0.00006728,-0.00000008,-0.00000020,0.00020681,0.,0.,0.00011058,0.,0.,
 -0.00000974,0.00001658,0.00003677,-0.00615134,-0.00000044,-0.00000019,
 0.00407409,0.00000042,-0.00000096,0.00006387,-0.00000125,0.00000073,-0
 .00046938,0.00000073,0.00000106,0.00043835,0.00000042,-0.00000093,0.00
 050023,0.00000002,0.00000006,-0.00066957,-0.00000054,-0.00000017,-0.00
 080968,0.00000047,0.00000011,0.00060935,-0.00000002,0.,-0.00012263,0.0
 0000002,-0.00000006,0.00039009,0.,0.00000004,-0.00015879,-0.00000183,-
 0.00000030,-0.00529481,-0.00000201,0.00000072,-0.00294128,-0.00001473,
 -0.00003854,0.00337654\\0.00193002,0.00563712,-0.00000028,0.00806513,0
 .01108475,-0.00000054,0.01405457,0.00000263,0.00000012,-0.00153507,0.0
 0276789,0.00000016,-0.00031392,-0.00368106,0.00000014,0.00238806,0.002
 35962,-0.00000020,-0.00006276,0.00076132,-0.00000021,0.00039629,0.0000
 5703,0.00000006,0.00004164,0.00023182,0.00000001,0.00019648,0.00025491
 ,-0.00000007,-0.02056683,0.01326433,0.00000197,0.00468657,0.01225895,-
 0.00000074,-0.01210590,0.00766125,0.00000273,0.01175826,-0.00118633,0.
 00000026,0.02101484,0.00404460,-0.00000293,-0.00443773,0.01130905,0.,0
 .00026567,-0.00003680,0.00000017,-0.00503914,0.00037400,0.00000083,-0.
 00756700,-0.00133034,0.00000011,-0.00022635,-0.00003673,-0.00000003,-0
 .00047185,0.00000228,-0.00000007,-0.00077544,-0.00021414,0.00000009,-0
 .01276152,-0.00856520,-0.00000225,-0.01125592,-0.01653060,0.00000024,0
 .01232190,-0.04049037,0.00000045\\\@
 The archive entry for this job was punched.


 BULLDOZER: SOMEONE WHO SLEEPS THROUGH SPEECHES.
 Job cpu time:       0 days  2 hours 51 minutes 56.4 seconds.
 Elapsed time:       0 days  0 hours 17 minutes 50.0 seconds.
 File lengths (MBytes):  RWF=   1376 Int=      0 D2E=      0 Chk=     48 Scr=      8
 Normal termination of Gaussian 16 at Tue Jul 14 12:01:56 2020.
