 Entering Gaussian System, Link 0=g16
 Initial command:
 /gpfs/loomis/apps/avx/software/Gaussian/16-C.01_AVX/g16/l1.exe "/home/fas/batista/pev4/scratch60/gauss-scratch/Gau-93527.inp" -scrdir="/home/fas/batista/pev4/scratch60/gauss-scratch/"
 Entering Link 1 = /gpfs/loomis/apps/avx/software/Gaussian/16-C.01_AVX/g16/l1.exe PID=     93528.
  
 Copyright (c) 1988-2019, Gaussian, Inc.  All Rights Reserved.
  
 This is part of the Gaussian(R) 16 program.  It is based on
 the Gaussian(R) 09 system (copyright 2009, Gaussian, Inc.),
 the Gaussian(R) 03 system (copyright 2003, Gaussian, Inc.),
 the Gaussian(R) 98 system (copyright 1998, Gaussian, Inc.),
 the Gaussian(R) 94 system (copyright 1995, Gaussian, Inc.),
 the Gaussian 92(TM) system (copyright 1992, Gaussian, Inc.),
 the Gaussian 90(TM) system (copyright 1990, Gaussian, Inc.),
 the Gaussian 88(TM) system (copyright 1988, Gaussian, Inc.),
 the Gaussian 86(TM) system (copyright 1986, Carnegie Mellon
 University), and the Gaussian 82(TM) system (copyright 1983,
 Carnegie Mellon University). Gaussian is a federally registered
 trademark of Gaussian, Inc.
  
 This software contains proprietary and confidential information,
 including trade secrets, belonging to Gaussian, Inc.
  
 This software is provided under written license and may be
 used, copied, transmitted, or stored only in accord with that
 written license.
  
 The following legend is applicable only to US Government
 contracts under FAR:
  
                    RESTRICTED RIGHTS LEGEND
  
 Use, reproduction and disclosure by the US Government is
 subject to restrictions as set forth in subparagraphs (a)
 and (c) of the Commercial Computer Software - Restricted
 Rights clause in FAR 52.227-19.
  
 Gaussian, Inc.
 340 Quinnipiac St., Bldg. 40, Wallingford CT 06492
  
  
 ---------------------------------------------------------------
 Warning -- This program may not be used in any manner that
 competes with the business of Gaussian, Inc. or will provide
 assistance to any competitor of Gaussian, Inc.  The licensee
 of this program is prohibited from giving any competitor of
 Gaussian, Inc. access to this program.  By using this program,
 the user acknowledges that Gaussian, Inc. is engaged in the
 business of creating and licensing software in the field of
 computational chemistry and represents and warrants to the
 licensee that it is not a competitor of Gaussian, Inc. and that
 it will not use this program in any manner prohibited above.
 ---------------------------------------------------------------
  

 Cite this work as:
 Gaussian 16, Revision C.01,
 M. J. Frisch, G. W. Trucks, H. B. Schlegel, G. E. Scuseria, 
 M. A. Robb, J. R. Cheeseman, G. Scalmani, V. Barone, 
 G. A. Petersson, H. Nakatsuji, X. Li, M. Caricato, A. V. Marenich, 
 J. Bloino, B. G. Janesko, R. Gomperts, B. Mennucci, H. P. Hratchian, 
 J. V. Ortiz, A. F. Izmaylov, J. L. Sonnenberg, D. Williams-Young, 
 F. Ding, F. Lipparini, F. Egidi, J. Goings, B. Peng, A. Petrone, 
 T. Henderson, D. Ranasinghe, V. G. Zakrzewski, J. Gao, N. Rega, 
 G. Zheng, W. Liang, M. Hada, M. Ehara, K. Toyota, R. Fukuda, 
 J. Hasegawa, M. Ishida, T. Nakajima, Y. Honda, O. Kitao, H. Nakai, 
 T. Vreven, K. Throssell, J. A. Montgomery, Jr., J. E. Peralta, 
 F. Ogliaro, M. J. Bearpark, J. J. Heyd, E. N. Brothers, K. N. Kudin, 
 V. N. Staroverov, T. A. Keith, R. Kobayashi, J. Normand, 
 K. Raghavachari, A. P. Rendell, J. C. Burant, S. S. Iyengar, 
 J. Tomasi, M. Cossi, J. M. Millam, M. Klene, C. Adamo, R. Cammi, 
 J. W. Ochterski, R. L. Martin, K. Morokuma, O. Farkas, 
 J. B. Foresman, and D. J. Fox, Gaussian, Inc., Wallingford CT, 2019.
 
 ******************************************
 Gaussian 16:  ES64L-G16RevC.01  3-Jul-2019
                13-Jul-2020 
 ******************************************
 %chk=config_1_3.chk
 %mem=58GB
 %nprocshared=10
 Will use up to   10 processors via shared memory.
 ----------------------------------------------------------------------
 #p opt=addgic freq td wb97xd/cc-pvdz nosymm int=ultrafine scrf=(solven
 t=CarbonTetraChloride)
 ----------------------------------------------------------------------
 1/18=20,19=15,26=6,38=1,145=903/1,3;
 2/9=110,12=2,15=1,17=6,18=5,40=1/2;
 3/5=16,11=9,25=1,30=1,70=2201,71=1,72=11,74=-58,75=-5/1,2,3,8;
 4//1;
 5/5=2,38=5,53=11/2;
 8/6=1,10=1/1;
 9/15=2,42=1,70=2/14;
 10/5=4,31=1/2;
 6/7=2,8=2,9=2,10=2/1;
 7/12=6,13=5,30=1/1,2,3,16;
 1/18=20,19=15,26=6,145=903/3(2);
 2/9=110,15=1/2;
 99//99;
 2/9=110,15=1/2;
 3/5=16,11=9,25=1,30=1,70=2205,71=1,72=11,74=-58,75=-5/1,2,3,8;
 4/5=5,16=3,69=1/1;
 5/5=2,38=5,53=11/2;
 8/6=1,10=1/1;
 9/15=2,42=1,49=4,70=2/14;
 10/5=4,31=1/2;
 7/12=6,13=5,30=1/1,2,3,16;
 1/18=20,19=15,26=6,145=903/3(-8);
 2/9=110,15=1/2;
 6/7=2,8=2,9=2,10=2/1;
 99/9=10/99;
 Leave Link    1 at Mon Jul 13 19:47:20 2020, MaxMem=  7784628224 cpu:               4.8 elap:               0.6
 (Enter /gpfs/loomis/apps/avx/software/Gaussian/16-C.01_AVX/g16/l101.exe)
 ------------------------------------------------
 NM 2D-scan of HBT TD-WB97XD pVDZ in CTC Relaxed.
 ------------------------------------------------
 Symbolic Z-matrix:
 Charge =  0 Multiplicity = 1
 C                     1.73205  -3.27803  -0.00002 
 C                     0.99156  -2.09709  -0.00002 
 C                     1.65173  -0.8252   -0.00002 
 C                     3.08248  -0.76842  -0.00002 
 C                     3.79442  -1.94644  -0.00002 
 C                     3.12938  -3.19701  -0.00002 
 H                     1.23764  -4.25298  -0.00003 
 H                     3.56952   0.2105   -0.00002 
 H                     4.88708  -1.92427  -0.00002 
 H                     3.71692  -4.11818  -0.00003 
 N                     0.87482   0.22652  -0.00002 
 S                    -0.7501   -1.83442  -0.00002 
 C                    -1.39745   0.9939   0. 
 C                    -2.83013   0.88289  -0.00001 
 C                    -0.89194   2.38491   0.00003 
 C                    -3.6387    2.0015    0.00002 
 H                    -3.27227  -0.11486  -0.00004 
 C                    -1.73314   3.5006    0.00006 
 C                    -3.10909   3.32595   0.00006 
 H                    -4.72411   1.8711    0.00002 
 H                    -1.27194   4.49018   0.00009 
 H                    -3.77892   4.18734   0.00009 
 C                    -0.45379  -0.05457  -0.00001 
 O                     0.42012   2.61829   0.00003 
 H                     0.71131   2.15459   0.00002 
 
 Initializing the GIC definitions file.
 Number of initial coordinates =   131
 Number of input entries/lines =    52
 Number of additional coordinates =     2
 Number of removed coordinates =     0
 Number of frozen coordinates =     2
 Number of final active and frozen coordinates =   133
 ITRead=  0  0  0  0  0  0  0  0  0  0  0  0  0  0  0  0  0  0  0  0
 ITRead=  0  0  0  0  0
 MicOpt= -1 -1 -1 -1 -1 -1 -1 -1 -1 -1 -1 -1 -1 -1 -1 -1 -1 -1 -1 -1
 MicOpt= -1 -1 -1 -1 -1
 NAtoms=     25 NQM=       25 NQMF=       0 NMMI=      0 NMMIF=      0
                NMic=       0 NMicF=      0.
                    Isotopes and Nuclear Properties:
 (Nuclear quadrupole moments (NQMom) in fm**2, nuclear magnetic moments (NMagM)
  in nuclear magnetons)

  Atom         1           2           3           4           5           6           7           8           9          10
 IAtWgt=          12          12          12          12          12          12           1           1           1           1
 AtmWgt=  12.0000000  12.0000000  12.0000000  12.0000000  12.0000000  12.0000000   1.0078250   1.0078250   1.0078250   1.0078250
 NucSpn=           0           0           0           0           0           0           1           1           1           1
 AtZEff=  -0.0000000  -0.0000000  -0.0000000  -0.0000000  -0.0000000  -0.0000000  -0.0000000  -0.0000000  -0.0000000  -0.0000000
 NQMom=    0.0000000   0.0000000   0.0000000   0.0000000   0.0000000   0.0000000   0.0000000   0.0000000   0.0000000   0.0000000
 NMagM=    0.0000000   0.0000000   0.0000000   0.0000000   0.0000000   0.0000000   2.7928460   2.7928460   2.7928460   2.7928460
 AtZNuc=   6.0000000   6.0000000   6.0000000   6.0000000   6.0000000   6.0000000   1.0000000   1.0000000   1.0000000   1.0000000

  Atom        11          12          13          14          15          16          17          18          19          20
 IAtWgt=          14          32          12          12          12          12           1          12          12           1
 AtmWgt=  14.0030740  31.9720718  12.0000000  12.0000000  12.0000000  12.0000000   1.0078250  12.0000000  12.0000000   1.0078250
 NucSpn=           2           0           0           0           0           0           1           0           0           1
 AtZEff=  -0.0000000  -0.0000000  -0.0000000  -0.0000000  -0.0000000  -0.0000000  -0.0000000  -0.0000000  -0.0000000  -0.0000000
 NQMom=    2.0440000   0.0000000   0.0000000   0.0000000   0.0000000   0.0000000   0.0000000   0.0000000   0.0000000   0.0000000
 NMagM=    0.4037610   0.0000000   0.0000000   0.0000000   0.0000000   0.0000000   2.7928460   0.0000000   0.0000000   2.7928460
 AtZNuc=   7.0000000  16.0000000   6.0000000   6.0000000   6.0000000   6.0000000   1.0000000   6.0000000   6.0000000   1.0000000

  Atom        21          22          23          24          25
 IAtWgt=           1           1          12          16           1
 AtmWgt=   1.0078250   1.0078250  12.0000000  15.9949146   1.0078250
 NucSpn=           1           1           0           0           1
 AtZEff=  -0.0000000  -0.0000000  -0.0000000  -0.0000000  -0.0000000
 NQMom=    0.0000000   0.0000000   0.0000000   0.0000000   0.0000000
 NMagM=    2.7928460   2.7928460   0.0000000   0.0000000   2.7928460
 AtZNuc=   1.0000000   1.0000000   6.0000000   8.0000000   1.0000000
 Leave Link  101 at Mon Jul 13 19:47:24 2020, MaxMem=  7784628224 cpu:              35.2 elap:               3.7
 (Enter /gpfs/loomis/apps/avx/software/Gaussian/16-C.01_AVX/g16/l103.exe)

 GradGradGradGradGradGradGradGradGradGradGradGradGradGradGradGradGradGrad
 Berny optimization.
 Initialization pass.
                           ----------------------------
                           !    Initial Parameters    !
                           ! (Angstroms and Degrees)  !
 --------------------------                            --------------------------
 ! Name  Definition              Value          Derivative Info.                !
 --------------------------------------------------------------------------------
 ! R1    R(1,2)                  1.3939         estimate D2E/DX2                !
 ! R2    R(1,6)                  1.3997         estimate D2E/DX2                !
 ! R3    R(1,7)                  1.0931         estimate D2E/DX2                !
 ! R4    R(2,3)                  1.433          estimate D2E/DX2                !
 ! R5    R(2,12)                 1.7614         estimate D2E/DX2                !
 ! R6    R(3,4)                  1.4319         estimate D2E/DX2                !
 ! R7    R(3,11)                 1.3076         estimate D2E/DX2                !
 ! R8    R(4,5)                  1.3764         estimate D2E/DX2                !
 ! R9    R(4,8)                  1.0934         estimate D2E/DX2                !
 ! R10   R(5,6)                  1.4164         estimate D2E/DX2                !
 ! R11   R(5,9)                  1.0929         estimate D2E/DX2                !
 ! R12   R(6,10)                 1.0926         estimate D2E/DX2                !
 ! R13   R(11,23)                1.358          estimate D2E/DX2                !
 ! R14   R(12,23)                1.8043         estimate D2E/DX2                !
 ! R15   R(13,14)                1.437          estimate D2E/DX2                !
 ! R16   R(13,15)                1.48           estimate D2E/DX2                !
 ! R17   R(13,23)                1.4106         estimate D2E/DX2                !
 ! R18   R(14,16)                1.3802         estimate D2E/DX2                !
 ! R19   R(14,17)                1.0913         estimate D2E/DX2                !
 ! R20   R(15,18)                1.3973         estimate D2E/DX2                !
 ! R21   R(15,24)                1.3327         estimate D2E/DX2                !
 ! R22   R(16,19)                1.4264         estimate D2E/DX2                !
 ! R23   R(16,20)                1.0932         estimate D2E/DX2                !
 ! R24   R(18,19)                1.387          estimate D2E/DX2                !
 ! R25   R(18,21)                1.0918         estimate D2E/DX2                !
 ! R26   R(19,22)                1.0912         estimate D2E/DX2                !
 ! R27   R(24,25)                0.5475         estimate D2E/DX2                !
 ! A1    A(2,1,6)              118.7706         estimate D2E/DX2                !
 ! A2    A(2,1,7)              121.0204         estimate D2E/DX2                !
 ! A3    A(6,1,7)              120.209          estimate D2E/DX2                !
 ! A4    A(1,2,3)              120.4792         estimate D2E/DX2                !
 ! A5    A(1,2,12)             130.6658         estimate D2E/DX2                !
 ! A6    A(3,2,12)             108.855          estimate D2E/DX2                !
 ! A7    A(2,3,4)              119.7042         estimate D2E/DX2                !
 ! A8    A(2,3,11)             116.1149         estimate D2E/DX2                !
 ! A9    A(4,3,11)             124.1809         estimate D2E/DX2                !
 ! A10   A(3,4,5)              118.8743         estimate D2E/DX2                !
 ! A11   A(3,4,8)              118.7243         estimate D2E/DX2                !
 ! A12   A(5,4,8)              122.4014         estimate D2E/DX2                !
 ! A13   A(4,5,6)              120.8492         estimate D2E/DX2                !
 ! A14   A(4,5,9)              119.9848         estimate D2E/DX2                !
 ! A15   A(6,5,9)              119.166          estimate D2E/DX2                !
 ! A16   A(1,6,5)              121.3224         estimate D2E/DX2                !
 ! A17   A(1,6,10)             119.2118         estimate D2E/DX2                !
 ! A18   A(5,6,10)             119.4658         estimate D2E/DX2                !
 ! A19   A(3,11,23)            114.5076         estimate D2E/DX2                !
 ! A20   A(2,12,23)             89.1249         estimate D2E/DX2                !
 ! A21   A(14,13,15)           114.4023         estimate D2E/DX2                !
 ! A22   A(14,13,23)           127.5574         estimate D2E/DX2                !
 ! A23   A(15,13,23)           118.0403         estimate D2E/DX2                !
 ! A24   A(13,14,16)           121.4301         estimate D2E/DX2                !
 ! A25   A(13,14,17)           118.3307         estimate D2E/DX2                !
 ! A26   A(16,14,17)           120.2392         estimate D2E/DX2                !
 ! A27   A(13,15,18)           123.0131         estimate D2E/DX2                !
 ! A28   A(13,15,24)           120.0575         estimate D2E/DX2                !
 ! A29   A(18,15,24)           116.9294         estimate D2E/DX2                !
 ! A30   A(14,16,19)           122.3442         estimate D2E/DX2                !
 ! A31   A(14,16,20)           119.0105         estimate D2E/DX2                !
 ! A32   A(19,16,20)           118.6453         estimate D2E/DX2                !
 ! A33   A(15,18,19)           119.7815         estimate D2E/DX2                !
 ! A34   A(15,18,21)           117.9968         estimate D2E/DX2                !
 ! A35   A(19,18,21)           122.2217         estimate D2E/DX2                !
 ! A36   A(16,19,18)           119.0287         estimate D2E/DX2                !
 ! A37   A(16,19,22)           120.3361         estimate D2E/DX2                !
 ! A38   A(18,19,22)           120.6352         estimate D2E/DX2                !
 ! A39   A(11,23,12)           111.3976         estimate D2E/DX2                !
 ! A40   A(11,23,13)           120.0422         estimate D2E/DX2                !
 ! A41   A(12,23,13)           128.5602         estimate D2E/DX2                !
 ! A42   A(15,24,25)           112.0416         estimate D2E/DX2                !
 ! D1    D(6,1,2,3)              0.0001         estimate D2E/DX2                !
 ! D2    D(6,1,2,12)          -179.9999         estimate D2E/DX2                !
 ! D3    D(7,1,2,3)            180.0            estimate D2E/DX2                !
 ! D4    D(7,1,2,12)             0.0            estimate D2E/DX2                !
 ! D5    D(2,1,6,5)              0.0            estimate D2E/DX2                !
 ! D6    D(2,1,6,10)           180.0            estimate D2E/DX2                !
 ! D7    D(7,1,6,5)           -179.9999         estimate D2E/DX2                !
 ! D8    D(7,1,6,10)             0.0001         estimate D2E/DX2                !
 ! D9    D(1,2,3,4)             -0.0001         estimate D2E/DX2                !
 ! D10   D(1,2,3,11)           179.9999         estimate D2E/DX2                !
 ! D11   D(12,2,3,4)           179.9999         estimate D2E/DX2                !
 ! D12   D(12,2,3,11)           -0.0001         estimate D2E/DX2                !
 ! D13   D(1,2,12,23)          180.0            estimate D2E/DX2                !
 ! D14   D(3,2,12,23)            0.0            estimate D2E/DX2                !
 ! D15   D(2,3,4,5)              0.0001         estimate D2E/DX2                !
 ! D16   D(2,3,4,8)           -179.9999         estimate D2E/DX2                !
 ! D17   D(11,3,4,5)          -180.0            estimate D2E/DX2                !
 ! D18   D(11,3,4,8)             0.0            estimate D2E/DX2                !
 ! D19   D(2,3,11,23)            0.0002         estimate D2E/DX2                !
 ! D20   D(4,3,11,23)         -179.9998         estimate D2E/DX2                !
 ! D21   D(3,4,5,6)              0.0            estimate D2E/DX2                !
 ! D22   D(3,4,5,9)            180.0            estimate D2E/DX2                !
 ! D23   D(8,4,5,6)           -180.0            estimate D2E/DX2                !
 ! D24   D(8,4,5,9)              0.0            estimate D2E/DX2                !
 ! D25   D(4,5,6,1)              0.0            estimate D2E/DX2                !
 ! D26   D(4,5,6,10)           180.0            estimate D2E/DX2                !
 ! D27   D(9,5,6,1)            180.0            estimate D2E/DX2                !
 ! D28   D(9,5,6,10)             0.0            estimate D2E/DX2                !
 ! D29   D(3,11,23,12)          -0.0002         estimate D2E/DX2                !
 ! D30   D(3,11,23,13)         179.9995         estimate D2E/DX2                !
 ! D31   D(2,12,23,11)           0.0001         estimate D2E/DX2                !
 ! D32   D(2,12,23,13)        -179.9996         estimate D2E/DX2                !
 ! D33   D(15,13,14,16)         -0.0006         estimate D2E/DX2                !
 ! D34   D(15,13,14,17)        179.9996         estimate D2E/DX2                !
 ! D35   D(23,13,14,16)        179.9992         estimate D2E/DX2                !
 ! D36   D(23,13,14,17)         -0.0006         estimate D2E/DX2                !
 ! D37   D(14,13,15,18)          0.0008         estimate D2E/DX2                !
 ! D38   D(14,13,15,24)       -179.9994         estimate D2E/DX2                !
 ! D39   D(23,13,15,18)       -179.9991         estimate D2E/DX2                !
 ! D40   D(23,13,15,24)          0.0008         estimate D2E/DX2                !
 ! D41   D(14,13,23,11)        179.9992         estimate D2E/DX2                !
 ! D42   D(14,13,23,12)         -0.0011         estimate D2E/DX2                !
 ! D43   D(15,13,23,11)         -0.001          estimate D2E/DX2                !
 ! D44   D(15,13,23,12)        179.9987         estimate D2E/DX2                !
 ! D45   D(13,14,16,19)          0.0001         estimate D2E/DX2                !
 ! D46   D(13,14,16,20)       -179.9998         estimate D2E/DX2                !
 ! D47   D(17,14,16,19)        179.9999         estimate D2E/DX2                !
 ! D48   D(17,14,16,20)          0.0            estimate D2E/DX2                !
 ! D49   D(13,15,18,19)         -0.0003         estimate D2E/DX2                !
 ! D50   D(13,15,18,21)        179.9998         estimate D2E/DX2                !
 ! D51   D(24,15,18,19)        179.9998         estimate D2E/DX2                !
 ! D52   D(24,15,18,21)         -0.0001         estimate D2E/DX2                !
 ! D53   D(13,15,24,25)         -0.0008         estimate D2E/DX2                !
 ! D54   D(18,15,24,25)        179.9991         estimate D2E/DX2                !
 ! D55   D(14,16,19,18)          0.0003         estimate D2E/DX2                !
 ! D56   D(14,16,19,22)       -179.9998         estimate D2E/DX2                !
 ! D57   D(20,16,19,18)       -179.9997         estimate D2E/DX2                !
 ! D58   D(20,16,19,22)          0.0002         estimate D2E/DX2                !
 ! D59   D(15,18,19,16)         -0.0002         estimate D2E/DX2                !
 ! D60   D(15,18,19,22)        179.9999         estimate D2E/DX2                !
 ! D61   D(21,18,19,16)        179.9997         estimate D2E/DX2                !
 ! D62   D(21,18,19,22)         -0.0003         estimate D2E/DX2                !
 ! Qtot  GIC-1                 -50.0            Frozen                          !
 ! Ptot  GIC-2                 -100.0           Frozen                          !
 --------------------------------------------------------------------------------
 NOTE: GIC-type coordinates are in arbitrary units.
 Trust Radius=3.00D-01 FncErr=5.00D-06 GrdErr=5.00D-06 EigMax=2.50D+02 EigMin=1.00D-04
 Number of steps in this run=    143 maximum allowed number of steps=    150.
 GradGradGradGradGradGradGradGradGradGradGradGradGradGradGradGradGradGrad

 Leave Link  103 at Mon Jul 13 19:47:24 2020, MaxMem=  7784628224 cpu:               0.2 elap:               0.0
 (Enter /gpfs/loomis/apps/avx/software/Gaussian/16-C.01_AVX/g16/l202.exe)
                          Input orientation:                          
 ---------------------------------------------------------------------
 Center     Atomic      Atomic             Coordinates (Angstroms)
 Number     Number       Type             X           Y           Z
 ---------------------------------------------------------------------
      1          6           0        1.732054   -3.278032   -0.000024
      2          6           0        0.991559   -2.097089   -0.000021
      3          6           0        1.651733   -0.825202   -0.000019
      4          6           0        3.082480   -0.768422   -0.000019
      5          6           0        3.794423   -1.946440   -0.000022
      6          6           0        3.129379   -3.197007   -0.000025
      7          1           0        1.237641   -4.252980   -0.000025
      8          1           0        3.569522    0.210500   -0.000017
      9          1           0        4.887078   -1.924274   -0.000022
     10          1           0        3.716919   -4.118181   -0.000027
     11          7           0        0.874820    0.226520   -0.000018
     12         16           0       -0.750095   -1.834417   -0.000018
     13          6           0       -1.397450    0.993900   -0.000001
     14          6           0       -2.830126    0.882890   -0.000010
     15          6           0       -0.891943    2.384911    0.000030
     16          6           0       -3.638700    2.001500    0.000021
     17          1           0       -3.272268   -0.114861   -0.000040
     18          6           0       -1.733140    3.500598    0.000063
     19          6           0       -3.109094    3.325949    0.000062
     20          1           0       -4.724114    1.871104    0.000016
     21          1           0       -1.271942    4.490185    0.000088
     22          1           0       -3.778916    4.187336    0.000090
     23          6           0       -0.453794   -0.054574   -0.000013
     24          8           0        0.420117    2.618290    0.000029
     25          1           0        0.711305    2.154590    0.000023
 ---------------------------------------------------------------------
                    Distance matrix (angstroms):
                    1          2          3          4          5
     1  C    0.000000
     2  C    1.393900   0.000000
     3  C    2.454145   1.433013   0.000000
     4  C    2.849876   2.477358   1.431872   0.000000
     5  C    2.454894   2.806910   2.418325   1.376442   0.000000
     6  C    1.399672   2.404182   2.794440   2.429038   1.416404
     7  H    1.093146   2.169890   3.452700   3.942788   3.443437
     8  H    3.942860   3.459893   2.179585   1.093389   2.168634
     9  H    3.433196   3.899350   3.416930   2.143028   1.092879
    10  H    2.155352   3.392993   3.886992   3.409311   2.173123
    11  N    3.607871   2.326540   1.307561   2.421502   3.639484
    12  S    2.871426   1.761351   2.605244   3.978062   4.545899
    13  C    5.295583   3.906607   3.550585   4.814099   5.966670
    14  C    6.174686   4.846189   4.796315   6.138871   7.203455
    15  C    6.241336   4.861677   4.095743   5.073415   6.381429
    16  C    7.531166   6.183667   5.998244   7.269575   8.416505
    17  H    5.920210   4.702068   4.974974   6.388267   7.300192
    18  C    7.612975   6.225599   5.492714   6.435427   7.760424
    19  C    8.188363   6.798875   6.316450   7.422901   8.686579
    20  H    8.258069   6.958123   6.922535   8.240752   9.334834
    21  H    8.328816   6.965315   6.066400   6.827439   8.191349
    22  H    9.279143   7.889957   7.390364   8.463940   9.745700
    23  C    3.894690   2.502182   2.242123   3.607605   4.650431
    24  O    6.040513   4.749879   3.657119   4.307899   5.676505
    25  H    5.527686   4.260906   3.124671   3.763837   5.130699
                    6          7          8          9         10
     6  C    0.000000
     7  H    2.166506   0.000000
     8  H    3.435816   5.035903   0.000000
     9  H    2.170105   4.329118   2.508628   0.000000
    10  H    1.092596   2.482940   4.331191   2.486464   0.000000
    11  N    4.099216   4.494170   2.694750   4.552376   5.191721
    12  S    4.111808   3.130582   4.779203   5.637889   5.016951
    13  C    6.168945   5.871410   5.028372   6.928999   7.231193
    14  C    7.222274   6.551632   6.434873   8.211906   8.238599
    15  C    6.879595   6.971135   4.963137   7.208755   7.970685
    16  C    8.534129   7.930777   7.427391   9.386192   9.568471
    17  H    7.104977   6.120727   6.849521   8.357565   8.054521
    18  C    8.276593   8.303223   6.240430   8.559002   9.367441
    19  C    9.025935   8.736949   7.369528   9.565752  10.099977
    20  H    9.346822   8.546750   8.458250  10.333436  10.350004
    21  H    8.858021   9.096205   6.461847   8.892626   9.949508
    22  H   10.112025   9.818593   8.355522  10.604302  11.187902
    23  C    4.765922   4.526319   4.032039   5.658683   5.823037
    24  O    6.415433   6.919733   3.964367   6.370921   7.499931
    25  H    5.872536   6.429152   3.456716   5.837312   6.955673
                   11         12         13         14         15
    11  N    0.000000
    12  S    2.624464   0.000000
    13  C    2.398350   2.901456   0.000000
    14  C    3.762638   3.422029   1.436970   0.000000
    15  C    2.789283   4.221711   1.480016   2.452064   0.000000
    16  C    4.849991   4.801906   2.457328   1.380247   2.773388
    17  H    4.161114   3.052577   2.178140   1.091328   3.451783
    18  C    4.185814   5.424828   2.529075   2.838269   1.397272
    19  C    5.047577   5.673998   2.892781   2.458936   2.408592
    20  H    5.835470   5.433572   3.440375   2.136295   3.866462
    21  H    4.773617   6.346094   3.498536   3.929442   2.139294
    22  H    6.111081   6.740568   3.983643   3.437959   3.403432
    23  C    1.358024   1.804338   1.410597   2.554562   2.478520
    24  O    2.434609   4.603911   2.437661   3.684520   1.332654
    25  H    1.934991   4.248278   2.407083   3.762839   1.619707
                   16         17         18         19         20
    16  C    0.000000
    17  H    2.147850   0.000000
    18  C    2.424552   3.929435   0.000000
    19  C    1.426411   3.444678   1.386994   0.000000
    20  H    1.093218   2.460064   3.406049   2.173675   0.000000
    21  H    3.434399   5.020732   1.091781   2.174988   4.333252
    22  H    2.190328   4.331927   2.157964   1.091168   2.501665
    23  C    3.790919   2.819118   3.778356   4.298669   4.684428
    24  O    4.105414   4.593889   2.327011   3.599460   5.198210
    25  H    4.352698   4.584677   2.790528   3.995940   5.442806
                   21         22         23         24         25
    21  H    0.000000
    22  H    2.525200   0.000000
    23  C    4.617813   5.389827   0.000000
    24  O    2.523301   4.482608   2.812103   0.000000
    25  H    3.064028   4.928908   2.497572   0.547548   0.000000
 Symmetry turned off by external request.
 Stoichiometry    C13H9NOS
 Framework group  C1[X(C13H9NOS)]
 Deg. of freedom    69
 Full point group                 C1      NOp   1
 Rotational constants (GHZ):           1.3412831           0.2855258           0.2354123
 Leave Link  202 at Mon Jul 13 19:47:24 2020, MaxMem=  7784628224 cpu:               0.3 elap:               0.1
 (Enter /gpfs/loomis/apps/avx/software/Gaussian/16-C.01_AVX/g16/l301.exe)
 Standard basis: CC-pVDZ (5D, 7F)
 Ernie: Thresh=  0.10000D-02 Tol=  0.10000D-05 Strict=F.
 Ernie:  40 primitive shells out of 425 were deleted.
   273 basis functions,   629 primitive gaussians,   289 cartesian basis functions
    59 alpha electrons       59 beta electrons
       nuclear repulsion energy      1097.0197478939 Hartrees.
 IExCor= 4639 DFT=T Ex+Corr=wB97XD ExCW=0 ScaHFX=  1.000000
 ScaDFX=  1.000000  1.000000  1.000000  1.000000 ScalE2=  1.000000  1.000000
 IRadAn=      5 IRanWt=     -1 IRanGd=            0 ICorTp=0 IEmpDi=121
 HFx  wShort=  0.000000 wLong=  0.200000 cFull=  0.222036 cShort=  0.000000 cLong=  0.777964
 DFx  wShort=  0.000000 wLong=  0.200000 cFull=  0.000000 cShort=  0.000000 cLong=  1.000000
 NAtoms=   25 NActive=   25 NUniq=   25 SFac= 1.00D+00 NAtFMM=   60 NAOKFM=F Big=F
 Integral buffers will be    131072 words long.
 Raffenetti 1 integral format.
 Two-electron integral symmetry is turned off.
 R6Disp:  Grimme-D2 Dispersion energy=       -0.0140131708 Hartrees.
 Nuclear repulsion after empirical dispersion term =     1097.0057347231 Hartrees.
 ------------------------------------------------------------------------------
 Polarizable Continuum Model (PCM)
 =================================
 Model                : PCM.
 Atomic radii         : UFF (Universal Force Field).
 Polarization charges : Total charges.
 Charge compensation  : None.
 Solution method      : On-the-fly selection.
 Cavity type          : Scaled VdW (van der Waals Surface) (Alpha=1.100).
 Cavity algorithm     : GePol (No added spheres)
                        Default sphere list used, NSphG=   25.
                        Lebedev-Laikov grids with approx.  5.0 points / Ang**2.
                        Smoothing algorithm: York/Karplus (Gamma=1.0000).
                        Polarization charges: spherical gaussians, with
                                              point-specific exponents (IZeta= 3).
                        Self-potential: point-specific (ISelfS= 7).
                        Self-field    : sphere-specific E.n sum rule (ISelfD= 2).
 1st derivatives      : Analytical E(r).r(x)/FMM algorithm (CHGder, D1EAlg=3).
                        Cavity 1st derivative terms included.
 Solvent              : CarbonTetraChloride, Eps=   2.228000 Eps(inf)=   2.131892
 ------------------------------------------------------------------------------
 GePol: Number of generator spheres                  =      25
 GePol: Total number of spheres                      =      25
 GePol: Number of exposed spheres                    =      25 (100.00%)
 GePol: Number of points                             =    2197
 GePol: Average weight of points                     =       0.13
 GePol: Minimum weight of points                     =   0.68D-07
 GePol: Maximum weight of points                     =    0.20577
 GePol: Number of points with low weight             =     119
 GePol: Fraction of low-weight points (<1% of avg)   =       5.42%
 GePol: Cavity surface area                          =    275.970 Ang**2
 GePol: Cavity volume                                =    294.452 Ang**3
 Leave Link  301 at Mon Jul 13 19:47:24 2020, MaxMem=  7784628224 cpu:               1.3 elap:               0.2
 (Enter /gpfs/loomis/apps/avx/software/Gaussian/16-C.01_AVX/g16/l302.exe)
 NPDir=0 NMtPBC=     1 NCelOv=     1 NCel=       1 NClECP=     1 NCelD=      1
         NCelK=      1 NCelE2=     1 NClLst=     1 CellRange=     0.0.
 One-electron integrals computed using PRISM.
 NBasis=   273 RedAO= T EigKep=  3.16D-04  NBF=   273
 NBsUse=   273 1.00D-06 EigRej= -1.00D+00 NBFU=   273
 Precomputing XC quadrature grid using
 IXCGrd= 4 IRadAn=           5 IRanWt=          -1 IRanGd=           0 AccXCQ= 0.00D+00.
 Generated NRdTot=       0 NPtTot=           0 NUsed=           0 NTot=          32
 NSgBfM=   288   288   288   288   288 MxSgAt=    25 MxSgA2=    25.
 Leave Link  302 at Mon Jul 13 19:47:25 2020, MaxMem=  7784628224 cpu:               6.9 elap:               0.9
 (Enter /gpfs/loomis/apps/avx/software/Gaussian/16-C.01_AVX/g16/l303.exe)
 DipDrv:  MaxL=1.
 Leave Link  303 at Mon Jul 13 19:47:25 2020, MaxMem=  7784628224 cpu:               0.8 elap:               0.1
 (Enter /gpfs/loomis/apps/avx/software/Gaussian/16-C.01_AVX/g16/l308.exe)
 Leave Link  308 at Mon Jul 13 19:47:26 2020, MaxMem=  7784628224 cpu:               0.7 elap:               0.2
 (Enter /gpfs/loomis/apps/avx/software/Gaussian/16-C.01_AVX/g16/l401.exe)
 ExpMin= 1.22D-01 ExpMax= 1.11D+05 ExpMxC= 1.07D+03 IAcc=3 IRadAn=         5 AccDes= 0.00D+00
 Harris functional with IExCor= 4639 and IRadAn=       5 diagonalized for initial guess.
 HarFok:  IExCor= 4639 AccDes= 0.00D+00 IRadAn=         5 IDoV= 1 UseB2=F ITyADJ=14
 ICtDFT=  3500011 ScaDFX=  1.000000  1.000000  1.000000  1.000000
 FoFCou: FMM=F IPFlag=           0 FMFlag=      100000 FMFlg1=           0
         NFxFlg=           0 DoJE=T BraDBF=F KetDBF=T FulRan=T
         wScrn=  0.000000 ICntrl=       500 IOpCl=  0 I1Cent=   200000004 NGrid=           0
         NMat0=    1 NMatS0=      1 NMatT0=    0 NMatD0=    1 NMtDS0=    0 NMtDT0=    0
 Symmetry not used in FoFCou.
 Harris En= -993.888350172805    
 JPrj=0 DoOrth=F DoCkMO=F.
 Leave Link  401 at Mon Jul 13 19:47:27 2020, MaxMem=  7784628224 cpu:              15.2 elap:               1.7
 (Enter /gpfs/loomis/apps/avx/software/Gaussian/16-C.01_AVX/g16/l502.exe)
 Two-electron integral symmetry not used.
 Closed shell SCF:
 Using DIIS extrapolation, IDIIS=  1040.
 NGot=  7784628224 LenX=  7784455381 LenY=  7784371419
 Requested convergence on RMS density matrix=1.00D-08 within 128 cycles.
 Requested convergence on MAX density matrix=1.00D-06.
 Requested convergence on             energy=1.00D-06.
 No special actions if energy rises.
 Fock matrices will be formed incrementally for  20 cycles.

 Cycle   1  Pass 1  IDiag  1:
 FoFJK:  IHMeth= 1 ICntrl=       0 DoSepK=T KAlg= 0 I1Cent=           0 FoldK=F
 IRaf=         1 NMat=       1 IRICut=       1 DoRegI=T DoRafI=F ISym2E= 0 IDoP0=0 IntGTp=1.
 FoFCou: FMM=F IPFlag=           0 FMFlag=      100000 FMFlg1=           0
         NFxFlg=           0 DoJE=T BraDBF=F KetDBF=F FulRan=T
         wScrn=  0.000000 ICntrl=       500 IOpCl=  0 I1Cent=           0 NGrid=           0
         NMat0=    1 NMatS0=      1 NMatT0=    0 NMatD0=    1 NMtDS0=    0 NMtDT0=    0
 Symmetry not used in FoFCou.
 Inv3:  Mode=1 IEnd=    14480427.
 Iteration    1 A*A^-1 deviation from unit magnitude is 7.33D-15 for   2176.
 Iteration    1 A*A^-1 deviation from orthogonality  is 2.53D-15 for   2197   1994.
 Iteration    1 A^-1*A deviation from unit magnitude is 7.11D-15 for   2176.
 Iteration    1 A^-1*A deviation from orthogonality  is 2.33D-15 for   2197   1994.
 E= -1028.02366927638    
 DIIS: error= 3.30D-02 at cycle   1 NSaved=   1.
 NSaved= 1 IEnMin= 1 EnMin= -1028.02366927638     IErMin= 1 ErrMin= 3.30D-02
 ErrMax= 3.30D-02  0.00D+00 EMaxC= 1.00D-01 BMatC= 4.00D-01 BMatP= 4.00D-01
 IDIUse=3 WtCom= 6.70D-01 WtEn= 3.30D-01
 Coeff-Com:  0.100D+01
 Coeff-En:   0.100D+01
 Coeff:      0.100D+01
 Gap=     0.370 Goal=   None    Shift=    0.000
 GapD=    0.370 DampG=1.000 DampE=0.500 DampFc=0.5000 IDamp=-1.
 Damping current iteration by 5.00D-01
 RMSDP=3.58D-03 MaxDP=2.32D-01              OVMax= 1.71D-01

 Cycle   2  Pass 1  IDiag  1:
 RMSU=  1.78D-03    CP:  9.93D-01
 E= -1028.14294313214     Delta-E=       -0.119273855762 Rises=F Damp=T
 DIIS: error= 1.00D-02 at cycle   2 NSaved=   2.
 NSaved= 2 IEnMin= 2 EnMin= -1028.14294313214     IErMin= 2 ErrMin= 1.00D-02
 ErrMax= 1.00D-02  0.00D+00 EMaxC= 1.00D-01 BMatC= 5.78D-02 BMatP= 4.00D-01
 IDIUse=3 WtCom= 9.00D-01 WtEn= 1.00D-01
 Coeff-Com: -0.277D+00 0.128D+01
 Coeff-En:   0.000D+00 0.100D+01
 Coeff:     -0.249D+00 0.125D+01
 Gap=     0.293 Goal=   None    Shift=    0.000
 RMSDP=1.19D-03 MaxDP=2.69D-02 DE=-1.19D-01 OVMax= 1.39D-01

 Cycle   3  Pass 1  IDiag  1:
 RMSU=  1.14D-03    CP:  9.88D-01  1.18D+00
 E= -1028.24883933087     Delta-E=       -0.105896198729 Rises=F Damp=F
 DIIS: error= 6.38D-03 at cycle   3 NSaved=   3.
 NSaved= 3 IEnMin= 3 EnMin= -1028.24883933087     IErMin= 3 ErrMin= 6.38D-03
 ErrMax= 6.38D-03  0.00D+00 EMaxC= 1.00D-01 BMatC= 1.49D-02 BMatP= 5.78D-02
 IDIUse=3 WtCom= 9.36D-01 WtEn= 6.38D-02
 Coeff-Com: -0.199D+00 0.487D+00 0.712D+00
 Coeff-En:   0.000D+00 0.000D+00 0.100D+01
 Coeff:     -0.186D+00 0.456D+00 0.730D+00
 Gap=     0.260 Goal=   None    Shift=    0.000
 RMSDP=5.28D-04 MaxDP=2.30D-02 DE=-1.06D-01 OVMax= 4.31D-02

 Cycle   4  Pass 1  IDiag  1:
 RMSU=  3.94D-04    CP:  9.88D-01  1.34D+00  8.22D-01
 E= -1028.26173217640     Delta-E=       -0.012892845524 Rises=F Damp=F
 DIIS: error= 2.79D-03 at cycle   4 NSaved=   4.
 NSaved= 4 IEnMin= 4 EnMin= -1028.26173217640     IErMin= 4 ErrMin= 2.79D-03
 ErrMax= 2.79D-03  0.00D+00 EMaxC= 1.00D-01 BMatC= 2.37D-03 BMatP= 1.49D-02
 IDIUse=3 WtCom= 9.72D-01 WtEn= 2.79D-02
 Coeff-Com: -0.793D-01 0.160D+00 0.372D+00 0.546D+00
 Coeff-En:   0.000D+00 0.000D+00 0.266D-01 0.973D+00
 Coeff:     -0.771D-01 0.156D+00 0.363D+00 0.558D+00
 Gap=     0.259 Goal=   None    Shift=    0.000
 RMSDP=1.82D-04 MaxDP=1.06D-02 DE=-1.29D-02 OVMax= 1.42D-02

 Cycle   5  Pass 1  IDiag  1:
 RMSU=  1.12D-04    CP:  9.87D-01  1.35D+00  9.06D-01  7.28D-01
 E= -1028.26408497380     Delta-E=       -0.002352797406 Rises=F Damp=F
 DIIS: error= 5.53D-04 at cycle   5 NSaved=   5.
 NSaved= 5 IEnMin= 5 EnMin= -1028.26408497380     IErMin= 5 ErrMin= 5.53D-04
 ErrMax= 5.53D-04  0.00D+00 EMaxC= 1.00D-01 BMatC= 9.15D-05 BMatP= 2.37D-03
 IDIUse=3 WtCom= 9.94D-01 WtEn= 5.53D-03
 Coeff-Com: -0.101D-01 0.144D-01 0.669D-01 0.205D+00 0.723D+00
 Coeff-En:   0.000D+00 0.000D+00 0.000D+00 0.000D+00 0.100D+01
 Coeff:     -0.100D-01 0.143D-01 0.665D-01 0.204D+00 0.725D+00
 Gap=     0.260 Goal=   None    Shift=    0.000
 RMSDP=5.02D-05 MaxDP=1.54D-03 DE=-2.35D-03 OVMax= 5.31D-03

 Cycle   6  Pass 1  IDiag  1:
 RMSU=  3.59D-05    CP:  9.87D-01  1.35D+00  9.17D-01  8.05D-01  1.03D+00
 E= -1028.26422406937     Delta-E=       -0.000139095569 Rises=F Damp=F
 DIIS: error= 1.83D-04 at cycle   6 NSaved=   6.
 NSaved= 6 IEnMin= 6 EnMin= -1028.26422406937     IErMin= 6 ErrMin= 1.83D-04
 ErrMax= 1.83D-04  0.00D+00 EMaxC= 1.00D-01 BMatC= 1.14D-05 BMatP= 9.15D-05
 IDIUse=3 WtCom= 9.98D-01 WtEn= 1.83D-03
 Coeff-Com:  0.136D-01-0.288D-01-0.538D-01-0.415D-01 0.204D+00 0.906D+00
 Coeff-En:   0.000D+00 0.000D+00 0.000D+00 0.000D+00 0.000D+00 0.100D+01
 Coeff:      0.136D-01-0.288D-01-0.537D-01-0.414D-01 0.204D+00 0.907D+00
 Gap=     0.260 Goal=   None    Shift=    0.000
 RMSDP=3.45D-05 MaxDP=1.61D-03 DE=-1.39D-04 OVMax= 3.09D-03

 Cycle   7  Pass 1  IDiag  1:
 RMSU=  1.84D-05    CP:  9.87D-01  1.35D+00  9.29D-01  8.44D-01  1.19D+00
                    CP:  1.19D+00
 E= -1028.26425748869     Delta-E=       -0.000033419321 Rises=F Damp=F
 DIIS: error= 1.29D-04 at cycle   7 NSaved=   7.
 NSaved= 7 IEnMin= 7 EnMin= -1028.26425748869     IErMin= 7 ErrMin= 1.29D-04
 ErrMax= 1.29D-04  0.00D+00 EMaxC= 1.00D-01 BMatC= 2.14D-06 BMatP= 1.14D-05
 IDIUse=3 WtCom= 9.99D-01 WtEn= 1.29D-03
 Coeff-Com:  0.656D-02-0.126D-01-0.291D-01-0.462D-01-0.425D-01 0.341D+00
 Coeff-Com:  0.783D+00
 Coeff-En:   0.000D+00 0.000D+00 0.000D+00 0.000D+00 0.000D+00 0.000D+00
 Coeff-En:   0.100D+01
 Coeff:      0.655D-02-0.126D-01-0.290D-01-0.461D-01-0.425D-01 0.341D+00
 Coeff:      0.783D+00
 Gap=     0.261 Goal=   None    Shift=    0.000
 RMSDP=1.22D-05 MaxDP=6.36D-04 DE=-3.34D-05 OVMax= 1.50D-03

 Cycle   8  Pass 1  IDiag  1:
 RMSU=  7.40D-06    CP:  9.87D-01  1.35D+00  9.32D-01  8.51D-01  1.24D+00
                    CP:  1.40D+00  1.11D+00
 E= -1028.26426286661     Delta-E=       -0.000005377917 Rises=F Damp=F
 DIIS: error= 3.68D-05 at cycle   8 NSaved=   8.
 NSaved= 8 IEnMin= 8 EnMin= -1028.26426286661     IErMin= 8 ErrMin= 3.68D-05
 ErrMax= 3.68D-05  0.00D+00 EMaxC= 1.00D-01 BMatC= 2.61D-07 BMatP= 2.14D-06
 IDIUse=1 WtCom= 1.00D+00 WtEn= 0.00D+00
 Coeff-Com: -0.390D-03 0.114D-02 0.777D-03-0.536D-02-0.402D-01-0.377D-01
 Coeff-Com:  0.229D+00 0.852D+00
 Coeff:     -0.390D-03 0.114D-02 0.777D-03-0.536D-02-0.402D-01-0.377D-01
 Coeff:      0.229D+00 0.852D+00
 Gap=     0.261 Goal=   None    Shift=    0.000
 RMSDP=4.81D-06 MaxDP=1.44D-04 DE=-5.38D-06 OVMax= 6.34D-04

 Cycle   9  Pass 1  IDiag  1:
 RMSU=  2.42D-06    CP:  9.87D-01  1.35D+00  9.32D-01  8.52D-01  1.25D+00
                    CP:  1.46D+00  1.29D+00  1.09D+00
 E= -1028.26426360690     Delta-E=       -0.000000740295 Rises=F Damp=F
 DIIS: error= 1.96D-05 at cycle   9 NSaved=   9.
 NSaved= 9 IEnMin= 9 EnMin= -1028.26426360690     IErMin= 9 ErrMin= 1.96D-05
 ErrMax= 1.96D-05  0.00D+00 EMaxC= 1.00D-01 BMatC= 5.12D-08 BMatP= 2.61D-07
 IDIUse=1 WtCom= 1.00D+00 WtEn= 0.00D+00
 Coeff-Com: -0.101D-02 0.204D-02 0.418D-02 0.476D-02-0.825D-02-0.620D-01
 Coeff-Com: -0.286D-01 0.311D+00 0.778D+00
 Coeff:     -0.101D-02 0.204D-02 0.418D-02 0.476D-02-0.825D-02-0.620D-01
 Coeff:     -0.286D-01 0.311D+00 0.778D+00
 Gap=     0.261 Goal=   None    Shift=    0.000
 RMSDP=2.01D-06 MaxDP=6.33D-05 DE=-7.40D-07 OVMax= 1.88D-04

 Cycle  10  Pass 1  IDiag  1:
 RMSU=  9.99D-07    CP:  9.87D-01  1.35D+00  9.31D-01  8.52D-01  1.25D+00
                    CP:  1.48D+00  1.33D+00  1.26D+00  1.06D+00
 E= -1028.26426373604     Delta-E=       -0.000000129133 Rises=F Damp=F
 DIIS: error= 6.95D-06 at cycle  10 NSaved=  10.
 NSaved=10 IEnMin=10 EnMin= -1028.26426373604     IErMin=10 ErrMin= 6.95D-06
 ErrMax= 6.95D-06  0.00D+00 EMaxC= 1.00D-01 BMatC= 7.97D-09 BMatP= 5.12D-08
 IDIUse=1 WtCom= 1.00D+00 WtEn= 0.00D+00
 Coeff-Com: -0.322D-03 0.604D-03 0.149D-02 0.288D-02 0.300D-02-0.200D-01
 Coeff-Com: -0.489D-01-0.161D-01 0.264D+00 0.813D+00
 Coeff:     -0.322D-03 0.604D-03 0.149D-02 0.288D-02 0.300D-02-0.200D-01
 Coeff:     -0.489D-01-0.161D-01 0.264D+00 0.813D+00
 Gap=     0.261 Goal=   None    Shift=    0.000
 RMSDP=9.00D-07 MaxDP=2.70D-05 DE=-1.29D-07 OVMax= 1.24D-04

 Cycle  11  Pass 1  IDiag  1:
 RMSU=  4.30D-07    CP:  9.87D-01  1.35D+00  9.31D-01  8.52D-01  1.25D+00
                    CP:  1.49D+00  1.35D+00  1.31D+00  1.24D+00  1.14D+00
 E= -1028.26426376236     Delta-E=       -0.000000026325 Rises=F Damp=F
 DIIS: error= 2.79D-06 at cycle  11 NSaved=  11.
 NSaved=11 IEnMin=11 EnMin= -1028.26426376236     IErMin=11 ErrMin= 2.79D-06
 ErrMax= 2.79D-06  0.00D+00 EMaxC= 1.00D-01 BMatC= 1.50D-09 BMatP= 7.97D-09
 IDIUse=1 WtCom= 1.00D+00 WtEn= 0.00D+00
 Coeff-Com:  0.106D-03-0.225D-03-0.373D-03 0.156D-04 0.221D-02 0.419D-02
 Coeff-Com: -0.822D-02-0.483D-01-0.584D-01 0.252D+00 0.857D+00
 Coeff:      0.106D-03-0.225D-03-0.373D-03 0.156D-04 0.221D-02 0.419D-02
 Coeff:     -0.822D-02-0.483D-01-0.584D-01 0.252D+00 0.857D+00
 Gap=     0.261 Goal=   None    Shift=    0.000
 RMSDP=3.92D-07 MaxDP=9.31D-06 DE=-2.63D-08 OVMax= 5.81D-05

 Cycle  12  Pass 1  IDiag  1:
 RMSU=  1.76D-07    CP:  9.87D-01  1.35D+00  9.31D-01  8.52D-01  1.25D+00
                    CP:  1.49D+00  1.36D+00  1.33D+00  1.31D+00  1.38D+00
                    CP:  1.14D+00
 E= -1028.26426376788     Delta-E=       -0.000000005519 Rises=F Damp=F
 DIIS: error= 1.21D-06 at cycle  12 NSaved=  12.
 NSaved=12 IEnMin=12 EnMin= -1028.26426376788     IErMin=12 ErrMin= 1.21D-06
 ErrMax= 1.21D-06  0.00D+00 EMaxC= 1.00D-01 BMatC= 3.07D-10 BMatP= 1.50D-09
 IDIUse=1 WtCom= 1.00D+00 WtEn= 0.00D+00
 Coeff-Com:  0.108D-03-0.213D-03-0.464D-03-0.603D-03 0.158D-03 0.581D-02
 Coeff-Com:  0.757D-02-0.119D-01-0.876D-01-0.983D-01 0.266D+00 0.920D+00
 Coeff:      0.108D-03-0.213D-03-0.464D-03-0.603D-03 0.158D-03 0.581D-02
 Coeff:      0.757D-02-0.119D-01-0.876D-01-0.983D-01 0.266D+00 0.920D+00
 Gap=     0.261 Goal=   None    Shift=    0.000
 RMSDP=2.21D-07 MaxDP=4.73D-06 DE=-5.52D-09 OVMax= 3.40D-05

 Cycle  13  Pass 1  IDiag  1:
 RMSU=  7.53D-08    CP:  9.87D-01  1.35D+00  9.31D-01  8.52D-01  1.25D+00
                    CP:  1.49D+00  1.36D+00  1.33D+00  1.35D+00  1.49D+00
                    CP:  1.43D+00  1.21D+00
 E= -1028.26426376928     Delta-E=       -0.000000001403 Rises=F Damp=F
 DIIS: error= 5.27D-07 at cycle  13 NSaved=  13.
 NSaved=13 IEnMin=13 EnMin= -1028.26426376928     IErMin=13 ErrMin= 5.27D-07
 ErrMax= 5.27D-07  0.00D+00 EMaxC= 1.00D-01 BMatC= 4.70D-11 BMatP= 3.07D-10
 IDIUse=1 WtCom= 1.00D+00 WtEn= 0.00D+00
 Coeff-Com:  0.121D-04-0.217D-04-0.664D-04-0.160D-03-0.245D-03 0.116D-02
 Coeff-Com:  0.367D-02 0.582D-02-0.173D-01-0.710D-01-0.824D-01 0.264D+00
 Coeff-Com:  0.896D+00
 Coeff:      0.121D-04-0.217D-04-0.664D-04-0.160D-03-0.245D-03 0.116D-02
 Coeff:      0.367D-02 0.582D-02-0.173D-01-0.710D-01-0.824D-01 0.264D+00
 Coeff:      0.896D+00
 Gap=     0.261 Goal=   None    Shift=    0.000
 RMSDP=8.02D-08 MaxDP=2.08D-06 DE=-1.40D-09 OVMax= 1.08D-05

 Cycle  14  Pass 1  IDiag  1:
 RMSU=  2.92D-08    CP:  9.87D-01  1.35D+00  9.31D-01  8.52D-01  1.25D+00
                    CP:  1.49D+00  1.36D+00  1.34D+00  1.36D+00  1.53D+00
                    CP:  1.51D+00  1.45D+00  1.19D+00
 E= -1028.26426376945     Delta-E=       -0.000000000164 Rises=F Damp=F
 DIIS: error= 1.47D-07 at cycle  14 NSaved=  14.
 NSaved=14 IEnMin=14 EnMin= -1028.26426376945     IErMin=14 ErrMin= 1.47D-07
 ErrMax= 1.47D-07  0.00D+00 EMaxC= 1.00D-01 BMatC= 7.88D-12 BMatP= 4.70D-11
 IDIUse=1 WtCom= 1.00D+00 WtEn= 0.00D+00
 Coeff-Com: -0.105D-04 0.214D-04 0.394D-04 0.249D-04-0.107D-03-0.384D-03
 Coeff-Com:  0.156D-03 0.380D-02 0.579D-02-0.906D-02-0.675D-01-0.283D-01
 Coeff-Com:  0.357D+00 0.738D+00
 Coeff:     -0.105D-04 0.214D-04 0.394D-04 0.249D-04-0.107D-03-0.384D-03
 Coeff:      0.156D-03 0.380D-02 0.579D-02-0.906D-02-0.675D-01-0.283D-01
 Coeff:      0.357D+00 0.738D+00
 Gap=     0.261 Goal=   None    Shift=    0.000
 RMSDP=1.96D-08 MaxDP=4.86D-07 DE=-1.64D-10 OVMax= 2.69D-06

 Cycle  15  Pass 1  IDiag  1:
 RMSU=  1.00D-08    CP:  9.87D-01  1.35D+00  9.31D-01  8.52D-01  1.25D+00
                    CP:  1.49D+00  1.36D+00  1.34D+00  1.36D+00  1.53D+00
                    CP:  1.53D+00  1.50D+00  1.34D+00  1.05D+00
 E= -1028.26426376947     Delta-E=       -0.000000000019 Rises=F Damp=F
 DIIS: error= 5.33D-08 at cycle  15 NSaved=  15.
 NSaved=15 IEnMin=15 EnMin= -1028.26426376947     IErMin=15 ErrMin= 5.33D-08
 ErrMax= 5.33D-08  0.00D+00 EMaxC= 1.00D-01 BMatC= 4.92D-13 BMatP= 7.88D-12
 IDIUse=1 WtCom= 1.00D+00 WtEn= 0.00D+00
 Coeff-Com: -0.315D-05 0.602D-05 0.151D-04 0.265D-04 0.917D-05-0.234D-03
 Coeff-Com: -0.470D-03-0.108D-03 0.293D-02 0.839D-02-0.155D-02-0.416D-01
 Coeff-Com: -0.543D-01 0.718D-01 0.102D+01
 Coeff:     -0.315D-05 0.602D-05 0.151D-04 0.265D-04 0.917D-05-0.234D-03
 Coeff:     -0.470D-03-0.108D-03 0.293D-02 0.839D-02-0.155D-02-0.416D-01
 Coeff:     -0.543D-01 0.718D-01 0.102D+01
 Gap=     0.261 Goal=   None    Shift=    0.000
 RMSDP=8.83D-09 MaxDP=2.13D-07 DE=-1.93D-11 OVMax= 9.37D-07

 Error on total polarization charges =  0.00810
 SCF Done:  E(RwB97XD) =  -1028.26426377     A.U. after   15 cycles
            NFock= 15  Conv=0.88D-08     -V/T= 2.0028
 KE= 1.025428153075D+03 PE=-4.606238834176D+03 EE= 1.455540682608D+03
 Leave Link  502 at Mon Jul 13 19:48:51 2020, MaxMem=  7784628224 cpu:             824.5 elap:              83.7
 (Enter /gpfs/loomis/apps/avx/software/Gaussian/16-C.01_AVX/g16/l801.exe)
 DoSCS=F DFT=T ScalE2(SS,OS)=  1.000000  1.000000
 ExpMin= 1.22D-01 ExpMax= 1.11D+05 ExpMxC= 1.07D+03 IAcc=3 IRadAn=         5 AccDes= 0.00D+00
 HarFok:  IExCor=  205 AccDes= 0.00D+00 IRadAn=         5 IDoV=-2 UseB2=F ITyADJ=14
 ICtDFT= 12500011 ScaDFX=  1.000000  1.000000  1.000000  1.000000
 Largest valence mixing into a core orbital is  9.58D-05
 Largest core mixing into a valence orbital is  3.15D-05
 Range of M.O.s used for correlation:    21   273
 NBasis=   273 NAE=    59 NBE=    59 NFC=    20 NFV=     0
 NROrb=    253 NOA=    39 NOB=    39 NVA=   214 NVB=   214

 **** Warning!!: The largest alpha MO coefficient is  0.11943432D+02

 Leave Link  801 at Mon Jul 13 19:48:52 2020, MaxMem=  7784628224 cpu:               3.0 elap:               0.5
 (Enter /gpfs/loomis/apps/avx/software/Gaussian/16-C.01_AVX/g16/l914.exe)
 RHF ground state
 Keep R1, R2, and R3 ints in memory in canonical form, NReq=4262515490.
 FoFCou: FMM=F IPFlag=           0 FMFlag=           0 FMFlg1=           0
         NFxFlg=           0 DoJE=F BraDBF=F KetDBF=F FulRan=T
         wScrn=  0.000000 ICntrl=       600 IOpCl=  0 I1Cent=           0 NGrid=           0
         NMat0=    1 NMatS0=  37401 NMatT0=    0 NMatD0=    1 NMtDS0=    0 NMtDT0=    0
 Symmetry not used in FoFCou.
 Two-electron integral symmetry not used.
 MDV=  7784628224 DFT=T DoStab=F Mixed=T DoRPA=T DoScal=F NonHer=T
 NEqPCM:  Using equilibrium solvation (IEInf=0, Eps=   2.2280, EpsInf=   2.1319)
 Making orbital integer symmetry assigments:
    12 initial guesses have been made.
 Convergence on wavefunction:    0.000001000000000
 Davidson Disk Diagonalization:  ConvIn= 1.00D-06 SkipCon=T Conv= 1.00D-06.
 Max sub-space:  2000 roots to seek:    12 dimension of matrix:        16692
 Iteration     1 Dimension    12 NMult     0 NNew     12
 CISAX will form    12 AO SS matrices at one time.
 NMat=    12 NSing=    12 JSym2X= 0.
 Excitation Energies [eV] at current iteration:
 Root      1 :     4.108754384030868
 Root      2 :     4.906541069262772
 Root      3 :     5.022148761720310
 Root      4 :     5.112149456736510
 Root      5 :     5.902731063775328
 Root      6 :     6.169341879100292
 Root      7 :     6.254224273973745
 Root      8 :     6.579762942760555
 Root      9 :     6.831384603015727
 Root     10 :     7.116850219173294
 Root     11 :     7.522609484758497
 Root     12 :     7.869985895855929
 Iteration     2 Dimension    18 NMult    12 NNew      6
 CISAX will form     6 AO SS matrices at one time.
 NMat=     6 NSing=     6 JSym2X= 0.
 Root      1 not converged, maximum delta is    0.048738181070390
 Root      2 not converged, maximum delta is    0.354695156821897
 Root      3 not converged, maximum delta is    0.328073865762675
 Excitation Energies [eV] at current iteration:
 Root      1 :     3.597946390442529   Change is   -0.510807993588338
 Root      2 :     4.506497557665655   Change is   -0.400043511597118
 Root      3 :     4.551402345876551   Change is   -0.470746415843760
 Iteration     3 Dimension    24 NMult    18 NNew      6
 CISAX will form     6 AO SS matrices at one time.
 NMat=     6 NSing=     6 JSym2X= 0.
 Root      1 not converged, maximum delta is    0.018564913156171
 Root      2 not converged, maximum delta is    0.063176148713105
 Root      3 not converged, maximum delta is    0.061777868416888
 Excitation Energies [eV] at current iteration:
 Root      1 :     3.565809839902747   Change is   -0.032136550539782
 Root      2 :     4.461017219860135   Change is   -0.045480337805519
 Root      3 :     4.502756171131073   Change is   -0.048646174745478
 Iteration     4 Dimension    30 NMult    24 NNew      6
 CISAX will form     6 AO SS matrices at one time.
 NMat=     6 NSing=     6 JSym2X= 0.
 Root      1 not converged, maximum delta is    0.007010375419418
 Root      2 not converged, maximum delta is    0.012524084266748
 Root      3 not converged, maximum delta is    0.012688231285574
 Excitation Energies [eV] at current iteration:
 Root      1 :     3.562135373762126   Change is   -0.003674466140621
 Root      2 :     4.456434764059740   Change is   -0.004582455800395
 Root      3 :     4.497075726707053   Change is   -0.005680444424020
 Iteration     5 Dimension    36 NMult    30 NNew      6
 CISAX will form     6 AO SS matrices at one time.
 NMat=     6 NSing=     6 JSym2X= 0.
 Root      1 not converged, maximum delta is    0.002260606427078
 Root      2 not converged, maximum delta is    0.002047730696472
 Root      3 not converged, maximum delta is    0.001996261594785
 Excitation Energies [eV] at current iteration:
 Root      1 :     3.561781263514523   Change is   -0.000354110247603
 Root      2 :     4.455847253694698   Change is   -0.000587510365042
 Root      3 :     4.496652998092717   Change is   -0.000422728614336
 Iteration     6 Dimension    42 NMult    36 NNew      6
 CISAX will form     6 AO SS matrices at one time.
 NMat=     6 NSing=     6 JSym2X= 0.
 Root      1 not converged, maximum delta is    0.000507499944457
 Root      2 not converged, maximum delta is    0.000565171238121
 Root      3 not converged, maximum delta is    0.000682929798132
 Excitation Energies [eV] at current iteration:
 Root      1 :     3.561752174149864   Change is   -0.000029089364659
 Root      2 :     4.455807457886393   Change is   -0.000039795808305
 Root      3 :     4.496610908245845   Change is   -0.000042089846872
 Iteration     7 Dimension    48 NMult    42 NNew      6
 CISAX will form     6 AO SS matrices at one time.
 NMat=     6 NSing=     6 JSym2X= 0.
 Root      1 not converged, maximum delta is    0.000082227619385
 Root      2 not converged, maximum delta is    0.000119170391424
 Root      3 not converged, maximum delta is    0.000183442525071
 Excitation Energies [eV] at current iteration:
 Root      1 :     3.561750676827259   Change is   -0.000001497322605
 Root      2 :     4.455804355899799   Change is   -0.000003101986594
 Root      3 :     4.496606716421344   Change is   -0.000004191824500
 Iteration     8 Dimension    54 NMult    48 NNew      6
 CISAX will form     6 AO SS matrices at one time.
 NMat=     6 NSing=     6 JSym2X= 0.
 Root      1 not converged, maximum delta is    0.000016156307793
 Root      2 not converged, maximum delta is    0.000054540528734
 Root      3 not converged, maximum delta is    0.000069248632592
 Excitation Energies [eV] at current iteration:
 Root      1 :     3.561750607916958   Change is   -0.000000068910301
 Root      2 :     4.455804073447160   Change is   -0.000000282452640
 Root      3 :     4.496606352920479   Change is   -0.000000363500865
 Iteration     9 Dimension    60 NMult    54 NNew      6
 CISAX will form     6 AO SS matrices at one time.
 NMat=     6 NSing=     6 JSym2X= 0.
 Root      1 not converged, maximum delta is    0.000004334012228
 Root      2 not converged, maximum delta is    0.000013134687075
 Root      3 not converged, maximum delta is    0.000020032384567
 Excitation Energies [eV] at current iteration:
 Root      1 :     3.561750603545807   Change is   -0.000000004371152
 Root      2 :     4.455804054434969   Change is   -0.000000019012191
 Root      3 :     4.496606313450269   Change is   -0.000000039470211
 Iteration    10 Dimension    66 NMult    60 NNew      6
 CISAX will form     6 AO SS matrices at one time.
 NMat=     6 NSing=     6 JSym2X= 0.
 Root      1 has converged.
 Root      2 not converged, maximum delta is    0.000002415963764
 Root      3 not converged, maximum delta is    0.000003535984298
 Excitation Energies [eV] at current iteration:
 Root      1 :     3.561750603343596   Change is   -0.000000000202210
 Root      2 :     4.455804053370006   Change is   -0.000000001064963
 Root      3 :     4.496606311655952   Change is   -0.000000001794317
 Iteration    11 Dimension    70 NMult    66 NNew      4
 CISAX will form     4 AO SS matrices at one time.
 NMat=     4 NSing=     4 JSym2X= 0.
 Root      1 has converged.
 Root      2 has converged.
 Root      3 not converged, maximum delta is    0.000001262893039
 Excitation Energies [eV] at current iteration:
 Root      1 :     3.561750603340250   Change is   -0.000000000003347
 Root      2 :     4.455804053311797   Change is   -0.000000000058208
 Root      3 :     4.496606311543443   Change is   -0.000000000112508
 Iteration    12 Dimension    72 NMult    70 NNew      2
 CISAX will form     2 AO SS matrices at one time.
 NMat=     2 NSing=     2 JSym2X= 0.
 Root      1 has converged.
 Root      2 has converged.
 Root      3 has converged.
 Excitation Energies [eV] at current iteration:
 Root      1 :     3.561750603340296   Change is    0.000000000000046
 Root      2 :     4.455804053311336   Change is   -0.000000000000461
 Root      3 :     4.496606311537904   Change is   -0.000000000005539
 Convergence achieved on expansion vectors.
 ***********************************************************************
 Excited states from <AA,BB:AA,BB> singles matrix:
 ***********************************************************************
 
 1PDM for each excited state written to RWF  633
 Ground to excited state transition densities written to RWF  633
 Ground to excited state transition electric dipole moments (Au):
       state          X           Y           Z        Dip. S.      Osc.
         1         2.1046     -2.3691     -0.0000     10.0420      0.8763
         2        -1.1834     -0.1326     -0.0000      1.4181      0.1548
         3         0.4286     -0.2480      0.0000      0.2452      0.0270
 Ground to excited state transition velocity dipole moments (Au):
       state          X           Y           Z        Dip. S.      Osc.
         1        -0.2680      0.3057      0.0000      0.1652      0.8416
         2         0.1921      0.0251      0.0000      0.0376      0.1529
         3        -0.0683      0.0350     -0.0000      0.0059      0.0237
 Ground to excited state transition magnetic dipole moments (Au):
       state          X           Y           Z
         1         0.0000      0.0000     -0.4373
         2         0.0000      0.0000     -0.4066
         3         0.0000     -0.0000      0.9980
 Ground to excited state transition velocity quadrupole moments (Au):
       state          XX          YY          ZZ          XY          XZ          YZ
         1        -0.1389      0.3994     -0.0063     -0.1568     -0.0000      0.0000
         2         0.2570      0.3370     -0.0250     -0.3517     -0.0000      0.0000
         3         0.4919     -0.6082     -0.0084     -0.0613      0.0000     -0.0000
 <0|del|b> * <b|rxdel|0> + <0|del|b> * <b|delr+rdel|0>
 Rotatory Strengths (R) in cgs (10**-40 erg-esu-cm/Gauss)
       state          XX          YY          ZZ    R(velocity)    E-M Angle
         1         0.0186     -0.0171      0.0191      0.0069       90.00
         2        -0.0004      0.0034     -0.0001      0.0010       90.00
         3        -0.0035     -0.0018     -0.0030     -0.0028       90.00
 1/2[<0|r|b>*<b|rxdel|0> + (<0|rxdel|b>*<b|r|0>)*]
 Rotatory Strengths (R) in cgs (10**-40 erg-esu-cm/Gauss)
       state          XX          YY          ZZ     R(length)
         1        -0.0105      0.0408     -0.0098      0.0068
         2         0.0034      0.0008     -0.0012      0.0010
         3        -0.0017     -0.0033     -0.0037     -0.0029
  1/2[<0|del|b>*<b|r|0> + (<0|r|b>*<b|del|0>)*] (Au)
       state          X           Y           Z        Dip. S.   Osc.(frdel)
         1        -0.5640     -0.7241     -0.0000      1.2881      0.8587
         2        -0.2274     -0.0033     -0.0000      0.2307      0.1538
         3        -0.0293     -0.0087     -0.0000      0.0379      0.0253

 Excitation energies and oscillator strengths:
 
 Excited state symmetry could not be determined.
 Excited State   1:      Singlet-?Sym    3.5618 eV  348.10 nm  f=0.8763  <S**2>=0.000
      59 -> 60         0.68920
 This state for optimization and/or second-order correction.
 Total Energy, E(TD-HF/TD-DFT) =  -1028.13337184    
 Copying the excited state density for this state as the 1-particle RhoCI density.
 
 Excited state symmetry could not be determined.
 Excited State   2:      Singlet-?Sym    4.4558 eV  278.25 nm  f=0.1548  <S**2>=0.000
      57 -> 60        -0.19806
      58 -> 60         0.60638
      59 -> 61        -0.12603
      59 -> 62         0.15307
 
 Excited state symmetry could not be determined.
 Excited State   3:      Singlet-?Sym    4.4966 eV  275.73 nm  f=0.0270  <S**2>=0.000
      57 -> 60         0.60709
      58 -> 60         0.18100
      58 -> 63        -0.14595
      59 -> 61        -0.20208
      59 -> 62        -0.11421
 SavETr:  write IOETrn=   770 NScale= 10 NData=  16 NLR=1 NState=    3 LETran=      64.
 The selected state is a singlet.
 CISGrd: IGrad=2 NXY=2 DFT=T
 CISAX will form     1 AO SS matrices at one time.
 NMat=     1 NSing=     1 JSym2X= 0.
 GePol: Maximum number of non-zero 1st derivatives   =     271
 Leave Link  914 at Mon Jul 13 19:51:42 2020, MaxMem=  7784628224 cpu:            1671.1 elap:             170.3
 (Enter /gpfs/loomis/apps/avx/software/Gaussian/16-C.01_AVX/g16/l1002.exe)
 Minotr:  Closed shell wavefunction.
          Computing CIS/TDA/TD derivatives.
          Using Z-Vector for PSCF gradient.
          Skipping F1 and S1 gradient terms here.
          IDoAtm=1111111111111111111111111
 NEqPCM:  Using equilibrium solvation (IEInf=0, Eps=   2.2280, EpsInf=   2.1319)
          Frozen-core window.
          Direct CPHF calculation.
          Differentiating once with respect to electric field.
                with respect to dipole field.
          Differentiating once with respect to nuclear coordinates.
          Requested convergence is 1.0D-10 RMS, and 1.0D-09 maximum.
          NewPWx=F KeepS1=T KeepF1=T KeepIn=T MapXYZ=F SortEE=F KeepMc=T.
 Keep R1 ints in memory in canonical form, NReq=1421553070.
 FoFCou: FMM=F IPFlag=           0 FMFlag=           0 FMFlg1=           0
         NFxFlg=           0 DoJE=F BraDBF=F KetDBF=F FulRan=T
         wScrn=  0.000000 ICntrl=       600 IOpCl=  0 I1Cent=           0 NGrid=           0
         NMat0=    1 NMatS0=  37401 NMatT0=    0 NMatD0=    1 NMtDS0=    0 NMtDT0=    0
 Symmetry not used in FoFCou.
 Two-electron integral symmetry not used.
          MDV=    7784628224 using IRadAn=       5.
          Solving linear equations separately, MaxMat=       0.
          There are     1 degrees of freedom in the 1st order CPHF.  IDoFFX=0 NUNeed=     1.
 LinEq1:  Iter=  0 NonCon=     1 RMS=3.03D-03 Max=1.42D-01 NDo=     1
 AX will form     1 AO Fock derivatives at one time.
 LinEq1:  Iter=  1 NonCon=     1 RMS=1.32D-03 Max=6.54D-02 NDo=     1
 LinEq1:  Iter=  2 NonCon=     1 RMS=7.37D-04 Max=2.45D-02 NDo=     1
 LinEq1:  Iter=  3 NonCon=     1 RMS=2.89D-04 Max=9.28D-03 NDo=     1
 LinEq1:  Iter=  4 NonCon=     1 RMS=1.50D-04 Max=6.53D-03 NDo=     1
 LinEq1:  Iter=  5 NonCon=     1 RMS=8.20D-05 Max=3.44D-03 NDo=     1
 LinEq1:  Iter=  6 NonCon=     1 RMS=3.66D-05 Max=1.26D-03 NDo=     1
 LinEq1:  Iter=  7 NonCon=     1 RMS=2.22D-05 Max=8.89D-04 NDo=     1
 LinEq1:  Iter=  8 NonCon=     1 RMS=7.86D-06 Max=2.56D-04 NDo=     1
 LinEq1:  Iter=  9 NonCon=     1 RMS=3.93D-06 Max=1.33D-04 NDo=     1
 LinEq1:  Iter= 10 NonCon=     1 RMS=1.37D-06 Max=5.48D-05 NDo=     1
 LinEq1:  Iter= 11 NonCon=     1 RMS=6.43D-07 Max=2.72D-05 NDo=     1
 LinEq1:  Iter= 12 NonCon=     1 RMS=3.00D-07 Max=1.02D-05 NDo=     1
 LinEq1:  Iter= 13 NonCon=     1 RMS=1.20D-07 Max=3.39D-06 NDo=     1
 LinEq1:  Iter= 14 NonCon=     1 RMS=6.45D-08 Max=2.06D-06 NDo=     1
 LinEq1:  Iter= 15 NonCon=     1 RMS=2.38D-08 Max=7.67D-07 NDo=     1
 LinEq1:  Iter= 16 NonCon=     1 RMS=1.06D-08 Max=2.55D-07 NDo=     1
 LinEq1:  Iter= 17 NonCon=     1 RMS=4.28D-09 Max=9.02D-08 NDo=     1
 LinEq1:  Iter= 18 NonCon=     1 RMS=1.48D-09 Max=4.03D-08 NDo=     1
 LinEq1:  Iter= 19 NonCon=     1 RMS=5.97D-10 Max=1.47D-08 NDo=     1
 LinEq1:  Iter= 20 NonCon=     1 RMS=3.17D-10 Max=1.09D-08 NDo=     1
 LinEq1:  Iter= 21 NonCon=     1 RMS=1.14D-10 Max=3.17D-09 NDo=     1
 LinEq1:  Iter= 22 NonCon=     0 RMS=4.20D-11 Max=7.45D-10 NDo=     1
 Linear equations converged to 1.000D-10 1.000D-09 after    22 iterations.
 End of Minotr F.D. properties file   721 does not exist.
 End of Minotr F.D. properties file   722 does not exist.
 End of Minotr F.D. properties file   788 does not exist.
 Leave Link 1002 at Mon Jul 13 19:53:19 2020, MaxMem=  7784628224 cpu:             723.2 elap:              97.1
 (Enter /gpfs/loomis/apps/avx/software/Gaussian/16-C.01_AVX/g16/l601.exe)
 Copying SCF densities to generalized density rwf, IOpCl= 0 IROHF=0.

 **********************************************************************

            Population analysis using the SCF Density.

 **********************************************************************

 Alpha  occ. eigenvalues --  -89.08835 -19.27134 -14.45545 -10.39240 -10.38911
 Alpha  occ. eigenvalues --  -10.34516 -10.34197 -10.33627 -10.32671 -10.32385
 Alpha  occ. eigenvalues --  -10.32061 -10.31349 -10.31183 -10.31097 -10.31091
 Alpha  occ. eigenvalues --  -10.31088  -8.10700  -6.05552  -6.05215  -6.04768
 Alpha  occ. eigenvalues --   -1.31027  -1.08074  -0.97528  -0.95490  -0.91233
 Alpha  occ. eigenvalues --   -0.88859  -0.87953  -0.84117  -0.82923  -0.77960
 Alpha  occ. eigenvalues --   -0.73739  -0.70255  -0.69500  -0.68575  -0.64919
 Alpha  occ. eigenvalues --   -0.60176  -0.59537  -0.58269  -0.56326  -0.54837
 Alpha  occ. eigenvalues --   -0.53908  -0.53594  -0.52515  -0.51182  -0.51111
 Alpha  occ. eigenvalues --   -0.49479  -0.48488  -0.46179  -0.45619  -0.45088
 Alpha  occ. eigenvalues --   -0.43574  -0.43304  -0.42116  -0.39550  -0.36813
 Alpha  occ. eigenvalues --   -0.36493  -0.32483  -0.31677  -0.28085
 Alpha virt. eigenvalues --   -0.02018   0.05439   0.06438   0.07112   0.07771
 Alpha virt. eigenvalues --    0.11579   0.13125   0.15147   0.15900   0.18087
 Alpha virt. eigenvalues --    0.18546   0.21249   0.21761   0.22246   0.22927
 Alpha virt. eigenvalues --    0.23196   0.23645   0.25296   0.27854   0.30748
 Alpha virt. eigenvalues --    0.31914   0.33558   0.35008   0.36143   0.36752
 Alpha virt. eigenvalues --    0.37936   0.38415   0.40707   0.43984   0.46463
 Alpha virt. eigenvalues --    0.46628   0.48608   0.50851   0.51225   0.51855
 Alpha virt. eigenvalues --    0.52310   0.53638   0.54693   0.54701   0.55805
 Alpha virt. eigenvalues --    0.55950   0.56288   0.57204   0.58098   0.58153
 Alpha virt. eigenvalues --    0.58717   0.59010   0.59539   0.59798   0.59923
 Alpha virt. eigenvalues --    0.60765   0.60984   0.62043   0.62518   0.64152
 Alpha virt. eigenvalues --    0.65242   0.66016   0.66493   0.68846   0.68978
 Alpha virt. eigenvalues --    0.70238   0.71981   0.72421   0.72915   0.73210
 Alpha virt. eigenvalues --    0.73970   0.75604   0.76158   0.77203   0.78785
 Alpha virt. eigenvalues --    0.79448   0.79574   0.81624   0.82633   0.82665
 Alpha virt. eigenvalues --    0.85678   0.88419   0.91483   0.93498   0.93724
 Alpha virt. eigenvalues --    0.94752   0.95004   0.96161   0.96698   0.98139
 Alpha virt. eigenvalues --    0.98739   0.99065   1.00533   1.00886   1.02335
 Alpha virt. eigenvalues --    1.03507   1.04697   1.05837   1.06191   1.07520
 Alpha virt. eigenvalues --    1.07886   1.09079   1.09630   1.10442   1.10629
 Alpha virt. eigenvalues --    1.11768   1.13226   1.13425   1.15631   1.16736
 Alpha virt. eigenvalues --    1.17148   1.18384   1.20598   1.21962   1.23910
 Alpha virt. eigenvalues --    1.25538   1.28615   1.33389   1.34259   1.34924
 Alpha virt. eigenvalues --    1.35388   1.36617   1.38536   1.42539   1.44253
 Alpha virt. eigenvalues --    1.47938   1.48700   1.52341   1.54772   1.54813
 Alpha virt. eigenvalues --    1.55306   1.56192   1.57286   1.57838   1.58113
 Alpha virt. eigenvalues --    1.59638   1.63193   1.65442   1.66180   1.66430
 Alpha virt. eigenvalues --    1.67709   1.68119   1.70237   1.70691   1.71465
 Alpha virt. eigenvalues --    1.71979   1.72639   1.72903   1.75154   1.75193
 Alpha virt. eigenvalues --    1.77154   1.77785   1.79982   1.81227   1.82448
 Alpha virt. eigenvalues --    1.83404   1.83720   1.84646   1.85957   1.86871
 Alpha virt. eigenvalues --    1.86964   1.88163   1.89652   1.91056   1.92068
 Alpha virt. eigenvalues --    1.92969   1.93062   1.93808   1.94197   1.94943
 Alpha virt. eigenvalues --    2.00624   2.00693   2.02139   2.03666   2.04210
 Alpha virt. eigenvalues --    2.07630   2.08386   2.09894   2.10858   2.12070
 Alpha virt. eigenvalues --    2.17844   2.17962   2.20701   2.24898   2.26207
 Alpha virt. eigenvalues --    2.27705   2.29940   2.36300   2.38610   2.41804
 Alpha virt. eigenvalues --    2.41982   2.45996   2.47227   2.47579   2.49257
 Alpha virt. eigenvalues --    2.50176   2.50927   2.54795   2.61502   2.62444
 Alpha virt. eigenvalues --    2.67625   2.72500   2.74529   2.78822   2.81389
 Alpha virt. eigenvalues --    2.82533   2.84254   2.89533   2.91540   2.97937
 Alpha virt. eigenvalues --    3.05953   3.12008   3.29296   3.47743   3.49573
 Alpha virt. eigenvalues --    3.56568   3.62914   3.78138   5.79036
          Condensed to atoms (all electrons):
               1          2          3          4          5          6
     1  C    4.769269   0.431658   0.014265  -0.053896  -0.012560   0.526152
     2  C    0.431658   5.350444   0.338405  -0.036259  -0.062763  -0.007055
     3  C    0.014265   0.338405   4.733730   0.486509  -0.006979  -0.064818
     4  C   -0.053896  -0.036259   0.486509   4.785652   0.526138  -0.014627
     5  C   -0.012560  -0.062763  -0.006979   0.526138   4.736195   0.484369
     6  C    0.526152  -0.007055  -0.064818  -0.014627   0.484369   4.754124
     7  H    0.401102  -0.039279   0.007831  -0.000423   0.007954  -0.038216
     8  H   -0.001196   0.012350  -0.029954   0.390929  -0.045186   0.008080
     9  H    0.008776  -0.000820   0.008738  -0.039895   0.405184  -0.045393
    10  H   -0.041836   0.009829  -0.000714   0.008792  -0.044098   0.405192
    11  N    0.009582  -0.067122   0.534124  -0.043399   0.003161  -0.000074
    12  S   -0.062585   0.348491  -0.097071   0.007224   0.000170   0.003334
    13  C   -0.000137   0.004486   0.006712  -0.000870   0.000009   0.000001
    14  C   -0.000005  -0.000043   0.000334   0.000007  -0.000000  -0.000000
    15  C    0.000005  -0.000024  -0.001175   0.000014   0.000000  -0.000000
    16  C    0.000000  -0.000000   0.000004  -0.000000   0.000000   0.000000
    17  H   -0.000001   0.000032  -0.000012  -0.000001   0.000000  -0.000000
    18  C    0.000000   0.000005  -0.000032   0.000000  -0.000000   0.000000
    19  C   -0.000000   0.000000   0.000003  -0.000000   0.000000   0.000000
    20  H   -0.000000  -0.000000  -0.000000   0.000000   0.000000  -0.000000
    21  H    0.000000  -0.000000   0.000000   0.000000  -0.000000  -0.000000
    22  H   -0.000000  -0.000000   0.000000  -0.000000   0.000000   0.000000
    23  C    0.005109  -0.059775  -0.136209   0.000730   0.000243  -0.000189
    24  O    0.000000  -0.000068  -0.000237   0.000038  -0.000000  -0.000000
    25  H   -0.000047   0.001225  -0.001638  -0.000746   0.000014   0.000007
               7          8          9         10         11         12
     1  C    0.401102  -0.001196   0.008776  -0.041836   0.009582  -0.062585
     2  C   -0.039279   0.012350  -0.000820   0.009829  -0.067122   0.348491
     3  C    0.007831  -0.029954   0.008738  -0.000714   0.534124  -0.097071
     4  C   -0.000423   0.390929  -0.039895   0.008792  -0.043399   0.007224
     5  C    0.007954  -0.045186   0.405184  -0.044098   0.003161   0.000170
     6  C   -0.038216   0.008080  -0.045393   0.405192  -0.000074   0.003334
     7  H    0.660910   0.000036  -0.000142  -0.012166  -0.000129  -0.006099
     8  H    0.000036   0.661418  -0.012312  -0.000127  -0.000308  -0.000078
     9  H   -0.000142  -0.012312   0.670118  -0.012212  -0.000112   0.000020
    10  H   -0.012166  -0.000127  -0.012212   0.666777  -0.000004  -0.000134
    11  N   -0.000129  -0.000308  -0.000112  -0.000004   6.392868  -0.083384
    12  S   -0.006099  -0.000078   0.000020  -0.000134  -0.083384  15.497941
    13  C    0.000006   0.000051  -0.000000  -0.000000  -0.022628  -0.061031
    14  C    0.000000   0.000002   0.000000   0.000000   0.003389  -0.004182
    15  C   -0.000000  -0.000078   0.000000   0.000000  -0.022894   0.004600
    16  C   -0.000000  -0.000000  -0.000000   0.000000  -0.000096  -0.000121
    17  H    0.000001   0.000000  -0.000000  -0.000000   0.000168   0.005461
    18  C   -0.000000   0.000001  -0.000000  -0.000000   0.000103  -0.000051
    19  C    0.000000   0.000000  -0.000000  -0.000000   0.000054   0.000012
    20  H   -0.000000  -0.000000   0.000000   0.000000   0.000001  -0.000002
    21  H   -0.000000  -0.000000   0.000000   0.000000  -0.000020   0.000002
    22  H    0.000000   0.000000  -0.000000  -0.000000   0.000000  -0.000000
    23  C    0.000015  -0.001082   0.000009   0.000002   0.561624   0.302281
    24  O   -0.000000  -0.000129   0.000000  -0.000000  -0.016577  -0.000066
    25  H    0.000000   0.001149  -0.000003   0.000000   0.049824   0.001993
              13         14         15         16         17         18
     1  C   -0.000137  -0.000005   0.000005   0.000000  -0.000001   0.000000
     2  C    0.004486  -0.000043  -0.000024  -0.000000   0.000032   0.000005
     3  C    0.006712   0.000334  -0.001175   0.000004  -0.000012  -0.000032
     4  C   -0.000870   0.000007   0.000014  -0.000000  -0.000001   0.000000
     5  C    0.000009  -0.000000   0.000000   0.000000   0.000000  -0.000000
     6  C    0.000001  -0.000000  -0.000000   0.000000  -0.000000   0.000000
     7  H    0.000006   0.000000  -0.000000  -0.000000   0.000001  -0.000000
     8  H    0.000051   0.000002  -0.000078  -0.000000   0.000000   0.000001
     9  H   -0.000000   0.000000   0.000000  -0.000000  -0.000000  -0.000000
    10  H   -0.000000   0.000000   0.000000   0.000000  -0.000000  -0.000000
    11  N   -0.022628   0.003389  -0.022894  -0.000096   0.000168   0.000103
    12  S   -0.061031  -0.004182   0.004600  -0.000121   0.005461  -0.000051
    13  C    5.353843   0.505183   0.258912  -0.011975  -0.037693  -0.095493
    14  C    0.505183   4.786029  -0.025376   0.527869   0.404333  -0.052965
    15  C    0.258912  -0.025376   4.950722  -0.066762   0.008737   0.480180
    16  C   -0.011975   0.527869  -0.066762   4.750739  -0.038287  -0.012320
    17  H   -0.037693   0.404333   0.008737  -0.038287   0.670084  -0.000837
    18  C   -0.095493  -0.052965   0.480180  -0.012320  -0.000837   4.860063
    19  C   -0.039794  -0.015748  -0.003225   0.482892   0.008466   0.483790
    20  H    0.008600  -0.035368  -0.000408   0.402289  -0.013096   0.008549
    21  H    0.010244  -0.000358  -0.024670   0.007061   0.000035   0.386397
    22  H   -0.000709   0.008539   0.009062  -0.042493  -0.000136  -0.041656
    23  C    0.286395  -0.087936  -0.065546   0.007961  -0.020120   0.007423
    24  O   -0.040797   0.003540   0.453791   0.000016  -0.000053  -0.066957
    25  H   -0.067311  -0.001531   0.022269  -0.000046   0.000051   0.016762
              19         20         21         22         23         24
     1  C   -0.000000  -0.000000   0.000000  -0.000000   0.005109   0.000000
     2  C    0.000000  -0.000000  -0.000000  -0.000000  -0.059775  -0.000068
     3  C    0.000003  -0.000000   0.000000   0.000000  -0.136209  -0.000237
     4  C   -0.000000   0.000000   0.000000  -0.000000   0.000730   0.000038
     5  C    0.000000   0.000000  -0.000000   0.000000   0.000243  -0.000000
     6  C    0.000000  -0.000000  -0.000000   0.000000  -0.000189  -0.000000
     7  H    0.000000  -0.000000  -0.000000   0.000000   0.000015  -0.000000
     8  H    0.000000  -0.000000  -0.000000   0.000000  -0.001082  -0.000129
     9  H   -0.000000   0.000000   0.000000  -0.000000   0.000009   0.000000
    10  H   -0.000000   0.000000   0.000000  -0.000000   0.000002  -0.000000
    11  N    0.000054   0.000001  -0.000020   0.000000   0.561624  -0.016577
    12  S    0.000012  -0.000002   0.000002  -0.000000   0.302281  -0.000066
    13  C   -0.039794   0.008600   0.010244  -0.000709   0.286395  -0.040797
    14  C   -0.015748  -0.035368  -0.000358   0.008539  -0.087936   0.003540
    15  C   -0.003225  -0.000408  -0.024670   0.009062  -0.065546   0.453791
    16  C    0.482892   0.402289   0.007061  -0.042493   0.007961   0.000016
    17  H    0.008466  -0.013096   0.000035  -0.000136  -0.020120  -0.000053
    18  C    0.483790   0.008549   0.386397  -0.041656   0.007423  -0.066957
    19  C    4.749715  -0.047032  -0.043022   0.407563   0.000231   0.003104
    20  H   -0.047032   0.671165  -0.000155  -0.011482  -0.000297   0.000003
    21  H   -0.043022  -0.000155   0.648242  -0.011467  -0.000382   0.000841
    22  H    0.407563  -0.011482  -0.011467   0.656068   0.000003  -0.000053
    23  C    0.000231  -0.000297  -0.000382   0.000003   5.142877  -0.006473
    24  O    0.003104   0.000003   0.000841  -0.000053  -0.006473   7.035328
    25  H   -0.000212  -0.000000   0.000402   0.000000   0.006195   0.384932
              25
     1  C   -0.000047
     2  C    0.001225
     3  C   -0.001638
     4  C   -0.000746
     5  C    0.000014
     6  C    0.000007
     7  H    0.000000
     8  H    0.001149
     9  H   -0.000003
    10  H    0.000000
    11  N    0.049824
    12  S    0.001993
    13  C   -0.067311
    14  C   -0.001531
    15  C    0.022269
    16  C   -0.000046
    17  H    0.000051
    18  C    0.016762
    19  C   -0.000212
    20  H   -0.000000
    21  H    0.000402
    22  H    0.000000
    23  C    0.006195
    24  O    0.384932
    25  H    0.851866
 Mulliken charges:
               1
     1  C    0.006346
     2  C   -0.223719
     3  C    0.208183
     4  C   -0.015918
     5  C    0.008151
     6  C   -0.010885
     7  H    0.018598
     8  H    0.016436
     9  H    0.018043
    10  H    0.020700
    11  N   -0.298149
    12  S    0.143276
    13  C   -0.056004
    14  C   -0.015713
    15  C    0.021866
    16  C   -0.006731
    17  H    0.012868
    18  C    0.027037
    19  C    0.013203
    20  H    0.017233
    21  H    0.026848
    22  H    0.026761
    23  C    0.056910
    24  O    0.249817
    25  H   -0.265156
 Sum of Mulliken charges =  -0.00000
 Mulliken charges with hydrogens summed into heavy atoms:
               1
     1  C    0.024944
     2  C   -0.223719
     3  C    0.208183
     4  C    0.000518
     5  C    0.026194
     6  C    0.009814
    11  N   -0.298149
    12  S    0.143276
    13  C   -0.056004
    14  C   -0.002845
    15  C    0.021866
    16  C    0.010501
    18  C    0.053886
    19  C    0.039964
    23  C    0.056910
    24  O   -0.015339
 Electronic spatial extent (au):  <R**2>=           4365.8032
 Charge=             -0.0000 electrons
 Dipole moment (field-independent basis, Debye):
    X=             -1.0501    Y=             -0.9751    Z=              0.0000  Tot=              1.4330
 Quadrupole moment (field-independent basis, Debye-Ang):
   XX=            -82.4791   YY=            -86.2298   ZZ=           -104.0699
   XY=             -7.9671   XZ=             -0.0001   YZ=              0.0003
 Traceless Quadrupole moment (field-independent basis, Debye-Ang):
[...]
 6346,0.,0.00000396,0.00006823,0.,-0.00002187,0.00006914,0.,0.00000157,
 -0.00000073,0.00000001,-0.00006355,0.00005023,0.,0.00001060,-0.0000284
 2,0.,0.00816307,-0.00460729,0.00000012,0.00035094,-0.00168379,-0.00000
 013,0.05169757,0.02901618,0.00000064,0.08998320,-0.27873272,-0.0000111
 8,0.00164096,-0.02834954,-0.00000176,-0.01620612,0.65396191,-0.0000001
 5,0.00000004,-0.00007628,-0.00000006,-0.00000021,-0.00014395,-0.000000
 40,0.00000054,-0.00012910,0.00000030,-0.00000004,-0.00005636,-0.000000
 02,0.00000014,-0.00006624,0.00000005,-0.00000002,0.00002467,0.,0.,-0.0
 0003440,0.,0.,-0.00003172,0.,0.,-0.00001316,0.,0.,0.00007021,0.0000005
 7,-0.00000030,0.00169030,0.,-0.00000017,0.00011443,0.00000222,0.000001
 37,0.00268612,0.00000704,-0.00001327,-0.05338719,0.00000015,-0.0000013
 6,-0.00328744,-0.00000565,0.00003044,0.13066179,0.00014672,-0.00001263
 ,0.,-0.00101291,-0.00032065,0.00000004,-0.00005282,0.00069051,0.,0.000
 44163,-0.00002400,0.,0.00006833,0.00040554,0.,-0.00016488,-0.00020863,
 0.,-0.00001074,0.00001386,0.,0.00001298,-0.00000938,0.,-0.00000582,0.0
 0000113,0.,0.00002253,0.00000006,0.,0.00080078,0.00004556,0.00000002,-
 0.00017857,0.00100389,-0.00000007,-0.00690394,-0.02753859,-0.00000129,
 -0.10363249,-0.10673937,-0.00000506,-0.00623690,0.00196209,0.00000004,
 0.01062826,0.01879908,0.00000088,0.10673146,-0.00004935,-0.00007513,0.
 ,-0.00029324,-0.00009848,-0.00000002,-0.00034575,0.00071407,-0.0000000
 2,0.00044923,-0.00008951,0.,0.00001287,0.00045798,0.,-0.00022089,-0.00
 018726,0.,0.00000108,0.00001941,0.,-0.00000555,-0.00001390,0.,-0.00001
 555,0.00000339,0.,-0.00001146,0.00000319,0.,0.00079052,-0.00009440,0.0
 0000009,-0.00028116,-0.00031201,0.00000008,0.00284507,0.00052170,-0.00
 000007,-0.10541635,-0.29670475,-0.00001253,0.00011385,0.00130146,-0.00
 000024,-0.01298080,-0.01851915,-0.00000097,0.11127062,0.31395096,0.000
 00008,-0.00000004,-0.00006419,-0.00000008,0.00000009,-0.00024293,0.000
 00004,-0.00000009,0.00016600,-0.00000003,0.,0.00006893,0.,0.00000002,0
 .00000815,-0.00000007,0.,0.00002214,0.,0.,0.00001059,0.,0.,0.00003474,
 0.,0.,0.00000443,0.,0.,-0.00001956,-0.00000007,0.00000002,-0.00105292,
 -0.00000006,0.00000013,0.00026397,0.00000093,0.00000003,0.00225060,-0.
 00000576,-0.00001234,-0.03154902,0.00000008,-0.00000022,0.00515209,-0.
 00000050,-0.00000178,0.00325133,0.00000515,0.00001386,0.02143142,-0.00
 206141,0.00164598,-0.00000005,0.00263366,-0.00057075,0.,-0.00040146,0.
 00216463,0.00000007,0.00044098,0.00013106,0.,-0.00031894,-0.00168239,0
 .,0.00304234,0.00038139,0.,-0.00011679,-0.00007674,0.,0.00017809,0.000
 11152,0.,0.00016964,-0.00002942,0.,0.00010712,-0.00003024,0.00000001,0
 .00586788,0.00525191,-0.00000005,-0.00184772,-0.00116512,0.,0.02033928
 ,0.01929973,0.00000132,-0.01640952,0.02472487,0.00000159,-0.17308133,0
 .07891798,0.00000668,-0.01484245,-0.06139459,-0.00000292,-0.00029311,0
 .00046823,-0.00000021,0.79155987,-0.00006935,-0.00046384,-0.00000002,-
 0.00355335,-0.00375245,-0.00000002,-0.00340656,0.00594686,-0.00000008,
 0.00340831,-0.00068146,0.00000002,0.00027828,0.00334306,0.,-0.00165443
 ,-0.00129445,0.,0.00002267,0.00011727,0.,-0.00011891,-0.00011497,0.,-0
 .00011254,0.00002177,0.,-0.00001088,0.00000176,0.,0.00721521,-0.004431
 32,0.00000022,0.00163464,-0.00357043,0.00000006,0.01860858,-0.03331650
 ,-0.00000274,-0.00370887,-0.00256395,0.00000025,0.13131344,-0.27670671
 ,-0.00001489,-0.03569115,-0.00331909,-0.00000002,-0.00038348,0.0003253
 7,0.00000022,0.03906421,0.71973528,-0.00000003,-0.00000003,0.00056740,
 -0.00000022,-0.00000026,0.00046138,-0.00000024,0.00000034,0.00043844,0
 .00000021,-0.00000003,-0.00033012,0.00000002,0.00000020,0.00003233,-0.
 00000008,-0.00000008,-0.00002914,0.,0.,-0.00000579,0.,0.,-0.00001161,0
 .,0.,0.00002965,0.,0.,-0.00012354,0.00000030,-0.00000048,-0.00149415,0
 .00000011,-0.00000006,-0.00009858,0.00000045,-0.00000167,0.00894874,0.
 00000035,-0.00000061,-0.00104790,0.00000984,-0.00001444,-0.06697667,-0
 .00000175,0.00000036,0.00616763,0.00000002,0.00000007,-0.00068409,-0.0
 0001628,0.00003219,0.11153755,0.00273896,-0.00146341,0.00000007,-0.000
 84400,0.00278255,-0.00000003,0.00484488,-0.00803918,-0.00000002,-0.003
 84091,0.00050604,-0.00000001,0.00049425,-0.00075004,0.,-0.00243896,0.0
 0053362,0.,0.00009762,0.00005399,0.,-0.00007080,-0.00006916,0.,-0.0001
 3732,-0.00000328,0.,-0.00008263,0.00005911,0.,-0.01159157,0.00151075,-
 0.00000007,0.00263026,0.00206984,0.00000009,-0.01629344,-0.02247636,-0
 .00000109,0.04310593,-0.01151371,-0.00000118,-0.04531224,0.04437362,0.
 00000393,-0.14570845,-0.02879853,-0.00000094,-0.00198137,0.00430701,0.
 00000052,-0.40484121,-0.06152371,0.00000506,0.75164182,-0.00117548,-0.
 00015668,0.00000004,-0.00482237,-0.00613187,0.00000002,-0.00598294,0.0
 1241622,-0.00000009,0.00702483,-0.00145984,0.00000004,-0.00002644,0.00
 589904,0.,-0.00148618,-0.00300806,-0.00000001,0.00000157,0.00015578,0.
 ,-0.00010800,-0.00018715,0.00000001,-0.00009771,0.00003938,0.,-0.00003
 495,0.00000407,-0.00000002,0.01398222,-0.00561685,-0.00000010,-0.00083
 947,-0.00420356,0.00000003,-0.01182382,-0.00902243,-0.00000036,0.01751
 715,-0.05778588,-0.00000417,0.01342149,0.03409651,0.00000143,-0.090935
 35,-0.28095986,-0.00001318,0.00310938,-0.00182995,-0.00000032,-0.01126
 651,-0.12768369,-0.00000350,-0.04518969,0.67658844,-0.00000017,0.00000
 004,0.00010099,-0.00000034,-0.00000055,-0.00028293,-0.00000058,0.00000
 118,-0.00080725,0.00000065,-0.00000013,0.00008138,-0.00000002,0.000000
 47,0.00007610,-0.00000004,-0.00000025,-0.00001119,0.,0.00000001,-0.000
 01051,0.,-0.00000001,-0.00009095,0.,0.,-0.00000594,0.,0.,0.00001032,0.
 00000142,-0.00000041,0.00122127,-0.00000016,-0.00000039,0.00024407,-0.
 00000026,0.00000023,-0.00430613,0.00000019,-0.00000353,0.00810980,0.00
 000207,0.00000055,0.00231077,-0.00000417,-0.00001384,-0.06088799,0.000
 00025,-0.00000054,0.00681178,0.00000653,-0.00000280,-0.04949459,-0.000
 01486,0.00003524,0.11721944,0.00003631,-0.00006719,0.,-0.00011255,0.00
 004371,0.,-0.00000348,-0.00006382,0.,0.00000299,0.00002228,0.,0.000020
 43,0.00008645,0.,-0.00013132,0.00000910,0.,0.00000490,0.00001290,0.,-0
 .00000239,-0.00000879,0.,-0.00001557,0.00000362,0.,-0.00000820,0.00000
 532,0.,-0.00021994,0.00037954,-0.00000003,0.00006765,-0.00003559,0.,0.
 00049170,0.00306193,0.00000022,-0.01384228,-0.00630888,-0.00000025,0.0
 0062193,0.00013232,-0.00000001,-0.34014627,-0.04086376,-0.00000016,0.0
 0083890,0.00010334,-0.00000004,0.00130669,-0.00219174,-0.00000015,-0.0
 0683275,0.00219982,0.00000027,0.35832667,-0.00003770,0.00001596,0.,-0.
 00004280,-0.00012983,0.,-0.00003246,0.00022942,-0.00000004,0.00010678,
 -0.00005414,0.,0.00001376,0.00006307,0.,0.00000588,-0.00001648,0.,0.00
 000019,-0.00000049,0.,-0.00000078,0.00000002,0.,0.00000145,-0.00000283
 ,0.,0.00000217,-0.00000106,0.,0.00054962,-0.00046848,0.00000011,0.0000
 2765,-0.00003174,0.,0.00307284,-0.00387158,-0.00000065,0.02496210,0.00
 700589,-0.00000010,0.00033889,-0.00133880,-0.00000002,-0.04172878,-0.0
 6456714,-0.00000149,0.00002862,0.00086119,0.00000030,-0.00120757,-0.00
 558003,-0.00000063,-0.02958687,0.00082870,0.00000004,0.04404185,0.0646
 7008,-0.00000002,0.,-0.00005079,-0.00000002,-0.00000004,0.00004868,-0.
 00000004,0.00000008,0.00059114,0.00000004,-0.00000001,0.00012903,0.,0.
 00000003,-0.00007725,0.,0.,0.00002250,0.,0.,0.00000126,0.,0.,0.0000386
 8,0.,0.,-0.00002320,0.,0.,0.00000002,0.00000013,-0.00000010,-0.0012272
 8,0.,-0.00000002,-0.00006818,0.00000030,-0.00000061,0.00791547,0.00000
 136,0.00000051,0.00579641,0.00000002,-0.00000016,-0.00091521,-0.000000
 11,-0.00000180,-0.03776365,-0.00000004,0.00000028,-0.00478402,-0.00000
 006,-0.00000071,0.00467778,-0.00000163,-0.00000004,0.00477981,0.000000
 12,0.00000214,0.02413006,-0.00006691,0.00003545,0.,0.00007272,0.000098
 56,0.,0.00000866,0.00005863,0.00000002,0.00000123,0.00000791,0.,-0.000
 02347,-0.00005904,0.,0.00008548,0.00001452,0.,-0.00000111,-0.00000352,
 0.,-0.00000443,0.00000338,0.,0.00000463,0.00000084,0.,-0.00000102,-0.0
 0000240,0.,0.00000693,0.00003137,-0.00000003,-0.00025101,0.00006592,-0
 .00000001,-0.00298711,0.00242092,0.00000036,-0.00002495,0.00029404,-0.
 00000001,0.00811450,0.01920641,0.00000085,-0.00564343,0.00078707,0.000
 00037,0.00010720,-0.00010489,-0.00000003,-0.10513899,-0.11194723,-0.00
 000354,-0.00474063,-0.02823263,-0.00000125,-0.00041686,-0.00139953,-0.
 00000012,0.10866805,0.00013409,0.00000143,0.00000002,-0.00002200,0.000
 07463,0.,0.00020778,-0.00021629,-0.00000004,-0.00013126,0.00000882,0.,
 -0.00000576,-0.00008647,0.,0.00000345,-0.00001425,0.,-0.00000564,-0.00
 000483,0.,0.00001219,0.00000557,0.,0.00000967,-0.00000187,0.,0.0000072
 4,-0.00000082,0.,-0.00035225,0.00035506,0.00000003,0.00024007,-0.00003
 013,0.00000002,0.00375252,-0.00115686,-0.00000043,0.00045675,0.0002072
 9,0.00000005,-0.01325277,-0.01916912,-0.00000065,-0.00009142,0.0017223
 8,-0.00000025,-0.00005940,-0.00005130,0.00000004,-0.10681668,-0.299765
 76,-0.00001097,0.00181794,0.00180081,-0.00000007,0.00010206,-0.0000147
 9,0.,0.11666540,0.31447048,0.00000007,-0.00000002,-0.00028838,0.000000
 02,0.00000009,0.00004578,0.00000012,-0.00000023,0.00046199,-0.00000011
 ,0.00000002,-0.00004343,0.,-0.00000006,-0.00004615,-0.00000003,0.00000
 003,0.00001525,0.,0.,0.00000158,0.,0.,0.00005307,0.,0.,0.00000430,0.,0
 .,0.00004906,-0.00000033,0.00000007,-0.00055141,0.00000008,0.00000006,
 -0.00010590,0.00000026,-0.00000038,0.00428244,0.00000030,-0.00000016,-
 0.00075951,-0.00000105,-0.00000141,0.00443197,0.00000024,0.,0.00710990
 ,-0.00000001,0.00000004,-0.00065362,-0.00000271,-0.00001050,-0.0342532
 7,-0.00000038,0.00000035,0.00345341,0.,0.00000006,-0.00007296,0.000003
 86,0.00001177,0.02399681,-0.00003431,-0.00002794,0.,-0.00022535,-0.000
 19307,0.,-0.00019415,0.00045228,0.,0.00026930,-0.00005749,0.,0.0000114
 7,0.00025647,0.,-0.00010908,-0.00009315,0.,0.00000146,0.00001103,0.,-0
 .00000120,-0.00001084,0.,-0.00001076,0.00000277,0.,-0.00000384,0.00000
 204,0.,0.00061175,-0.00009509,0.,-0.00001090,-0.00008655,0.,0.00016285
 ,-0.00046383,-0.00000004,-0.00101754,-0.00247525,-0.00000007,-0.004120
 81,-0.00260556,0.00000009,0.01056085,-0.01152121,-0.00000084,0.0003489
 3,-0.00054618,0.,-0.01172715,0.02614600,0.00000186,-0.17196617,0.14103
 275,0.00001072,0.00066476,0.00046164,-0.00000002,0.00109191,-0.0002400
 7,-0.00000013,0.17776302,0.00012725,0.00000347,0.,0.00018757,0.0003302
 8,0.,0.00045635,-0.00073365,0.,-0.00041254,0.00007695,0.,0.00000399,-0
 .00030397,0.,0.00006373,0.00009690,0.,-0.00000206,-0.00001126,0.,0.000
 00592,0.00001045,0.,0.00001030,-0.00000356,0.,0.00000482,-0.00000060,0
 .,-0.00087839,0.00030847,0.,0.00000581,0.00026853,0.,-0.00141007,0.000
 09215,0.00000009,-0.00283899,-0.00376926,-0.00000051,-0.00148067,0.000
 50774,-0.00000036,0.02025951,-0.01465857,-0.00000132,0.00091398,-0.000
 99282,-0.00000007,-0.00617343,0.00752400,0.00000030,0.14222540,-0.2356
 3914,-0.00001484,-0.00009305,0.00097570,0.00000024,0.00025831,0.000596
 07,0.00000026,-0.15156683,0.24529453,0.00000003,0.,-0.00000360,0.00000
 002,0.00000006,0.00002255,0.00000007,-0.00000011,-0.00000688,-0.000000
 06,0.00000001,0.00001443,0.,-0.00000004,0.00000767,0.,0.00000002,-0.00
 000483,0.,0.,0.00001198,0.,0.,0.00001995,0.,0.,0.00000322,0.,0.,-0.000
 01791,-0.00000012,0.00000006,0.00003599,0.,0.00000003,-0.00008495,-0.0
 0000012,0.00000007,-0.00130007,-0.00000020,-0.00000055,0.00417646,0.00
 000021,-0.00000026,0.00754964,0.00000116,-0.00000082,0.00270016,0.0000
 0007,-0.00000009,0.00058799,0.00000022,-0.00000029,0.00457523,0.000010
 54,-0.00001472,-0.03330040,-0.00000001,0.00000023,-0.00273312,-0.00000
 013,0.00000023,-0.00408794,-0.00001169,0.00001616,0.02234772,-0.012570
 62,-0.00139780,0.,0.00203409,0.00820040,-0.00000004,-0.10098802,0.0476
 5432,-0.00000088,0.01985448,-0.00107829,-0.00000001,-0.00155395,0.0078
 4687,0.,0.00007702,0.00168530,0.,0.00045922,-0.00052045,0.,-0.00041477
 ,-0.00005882,0.,-0.00026796,0.00019290,0.,-0.00047473,-0.00016909,0.,-
 0.29666480,-0.04485448,-0.00000014,-0.05317910,-0.01551188,0.00000017,
 -0.17327716,0.13037296,0.00000062,-0.04583850,0.04272285,0.00000204,0.
 00650415,-0.00480344,-0.00000027,0.00118085,-0.01671115,-0.00000104,-0
 .00019855,-0.00031851,0.00000002,-0.00393801,-0.01313105,-0.00000050,0
 .00718296,-0.00624665,-0.00000075,-0.00058688,0.00050049,0.00000002,0.
 00058825,-0.00060296,0.00000017,-0.00040350,0.00084493,0.00000010,0.64
 366611,-0.01166803,0.00642687,0.00000004,0.04972312,-0.01619955,0.0000
 0026,0.02640756,-0.01381324,-0.00000010,-0.00040975,-0.00453958,-0.000
 00004,-0.00039576,-0.00742254,0.00000004,0.01094753,0.00427949,0.00000
 002,0.00019366,-0.00102592,0.,0.00005878,0.00064408,-0.00000003,0.0004
 7558,-0.00044835,0.,-0.00003682,-0.00001209,0.,-0.05201392,-0.08598482
 ,0.00000035,-0.00958660,-0.05304004,0.00000028,0.10010647,-0.23493577,
 -0.00000063,0.01901581,0.00965582,-0.00000015,0.03023069,-0.04254944,-
 0.00000073,-0.00621586,-0.00193437,-0.00000027,-0.00116134,0.00076011,
 0.00000012,-0.01555431,0.00713608,0.00000039,0.00900381,0.00632380,0.0
 0000018,-0.00058895,0.00107084,0.00000014,0.00026568,-0.00055796,-0.00
 000007,0.00038485,-0.00008534,0.00000003,-0.13715980,0.42629880,-0.000
 00021,0.00000009,0.00291125,-0.00000010,-0.00000035,-0.00425152,-0.000
 00075,0.00000087,0.00372638,0.00000031,-0.00000004,0.00642142,-0.00000
 003,0.00000019,0.00079546,0.00000008,-0.00000010,0.00075994,0.,0.,-0.0
 0017696,0.,0.,-0.00101688,0.,0.,-0.00092241,0.,0.,-0.00036921,-0.00000
 014,-0.00000029,-0.03701551,-0.00000002,0.00000066,-0.02165374,-0.0000
 0025,-0.00000026,-0.03929630,0.00000041,0.00000034,0.00582305,0.000000
 21,-0.00000110,0.00516896,0.,-0.00000017,0.00199102,0.00000006,0.00000
 007,-0.00055165,-0.00000035,0.,-0.00004126,0.00000016,0.00000010,-0.00
 077400,0.00000002,0.00000003,-0.00034231,0.00000002,-0.00000010,0.0010
 8528,0.,0.,0.00011798,0.00000057,-0.00000002,0.07826560,0.00340814,0.0
 0095610,0.00000015,0.00683371,0.01153299,-0.00000008,0.01558662,-0.017
 46062,-0.00000019,-0.01117048,0.00170281,0.00000002,-0.00070423,-0.009
 36177,0.00000002,0.00302058,0.00295850,0.,-0.00018660,-0.00020786,0.,0
 .00056963,0.00030062,-0.00000004,0.00031813,-0.00005212,0.,0.00008653,
 0.00003213,-0.00000001,-0.01557807,0.02371747,0.00000012,0.00030080,0.
 00807384,-0.00000006,-0.03498133,-0.01178568,0.00000069,0.02219592,-0.
 01055767,-0.00000111,-0.32761182,-0.09328013,0.00000881,-0.00841760,0.
 01043370,0.00000066,0.00021916,0.00020023,0.00000003,-0.08925416,0.015
 90769,0.00000492,0.00493996,0.00968414,0.00000031,-0.00010939,-0.00004
 632,0.00000006,0.00063620,-0.00202208,-0.00000035,-0.00130804,-0.00048
 733,-0.00000008,0.01042832,-0.00838658,-0.00000005,0.61526140,-0.00020
 865,-0.00054933,0.00000002,-0.00099875,-0.00264105,0.,-0.00706783,0.00
 088149,-0.00000002,0.00108477,-0.00052916,0.00000002,0.00002248,0.0009
 3322,0.,-0.00017569,-0.00073771,0.,0.00009579,-0.00016827,0.,0.0000564
 6,0.00003389,0.00000001,0.00013546,-0.00005262,0.,0.00004928,-0.000054
 25,0.,0.00542735,-0.02697003,0.00000017,0.00058203,-0.00188335,0.,-0.0
 3217544,-0.00211521,0.00000101,0.00030413,-0.00816228,-0.00000031,-0.0
 5831117,-0.13849848,0.00000068,-0.00131142,0.00243396,0.00000016,-0.00
 182749,-0.00001366,-0.00000001,0.04639582,0.01452144,-0.00000198,-0.00
 158620,-0.00805302,-0.00000071,-0.00002087,0.00041970,0.00000004,0.001
 33659,0.00188030,0.00000006,0.00142922,0.00031275,0.00000004,0.0073477
 0,0.00589305,0.00000003,-0.14596243,0.48397351,0.00000006,-0.00000006,
 0.00037841,-0.00000006,-0.00000002,-0.00027137,-0.00000006,-0.00000013
 ,-0.00027841,-0.00000004,0.,0.00003619,0.00000004,0.00000005,0.0002281
 8,-0.00000013,0.00000003,-0.00000107,0.,0.,-0.00000759,-0.00000002,0.,
 -0.00018706,-0.00000001,0.,-0.00001297,0.,0.,-0.00011157,-0.00000006,0
 .00000004,0.00672991,0.00000007,-0.00000008,-0.00080006,0.00000031,-0.
 00000108,0.00941726,-0.00000057,0.00000002,0.00216253,0.00000832,0.000
 00269,-0.04374021,0.00000024,-0.00000036,-0.00056941,-0.00000007,0.,-0
 .00053845,0.00000579,-0.00000106,0.01111169,-0.00000031,-0.00000054,0.
 00390863,0.,0.00000002,-0.00011348,-0.00000036,0.00000025,-0.00332522,
 0.00000007,0.00000002,0.00012906,-0.00000044,0.00000039,-0.00199954,-0
 .00001570,0.00000331,0.02835063,-0.00088198,-0.00017159,-0.00000003,-0
 .00193181,-0.00249343,0.00000005,-0.00306901,0.00607073,0.00000006,0.0
 0335359,-0.00008559,-0.00000002,-0.00005000,0.00235216,-0.00000001,-0.
 00066814,-0.00082366,0.,0.00002273,0.00006579,0.,-0.00050317,-0.000095
 68,0.00000003,-0.00006214,0.00002331,0.,-0.00003067,-0.00004968,0.,-0.
 00542470,-0.00262531,-0.00000011,-0.00078389,-0.00216707,0.00000002,0.
 00535757,0.00051804,-0.00000010,-0.00373727,0.00257355,0.00000024,-0.0
 4552885,0.03443374,0.00000142,0.00087033,-0.00138454,-0.00000010,0.000
 30521,0.00002764,0.,-0.00137332,-0.00609574,-0.00000034,-0.00099418,0.
 00029486,0.00000019,0.00004493,-0.00003113,0.,-0.00008582,0.00019313,-
 0.00000004,-0.00035348,-0.00002452,0.00000001,-0.00161888,-0.00363580,
 0.00000003,-0.19448337,0.18537886,0.00000294,0.25162634,0.00291646,0.0
 0014653,0.00000006,0.00278427,0.00838910,-0.00000009,0.01506427,-0.011
 56729,-0.00000010,-0.00673090,0.00168122,0.00000002,-0.00042761,-0.004
 66135,0.,0.00036596,0.00166153,0.,-0.00015814,0.00011939,0.,0.00042994
 ,0.00008823,-0.00000003,-0.00005570,0.00006641,0.,-0.00005444,0.000091
 95,0.,-0.00910812,0.01394789,0.00000008,0.00143651,0.00594707,-0.00000
 002,-0.01031891,-0.00130283,-0.00000002,0.00894245,-0.00393437,-0.0000
 0043,0.01032633,0.01868926,-0.00000044,-0.00171845,0.00339139,0.000000
 19,0.00004065,0.00006348,0.00000002,-0.01258959,0.00457175,0.00000091,
 0.00175647,0.00358521,0.00000011,0.00003837,-0.00006321,0.00000001,0.0
 0019823,-0.00005242,0.00000002,-0.00019599,-0.00019982,-0.00000005,-0.
 00480434,-0.00593994,0.00000002,0.21411037,-0.32085491,-0.00000349,-0.
 21224809,0.28613573,0.00000004,0.,-0.00013267,0.00000014,0.00000019,0.
 00037286,0.00000016,-0.00000034,-0.00055019,-0.00000019,0.00000002,-0.
 00026142,0.,-0.00000016,-0.00011698,0.00000005,0.00000007,0.00000124,0
 .,0.,-0.00001474,0.,0.,0.00018353,0.,0.,0.00002775,0.,0.,0.00006481,-0
 .00000025,0.00000029,-0.00707450,-0.00000005,0.00000010,0.00062928,-0.
 00000054,0.00000033,-0.00339710,0.00000032,-0.00000015,0.00008395,0.00
 000178,-0.00000121,-0.00218035,-0.00000013,0.00000024,-0.00002068,0.00
 000001,0.,0.00007629,0.00000042,0.00000018,0.00604287,0.00000017,-0.00
 000022,0.00164411,0.,0.,0.00004059,0.,0.00000010,-0.00080306,0.0000000
 4,0.00000004,-0.00076032,0.00000037,-0.00000022,0.00134493,0.00000188,
 -0.00000250,-0.01049607,-0.00000424,0.00000322,0.01529588\\0.00236125,
 -0.00311865,-0.00000004,-0.00381418,-0.00795926,0.00000018,-0.00942054
 ,-0.00096676,-0.00000013,-0.00144105,0.00183136,0.00000010,0.00123665,
 0.00678489,0.,0.00257884,0.00228228,-0.00000016,0.00063897,-0.00055435
 ,0.00000004,-0.00062514,0.00042841,0.00000001,0.00008241,0.00059525,0.
 ,0.00044863,0.00028926,0.00000002,0.00677918,-0.00925748,0.00000004,-0
 .00472471,-0.01725595,0.00000040,0.00438412,-0.00467714,-0.00000057,-0
 .00818236,0.00324878,-0.00000036,-0.00988567,-0.00405101,-0.00000110,0
 .00222070,-0.00075508,-0.00000044,-0.00056830,0.00029042,0.,0.00564962
 ,0.00024228,0.00000076,0.00686243,0.00468521,0.00000052,0.00011376,0.0
 0053942,0.,0.00073227,-0.00005289,-0.00000005,0.00077904,0.00057219,0.
 00000002,0.00298181,0.00082267,0.00000014,0.00702719,0.00544327,-0.000
 00016,-0.00621493,0.02059287,0.00000077\\\@
 The archive entry for this job was punched.


 I DON'T EXACTLY UNDERSTAND WHAT YOU ARE SAYING,
 BUT YOU ARE ABSOLUTELY RIGHT.
     M.S.GORDON, IN A NDSU FACULTY MEETING
 Job cpu time:       0 days  2 hours 51 minutes  7.1 seconds.
 Elapsed time:       0 days  0 hours 17 minutes 48.7 seconds.
 File lengths (MBytes):  RWF=   1380 Int=      0 D2E=      0 Chk=     48 Scr=      8
 Normal termination of Gaussian 16 at Mon Jul 13 20:49:23 2020.
