 Entering Gaussian System, Link 0=g16
 Initial command:
 /gpfs/loomis/apps/avx/software/Gaussian/16-C.01_AVX/g16/l1.exe "/home/fas/batista/pev4/scratch60/gauss-scratch/Gau-176370.inp" -scrdir="/home/fas/batista/pev4/scratch60/gauss-scratch/"
 Entering Link 1 = /gpfs/loomis/apps/avx/software/Gaussian/16-C.01_AVX/g16/l1.exe PID=    176371.
  
 Copyright (c) 1988-2019, Gaussian, Inc.  All Rights Reserved.
  
 This is part of the Gaussian(R) 16 program.  It is based on
 the Gaussian(R) 09 system (copyright 2009, Gaussian, Inc.),
 the Gaussian(R) 03 system (copyright 2003, Gaussian, Inc.),
 the Gaussian(R) 98 system (copyright 1998, Gaussian, Inc.),
 the Gaussian(R) 94 system (copyright 1995, Gaussian, Inc.),
 the Gaussian 92(TM) system (copyright 1992, Gaussian, Inc.),
 the Gaussian 90(TM) system (copyright 1990, Gaussian, Inc.),
 the Gaussian 88(TM) system (copyright 1988, Gaussian, Inc.),
 the Gaussian 86(TM) system (copyright 1986, Carnegie Mellon
 University), and the Gaussian 82(TM) system (copyright 1983,
 Carnegie Mellon University). Gaussian is a federally registered
 trademark of Gaussian, Inc.
  
 This software contains proprietary and confidential information,
 including trade secrets, belonging to Gaussian, Inc.
  
 This software is provided under written license and may be
 used, copied, transmitted, or stored only in accord with that
 written license.
  
 The following legend is applicable only to US Government
 contracts under FAR:
  
                    RESTRICTED RIGHTS LEGEND
  
 Use, reproduction and disclosure by the US Government is
 subject to restrictions as set forth in subparagraphs (a)
 and (c) of the Commercial Computer Software - Restricted
 Rights clause in FAR 52.227-19.
  
 Gaussian, Inc.
 340 Quinnipiac St., Bldg. 40, Wallingford CT 06492
  
  
 ---------------------------------------------------------------
 Warning -- This program may not be used in any manner that
 competes with the business of Gaussian, Inc. or will provide
 assistance to any competitor of Gaussian, Inc.  The licensee
 of this program is prohibited from giving any competitor of
 Gaussian, Inc. access to this program.  By using this program,
 the user acknowledges that Gaussian, Inc. is engaged in the
 business of creating and licensing software in the field of
 computational chemistry and represents and warrants to the
 licensee that it is not a competitor of Gaussian, Inc. and that
 it will not use this program in any manner prohibited above.
 ---------------------------------------------------------------
  

 Cite this work as:
 Gaussian 16, Revision C.01,
 M. J. Frisch, G. W. Trucks, H. B. Schlegel, G. E. Scuseria, 
 M. A. Robb, J. R. Cheeseman, G. Scalmani, V. Barone, 
 G. A. Petersson, H. Nakatsuji, X. Li, M. Caricato, A. V. Marenich, 
 J. Bloino, B. G. Janesko, R. Gomperts, B. Mennucci, H. P. Hratchian, 
 J. V. Ortiz, A. F. Izmaylov, J. L. Sonnenberg, D. Williams-Young, 
 F. Ding, F. Lipparini, F. Egidi, J. Goings, B. Peng, A. Petrone, 
 T. Henderson, D. Ranasinghe, V. G. Zakrzewski, J. Gao, N. Rega, 
 G. Zheng, W. Liang, M. Hada, M. Ehara, K. Toyota, R. Fukuda, 
 J. Hasegawa, M. Ishida, T. Nakajima, Y. Honda, O. Kitao, H. Nakai, 
 T. Vreven, K. Throssell, J. A. Montgomery, Jr., J. E. Peralta, 
 F. Ogliaro, M. J. Bearpark, J. J. Heyd, E. N. Brothers, K. N. Kudin, 
 V. N. Staroverov, T. A. Keith, R. Kobayashi, J. Normand, 
 K. Raghavachari, A. P. Rendell, J. C. Burant, S. S. Iyengar, 
 J. Tomasi, M. Cossi, J. M. Millam, M. Klene, C. Adamo, R. Cammi, 
 J. W. Ochterski, R. L. Martin, K. Morokuma, O. Farkas, 
 J. B. Foresman, and D. J. Fox, Gaussian, Inc., Wallingford CT, 2019.
 
 ******************************************
 Gaussian 16:  ES64L-G16RevC.01  3-Jul-2019
                14-Jul-2020 
 ******************************************
 %chk=config_9_17.chk
 %mem=58GB
 %nprocshared=10
 Will use up to   10 processors via shared memory.
 ----------------------------------------------------------------------
 #p opt=addgic freq td wb97xd/cc-pvdz nosymm int=ultrafine scrf=(solven
 t=CarbonTetraChloride)
 ----------------------------------------------------------------------
 1/18=20,19=15,26=6,38=1,145=903/1,3;
 2/9=110,12=2,15=1,17=6,18=5,40=1/2;
 3/5=16,11=9,25=1,30=1,70=2201,71=1,72=11,74=-58,75=-5/1,2,3,8;
 4//1;
 5/5=2,38=5,53=11/2;
 8/6=1,10=1/1;
 9/15=2,42=1,70=2/14;
 10/5=4,31=1/2;
 6/7=2,8=2,9=2,10=2/1;
 7/12=6,13=5,30=1/1,2,3,16;
 1/18=20,19=15,26=6,145=903/3(2);
 2/9=110,15=1/2;
 99//99;
 2/9=110,15=1/2;
 3/5=16,11=9,25=1,30=1,70=2205,71=1,72=11,74=-58,75=-5/1,2,3,8;
 4/5=5,16=3,69=1/1;
 5/5=2,38=5,53=11/2;
 8/6=1,10=1/1;
 9/15=2,42=1,49=4,70=2/14;
 10/5=4,31=1/2;
 7/12=6,13=5,30=1/1,2,3,16;
 1/18=20,19=15,26=6,145=903/3(-8);
 2/9=110,15=1/2;
 6/7=2,8=2,9=2,10=2/1;
 99/9=10/99;
 Leave Link    1 at Tue Jul 14 13:02:28 2020, MaxMem=  7784628224 cpu:               3.4 elap:               0.4
 (Enter /gpfs/loomis/apps/avx/software/Gaussian/16-C.01_AVX/g16/l101.exe)
 ------------------------------------------------
 NM 2D-scan of HBT TD-WB97XD pVDZ in CTC Relaxed.
 ------------------------------------------------
 Symbolic Z-matrix:
 Charge =  0 Multiplicity = 1
 C                     1.53413  -3.24766  -0.00002 
 C                     1.0046   -1.95341  -0.00002 
 C                     1.80576  -0.77376  -0.00003 
 C                     3.20408  -0.9428   -0.00003 
 C                     3.73501  -2.24195  -0.00002 
 C                     2.92256  -3.38836  -0.00002 
 H                     0.86718  -4.11968  -0.00001 
 H                     3.86966  -0.0695   -0.00004 
 H                     4.82383  -2.3607   -0.00002 
 H                     3.3749   -4.38529  -0.00001 
 N                     1.03611   0.38728  -0.00003 
 S                    -0.6973   -1.58166  -0.00003 
 C                    -1.31953   1.07648   0.00001 
 C                    -2.66733   0.72173   0.00002 
 C                    -0.89769   2.48629   0.00004 
 C                    -3.65709   1.73567   0.00003 
 H                    -2.9725   -0.33152   0.00002 
 C                    -1.93863   3.47136   0.00004 
 C                    -3.29391   3.09023   0.00003 
 H                    -4.71432   1.44951   0.00004 
 H                    -1.63925   4.52637   0.00006 
 H                    -4.07381   3.85796   0.00004 
 C                    -0.29617   0.09822  -0.00002 
 O                     0.3465    2.73136   0.00006 
 H                     1.07303   1.30711   0.00001 
 
 Initializing the GIC definitions file.
 Number of initial coordinates =   134
 Number of input entries/lines =    52
 Number of additional coordinates =     2
 Number of removed coordinates =     0
 Number of frozen coordinates =     2
 Number of final active and frozen coordinates =   136
 ITRead=  0  0  0  0  0  0  0  0  0  0  0  0  0  0  0  0  0  0  0  0
 ITRead=  0  0  0  0  0
 MicOpt= -1 -1 -1 -1 -1 -1 -1 -1 -1 -1 -1 -1 -1 -1 -1 -1 -1 -1 -1 -1
 MicOpt= -1 -1 -1 -1 -1
 NAtoms=     25 NQM=       25 NQMF=       0 NMMI=      0 NMMIF=      0
                NMic=       0 NMicF=      0.
                    Isotopes and Nuclear Properties:
 (Nuclear quadrupole moments (NQMom) in fm**2, nuclear magnetic moments (NMagM)
  in nuclear magnetons)

  Atom         1           2           3           4           5           6           7           8           9          10
 IAtWgt=          12          12          12          12          12          12           1           1           1           1
 AtmWgt=  12.0000000  12.0000000  12.0000000  12.0000000  12.0000000  12.0000000   1.0078250   1.0078250   1.0078250   1.0078250
 NucSpn=           0           0           0           0           0           0           1           1           1           1
 AtZEff=  -0.0000000  -0.0000000  -0.0000000  -0.0000000  -0.0000000  -0.0000000  -0.0000000  -0.0000000  -0.0000000  -0.0000000
 NQMom=    0.0000000   0.0000000   0.0000000   0.0000000   0.0000000   0.0000000   0.0000000   0.0000000   0.0000000   0.0000000
 NMagM=    0.0000000   0.0000000   0.0000000   0.0000000   0.0000000   0.0000000   2.7928460   2.7928460   2.7928460   2.7928460
 AtZNuc=   6.0000000   6.0000000   6.0000000   6.0000000   6.0000000   6.0000000   1.0000000   1.0000000   1.0000000   1.0000000

  Atom        11          12          13          14          15          16          17          18          19          20
 IAtWgt=          14          32          12          12          12          12           1          12          12           1
 AtmWgt=  14.0030740  31.9720718  12.0000000  12.0000000  12.0000000  12.0000000   1.0078250  12.0000000  12.0000000   1.0078250
 NucSpn=           2           0           0           0           0           0           1           0           0           1
 AtZEff=  -0.0000000  -0.0000000  -0.0000000  -0.0000000  -0.0000000  -0.0000000  -0.0000000  -0.0000000  -0.0000000  -0.0000000
 NQMom=    2.0440000   0.0000000   0.0000000   0.0000000   0.0000000   0.0000000   0.0000000   0.0000000   0.0000000   0.0000000
 NMagM=    0.4037610   0.0000000   0.0000000   0.0000000   0.0000000   0.0000000   2.7928460   0.0000000   0.0000000   2.7928460
 AtZNuc=   7.0000000  16.0000000   6.0000000   6.0000000   6.0000000   6.0000000   1.0000000   6.0000000   6.0000000   1.0000000

  Atom        21          22          23          24          25
 IAtWgt=           1           1          12          16           1
 AtmWgt=   1.0078250   1.0078250  12.0000000  15.9949146   1.0078250
 NucSpn=           1           1           0           0           1
 AtZEff=  -0.0000000  -0.0000000  -0.0000000  -0.0000000  -0.0000000
 NQMom=    0.0000000   0.0000000   0.0000000   0.0000000   0.0000000
 NMagM=    2.7928460   2.7928460   0.0000000   0.0000000   2.7928460
 AtZNuc=   1.0000000   1.0000000   6.0000000   8.0000000   1.0000000
 Leave Link  101 at Tue Jul 14 13:02:31 2020, MaxMem=  7784628224 cpu:              28.8 elap:               3.2
 (Enter /gpfs/loomis/apps/avx/software/Gaussian/16-C.01_AVX/g16/l103.exe)

 GradGradGradGradGradGradGradGradGradGradGradGradGradGradGradGradGradGrad
 Berny optimization.
 Initialization pass.
                           ----------------------------
                           !    Initial Parameters    !
                           ! (Angstroms and Degrees)  !
 --------------------------                            --------------------------
 ! Name  Definition              Value          Derivative Info.                !
 --------------------------------------------------------------------------------
 ! R1    R(1,2)                  1.3984         estimate D2E/DX2                !
 ! R2    R(1,6)                  1.3955         estimate D2E/DX2                !
 ! R3    R(1,7)                  1.0978         estimate D2E/DX2                !
 ! R4    R(2,3)                  1.426          estimate D2E/DX2                !
 ! R5    R(2,12)                 1.742          estimate D2E/DX2                !
 ! R6    R(3,4)                  1.4085         estimate D2E/DX2                !
 ! R7    R(3,11)                 1.393          estimate D2E/DX2                !
 ! R8    R(4,5)                  1.4035         estimate D2E/DX2                !
 ! R9    R(4,8)                  1.098          estimate D2E/DX2                !
 ! R10   R(5,6)                  1.4051         estimate D2E/DX2                !
 ! R11   R(5,9)                  1.0953         estimate D2E/DX2                !
 ! R12   R(6,10)                 1.0948         estimate D2E/DX2                !
 ! R13   R(11,23)                1.3633         estimate D2E/DX2                !
 ! R14   R(11,25)                0.9206         estimate D2E/DX2                !
 ! R15   R(12,23)                1.7271         estimate D2E/DX2                !
 ! R16   R(13,14)                1.3937         estimate D2E/DX2                !
 ! R17   R(13,15)                1.4716         estimate D2E/DX2                !
 ! R18   R(13,23)                1.4157         estimate D2E/DX2                !
 ! R19   R(14,16)                1.4169         estimate D2E/DX2                !
 ! R20   R(14,17)                1.0966         estimate D2E/DX2                !
 ! R21   R(15,18)                1.4331         estimate D2E/DX2                !
 ! R22   R(15,24)                1.2681         estimate D2E/DX2                !
 ! R23   R(16,19)                1.4024         estimate D2E/DX2                !
 ! R24   R(16,20)                1.0953         estimate D2E/DX2                !
 ! R25   R(18,19)                1.4079         estimate D2E/DX2                !
 ! R26   R(18,21)                1.0967         estimate D2E/DX2                !
 ! R27   R(19,22)                1.0944         estimate D2E/DX2                !
 ! A1    A(2,1,6)              118.0379         estimate D2E/DX2                !
 ! A2    A(2,1,7)              120.3387         estimate D2E/DX2                !
 ! A3    A(6,1,7)              121.6234         estimate D2E/DX2                !
 ! A4    A(1,2,3)              123.5665         estimate D2E/DX2                !
 ! A5    A(1,2,12)             124.5733         estimate D2E/DX2                !
 ! A6    A(3,2,12)             111.8602         estimate D2E/DX2                !
 ! A7    A(2,3,4)              117.2892         estimate D2E/DX2                !
 ! A8    A(2,3,11)             112.2775         estimate D2E/DX2                !
 ! A9    A(4,3,11)             130.4333         estimate D2E/DX2                !
 ! A10   A(3,4,5)              119.1216         estimate D2E/DX2                !
 ! A11   A(3,4,8)              120.4197         estimate D2E/DX2                !
 ! A12   A(5,4,8)              120.4586         estimate D2E/DX2                !
 ! A13   A(4,5,6)              122.4461         estimate D2E/DX2                !
 ! A14   A(4,5,9)              118.4531         estimate D2E/DX2                !
 ! A15   A(6,5,9)              119.1008         estimate D2E/DX2                !
 ! A16   A(1,6,5)              119.5387         estimate D2E/DX2                !
 ! A17   A(1,6,10)             120.1922         estimate D2E/DX2                !
 ! A18   A(5,6,10)             120.2691         estimate D2E/DX2                !
 ! A19   A(3,11,23)            111.299          estimate D2E/DX2                !
 ! A20   A(3,11,25)            144.1609         estimate D2E/DX2                !
 ! A21   A(23,11,25)           104.5401         estimate D2E/DX2                !
 ! A22   A(2,12,23)             88.892          estimate D2E/DX2                !
 ! A23   A(14,13,15)           121.4045         estimate D2E/DX2                !
 ! A24   A(14,13,23)           121.5448         estimate D2E/DX2                !
 ! A25   A(15,13,23)           117.0507         estimate D2E/DX2                !
 ! A26   A(13,14,16)           119.5622         estimate D2E/DX2                !
 ! A27   A(13,14,17)           120.905          estimate D2E/DX2                !
 ! A28   A(16,14,17)           119.5328         estimate D2E/DX2                !
 ! A29   A(13,15,18)           116.7622         estimate D2E/DX2                !
 ! A30   A(13,15,24)           117.801          estimate D2E/DX2                !
 ! A31   A(18,15,24)           125.4367         estimate D2E/DX2                !
 ! A32   A(14,16,19)           120.6827         estimate D2E/DX2                !
 ! A33   A(14,16,20)           119.1633         estimate D2E/DX2                !
 ! A34   A(19,16,20)           120.154          estimate D2E/DX2                !
 ! A35   A(15,18,19)           120.8726         estimate D2E/DX2                !
 ! A36   A(15,18,21)           117.5784         estimate D2E/DX2                !
 ! A37   A(19,18,21)           121.5489         estimate D2E/DX2                !
 ! A38   A(16,19,18)           120.7157         estimate D2E/DX2                !
 ! A39   A(16,19,22)           119.5409         estimate D2E/DX2                !
 ! A40   A(18,19,22)           119.7434         estimate D2E/DX2                !
 ! A41   A(11,23,12)           115.6713         estimate D2E/DX2                !
 ! A42   A(11,23,13)           124.0497         estimate D2E/DX2                !
 ! A43   A(12,23,13)           120.279          estimate D2E/DX2                !
 ! D1    D(6,1,2,3)             -0.0001         estimate D2E/DX2                !
 ! D2    D(6,1,2,12)           180.0            estimate D2E/DX2                !
 ! D3    D(7,1,2,3)            179.9999         estimate D2E/DX2                !
 ! D4    D(7,1,2,12)            -0.0001         estimate D2E/DX2                !
 ! D5    D(2,1,6,5)             -0.0001         estimate D2E/DX2                !
 ! D6    D(2,1,6,10)           179.9999         estimate D2E/DX2                !
 ! D7    D(7,1,6,5)            179.9999         estimate D2E/DX2                !
 ! D8    D(7,1,6,10)             0.0            estimate D2E/DX2                !
 ! D9    D(1,2,3,4)              0.0003         estimate D2E/DX2                !
 ! D10   D(1,2,3,11)          -179.9999         estimate D2E/DX2                !
 ! D11   D(12,2,3,4)          -179.9998         estimate D2E/DX2                !
 ! D12   D(12,2,3,11)            0.0            estimate D2E/DX2                !
 ! D13   D(1,2,12,23)          179.9996         estimate D2E/DX2                !
 ! D14   D(3,2,12,23)           -0.0003         estimate D2E/DX2                !
 ! D15   D(2,3,4,5)             -0.0002         estimate D2E/DX2                !
 ! D16   D(2,3,4,8)            179.9998         estimate D2E/DX2                !
 ! D17   D(11,3,4,5)           180.0            estimate D2E/DX2                !
 ! D18   D(11,3,4,8)             0.0001         estimate D2E/DX2                !
 ! D19   D(2,3,11,23)            0.0004         estimate D2E/DX2                !
 ! D20   D(2,3,11,25)          179.9952         estimate D2E/DX2                !
 ! D21   D(4,3,11,23)         -179.9998         estimate D2E/DX2                !
 ! D22   D(4,3,11,25)           -0.005          estimate D2E/DX2                !
 ! D23   D(3,4,5,6)              0.0001         estimate D2E/DX2                !
 ! D24   D(3,4,5,9)           -179.9999         estimate D2E/DX2                !
 ! D25   D(8,4,5,6)            180.0            estimate D2E/DX2                !
 ! D26   D(8,4,5,9)              0.0            estimate D2E/DX2                !
 ! D27   D(4,5,6,1)              0.0001         estimate D2E/DX2                !
 ! D28   D(4,5,6,10)          -179.9999         estimate D2E/DX2                !
 ! D29   D(9,5,6,1)           -179.9999         estimate D2E/DX2                !
 ! D30   D(9,5,6,10)             0.0            estimate D2E/DX2                !
 ! D31   D(3,11,23,12)          -0.0007         estimate D2E/DX2                !
 ! D32   D(3,11,23,13)         179.9982         estimate D2E/DX2                !
 ! D33   D(25,11,23,12)       -179.9976         estimate D2E/DX2                !
 ! D34   D(25,11,23,13)          0.0013         estimate D2E/DX2                !
 ! D35   D(2,12,23,11)           0.0006         estimate D2E/DX2                !
 ! D36   D(2,12,23,13)        -179.9984         estimate D2E/DX2                !
 ! D37   D(15,13,14,16)          0.0013         estimate D2E/DX2                !
 ! D38   D(15,13,14,17)       -179.9992         estimate D2E/DX2                !
 ! D39   D(23,13,14,16)       -179.9988         estimate D2E/DX2                !
 ! D40   D(23,13,14,17)          0.0007         estimate D2E/DX2                !
 ! D41   D(14,13,15,18)         -0.0016         estimate D2E/DX2                !
 ! D42   D(14,13,15,24)        179.9982         estimate D2E/DX2                !
 ! D43   D(23,13,15,18)        179.9985         estimate D2E/DX2                !
 ! D44   D(23,13,15,24)         -0.0017         estimate D2E/DX2                !
 ! D45   D(14,13,23,11)       -179.9998         estimate D2E/DX2                !
 ! D46   D(14,13,23,12)         -0.0009         estimate D2E/DX2                !
 ! D47   D(15,13,23,11)          0.0001         estimate D2E/DX2                !
 ! D48   D(15,13,23,12)        179.999          estimate D2E/DX2                !
 ! D49   D(13,14,16,19)         -0.0003         estimate D2E/DX2                !
 ! D50   D(13,14,16,20)        179.9997         estimate D2E/DX2                !
 ! D51   D(17,14,16,19)       -179.9998         estimate D2E/DX2                !
 ! D52   D(17,14,16,20)          0.0001         estimate D2E/DX2                !
 ! D53   D(13,15,18,19)          0.0008         estimate D2E/DX2                !
 ! D54   D(13,15,18,21)       -180.0            estimate D2E/DX2                !
 ! D55   D(24,15,18,19)       -179.9989         estimate D2E/DX2                !
 ! D56   D(24,15,18,21)          0.0004         estimate D2E/DX2                !
 ! D57   D(14,16,19,18)         -0.0005         estimate D2E/DX2                !
 ! D58   D(14,16,19,22)        179.9998         estimate D2E/DX2                !
 ! D59   D(20,16,19,18)        179.9996         estimate D2E/DX2                !
 ! D60   D(20,16,19,22)         -0.0001         estimate D2E/DX2                !
 ! D61   D(15,18,19,16)          0.0002         estimate D2E/DX2                !
 ! D62   D(15,18,19,22)        179.9999         estimate D2E/DX2                !
 ! D63   D(21,18,19,16)       -179.999          estimate D2E/DX2                !
 ! D64   D(21,18,19,22)          0.0007         estimate D2E/DX2                !
 ! Qtot  GIC-1                  30.0            Frozen                          !
 ! Ptot  GIC-2                 180.0            Frozen                          !
 --------------------------------------------------------------------------------
 NOTE: GIC-type coordinates are in arbitrary units.
 Trust Radius=3.00D-01 FncErr=5.00D-06 GrdErr=5.00D-06 EigMax=2.50D+02 EigMin=1.00D-04
 Number of steps in this run=    146 maximum allowed number of steps=    150.
 GradGradGradGradGradGradGradGradGradGradGradGradGradGradGradGradGradGrad

 Leave Link  103 at Tue Jul 14 13:02:31 2020, MaxMem=  7784628224 cpu:               0.1 elap:               0.0
 (Enter /gpfs/loomis/apps/avx/software/Gaussian/16-C.01_AVX/g16/l202.exe)
                          Input orientation:                          
 ---------------------------------------------------------------------
 Center     Atomic      Atomic             Coordinates (Angstroms)
 Number     Number       Type             X           Y           Z
 ---------------------------------------------------------------------
      1          6           0        1.534130   -3.247656   -0.000017
      2          6           0        1.004603   -1.953411   -0.000023
      3          6           0        1.805756   -0.773760   -0.000027
      4          6           0        3.204081   -0.942802   -0.000030
      5          6           0        3.735012   -2.241951   -0.000024
      6          6           0        2.922555   -3.388356   -0.000016
      7          1           0        0.867181   -4.119676   -0.000012
      8          1           0        3.869661   -0.069503   -0.000036
      9          1           0        4.823833   -2.360703   -0.000025
     10          1           0        3.374904   -4.385288   -0.000010
     11          7           0        1.036106    0.387278   -0.000031
     12         16           0       -0.697297   -1.581655   -0.000026
     13          6           0       -1.319533    1.076479    0.000012
     14          6           0       -2.667327    0.721728    0.000025
     15          6           0       -0.897690    2.486292    0.000036
     16          6           0       -3.657087    1.735673    0.000033
     17          1           0       -2.972502   -0.331520    0.000020
     18          6           0       -1.938625    3.471359    0.000039
     19          6           0       -3.293912    3.090229    0.000035
     20          1           0       -4.714318    1.449515    0.000037
     21          1           0       -1.639251    4.526374    0.000056
     22          1           0       -4.073812    3.857965    0.000038
     23          6           0       -0.296167    0.098223   -0.000022
     24          8           0        0.346505    2.731359    0.000059
     25          1           0        1.073031    1.307112    0.000010
 ---------------------------------------------------------------------
                    Distance matrix (angstroms):
                    1          2          3          4          5
     1  C    0.000000
     2  C    1.398381   0.000000
     3  C    2.488763   1.425982   0.000000
     4  C    2.846241   2.420544   1.408505   0.000000
     5  C    2.419778   2.745612   2.424379   1.403452   0.000000
     6  C    1.395536   2.395330   2.843124   2.461706   1.405109
     7  H    1.097834   2.170619   3.475065   3.943809   3.427872
     8  H    3.944028   3.428945   2.180753   1.098020   2.176616
     9  H    3.407173   3.840886   3.409865   2.152683   1.095278
    10  H    2.163944   3.395931   3.937685   3.446722   2.173378
    11  N    3.668892   2.340901   1.392971   2.543467   3.767882
    12  S    2.784749   1.742030   2.630204   3.953339   4.481223
    13  C    5.180882   3.818618   3.631916   4.953844   6.046520
    14  C    5.779987   4.543065   4.716456   6.102793   7.055022
    15  C    6.228315   4.830081   4.235157   5.346326   6.619532
    16  C    7.195992   5.944804   6.011648   7.365450   8.394321
    17  H    5.367828   4.295101   4.798679   6.206757   6.974273
    18  C    7.563412   6.171769   5.660515   6.777333   8.051837
    19  C    7.967357   6.626880   6.398204   7.647826   8.822580
    20  H    7.817066   6.654771   6.888710   8.271893   9.220526
    21  H    8.396778   6.998398   6.321352   7.305460   8.642506
    22  H    9.052009   7.717668   7.484798   8.718663   9.908921
    23  C    3.813777   2.429240   2.275618   3.651776   4.661204
    24  O    6.095824   4.730768   3.796745   4.654589   6.017956
    25  H    4.578048   3.261241   2.206108   3.098949   4.436439
                    6          7          8          9         10
     6  C    0.000000
     7  H    2.181603   0.000000
     8  H    3.451347   5.041705   0.000000
     9  H    2.161233   4.330021   2.481943   0.000000
    10  H    1.094757   2.521750   4.344051   2.489646   0.000000
    11  N    4.220675   4.510118   2.870137   4.679559   5.314825
    12  S    4.045677   2.981466   4.810792   5.575823   4.944005
    13  C    6.158739   5.637530   5.314228   7.039543   7.201988
    14  C    6.938269   5.994326   6.584699   8.100547   7.911395
    15  C    7.007550   6.837659   5.409226   7.498612   8.091580
    16  C    8.339506   7.399602   7.740194   9.418402   9.322825
    17  H    6.640478   5.393819   6.847178   8.056080   7.531440
    18  C    8.407543   8.092982   6.802492   8.929938   9.484751
    19  C    8.978671   8.324507   7.829476   9.778059  10.017807
    20  H    9.040289   7.884733   8.717346  10.271032   9.973988
    21  H    9.135263   9.002021   7.174274   9.444749  10.225432
    22  H   10.072652   9.383825   8.861365  10.855410  11.110112
    23  C    4.745146   4.375392   4.169204   5.679853   5.794708
    24  O    6.639801   6.870792   4.500829   6.780529   7.734201
    25  H    5.046599   5.430690   3.117084   5.246083   6.140199
                   11         12         13         14         15
    11  N    0.000000
    12  S    2.623239   0.000000
    13  C    2.454391   2.729992   0.000000
    14  C    3.718504   3.030939   1.393698   0.000000
    15  C    2.854019   4.072880   1.471572   2.499060   0.000000
    16  C    4.883055   4.445787   2.428723   1.416937   2.859668
    17  H    4.072543   2.596034   2.171351   1.096569   3.499272
    18  C    4.284925   5.203254   2.473606   2.844552   1.433145
    19  C    5.104410   5.344989   2.820170   2.449980   2.471158
    20  H    5.847711   5.032340   3.415219   2.172521   3.954942
    21  H    4.928453   6.180234   3.464678   3.941100   2.170679
    22  H    6.177130   6.402368   3.914425   3.437176   3.459659
    23  C    1.363270   1.727107   1.415719   2.451766   2.462661
    24  O    2.443413   4.437524   2.348257   3.622402   1.268100
    25  H    0.920575   3.388073   2.403654   3.785888   2.296563
                   16         17         18         19         20
    16  C    0.000000
    17  H    2.177600   0.000000
    18  C    2.442482   3.940913   0.000000
    19  C    1.402397   3.436811   1.407858   0.000000
    20  H    1.095274   2.491186   3.433996   2.170138   0.000000
    21  H    3.443788   5.037528   1.096668   2.190985   4.350069
    22  H    2.162818   4.331820   2.169905   1.094378   2.492164
    23  C    3.738586   2.710617   3.751762   4.235395   4.620178
    24  O    4.125547   4.516307   2.401961   3.658062   5.220637
    25  H    4.749492   4.364796   3.708644   4.716958   5.789101
                   21         22         23         24         25
    21  H    0.000000
    22  H    2.524651   0.000000
    23  C    4.627352   5.329752   0.000000
    24  O    2.676808   4.561627   2.710430   0.000000
    25  H    4.209527   5.744288   1.826503   1.598850   0.000000
 Symmetry turned off by external request.
 Stoichiometry    C13H9NOS
 Framework group  C1[X(C13H9NOS)]
 Deg. of freedom    69
 Full point group                 C1      NOp   1
 Rotational constants (GHZ):           1.4163893           0.2863438           0.2381902
 Leave Link  202 at Tue Jul 14 13:02:31 2020, MaxMem=  7784628224 cpu:               0.1 elap:               0.0
 (Enter /gpfs/loomis/apps/avx/software/Gaussian/16-C.01_AVX/g16/l301.exe)
 Standard basis: CC-pVDZ (5D, 7F)
 Ernie: Thresh=  0.10000D-02 Tol=  0.10000D-05 Strict=F.
 Ernie:  40 primitive shells out of 425 were deleted.
   273 basis functions,   629 primitive gaussians,   289 cartesian basis functions
    59 alpha electrons       59 beta electrons
       nuclear repulsion energy      1101.9842717191 Hartrees.
 IExCor= 4639 DFT=T Ex+Corr=wB97XD ExCW=0 ScaHFX=  1.000000
 ScaDFX=  1.000000  1.000000  1.000000  1.000000 ScalE2=  1.000000  1.000000
 IRadAn=      5 IRanWt=     -1 IRanGd=            0 ICorTp=0 IEmpDi=121
 HFx  wShort=  0.000000 wLong=  0.200000 cFull=  0.222036 cShort=  0.000000 cLong=  0.777964
 DFx  wShort=  0.000000 wLong=  0.200000 cFull=  0.000000 cShort=  0.000000 cLong=  1.000000
 NAtoms=   25 NActive=   25 NUniq=   25 SFac= 1.00D+00 NAtFMM=   60 NAOKFM=F Big=F
 Integral buffers will be    131072 words long.
 Raffenetti 1 integral format.
 Two-electron integral symmetry is turned off.
 R6Disp:  Grimme-D2 Dispersion energy=       -0.0139096486 Hartrees.
 Nuclear repulsion after empirical dispersion term =     1101.9703620706 Hartrees.
 ------------------------------------------------------------------------------
 Polarizable Continuum Model (PCM)
 =================================
 Model                : PCM.
 Atomic radii         : UFF (Universal Force Field).
 Polarization charges : Total charges.
 Charge compensation  : None.
 Solution method      : On-the-fly selection.
 Cavity type          : Scaled VdW (van der Waals Surface) (Alpha=1.100).
 Cavity algorithm     : GePol (No added spheres)
                        Default sphere list used, NSphG=   25.
                        Lebedev-Laikov grids with approx.  5.0 points / Ang**2.
                        Smoothing algorithm: York/Karplus (Gamma=1.0000).
                        Polarization charges: spherical gaussians, with
                                              point-specific exponents (IZeta= 3).
                        Self-potential: point-specific (ISelfS= 7).
                        Self-field    : sphere-specific E.n sum rule (ISelfD= 2).
 1st derivatives      : Analytical E(r).r(x)/FMM algorithm (CHGder, D1EAlg=3).
                        Cavity 1st derivative terms included.
 Solvent              : CarbonTetraChloride, Eps=   2.228000 Eps(inf)=   2.131892
 ------------------------------------------------------------------------------
 GePol: Number of generator spheres                  =      25
 GePol: Total number of spheres                      =      25
 GePol: Number of exposed spheres                    =      25 (100.00%)
 GePol: Number of points                             =    2191
 GePol: Average weight of points                     =       0.12
 GePol: Minimum weight of points                     =   0.90D-08
 GePol: Maximum weight of points                     =    0.20577
 GePol: Number of points with low weight             =     149
 GePol: Fraction of low-weight points (<1% of avg)   =       6.80%
 GePol: Cavity surface area                          =    271.564 Ang**2
 GePol: Cavity volume                                =    291.976 Ang**3
 Leave Link  301 at Tue Jul 14 13:02:31 2020, MaxMem=  7784628224 cpu:               0.8 elap:               0.1
 (Enter /gpfs/loomis/apps/avx/software/Gaussian/16-C.01_AVX/g16/l302.exe)
 NPDir=0 NMtPBC=     1 NCelOv=     1 NCel=       1 NClECP=     1 NCelD=      1
         NCelK=      1 NCelE2=     1 NClLst=     1 CellRange=     0.0.
 One-electron integrals computed using PRISM.
 NBasis=   273 RedAO= T EigKep=  3.18D-04  NBF=   273
 NBsUse=   273 1.00D-06 EigRej= -1.00D+00 NBFU=   273
 Precomputing XC quadrature grid using
 IXCGrd= 4 IRadAn=           5 IRanWt=          -1 IRanGd=           0 AccXCQ= 0.00D+00.
 Generated NRdTot=       0 NPtTot=           0 NUsed=           0 NTot=          32
 NSgBfM=   288   288   288   288   288 MxSgAt=    25 MxSgA2=    25.
 Leave Link  302 at Tue Jul 14 13:02:32 2020, MaxMem=  7784628224 cpu:               2.5 elap:               0.4
 (Enter /gpfs/loomis/apps/avx/software/Gaussian/16-C.01_AVX/g16/l303.exe)
 DipDrv:  MaxL=1.
 Leave Link  303 at Tue Jul 14 13:02:32 2020, MaxMem=  7784628224 cpu:               0.4 elap:               0.1
 (Enter /gpfs/loomis/apps/avx/software/Gaussian/16-C.01_AVX/g16/l308.exe)
 Leave Link  308 at Tue Jul 14 13:02:32 2020, MaxMem=  7784628224 cpu:               0.5 elap:               0.1
 (Enter /gpfs/loomis/apps/avx/software/Gaussian/16-C.01_AVX/g16/l401.exe)
 ExpMin= 1.22D-01 ExpMax= 1.11D+05 ExpMxC= 1.07D+03 IAcc=3 IRadAn=         5 AccDes= 0.00D+00
 Harris functional with IExCor= 4639 and IRadAn=       5 diagonalized for initial guess.
 HarFok:  IExCor= 4639 AccDes= 0.00D+00 IRadAn=         5 IDoV= 1 UseB2=F ITyADJ=14
 ICtDFT=  3500011 ScaDFX=  1.000000  1.000000  1.000000  1.000000
 FoFCou: FMM=F IPFlag=           0 FMFlag=      100000 FMFlg1=           0
         NFxFlg=           0 DoJE=T BraDBF=F KetDBF=T FulRan=T
         wScrn=  0.000000 ICntrl=       500 IOpCl=  0 I1Cent=   200000004 NGrid=           0
         NMat0=    1 NMatS0=      1 NMatT0=    0 NMatD0=    1 NMtDS0=    0 NMtDT0=    0
 Symmetry not used in FoFCou.
 Harris En= -994.427565252568    
 JPrj=0 DoOrth=F DoCkMO=F.
 Leave Link  401 at Tue Jul 14 13:02:33 2020, MaxMem=  7784628224 cpu:              13.5 elap:               1.4
 (Enter /gpfs/loomis/apps/avx/software/Gaussian/16-C.01_AVX/g16/l502.exe)
 Two-electron integral symmetry not used.
 Closed shell SCF:
 Using DIIS extrapolation, IDIIS=  1040.
 NGot=  7784628224 LenX=  7784455381 LenY=  7784371419
 Requested convergence on RMS density matrix=1.00D-08 within 128 cycles.
 Requested convergence on MAX density matrix=1.00D-06.
 Requested convergence on             energy=1.00D-06.
 No special actions if energy rises.
 Fock matrices will be formed incrementally for  20 cycles.

 Cycle   1  Pass 1  IDiag  1:
 FoFJK:  IHMeth= 1 ICntrl=       0 DoSepK=T KAlg= 0 I1Cent=           0 FoldK=F
 IRaf=         1 NMat=       1 IRICut=       1 DoRegI=T DoRafI=F ISym2E= 0 IDoP0=0 IntGTp=1.
 FoFCou: FMM=F IPFlag=           0 FMFlag=      100000 FMFlg1=           0
         NFxFlg=           0 DoJE=T BraDBF=F KetDBF=F FulRan=T
         wScrn=  0.000000 ICntrl=       500 IOpCl=  0 I1Cent=           0 NGrid=           0
         NMat0=    1 NMatS0=      1 NMatT0=    0 NMatD0=    1 NMtDS0=    0 NMtDT0=    0
 Symmetry not used in FoFCou.
 Inv3:  Mode=1 IEnd=    14401443.
 Iteration    1 A*A^-1 deviation from unit magnitude is 4.11D-15 for   2175.
 Iteration    1 A*A^-1 deviation from orthogonality  is 2.59D-15 for   2189   2082.
 Iteration    1 A^-1*A deviation from unit magnitude is 4.44D-15 for   2173.
 Iteration    1 A^-1*A deviation from orthogonality  is 1.99D-15 for   2176   2076.
 E= -1028.53948163404    
 DIIS: error= 3.46D-02 at cycle   1 NSaved=   1.
 NSaved= 1 IEnMin= 1 EnMin= -1028.53948163404     IErMin= 1 ErrMin= 3.46D-02
 ErrMax= 3.46D-02  0.00D+00 EMaxC= 1.00D-01 BMatC= 3.90D-01 BMatP= 3.90D-01
 IDIUse=3 WtCom= 6.54D-01 WtEn= 3.46D-01
 Coeff-Com:  0.100D+01
 Coeff-En:   0.100D+01
 Coeff:      0.100D+01
 Gap=     0.311 Goal=   None    Shift=    0.000
 GapD=    0.311 DampG=1.000 DampE=0.500 DampFc=0.5000 IDamp=-1.
 Damping current iteration by 5.00D-01
 RMSDP=3.58D-03 MaxDP=2.37D-01              OVMax= 1.96D-01

 Cycle   2  Pass 1  IDiag  1:
 RMSU=  1.78D-03    CP:  9.95D-01
 E= -1028.65710897808     Delta-E=       -0.117627344040 Rises=F Damp=T
 DIIS: error= 1.17D-02 at cycle   2 NSaved=   2.
 NSaved= 2 IEnMin= 2 EnMin= -1028.65710897808     IErMin= 2 ErrMin= 1.17D-02
 ErrMax= 1.17D-02  0.00D+00 EMaxC= 1.00D-01 BMatC= 5.86D-02 BMatP= 3.90D-01
 IDIUse=3 WtCom= 8.83D-01 WtEn= 1.17D-01
 Coeff-Com: -0.288D+00 0.129D+01
 Coeff-En:   0.000D+00 0.100D+01
 Coeff:     -0.254D+00 0.125D+01
 Gap=     0.283 Goal=   None    Shift=    0.000
 RMSDP=1.15D-03 MaxDP=2.55D-02 DE=-1.18D-01 OVMax= 1.40D-01

 Cycle   3  Pass 1  IDiag  1:
 RMSU=  1.12D-03    CP:  9.94D-01  1.16D+00
 E= -1028.76265036711     Delta-E=       -0.105541389029 Rises=F Damp=F
 DIIS: error= 6.78D-03 at cycle   3 NSaved=   3.
 NSaved= 3 IEnMin= 3 EnMin= -1028.76265036711     IErMin= 3 ErrMin= 6.78D-03
 ErrMax= 6.78D-03  0.00D+00 EMaxC= 1.00D-01 BMatC= 1.61D-02 BMatP= 5.86D-02
 IDIUse=3 WtCom= 9.32D-01 WtEn= 6.78D-02
 Coeff-Com: -0.209D+00 0.511D+00 0.698D+00
 Coeff-En:   0.000D+00 0.000D+00 0.100D+01
 Coeff:     -0.195D+00 0.476D+00 0.719D+00
 Gap=     0.240 Goal=   None    Shift=    0.000
 RMSDP=5.66D-04 MaxDP=1.98D-02 DE=-1.06D-01 OVMax= 4.50D-02

 Cycle   4  Pass 1  IDiag  1:
 RMSU=  4.44D-04    CP:  9.92D-01  1.32D+00  8.23D-01
 E= -1028.77829725836     Delta-E=       -0.015646891253 Rises=F Damp=F
 DIIS: error= 2.01D-03 at cycle   4 NSaved=   4.
 NSaved= 4 IEnMin= 4 EnMin= -1028.77829725836     IErMin= 4 ErrMin= 2.01D-03
 ErrMax= 2.01D-03  0.00D+00 EMaxC= 1.00D-01 BMatC= 1.97D-03 BMatP= 1.61D-02
 IDIUse=3 WtCom= 9.80D-01 WtEn= 2.01D-02
 Coeff-Com: -0.730D-01 0.145D+00 0.341D+00 0.587D+00
 Coeff-En:   0.000D+00 0.000D+00 0.000D+00 0.100D+01
 Coeff:     -0.715D-01 0.142D+00 0.334D+00 0.595D+00
 Gap=     0.240 Goal=   None    Shift=    0.000
 RMSDP=1.80D-04 MaxDP=1.01D-02 DE=-1.56D-02 OVMax= 1.38D-02

 Cycle   5  Pass 1  IDiag  1:
 RMSU=  1.11D-04    CP:  9.92D-01  1.34D+00  9.03D-01  7.57D-01
 E= -1028.78042155362     Delta-E=       -0.002124295256 Rises=F Damp=F
 DIIS: error= 4.90D-04 at cycle   5 NSaved=   5.
 NSaved= 5 IEnMin= 5 EnMin= -1028.78042155362     IErMin= 5 ErrMin= 4.90D-04
 ErrMax= 4.90D-04  0.00D+00 EMaxC= 1.00D-01 BMatC= 6.02D-05 BMatP= 1.97D-03
 IDIUse=3 WtCom= 9.95D-01 WtEn= 4.90D-03
 Coeff-Com: -0.115D-02-0.410D-02 0.310D-01 0.157D+00 0.817D+00
 Coeff-En:   0.000D+00 0.000D+00 0.000D+00 0.000D+00 0.100D+01
 Coeff:     -0.115D-02-0.408D-02 0.308D-01 0.157D+00 0.818D+00
 Gap=     0.242 Goal=   None    Shift=    0.000
 RMSDP=5.87D-05 MaxDP=1.94D-03 DE=-2.12D-03 OVMax= 5.65D-03

 Cycle   6  Pass 1  IDiag  1:
 RMSU=  3.83D-05    CP:  9.91D-01  1.34D+00  9.18D-01  8.43D-01  1.11D+00
 E= -1028.78055705544     Delta-E=       -0.000135501821 Rises=F Damp=F
 DIIS: error= 2.86D-04 at cycle   6 NSaved=   6.
 NSaved= 6 IEnMin= 6 EnMin= -1028.78055705544     IErMin= 6 ErrMin= 2.86D-04
 ErrMax= 2.86D-04  0.00D+00 EMaxC= 1.00D-01 BMatC= 1.09D-05 BMatP= 6.02D-05
 IDIUse=3 WtCom= 9.97D-01 WtEn= 2.86D-03
 Coeff-Com:  0.173D-01-0.353D-01-0.647D-01-0.782D-01 0.200D+00 0.961D+00
 Coeff-En:   0.000D+00 0.000D+00 0.000D+00 0.000D+00 0.000D+00 0.100D+01
 Coeff:      0.172D-01-0.352D-01-0.645D-01-0.780D-01 0.199D+00 0.961D+00
 Gap=     0.242 Goal=   None    Shift=    0.000
 RMSDP=3.82D-05 MaxDP=1.81D-03 DE=-1.36D-04 OVMax= 5.09D-03

 Cycle   7  Pass 1  IDiag  1:
 RMSU=  1.94D-05    CP:  9.91D-01  1.34D+00  9.31D-01  8.78D-01  1.31D+00
                    CP:  1.31D+00
 E= -1028.78059597365     Delta-E=       -0.000038918209 Rises=F Damp=F
 DIIS: error= 9.94D-05 at cycle   7 NSaved=   7.
 NSaved= 7 IEnMin= 7 EnMin= -1028.78059597365     IErMin= 7 ErrMin= 9.94D-05
 ErrMax= 9.94D-05  0.00D+00 EMaxC= 1.00D-01 BMatC= 3.13D-06 BMatP= 1.09D-05
 IDIUse=1 WtCom= 1.00D+00 WtEn= 0.00D+00
 Coeff-Com:  0.769D-02-0.147D-01-0.305D-01-0.543D-01-0.226D-01 0.455D+00
 Coeff-Com:  0.660D+00
 Coeff:      0.769D-02-0.147D-01-0.305D-01-0.543D-01-0.226D-01 0.455D+00
 Coeff:      0.660D+00
 Gap=     0.243 Goal=   None    Shift=    0.000
 RMSDP=1.34D-05 MaxDP=5.23D-04 DE=-3.89D-05 OVMax= 1.35D-03

 Cycle   8  Pass 1  IDiag  1:
 RMSU=  8.31D-06    CP:  9.91D-01  1.34D+00  9.32D-01  8.85D-01  1.35D+00
                    CP:  1.53D+00  1.08D+00
 E= -1028.78060249156     Delta-E=       -0.000006517913 Rises=F Damp=F
 DIIS: error= 6.41D-05 at cycle   8 NSaved=   8.
 NSaved= 8 IEnMin= 8 EnMin= -1028.78060249156     IErMin= 8 ErrMin= 6.41D-05
 ErrMax= 6.41D-05  0.00D+00 EMaxC= 1.00D-01 BMatC= 3.68D-07 BMatP= 3.13D-06
 IDIUse=1 WtCom= 1.00D+00 WtEn= 0.00D+00
 Coeff-Com: -0.135D-02 0.301D-02 0.597D-02 0.107D-02-0.479D-01-0.725D-01
 Coeff-Com:  0.153D+00 0.959D+00
 Coeff:     -0.135D-02 0.301D-02 0.597D-02 0.107D-02-0.479D-01-0.725D-01
 Coeff:      0.153D+00 0.959D+00
 Gap=     0.243 Goal=   None    Shift=    0.000
 RMSDP=8.18D-06 MaxDP=2.22D-04 DE=-6.52D-06 OVMax= 1.40D-03

 Cycle   9  Pass 1  IDiag  1:
 RMSU=  3.24D-06    CP:  9.91D-01  1.34D+00  9.32D-01  8.85D-01  1.37D+00
                    CP:  1.65D+00  1.35D+00  1.22D+00
 E= -1028.78060439560     Delta-E=       -0.000001904037 Rises=F Damp=F
 DIIS: error= 2.09D-05 at cycle   9 NSaved=   9.
 NSaved= 9 IEnMin= 9 EnMin= -1028.78060439560     IErMin= 9 ErrMin= 2.09D-05
 ErrMax= 2.09D-05  0.00D+00 EMaxC= 1.00D-01 BMatC= 1.31D-07 BMatP= 3.68D-07
 IDIUse=1 WtCom= 1.00D+00 WtEn= 0.00D+00
 Coeff-Com: -0.145D-02 0.286D-02 0.648D-02 0.805D-02-0.142D-01-0.929D-01
 Coeff-Com: -0.932D-01 0.361D+00 0.823D+00
 Coeff:     -0.145D-02 0.286D-02 0.648D-02 0.805D-02-0.142D-01-0.929D-01
 Coeff:     -0.932D-01 0.361D+00 0.823D+00
 Gap=     0.243 Goal=   None    Shift=    0.000
 RMSDP=4.17D-06 MaxDP=1.17D-04 DE=-1.90D-06 OVMax= 6.44D-04

 Cycle  10  Pass 1  IDiag  1:
 RMSU=  1.56D-06    CP:  9.91D-01  1.34D+00  9.32D-01  8.85D-01  1.38D+00
                    CP:  1.71D+00  1.44D+00  1.49D+00  1.23D+00
 E= -1028.78060483643     Delta-E=       -0.000000440837 Rises=F Damp=F
 DIIS: error= 1.32D-05 at cycle  10 NSaved=  10.
 NSaved=10 IEnMin=10 EnMin= -1028.78060483643     IErMin=10 ErrMin= 1.32D-05
 ErrMax= 1.32D-05  0.00D+00 EMaxC= 1.00D-01 BMatC= 2.43D-08 BMatP= 1.31D-07
 IDIUse=1 WtCom= 1.00D+00 WtEn= 0.00D+00
 Coeff-Com:  0.365D-04-0.149D-03 0.257D-03 0.168D-02 0.767D-02-0.612D-02
 Coeff-Com: -0.902D-01-0.897D-01 0.296D+00 0.881D+00
 Coeff:      0.365D-04-0.149D-03 0.257D-03 0.168D-02 0.767D-02-0.612D-02
 Coeff:     -0.902D-01-0.897D-01 0.296D+00 0.881D+00
 Gap=     0.243 Goal=   None    Shift=    0.000
 RMSDP=2.05D-06 MaxDP=5.21D-05 DE=-4.41D-07 OVMax= 3.51D-04

 Cycle  11  Pass 1  IDiag  1:
 RMSU=  5.95D-07    CP:  9.91D-01  1.34D+00  9.32D-01  8.86D-01  1.38D+00
                    CP:  1.74D+00  1.48D+00  1.61D+00  1.55D+00  1.21D+00
 E= -1028.78060493696     Delta-E=       -0.000000100529 Rises=F Damp=F
 DIIS: error= 3.82D-06 at cycle  11 NSaved=  11.
 NSaved=11 IEnMin=11 EnMin= -1028.78060493696     IErMin=11 ErrMin= 3.82D-06
 ErrMax= 3.82D-06  0.00D+00 EMaxC= 1.00D-01 BMatC= 4.13D-09 BMatP= 2.43D-08
 IDIUse=1 WtCom= 1.00D+00 WtEn= 0.00D+00
 Coeff-Com:  0.294D-03-0.608D-03-0.105D-02-0.968D-03 0.525D-02 0.152D-01
 Coeff-Com: -0.206D-01-0.790D-01-0.492D-01 0.261D+00 0.869D+00
 Coeff:      0.294D-03-0.608D-03-0.105D-02-0.968D-03 0.525D-02 0.152D-01
 Coeff:     -0.206D-01-0.790D-01-0.492D-01 0.261D+00 0.869D+00
 Gap=     0.243 Goal=   None    Shift=    0.000
 RMSDP=7.81D-07 MaxDP=1.75D-05 DE=-1.01D-07 OVMax= 1.30D-04

 Cycle  12  Pass 1  IDiag  1:
 RMSU=  2.44D-07    CP:  9.91D-01  1.34D+00  9.32D-01  8.86D-01  1.38D+00
                    CP:  1.75D+00  1.49D+00  1.65D+00  1.67D+00  1.45D+00
                    CP:  1.19D+00
 E= -1028.78060495117     Delta-E=       -0.000000014202 Rises=F Damp=F
 DIIS: error= 1.49D-06 at cycle  12 NSaved=  12.
 NSaved=12 IEnMin=12 EnMin= -1028.78060495117     IErMin=12 ErrMin= 1.49D-06
 ErrMax= 1.49D-06  0.00D+00 EMaxC= 1.00D-01 BMatC= 7.22D-10 BMatP= 4.13D-09
 IDIUse=1 WtCom= 1.00D+00 WtEn= 0.00D+00
 Coeff-Com:  0.126D-03-0.245D-03-0.509D-03-0.860D-03 0.776D-03 0.843D-02
 Coeff-Com:  0.727D-02-0.118D-01-0.804D-01-0.746D-01 0.317D+00 0.835D+00
 Coeff:      0.126D-03-0.245D-03-0.509D-03-0.860D-03 0.776D-03 0.843D-02
 Coeff:      0.727D-02-0.118D-01-0.804D-01-0.746D-01 0.317D+00 0.835D+00
 Gap=     0.243 Goal=   None    Shift=    0.000
 RMSDP=3.20D-07 MaxDP=8.85D-06 DE=-1.42D-08 OVMax= 5.07D-05

 Cycle  13  Pass 1  IDiag  1:
 RMSU=  9.13D-08    CP:  9.91D-01  1.34D+00  9.32D-01  8.86D-01  1.38D+00
                    CP:  1.75D+00  1.49D+00  1.67D+00  1.72D+00  1.55D+00
                    CP:  1.42D+00  1.10D+00
 E= -1028.78060495349     Delta-E=       -0.000000002323 Rises=F Damp=F
 DIIS: error= 4.29D-07 at cycle  13 NSaved=  13.
 NSaved=13 IEnMin=13 EnMin= -1028.78060495349     IErMin=13 ErrMin= 4.29D-07
 ErrMax= 4.29D-07  0.00D+00 EMaxC= 1.00D-01 BMatC= 5.99D-11 BMatP= 7.22D-10
 IDIUse=1 WtCom= 1.00D+00 WtEn= 0.00D+00
 Coeff-Com: -0.111D-04 0.253D-04 0.311D-04-0.668D-04-0.373D-03 0.211D-03
 Coeff-Com:  0.298D-02 0.739D-02-0.108D-01-0.472D-01-0.497D-01 0.177D+00
 Coeff-Com:  0.921D+00
 Coeff:     -0.111D-04 0.253D-04 0.311D-04-0.668D-04-0.373D-03 0.211D-03
 Coeff:      0.298D-02 0.739D-02-0.108D-01-0.472D-01-0.497D-01 0.177D+00
 Coeff:      0.921D+00
 Gap=     0.243 Goal=   None    Shift=    0.000
 RMSDP=9.53D-08 MaxDP=2.27D-06 DE=-2.32D-09 OVMax= 1.28D-05

 Cycle  14  Pass 1  IDiag  1:
 RMSU=  3.45D-08    CP:  9.91D-01  1.34D+00  9.32D-01  8.86D-01  1.38D+00
                    CP:  1.75D+00  1.49D+00  1.67D+00  1.73D+00  1.57D+00
                    CP:  1.48D+00  1.26D+00  1.18D+00
 E= -1028.78060495368     Delta-E=       -0.000000000190 Rises=F Damp=F
 DIIS: error= 2.14D-07 at cycle  14 NSaved=  14.
 NSaved=14 IEnMin=14 EnMin= -1028.78060495368     IErMin=14 ErrMin= 2.14D-07
 ErrMax= 2.14D-07  0.00D+00 EMaxC= 1.00D-01 BMatC= 8.62D-12 BMatP= 5.99D-11
 IDIUse=1 WtCom= 1.00D+00 WtEn= 0.00D+00
 Coeff-Com: -0.144D-04 0.291D-04 0.552D-04 0.546D-04-0.184D-03-0.626D-03
 Coeff-Com:  0.145D-03 0.377D-02 0.425D-02-0.719D-02-0.434D-01-0.251D-01
 Coeff-Com:  0.313D+00 0.755D+00
 Coeff:     -0.144D-04 0.291D-04 0.552D-04 0.546D-04-0.184D-03-0.626D-03
 Coeff:      0.145D-03 0.377D-02 0.425D-02-0.719D-02-0.434D-01-0.251D-01
 Coeff:      0.313D+00 0.755D+00
 Gap=     0.243 Goal=   None    Shift=    0.000
 RMSDP=2.08D-08 MaxDP=4.27D-07 DE=-1.90D-10 OVMax= 2.40D-06

 Cycle  15  Pass 1  IDiag  1:
 RMSU=  1.38D-08    CP:  9.91D-01  1.34D+00  9.32D-01  8.86D-01  1.38D+00
                    CP:  1.75D+00  1.49D+00  1.67D+00  1.73D+00  1.58D+00
                    CP:  1.49D+00  1.29D+00  1.30D+00  1.07D+00
 E= -1028.78060495369     Delta-E=       -0.000000000015 Rises=F Damp=F
 DIIS: error= 8.40D-08 at cycle  15 NSaved=  15.
 NSaved=15 IEnMin=15 EnMin= -1028.78060495369     IErMin=15 ErrMin= 8.40D-08
 ErrMax= 8.40D-08  0.00D+00 EMaxC= 1.00D-01 BMatC= 1.51D-12 BMatP= 8.62D-12
 IDIUse=1 WtCom= 1.00D+00 WtEn= 0.00D+00
 Coeff-Com: -0.354D-05 0.651D-05 0.163D-04 0.383D-04-0.530D-05-0.338D-03
 Coeff-Com: -0.689D-03-0.138D-03 0.400D-02 0.775D-02-0.452D-02-0.533D-01
 Coeff-Com: -0.712D-01 0.264D+00 0.855D+00
 Coeff:     -0.354D-05 0.651D-05 0.163D-04 0.383D-04-0.530D-05-0.338D-03
 Coeff:     -0.689D-03-0.138D-03 0.400D-02 0.775D-02-0.452D-02-0.533D-01
 Coeff:     -0.712D-01 0.264D+00 0.855D+00
 Gap=     0.243 Goal=   None    Shift=    0.000
 RMSDP=1.17D-08 MaxDP=2.85D-07 DE=-1.48D-11 OVMax= 1.52D-06

 Cycle  16  Pass 1  IDiag  1:
 RMSU=  5.42D-09    CP:  9.91D-01  1.34D+00  9.32D-01  8.86D-01  1.38D+00
                    CP:  1.75D+00  1.49D+00  1.67D+00  1.73D+00  1.58D+00
                    CP:  1.49D+00  1.30D+00  1.36D+00  1.26D+00  1.08D+00
 E= -1028.78060495370     Delta-E=       -0.000000000004 Rises=F Damp=F
 DIIS: error= 3.06D-08 at cycle  16 NSaved=  16.
 NSaved=16 IEnMin=16 EnMin= -1028.78060495370     IErMin=16 ErrMin= 3.06D-08
 ErrMax= 3.06D-08  0.00D+00 EMaxC= 1.00D-01 BMatC= 1.91D-13 BMatP= 1.51D-12
 IDIUse=1 WtCom= 1.00D+00 WtEn= 0.00D+00
 Coeff-Com:  0.216D-06-0.596D-06-0.191D-06 0.632D-05 0.121D-04-0.452D-04
 Coeff-Com: -0.191D-03-0.377D-03 0.627D-03 0.254D-02 0.295D-02-0.145D-01
 Coeff-Com: -0.482D-01-0.272D-01 0.246D+00 0.838D+00
 Coeff:      0.216D-06-0.596D-06-0.191D-06 0.632D-05 0.121D-04-0.452D-04
 Coeff:     -0.191D-03-0.377D-03 0.627D-03 0.254D-02 0.295D-02-0.145D-01
 Coeff:     -0.482D-01-0.272D-01 0.246D+00 0.838D+00
 Gap=     0.243 Goal=   None    Shift=    0.000
 RMSDP=4.35D-09 MaxDP=1.28D-07 DE=-3.87D-12 OVMax= 5.21D-07

 Error on total polarization charges =  0.00842
 SCF Done:  E(RwB97XD) =  -1028.78060495     A.U. after   16 cycles
            NFock= 16  Conv=0.43D-08     -V/T= 2.0048
 KE= 1.023864994091D+03 PE=-4.615843840901D+03 EE= 1.461227879786D+03
 Leave Link  502 at Tue Jul 14 13:04:01 2020, MaxMem=  7784628224 cpu:             867.9 elap:              87.5
 (Enter /gpfs/loomis/apps/avx/software/Gaussian/16-C.01_AVX/g16/l801.exe)
 DoSCS=F DFT=T ScalE2(SS,OS)=  1.000000  1.000000
 ExpMin= 1.22D-01 ExpMax= 1.11D+05 ExpMxC= 1.07D+03 IAcc=3 IRadAn=         5 AccDes= 0.00D+00
 HarFok:  IExCor=  205 AccDes= 0.00D+00 IRadAn=         5 IDoV=-2 UseB2=F ITyADJ=14
 ICtDFT= 12500011 ScaDFX=  1.000000  1.000000  1.000000  1.000000
 Largest valence mixing into a core orbital is  9.41D-05
 Largest core mixing into a valence orbital is  3.28D-05
 Range of M.O.s used for correlation:    21   273
 NBasis=   273 NAE=    59 NBE=    59 NFC=    20 NFV=     0
 NROrb=    253 NOA=    39 NOB=    39 NVA=   214 NVB=   214

 **** Warning!!: The largest alpha MO coefficient is  0.10311075D+02

 Leave Link  801 at Tue Jul 14 13:04:01 2020, MaxMem=  7784628224 cpu:               2.4 elap:               0.3
 (Enter /gpfs/loomis/apps/avx/software/Gaussian/16-C.01_AVX/g16/l914.exe)
 RHF ground state
 Keep R1, R2, and R3 ints in memory in canonical form, NReq=4262515490.
 FoFCou: FMM=F IPFlag=           0 FMFlag=           0 FMFlg1=           0
         NFxFlg=           0 DoJE=F BraDBF=F KetDBF=F FulRan=T
         wScrn=  0.000000 ICntrl=       600 IOpCl=  0 I1Cent=           0 NGrid=           0
         NMat0=    1 NMatS0=  37401 NMatT0=    0 NMatD0=    1 NMtDS0=    0 NMtDT0=    0
 Symmetry not used in FoFCou.
 Two-electron integral symmetry not used.
 MDV=  7784628224 DFT=T DoStab=F Mixed=T DoRPA=T DoScal=F NonHer=T
 NEqPCM:  Using equilibrium solvation (IEInf=0, Eps=   2.2280, EpsInf=   2.1319)
 Making orbital integer symmetry assigments:
    12 initial guesses have been made.
 Convergence on wavefunction:    0.000001000000000
 Davidson Disk Diagonalization:  ConvIn= 1.00D-06 SkipCon=T Conv= 1.00D-06.
 Max sub-space:  2000 roots to seek:    12 dimension of matrix:        16692
 Iteration     1 Dimension    12 NMult     0 NNew     12
 CISAX will form    12 AO SS matrices at one time.
 NMat=    12 NSing=    12 JSym2X= 0.
 New state      2 was old state      4
 New state      3 was old state      2
 Excitation Energies [eV] at current iteration:
 Root      1 :     3.490112764203105
 Root      2 :     3.937467152110768
 Root      3 :     4.884803824845128
 Root      4 :     5.274038157914227
 Root      5 :     5.454717067707930
 Root      6 :     5.709342797652805
 Root      7 :     5.930787730862717
 Root      8 :     6.477193055137128
 Root      9 :     6.797891394322899
 Root     10 :     6.916001323334803
 Root     11 :     6.933200646276024
 Root     12 :     7.476136782909167
 Iteration     2 Dimension    18 NMult    12 NNew      6
 CISAX will form     6 AO SS matrices at one time.
 NMat=     6 NSing=     6 JSym2X= 0.
 Root      1 not converged, maximum delta is    0.044081595291134
 Root      2 not converged, maximum delta is    0.109510626119749
 Root      3 not converged, maximum delta is    0.059166629195978
 Excitation Energies [eV] at current iteration:
 Root      1 :     2.977678535989438   Change is   -0.512434228213666
 Root      2 :     3.730729233212120   Change is   -0.206737918898648
 Root      3 :     4.337173546517194   Change is   -0.547630278327934
 Iteration     3 Dimension    24 NMult    18 NNew      6
 CISAX will form     6 AO SS matrices at one time.
 NMat=     6 NSing=     6 JSym2X= 0.
 Root      1 not converged, maximum delta is    0.015220351499519
 Root      2 not converged, maximum delta is    0.031214173128710
 Root      3 not converged, maximum delta is    0.015139750419958
 Excitation Energies [eV] at current iteration:
 Root      1 :     2.948938205519990   Change is   -0.028740330469448
 Root      2 :     3.710727283726564   Change is   -0.020001949485556
 Root      3 :     4.308647943014686   Change is   -0.028525603502509
 Iteration     4 Dimension    30 NMult    24 NNew      6
 CISAX will form     6 AO SS matrices at one time.
 NMat=     6 NSing=     6 JSym2X= 0.
 Root      1 not converged, maximum delta is    0.008370599025637
 Root      2 not converged, maximum delta is    0.010949453700367
 Root      3 not converged, maximum delta is    0.018411419550470
 Excitation Energies [eV] at current iteration:
 Root      1 :     2.943844582200684   Change is   -0.005093623319306
 Root      2 :     3.708742212334182   Change is   -0.001985071392382
 Root      3 :     4.301676515461318   Change is   -0.006971427553368
 Iteration     5 Dimension    36 NMult    30 NNew      6
 CISAX will form     6 AO SS matrices at one time.
 NMat=     6 NSing=     6 JSym2X= 0.
 Root      1 not converged, maximum delta is    0.001922349812998
 Root      2 not converged, maximum delta is    0.001586695659349
 Root      3 not converged, maximum delta is    0.009510691339805
 Excitation Energies [eV] at current iteration:
 Root      1 :     2.943319148476058   Change is   -0.000525433724626
 Root      2 :     3.708612935219423   Change is   -0.000129277114759
 Root      3 :     4.300230819660281   Change is   -0.001445695801037
 Iteration     6 Dimension    42 NMult    36 NNew      6
 CISAX will form     6 AO SS matrices at one time.
 NMat=     6 NSing=     6 JSym2X= 0.
 Root      1 not converged, maximum delta is    0.000497558688474
 Root      2 not converged, maximum delta is    0.000363097461026
 Root      3 not converged, maximum delta is    0.003185333697828
 Excitation Energies [eV] at current iteration:
 Root      1 :     2.943270775400182   Change is   -0.000048373075876
 Root      2 :     3.708606199420903   Change is   -0.000006735798519
 Root      3 :     4.299986128809775   Change is   -0.000244690850506
 Iteration     7 Dimension    48 NMult    42 NNew      6
 CISAX will form     6 AO SS matrices at one time.
 NMat=     6 NSing=     6 JSym2X= 0.
 Root      1 not converged, maximum delta is    0.000095699098532
 Root      2 not converged, maximum delta is    0.000139712156970
 Root      3 not converged, maximum delta is    0.000571613753057
 Excitation Energies [eV] at current iteration:
 Root      1 :     2.943268099764272   Change is   -0.000002675635910
 Root      2 :     3.708605583345135   Change is   -0.000000616075769
 Root      3 :     4.299959510251702   Change is   -0.000026618558074
 Iteration     8 Dimension    54 NMult    48 NNew      6
 CISAX will form     6 AO SS matrices at one time.
 NMat=     6 NSing=     6 JSym2X= 0.
 Root      1 not converged, maximum delta is    0.000028111601442
 Root      2 not converged, maximum delta is    0.000014514821042
 Root      3 not converged, maximum delta is    0.000150209463732
 Excitation Energies [eV] at current iteration:
 Root      1 :     2.943267927782844   Change is   -0.000000171981428
 Root      2 :     3.708605552714646   Change is   -0.000000030630488
 Root      3 :     4.299957065881013   Change is   -0.000002444370689
 Iteration     9 Dimension    60 NMult    54 NNew      6
 CISAX will form     6 AO SS matrices at one time.
 NMat=     6 NSing=     6 JSym2X= 0.
 Root      1 not converged, maximum delta is    0.000010172665466
 Root      2 not converged, maximum delta is    0.000002302022524
 Root      3 not converged, maximum delta is    0.000063285314897
 Excitation Energies [eV] at current iteration:
 Root      1 :     2.943267915762507   Change is   -0.000000012020337
 Root      2 :     3.708605551386085   Change is   -0.000000001328561
 Root      3 :     4.299956840865949   Change is   -0.000000225015064
 Iteration    10 Dimension    66 NMult    60 NNew      6
 CISAX will form     6 AO SS matrices at one time.
 NMat=     6 NSing=     6 JSym2X= 0.
 Root      1 not converged, maximum delta is    0.000002638530661
 Root      2 not converged, maximum delta is    0.000001348306565
 Root      3 not converged, maximum delta is    0.000016596071422
 Excitation Energies [eV] at current iteration:
 Root      1 :     2.943267914588776   Change is   -0.000000001173732
 Root      2 :     3.708605551302628   Change is   -0.000000000083457
 Root      3 :     4.299956822146651   Change is   -0.000000018719297
 Iteration    11 Dimension    72 NMult    66 NNew      6
 CISAX will form     6 AO SS matrices at one time.
 NMat=     6 NSing=     6 JSym2X= 0.
 Root      1 has converged.
 Root      2 has converged.
 Root      3 not converged, maximum delta is    0.000008262274813
 Excitation Energies [eV] at current iteration:
 Root      1 :     2.943267914530066   Change is   -0.000000000058710
 Root      2 :     3.708605551292209   Change is   -0.000000000010419
 Root      3 :     4.299956819791956   Change is   -0.000000002354696
 Iteration    12 Dimension    74 NMult    72 NNew      2
 CISAX will form     2 AO SS matrices at one time.
 NMat=     2 NSing=     2 JSym2X= 0.
 Root      1 has converged.
 Root      2 has converged.
 Root      3 not converged, maximum delta is    0.000001954257666
 Excitation Energies [eV] at current iteration:
 Root      1 :     2.943267914529730   Change is   -0.000000000000335
 Root      2 :     3.708605551292276   Change is    0.000000000000066
 Root      3 :     4.299956819585747   Change is   -0.000000000206209
 Iteration    13 Dimension    76 NMult    74 NNew      2
 CISAX will form     2 AO SS matrices at one time.
 NMat=     2 NSing=     2 JSym2X= 0.
 Root      1 has converged.
 Root      2 has converged.
 Root      3 has converged.
 Excitation Energies [eV] at current iteration:
 Root      1 :     2.943267914529675   Change is   -0.000000000000056
 Root      2 :     3.708605551292187   Change is   -0.000000000000088
 Root      3 :     4.299956819568731   Change is   -0.000000000017015
 Convergence achieved on expansion vectors.
 ***********************************************************************
 Excited states from <AA,BB:AA,BB> singles matrix:
 ***********************************************************************
 
 1PDM for each excited state written to RWF  633
 Ground to excited state transition densities written to RWF  633
 Ground to excited state transition electric dipole moments (Au):
       state          X           Y           Z        Dip. S.      Osc.
         1         1.1867     -2.1788     -0.0000      6.1555      0.4439
         2         0.0000      0.0000      0.0003      0.0000      0.0000
         3        -1.5028      0.9141      0.0000      3.0939      0.3259
 Ground to excited state transition velocity dipole moments (Au):
       state          X           Y           Z        Dip. S.      Osc.
         1        -0.1248      0.2399      0.0000      0.0731      0.4508
         2        -0.0000     -0.0000      0.0012      0.0000      0.0000
         3         0.2330     -0.1358     -0.0000      0.0727      0.3069
 Ground to excited state transition magnetic dipole moments (Au):
       state          X           Y           Z
         1         0.0000      0.0000     -1.0108
         2         0.3357      0.0202      0.0000
         3        -0.0000      0.0000     -1.2605
 Ground to excited state transition velocity quadrupole moments (Au):
       state          XX          YY          ZZ          XY          XZ          YZ
         1         0.0778      0.6284     -0.0142     -0.2894     -0.0000      0.0000
         2        -0.0000     -0.0000      0.0000      0.0000     -0.0105      0.0170
         3        -0.5365      0.6228      0.0060      0.0647      0.0000      0.0000
 <0|del|b> * <b|rxdel|0> + <0|del|b> * <b|delr+rdel|0>
 Rotatory Strengths (R) in cgs (10**-40 erg-esu-cm/Gauss)
       state          XX          YY          ZZ    R(velocity)    E-M Angle
         1         0.0006     -0.0167      0.0141     -0.0007       90.00
         2        -0.0002     -0.0010     -0.0010     -0.0007       90.00
         3         0.0081      0.0066     -0.0059      0.0029       90.00
 1/2[<0|r|b>*<b|rxdel|0> + (<0|rxdel|b>*<b|r|0>)*]
 Rotatory Strengths (R) in cgs (10**-40 erg-esu-cm/Gauss)
       state          XX          YY          ZZ     R(length)
         1        -0.0061      0.0283     -0.0253     -0.0010
         2        -0.0018     -0.0003     -0.0000     -0.0007
         3        -0.0043     -0.0000      0.0141      0.0032
  1/2[<0|del|b>*<b|r|0> + (<0|r|b>*<b|del|0>)*] (Au)
       state          X           Y           Z        Dip. S.   Osc.(frdel)
         1        -0.1481     -0.5227     -0.0000      0.6708      0.4472
         2        -0.0000     -0.0000      0.0000     -0.0000     -0.0000
         3        -0.3502     -0.1241     -0.0000      0.4743      0.3162

 Excitation energies and oscillator strengths:
 
 Excited state symmetry could not be determined.
 Excited State   1:      Singlet-?Sym    2.9433 eV  421.25 nm  f=0.4439  <S**2>=0.000
      59 -> 60         0.69720
 This state for optimization and/or second-order correction.
 Total Energy, E(TD-HF/TD-DFT) =  -1028.67244185    
 Copying the excited state density for this state as the 1-particle RhoCI density.
 
 Excited state symmetry could not be determined.
 Excited State   2:      Singlet-?Sym    3.7086 eV  334.31 nm  f=0.0000  <S**2>=0.000
      57 -> 60         0.68427
      57 -> 62         0.11463
      57 -> 64         0.11751
 
 Excited state symmetry could not be determined.
 Excited State   3:      Singlet-?Sym    4.3000 eV  288.34 nm  f=0.3259  <S**2>=0.000
      58 -> 60         0.68332
 SavETr:  write IOETrn=   770 NScale= 10 NData=  16 NLR=1 NState=    3 LETran=      64.
 The selected state is a singlet.
 CISGrd: IGrad=2 NXY=2 DFT=T
 CISAX will form     1 AO SS matrices at one time.
 NMat=     1 NSing=     1 JSym2X= 0.
 GePol: Maximum number of non-zero 1st derivatives   =     252
 Leave Link  914 at Tue Jul 14 13:06:59 2020, MaxMem=  7784628224 cpu:            1748.7 elap:             177.9
 (Enter /gpfs/loomis/apps/avx/software/Gaussian/16-C.01_AVX/g16/l1002.exe)
 Minotr:  Closed shell wavefunction.
          Computing CIS/TDA/TD derivatives.
          Using Z-Vector for PSCF gradient.
          Skipping F1 and S1 gradient terms here.
          IDoAtm=1111111111111111111111111
 NEqPCM:  Using equilibrium solvation (IEInf=0, Eps=   2.2280, EpsInf=   2.1319)
          Frozen-core window.
          Direct CPHF calculation.
          Differentiating once with respect to electric field.
                with respect to dipole field.
          Differentiating once with respect to nuclear coordinates.
          Requested convergence is 1.0D-10 RMS, and 1.0D-09 maximum.
          NewPWx=F KeepS1=T KeepF1=T KeepIn=T MapXYZ=F SortEE=F KeepMc=T.
 Keep R1 ints in memory in canonical form, NReq=1421499342.
 FoFCou: FMM=F IPFlag=           0 FMFlag=           0 FMFlg1=           0
         NFxFlg=           0 DoJE=F BraDBF=F KetDBF=F FulRan=T
         wScrn=  0.000000 ICntrl=       600 IOpCl=  0 I1Cent=           0 NGrid=           0
         NMat0=    1 NMatS0=  37401 NMatT0=    0 NMatD0=    1 NMtDS0=    0 NMtDT0=    0
 Symmetry not used in FoFCou.
 Two-electron integral symmetry not used.
          MDV=    7784628224 using IRadAn=       5.
          Solving linear equations separately, MaxMat=       0.
          There are     1 degrees of freedom in the 1st order CPHF.  IDoFFX=0 NUNeed=     1.
 LinEq1:  Iter=  0 NonCon=     1 RMS=6.59D-03 Max=4.93D-01 NDo=     1
 AX will form     1 AO Fock derivatives at one time.
 LinEq1:  Iter=  1 NonCon=     1 RMS=3.02D-03 Max=1.71D-01 NDo=     1
 LinEq1:  Iter=  2 NonCon=     1 RMS=1.66D-03 Max=4.36D-02 NDo=     1
 LinEq1:  Iter=  3 NonCon=     1 RMS=7.26D-04 Max=1.87D-02 NDo=     1
 LinEq1:  Iter=  4 NonCon=     1 RMS=4.19D-04 Max=1.34D-02 NDo=     1
 LinEq1:  Iter=  5 NonCon=     1 RMS=2.09D-04 Max=6.56D-03 NDo=     1
 LinEq1:  Iter=  6 NonCon=     1 RMS=8.69D-05 Max=3.75D-03 NDo=     1
 LinEq1:  Iter=  7 NonCon=     1 RMS=4.54D-05 Max=1.53D-03 NDo=     1
 LinEq1:  Iter=  8 NonCon=     1 RMS=1.69D-05 Max=5.56D-04 NDo=     1
 LinEq1:  Iter=  9 NonCon=     1 RMS=8.78D-06 Max=2.67D-04 NDo=     1
 LinEq1:  Iter= 10 NonCon=     1 RMS=3.17D-06 Max=7.47D-05 NDo=     1
 LinEq1:  Iter= 11 NonCon=     1 RMS=1.78D-06 Max=8.13D-05 NDo=     1
 LinEq1:  Iter= 12 NonCon=     1 RMS=8.69D-07 Max=2.90D-05 NDo=     1
 LinEq1:  Iter= 13 NonCon=     1 RMS=3.95D-07 Max=9.16D-06 NDo=     1
 LinEq1:  Iter= 14 NonCon=     1 RMS=1.45D-07 Max=4.23D-06 NDo=     1
 LinEq1:  Iter= 15 NonCon=     1 RMS=7.93D-08 Max=2.28D-06 NDo=     1
 LinEq1:  Iter= 16 NonCon=     1 RMS=3.28D-08 Max=1.18D-06 NDo=     1
 LinEq1:  Iter= 17 NonCon=     1 RMS=1.45D-08 Max=4.68D-07 NDo=     1
 LinEq1:  Iter= 18 NonCon=     1 RMS=6.22D-09 Max=1.53D-07 NDo=     1
 LinEq1:  Iter= 19 NonCon=     1 RMS=2.82D-09 Max=9.76D-08 NDo=     1
 LinEq1:  Iter= 20 NonCon=     1 RMS=1.37D-09 Max=2.91D-08 NDo=     1
 LinEq1:  Iter= 21 NonCon=     1 RMS=4.29D-10 Max=1.36D-08 NDo=     1
 LinEq1:  Iter= 22 NonCon=     1 RMS=1.82D-10 Max=5.60D-09 NDo=     1
 LinEq1:  Iter= 23 NonCon=     1 RMS=7.81D-11 Max=1.52D-09 NDo=     1
 LinEq1:  Iter= 24 NonCon=     0 RMS=2.45D-11 Max=6.24D-10 NDo=     1
 Linear equations converged to 1.000D-10 1.000D-09 after    24 iterations.
 End of Minotr F.D. properties file   721 does not exist.
 End of Minotr F.D. properties file   722 does not exist.
 End of Minotr F.D. properties file   788 does not exist.
 Leave Link 1002 at Tue Jul 14 13:08:36 2020, MaxMem=  7784628224 cpu:             732.0 elap:              96.6
 (Enter /gpfs/loomis/apps/avx/software/Gaussian/16-C.01_AVX/g16/l601.exe)
 Copying SCF densities to generalized density rwf, IOpCl= 0 IROHF=0.

 **********************************************************************

            Population analysis using the SCF Density.

 **********************************************************************

 Alpha  occ. eigenvalues --  -89.10130 -19.21017 -14.51519 -10.41257 -10.38282
 Alpha  occ. eigenvalues --  -10.36286 -10.35895 -10.33448 -10.33324 -10.32725
 Alpha  occ. eigenvalues --  -10.32567 -10.31750 -10.31205 -10.30561 -10.29584
 Alpha  occ. eigenvalues --  -10.28914  -8.12257  -6.07109  -6.06754  -6.06279
 Alpha  occ. eigenvalues --   -1.13546  -1.09235  -0.98509  -0.95975  -0.93307
 Alpha  occ. eigenvalues --   -0.89175  -0.86914  -0.83484  -0.81463  -0.76460
 Alpha  occ. eigenvalues --   -0.73686  -0.72077  -0.68501  -0.68016  -0.65632
 Alpha  occ. eigenvalues --   -0.60909  -0.59587  -0.56871  -0.55830  -0.55734
 Alpha  occ. eigenvalues --   -0.54902  -0.53940  -0.52976  -0.50265  -0.49157
 Alpha  occ. eigenvalues --   -0.48840  -0.48675  -0.46917  -0.45326  -0.44943
 Alpha  occ. eigenvalues --   -0.44088  -0.43250  -0.42407  -0.40184  -0.36724
 Alpha  occ. eigenvalues --   -0.33544  -0.31987  -0.31392  -0.26223
 Alpha virt. eigenvalues --   -0.01944   0.03625   0.05314   0.06673   0.09068
 Alpha virt. eigenvalues --    0.10576   0.14291   0.14902   0.16794   0.17451
 Alpha virt. eigenvalues --    0.18617   0.20108   0.20930   0.21209   0.22918
 Alpha virt. eigenvalues --    0.23405   0.24332   0.25480   0.27822   0.28883
 Alpha virt. eigenvalues --    0.31289   0.33758   0.35249   0.35451   0.36411
 Alpha virt. eigenvalues --    0.37611   0.38890   0.40405   0.41531   0.43694
 Alpha virt. eigenvalues --    0.47030   0.47704   0.50787   0.51238   0.51565
 Alpha virt. eigenvalues --    0.52496   0.52753   0.53185   0.54304   0.54846
 Alpha virt. eigenvalues --    0.56271   0.56408   0.56538   0.56756   0.57687
 Alpha virt. eigenvalues --    0.57981   0.58560   0.59248   0.59631   0.59703
 Alpha virt. eigenvalues --    0.61265   0.61347   0.61914   0.62737   0.63186
 Alpha virt. eigenvalues --    0.64921   0.66287   0.66968   0.68648   0.68708
 Alpha virt. eigenvalues --    0.70632   0.70711   0.71881   0.72778   0.72946
 Alpha virt. eigenvalues --    0.74243   0.75042   0.75760   0.76464   0.77911
 Alpha virt. eigenvalues --    0.78454   0.79737   0.80710   0.81093   0.83055
 Alpha virt. eigenvalues --    0.84361   0.87799   0.90307   0.91465   0.92793
 Alpha virt. eigenvalues --    0.94124   0.94278   0.95987   0.96697   0.97126
 Alpha virt. eigenvalues --    0.98278   0.98927   1.00451   1.00940   1.01311
 Alpha virt. eigenvalues --    1.02579   1.05123   1.05295   1.06299   1.07276
 Alpha virt. eigenvalues --    1.07985   1.09786   1.09861   1.10291   1.10785
 Alpha virt. eigenvalues --    1.12282   1.13002   1.14364   1.14668   1.15009
 Alpha virt. eigenvalues --    1.16669   1.19731   1.20054   1.22341   1.23866
 Alpha virt. eigenvalues --    1.25631   1.28226   1.31819   1.32794   1.34011
 Alpha virt. eigenvalues --    1.36012   1.36834   1.38796   1.40723   1.46286
 Alpha virt. eigenvalues --    1.48675   1.49697   1.52891   1.54306   1.54656
 Alpha virt. eigenvalues --    1.56392   1.57102   1.57177   1.58018   1.58763
 Alpha virt. eigenvalues --    1.60458   1.61270   1.63294   1.65006   1.67241
 Alpha virt. eigenvalues --    1.67659   1.69904   1.70083   1.70968   1.71717
 Alpha virt. eigenvalues --    1.71819   1.72573   1.73291   1.73767   1.75151
 Alpha virt. eigenvalues --    1.77713   1.79383   1.79969   1.80851   1.81387
 Alpha virt. eigenvalues --    1.82653   1.84032   1.84155   1.85134   1.85388
 Alpha virt. eigenvalues --    1.87440   1.88839   1.89661   1.91326   1.91494
 Alpha virt. eigenvalues --    1.93090   1.94058   1.94614   1.96495   1.97358
 Alpha virt. eigenvalues --    1.99074   1.99676   1.99681   2.03005   2.03884
 Alpha virt. eigenvalues --    2.06402   2.07793   2.09517   2.10029   2.15351
 Alpha virt. eigenvalues --    2.16890   2.17379   2.21334   2.22760   2.23232
 Alpha virt. eigenvalues --    2.26241   2.27844   2.32326   2.36564   2.38713
 Alpha virt. eigenvalues --    2.41768   2.42287   2.45650   2.47736   2.48488
 Alpha virt. eigenvalues --    2.51010   2.53521   2.55850   2.59592   2.61601
 Alpha virt. eigenvalues --    2.63275   2.70452   2.74053   2.74482   2.78161
 Alpha virt. eigenvalues --    2.80393   2.81574   2.84526   2.85688   2.89012
 Alpha virt. eigenvalues --    2.91501   3.00665   3.16142   3.26990   3.47878
 Alpha virt. eigenvalues --    3.48418   3.55775   3.60662   3.73967
          Condensed to atoms (all electrons):
               1          2          3          4          5          6
     1  C    4.740404   0.492123   0.006516  -0.052289  -0.013971   0.508138
     2  C    0.492123   5.314162   0.302333  -0.047529  -0.070710  -0.006279
     3  C    0.006516   0.302333   4.919637   0.506700  -0.002205  -0.064337
     4  C   -0.052289  -0.047529   0.506700   4.791409   0.515705  -0.010773
     5  C   -0.013971  -0.070710  -0.002205   0.515705   4.734863   0.497430
     6  C    0.508138  -0.006279  -0.064337  -0.010773   0.497430   4.736658
     7  H    0.403512  -0.038144   0.008854  -0.000667   0.007894  -0.039036
     8  H   -0.000533   0.010249  -0.031068   0.396286  -0.039842   0.007278
     9  H    0.008874  -0.000638   0.008268  -0.037873   0.405143  -0.044097
    10  H   -0.042525   0.009206  -0.000472   0.008139  -0.041559   0.407417
    11  N    0.003735  -0.033624   0.355890  -0.049906   0.002155   0.000246
    12  S   -0.072250   0.328141  -0.122714   0.005082   0.000213   0.004411
    13  C   -0.000242   0.000045   0.013110  -0.000322   0.000010   0.000003
    14  C   -0.000012   0.000128   0.000541   0.000008  -0.000000  -0.000000
    15  C    0.000005  -0.000225  -0.000062   0.000026  -0.000000   0.000000
    16  C    0.000000  -0.000008   0.000004  -0.000000   0.000000  -0.000000
    17  H   -0.000015   0.000257   0.000003   0.000001  -0.000000   0.000000
    18  C    0.000000   0.000009  -0.000021  -0.000000   0.000000  -0.000000
    19  C   -0.000000   0.000000   0.000002   0.000000  -0.000000   0.000000
    20  H   -0.000000  -0.000000  -0.000000  -0.000000  -0.000000  -0.000000
    21  H   -0.000000   0.000000  -0.000001  -0.000000  -0.000000   0.000000
    22  H    0.000000  -0.000000  -0.000000  -0.000000   0.000000  -0.000000
    23  C    0.003454  -0.046299  -0.113296   0.001392   0.000281  -0.000288
    24  O    0.000002  -0.000157  -0.000142   0.000016   0.000001  -0.000000
    25  H    0.000201   0.010724  -0.045653  -0.005182  -0.000103  -0.000012
               7          8          9         10         11         12
     1  C    0.403512  -0.000533   0.008874  -0.042525   0.003735  -0.072250
     2  C   -0.038144   0.010249  -0.000638   0.009206  -0.033624   0.328141
     3  C    0.008854  -0.031068   0.008268  -0.000472   0.355890  -0.122714
     4  C   -0.000667   0.396286  -0.037873   0.008139  -0.049906   0.005082
     5  C    0.007894  -0.039842   0.405143  -0.041559   0.002155   0.000213
     6  C   -0.039036   0.007278  -0.044097   0.407417   0.000246   0.004411
     7  H    0.645980   0.000026  -0.000148  -0.010627  -0.000081  -0.007946
     8  H    0.000026   0.636548  -0.012011  -0.000098  -0.003673  -0.000237
     9  H   -0.000148  -0.012011   0.654070  -0.011819  -0.000093   0.000018
    10  H   -0.010627  -0.000098  -0.011819   0.652735   0.000004  -0.000159
    11  N   -0.000081  -0.003673  -0.000093   0.000004   5.991681  -0.049348
    12  S   -0.007946  -0.000237   0.000018  -0.000159  -0.049348  15.458532
    13  C   -0.000003   0.000026  -0.000000  -0.000000  -0.027597  -0.069503
    14  C    0.000002   0.000000   0.000000  -0.000000   0.003792  -0.013605
    15  C   -0.000000  -0.000004   0.000000   0.000000  -0.007690   0.005667
    16  C    0.000000   0.000000  -0.000000  -0.000000  -0.000070   0.000487
    17  H    0.000001   0.000000   0.000000  -0.000000   0.000241   0.008689
    18  C    0.000000  -0.000000   0.000000  -0.000000  -0.000457  -0.000209
    19  C   -0.000000   0.000000  -0.000000   0.000000   0.000023   0.000024
    20  H    0.000000  -0.000000   0.000000   0.000000   0.000001   0.000015
    21  H   -0.000000   0.000000  -0.000000   0.000000   0.000008   0.000004
    22  H    0.000000  -0.000000   0.000000  -0.000000  -0.000000  -0.000001
    23  C    0.000250  -0.000595   0.000006   0.000005   0.524610   0.312834
    24  O    0.000000  -0.000109   0.000000  -0.000000  -0.046054  -0.000037
    25  H    0.000006   0.000653  -0.000007  -0.000000   0.361911   0.005765
              13         14         15         16         17         18
     1  C   -0.000242  -0.000012   0.000005   0.000000  -0.000015   0.000000
     2  C    0.000045   0.000128  -0.000225  -0.000008   0.000257   0.000009
     3  C    0.013110   0.000541  -0.000062   0.000004   0.000003  -0.000021
     4  C   -0.000322   0.000008   0.000026  -0.000000   0.000001  -0.000000
     5  C    0.000010  -0.000000  -0.000000   0.000000  -0.000000   0.000000
     6  C    0.000003  -0.000000   0.000000  -0.000000   0.000000  -0.000000
     7  H   -0.000003   0.000002  -0.000000   0.000000   0.000001   0.000000
     8  H    0.000026   0.000000  -0.000004   0.000000   0.000000  -0.000000
     9  H   -0.000000   0.000000   0.000000  -0.000000   0.000000   0.000000
    10  H   -0.000000  -0.000000   0.000000  -0.000000  -0.000000  -0.000000
    11  N   -0.027597   0.003792  -0.007690  -0.000070   0.000241  -0.000457
    12  S   -0.069503  -0.013605   0.005667   0.000487   0.008689  -0.000209
    13  C    5.466883   0.421688   0.174497  -0.006992  -0.038333  -0.040960
    14  C    0.421688   4.884161   0.007044   0.538537   0.397037  -0.060828
    15  C    0.174497   0.007044   4.735379  -0.052710   0.005530   0.452683
    16  C   -0.006992   0.538537  -0.052710   4.759394  -0.030048  -0.019375
    17  H   -0.038333   0.397037   0.005530  -0.030048   0.664374  -0.000802
    18  C   -0.040960  -0.060828   0.452683  -0.019375  -0.000802   4.919105
    19  C   -0.053774  -0.019728  -0.003341   0.478189   0.007777   0.499981
    20  H    0.008963  -0.036301  -0.000157   0.400151  -0.011447   0.008028
    21  H    0.015517  -0.000670  -0.025954   0.007519   0.000051   0.373002
    22  H   -0.001785   0.009892   0.008419  -0.045661  -0.000195  -0.039825
    23  C    0.365739  -0.092112  -0.070974   0.005898  -0.022678   0.010608
    24  O   -0.103473   0.006659   0.653787  -0.000182  -0.000073  -0.064255
    25  H   -0.045874  -0.001006  -0.008850   0.000069  -0.000100   0.003543
              19         20         21         22         23         24
     1  C   -0.000000  -0.000000  -0.000000   0.000000   0.003454   0.000002
     2  C    0.000000  -0.000000   0.000000  -0.000000  -0.046299  -0.000157
     3  C    0.000002  -0.000000  -0.000001  -0.000000  -0.113296  -0.000142
     4  C    0.000000  -0.000000  -0.000000  -0.000000   0.001392   0.000016
     5  C   -0.000000  -0.000000  -0.000000   0.000000   0.000281   0.000001
     6  C    0.000000  -0.000000   0.000000  -0.000000  -0.000288  -0.000000
     7  H   -0.000000   0.000000  -0.000000   0.000000   0.000250   0.000000
     8  H    0.000000  -0.000000   0.000000  -0.000000  -0.000595  -0.000109
     9  H   -0.000000   0.000000  -0.000000   0.000000   0.000006   0.000000
    10  H    0.000000   0.000000   0.000000  -0.000000   0.000005  -0.000000
    11  N    0.000023   0.000001   0.000008  -0.000000   0.524610  -0.046054
    12  S    0.000024   0.000015   0.000004  -0.000001   0.312834  -0.000037
    13  C   -0.053774   0.008963   0.015517  -0.001785   0.365739  -0.103473
    14  C   -0.019728  -0.036301  -0.000670   0.009892  -0.092112   0.006659
    15  C   -0.003341  -0.000157  -0.025954   0.008419  -0.070974   0.653787
    16  C    0.478189   0.400151   0.007519  -0.045661   0.005898  -0.000182
    17  H    0.007777  -0.011447   0.000051  -0.000195  -0.022678  -0.000073
    18  C    0.499981   0.008028   0.373002  -0.039825   0.010608  -0.064255
    19  C    4.747246  -0.046125  -0.046082   0.402923   0.000483   0.004002
    20  H   -0.046125   0.684681  -0.000143  -0.012259  -0.000396   0.000001
    21  H   -0.046082  -0.000143   0.678280  -0.012548  -0.000491   0.004691
    22  H    0.402923  -0.012259  -0.012548   0.672752   0.000002  -0.000065
    23  C    0.000483  -0.000396  -0.000491   0.000002   5.087034  -0.012395
    24  O    0.004002   0.000001   0.004691  -0.000065  -0.012395   7.867552
    25  H   -0.000348  -0.000001  -0.000001   0.000005   0.031423   0.099310
              25
     1  C    0.000201
     2  C    0.010724
     3  C   -0.045653
     4  C   -0.005182
     5  C   -0.000103
     6  C   -0.000012
     7  H    0.000006
     8  H    0.000653
     9  H   -0.000007
    10  H   -0.000000
    11  N    0.361911
    12  S    0.005765
    13  C   -0.045874
    14  C   -0.001006
[...]
 002,0.,-0.00001595,0.,0.,-0.00005674,0.,0.,-0.00007767,0.,0.,0.0000463
 5,0.,0.,0.00005499,0.,0.,-0.00000176,0.,0.,0.00002991,-0.00000016,-0.0
 0000011,-0.00081666,0.00000005,0.00000010,0.00166554,-0.00000037,-0.00
 000114,-0.07593432,0.00000020,-0.00000002,0.00351283,0.00000253,0.0000
 0362,0.17686548,-0.00032768,0.00139378,0.,0.00363038,0.00109754,-0.000
 00002,0.00270029,-0.00552673,-0.00000002,-0.00315996,0.00102259,0.0000
 0002,-0.00013111,-0.00261848,0.,0.00157871,0.00090862,0.,-0.00005455,-
 0.00004530,0.,0.00007617,0.00003135,0.,0.00003498,-0.00004175,0.,0.000
 06010,-0.00000317,0.,-0.00130248,0.00826233,0.00000006,-0.00217824,-0.
 00006598,-0.00000002,-0.05302206,0.01504717,0.00000018,-0.20058956,0.1
 2413199,0.00000105,0.00537436,0.00182338,-0.00000005,0.71226104,0.0003
 3403,-0.00224657,0.00000003,-0.00888855,-0.00216545,0.00000004,-0.0068
 8723,0.01417790,0.00000006,0.00763973,-0.00184110,-0.00000005,0.000136
 96,0.00560553,0.00000001,-0.00262795,-0.00245044,0.,0.00001376,0.00011
 968,0.,-0.00007144,-0.00009155,0.,-0.00002045,0.00009423,0.,-0.0000477
 2,-0.00002062,-0.00000001,0.00793082,-0.01119399,-0.00000009,0.0017827
 4,-0.00239798,0.00000008,0.04971581,0.02132227,0.00000013,0.03546807,-
 0.20939178,-0.00000113,0.02501880,-0.00844186,0.00000045,0.05913501,0.
 63753265,0.,-0.00000003,-0.00002795,-0.00000008,0.,0.00017483,-0.00000
 003,0.00000008,-0.00041467,0.00000005,-0.00000001,-0.00030055,0.,0.000
 00004,0.00000467,-0.00000003,-0.00000002,0.00000583,0.,0.,-0.00003178,
 0.,0.,-0.00001925,0.,0.,0.00002668,0.,0.,0.00003012,0.00000002,-0.0000
 0011,0.00247555,0.00000001,0.,-0.00082435,0.00000062,0.00000011,0.0026
 0014,0.00000018,-0.00000110,-0.05243496,0.00000001,0.00000003,-0.00509
 640,-0.00000083,0.00000174,0.12392058,0.00022778,0.00000954,0.,-0.0006
 0840,0.00026326,0.00000001,0.00032471,-0.00018909,0.,-0.00007012,0.000
 11917,0.,0.00006291,-0.00009363,0.,0.00002873,-0.00002812,0.,-0.000018
 10,-0.00000824,0.,0.00003268,0.00000117,0.,0.00001202,-0.00000520,0.,0
 .00003368,-0.00001147,0.,0.00064951,0.00070836,0.,-0.00351519,0.003132
 27,0.00000004,-0.00311246,-0.02899282,-0.00000024,-0.08001377,-0.07618
 167,-0.00000037,-0.00459376,0.00289791,0.00000011,0.00985149,0.0228042
 2,0.00000017,0.08436573,0.00016668,0.00000683,0.,-0.00023900,0.0008271
 7,-0.00000001,0.00046273,-0.00016352,0.,0.00002015,0.00012401,0.,0.000
 02916,0.00009286,0.,-0.00014297,-0.00007287,0.,-0.00002642,0.00000874,
 0.,0.00004282,-0.00000532,0.,0.00000153,0.00000220,0.,0.00001777,-0.00
 000058,0.,0.00001062,0.00048619,0.00000002,0.00248386,-0.00220279,-0.0
 0000005,0.00077656,-0.00482560,-0.00000011,-0.07474748,-0.31853756,-0.
 00000195,-0.00013176,0.00269020,0.,-0.00961700,-0.01697906,-0.00000014
 ,0.07685814,0.34037902,0.,0.,-0.00000570,0.,0.,-0.00063376,0.00000001,
 -0.00000003,0.00053547,-0.00000001,0.,0.00014148,0.,0.,-0.00002158,0.,
 0.,0.00001309,0.,0.,0.00002329,0.,0.,0.00001263,0.,0.,-0.00000533,0.,0
 .,-0.00000186,0.,0.00000007,-0.00220652,0.00000002,-0.00000004,0.00212
 338,-0.00000016,-0.00000006,0.00679959,-0.00000019,-0.00000196,-0.0347
 6149,0.00000006,-0.00000011,0.00915513,-0.00000017,-0.00000010,0.00375
 605,0.00000037,0.00000224,0.01972064,-0.00090104,0.00001620,0.00000006
 ,-0.00553110,-0.00328402,0.00000003,-0.00518200,0.01338235,-0.00000001
 ,0.00580206,-0.00144396,-0.00000004,-0.00012923,0.00276932,0.00000001,
 0.00029224,-0.00177675,-0.00000002,-0.00009028,0.00010203,0.,0.0000326
 3,-0.00003659,0.,0.00010246,0.00000577,0.,0.00006150,-0.00005836,-0.00
 000001,0.01237289,-0.00254851,0.00000005,0.00019683,-0.00315269,0.0000
 0007,0.02219308,0.01580821,-0.00000003,-0.03975554,0.01889134,0.000000
 16,-0.14611449,0.08109520,0.00000050,-0.00192108,-0.08409425,-0.000000
 44,-0.00055657,0.00005173,0.00000005,0.66169264,0.00051689,-0.00009468
 ,0.,-0.00024975,-0.00024616,0.,0.00054352,-0.00076526,0.00000002,-0.00
 064102,0.00017496,0.,0.00011696,-0.00025101,0.,-0.00020325,0.00010601,
 0.,-0.00000606,0.00001832,0.,-0.00000125,-0.00000207,0.,-0.00000799,-0
 .00000379,0.,0.00002237,0.00000068,0.,0.00019796,0.00037430,-0.0000000
 3,0.00154329,-0.00127649,-0.00000005,0.01708969,-0.02730331,-0.0000000
 2,0.00478697,-0.00104849,-0.00000006,0.08458103,-0.22280681,-0.0000005
 0,-0.03568969,-0.01161175,-0.00000008,-0.00030168,0.00069235,0.,0.0509
 9882,0.70229827,0.00000003,-0.00000002,0.00017092,-0.00000003,0.000000
 03,0.00042144,0.00000005,-0.00000007,0.00123752,-0.00000002,0.,-0.0001
 2026,0.00000001,0.,-0.00007204,-0.00000003,0.,-0.00010192,0.,0.,0.0001
 1527,0.,0.,0.00007188,0.,0.,0.00000436,0.,0.,-0.00005511,-0.00000009,0
 .00000016,-0.00326912,0.00000002,-0.00000011,0.00147842,0.00000016,-0.
 00000060,0.01310753,-0.00000016,0.00000015,-0.00512105,0.00000037,-0.0
 0000040,-0.06678365,-0.00000007,-0.00000023,0.00704625,0.,0.00000001,-
 0.00195335,0.00000199,0.00000360,0.10877871,0.00063317,0.00074972,-0.0
 0000004,0.00690853,0.00310872,-0.00000003,0.00687319,-0.01523891,-0.00
 000004,-0.00700644,0.00177892,0.00000005,0.00010976,-0.00401769,0.,0.0
 0069539,0.00224309,0.,0.00005303,-0.00008589,0.,0.00002584,0.00006015,
 0.,-0.00007858,-0.00002663,0.,-0.00001837,0.00004914,0.00000001,-0.013
 09396,0.00910028,0.00000010,0.00032930,0.00158023,-0.00000010,-0.01256
 361,-0.01341921,-0.00000017,0.05517536,0.00980430,-0.00000006,-0.05925
 029,0.01314420,-0.00000035,-0.13943956,-0.00116143,0.00000024,-0.00348
 583,0.00458930,0.00000003,-0.31676985,-0.08180323,-0.00000085,0.678222
 96,0.00007507,0.00112902,-0.00000003,0.00406448,0.00145291,-0.00000001
 ,0.00395073,-0.00715522,0.00000003,-0.00416983,0.00112725,0.00000003,-
 0.00001679,-0.00296311,0.,0.00123811,0.00117717,0.,-0.00001841,-0.0000
 4885,0.,0.00005397,0.00003202,0.,0.00000755,-0.00005319,0.,0.00003762,
 0.00001971,0.,-0.00230940,0.00679302,-0.00000008,-0.00169778,0.0009296
 0,-0.00000003,-0.03011422,-0.00912572,0.00000011,0.06221045,-0.0540319
 0,-0.00000032,-0.01141864,0.02477517,-0.00000030,-0.09390046,-0.317431
 05,-0.00000037,0.00326738,-0.00079552,-0.00000011,-0.01487580,-0.13429
 536,-0.00000050,-0.05698890,0.69423692,0.,0.00000001,0.00012867,0.0000
 0003,0.,-0.00046151,0.00000001,-0.00000002,-0.00102499,-0.00000002,0.,
 0.00007220,0.,-0.00000002,0.00009197,0.00000001,0.,0.00001441,0.,0.,-0
 .00005604,0.,0.,-0.00011513,0.,0.,0.00000194,0.,0.,0.00001394,-0.00000
 004,0.,0.00114104,0.,0.00000002,0.00056459,-0.00000017,-0.00000008,-0.
 00151722,0.00000037,-0.00000029,0.00854450,-0.00000024,0.00000033,0.00
 170898,-0.00000024,-0.00000053,-0.05879621,0.00000001,-0.00000004,0.00
 377527,-0.00000035,-0.00000060,-0.04999337,0.00000033,0.00000173,0.115
 00593,0.00005665,-0.00011234,0.,-0.00010023,0.00013783,0.,-0.00003761,
 -0.00009382,0.,0.00002712,0.00001987,0.,0.00000677,0.00010008,0.,-0.00
 014662,0.00000256,0.,0.00000686,0.00000498,0.,-0.00000220,-0.00000359,
 0.,-0.00001023,0.00000819,0.,-0.00000950,0.00000526,0.,-0.00020580,0.0
 0041688,0.,0.00007084,0.00000977,0.,-0.00045009,0.00366285,0.00000003,
 -0.01566276,-0.00961119,0.,0.00052678,0.00047881,0.,-0.32464504,-0.079
 02291,0.00000013,0.00068696,0.00012117,0.,0.00155647,-0.00108051,0.,-0
 .00266979,0.00201996,0.,0.34129392,0.00001976,-0.00001807,0.,-0.000091
 21,-0.00007820,0.,0.00001054,0.00023082,0.,0.00006612,-0.00006265,0.,0
 .00001468,0.00006103,0.,-0.00003215,-0.00003280,0.,0.00000090,-0.00000
 109,0.,-0.00000107,-0.00000003,0.,0.00000153,-0.00000283,0.,0.00000077
 ,-0.00000091,0.,0.00034814,-0.00041853,0.,0.00003407,0.00003485,0.,0.0
 0339480,-0.00345472,-0.00000006,0.02125650,0.00903040,-0.00000001,0.00
 073303,-0.00073534,0.,-0.07898999,-0.08252909,-0.00000002,-0.00014370,
 0.00089534,0.00000002,-0.00034145,-0.00547121,-0.00000003,-0.02934156,
 -0.00136691,0.,0.08404335,0.08193105,0.,0.,-0.00001859,0.,0.,0.0000887
 5,0.,0.,0.00043411,0.,0.,0.00007297,0.,0.,-0.00005800,0.,0.,0.00000891
 ,0.,0.,0.00001024,0.,0.,0.00003675,0.,0.,-0.00001882,0.,0.,-0.00000559
 ,0.,0.,0.00009859,0.,0.,-0.00026139,-0.00000001,-0.00000007,0.00434678
 ,0.00000019,-0.00000006,0.00518402,-0.00000001,0.00000003,-0.00153847,
 0.00000006,0.00000004,-0.03499481,0.,0.00000002,-0.00235776,0.00000002
 ,0.,0.00647436,-0.00000009,-0.00000010,0.00617172,-0.00000015,0.000000
 09,0.02177803,-0.00010897,0.00003752,0.,0.00011158,0.00005468,0.,-0.00
 010587,0.00007699,0.,0.00003385,-0.00000025,0.,-0.00001916,-0.00002728
 ,0.,0.00007318,0.00000851,0.,0.00000032,-0.00000472,0.,-0.00000357,-0.
 00000031,0.,0.00000210,-0.00000104,0.,-0.00000351,-0.00000088,0.,0.000
 27280,-0.00022618,0.,-0.00031383,0.00016593,0.00000001,-0.00401035,0.0
 0290893,-0.00000001,-0.00009483,0.00025671,0.,0.00866349,0.02263695,0.
 00000021,-0.00575256,-0.00014470,-0.00000003,0.00010385,-0.00007682,0.
 ,-0.07545301,-0.07341136,-0.00000076,-0.00134049,-0.02876323,-0.000000
 20,-0.00026946,-0.00143906,0.,0.07445315,0.00004293,0.00004948,0.,-0.0
 0011117,-0.00011407,0.,0.00005698,0.00006701,0.,0.00000266,-0.00000432
 ,0.,0.00000344,-0.00003369,0.,0.00004992,-0.00002354,0.,-0.00000612,0.
 00000285,0.,0.00000677,0.00000267,0.,0.00000740,-0.00000350,0.,0.00001
 032,-0.00000372,0.,-0.00010058,0.00009253,0.,0.00022734,-0.00021060,0.
 ,0.00402080,-0.00178060,0.,0.00023816,0.00039140,0.,-0.01128873,-0.016
 55008,-0.00000026,-0.00099731,0.00125084,-0.00000004,-0.00005117,-0.00
 010034,0.,-0.07172776,-0.32775497,-0.00000217,0.00244592,-0.00223959,-
 0.00000007,0.00005360,-0.00024448,0.,0.07863186,0.34406304,-0.00000001
 ,0.,-0.00031283,-0.00000001,-0.00000001,-0.00025102,-0.00000002,0.0000
 0005,-0.00000593,0.00000002,0.,0.00000429,0.,0.,-0.00003495,0.,0.,0.00
 007405,0.,0.,-0.00003328,0.,0.,0.00003037,0.,0.,-0.00000333,0.,0.,0.00
 006017,0.00000007,-0.00000004,0.00058590,-0.00000001,0.,-0.00082608,-0
 .00000003,0.00000004,0.00292732,0.00000004,-0.00000002,-0.00003569,-0.
 00000009,-0.00000007,0.00381530,-0.00000004,-0.00000006,0.00562127,0.,
 0.,0.00017165,-0.00000085,-0.00000242,-0.03146942,0.00000018,0.0000000
 4,0.00409777,0.,0.,-0.00040945,0.00000074,0.00000247,0.02109818,0.0000
 4570,-0.00004465,0.,-0.00002908,0.00010707,0.,0.00013189,-0.00008258,0
 .,-0.00003366,0.00001077,0.,0.00001143,0.00003073,0.,-0.00007405,0.000
 00557,0.,0.00000195,0.00000293,0.,0.00000356,-0.00000316,0.,-0.0000063
 4,0.00000289,0.,-0.00000413,0.00000389,0.,0.00010918,0.00043784,0.,-0.
 00004522,0.00010783,0.,-0.00025818,-0.00055152,0.,0.00077954,-0.002074
 44,0.,-0.00231373,-0.00421841,0.,0.00848932,-0.00796430,-0.00000003,0.
 00030691,-0.00032355,0.,-0.01519253,0.02326930,0.00000005,-0.20707266,
 0.14499402,0.00000033,0.00070584,0.00034700,0.,0.00105837,-0.00028748,
 0.,0.21553369,-0.00000820,0.00008911,0.,0.00019712,0.00010055,0.,0.000
 22712,-0.00040393,0.,-0.00020726,0.00006547,0.,-0.00000159,-0.00017928
 ,0.,0.00011011,0.00006134,0.,-0.00000643,-0.00000443,0.,0.00000756,0.0
 0000413,0.,0.00000551,-0.00000440,0.,0.00000787,-0.00000312,0.,-0.0002
 8816,0.00019994,0.,-0.00012034,0.00001974,0.,-0.00072402,0.00017146,0.
 ,-0.00259502,-0.00450752,-0.00000001,-0.00249181,-0.00041037,-0.000000
 03,0.02405040,-0.01456611,-0.00000006,0.00111604,-0.00102196,-0.000000
 02,-0.00826864,0.00915263,0.00000001,0.14355451,-0.19767089,-0.0000003
 8,-0.00014931,0.00101714,0.00000001,0.00032553,0.00065536,0.00000001,-
 0.15444954,0.20644534,0.,0.,0.00000241,0.00000001,0.,0.00007818,0.,0.,
 0.00014452,0.,0.,0.00001496,0.,0.,-0.00000447,0.,0.,-0.00000523,0.,0.,
 0.00000787,0.,0.,0.00001728,0.,0.,-0.00000098,0.,0.,-0.00001124,0.0000
 0002,0.00000001,-0.00024139,0.,0.,-0.00008661,0.00000002,0.,-0.0009080
 2,0.00000003,0.,0.00592630,-0.00000004,-0.00000010,0.00656366,0.000000
 06,-0.00000006,0.00309357,0.,0.,0.00059624,-0.00000009,0.00000003,0.00
 343956,0.00000034,-0.00000040,-0.03328327,0.,0.00000001,-0.00402694,0.
 00000002,0.00000003,-0.00347955,-0.00000033,0.00000045,0.02314685,-0.0
 0350508,-0.00627042,-0.00000004,-0.00608699,0.02127909,0.00000016,-0.0
 6025897,0.04020512,0.00000082,0.00638082,-0.00297983,0.00000003,-0.000
 83749,0.00456918,0.,-0.00496977,-0.00155210,0.00000002,0.00025337,-0.0
 0063638,0.,-0.00072490,-0.00006155,-0.00000001,0.00014811,-0.00010813,
 -0.00000001,-0.00065421,-0.00006458,0.,-0.35568101,-0.04266688,0.00000
 204,-0.05159839,-0.05626244,-0.00000009,-0.17982331,0.08399760,0.00000
 203,-0.04632379,0.03076196,0.00000069,0.03932860,0.01908356,0.00000032
 ,-0.00302991,-0.01075013,0.00000004,0.00029204,0.00054616,-0.00000004,
 -0.00451649,-0.00368281,-0.00000014,-0.00068007,0.00409838,0.00000004,
 -0.00063297,0.00060614,-0.00000002,0.00068872,-0.00100904,0.,0.0000637
 0,-0.00006665,-0.00000003,0.69985962,0.00007585,0.00041168,-0.00000007
 ,0.02576159,-0.02370855,-0.00000018,0.02470996,0.00884299,-0.00000021,
 -0.00006243,-0.00691630,0.,-0.00054881,-0.00129751,0.,0.00140320,-0.00
 078330,-0.00000002,0.00002146,-0.00047703,0.,-0.00048006,0.00015580,0.
 00000001,0.00027117,-0.00054539,0.,-0.00017610,0.00004622,0.,-0.032002
 12,-0.12521985,-0.00000110,-0.02113150,-0.16753797,-0.00000052,0.07083
 329,-0.18803736,-0.00000208,0.02151116,0.01393198,-0.00000021,0.020931
 94,-0.04558205,-0.00000072,-0.00540552,0.00133625,-0.00000002,-0.00216
 331,-0.00032584,0.00000002,-0.01296074,-0.00394148,-0.00000007,0.00749
 612,0.00031015,0.00000007,-0.00087420,0.00101469,0.,0.00077869,-0.0004
 7021,-0.00000005,-0.00002984,0.00035461,0.00000002,-0.07165813,0.53138
 449,0.00000002,0.,0.00110461,-0.00000001,-0.00000022,-0.00068085,0.000
 00022,0.00000003,0.00592819,0.00000010,-0.00000003,0.00175597,0.000000
 01,0.00000001,0.00108839,0.00000004,0.,0.00086444,0.,0.,-0.00046358,0.
 ,0.,-0.00054458,0.,0.,-0.00045079,0.,0.,-0.00021110,0.00000350,-0.0000
 0064,-0.02900920,0.00000018,-0.00000081,-0.01913865,0.00000195,-0.0000
 0212,-0.03418212,0.00000024,0.,0.00875265,0.00000038,-0.00000070,0.003
 69035,0.00000011,-0.00000030,0.00399097,-0.00000003,0.,-0.00283580,-0.
 00000045,0.00000002,-0.00010341,0.00000037,0.00000022,-0.00060435,-0.0
 0000001,0.,-0.00098493,0.,0.,0.00196129,0.,0.00000001,-0.00033179,-0.0
 0000608,0.00000432,0.06207817,-0.00033416,0.00132516,0.00000002,-0.000
 84184,0.00062772,-0.00000001,0.00587721,0.00120708,-0.00000004,0.00012
 402,0.00004436,0.,-0.00009134,-0.00083343,0.,0.00151605,-0.00002117,-0
 .00000001,-0.00014943,0.00016428,0.,0.00023267,0.00003531,0.,0.0000477
 7,0.00000716,0.,0.00008297,-0.00000619,0.,0.00287225,0.02404273,0.0000
 0061,-0.00047920,-0.00150446,-0.00000005,-0.02699377,-0.05194495,-0.00
 000096,0.00487807,-0.00421000,0.00000002,-0.45819994,-0.10394364,-0.00
 000301,-0.00940978,-0.00761653,-0.00000001,-0.00126560,-0.00109920,0.0
 0000002,-0.09363306,0.01353542,-0.00000058,0.01449343,0.01729606,0.000
 00012,-0.00017327,-0.00050264,0.,0.00205519,-0.00021407,0.00000001,-0.
 00240990,-0.00019261,0.,-0.01908802,0.00689719,0.00000014,0.57636087,-
 0.00035213,-0.00018185,0.,0.00012989,-0.00193866,0.,-0.00542024,0.0008
 6866,-0.00000008,0.00065107,-0.00043138,0.,0.00004076,0.00048649,0.,-0
 .00001273,-0.00045246,0.,0.00003521,-0.00014622,0.,0.00009448,0.000035
 00,0.,0.00008479,-0.00006746,0.,0.00002508,-0.00003834,0.,0.01251693,-
 0.02092786,-0.00000048,0.00013769,0.00065905,-0.00000003,-0.04804353,-
 0.02141567,-0.00000065,-0.00116862,-0.01024918,-0.00000009,-0.10675461
 ,-0.11894138,-0.00000122,0.00031271,-0.00406720,-0.00000005,-0.0024106
 1,-0.00072081,0.00000007,0.02453665,0.02466914,0.00000011,0.00467642,-
 0.00037857,-0.00000007,-0.00013425,0.00029269,0.,-0.00200129,0.0030504
 6,0.00000008,0.00126685,0.00051530,0.00000003,0.00074104,0.01022642,0.
 00000024,0.12768516,0.14494231,-0.00000005,0.00000002,0.00023267,0.000
 00004,-0.00000010,-0.00012521,-0.00000019,0.00000011,-0.00040823,0.000
 00004,0.,0.00008564,-0.00000001,0.,0.00015314,0.00000004,-0.00000002,0
 .00002104,0.,0.,-0.00008346,0.,0.,-0.00016157,0.,0.,-0.00001372,0.,0.,
 -0.00005484,0.00000048,-0.00000063,0.00674293,-0.00000003,0.00000004,-
 0.00073656,-0.00000060,-0.00000057,0.01764598,-0.00000008,-0.00000018,
 0.00232421,-0.00000301,-0.00000127,-0.05762060,0.,-0.00000011,0.000222
 37,-0.00000005,0.,-0.00222387,-0.00000061,0.00000015,0.01575436,0.0000
 0012,0.00000013,0.00437824,0.,0.,0.00004247,0.00000002,0.00000004,-0.0
 0353203,0.,0.,-0.00057863,0.,0.00000034,-0.00308478,0.00000405,0.00000
 232,0.02805733,0.00114728,0.00026892,-0.00000002,-0.00390569,0.0036623
 2,0.00000001,0.01280607,0.01532167,0.00000046,0.00102038,-0.00019800,-
 0.00000002,-0.00008254,-0.00001683,0.,-0.00021746,0.00000056,0.,-0.000
 12500,0.00029299,0.,-0.00046031,-0.00047206,-0.00000011,-0.00001765,0.
 00000041,0.,-0.00003527,-0.00003866,0.,-0.09717418,-0.09210111,-0.0000
 0222,-0.00416386,-0.00343967,0.00000002,0.00172200,-0.00012142,0.,-0.0
 0086746,0.00004532,0.00000001,-0.01094405,0.00076563,0.00000001,0.0009
 0674,-0.00068240,-0.00000001,0.00026079,0.00022580,0.00000001,0.001443
 46,-0.00012363,0.00000005,-0.00005045,0.00095970,-0.00000001,0.0000773
 7,0.00000550,0.,-0.00004100,-0.00000468,0.,0.00019840,-0.00003217,0.,-
 0.00860361,-0.03319884,-0.00000067,0.00452882,-0.00663673,-0.00000017,
 0.10257720,0.00001753,0.00001869,0.,0.00320044,0.00284201,-0.00000015,
 0.00290142,-0.01048079,-0.00000019,-0.00255269,0.00208558,0.00000009,-
 0.00027141,-0.00166329,0.00000003,0.00016928,0.00102888,0.,0.00005774,
 0.00007350,0.,0.00028982,-0.00008674,-0.00000006,-0.00014371,0.0001367
 0,0.,-0.00002583,0.00007995,0.,-0.10079357,-0.34484104,-0.00000654,0.0
 0246954,0.00680153,-0.00000019,-0.00640883,0.00300196,0.00000005,0.006
 49375,-0.00233064,-0.00000007,0.01862049,0.00791609,0.00000022,-0.0043
 1550,0.00598626,0.00000004,-0.00059676,-0.00045313,0.00000001,-0.00308
 812,-0.00061382,0.00000009,-0.00229759,-0.00442705,-0.00000008,-0.0000
 0305,-0.00009116,0.00000001,0.00021482,-0.00009193,0.,-0.00055722,-0.0
 0008013,-0.00000001,-0.00811918,-0.00317241,-0.00000002,-0.02077874,-0
 .00578846,-0.00000026,0.11551736,0.34414944,0.,0.00000010,0.00080999,-
 0.00000005,0.00000007,0.00283948,0.00000016,0.00000075,-0.00556756,0.0
 0000015,0.,-0.00099048,-0.00000004,0.00000002,-0.00029398,0.00000005,-
 0.00000004,-0.00009599,-0.00000001,0.00000002,-0.00002356,-0.00000008,
 -0.00000004,-0.00026337,0.,0.,0.00008621,0.,0.,0.00002078,-0.00000287,
 -0.00000863,-0.01828865,0.00000014,0.00000020,0.00289923,-0.00000012,0
 .00000007,-0.00205824,0.00000004,-0.00000005,-0.00007581,0.00000020,0.
 00000025,0.00063294,-0.00000003,0.00000006,-0.00002795,-0.00000001,0.,
 0.00018311,-0.00000005,-0.00000006,0.00094214,-0.00000004,-0.00000004,
 0.00014092,0.,0.,-0.00007292,0.,0.,-0.00005401,-0.00000001,0.,-0.00007
 327,0.00000025,0.00000045,0.00141091,-0.00000032,-0.00000018,-0.007036
 88,0.00000266,0.00000704,0.02495699\\-0.00090248,-0.00038456,0.0000000
 1,-0.00053440,-0.00043370,0.00000005,-0.00086227,0.00025052,0.00000014
 ,0.00068213,-0.00099076,-0.00000013,-0.00019355,-0.00077859,-0.0000000
 1,-0.00108281,-0.00096185,0.00000003,-0.00013833,-0.00001168,0.0000000
 1,0.00009092,-0.00008833,0.,-0.00002122,-0.00013873,0.,-0.00013444,-0.
 00010939,0.,0.00292153,-0.00069234,-0.00000068,0.00014508,0.00185993,-
 0.00000001,0.00136540,-0.00019927,-0.00000022,-0.00032000,-0.00063125,
 0.00000009,-0.00187716,0.00003504,0.00000092,0.00026009,-0.00202717,0.
 00000007,0.00008491,-0.00006663,0.00000006,-0.00040660,-0.00016201,-0.
 00000041,-0.00003817,-0.00080208,-0.00000010,0.00001751,-0.00012002,-0
 .00000002,-0.00009850,0.00002301,0.,-0.00005532,-0.00009789,-0.0000000
 2,0.00150467,0.00090179,-0.00000013,0.00057792,0.00209379,-0.00000013,
 -0.00098491,0.00353217,0.00000046\\\@
 The archive entry for this job was punched.


 ONE OF THE BENEFITS OF A COLLEGE EDUCATION
 IS TO SHOW THE BOY ITS LITTLE AVAIL 
                                    EMERSON IN 'CULTURE'
 Job cpu time:       0 days  2 hours 50 minutes 10.3 seconds.
 Elapsed time:       0 days  0 hours 17 minutes 33.8 seconds.
 File lengths (MBytes):  RWF=   1376 Int=      0 D2E=      0 Chk=     48 Scr=      8
 Normal termination of Gaussian 16 at Tue Jul 14 13:51:26 2020.
