 Entering Gaussian System, Link 0=g16
 Initial command:
 /gpfs/loomis/apps/avx/software/Gaussian/16-C.01_AVX/g16/l1.exe "/home/fas/batista/pev4/scratch60/gauss-scratch/Gau-83216.inp" -scrdir="/home/fas/batista/pev4/scratch60/gauss-scratch/"
 Entering Link 1 = /gpfs/loomis/apps/avx/software/Gaussian/16-C.01_AVX/g16/l1.exe PID=     83217.
  
 Copyright (c) 1988-2019, Gaussian, Inc.  All Rights Reserved.
  
 This is part of the Gaussian(R) 16 program.  It is based on
 the Gaussian(R) 09 system (copyright 2009, Gaussian, Inc.),
 the Gaussian(R) 03 system (copyright 2003, Gaussian, Inc.),
 the Gaussian(R) 98 system (copyright 1998, Gaussian, Inc.),
 the Gaussian(R) 94 system (copyright 1995, Gaussian, Inc.),
 the Gaussian 92(TM) system (copyright 1992, Gaussian, Inc.),
 the Gaussian 90(TM) system (copyright 1990, Gaussian, Inc.),
 the Gaussian 88(TM) system (copyright 1988, Gaussian, Inc.),
 the Gaussian 86(TM) system (copyright 1986, Carnegie Mellon
 University), and the Gaussian 82(TM) system (copyright 1983,
 Carnegie Mellon University). Gaussian is a federally registered
 trademark of Gaussian, Inc.
  
 This software contains proprietary and confidential information,
 including trade secrets, belonging to Gaussian, Inc.
  
 This software is provided under written license and may be
 used, copied, transmitted, or stored only in accord with that
 written license.
  
 The following legend is applicable only to US Government
 contracts under FAR:
  
                    RESTRICTED RIGHTS LEGEND
  
 Use, reproduction and disclosure by the US Government is
 subject to restrictions as set forth in subparagraphs (a)
 and (c) of the Commercial Computer Software - Restricted
 Rights clause in FAR 52.227-19.
  
 Gaussian, Inc.
 340 Quinnipiac St., Bldg. 40, Wallingford CT 06492
  
  
 ---------------------------------------------------------------
 Warning -- This program may not be used in any manner that
 competes with the business of Gaussian, Inc. or will provide
 assistance to any competitor of Gaussian, Inc.  The licensee
 of this program is prohibited from giving any competitor of
 Gaussian, Inc. access to this program.  By using this program,
 the user acknowledges that Gaussian, Inc. is engaged in the
 business of creating and licensing software in the field of
 computational chemistry and represents and warrants to the
 licensee that it is not a competitor of Gaussian, Inc. and that
 it will not use this program in any manner prohibited above.
 ---------------------------------------------------------------
  

 Cite this work as:
 Gaussian 16, Revision C.01,
 M. J. Frisch, G. W. Trucks, H. B. Schlegel, G. E. Scuseria, 
 M. A. Robb, J. R. Cheeseman, G. Scalmani, V. Barone, 
 G. A. Petersson, H. Nakatsuji, X. Li, M. Caricato, A. V. Marenich, 
 J. Bloino, B. G. Janesko, R. Gomperts, B. Mennucci, H. P. Hratchian, 
 J. V. Ortiz, A. F. Izmaylov, J. L. Sonnenberg, D. Williams-Young, 
 F. Ding, F. Lipparini, F. Egidi, J. Goings, B. Peng, A. Petrone, 
 T. Henderson, D. Ranasinghe, V. G. Zakrzewski, J. Gao, N. Rega, 
 G. Zheng, W. Liang, M. Hada, M. Ehara, K. Toyota, R. Fukuda, 
 J. Hasegawa, M. Ishida, T. Nakajima, Y. Honda, O. Kitao, H. Nakai, 
 T. Vreven, K. Throssell, J. A. Montgomery, Jr., J. E. Peralta, 
 F. Ogliaro, M. J. Bearpark, J. J. Heyd, E. N. Brothers, K. N. Kudin, 
 V. N. Staroverov, T. A. Keith, R. Kobayashi, J. Normand, 
 K. Raghavachari, A. P. Rendell, J. C. Burant, S. S. Iyengar, 
 J. Tomasi, M. Cossi, J. M. Millam, M. Klene, C. Adamo, R. Cammi, 
 J. W. Ochterski, R. L. Martin, K. Morokuma, O. Farkas, 
 J. B. Foresman, and D. J. Fox, Gaussian, Inc., Wallingford CT, 2019.
 
 ******************************************
 Gaussian 16:  ES64L-G16RevC.01  3-Jul-2019
                13-Jul-2020 
 ******************************************
 %chk=config_12_4.chk
 %mem=58GB
 %nprocshared=10
 Will use up to   10 processors via shared memory.
 ----------------------------------------------------------------------
 #p opt=addgic freq td wb97xd/cc-pvdz nosymm int=ultrafine scrf=(solven
 t=CarbonTetraChloride)
 ----------------------------------------------------------------------
 1/18=20,19=15,26=6,38=1,145=903/1,3;
 2/9=110,12=2,15=1,17=6,18=5,40=1/2;
 3/5=16,11=9,25=1,30=1,70=2201,71=1,72=11,74=-58,75=-5/1,2,3,8;
 4//1;
 5/5=2,38=5,53=11/2;
 8/6=1,10=1/1;
 9/15=2,42=1,70=2/14;
 10/5=4,31=1/2;
 6/7=2,8=2,9=2,10=2/1;
 7/12=6,13=5,30=1/1,2,3,16;
 1/18=20,19=15,26=6,145=903/3(2);
 2/9=110,15=1/2;
 99//99;
 2/9=110,15=1/2;
 3/5=16,11=9,25=1,30=1,70=2205,71=1,72=11,74=-58,75=-5/1,2,3,8;
 4/5=5,16=3,69=1/1;
 5/5=2,38=5,53=11/2;
 8/6=1,10=1/1;
 9/15=2,42=1,49=4,70=2/14;
 10/5=4,31=1/2;
 7/12=6,13=5,30=1/1,2,3,16;
 1/18=20,19=15,26=6,145=903/3(-8);
 2/9=110,15=1/2;
 6/7=2,8=2,9=2,10=2/1;
 99/9=10/99;
 Leave Link    1 at Mon Jul 13 20:46:47 2020, MaxMem=  7784628224 cpu:               3.4 elap:               0.4
 (Enter /gpfs/loomis/apps/avx/software/Gaussian/16-C.01_AVX/g16/l101.exe)
 ------------------------------------------------
 NM 2D-scan of HBT TD-WB97XD pVDZ in CTC Relaxed.
 ------------------------------------------------
 Symbolic Z-matrix:
 Charge =  0 Multiplicity = 1
 C                     1.72168  -3.26251  -0.00002 
 C                     1.01109  -2.05927  -0.00002 
 C                     1.69722  -0.82214  -0.00002 
 C                     3.08787  -0.77545  -0.00002 
 C                     3.78901  -1.97783  -0.00002 
 C                     3.11872  -3.20626  -0.00002 
 H                     1.20222  -4.22274  -0.00002 
 H                     3.60271   0.18661  -0.00002 
 H                     4.88076  -1.95709  -0.00002 
 H                     3.69115  -4.13532  -0.00003 
 N                     0.84524   0.2662   -0.00002 
 S                    -0.74196  -1.80425  -0.00002 
 C                    -1.42032   1.01774   0. 
 C                    -2.79013   0.86834  -0.00001 
 C                    -0.84213   2.40287   0.00003 
 C                    -3.64997   2.00844   0.00002 
 H                    -3.24223  -0.12863  -0.00004 
 C                    -1.76003   3.49965   0.00006 
 C                    -3.1411    3.30518   0.00006 
 H                    -4.72901   1.84464   0.00002 
 H                    -1.30751   4.49376   0.00009 
 H                    -3.8193    4.15959   0.00009 
 C                    -0.47176  -0.06279  -0.00001 
 O                     0.39456   2.59729   0.00003 
 H                     1.08355   0.93282  -0.00001 
 
 Initializing the GIC definitions file.
 Number of initial coordinates =   134
 Number of input entries/lines =    52
 Number of additional coordinates =     2
 Number of removed coordinates =     0
 Number of frozen coordinates =     2
 Number of final active and frozen coordinates =   136
 ITRead=  0  0  0  0  0  0  0  0  0  0  0  0  0  0  0  0  0  0  0  0
 ITRead=  0  0  0  0  0
 MicOpt= -1 -1 -1 -1 -1 -1 -1 -1 -1 -1 -1 -1 -1 -1 -1 -1 -1 -1 -1 -1
 MicOpt= -1 -1 -1 -1 -1
 NAtoms=     25 NQM=       25 NQMF=       0 NMMI=      0 NMMIF=      0
                NMic=       0 NMicF=      0.
                    Isotopes and Nuclear Properties:
 (Nuclear quadrupole moments (NQMom) in fm**2, nuclear magnetic moments (NMagM)
  in nuclear magnetons)

  Atom         1           2           3           4           5           6           7           8           9          10
 IAtWgt=          12          12          12          12          12          12           1           1           1           1
 AtmWgt=  12.0000000  12.0000000  12.0000000  12.0000000  12.0000000  12.0000000   1.0078250   1.0078250   1.0078250   1.0078250
 NucSpn=           0           0           0           0           0           0           1           1           1           1
 AtZEff=  -0.0000000  -0.0000000  -0.0000000  -0.0000000  -0.0000000  -0.0000000  -0.0000000  -0.0000000  -0.0000000  -0.0000000
 NQMom=    0.0000000   0.0000000   0.0000000   0.0000000   0.0000000   0.0000000   0.0000000   0.0000000   0.0000000   0.0000000
 NMagM=    0.0000000   0.0000000   0.0000000   0.0000000   0.0000000   0.0000000   2.7928460   2.7928460   2.7928460   2.7928460
 AtZNuc=   6.0000000   6.0000000   6.0000000   6.0000000   6.0000000   6.0000000   1.0000000   1.0000000   1.0000000   1.0000000

  Atom        11          12          13          14          15          16          17          18          19          20
 IAtWgt=          14          32          12          12          12          12           1          12          12           1
 AtmWgt=  14.0030740  31.9720718  12.0000000  12.0000000  12.0000000  12.0000000   1.0078250  12.0000000  12.0000000   1.0078250
 NucSpn=           2           0           0           0           0           0           1           0           0           1
 AtZEff=  -0.0000000  -0.0000000  -0.0000000  -0.0000000  -0.0000000  -0.0000000  -0.0000000  -0.0000000  -0.0000000  -0.0000000
 NQMom=    2.0440000   0.0000000   0.0000000   0.0000000   0.0000000   0.0000000   0.0000000   0.0000000   0.0000000   0.0000000
 NMagM=    0.4037610   0.0000000   0.0000000   0.0000000   0.0000000   0.0000000   2.7928460   0.0000000   0.0000000   2.7928460
 AtZNuc=   7.0000000  16.0000000   6.0000000   6.0000000   6.0000000   6.0000000   1.0000000   6.0000000   6.0000000   1.0000000

  Atom        21          22          23          24          25
 IAtWgt=           1           1          12          16           1
 AtmWgt=   1.0078250   1.0078250  12.0000000  15.9949146   1.0078250
 NucSpn=           1           1           0           0           1
 AtZEff=  -0.0000000  -0.0000000  -0.0000000  -0.0000000  -0.0000000
 NQMom=    0.0000000   0.0000000   0.0000000   0.0000000   0.0000000
 NMagM=    2.7928460   2.7928460   0.0000000   0.0000000   2.7928460
 AtZNuc=   1.0000000   1.0000000   6.0000000   8.0000000   1.0000000
 Leave Link  101 at Mon Jul 13 20:46:50 2020, MaxMem=  7784628224 cpu:              32.4 elap:               3.3
 (Enter /gpfs/loomis/apps/avx/software/Gaussian/16-C.01_AVX/g16/l103.exe)

 GradGradGradGradGradGradGradGradGradGradGradGradGradGradGradGradGradGrad
 Berny optimization.
 Initialization pass.
                           ----------------------------
                           !    Initial Parameters    !
                           ! (Angstroms and Degrees)  !
 --------------------------                            --------------------------
 ! Name  Definition              Value          Derivative Info.                !
 --------------------------------------------------------------------------------
 ! R1    R(1,2)                  1.3974         estimate D2E/DX2                !
 ! R2    R(1,6)                  1.3982         estimate D2E/DX2                !
 ! R3    R(1,7)                  1.0917         estimate D2E/DX2                !
 ! R4    R(2,3)                  1.4147         estimate D2E/DX2                !
 ! R5    R(2,12)                 1.7715         estimate D2E/DX2                !
 ! R6    R(3,4)                  1.3914         estimate D2E/DX2                !
 ! R7    R(3,11)                 1.3822         estimate D2E/DX2                !
 ! R8    R(4,5)                  1.3919         estimate D2E/DX2                !
 ! R9    R(4,8)                  1.0912         estimate D2E/DX2                !
 ! R10   R(5,6)                  1.3994         estimate D2E/DX2                !
 ! R11   R(5,9)                  1.0919         estimate D2E/DX2                !
 ! R12   R(6,10)                 1.0912         estimate D2E/DX2                !
 ! R13   R(11,23)                1.3575         estimate D2E/DX2                !
 ! R14   R(11,25)                0.7079         estimate D2E/DX2                !
 ! R15   R(12,23)                1.7623         estimate D2E/DX2                !
 ! R16   R(13,14)                1.3779         estimate D2E/DX2                !
 ! R17   R(13,15)                1.501          estimate D2E/DX2                !
 ! R18   R(13,23)                1.4378         estimate D2E/DX2                !
 ! R19   R(14,16)                1.428          estimate D2E/DX2                !
 ! R20   R(14,17)                1.0947         estimate D2E/DX2                !
 ! R21   R(15,18)                1.4302         estimate D2E/DX2                !
 ! R22   R(15,24)                1.2519         estimate D2E/DX2                !
 ! R23   R(16,19)                1.393          estimate D2E/DX2                !
 ! R24   R(16,20)                1.0914         estimate D2E/DX2                !
 ! R25   R(18,19)                1.3947         estimate D2E/DX2                !
 ! R26   R(18,21)                1.0923         estimate D2E/DX2                !
 ! R27   R(19,22)                1.0909         estimate D2E/DX2                !
 ! A1    A(2,1,6)              118.2594         estimate D2E/DX2                !
 ! A2    A(2,1,7)              121.0226         estimate D2E/DX2                !
 ! A3    A(6,1,7)              120.718          estimate D2E/DX2                !
 ! A4    A(1,2,3)              120.4215         estimate D2E/DX2                !
 ! A5    A(1,2,12)             128.8421         estimate D2E/DX2                !
 ! A6    A(3,2,12)             110.7364         estimate D2E/DX2                !
 ! A7    A(2,3,4)              120.9365         estimate D2E/DX2                !
 ! A8    A(2,3,11)             112.9318         estimate D2E/DX2                !
 ! A9    A(4,3,11)             126.1317         estimate D2E/DX2                !
 ! A10   A(3,4,5)              118.3246         estimate D2E/DX2                !
 ! A11   A(3,4,8)              120.0759         estimate D2E/DX2                !
 ! A12   A(5,4,8)              121.5995         estimate D2E/DX2                !
 ! A13   A(4,5,6)              121.1334         estimate D2E/DX2                !
 ! A14   A(4,5,9)              119.159          estimate D2E/DX2                !
 ! A15   A(6,5,9)              119.7076         estimate D2E/DX2                !
 ! A16   A(1,6,5)              120.9245         estimate D2E/DX2                !
 ! A17   A(1,6,10)             119.3333         estimate D2E/DX2                !
 ! A18   A(5,6,10)             119.7421         estimate D2E/DX2                !
 ! A19   A(3,11,23)            114.0288         estimate D2E/DX2                !
 ! A20   A(3,11,25)            122.2742         estimate D2E/DX2                !
 ! A21   A(23,11,25)           123.6971         estimate D2E/DX2                !
 ! A22   A(2,12,23)             89.4578         estimate D2E/DX2                !
 ! A23   A(14,13,15)           118.8816         estimate D2E/DX2                !
 ! A24   A(14,13,23)           125.0543         estimate D2E/DX2                !
 ! A25   A(15,13,23)           116.0642         estimate D2E/DX2                !
 ! A26   A(13,14,16)           120.7982         estimate D2E/DX2                !
 ! A27   A(13,14,17)           120.6174         estimate D2E/DX2                !
 ! A28   A(16,14,17)           118.5844         estimate D2E/DX2                !
 ! A29   A(13,15,18)           117.417          estimate D2E/DX2                !
 ! A30   A(13,15,24)           121.5917         estimate D2E/DX2                !
 ! A31   A(18,15,24)           120.9913         estimate D2E/DX2                !
 ! A32   A(14,16,19)           121.551          estimate D2E/DX2                !
 ! A33   A(14,16,20)           118.3907         estimate D2E/DX2                !
 ! A34   A(19,16,20)           120.0583         estimate D2E/DX2                !
 ! A35   A(15,18,19)           121.9107         estimate D2E/DX2                !
 ! A36   A(15,18,21)           115.5987         estimate D2E/DX2                !
 ! A37   A(19,18,21)           122.4906         estimate D2E/DX2                !
 ! A38   A(16,19,18)           119.4415         estimate D2E/DX2                !
 ! A39   A(16,19,22)           120.1318         estimate D2E/DX2                !
 ! A40   A(18,19,22)           120.4266         estimate D2E/DX2                !
 ! A41   A(11,23,12)           112.8453         estimate D2E/DX2                !
 ! A42   A(11,23,13)           117.2528         estimate D2E/DX2                !
 ! A43   A(12,23,13)           129.9018         estimate D2E/DX2                !
 ! D1    D(6,1,2,3)              0.0            estimate D2E/DX2                !
 ! D2    D(6,1,2,12)          -179.9999         estimate D2E/DX2                !
 ! D3    D(7,1,2,3)            179.9999         estimate D2E/DX2                !
 ! D4    D(7,1,2,12)             0.0            estimate D2E/DX2                !
 ! D5    D(2,1,6,5)              0.0            estimate D2E/DX2                !
 ! D6    D(2,1,6,10)           180.0            estimate D2E/DX2                !
 ! D7    D(7,1,6,5)           -179.9999         estimate D2E/DX2                !
 ! D8    D(7,1,6,10)             0.0001         estimate D2E/DX2                !
 ! D9    D(1,2,3,4)              0.0            estimate D2E/DX2                !
 ! D10   D(1,2,3,11)           179.9999         estimate D2E/DX2                !
 ! D11   D(12,2,3,4)           180.0            estimate D2E/DX2                !
 ! D12   D(12,2,3,11)           -0.0001         estimate D2E/DX2                !
 ! D13   D(1,2,12,23)          179.9999         estimate D2E/DX2                !
 ! D14   D(3,2,12,23)            0.0            estimate D2E/DX2                !
 ! D15   D(2,3,4,5)              0.0            estimate D2E/DX2                !
 ! D16   D(2,3,4,8)            180.0            estimate D2E/DX2                !
 ! D17   D(11,3,4,5)          -180.0            estimate D2E/DX2                !
 ! D18   D(11,3,4,8)             0.0001         estimate D2E/DX2                !
 ! D19   D(2,3,11,23)            0.0002         estimate D2E/DX2                !
 ! D20   D(2,3,11,25)          179.9996         estimate D2E/DX2                !
 ! D21   D(4,3,11,23)         -179.9999         estimate D2E/DX2                !
 ! D22   D(4,3,11,25)           -0.0005         estimate D2E/DX2                !
 ! D23   D(3,4,5,6)              0.0            estimate D2E/DX2                !
 ! D24   D(3,4,5,9)           -180.0            estimate D2E/DX2                !
 ! D25   D(8,4,5,6)           -180.0            estimate D2E/DX2                !
 ! D26   D(8,4,5,9)              0.0            estimate D2E/DX2                !
 ! D27   D(4,5,6,1)              0.0            estimate D2E/DX2                !
 ! D28   D(4,5,6,10)          -180.0            estimate D2E/DX2                !
 ! D29   D(9,5,6,1)            180.0            estimate D2E/DX2                !
 ! D30   D(9,5,6,10)             0.0            estimate D2E/DX2                !
 ! D31   D(3,11,23,12)          -0.0002         estimate D2E/DX2                !
 ! D32   D(3,11,23,13)         179.9994         estimate D2E/DX2                !
 ! D33   D(25,11,23,12)       -179.9995         estimate D2E/DX2                !
 ! D34   D(25,11,23,13)          0.0            estimate D2E/DX2                !
 ! D35   D(2,12,23,11)           0.0001         estimate D2E/DX2                !
 ! D36   D(2,12,23,13)        -179.9994         estimate D2E/DX2                !
 ! D37   D(15,13,14,16)         -0.0006         estimate D2E/DX2                !
 ! D38   D(15,13,14,17)        179.9996         estimate D2E/DX2                !
 ! D39   D(23,13,14,16)        179.9993         estimate D2E/DX2                !
 ! D40   D(23,13,14,17)         -0.0005         estimate D2E/DX2                !
 ! D41   D(14,13,15,18)          0.0006         estimate D2E/DX2                !
 ! D42   D(14,13,15,24)       -179.9994         estimate D2E/DX2                !
 ! D43   D(23,13,15,18)       -179.9994         estimate D2E/DX2                !
 ! D44   D(23,13,15,24)          0.0006         estimate D2E/DX2                !
 ! D45   D(14,13,23,11)        179.9993         estimate D2E/DX2                !
 ! D46   D(14,13,23,12)         -0.0013         estimate D2E/DX2                !
 ! D47   D(15,13,23,11)         -0.0008         estimate D2E/DX2                !
 ! D48   D(15,13,23,12)        179.9987         estimate D2E/DX2                !
 ! D49   D(13,14,16,19)          0.0002         estimate D2E/DX2                !
 ! D50   D(13,14,16,20)       -179.9998         estimate D2E/DX2                !
 ! D51   D(17,14,16,19)       -180.0            estimate D2E/DX2                !
 ! D52   D(17,14,16,20)          0.0001         estimate D2E/DX2                !
 ! D53   D(13,15,18,19)         -0.0001         estimate D2E/DX2                !
 ! D54   D(13,15,18,21)        179.9998         estimate D2E/DX2                !
 ! D55   D(24,15,18,19)        179.9999         estimate D2E/DX2                !
 ! D56   D(24,15,18,21)         -0.0002         estimate D2E/DX2                !
 ! D57   D(14,16,19,18)          0.0003         estimate D2E/DX2                !
 ! D58   D(14,16,19,22)       -179.9998         estimate D2E/DX2                !
 ! D59   D(20,16,19,18)       -179.9998         estimate D2E/DX2                !
 ! D60   D(20,16,19,22)          0.0001         estimate D2E/DX2                !
 ! D61   D(15,18,19,16)         -0.0003         estimate D2E/DX2                !
 ! D62   D(15,18,19,22)        179.9998         estimate D2E/DX2                !
 ! D63   D(21,18,19,16)        179.9998         estimate D2E/DX2                !
 ! D64   D(21,18,19,22)         -0.0001         estimate D2E/DX2                !
 ! Qtot  GIC-1                  60.0            Frozen                          !
 ! Ptot  GIC-2                 -80.0            Frozen                          !
 --------------------------------------------------------------------------------
 NOTE: GIC-type coordinates are in arbitrary units.
 Trust Radius=3.00D-01 FncErr=5.00D-06 GrdErr=5.00D-06 EigMax=2.50D+02 EigMin=1.00D-04
 Number of steps in this run=    146 maximum allowed number of steps=    150.
 GradGradGradGradGradGradGradGradGradGradGradGradGradGradGradGradGradGrad

 Leave Link  103 at Mon Jul 13 20:46:50 2020, MaxMem=  7784628224 cpu:               0.1 elap:               0.0
 (Enter /gpfs/loomis/apps/avx/software/Gaussian/16-C.01_AVX/g16/l202.exe)
                          Input orientation:                          
 ---------------------------------------------------------------------
 Center     Atomic      Atomic             Coordinates (Angstroms)
 Number     Number       Type             X           Y           Z
 ---------------------------------------------------------------------
      1          6           0        1.721682   -3.262506   -0.000024
      2          6           0        1.011086   -2.059275   -0.000021
      3          6           0        1.697222   -0.822142   -0.000019
      4          6           0        3.087873   -0.775450   -0.000020
      5          6           0        3.789014   -1.977831   -0.000022
      6          6           0        3.118724   -3.206260   -0.000024
      7          1           0        1.202216   -4.222739   -0.000024
      8          1           0        3.602711    0.186615   -0.000018
      9          1           0        4.880759   -1.957086   -0.000022
     10          1           0        3.691152   -4.135316   -0.000026
     11          7           0        0.845240    0.266204   -0.000018
     12         16           0       -0.741955   -1.804248   -0.000018
     13          6           0       -1.420321    1.017737    0.000001
     14          6           0       -2.790131    0.868336   -0.000008
     15          6           0       -0.842127    2.402867    0.000031
     16          6           0       -3.649970    2.008443    0.000023
     17          1           0       -3.242230   -0.128634   -0.000037
     18          6           0       -1.760029    3.499655    0.000061
     19          6           0       -3.141096    3.305184    0.000060
     20          1           0       -4.729009    1.844637    0.000018
     21          1           0       -1.307507    4.493756    0.000087
     22          1           0       -3.819305    4.159586    0.000086
     23          6           0       -0.471761   -0.062794   -0.000014
     24          8           0        0.394556    2.597293    0.000030
     25          1           0        1.083546    0.932824   -0.000012
 ---------------------------------------------------------------------
                    Distance matrix (angstroms):
                    1          2          3          4          5
     1  C    0.000000
     2  C    1.397395   0.000000
     3  C    2.440487   1.414666   0.000000
     4  C    2.837592   2.441567   1.391434   0.000000
     5  C    2.433979   2.779122   2.389814   1.391876   0.000000
     6  C    1.398174   2.399523   2.775732   2.431006   1.399402
     7  H    1.091738   2.171890   3.436436   3.929313   3.425075
     8  H    3.928703   3.429364   2.156032   1.091158   2.172449
     9  H    3.418170   3.871021   3.379793   2.147255   1.091942
    10  H    2.154207   3.390089   3.866896   3.413597   2.159704
    11  N    3.635924   2.331385   1.382161   2.472741   3.701554
    12  S    2.862870   1.771495   2.629471   3.965603   4.534294
    13  C    5.309677   3.921702   3.619977   4.851736   6.009210
    14  C    6.117215   4.797933   4.795212   6.103521   7.168391
    15  C    6.218487   4.831678   4.104751   5.054365   6.374794
    16  C    7.525792   6.186418   6.050180   7.290308   8.439720
    17  H    5.870398   4.670982   4.987899   6.363063   7.270345
    18  C    7.605862   6.211343   5.534484   6.463643   7.797098
    19  C    8.171974   6.783659   6.359571   7.446585   8.714165
    20  H    8.227656   6.941846   6.957597   8.244302   9.336380
    21  H    8.326800   6.951121   6.106322   6.861771   8.237474
    22  H    9.262289   7.874447   7.433013   8.489034   9.775194
    23  C    3.879349   2.486920   2.298063   3.630272   4.671356
    24  O    6.008204   4.697205   3.659163   4.316174   5.696851
    25  H    4.243585   2.992976   1.859167   2.633539   3.973848
                    6          7          8          9         10
     6  C    0.000000
     7  H    2.169385   0.000000
     8  H    3.427221   5.020436   0.000000
     9  H    2.159908   4.320285   2.495769   0.000000
    10  H    1.091247   2.490471   4.322836   2.481905   0.000000
    11  N    4.150510   4.503114   2.758619   4.607432   5.241430
    12  S    4.107370   3.103047   4.779085   5.624791   5.008625
    13  C    6.200410   5.860059   5.091327   6.968011   7.258176
    14  C    7.177528   6.469767   6.429088   8.174691   8.188014
    15  C    6.866634   6.933830   4.966725   7.194486   7.956034
    16  C    8.544492   7.897552   7.477997   9.407378   9.572766
    17  H    7.066365   6.042747   6.852196   8.326234   8.007827
    18  C    8.292860   8.271050   6.303587   8.595120   9.381267
    19  C    9.032400   8.691029   7.429966   9.593834  10.101518
    20  H    9.332657   8.484838   8.495092  10.334445  10.327582
    21  H    8.881541   9.070612   6.531593   8.939128   9.972336
    22  H   10.118890   9.771338   8.418481  10.635074  11.189833
    23  C    4.772102   4.484120   4.082098   5.677835   5.823682
    24  O    6.411109   6.867689   4.012932   6.392839   7.496371
    25  H    4.612371   5.156928   2.627359   4.771834   5.699618
                   11         12         13         14         15
    11  N    0.000000
    12  S    2.608823   0.000000
    13  C    2.386959   2.902375   0.000000
    14  C    3.684900   3.367154   1.377933   0.000000
    15  C    2.722598   4.208307   1.500964   2.479820   0.000000
    16  C    4.821028   4.795118   2.439842   1.427993   2.835410
    17  H    4.106496   3.009826   2.152560   1.094688   3.488408
    18  C    4.152425   5.400727   2.505058   2.825765   1.430205
    19  C    5.012612   5.644658   2.862425   2.461992   2.469703
    20  H    5.793420   5.404716   3.410452   2.170809   3.926764
    21  H    4.744104   6.323346   3.477849   3.916867   2.142054
    22  H    6.075888   6.710991   3.953016   3.448409   3.456826
    23  C    1.357472   1.762290   1.437816   2.498369   2.493323
    24  O    2.374257   4.545901   2.405988   3.623745   1.251874
    25  H    0.707935   3.289987   2.505307   3.874214   2.422653
                   16         17         18         19         20
    16  C    0.000000
    17  H    2.175626   0.000000
    18  C    2.407404   3.919362   0.000000
    19  C    1.393015   3.435306   1.394692   0.000000
    20  H    1.091402   2.470690   3.399107   2.157468   0.000000
    21  H    3.415248   5.010952   1.092252   2.185121   4.327183
    22  H    2.157798   4.326875   2.162435   1.090858   2.487279
    23  C    3.793552   2.771251   3.788229   4.297514   4.665025
    24  O    4.087167   4.544985   2.335914   3.605821   5.178553
    25  H    4.854187   4.454102   3.830737   4.845172   5.883639
                   21         22         23         24         25
    21  H    0.000000
    22  H    2.533929   0.000000
    23  C    4.632561   5.388372   0.000000
    24  O    2.548253   4.494150   2.797601   0.000000
    25  H    4.289216   5.869408   1.846682   1.801434   0.000000
 Symmetry turned off by external request.
 Stoichiometry    C13H9NOS
 Framework group  C1[X(C13H9NOS)]
 Deg. of freedom    69
 Full point group                 C1      NOp   1
 Rotational constants (GHZ):           1.3717418           0.2854500           0.2362815
 Leave Link  202 at Mon Jul 13 20:46:50 2020, MaxMem=  7784628224 cpu:               0.1 elap:               0.0
 (Enter /gpfs/loomis/apps/avx/software/Gaussian/16-C.01_AVX/g16/l301.exe)
 Standard basis: CC-pVDZ (5D, 7F)
 Ernie: Thresh=  0.10000D-02 Tol=  0.10000D-05 Strict=F.
 Ernie:  40 primitive shells out of 425 were deleted.
   273 basis functions,   629 primitive gaussians,   289 cartesian basis functions
    59 alpha electrons       59 beta electrons
       nuclear repulsion energy      1099.1533297272 Hartrees.
 IExCor= 4639 DFT=T Ex+Corr=wB97XD ExCW=0 ScaHFX=  1.000000
 ScaDFX=  1.000000  1.000000  1.000000  1.000000 ScalE2=  1.000000  1.000000
 IRadAn=      5 IRanWt=     -1 IRanGd=            0 ICorTp=0 IEmpDi=121
 HFx  wShort=  0.000000 wLong=  0.200000 cFull=  0.222036 cShort=  0.000000 cLong=  0.777964
 DFx  wShort=  0.000000 wLong=  0.200000 cFull=  0.000000 cShort=  0.000000 cLong=  1.000000
 NAtoms=   25 NActive=   25 NUniq=   25 SFac= 1.00D+00 NAtFMM=   60 NAOKFM=F Big=F
 Integral buffers will be    131072 words long.
 Raffenetti 1 integral format.
 Two-electron integral symmetry is turned off.
 R6Disp:  Grimme-D2 Dispersion energy=       -0.0141738692 Hartrees.
 Nuclear repulsion after empirical dispersion term =     1099.1391558580 Hartrees.
 ------------------------------------------------------------------------------
 Polarizable Continuum Model (PCM)
 =================================
 Model                : PCM.
 Atomic radii         : UFF (Universal Force Field).
 Polarization charges : Total charges.
 Charge compensation  : None.
 Solution method      : On-the-fly selection.
 Cavity type          : Scaled VdW (van der Waals Surface) (Alpha=1.100).
 Cavity algorithm     : GePol (No added spheres)
                        Default sphere list used, NSphG=   25.
                        Lebedev-Laikov grids with approx.  5.0 points / Ang**2.
                        Smoothing algorithm: York/Karplus (Gamma=1.0000).
                        Polarization charges: spherical gaussians, with
                                              point-specific exponents (IZeta= 3).
                        Self-potential: point-specific (ISelfS= 7).
                        Self-field    : sphere-specific E.n sum rule (ISelfD= 2).
 1st derivatives      : Analytical E(r).r(x)/FMM algorithm (CHGder, D1EAlg=3).
                        Cavity 1st derivative terms included.
 Solvent              : CarbonTetraChloride, Eps=   2.228000 Eps(inf)=   2.131892
 ------------------------------------------------------------------------------
 GePol: Number of generator spheres                  =      25
 GePol: Total number of spheres                      =      25
 GePol: Number of exposed spheres                    =      25 (100.00%)
 GePol: Number of points                             =    2194
 GePol: Average weight of points                     =       0.13
 GePol: Minimum weight of points                     =   0.88D-11
 GePol: Maximum weight of points                     =    0.20577
 GePol: Number of points with low weight             =     150
 GePol: Fraction of low-weight points (<1% of avg)   =       6.84%
 GePol: Cavity surface area                          =    274.914 Ang**2
 GePol: Cavity volume                                =    293.735 Ang**3
 Leave Link  301 at Mon Jul 13 20:46:51 2020, MaxMem=  7784628224 cpu:               0.8 elap:               0.1
 (Enter /gpfs/loomis/apps/avx/software/Gaussian/16-C.01_AVX/g16/l302.exe)
 NPDir=0 NMtPBC=     1 NCelOv=     1 NCel=       1 NClECP=     1 NCelD=      1
         NCelK=      1 NCelE2=     1 NClLst=     1 CellRange=     0.0.
 One-electron integrals computed using PRISM.
 NBasis=   273 RedAO= T EigKep=  3.01D-04  NBF=   273
 NBsUse=   273 1.00D-06 EigRej= -1.00D+00 NBFU=   273
 Precomputing XC quadrature grid using
 IXCGrd= 4 IRadAn=           5 IRanWt=          -1 IRanGd=           0 AccXCQ= 0.00D+00.
 Generated NRdTot=       0 NPtTot=           0 NUsed=           0 NTot=          32
 NSgBfM=   288   288   288   288   288 MxSgAt=    25 MxSgA2=    25.
 Leave Link  302 at Mon Jul 13 20:46:51 2020, MaxMem=  7784628224 cpu:               2.5 elap:               0.3
 (Enter /gpfs/loomis/apps/avx/software/Gaussian/16-C.01_AVX/g16/l303.exe)
 DipDrv:  MaxL=1.
 Leave Link  303 at Mon Jul 13 20:46:51 2020, MaxMem=  7784628224 cpu:               0.4 elap:               0.1
 (Enter /gpfs/loomis/apps/avx/software/Gaussian/16-C.01_AVX/g16/l308.exe)
 Leave Link  308 at Mon Jul 13 20:46:51 2020, MaxMem=  7784628224 cpu:               0.5 elap:               0.1
 (Enter /gpfs/loomis/apps/avx/software/Gaussian/16-C.01_AVX/g16/l401.exe)
 ExpMin= 1.22D-01 ExpMax= 1.11D+05 ExpMxC= 1.07D+03 IAcc=3 IRadAn=         5 AccDes= 0.00D+00
 Harris functional with IExCor= 4639 and IRadAn=       5 diagonalized for initial guess.
 HarFok:  IExCor= 4639 AccDes= 0.00D+00 IRadAn=         5 IDoV= 1 UseB2=F ITyADJ=14
 ICtDFT=  3500011 ScaDFX=  1.000000  1.000000  1.000000  1.000000
 FoFCou: FMM=F IPFlag=           0 FMFlag=      100000 FMFlg1=           0
         NFxFlg=           0 DoJE=T BraDBF=F KetDBF=T FulRan=T
         wScrn=  0.000000 ICntrl=       500 IOpCl=  0 I1Cent=   200000004 NGrid=           0
         NMat0=    1 NMatS0=      1 NMatT0=    0 NMatD0=    1 NMtDS0=    0 NMtDT0=    0
 Symmetry not used in FoFCou.
 Harris En= -994.270393238676    
 JPrj=0 DoOrth=F DoCkMO=F.
 Leave Link  401 at Mon Jul 13 20:46:53 2020, MaxMem=  7784628224 cpu:              13.5 elap:               1.4
 (Enter /gpfs/loomis/apps/avx/software/Gaussian/16-C.01_AVX/g16/l502.exe)
 Two-electron integral symmetry not used.
 Closed shell SCF:
 Using DIIS extrapolation, IDIIS=  1040.
 NGot=  7784628224 LenX=  7784455381 LenY=  7784371419
 Requested convergence on RMS density matrix=1.00D-08 within 128 cycles.
 Requested convergence on MAX density matrix=1.00D-06.
 Requested convergence on             energy=1.00D-06.
 No special actions if energy rises.
 Fock matrices will be formed incrementally for  20 cycles.

 Cycle   1  Pass 1  IDiag  1:
 FoFJK:  IHMeth= 1 ICntrl=       0 DoSepK=T KAlg= 0 I1Cent=           0 FoldK=F
 IRaf=         1 NMat=       1 IRICut=       1 DoRegI=T DoRafI=F ISym2E= 0 IDoP0=0 IntGTp=1.
 FoFCou: FMM=F IPFlag=           0 FMFlag=      100000 FMFlg1=           0
         NFxFlg=           0 DoJE=T BraDBF=F KetDBF=F FulRan=T
         wScrn=  0.000000 ICntrl=       500 IOpCl=  0 I1Cent=           0 NGrid=           0
         NMat0=    1 NMatS0=      1 NMatT0=    0 NMatD0=    1 NMtDS0=    0 NMtDT0=    0
 Symmetry not used in FoFCou.
 Inv3:  Mode=1 IEnd=    14440908.
 Iteration    1 A*A^-1 deviation from unit magnitude is 4.55D-15 for   2181.
 Iteration    1 A*A^-1 deviation from orthogonality  is 1.87D-15 for   1813    366.
 Iteration    1 A^-1*A deviation from unit magnitude is 4.77D-15 for   2181.
 Iteration    1 A^-1*A deviation from orthogonality  is 1.43D-15 for   1085    738.
 E= -1028.36851486489    
 DIIS: error= 4.34D-02 at cycle   1 NSaved=   1.
 NSaved= 1 IEnMin= 1 EnMin= -1028.36851486489     IErMin= 1 ErrMin= 4.34D-02
 ErrMax= 4.34D-02  0.00D+00 EMaxC= 1.00D-01 BMatC= 4.00D-01 BMatP= 4.00D-01
 IDIUse=3 WtCom= 5.66D-01 WtEn= 4.34D-01
 Coeff-Com:  0.100D+01
 Coeff-En:   0.100D+01
 Coeff:      0.100D+01
 Gap=     0.296 Goal=   None    Shift=    0.000
 GapD=    0.296 DampG=1.000 DampE=0.500 DampFc=0.5000 IDamp=-1.
 Damping current iteration by 5.00D-01
 RMSDP=3.75D-03 MaxDP=2.60D-01              OVMax= 2.21D-01

 Cycle   2  Pass 1  IDiag  1:
 RMSU=  1.87D-03    CP:  9.94D-01
 E= -1028.49462903408     Delta-E=       -0.126114169189 Rises=F Damp=T
 DIIS: error= 1.21D-02 at cycle   2 NSaved=   2.
 NSaved= 2 IEnMin= 2 EnMin= -1028.49462903408     IErMin= 2 ErrMin= 1.21D-02
 ErrMax= 1.21D-02  0.00D+00 EMaxC= 1.00D-01 BMatC= 5.82D-02 BMatP= 4.00D-01
 IDIUse=3 WtCom= 8.79D-01 WtEn= 1.21D-01
 Coeff-Com: -0.275D+00 0.127D+01
 Coeff-En:   0.000D+00 0.100D+01
 Coeff:     -0.242D+00 0.124D+01
 Gap=     0.364 Goal=   None    Shift=    0.000
 RMSDP=1.18D-03 MaxDP=3.24D-02 DE=-1.26D-01 OVMax= 1.54D-01

 Cycle   3  Pass 1  IDiag  1:
 RMSU=  1.15D-03    CP:  9.91D-01  1.15D+00
 E= -1028.61011316834     Delta-E=       -0.115484134267 Rises=F Damp=F
 DIIS: error= 6.14D-03 at cycle   3 NSaved=   3.
 NSaved= 3 IEnMin= 3 EnMin= -1028.61011316834     IErMin= 3 ErrMin= 6.14D-03
 ErrMax= 6.14D-03  0.00D+00 EMaxC= 1.00D-01 BMatC= 1.50D-02 BMatP= 5.82D-02
 IDIUse=3 WtCom= 9.39D-01 WtEn= 6.14D-02
 Coeff-Com: -0.198D+00 0.487D+00 0.711D+00
 Coeff-En:   0.000D+00 0.000D+00 0.100D+01
 Coeff:     -0.185D+00 0.457D+00 0.729D+00
 Gap=     0.229 Goal=   None    Shift=    0.000
 RMSDP=5.38D-04 MaxDP=2.39D-02 DE=-1.15D-01 OVMax= 4.95D-02

 Cycle   4  Pass 1  IDiag  1:
 RMSU=  4.27D-04    CP:  9.90D-01  1.31D+00  8.71D-01
 E= -1028.62509562387     Delta-E=       -0.014982455529 Rises=F Damp=F
 DIIS: error= 2.08D-03 at cycle   4 NSaved=   4.
 NSaved= 4 IEnMin= 4 EnMin= -1028.62509562387     IErMin= 4 ErrMin= 2.08D-03
 ErrMax= 2.08D-03  0.00D+00 EMaxC= 1.00D-01 BMatC= 1.81D-03 BMatP= 1.50D-02
 IDIUse=3 WtCom= 9.79D-01 WtEn= 2.08D-02
 Coeff-Com: -0.699D-01 0.138D+00 0.338D+00 0.594D+00
 Coeff-En:   0.000D+00 0.000D+00 0.000D+00 0.100D+01
 Coeff:     -0.684D-01 0.135D+00 0.331D+00 0.603D+00
 Gap=     0.233 Goal=   None    Shift=    0.000
 RMSDP=1.69D-04 MaxDP=9.23D-03 DE=-1.50D-02 OVMax= 1.32D-02

 Cycle   5  Pass 1  IDiag  1:
 RMSU=  1.16D-04    CP:  9.90D-01  1.32D+00  9.39D-01  7.81D-01
 E= -1028.62710601456     Delta-E=       -0.002010390693 Rises=F Damp=F
 DIIS: error= 6.64D-04 at cycle   5 NSaved=   5.
 NSaved= 5 IEnMin= 5 EnMin= -1028.62710601456     IErMin= 5 ErrMin= 6.64D-04
 ErrMax= 6.64D-04  0.00D+00 EMaxC= 1.00D-01 BMatC= 6.34D-05 BMatP= 1.81D-03
 IDIUse=3 WtCom= 9.93D-01 WtEn= 6.64D-03
 Coeff-Com:  0.303D-03-0.708D-02 0.207D-01 0.152D+00 0.834D+00
 Coeff-En:   0.000D+00 0.000D+00 0.000D+00 0.000D+00 0.100D+01
 Coeff:      0.301D-03-0.703D-02 0.206D-01 0.151D+00 0.835D+00
 Gap=     0.234 Goal=   None    Shift=    0.000
 RMSDP=6.41D-05 MaxDP=2.03D-03 DE=-2.01D-03 OVMax= 7.68D-03

 Cycle   6  Pass 1  IDiag  1:
 RMSU=  4.08D-05    CP:  9.89D-01  1.32D+00  9.57D-01  8.76D-01  1.14D+00
 E= -1028.62726713036     Delta-E=       -0.000161115799 Rises=F Damp=F
 DIIS: error= 2.51D-04 at cycle   6 NSaved=   6.
 NSaved= 6 IEnMin= 6 EnMin= -1028.62726713036     IErMin= 6 ErrMin= 2.51D-04
 ErrMax= 2.51D-04  0.00D+00 EMaxC= 1.00D-01 BMatC= 1.26D-05 BMatP= 6.34D-05
 IDIUse=3 WtCom= 9.97D-01 WtEn= 2.51D-03
 Coeff-Com:  0.178D-01-0.362D-01-0.717D-01-0.906D-01 0.217D+00 0.964D+00
 Coeff-En:   0.000D+00 0.000D+00 0.000D+00 0.000D+00 0.000D+00 0.100D+01
 Coeff:      0.177D-01-0.361D-01-0.715D-01-0.903D-01 0.216D+00 0.964D+00
 Gap=     0.235 Goal=   None    Shift=    0.000
 RMSDP=4.33D-05 MaxDP=2.02D-03 DE=-1.61D-04 OVMax= 4.75D-03

 Cycle   7  Pass 1  IDiag  1:
 RMSU=  1.98D-05    CP:  9.89D-01  1.32D+00  9.71D-01  9.15D-01  1.38D+00
                    CP:  1.38D+00
 E= -1028.62731467509     Delta-E=       -0.000047544722 Rises=F Damp=F
 DIIS: error= 1.01D-04 at cycle   7 NSaved=   7.
 NSaved= 7 IEnMin= 7 EnMin= -1028.62731467509     IErMin= 7 ErrMin= 1.01D-04
 ErrMax= 1.01D-04  0.00D+00 EMaxC= 1.00D-01 BMatC= 2.12D-06 BMatP= 1.26D-05
 IDIUse=3 WtCom= 9.99D-01 WtEn= 1.01D-03
 Coeff-Com:  0.608D-02-0.113D-01-0.253D-01-0.512D-01-0.219D-01 0.328D+00
 Coeff-Com:  0.776D+00
 Coeff-En:   0.000D+00 0.000D+00 0.000D+00 0.000D+00 0.000D+00 0.000D+00
 Coeff-En:   0.100D+01
 Coeff:      0.607D-02-0.113D-01-0.253D-01-0.512D-01-0.219D-01 0.328D+00
 Coeff:      0.776D+00
 Gap=     0.235 Goal=   None    Shift=    0.000
 RMSDP=1.41D-05 MaxDP=5.16D-04 DE=-4.75D-05 OVMax= 2.03D-03

 Cycle   8  Pass 1  IDiag  1:
 RMSU=  7.41D-06    CP:  9.89D-01  1.32D+00  9.73D-01  9.22D-01  1.42D+00
                    CP:  1.60D+00  1.21D+00
 E= -1028.62732135707     Delta-E=       -0.000006681982 Rises=F Damp=F
 DIIS: error= 4.83D-05 at cycle   8 NSaved=   8.
 NSaved= 8 IEnMin= 8 EnMin= -1028.62732135707     IErMin= 8 ErrMin= 4.83D-05
 ErrMax= 4.83D-05  0.00D+00 EMaxC= 1.00D-01 BMatC= 5.02D-07 BMatP= 2.12D-06
 IDIUse=1 WtCom= 1.00D+00 WtEn= 0.00D+00
 Coeff-Com: -0.218D-02 0.459D-02 0.995D-02 0.625D-02-0.391D-01-0.143D+00
 Coeff-Com:  0.224D+00 0.939D+00
 Coeff:     -0.218D-02 0.459D-02 0.995D-02 0.625D-02-0.391D-01-0.143D+00
 Coeff:      0.224D+00 0.939D+00
 Gap=     0.235 Goal=   None    Shift=    0.000
 RMSDP=8.60D-06 MaxDP=1.91D-04 DE=-6.68D-06 OVMax= 1.25D-03

 Cycle   9  Pass 1  IDiag  1:
 RMSU=  3.16D-06    CP:  9.89D-01  1.32D+00  9.73D-01  9.21D-01  1.45D+00
                    CP:  1.72D+00  1.49D+00  1.26D+00
 E= -1028.62732325602     Delta-E=       -0.000001898951 Rises=F Damp=F
 DIIS: error= 2.45D-05 at cycle   9 NSaved=   9.
 NSaved= 9 IEnMin= 9 EnMin= -1028.62732325602     IErMin= 9 ErrMin= 2.45D-05
 ErrMax= 2.45D-05  0.00D+00 EMaxC= 1.00D-01 BMatC= 6.42D-08 BMatP= 5.02D-07
 IDIUse=1 WtCom= 1.00D+00 WtEn= 0.00D+00
 Coeff-Com: -0.937D-03 0.179D-02 0.452D-02 0.615D-02-0.200D-02-0.796D-01
 Coeff-Com: -0.533D-01 0.168D+00 0.955D+00
 Coeff:     -0.937D-03 0.179D-02 0.452D-02 0.615D-02-0.200D-02-0.796D-01
 Coeff:     -0.533D-01 0.168D+00 0.955D+00
 Gap=     0.235 Goal=   None    Shift=    0.000
 RMSDP=3.91D-06 MaxDP=9.81D-05 DE=-1.90D-06 OVMax= 6.66D-04

 Cycle  10  Pass 1  IDiag  1:
 RMSU=  1.42D-06    CP:  9.89D-01  1.32D+00  9.73D-01  9.21D-01  1.46D+00
                    CP:  1.76D+00  1.59D+00  1.49D+00  1.31D+00
 E= -1028.62732360654     Delta-E=       -0.000000350520 Rises=F Damp=F
 DIIS: error= 8.07D-06 at cycle  10 NSaved=  10.
 NSaved=10 IEnMin=10 EnMin= -1028.62732360654     IErMin=10 ErrMin= 8.07D-06
 ErrMax= 8.07D-06  0.00D+00 EMaxC= 1.00D-01 BMatC= 2.84D-08 BMatP= 6.42D-08
 IDIUse=1 WtCom= 1.00D+00 WtEn= 0.00D+00
 Coeff-Com:  0.829D-04-0.238D-03-0.680D-04 0.117D-02 0.849D-02-0.759D-02
 Coeff-Com: -0.674D-01-0.142D+00 0.466D+00 0.742D+00
 Coeff:      0.829D-04-0.238D-03-0.680D-04 0.117D-02 0.849D-02-0.759D-02
 Coeff:     -0.674D-01-0.142D+00 0.466D+00 0.742D+00
 Gap=     0.236 Goal=   None    Shift=    0.000
 RMSDP=1.79D-06 MaxDP=5.42D-05 DE=-3.51D-07 OVMax= 2.66D-04

 Cycle  11  Pass 1  IDiag  1:
 RMSU=  6.37D-07    CP:  9.89D-01  1.32D+00  9.73D-01  9.21D-01  1.46D+00
                    CP:  1.78D+00  1.63D+00  1.58D+00  1.63D+00  1.06D+00
 E= -1028.62732368034     Delta-E=       -0.000000073803 Rises=F Damp=F
 DIIS: error= 4.32D-06 at cycle  11 NSaved=  11.
 NSaved=11 IEnMin=11 EnMin= -1028.62732368034     IErMin=11 ErrMin= 4.32D-06
 ErrMax= 4.32D-06  0.00D+00 EMaxC= 1.00D-01 BMatC= 3.06D-09 BMatP= 2.84D-08
 IDIUse=1 WtCom= 1.00D+00 WtEn= 0.00D+00
 Coeff-Com:  0.279D-03-0.569D-03-0.109D-02-0.117D-02 0.491D-02 0.131D-01
 Coeff-Com: -0.130D-01-0.904D-01 0.207D-01 0.206D+00 0.861D+00
 Coeff:      0.279D-03-0.569D-03-0.109D-02-0.117D-02 0.491D-02 0.131D-01
 Coeff:     -0.130D-01-0.904D-01 0.207D-01 0.206D+00 0.861D+00
 Gap=     0.236 Goal=   None    Shift=    0.000
 RMSDP=6.30D-07 MaxDP=2.23D-05 DE=-7.38D-08 OVMax= 1.12D-04

 Cycle  12  Pass 1  IDiag  1:
 RMSU=  2.58D-07    CP:  9.89D-01  1.32D+00  9.73D-01  9.21D-01  1.46D+00
                    CP:  1.78D+00  1.64D+00  1.61D+00  1.74D+00  1.26D+00
                    CP:  1.09D+00
 E= -1028.62732369099     Delta-E=       -0.000000010649 Rises=F Damp=F
 DIIS: error= 1.96D-06 at cycle  12 NSaved=  12.
 NSaved=12 IEnMin=12 EnMin= -1028.62732369099     IErMin=12 ErrMin= 1.96D-06
 ErrMax= 1.96D-06  0.00D+00 EMaxC= 1.00D-01 BMatC= 1.20D-09 BMatP= 3.06D-09
 IDIUse=1 WtCom= 1.00D+00 WtEn= 0.00D+00
 Coeff-Com:  0.121D-03-0.233D-03-0.510D-03-0.892D-03 0.842D-03 0.794D-02
 Coeff-Com:  0.722D-02-0.197D-01-0.830D-01-0.842D-01 0.437D+00 0.735D+00
 Coeff:      0.121D-03-0.233D-03-0.510D-03-0.892D-03 0.842D-03 0.794D-02
 Coeff:      0.722D-02-0.197D-01-0.830D-01-0.842D-01 0.437D+00 0.735D+00
 Gap=     0.236 Goal=   None    Shift=    0.000
 RMSDP=3.56D-07 MaxDP=1.28D-05 DE=-1.06D-08 OVMax= 4.89D-05

 Cycle  13  Pass 1  IDiag  1:
 RMSU=  1.01D-07    CP:  9.89D-01  1.32D+00  9.73D-01  9.21D-01  1.46D+00
                    CP:  1.78D+00  1.65D+00  1.63D+00  1.81D+00  1.34D+00
                    CP:  1.36D+00  9.47D-01
 E= -1028.62732369343     Delta-E=       -0.000000002440 Rises=F Damp=F
 DIIS: error= 5.40D-07 at cycle  13 NSaved=  13.
 NSaved=13 IEnMin=13 EnMin= -1028.62732369343     IErMin=13 ErrMin= 5.40D-07
 ErrMax= 5.40D-07  0.00D+00 EMaxC= 1.00D-01 BMatC= 6.66D-11 BMatP= 1.20D-09
 IDIUse=1 WtCom= 1.00D+00 WtEn= 0.00D+00
 Coeff-Com: -0.951D-05 0.215D-04 0.396D-04-0.647D-04-0.214D-03 0.178D-03
 Coeff-Com:  0.327D-02 0.682D-02-0.165D-01-0.540D-01-0.988D-02 0.164D+00
 Coeff-Com:  0.906D+00
 Coeff:     -0.951D-05 0.215D-04 0.396D-04-0.647D-04-0.214D-03 0.178D-03
 Coeff:      0.327D-02 0.682D-02-0.165D-01-0.540D-01-0.988D-02 0.164D+00
 Coeff:      0.906D+00
 Gap=     0.236 Goal=   None    Shift=    0.000
 RMSDP=8.43D-08 MaxDP=1.99D-06 DE=-2.44D-09 OVMax= 1.01D-05

 Cycle  14  Pass 1  IDiag  1:
 RMSU=  3.70D-08    CP:  9.89D-01  1.32D+00  9.73D-01  9.21D-01  1.46D+00
                    CP:  1.78D+00  1.65D+00  1.63D+00  1.82D+00  1.36D+00
                    CP:  1.41D+00  1.09D+00  1.15D+00
 E= -1028.62732369363     Delta-E=       -0.000000000199 Rises=F Damp=F
 DIIS: error= 1.78D-07 at cycle  14 NSaved=  14.
 NSaved=14 IEnMin=14 EnMin= -1028.62732369363     IErMin=14 ErrMin= 1.78D-07
 ErrMax= 1.78D-07  0.00D+00 EMaxC= 1.00D-01 BMatC= 1.14D-11 BMatP= 6.66D-11
 IDIUse=1 WtCom= 1.00D+00 WtEn= 0.00D+00
 Coeff-Com: -0.149D-04 0.298D-04 0.647D-04 0.582D-04-0.162D-03-0.725D-03
 Coeff-Com:  0.454D-03 0.435D-02 0.239D-02-0.118D-01-0.461D-01-0.203D-01
 Coeff-Com:  0.351D+00 0.721D+00
 Coeff:     -0.149D-04 0.298D-04 0.647D-04 0.582D-04-0.162D-03-0.725D-03
 Coeff:      0.454D-03 0.435D-02 0.239D-02-0.118D-01-0.461D-01-0.203D-01
 Coeff:      0.351D+00 0.721D+00
 Gap=     0.236 Goal=   None    Shift=    0.000
 RMSDP=2.45D-08 MaxDP=5.59D-07 DE=-1.99D-10 OVMax= 2.86D-06

 Cycle  15  Pass 1  IDiag  1:
 RMSU=  1.23D-08    CP:  9.89D-01  1.32D+00  9.73D-01  9.21D-01  1.46D+00
                    CP:  1.78D+00  1.65D+00  1.63D+00  1.82D+00  1.36D+00
                    CP:  1.43D+00  1.12D+00  1.29D+00  1.09D+00
 E= -1028.62732369365     Delta-E=       -0.000000000019 Rises=F Damp=F
 DIIS: error= 7.28D-08 at cycle  15 NSaved=  15.
 NSaved=15 IEnMin=15 EnMin= -1028.62732369365     IErMin=15 ErrMin= 7.28D-08
 ErrMax= 7.28D-08  0.00D+00 EMaxC= 1.00D-01 BMatC= 1.29D-12 BMatP= 1.14D-11
 IDIUse=1 WtCom= 1.00D+00 WtEn= 0.00D+00
 Coeff-Com: -0.212D-05 0.375D-05 0.113D-04 0.313D-04-0.833D-05-0.288D-03
 Coeff-Com: -0.584D-03-0.961D-04 0.457D-02 0.906D-02-0.113D-01-0.468D-01
 Coeff-Com: -0.825D-01 0.163D+00 0.965D+00
 Coeff:     -0.212D-05 0.375D-05 0.113D-04 0.313D-04-0.833D-05-0.288D-03
 Coeff:     -0.584D-03-0.961D-04 0.457D-02 0.906D-02-0.113D-01-0.468D-01
 Coeff:     -0.825D-01 0.163D+00 0.965D+00
 Gap=     0.236 Goal=   None    Shift=    0.000
 RMSDP=1.28D-08 MaxDP=3.21D-07 DE=-1.89D-11 OVMax= 1.48D-06

 Cycle  16  Pass 1  IDiag  1:
 RMSU=  5.35D-09    CP:  9.89D-01  1.32D+00  9.73D-01  9.21D-01  1.46D+00
                    CP:  1.78D+00  1.65D+00  1.63D+00  1.82D+00  1.36D+00
                    CP:  1.43D+00  1.13D+00  1.35D+00  1.28D+00  1.21D+00
 E= -1028.62732369365     Delta-E=       -0.000000000002 Rises=F Damp=F
 DIIS: error= 2.62D-08 at cycle  16 NSaved=  16.
 NSaved=16 IEnMin=16 EnMin= -1028.62732369365     IErMin=16 ErrMin= 2.62D-08
 ErrMax= 2.62D-08  0.00D+00 EMaxC= 1.00D-01 BMatC= 1.55D-13 BMatP= 1.29D-12
 IDIUse=1 WtCom= 1.00D+00 WtEn= 0.00D+00
 Coeff-Com:  0.669D-06-0.147D-05-0.207D-05 0.335D-05 0.792D-05-0.182D-04
 Coeff-Com: -0.198D-03-0.385D-03 0.829D-03 0.328D-02 0.103D-02-0.108D-01
 Coeff-Com: -0.475D-01-0.301D-01 0.260D+00 0.824D+00
 Coeff:      0.669D-06-0.147D-05-0.207D-05 0.335D-05 0.792D-05-0.182D-04
 Coeff:     -0.198D-03-0.385D-03 0.829D-03 0.328D-02 0.103D-02-0.108D-01
 Coeff:     -0.475D-01-0.301D-01 0.260D+00 0.824D+00
 Gap=     0.236 Goal=   None    Shift=    0.000
 RMSDP=3.84D-09 MaxDP=1.22D-07 DE=-2.27D-12 OVMax= 5.29D-07

 Error on total polarization charges =  0.00854
 SCF Done:  E(RwB97XD) =  -1028.62732369     A.U. after   16 cycles
            NFock= 16  Conv=0.38D-08     -V/T= 2.0039
 KE= 1.024598459512D+03 PE=-4.610299947657D+03 EE= 1.457935008593D+03
 Leave Link  502 at Mon Jul 13 20:48:20 2020, MaxMem=  7784628224 cpu:             864.2 elap:              87.1
 (Enter /gpfs/loomis/apps/avx/software/Gaussian/16-C.01_AVX/g16/l801.exe)
 DoSCS=F DFT=T ScalE2(SS,OS)=  1.000000  1.000000
 ExpMin= 1.22D-01 ExpMax= 1.11D+05 ExpMxC= 1.07D+03 IAcc=3 IRadAn=         5 AccDes= 0.00D+00
 HarFok:  IExCor=  205 AccDes= 0.00D+00 IRadAn=         5 IDoV=-2 UseB2=F ITyADJ=14
 ICtDFT= 12500011 ScaDFX=  1.000000  1.000000  1.000000  1.000000
 Largest valence mixing into a core orbital is  9.57D-05
 Largest core mixing into a valence orbital is  3.10D-05
 Range of M.O.s used for correlation:    21   273
 NBasis=   273 NAE=    59 NBE=    59 NFC=    20 NFV=     0
 NROrb=    253 NOA=    39 NOB=    39 NVA=   214 NVB=   214
 Leave Link  801 at Mon Jul 13 20:48:20 2020, MaxMem=  7784628224 cpu:               0.9 elap:               0.1
 (Enter /gpfs/loomis/apps/avx/software/Gaussian/16-C.01_AVX/g16/l914.exe)
 RHF ground state
 Keep R1, R2, and R3 ints in memory in canonical form, NReq=4262515490.
 FoFCou: FMM=F IPFlag=           0 FMFlag=           0 FMFlg1=           0
         NFxFlg=           0 DoJE=F BraDBF=F KetDBF=F FulRan=T
         wScrn=  0.000000 ICntrl=       600 IOpCl=  0 I1Cent=           0 NGrid=           0
         NMat0=    1 NMatS0=  37401 NMatT0=    0 NMatD0=    1 NMtDS0=    0 NMtDT0=    0
 Symmetry not used in FoFCou.
 Two-electron integral symmetry not used.
 MDV=  7784628224 DFT=T DoStab=F Mixed=T DoRPA=T DoScal=F NonHer=T
 NEqPCM:  Using equilibrium solvation (IEInf=0, Eps=   2.2280, EpsInf=   2.1319)
 Making orbital integer symmetry assigments:
    12 initial guesses have been made.
 Convergence on wavefunction:    0.000001000000000
 Davidson Disk Diagonalization:  ConvIn= 1.00D-06 SkipCon=T Conv= 1.00D-06.
 Max sub-space:  2000 roots to seek:    12 dimension of matrix:        16692
 Iteration     1 Dimension    12 NMult     0 NNew     12
 CISAX will form    12 AO SS matrices at one time.
 NMat=    12 NSing=    12 JSym2X= 0.
 New state      2 was old state      3
 New state      3 was old state      4
 Excitation Energies [eV] at current iteration:
 Root      1 :     3.398977455734171
 Root      2 :     3.641314021154008
 Root      3 :     4.844869595653216
 Root      4 :     5.108670169871872
 Root      5 :     5.147820478546434
 Root      6 :     5.690517624563313
 Root      7 :     5.847921556488012
 Root      8 :     6.280052280230483
 Root      9 :     6.465665426730010
 Root     10 :     6.642730232605508
 Root     11 :     6.953589161233979
 Root     12 :     7.177156598169814
 Iteration     2 Dimension    18 NMult    12 NNew      6
 CISAX will form     6 AO SS matrices at one time.
 NMat=     6 NSing=     6 JSym2X= 0.
 Root      1 not converged, maximum delta is    0.043266562442091
 Root      2 not converged, maximum delta is    0.108998490836216
 Root      3 not converged, maximum delta is    0.080987491939264
 Excitation Energies [eV] at current iteration:
 Root      1 :     2.879156494609486   Change is   -0.519820961124685
 Root      2 :     3.431274638339534   Change is   -0.210039382814474
 Root      3 :     4.406443730048436   Change is   -0.438425865604780
 Iteration     3 Dimension    24 NMult    18 NNew      6
 CISAX will form     6 AO SS matrices at one time.
 NMat=     6 NSing=     6 JSym2X= 0.
 Root      1 not converged, maximum delta is    0.016213997900724
 Root      2 not converged, maximum delta is    0.028203439765305
 Root      3 not converged, maximum delta is    0.029285098185971
 Excitation Energies [eV] at current iteration:
 Root      1 :     2.849726923446061   Change is   -0.029429571163425
 Root      2 :     3.410799462895963   Change is   -0.020475175443570
 Root      3 :     4.377124117926551   Change is   -0.029319612121885
 Iteration     4 Dimension    30 NMult    24 NNew      6
 CISAX will form     6 AO SS matrices at one time.
 NMat=     6 NSing=     6 JSym2X= 0.
 Root      1 not converged, maximum delta is    0.008549303481018
 Root      2 not converged, maximum delta is    0.009306569381255
 Root      3 not converged, maximum delta is    0.015868501278186
 Excitation Energies [eV] at current iteration:
 Root      1 :     2.845165757830674   Change is   -0.004561165615386
 Root      2 :     3.408908049711157   Change is   -0.001891413184807
 Root      3 :     4.371298724413365   Change is   -0.005825393513186
 Iteration     5 Dimension    36 NMult    30 NNew      6
 CISAX will form     6 AO SS matrices at one time.
 NMat=     6 NSing=     6 JSym2X= 0.
 Root      1 not converged, maximum delta is    0.001809709040925
 Root      2 not converged, maximum delta is    0.001301213191061
 Root      3 not converged, maximum delta is    0.009071143342069
 Excitation Energies [eV] at current iteration:
 Root      1 :     2.844558766521825   Change is   -0.000606991308849
 Root      2 :     3.408804653396968   Change is   -0.000103396314188
 Root      3 :     4.369938132111157   Change is   -0.001360592302209
 Iteration     6 Dimension    42 NMult    36 NNew      6
 CISAX will form     6 AO SS matrices at one time.
 NMat=     6 NSing=     6 JSym2X= 0.
 Root      1 not converged, maximum delta is    0.000353764150381
 Root      2 not converged, maximum delta is    0.000308787514546
 Root      3 not converged, maximum delta is    0.002270241172176
 Excitation Energies [eV] at current iteration:
 Root      1 :     2.844515980412010   Change is   -0.000042786109816
 Root      2 :     3.408799630469974   Change is   -0.000005022926994
 Root      3 :     4.369755694928884   Change is   -0.000182437182272
 Iteration     7 Dimension    48 NMult    42 NNew      6
 CISAX will form     6 AO SS matrices at one time.
 NMat=     6 NSing=     6 JSym2X= 0.
 Root      1 not converged, maximum delta is    0.000105621473756
 Root      2 not converged, maximum delta is    0.000119007237740
 Root      3 not converged, maximum delta is    0.000543715388042
 Excitation Energies [eV] at current iteration:
 Root      1 :     2.844512586953719   Change is   -0.000003393458291
 Root      2 :     3.408799192898714   Change is   -0.000000437571260
 Root      3 :     4.369735043987941   Change is   -0.000020650940944
 Iteration     8 Dimension    54 NMult    48 NNew      6
 CISAX will form     6 AO SS matrices at one time.
 NMat=     6 NSing=     6 JSym2X= 0.
 Root      1 not converged, maximum delta is    0.000029304392913
 Root      2 not converged, maximum delta is    0.000012807260710
 Root      3 not converged, maximum delta is    0.000226892260770
 Excitation Energies [eV] at current iteration:
 Root      1 :     2.844512441591442   Change is   -0.000000145362277
 Root      2 :     3.408799173003227   Change is   -0.000000019895487
 Root      3 :     4.369732826889640   Change is   -0.000002217098300
 Iteration     9 Dimension    60 NMult    54 NNew      6
 CISAX will form     6 AO SS matrices at one time.
 NMat=     6 NSing=     6 JSym2X= 0.
 Root      1 not converged, maximum delta is    0.000010162724497
 Root      2 not converged, maximum delta is    0.000002057265418
 Root      3 not converged, maximum delta is    0.000058092430819
 Excitation Energies [eV] at current iteration:
 Root      1 :     2.844512430281275   Change is   -0.000000011310167
 Root      2 :     3.408799172192222   Change is   -0.000000000811006
 Root      3 :     4.369732631704192   Change is   -0.000000195185448
 Iteration    10 Dimension    66 NMult    60 NNew      6
 CISAX will form     6 AO SS matrices at one time.
 NMat=     6 NSing=     6 JSym2X= 0.
 Root      1 not converged, maximum delta is    0.000002438801287
 Root      2 not converged, maximum delta is    0.000001191801155
 Root      3 not converged, maximum delta is    0.000029513221872
 Excitation Energies [eV] at current iteration:
 Root      1 :     2.844512429514895   Change is   -0.000000000766380
 Root      2 :     3.408799172136368   Change is   -0.000000000055854
 Root      3 :     4.369732601517251   Change is   -0.000000030186942
 Iteration    11 Dimension    72 NMult    66 NNew      6
 CISAX will form     6 AO SS matrices at one time.
 NMat=     6 NSing=     6 JSym2X= 0.
 Root      1 has converged.
 Root      2 has converged.
 Root      3 not converged, maximum delta is    0.000007505161274
 Excitation Energies [eV] at current iteration:
 Root      1 :     2.844512429464781   Change is   -0.000000000050114
 Root      2 :     3.408799172129326   Change is   -0.000000000007042
 Root      3 :     4.369732598281952   Change is   -0.000000003235299
 Iteration    12 Dimension    74 NMult    72 NNew      2
 CISAX will form     2 AO SS matrices at one time.
 NMat=     2 NSing=     2 JSym2X= 0.
 Root      1 has converged.
 Root      2 has converged.
 Root      3 not converged, maximum delta is    0.000001674188168
 Excitation Energies [eV] at current iteration:
 Root      1 :     2.844512429463597   Change is   -0.000000000001185
 Root      2 :     3.408799172129350   Change is    0.000000000000024
 Root      3 :     4.369732597998121   Change is   -0.000000000283831
 Iteration    13 Dimension    76 NMult    74 NNew      2
 CISAX will form     2 AO SS matrices at one time.
 NMat=     2 NSing=     2 JSym2X= 0.
 Root      1 has converged.
 Root      2 has converged.
 Root      3 has converged.
 Excitation Energies [eV] at current iteration:
 Root      1 :     2.844512429463308   Change is   -0.000000000000289
 Root      2 :     3.408799172129326   Change is   -0.000000000000024
 Root      3 :     4.369732597971764   Change is   -0.000000000026357
 Convergence achieved on expansion vectors.
 ***********************************************************************
 Excited states from <AA,BB:AA,BB> singles matrix:
 ***********************************************************************
 
 1PDM for each excited state written to RWF  633
 Ground to excited state transition densities written to RWF  633
 Ground to excited state transition electric dipole moments (Au):
       state          X           Y           Z        Dip. S.      Osc.
         1         1.1328     -2.2758     -0.0000      6.4624      0.4504
         2        -0.0000      0.0001     -0.0057      0.0000      0.0000
         3        -1.6769      1.0719      0.0000      3.9610      0.4240
 Ground to excited state transition velocity dipole moments (Au):
       state          X           Y           Z        Dip. S.      Osc.
         1        -0.1138      0.2405      0.0000      0.0708      0.4515
         2         0.0000     -0.0000      0.0005      0.0000      0.0000
         3         0.2640     -0.1615     -0.0000      0.0958      0.3977
 Ground to excited state transition magnetic dipole moments (Au):
       state          X           Y           Z
         1         0.0000      0.0000     -1.2056
         2         0.4251     -0.0205      0.0000
         3        -0.0000      0.0000     -0.8819
 Ground to excited state transition velocity quadrupole moments (Au):
       state          XX          YY          ZZ          XY          XZ          YZ
         1        -0.0045      0.6490     -0.0114     -0.2710     -0.0000      0.0000
         2         0.0000     -0.0000      0.0000      0.0000     -0.0048      0.0200
         3        -0.4237      0.4454      0.0033      0.1173     -0.0000      0.0000
 <0|del|b> * <b|rxdel|0> + <0|del|b> * <b|delr+rdel|0>
 Rotatory Strengths (R) in cgs (10**-40 erg-esu-cm/Gauss)
       state          XX          YY          ZZ    R(velocity)    E-M Angle
         1         0.0137     -0.0235      0.0212      0.0038       90.00
         2         0.0004      0.0041      0.0043      0.0029       90.00
         3        -0.0015      0.0017     -0.0069     -0.0022       90.00
 1/2[<0|r|b>*<b|rxdel|0> + (<0|rxdel|b>*<b|r|0>)*]
 Rotatory Strengths (R) in cgs (10**-40 erg-esu-cm/Gauss)
       state          XX          YY          ZZ     R(length)
         1        -0.0126      0.0544     -0.0308      0.0037
         2         0.0080      0.0009      0.0001      0.0030
         3        -0.0044     -0.0067      0.0048     -0.0021
  1/2[<0|del|b>*<b|r|0> + (<0|r|b>*<b|del|0>)*] (Au)
       state          X           Y           Z        Dip. S.   Osc.(frdel)
         1        -0.1289     -0.5474     -0.0000      0.6763      0.4508
         2        -0.0000     -0.0000     -0.0000      0.0000      0.0000
         3        -0.4428     -0.1731     -0.0000      0.6159      0.4106

 Excitation energies and oscillator strengths:
 
 Excited state symmetry could not be determined.
 Excited State   1:      Singlet-?Sym    2.8445 eV  435.87 nm  f=0.4504  <S**2>=0.000
      59 -> 60         0.69964
 This state for optimization and/or second-order correction.
 Total Energy, E(TD-HF/TD-DFT) =  -1028.52278979    
 Copying the excited state density for this state as the 1-particle RhoCI density.
 
 Excited state symmetry could not be determined.
 Excited State   2:      Singlet-?Sym    3.4088 eV  363.72 nm  f=0.0000  <S**2>=0.000
      58 -> 60         0.68418
      58 -> 62         0.11290
      58 -> 64         0.10982
 
 Excited state symmetry could not be determined.
 Excited State   3:      Singlet-?Sym    4.3697 eV  283.73 nm  f=0.4240  <S**2>=0.000
      57 -> 60         0.68376
 SavETr:  write IOETrn=   770 NScale= 10 NData=  16 NLR=1 NState=    3 LETran=      64.
 The selected state is a singlet.
 CISGrd: IGrad=2 NXY=2 DFT=T
 CISAX will form     1 AO SS matrices at one time.
 NMat=     1 NSing=     1 JSym2X= 0.
 GePol: Maximum number of non-zero 1st derivatives   =     267
 Leave Link  914 at Mon Jul 13 20:51:18 2020, MaxMem=  7784628224 cpu:            1747.3 elap:             177.5
 (Enter /gpfs/loomis/apps/avx/software/Gaussian/16-C.01_AVX/g16/l1002.exe)
 Minotr:  Closed shell wavefunction.
          Computing CIS/TDA/TD derivatives.
          Using Z-Vector for PSCF gradient.
          Skipping F1 and S1 gradient terms here.
          IDoAtm=1111111111111111111111111
 NEqPCM:  Using equilibrium solvation (IEInf=0, Eps=   2.2280, EpsInf=   2.1319)
          Frozen-core window.
          Direct CPHF calculation.
          Differentiating once with respect to electric field.
                with respect to dipole field.
          Differentiating once with respect to nuclear coordinates.
          Requested convergence is 1.0D-10 RMS, and 1.0D-09 maximum.
          NewPWx=F KeepS1=T KeepF1=T KeepIn=T MapXYZ=F SortEE=F KeepMc=T.
 Keep R1 ints in memory in canonical form, NReq=1421527029.
 FoFCou: FMM=F IPFlag=           0 FMFlag=           0 FMFlg1=           0
         NFxFlg=           0 DoJE=F BraDBF=F KetDBF=F FulRan=T
         wScrn=  0.000000 ICntrl=       600 IOpCl=  0 I1Cent=           0 NGrid=           0
         NMat0=    1 NMatS0=  37401 NMatT0=    0 NMatD0=    1 NMtDS0=    0 NMtDT0=    0
 Symmetry not used in FoFCou.
 Two-electron integral symmetry not used.
          MDV=    7784628224 using IRadAn=       5.
          Solving linear equations separately, MaxMat=       0.
          There are     1 degrees of freedom in the 1st order CPHF.  IDoFFX=0 NUNeed=     1.
 LinEq1:  Iter=  0 NonCon=     1 RMS=6.93D-03 Max=5.66D-01 NDo=     1
 AX will form     1 AO Fock derivatives at one time.
 LinEq1:  Iter=  1 NonCon=     1 RMS=3.20D-03 Max=1.76D-01 NDo=     1
 LinEq1:  Iter=  2 NonCon=     1 RMS=1.61D-03 Max=4.07D-02 NDo=     1
 LinEq1:  Iter=  3 NonCon=     1 RMS=7.61D-04 Max=2.13D-02 NDo=     1
 LinEq1:  Iter=  4 NonCon=     1 RMS=4.60D-04 Max=1.41D-02 NDo=     1
 LinEq1:  Iter=  5 NonCon=     1 RMS=2.23D-04 Max=8.07D-03 NDo=     1
 LinEq1:  Iter=  6 NonCon=     1 RMS=9.14D-05 Max=4.50D-03 NDo=     1
 LinEq1:  Iter=  7 NonCon=     1 RMS=4.78D-05 Max=1.62D-03 NDo=     1
 LinEq1:  Iter=  8 NonCon=     1 RMS=1.83D-05 Max=6.06D-04 NDo=     1
 LinEq1:  Iter=  9 NonCon=     1 RMS=8.31D-06 Max=1.95D-04 NDo=     1
 LinEq1:  Iter= 10 NonCon=     1 RMS=3.25D-06 Max=8.93D-05 NDo=     1
 LinEq1:  Iter= 11 NonCon=     1 RMS=1.61D-06 Max=5.52D-05 NDo=     1
 LinEq1:  Iter= 12 NonCon=     1 RMS=7.40D-07 Max=2.24D-05 NDo=     1
 LinEq1:  Iter= 13 NonCon=     1 RMS=3.66D-07 Max=1.18D-05 NDo=     1
 LinEq1:  Iter= 14 NonCon=     1 RMS=1.18D-07 Max=2.59D-06 NDo=     1
 LinEq1:  Iter= 15 NonCon=     1 RMS=6.18D-08 Max=1.76D-06 NDo=     1
 LinEq1:  Iter= 16 NonCon=     1 RMS=2.61D-08 Max=7.13D-07 NDo=     1
 LinEq1:  Iter= 17 NonCon=     1 RMS=1.26D-08 Max=3.88D-07 NDo=     1
 LinEq1:  Iter= 18 NonCon=     1 RMS=5.39D-09 Max=1.25D-07 NDo=     1
 LinEq1:  Iter= 19 NonCon=     1 RMS=2.14D-09 Max=5.59D-08 NDo=     1
 LinEq1:  Iter= 20 NonCon=     1 RMS=1.09D-09 Max=2.85D-08 NDo=     1
 LinEq1:  Iter= 21 NonCon=     1 RMS=3.67D-10 Max=1.08D-08 NDo=     1
 LinEq1:  Iter= 22 NonCon=     1 RMS=1.61D-10 Max=4.70D-09 NDo=     1
 LinEq1:  Iter= 23 NonCon=     1 RMS=6.90D-11 Max=1.88D-09 NDo=     1
 LinEq1:  Iter= 24 NonCon=     0 RMS=1.86D-11 Max=4.37D-10 NDo=     1
 Linear equations converged to 1.000D-10 1.000D-09 after    24 iterations.
 End of Minotr F.D. properties file   721 does not exist.
 End of Minotr F.D. properties file   722 does not exist.
 End of Minotr F.D. properties file   788 does not exist.
 Leave Link 1002 at Mon Jul 13 20:52:55 2020, MaxMem=  7784628224 cpu:             734.4 elap:              97.6
 (Enter /gpfs/loomis/apps/avx/software/Gaussian/16-C.01_AVX/g16/l601.exe)
 Copying SCF densities to generalized density rwf, IOpCl= 0 IROHF=0.

 **********************************************************************

            Population analysis using the SCF Density.

 **********************************************************************

 Alpha  occ. eigenvalues --  -89.11109 -19.20484 -14.50378 -10.42293 -10.37514
 Alpha  occ. eigenvalues --  -10.36642 -10.35607 -10.33670 -10.33000 -10.32707
 Alpha  occ. eigenvalues --  -10.32537 -10.31396 -10.31020 -10.30565 -10.29169
 Alpha  occ. eigenvalues --  -10.28166  -8.13026  -6.07919  -6.07543  -6.07028
 Alpha  occ. eigenvalues --   -1.15858  -1.09402  -0.99348  -0.96216  -0.93569
 Alpha  occ. eigenvalues --   -0.89181  -0.87295  -0.84000  -0.81169  -0.78638
 Alpha  occ. eigenvalues --   -0.75791  -0.72218  -0.69657  -0.67578  -0.65585
 Alpha  occ. eigenvalues --   -0.60805  -0.59799  -0.56938  -0.56378  -0.56214
 Alpha  occ. eigenvalues --   -0.55034  -0.53591  -0.53159  -0.50698  -0.49492
 Alpha  occ. eigenvalues --   -0.48766  -0.48466  -0.46963  -0.45549  -0.44906
 Alpha  occ. eigenvalues --   -0.44255  -0.42912  -0.42509  -0.40087  -0.36837
 Alpha  occ. eigenvalues --   -0.33922  -0.31700  -0.31128  -0.25606
 Alpha virt. eigenvalues --   -0.02055   0.03467   0.05543   0.05723   0.09553
 Alpha virt. eigenvalues --    0.10515   0.12734   0.14525   0.16268   0.17375
 Alpha virt. eigenvalues --    0.19053   0.20096   0.21125   0.21241   0.23088
 Alpha virt. eigenvalues --    0.23613   0.23976   0.25663   0.28568   0.30078
 Alpha virt. eigenvalues --    0.30589   0.33717   0.35615   0.35897   0.36664
 Alpha virt. eigenvalues --    0.38375   0.38989   0.39965   0.41958   0.45032
 Alpha virt. eigenvalues --    0.46669   0.49097   0.50447   0.50949   0.51259
 Alpha virt. eigenvalues --    0.52720   0.52811   0.52923   0.53790   0.55579
 Alpha virt. eigenvalues --    0.56218   0.56288   0.56363   0.57006   0.57494
 Alpha virt. eigenvalues --    0.57758   0.59154   0.59418   0.59693   0.60553
 Alpha virt. eigenvalues --    0.61414   0.61698   0.62310   0.62395   0.64015
 Alpha virt. eigenvalues --    0.64490   0.66814   0.67118   0.68637   0.69701
 Alpha virt. eigenvalues --    0.70008   0.70536   0.71939   0.71984   0.72815
 Alpha virt. eigenvalues --    0.74325   0.75127   0.76158   0.76197   0.78972
 Alpha virt. eigenvalues --    0.79134   0.79189   0.81176   0.81860   0.83004
 Alpha virt. eigenvalues --    0.86071   0.87520   0.91239   0.91437   0.92446
 Alpha virt. eigenvalues --    0.93581   0.94534   0.96224   0.97395   0.97687
 Alpha virt. eigenvalues --    0.99521   0.99655   1.00421   1.00523   1.01065
 Alpha virt. eigenvalues --    1.02528   1.04965   1.05734   1.06388   1.07116
 Alpha virt. eigenvalues --    1.08495   1.08862   1.10238   1.11284   1.11397
 Alpha virt. eigenvalues --    1.11734   1.12807   1.13792   1.14315   1.16128
 Alpha virt. eigenvalues --    1.17389   1.18272   1.20361   1.23805   1.24075
 Alpha virt. eigenvalues --    1.26507   1.27619   1.31072   1.32227   1.33837
 Alpha virt. eigenvalues --    1.34744   1.35969   1.38324   1.41578   1.44449
 Alpha virt. eigenvalues --    1.49341   1.49404   1.53119   1.54792   1.54852
 Alpha virt. eigenvalues --    1.55937   1.57200   1.57350   1.57631   1.59931
 Alpha virt. eigenvalues --    1.60028   1.62032   1.63202   1.64885   1.67705
 Alpha virt. eigenvalues --    1.68466   1.69992   1.70816   1.71730   1.71869
 Alpha virt. eigenvalues --    1.72334   1.73359   1.73761   1.75005   1.76296
 Alpha virt. eigenvalues --    1.77890   1.78813   1.80273   1.81635   1.82334
 Alpha virt. eigenvalues --    1.83816   1.84373   1.84858   1.85467   1.86296
 Alpha virt. eigenvalues --    1.86898   1.90173   1.91094   1.92381   1.92596
 Alpha virt. eigenvalues --    1.92784   1.94444   1.95287   1.96645   1.98331
 Alpha virt. eigenvalues --    2.00431   2.01795   2.02178   2.05109   2.06630
 Alpha virt. eigenvalues --    2.06911   2.07827   2.09609   2.10583   2.13420
 Alpha virt. eigenvalues --    2.17918   2.22893   2.23121   2.24153   2.27245
 Alpha virt. eigenvalues --    2.29233   2.29886   2.34462   2.37459   2.40066
 Alpha virt. eigenvalues --    2.40730   2.43314   2.46475   2.48734   2.50525
 Alpha virt. eigenvalues --    2.52468   2.53415   2.61759   2.64712   2.65889
 Alpha virt. eigenvalues --    2.69312   2.72448   2.74142   2.79098   2.80638
 Alpha virt. eigenvalues --    2.81226   2.82401   2.82843   2.88757   2.94100
 Alpha virt. eigenvalues --    2.94793   3.05303   3.17792   3.34310   3.49232
 Alpha virt. eigenvalues --    3.53291   3.58418   3.69164   4.48009
          Condensed to atoms (all electrons):
               1          2          3          4          5          6
     1  C    4.738209   0.473695   0.013017  -0.050983  -0.011498   0.511291
     2  C    0.473695   5.417051   0.263622  -0.076080  -0.071162  -0.004304
     3  C    0.013017   0.263622   4.885708   0.516225  -0.004463  -0.068949
     4  C   -0.050983  -0.076080   0.516225   4.819325   0.516931  -0.017210
     5  C   -0.011498  -0.071162  -0.004463   0.516931   4.721458   0.502601
     6  C    0.511291  -0.004304  -0.068949  -0.017210   0.502601   4.735788
     7  H    0.405163  -0.041621   0.009126  -0.000492   0.008067  -0.037609
     8  H   -0.000571   0.010396  -0.022218   0.393562  -0.040552   0.007201
     9  H    0.008297  -0.000167   0.008005  -0.038233   0.405521  -0.042906
    10  H   -0.042470   0.009610  -0.000633   0.008811  -0.042757   0.407655
    11  N    0.003896  -0.046880   0.436255  -0.045260   0.003042   0.000347
    12  S   -0.063242   0.340773  -0.138714   0.002489   0.000134   0.004011
    13  C   -0.000203   0.000425   0.013532  -0.000118   0.000017  -0.000003
    14  C   -0.000004  -0.000008   0.000297   0.000008  -0.000000  -0.000000
    15  C    0.000002  -0.000203   0.000977  -0.000006  -0.000001   0.000000
    16  C    0.000000  -0.000001   0.000004   0.000000   0.000000   0.000000
    17  H   -0.000002   0.000059  -0.000007  -0.000000   0.000000  -0.000000
    18  C    0.000000   0.000011  -0.000052  -0.000002  -0.000000   0.000000
    19  C   -0.000000  -0.000000   0.000003  -0.000000   0.000000   0.000000
    20  H   -0.000000  -0.000000  -0.000000   0.000000   0.000000  -0.000000
    21  H   -0.000000   0.000000  -0.000001  -0.000000  -0.000000  -0.000000
    22  H    0.000000  -0.000000  -0.000000  -0.000000   0.000000  -0.000000
    23  C    0.003645  -0.058700  -0.089633   0.007883   0.000393  -0.000404
    24  O    0.000002  -0.000241  -0.001867   0.000170   0.000000  -0.000000
    25  H    0.000192   0.023219   0.000773  -0.032635  -0.000818  -0.000010
               7          8          9         10         11         12
     1  C    0.405163  -0.000571   0.008297  -0.042470   0.003896  -0.063242
     2  C   -0.041621   0.010396  -0.000167   0.009610  -0.046880   0.340773
     3  C    0.009126  -0.022218   0.008005  -0.000633   0.436255  -0.138714
     4  C   -0.000492   0.393562  -0.038233   0.008811  -0.045260   0.002489
     5  C    0.008067  -0.040552   0.405521  -0.042757   0.003042   0.000134
     6  C   -0.037609   0.007201  -0.042906   0.407655   0.000347   0.004011
     7  H    0.647267   0.000028  -0.000136  -0.011785  -0.000108  -0.006485
     8  H    0.000028   0.634188  -0.011182  -0.000121  -0.006818  -0.000255
     9  H   -0.000136  -0.011182   0.653948  -0.012134  -0.000096   0.000023
    10  H   -0.011785  -0.000121  -0.012134   0.656023   0.000004  -0.000121
    11  N   -0.000108  -0.006818  -0.000096   0.000004   5.642920  -0.040323
    12  S   -0.006485  -0.000255   0.000023  -0.000121  -0.040323  15.438224
    13  C    0.000006   0.000073  -0.000000  -0.000000  -0.025967  -0.067088
    14  C    0.000000   0.000001   0.000000  -0.000000   0.003441  -0.004801
    15  C   -0.000000  -0.000016   0.000000   0.000000  -0.004325   0.003494
    16  C   -0.000000  -0.000000  -0.000000  -0.000000  -0.000086  -0.000032
    17  H    0.000001   0.000000   0.000000  -0.000000   0.000259   0.005181
    18  C    0.000000  -0.000001  -0.000000  -0.000000  -0.000743  -0.000065
    19  C    0.000000   0.000000   0.000000   0.000000   0.000029   0.000012
    20  H    0.000000  -0.000000   0.000000   0.000000   0.000001  -0.000001
    21  H   -0.000000   0.000000  -0.000000   0.000000   0.000002   0.000003
    22  H    0.000000  -0.000000  -0.000000  -0.000000  -0.000000  -0.000000
    23  C    0.000168  -0.000636   0.000006   0.000003   0.490680   0.301044
    24  O    0.000000  -0.000212  -0.000000  -0.000000  -0.020662  -0.000104
    25  H    0.000010   0.001068  -0.000024   0.000000   0.356993   0.008849
              13         14         15         16         17         18
     1  C   -0.000203  -0.000004   0.000002   0.000000  -0.000002   0.000000
     2  C    0.000425  -0.000008  -0.000203  -0.000001   0.000059   0.000011
     3  C    0.013532   0.000297   0.000977   0.000004  -0.000007  -0.000052
     4  C   -0.000118   0.000008  -0.000006   0.000000  -0.000000  -0.000002
     5  C    0.000017  -0.000000  -0.000001   0.000000   0.000000  -0.000000
     6  C   -0.000003  -0.000000   0.000000   0.000000  -0.000000   0.000000
     7  H    0.000006   0.000000  -0.000000  -0.000000   0.000001   0.000000
     8  H    0.000073   0.000001  -0.000016  -0.000000   0.000000  -0.000001
     9  H   -0.000000   0.000000   0.000000  -0.000000   0.000000  -0.000000
    10  H   -0.000000  -0.000000   0.000000  -0.000000  -0.000000  -0.000000
    11  N   -0.025967   0.003441  -0.004325  -0.000086   0.000259  -0.000743
    12  S   -0.067088  -0.004801   0.003494  -0.000032   0.005181  -0.000065
    13  C    5.523077   0.423561   0.170767  -0.003864  -0.044202  -0.039741
    14  C    0.423561   4.858937   0.016058   0.536186   0.401882  -0.066374
    15  C    0.170767   0.016058   4.713522  -0.057083   0.006523   0.454379
    16  C   -0.003864   0.536186  -0.057083   4.779876  -0.033552  -0.016043
    17  H   -0.044202   0.401882   0.006523  -0.033552   0.687000  -0.001099
    18  C   -0.039741  -0.066374   0.454379  -0.016043  -0.001099   4.930908
    19  C   -0.050902  -0.015148  -0.005043   0.469349   0.008632   0.483746
    20  H    0.009223  -0.036850  -0.000187   0.399965  -0.012348   0.008452
    21  H    0.015691  -0.000634  -0.023098   0.007721   0.000055   0.370387
    22  H   -0.001593   0.009416   0.008526  -0.047052  -0.000196  -0.038357
    23  C    0.336837  -0.102270  -0.074032   0.006611  -0.019815   0.012357
    24  O   -0.095707   0.006233   0.683577  -0.000222  -0.000074  -0.071273
    25  H   -0.054039  -0.000737  -0.005255   0.000064  -0.000083   0.004112
              19         20         21         22         23         24
     1  C   -0.000000  -0.000000  -0.000000   0.000000   0.003645   0.000002
     2  C   -0.000000  -0.000000   0.000000  -0.000000  -0.058700  -0.000241
     3  C    0.000003  -0.000000  -0.000001  -0.000000  -0.089633  -0.001867
     4  C   -0.000000   0.000000  -0.000000  -0.000000   0.007883   0.000170
     5  C    0.000000   0.000000  -0.000000   0.000000   0.000393   0.000000
     6  C    0.000000  -0.000000  -0.000000  -0.000000  -0.000404  -0.000000
     7  H    0.000000   0.000000  -0.000000   0.000000   0.000168   0.000000
     8  H    0.000000  -0.000000   0.000000  -0.000000  -0.000636  -0.000212
     9  H    0.000000   0.000000  -0.000000  -0.000000   0.000006  -0.000000
    10  H    0.000000   0.000000   0.000000  -0.000000   0.000003  -0.000000
    11  N    0.000029   0.000001   0.000002  -0.000000   0.490680  -0.020662
    12  S    0.000012  -0.000001   0.000003  -0.000000   0.301044  -0.000104
    13  C   -0.050902   0.009223   0.015691  -0.001593   0.336837  -0.095707
    14  C   -0.015148  -0.036850  -0.000634   0.009416  -0.102270   0.006233
    15  C   -0.005043  -0.000187  -0.023098   0.008526  -0.074032   0.683577
    16  C    0.469349   0.399965   0.007721  -0.047052   0.006611  -0.000222
    17  H    0.008632  -0.012348   0.000055  -0.000196  -0.019815  -0.000074
    18  C    0.483746   0.008452   0.370387  -0.038357   0.012357  -0.071273
    19  C    4.762742  -0.047734  -0.048167   0.402364  -0.000084   0.005504
    20  H   -0.047734   0.690949  -0.000182  -0.012646  -0.000366   0.000000
    21  H   -0.048167  -0.000182   0.684961  -0.012760  -0.000476   0.006359
    22  H    0.402364  -0.012646  -0.012760   0.679455   0.000015  -0.000090
    23  C   -0.000084  -0.000366  -0.000476   0.000015   5.166544  -0.018841
    24  O    0.005504   0.000000   0.006359  -0.000090  -0.018841   7.820637
    25  H   -0.000354  -0.000000   0.000004   0.000005  -0.002102   0.068804
              25
     1  C    0.000192
     2  C    0.023219
     3  C    0.000773
     4  C   -0.032635
     5  C   -0.000818
     6  C   -0.000010
     7  H    0.000010
     8  H    0.001068
     9  H   -0.000024
    10  H    0.000000
    11  N    0.356993
    12  S    0.008849
    13  C   -0.054039
[...]
 683,-0.00102369,0.00041450,-0.00066958,-0.00228025,-0.01140002,0.00123
 426,-0.04584736,-0.11070405,-0.09644102,-0.00182005,-0.00055749,0.0072
 7390,-0.00283551,-0.00121712,0.00223357,0.05350644,0.12067920,0.089891
 85,0.00128094,-0.00032112,0.00111553,-0.00336543,-0.00107156,0.0017221
 6,-0.00306938,0.00372795,-0.00454839,0.00233288,-0.00066934,-0.0004021
 8,-0.00025485,0.00185210,-0.00035555,-0.00105011,-0.00100488,0.0002981
 3,-0.00000248,0.00008225,0.00002758,-0.00001605,-0.00006104,-0.0001259
 5,0.00003618,0.00006427,0.00006306,-0.00001671,-0.00009600,-0.00016915
 ,-0.00246188,-0.00487205,0.00287978,0.00396257,-0.00001182,0.00468639,
 0.03266291,0.01398544,0.01564025,-0.04459289,0.02842020,-0.00683602,-0
 .11820012,0.05713637,0.01954425,-0.01304845,-0.08228059,-0.03650666,-0
 .00100085,0.00032932,0.00013980,0.66575432,-0.00084124,0.00040467,-0.0
 0049145,0.00190368,0.00035166,-0.00072570,0.00117931,-0.00115196,0.002
 00762,-0.00111833,0.00030721,0.00019285,0.00012702,-0.00110280,0.00026
 948,0.00084029,0.00045962,-0.00019226,-0.00001213,-0.00004827,-0.00000
 238,0.00001694,0.00003362,0.00004405,0.00000997,-0.00003703,-0.0000149
 3,0.00001893,0.00003171,0.00006078,0.00464734,0.00368809,-0.00261390,-
 0.00271373,-0.00036177,-0.00285637,0.00860183,-0.03180171,-0.00973437,
 0.01099710,-0.01106052,0.00268864,0.06275430,-0.22678865,-0.03995017,-
 0.03005244,0.01598206,-0.00377863,0.00009062,0.00053586,0.00067907,0.0
 1307429,0.61652361,0.00024948,0.00016576,0.00012054,0.00025644,0.00050
 658,-0.00014924,0.00120674,-0.00160601,0.00081676,-0.00069537,0.000031
 56,-0.00005533,0.00013326,-0.00024524,0.00009824,-0.00006031,0.0001411
 2,-0.00010721,-0.00000416,0.00001265,0.00000459,0.00001825,0.00001474,
 0.00001158,-0.00000796,0.00000157,0.00000081,0.00001422,-0.00001201,-0
 .00003023,-0.00169286,0.00442084,0.00071636,0.00017786,-0.00142221,0.0
 0174700,0.00925397,-0.01384536,0.01006100,-0.00835632,0.00710004,-0.00
 381545,0.02027832,-0.04153571,-0.07798110,-0.01537508,-0.01940246,-0.0
 0458297,0.00030501,0.00073935,-0.00051110,0.14959202,0.18749707,0.2314
 2891,-0.00167384,0.00073874,-0.00127157,0.00416111,0.00063345,-0.00216
 021,0.00361189,-0.00382437,0.00443175,-0.00276731,0.00084001,0.0005619
 6,0.00023556,-0.00250076,0.00061615,0.00172378,0.00112056,-0.00042964,
 -0.00002344,-0.00009999,-0.00004787,0.00002256,0.00006691,0.00008545,-
 0.00001401,-0.00008770,-0.00007862,0.00003658,0.00010981,0.00018849,0.
 00449223,0.00751745,-0.00175230,-0.00439009,0.00050823,-0.00484604,-0.
 02855871,-0.01715727,-0.01473809,0.06596663,-0.01626424,0.01706217,-0.
 05339776,0.03827697,-0.01467078,-0.14638541,-0.00245089,-0.02170053,-0
 .00145958,0.00465466,-0.00066957,-0.33973790,-0.03845130,-0.08810857,0
 .66823159,-0.00142693,0.00119499,-0.00077816,0.00294266,-0.00001371,-0
 .00076291,0.00195329,-0.00100600,0.00236606,-0.00188563,0.00049212,0.0
 0035395,0.00025530,-0.00211139,0.00064222,0.00188691,0.00068531,-0.000
 49046,-0.00004876,-0.00004758,0.00002466,0.00004230,0.00005633,0.00002
 778,0.00004858,-0.00008599,-0.00003870,0.00007196,0.00002698,0.0000474
 3,0.00945706,0.00816358,-0.00392857,-0.00363171,-0.00156121,-0.0008959
 2,-0.02393283,-0.01149133,-0.01093208,0.03802047,-0.05362497,-0.008133
 74,0.00356354,0.03009300,0.00130183,-0.08744687,-0.26780164,-0.0958495
 1,0.00389130,-0.00155825,-0.00146074,0.02676138,-0.11911842,-0.0151150
 2,-0.09230203,0.64939505,-0.00103806,0.00068786,-0.00059228,0.00239022
 ,0.00003609,-0.00086562,0.00125081,-0.00102907,0.00149280,-0.00135524,
 0.00041342,0.00032653,0.00008074,-0.00146768,0.00045472,0.00124905,0.0
 0049721,-0.00028433,-0.00002485,-0.00005691,-0.00001189,0.00000251,0.0
 0002282,0.00000171,0.00002141,-0.00005363,-0.00002845,0.00002889,0.000
 03938,0.00006567,0.00534190,0.00408218,-0.00268197,-0.00279377,0.00002
 140,-0.00184431,-0.01602698,-0.00947722,-0.01094509,0.02950128,-0.0260
 9079,0.00870318,-0.01305899,0.02512820,0.00175750,-0.05422411,-0.07550
 530,-0.10218130,-0.00059241,-0.00125361,0.00461894,-0.06429875,-0.0353
 4135,-0.08495059,0.10722561,0.16783989,0.21663830,-0.00001932,-0.00002
 835,0.00000030,0.00006710,0.00011801,-0.00005642,-0.00003440,-0.000136
 80,0.00002084,-0.00003427,0.00003228,-0.00001508,-0.00001233,0.0000017
 0,0.00000885,-0.00002857,0.00001753,0.00000476,0.00000180,0.00000017,-
 0.00000780,-0.00000204,-0.00000666,-0.00000306,-0.00000775,0.00000448,
 0.00000137,-0.00000805,0.00000589,0.00000209,0.00005110,0.00044108,-0.
 00030028,-0.00019315,0.00000171,-0.00008735,0.00126197,0.00290706,0.00
 030938,-0.01289411,-0.00506616,-0.00675405,0.00046759,0.00029486,0.000
 47847,-0.32279622,-0.01954084,-0.08182583,0.00054453,-0.00019455,0.000
 77624,0.00152830,-0.00147155,-0.00182925,-0.00527991,0.00325577,-0.001
 58273,0.33841837,-0.00005760,0.00006613,-0.00003462,0.00016147,-0.0000
 7089,-0.00000876,0.00005330,0.00000570,-0.00009925,-0.00006295,-0.0000
 2435,-0.00000847,0.00001026,-0.00008314,0.00004440,0.00009816,0.000008
 42,-0.00001974,-0.00000207,-0.00000593,0.00000277,-0.00000101,0.000003
 12,-0.00000488,0.00000839,-0.00000349,0.00000559,0.00000547,-0.0000012
 8,0.00000114,0.00058343,-0.00006091,-0.00022537,-0.00013017,-0.0000829
 4,-0.00003351,0.00388489,-0.00367191,-0.00237131,0.02342804,0.00612796
 ,0.00660840,0.00049093,-0.00093602,0.00032632,-0.01971240,-0.05828758,
 -0.01335164,-0.00066555,0.00036868,0.00123145,-0.00123754,-0.00380396,
 -0.00404509,-0.02547812,0.00393167,-0.00708022,0.02019355,0.05549601,0
 .00010973,-0.00009633,0.00008225,-0.00034320,-0.00001784,0.00008669,0.
 00000305,0.00026263,0.00013931,0.00018424,-0.00003234,0.00001220,0.000
 00492,0.00017552,-0.00010004,-0.00015647,-0.00004538,0.00003825,0.0000
 0241,0.00001046,0.00000270,0.00000582,0.00000120,0.00001156,-0.0000062
 6,0.00000050,-0.00000786,-0.00000454,-0.00000486,-0.00000816,-0.000422
 56,-0.00046206,0.00087275,0.00031425,-0.00007796,0.00003611,-0.0016775
 2,-0.00123990,0.00441411,0.00382964,-0.00054403,0.00613158,0.00006864,
 -0.00060400,-0.00128818,-0.08141074,-0.01396295,-0.06281548,0.00070973
 ,0.00129467,-0.00251546,-0.00068676,-0.00359182,0.00464708,-0.01217251
 ,-0.00048881,0.00247850,0.08956102,0.01695348,0.05251650,-0.00001255,0
 .00001472,0.00000803,0.00005677,0.00007251,-0.00001500,0.00003274,-0.0
 0007904,-0.00003829,-0.00002913,0.00001178,0.00001005,-0.00000654,-0.0
 0002068,0.00001467,0.00000972,0.00000951,-0.00001286,0.00000112,0.0000
 0002,0.00000068,-0.00000354,-0.00000167,-0.00000229,-0.00000125,0.0000
 0070,-0.00000057,-0.00000193,-0.00000026,-0.00000129,-0.00003700,0.000
 00867,-0.00011428,-0.00005427,0.00002919,0.00026385,-0.00254530,0.0029
 5138,-0.00096015,-0.00005135,0.00030694,0.00006375,0.01024841,0.016987
 00,0.00913280,-0.00495796,0.00189782,-0.00265713,0.00006198,-0.0001307
 1,0.00010750,-0.09042458,-0.08258203,-0.04876630,-0.00415283,-0.025616
 78,-0.01259927,-0.00041486,-0.00130406,-0.00038223,0.08991425,-0.00015
 106,0.00019353,-0.00002684,0.00040778,-0.00007540,-0.00006798,0.000265
 29,-0.00014921,0.00018143,-0.00024510,0.00005595,0.00004915,0.00002284
 ,-0.00027611,0.00010561,0.00026210,0.00006775,-0.00007153,-0.00000771,
 -0.00000906,0.00000435,0.00000529,0.00000803,-0.00000773,0.00001256,-0
 .00001141,-0.00000417,0.00000994,-0.00000512,-0.00000625,0.00084367,0.
 00078750,-0.00011495,-0.00030097,-0.00025217,-0.00008211,0.00389624,-0
 .00383707,-0.00124393,0.00033306,0.00027187,0.00068879,-0.00983147,-0.
 01397666,-0.01142092,0.00096988,0.00258581,-0.00184341,-0.00007580,-0.
 00008105,0.00017911,-0.08351600,-0.25677308,-0.10869764,0.00247599,0.0
 0330772,-0.00095575,0.00005987,-0.00005426,0.00032173,0.08910486,0.266
 70992,0.00019395,-0.00021074,-0.00000506,-0.00068284,-0.00010417,0.000
 11473,-0.00036722,0.00042018,-0.00025206,0.00036109,-0.00010532,-0.000
 07066,-0.00000277,0.00033445,-0.00013450,-0.00026304,-0.00010322,0.000
 09192,0.00000252,0.00001015,-0.00000111,0.00000581,-0.00000135,0.00001
 062,-0.00000240,0.00000808,0.00000493,0.00000200,0.00000147,0.00001059
 ,-0.00100699,-0.00105359,0.00047314,0.00057028,0.00027156,-0.00013778,
 0.00005539,0.00137732,0.00479966,-0.00013610,0.00056237,-0.00066676,-0
 .00953269,-0.00348925,0.00105011,-0.00283672,-0.00277821,0.00534351,0.
 00006606,0.00011619,-0.00057309,-0.04800594,-0.11259006,-0.09297552,0.
 00122895,-0.00624605,0.00242830,-0.00005377,-0.00026255,-0.00035608,0.
 05437664,0.12007875,0.08588767,-0.00000926,-0.00000717,-0.00000160,0.0
 0003635,0.00005318,-0.00003504,0.00005506,-0.00003858,0.00003481,-0.00
 002065,0.00000860,-0.00000358,-0.00000206,-0.00000499,0.00000013,-0.00
 000922,0.00000721,0.00000293,0.00000026,0.00000099,-0.00000400,0.00000
 101,-0.00000361,-0.00000102,-0.00000454,0.00000170,0.00000066,-0.00000
 375,0.00000367,0.00000066,0.00024893,0.00037246,-0.00005930,-0.0001237
 8,-0.00001229,-0.00005430,-0.00043167,-0.00043482,-0.00027593,0.000526
 01,-0.00195173,-0.00215179,-0.00231012,-0.00300859,-0.00307634,0.00978
 516,-0.01047343,-0.00219217,0.00037485,-0.00043593,-0.00008562,-0.0129
 9428,0.02551492,0.00459060,-0.16793762,0.14063455,0.01756711,0.0003824
 6,-0.00003918,0.00116876,0.00074683,-0.00071236,0.00092966,0.17376705,
 0.00001878,0.00000254,-0.00002312,-0.00000766,0.00000219,-0.00001999,0
 .00005196,-0.00009338,0.00002715,-0.00003516,0.00000192,0.00000837,0.0
 0000516,-0.00002050,0.00000421,0.00000604,0.00000651,-0.00000132,-0.00
 000126,-0.00000238,0.00000033,0.00000010,0.00000305,0.00000027,0.00000
 270,-0.00000127,-0.00000127,0.00000477,-0.00000048,0.00000419,-0.00044
 733,-0.00012530,0.00005468,0.00005468,0.00009570,-0.00000211,-0.001298
 75,0.00044428,0.00011437,-0.00218911,-0.00253588,-0.00376848,-0.000732
 52,0.00166575,-0.00247077,0.01873408,-0.01403737,-0.00159285,0.0009000
 3,-0.00083274,-0.00020640,-0.00430511,0.00533769,-0.00074994,0.1397952
 5,-0.22881254,-0.03442412,-0.00050802,0.00040862,0.00151934,-0.0002382
 9,-0.00000833,0.00155286,-0.15052402,0.23831691,-0.00007583,0.00004737
 ,-0.00003829,0.00008392,-0.00007630,0.00000446,0.00001643,0.00011405,0
 .00000447,-0.00002283,0.00001337,0.00002268,0.00000476,-0.00007800,0.0
 0002440,0.00009722,0.00001478,-0.00001720,-0.00000260,-0.00000283,0.00
 000280,0.00000147,0.00000364,0.00000020,0.00000534,-0.00000474,-0.0000
 0130,0.00000373,0.00000057,0.00000329,0.00062188,-0.00014318,-0.000087
 35,-0.00010684,0.00007991,-0.00025305,-0.00007039,0.00031522,-0.000845
 19,-0.00200258,-0.00418317,0.00446035,-0.00419684,-0.00289372,0.006106
 92,0.00858868,-0.00867796,0.00234897,0.00028268,-0.00061408,0.00010025
 ,-0.00475317,0.00671625,0.00577711,0.01664532,-0.03451629,-0.04617866,
 0.00099577,0.00154173,-0.00293017,0.00131888,0.00179708,-0.00348561,-0
 .01675099,0.03937901,0.03581710,-0.00171052,-0.00699587,0.00222070,-0.
 01170651,0.01921398,-0.00491354,-0.05988295,0.02874102,0.00538846,0.00
 786219,-0.00120750,-0.00088637,-0.00146436,0.00575647,-0.00172435,-0.0
 0550567,-0.00180888,0.00173440,0.00032345,-0.00050274,0.00009179,-0.00
 038211,-0.00017509,0.00001087,0.00002214,0.00005552,-0.00002564,-0.000
 62097,-0.00005230,0.00020038,-0.32973947,-0.05745525,0.07809835,-0.034
 04518,-0.02529140,0.01576385,-0.16166095,0.08606044,0.01719978,-0.0189
 7095,0.02950668,0.00290560,0.03084973,0.01110055,0.01003947,-0.0088229
 3,0.00541860,-0.00121148,0.00149277,0.00066513,-0.00077105,0.00409425,
 -0.00468427,-0.00478834,-0.00682674,-0.00805007,-0.00300292,-0.0007043
 0,0.00051260,0.00034204,0.00041424,-0.00159588,0.00104419,-0.00002288,
 0.00040848,-0.00026414,0.61965482,0.00082766,-0.00076109,-0.00122774,0
 .02383128,-0.01789399,0.00389530,0.01918870,0.00915303,-0.00502187,0.0
 0216312,-0.00631865,0.00320735,0.00006945,0.00063604,-0.00018459,-0.00
 032200,-0.00125821,0.00091731,0.00007941,-0.00048633,-0.00001749,-0.00
 043064,0.00007575,0.00001397,0.00028143,-0.00050875,0.00000162,-0.0001
 0143,0.00008739,0.00018815,-0.02931990,-0.10894140,0.00459805,0.003897
 22,-0.13753976,0.06114724,0.06676409,-0.16653995,-0.00984041,0.0169179
 1,0.00040630,0.00224589,0.00852478,-0.04771348,-0.01142654,0.00000164,
 0.00177450,-0.00513025,-0.00214706,-0.00026043,0.00270789,-0.01072393,
 0.00051387,-0.00336956,0.00651690,0.00194759,0.00417715,-0.00001556,0.
 00083728,-0.00070314,0.00109413,0.00042941,-0.00211064,-0.00010117,-0.
 00007944,0.00062109,-0.08087794,0.47935162,0.00222567,0.00142024,0.001
 42738,-0.01217983,0.00232734,0.00057928,0.00486462,-0.00462626,-0.0000
 1870,-0.00096253,0.00257210,0.00091100,0.00107379,0.00027929,0.0008690
 3,0.00003928,0.00072723,0.00028460,-0.00016388,0.00026959,-0.00043165,
 0.00020595,-0.00025419,-0.00064125,-0.00015782,-0.00001969,-0.00036572
 ,0.00022654,-0.00012704,-0.00034118,0.09207987,0.03310155,-0.04035037,
 0.00951965,0.04163158,-0.02713081,0.01405008,-0.00328615,-0.03953012,-
 0.00844445,0.00906585,0.00926463,0.01945735,-0.02147958,0.00508815,-0.
 00019759,-0.01294878,0.00088048,0.00128091,0.00150379,-0.00301226,-0.0
 1360986,0.00475813,-0.00252083,0.01027723,0.00545682,0.00574661,0.0004
 3561,0.00087118,-0.00150674,0.00008776,-0.00027963,-0.00029134,0.00043
 755,0.00019316,-0.00014824,-0.11626271,-0.06495828,0.09149838,0.001264
 40,-0.00011913,0.00031934,-0.00250114,-0.00086985,0.00051237,0.0036942
 3,-0.00040832,-0.00189961,0.00056333,-0.00004657,-0.00006589,-0.000052
 70,0.00064852,-0.00000998,-0.00049900,-0.00039857,0.00011087,-0.000063
 77,0.00011373,-0.00006080,0.00014758,-0.00003863,-0.00019539,-0.000020
 58,0.00003938,-0.00002026,0.00001151,-0.00001108,-0.00008481,-0.004987
 37,0.00729935,0.01186340,0.00465626,0.00227294,0.00110672,-0.05412786,
 -0.04501083,-0.02652469,0.01486314,-0.00512009,-0.00430260,-0.43609392
 ,-0.02521733,-0.09613657,-0.01268333,-0.00082684,-0.00371609,-0.001452
 41,-0.00036625,-0.00149522,-0.08095450,0.03187520,-0.01740687,0.013460
 90,0.01011764,0.00576183,-0.00030972,-0.00069722,0.00085976,0.00123198
 ,-0.00225616,0.00396278,-0.00215638,0.00032708,-0.00032807,-0.00683236
 ,0.00359839,-0.00507094,0.56336227,-0.00019077,0.00005718,-0.00012191,
 0.00018836,0.00003747,0.00049637,-0.00320428,0.00131313,-0.00032171,0.
 00027853,-0.00039866,0.00016036,0.00015258,0.00019171,-0.00010608,-0.0
 0001351,-0.00007552,0.00008012,0.00002473,-0.00006997,0.00004250,0.000
 03680,0.00001860,-0.00003883,0.00005924,-0.00004779,-0.00000534,0.0000
 3385,-0.00002756,0.00001952,0.00271501,-0.01360413,-0.01093377,-0.0009
 9903,-0.00098284,-0.00070820,-0.03988271,-0.00061721,-0.01556373,-0.00
 088373,-0.00654355,-0.00472613,-0.03278922,-0.08761892,-0.01607819,0.0
 0176877,-0.00108669,0.00021631,-0.00213397,-0.00016933,-0.00001103,0.0
 4255476,0.01084881,0.00941819,0.00143328,-0.00383139,-0.00465122,-0.00
 011120,0.00025888,0.00053378,-0.00240156,0.00205925,0.00283280,0.00151
 853,0.00000365,0.00093040,0.00185152,0.00311716,0.00360214,0.03284372,
 0.09892826,-0.00076612,0.00047467,0.00009821,0.00104436,-0.00158206,0.
 00084738,-0.00402977,0.00218184,-0.00165849,0.00071268,-0.00005383,0.0
 0018745,-0.00006610,-0.00025396,0.00023089,0.00084531,-0.00019467,-0.0
 0005384,0.00001506,-0.00009308,0.00003988,-0.00006118,0.00001807,-0.00
 014914,0.00008538,-0.00005078,-0.00001565,0.00002348,-0.00004915,-0.00
 003994,0.00922051,-0.01519753,-0.00709342,-0.00111898,-0.00140115,-0.0
 0004778,-0.02104957,-0.02673813,0.00468571,-0.00373981,-0.00060722,0.0
 0122094,-0.10016652,-0.00901667,-0.08756664,-0.00107692,-0.00701319,-0
 .00267001,-0.00015565,0.00055505,-0.00143061,-0.01656374,0.00883699,0.
 01210358,0.00730403,0.00397121,0.00776502,0.00000569,0.00001154,0.0000
 1117,0.00015853,0.00168327,-0.00172311,0.00019464,0.00028936,-0.000507
 70,-0.00296420,0.00929407,-0.00075963,0.13783305,0.03374902,0.07949532
 ,-0.00003472,0.00065906,-0.00076817,-0.00246670,0.00268893,-0.00040683
 ,0.01234932,0.02193098,0.00377936,0.00012223,0.00077693,-0.00064111,0.
 00007861,-0.00106426,0.00020833,0.00072253,0.00051452,-0.00022739,-0.0
 0019462,0.00022419,-0.00008833,-0.00062970,-0.00036395,0.00042546,-0.0
 0000532,-0.00001489,0.00002744,-0.00002379,-0.00007258,-0.00005658,-0.
 08750619,-0.09165262,-0.01655464,-0.00350368,-0.00082227,-0.00082772,0
 .00185098,-0.00195941,-0.00018760,-0.00086452,-0.00051432,-0.00043069,
 -0.00628329,0.00293804,0.00236665,0.00031095,-0.00080805,0.00001825,0.
 00011214,0.00006642,0.00018525,-0.00046189,0.00027528,0.00101521,0.000
 66229,0.00143890,0.00017675,0.00001578,-0.00004265,0.00009878,-0.00002
 494,0.00002315,0.00009116,0.00010224,-0.00002185,-0.00009182,-0.015814
 77,-0.02971649,0.00078772,-0.00052056,-0.00284971,-0.00568416,0.102007
 62,0.00076279,-0.00077061,0.00099789,0.00095608,-0.00007323,-0.0007318
 4,-0.00029976,-0.01757182,-0.00311002,-0.00179526,0.00216818,0.0003037
 1,0.00005879,-0.00011965,0.00087350,-0.00097107,0.00057355,-0.00018447
 ,0.00009819,0.00004203,-0.00011525,0.00022386,-0.00029413,-0.00048971,
 -0.00019919,0.00011469,-0.00004170,-0.00007873,0.00002170,-0.00015778,
 -0.09952626,-0.34525361,-0.03625836,0.00423903,0.00722949,-0.00449904,
 -0.01216332,0.00757675,0.00035029,0.01238225,-0.00163398,-0.00266895,0
 .01641391,0.00091840,0.00771145,-0.00548129,0.01131659,0.00261800,-0.0
 0001859,-0.00009467,-0.00093599,0.00218266,-0.00297032,-0.00000321,-0.
 00607155,-0.00822995,-0.00555873,-0.00025425,-0.00042582,0.00079811,-0
 .00011415,-0.00096779,0.00148896,-0.00036794,0.00026082,-0.00038419,-0
 .00059379,-0.01002845,0.00019964,-0.00774908,-0.00176054,0.00118634,0.
 09836666,0.35997239,0.00002996,0.00182410,-0.00041592,-0.00130540,0.00
 144333,0.00096895,0.00297807,0.01440257,-0.00387802,0.00207877,-0.0005
 4480,-0.00055885,-0.00066246,0.00000284,-0.00023692,0.00106649,-0.0005
 6513,-0.00009383,-0.00025015,0.00028238,-0.00000413,0.00046315,-0.0001
 2402,0.00031668,-0.00005406,0.00010515,0.00000948,-0.00002643,0.000074
 90,-0.00002102,-0.02250068,-0.07413137,-0.01247395,0.00308461,0.004981
 96,-0.00185688,-0.00298742,0.00032176,-0.00099987,0.00191501,-0.000514
 56,-0.00050683,0.00636544,0.00290135,0.00444773,-0.00152265,0.00326361
 ,0.00111505,-0.00007775,-0.00002716,-0.00034788,0.00115319,-0.00186756
 ,0.00014602,-0.00298082,-0.00239488,-0.00191329,-0.00008477,-0.0000525
 6,0.00004740,0.00000650,-0.00026641,0.00045752,-0.00023584,0.00011308,
 -0.00018025,0.00177487,0.01097544,0.00049930,-0.00501230,0.00118462,-0
 .00296959,0.01678468,0.03861137,0.01844910\\0.00026248,-0.00008300,0.0
 0001368,-0.00016999,-0.00015212,-0.00003494,-0.00042593,-0.00014833,0.
 00001155,-0.00008166,0.00017612,0.00002265,0.00007655,0.00047454,-0.00
 000337,0.00020936,0.00019879,0.00003157,0.00004194,-0.00001600,0.00001
 633,-0.00004135,0.00002497,0.00001347,0.00000666,0.00003602,0.00002636
 ,0.00003313,0.00002951,0.00002740,-0.00008718,-0.00053927,0.00014933,-
 0.00017064,-0.00104439,0.00000763,0.00018723,-0.00013882,0.00007053,-0
 .00046287,0.00025559,-0.00003608,-0.00033489,-0.00023762,-0.00008757,0
 .00009608,0.00017268,-0.00003461,0.00000277,0.00000620,-0.00000399,0.0
 0029938,0.00003604,-0.00001625,0.00035218,0.00031696,0.00000161,0.0000
 0429,0.00005396,-0.00000858,0.00002638,0.00000502,-0.00003060,0.000047
 11,0.00004757,-0.00002364,0.00004880,0.00000994,-0.00010020,0.00026127
 ,-0.00003282,0.00000879,-0.00018111,0.00054847,-0.00002106\\\@
 The archive entry for this job was punched.


 WE HAVE SEEN THAT MAN ON THE AVERAGE DOES NOT LIVE ABOVE
 TWO-AND-TWENTY YEARS.  DURING THESE TWO AND TWENTY
 YEARS HE IS LIABLE TO TWO AND TWENTY THOUSAND EVILS,
 MANY OF WHICH ARE INCURABLE.  YET EVEN IN THIS DREADFUL STATE
 MEN STILL STRUT AND POSE ON THE STAGE OF LIFE.
 THEY MAKE LOVE AT THE RISK OF DESTRUCTION,
 INTRIGUE, CARRY ON WAR, AND FORM PROJECTS, JUST AS IF THEY
 WERE TO LIVE IN LUXURY AND HAPPINESS FOR A THOUSAND
 AGES.

                                              -- VOLTAIRE
 Job cpu time:       0 days  2 hours 51 minutes 56.1 seconds.
 Elapsed time:       0 days  0 hours 17 minutes 42.8 seconds.
 File lengths (MBytes):  RWF=   1392 Int=      0 D2E=      0 Chk=     48 Scr=      8
 Normal termination of Gaussian 16 at Tue Jul 14 00:50:35 2020.
