 Entering Gaussian System, Link 0=g16
 Initial command:
 /gpfs/loomis/apps/avx/software/Gaussian/16-C.01_AVX/g16/l1.exe "/home/fas/batista/pev4/scratch60/gauss-scratch/Gau-158201.inp" -scrdir="/home/fas/batista/pev4/scratch60/gauss-scratch/"
 Entering Link 1 = /gpfs/loomis/apps/avx/software/Gaussian/16-C.01_AVX/g16/l1.exe PID=    158202.
  
 Copyright (c) 1988-2019, Gaussian, Inc.  All Rights Reserved.
  
 This is part of the Gaussian(R) 16 program.  It is based on
 the Gaussian(R) 09 system (copyright 2009, Gaussian, Inc.),
 the Gaussian(R) 03 system (copyright 2003, Gaussian, Inc.),
 the Gaussian(R) 98 system (copyright 1998, Gaussian, Inc.),
 the Gaussian(R) 94 system (copyright 1995, Gaussian, Inc.),
 the Gaussian 92(TM) system (copyright 1992, Gaussian, Inc.),
 the Gaussian 90(TM) system (copyright 1990, Gaussian, Inc.),
 the Gaussian 88(TM) system (copyright 1988, Gaussian, Inc.),
 the Gaussian 86(TM) system (copyright 1986, Carnegie Mellon
 University), and the Gaussian 82(TM) system (copyright 1983,
 Carnegie Mellon University). Gaussian is a federally registered
 trademark of Gaussian, Inc.
  
 This software contains proprietary and confidential information,
 including trade secrets, belonging to Gaussian, Inc.
  
 This software is provided under written license and may be
 used, copied, transmitted, or stored only in accord with that
 written license.
  
 The following legend is applicable only to US Government
 contracts under FAR:
  
                    RESTRICTED RIGHTS LEGEND
  
 Use, reproduction and disclosure by the US Government is
 subject to restrictions as set forth in subparagraphs (a)
 and (c) of the Commercial Computer Software - Restricted
 Rights clause in FAR 52.227-19.
  
 Gaussian, Inc.
 340 Quinnipiac St., Bldg. 40, Wallingford CT 06492
  
  
 ---------------------------------------------------------------
 Warning -- This program may not be used in any manner that
 competes with the business of Gaussian, Inc. or will provide
 assistance to any competitor of Gaussian, Inc.  The licensee
 of this program is prohibited from giving any competitor of
 Gaussian, Inc. access to this program.  By using this program,
 the user acknowledges that Gaussian, Inc. is engaged in the
 business of creating and licensing software in the field of
 computational chemistry and represents and warrants to the
 licensee that it is not a competitor of Gaussian, Inc. and that
 it will not use this program in any manner prohibited above.
 ---------------------------------------------------------------
  

 Cite this work as:
 Gaussian 16, Revision C.01,
 M. J. Frisch, G. W. Trucks, H. B. Schlegel, G. E. Scuseria, 
 M. A. Robb, J. R. Cheeseman, G. Scalmani, V. Barone, 
 G. A. Petersson, H. Nakatsuji, X. Li, M. Caricato, A. V. Marenich, 
 J. Bloino, B. G. Janesko, R. Gomperts, B. Mennucci, H. P. Hratchian, 
 J. V. Ortiz, A. F. Izmaylov, J. L. Sonnenberg, D. Williams-Young, 
 F. Ding, F. Lipparini, F. Egidi, J. Goings, B. Peng, A. Petrone, 
 T. Henderson, D. Ranasinghe, V. G. Zakrzewski, J. Gao, N. Rega, 
 G. Zheng, W. Liang, M. Hada, M. Ehara, K. Toyota, R. Fukuda, 
 J. Hasegawa, M. Ishida, T. Nakajima, Y. Honda, O. Kitao, H. Nakai, 
 T. Vreven, K. Throssell, J. A. Montgomery, Jr., J. E. Peralta, 
 F. Ogliaro, M. J. Bearpark, J. J. Heyd, E. N. Brothers, K. N. Kudin, 
 V. N. Staroverov, T. A. Keith, R. Kobayashi, J. Normand, 
 K. Raghavachari, A. P. Rendell, J. C. Burant, S. S. Iyengar, 
 J. Tomasi, M. Cossi, J. M. Millam, M. Klene, C. Adamo, R. Cammi, 
 J. W. Ochterski, R. L. Martin, K. Morokuma, O. Farkas, 
 J. B. Foresman, and D. J. Fox, Gaussian, Inc., Wallingford CT, 2019.
 
 ******************************************
 Gaussian 16:  ES64L-G16RevC.01  3-Jul-2019
                13-Jul-2020 
 ******************************************
 %chk=config_4_15.chk
 %mem=58GB
 %nprocshared=10
 Will use up to   10 processors via shared memory.
 ----------------------------------------------------------------------
 #p opt=addgic freq td wb97xd/cc-pvdz nosymm int=ultrafine scrf=(solven
 t=CarbonTetraChloride)
 ----------------------------------------------------------------------
 1/18=20,19=15,26=6,38=1,145=903/1,3;
 2/9=110,12=2,15=1,17=6,18=5,40=1/2;
 3/5=16,11=9,25=1,30=1,70=2201,71=1,72=11,74=-58,75=-5/1,2,3,8;
 4//1;
 5/5=2,38=5,53=11/2;
 8/6=1,10=1/1;
 9/15=2,42=1,70=2/14;
 10/5=4,31=1/2;
 6/7=2,8=2,9=2,10=2/1;
 7/12=6,13=5,30=1/1,2,3,16;
 1/18=20,19=15,26=6,145=903/3(2);
 2/9=110,15=1/2;
 99//99;
 2/9=110,15=1/2;
 3/5=16,11=9,25=1,30=1,70=2205,71=1,72=11,74=-58,75=-5/1,2,3,8;
 4/5=5,16=3,69=1/1;
 5/5=2,38=5,53=11/2;
 8/6=1,10=1/1;
 9/15=2,42=1,49=4,70=2/14;
 10/5=4,31=1/2;
 7/12=6,13=5,30=1/1,2,3,16;
 1/18=20,19=15,26=6,145=903/3(-8);
 2/9=110,15=1/2;
 6/7=2,8=2,9=2,10=2/1;
 99/9=10/99;
 Leave Link    1 at Mon Jul 13 13:32:31 2020, MaxMem=  7784628224 cpu:               5.9 elap:               0.7
 (Enter /gpfs/loomis/apps/avx/software/Gaussian/16-C.01_AVX/g16/l101.exe)
 ------------------------------------------------
 NM 2D-scan of HBT TD-WB97XD pVDZ in CTC Relaxed.
 ------------------------------------------------
 Symbolic Z-matrix:
 Charge =  0 Multiplicity = 1
 C                     1.56101  -3.25694  -0.00002 
 C                     0.99586  -1.98413  -0.00002 
 C                     1.771    -0.78088  -0.00003 
 C                     3.18793  -0.9199   -0.00003 
 C                     3.74393  -2.19593  -0.00002 
 C                     2.95058  -3.36265  -0.00002 
 H                     0.92342  -4.14638  -0.00001 
 H                     3.82244  -0.02807  -0.00003 
 H                     4.83353  -2.29775  -0.00002 
 H                     3.42426  -4.34785  -0.00001 
 N                     1.02827   0.35388  -0.00003 
 S                    -0.70646  -1.62225  -0.00002 
 C                    -1.32015   1.05805   0.00001 
 C                    -2.70108   0.74588   0.00002 
 C                    -0.91545   2.46785   0.00004 
 C                    -3.65078   1.76406   0.00003 
 H                    -3.01852  -0.3012    0.00001 
 C                    -1.90475   3.47511   0.00004 
 C                    -3.26056   3.12536   0.00004 
 H                    -4.71365   1.50839   0.00003 
 H                    -1.58333   4.52084   0.00006 
 H                    -4.02454   3.90658   0.00005 
 C                    -0.30788   0.08347  -0.00002 
 O                     0.36453   2.72596   0.00005 
 H                     0.89323   1.85768   0.00002 
 
 Initializing the GIC definitions file.
 Number of initial coordinates =   131
 Number of input entries/lines =    52
 Number of additional coordinates =     2
 Number of removed coordinates =     0
 Number of frozen coordinates =     2
 Number of final active and frozen coordinates =   133
 ITRead=  0  0  0  0  0  0  0  0  0  0  0  0  0  0  0  0  0  0  0  0
 ITRead=  0  0  0  0  0
 MicOpt= -1 -1 -1 -1 -1 -1 -1 -1 -1 -1 -1 -1 -1 -1 -1 -1 -1 -1 -1 -1
 MicOpt= -1 -1 -1 -1 -1
 NAtoms=     25 NQM=       25 NQMF=       0 NMMI=      0 NMMIF=      0
                NMic=       0 NMicF=      0.
                    Isotopes and Nuclear Properties:
 (Nuclear quadrupole moments (NQMom) in fm**2, nuclear magnetic moments (NMagM)
  in nuclear magnetons)

  Atom         1           2           3           4           5           6           7           8           9          10
 IAtWgt=          12          12          12          12          12          12           1           1           1           1
 AtmWgt=  12.0000000  12.0000000  12.0000000  12.0000000  12.0000000  12.0000000   1.0078250   1.0078250   1.0078250   1.0078250
 NucSpn=           0           0           0           0           0           0           1           1           1           1
 AtZEff=  -0.0000000  -0.0000000  -0.0000000  -0.0000000  -0.0000000  -0.0000000  -0.0000000  -0.0000000  -0.0000000  -0.0000000
 NQMom=    0.0000000   0.0000000   0.0000000   0.0000000   0.0000000   0.0000000   0.0000000   0.0000000   0.0000000   0.0000000
 NMagM=    0.0000000   0.0000000   0.0000000   0.0000000   0.0000000   0.0000000   2.7928460   2.7928460   2.7928460   2.7928460
 AtZNuc=   6.0000000   6.0000000   6.0000000   6.0000000   6.0000000   6.0000000   1.0000000   1.0000000   1.0000000   1.0000000

  Atom        11          12          13          14          15          16          17          18          19          20
 IAtWgt=          14          32          12          12          12          12           1          12          12           1
 AtmWgt=  14.0030740  31.9720718  12.0000000  12.0000000  12.0000000  12.0000000   1.0078250  12.0000000  12.0000000   1.0078250
 NucSpn=           2           0           0           0           0           0           1           0           0           1
 AtZEff=  -0.0000000  -0.0000000  -0.0000000  -0.0000000  -0.0000000  -0.0000000  -0.0000000  -0.0000000  -0.0000000  -0.0000000
 NQMom=    2.0440000   0.0000000   0.0000000   0.0000000   0.0000000   0.0000000   0.0000000   0.0000000   0.0000000   0.0000000
 NMagM=    0.4037610   0.0000000   0.0000000   0.0000000   0.0000000   0.0000000   2.7928460   0.0000000   0.0000000   2.7928460
 AtZNuc=   7.0000000  16.0000000   6.0000000   6.0000000   6.0000000   6.0000000   1.0000000   6.0000000   6.0000000   1.0000000

  Atom        21          22          23          24          25
 IAtWgt=           1           1          12          16           1
 AtmWgt=   1.0078250   1.0078250  12.0000000  15.9949146   1.0078250
 NucSpn=           1           1           0           0           1
 AtZEff=  -0.0000000  -0.0000000  -0.0000000  -0.0000000  -0.0000000
 NQMom=    0.0000000   0.0000000   0.0000000   0.0000000   0.0000000
 NMagM=    2.7928460   2.7928460   0.0000000   0.0000000   2.7928460
 AtZNuc=   1.0000000   1.0000000   6.0000000   8.0000000   1.0000000
 Leave Link  101 at Mon Jul 13 13:32:34 2020, MaxMem=  7784628224 cpu:              33.2 elap:               3.4
 (Enter /gpfs/loomis/apps/avx/software/Gaussian/16-C.01_AVX/g16/l103.exe)

 GradGradGradGradGradGradGradGradGradGradGradGradGradGradGradGradGradGrad
 Berny optimization.
 Initialization pass.
                           ----------------------------
                           !    Initial Parameters    !
                           ! (Angstroms and Degrees)  !
 --------------------------                            --------------------------
 ! Name  Definition              Value          Derivative Info.                !
 --------------------------------------------------------------------------------
 ! R1    R(1,2)                  1.3926         estimate D2E/DX2                !
 ! R2    R(1,6)                  1.3936         estimate D2E/DX2                !
 ! R3    R(1,7)                  1.0944         estimate D2E/DX2                !
 ! R4    R(2,3)                  1.4313         estimate D2E/DX2                !
 ! R5    R(2,12)                 1.7404         estimate D2E/DX2                !
 ! R6    R(3,4)                  1.4237         estimate D2E/DX2                !
 ! R7    R(3,11)                 1.3562         estimate D2E/DX2                !
 ! R8    R(4,5)                  1.3919         estimate D2E/DX2                !
 ! R9    R(4,8)                  1.0945         estimate D2E/DX2                !
 ! R10   R(5,6)                  1.4109         estimate D2E/DX2                !
 ! R11   R(5,9)                  1.0944         estimate D2E/DX2                !
 ! R12   R(6,10)                 1.0932         estimate D2E/DX2                !
 ! R13   R(11,23)                1.3632         estimate D2E/DX2                !
 ! R14   R(12,23)                1.7517         estimate D2E/DX2                !
 ! R15   R(13,14)                1.4158         estimate D2E/DX2                !
 ! R16   R(13,15)                1.4667         estimate D2E/DX2                !
 ! R17   R(13,23)                1.4052         estimate D2E/DX2                !
 ! R18   R(14,16)                1.3923         estimate D2E/DX2                !
 ! R19   R(14,17)                1.0941         estimate D2E/DX2                !
 ! R20   R(15,18)                1.4118         estimate D2E/DX2                !
 ! R21   R(15,24)                1.3057         estimate D2E/DX2                !
 ! R22   R(16,19)                1.4161         estimate D2E/DX2                !
 ! R23   R(16,20)                1.0932         estimate D2E/DX2                !
 ! R24   R(18,19)                1.4002         estimate D2E/DX2                !
 ! R25   R(18,21)                1.094          estimate D2E/DX2                !
 ! R26   R(19,22)                1.0927         estimate D2E/DX2                !
 ! R27   R(24,25)                1.0166         estimate D2E/DX2                !
 ! A1    A(2,1,6)              118.2928         estimate D2E/DX2                !
 ! A2    A(2,1,7)              120.4234         estimate D2E/DX2                !
 ! A3    A(6,1,7)              121.2838         estimate D2E/DX2                !
 ! A4    A(1,2,3)              123.2681         estimate D2E/DX2                !
 ! A5    A(1,2,12)             125.9435         estimate D2E/DX2                !
 ! A6    A(3,2,12)             110.7884         estimate D2E/DX2                !
 ! A7    A(2,3,4)              117.1864         estimate D2E/DX2                !
 ! A8    A(2,3,11)             114.0045         estimate D2E/DX2                !
 ! A9    A(4,3,11)             128.8091         estimate D2E/DX2                !
 ! A10   A(3,4,5)              119.1475         estimate D2E/DX2                !
 ! A11   A(3,4,8)              119.8273         estimate D2E/DX2                !
 ! A12   A(5,4,8)              121.0252         estimate D2E/DX2                !
 ! A13   A(4,5,6)              122.2408         estimate D2E/DX2                !
 ! A14   A(4,5,9)              118.8826         estimate D2E/DX2                !
 ! A15   A(6,5,9)              118.8766         estimate D2E/DX2                !
 ! A16   A(1,6,5)              119.8644         estimate D2E/DX2                !
 ! A17   A(1,6,10)             120.0288         estimate D2E/DX2                !
 ! A18   A(5,6,10)             120.1068         estimate D2E/DX2                !
 ! A19   A(3,11,23)            111.7647         estimate D2E/DX2                !
 ! A20   A(2,12,23)             88.8489         estimate D2E/DX2                !
 ! A21   A(14,13,15)           118.7549         estimate D2E/DX2                !
 ! A22   A(14,13,23)           123.3488         estimate D2E/DX2                !
 ! A23   A(15,13,23)           117.8963         estimate D2E/DX2                !
 ! A24   A(13,14,16)           120.2689         estimate D2E/DX2                !
 ! A25   A(13,14,17)           119.6038         estimate D2E/DX2                !
 ! A26   A(16,14,17)           120.1273         estimate D2E/DX2                !
 ! A27   A(13,15,18)           119.4985         estimate D2E/DX2                !
 ! A28   A(13,15,24)           117.4179         estimate D2E/DX2                !
 ! A29   A(18,15,24)           123.0836         estimate D2E/DX2                !
 ! A30   A(14,16,19)           120.9978         estimate D2E/DX2                !
 ! A31   A(14,16,20)           119.4819         estimate D2E/DX2                !
 ! A32   A(19,16,20)           119.5203         estimate D2E/DX2                !
 ! A33   A(15,18,19)           120.0194         estimate D2E/DX2                !
 ! A34   A(15,18,21)           118.4294         estimate D2E/DX2                !
 ! A35   A(19,18,21)           121.5511         estimate D2E/DX2                !
 ! A36   A(16,19,18)           120.4604         estimate D2E/DX2                !
 ! A37   A(16,19,22)           119.6442         estimate D2E/DX2                !
 ! A38   A(18,19,22)           119.8954         estimate D2E/DX2                !
 ! A39   A(11,23,12)           114.5935         estimate D2E/DX2                !
 ! A40   A(11,23,13)           124.6459         estimate D2E/DX2                !
 ! A41   A(12,23,13)           120.7606         estimate D2E/DX2                !
 ! A42   A(15,24,25)           109.9365         estimate D2E/DX2                !
 ! D1    D(6,1,2,3)              0.0            estimate D2E/DX2                !
 ! D2    D(6,1,2,12)           180.0            estimate D2E/DX2                !
 ! D3    D(7,1,2,3)            179.9999         estimate D2E/DX2                !
 ! D4    D(7,1,2,12)            -0.0001         estimate D2E/DX2                !
 ! D5    D(2,1,6,5)             -0.0001         estimate D2E/DX2                !
 ! D6    D(2,1,6,10)           179.9999         estimate D2E/DX2                !
 ! D7    D(7,1,6,5)            179.9999         estimate D2E/DX2                !
 ! D8    D(7,1,6,10)             0.0            estimate D2E/DX2                !
 ! D9    D(1,2,3,4)              0.0002         estimate D2E/DX2                !
 ! D10   D(1,2,3,11)          -180.0            estimate D2E/DX2                !
 ! D11   D(12,2,3,4)          -179.9998         estimate D2E/DX2                !
 ! D12   D(12,2,3,11)            0.0            estimate D2E/DX2                !
 ! D13   D(1,2,12,23)          179.9997         estimate D2E/DX2                !
 ! D14   D(3,2,12,23)           -0.0003         estimate D2E/DX2                !
 ! D15   D(2,3,4,5)             -0.0002         estimate D2E/DX2                !
 ! D16   D(2,3,4,8)            179.9999         estimate D2E/DX2                !
 ! D17   D(11,3,4,5)           180.0            estimate D2E/DX2                !
 ! D18   D(11,3,4,8)             0.0            estimate D2E/DX2                !
 ! D19   D(2,3,11,23)            0.0004         estimate D2E/DX2                !
 ! D20   D(4,3,11,23)         -179.9998         estimate D2E/DX2                !
 ! D21   D(3,4,5,6)              0.0            estimate D2E/DX2                !
 ! D22   D(3,4,5,9)           -179.9999         estimate D2E/DX2                !
 ! D23   D(8,4,5,6)            180.0            estimate D2E/DX2                !
 ! D24   D(8,4,5,9)              0.0            estimate D2E/DX2                !
 ! D25   D(4,5,6,1)              0.0001         estimate D2E/DX2                !
 ! D26   D(4,5,6,10)          -179.9999         estimate D2E/DX2                !
 ! D27   D(9,5,6,1)           -179.9999         estimate D2E/DX2                !
 ! D28   D(9,5,6,10)             0.0            estimate D2E/DX2                !
 ! D29   D(3,11,23,12)          -0.0006         estimate D2E/DX2                !
 ! D30   D(3,11,23,13)         179.9984         estimate D2E/DX2                !
 ! D31   D(2,12,23,11)           0.0005         estimate D2E/DX2                !
 ! D32   D(2,12,23,13)        -179.9985         estimate D2E/DX2                !
 ! D33   D(15,13,14,16)          0.001          estimate D2E/DX2                !
 ! D34   D(15,13,14,17)       -179.9994         estimate D2E/DX2                !
 ! D35   D(23,13,14,16)       -179.9991         estimate D2E/DX2                !
 ! D36   D(23,13,14,17)          0.0005         estimate D2E/DX2                !
 ! D37   D(14,13,15,18)         -0.0012         estimate D2E/DX2                !
 ! D38   D(14,13,15,24)        179.9985         estimate D2E/DX2                !
 ! D39   D(23,13,15,18)        179.9989         estimate D2E/DX2                !
 ! D40   D(23,13,15,24)         -0.0014         estimate D2E/DX2                !
 ! D41   D(14,13,23,11)       -179.9999         estimate D2E/DX2                !
 ! D42   D(14,13,23,12)         -0.001          estimate D2E/DX2                !
 ! D43   D(15,13,23,11)          0.0            estimate D2E/DX2                !
 ! D44   D(15,13,23,12)        179.999          estimate D2E/DX2                !
 ! D45   D(13,14,16,19)         -0.0003         estimate D2E/DX2                !
 ! D46   D(13,14,16,20)        179.9997         estimate D2E/DX2                !
 ! D47   D(17,14,16,19)       -179.9999         estimate D2E/DX2                !
 ! D48   D(17,14,16,20)          0.0001         estimate D2E/DX2                !
 ! D49   D(13,15,18,19)          0.0006         estimate D2E/DX2                !
 ! D50   D(13,15,18,21)       -179.9999         estimate D2E/DX2                !
 ! D51   D(24,15,18,19)       -179.9991         estimate D2E/DX2                !
 ! D52   D(24,15,18,21)          0.0003         estimate D2E/DX2                !
 ! D53   D(13,15,24,25)          0.0015         estimate D2E/DX2                !
 ! D54   D(18,15,24,25)       -179.9988         estimate D2E/DX2                !
 ! D55   D(14,16,19,18)         -0.0004         estimate D2E/DX2                !
 ! D56   D(14,16,19,22)        179.9999         estimate D2E/DX2                !
 ! D57   D(20,16,19,18)        179.9997         estimate D2E/DX2                !
 ! D58   D(20,16,19,22)         -0.0001         estimate D2E/DX2                !
 ! D59   D(15,18,19,16)          0.0002         estimate D2E/DX2                !
 ! D60   D(15,18,19,22)        179.9999         estimate D2E/DX2                !
 ! D61   D(21,18,19,16)       -179.9993         estimate D2E/DX2                !
 ! D62   D(21,18,19,22)          0.0005         estimate D2E/DX2                !
 ! Qtot  GIC-1                 -20.0            Frozen                          !
 ! Ptot  GIC-2                 140.0            Frozen                          !
 --------------------------------------------------------------------------------
 NOTE: GIC-type coordinates are in arbitrary units.
 Trust Radius=3.00D-01 FncErr=5.00D-06 GrdErr=5.00D-06 EigMax=2.50D+02 EigMin=1.00D-04
 Number of steps in this run=    143 maximum allowed number of steps=    150.
 GradGradGradGradGradGradGradGradGradGradGradGradGradGradGradGradGradGrad

 Leave Link  103 at Mon Jul 13 13:32:34 2020, MaxMem=  7784628224 cpu:               0.2 elap:               0.0
 (Enter /gpfs/loomis/apps/avx/software/Gaussian/16-C.01_AVX/g16/l202.exe)
                          Input orientation:                          
 ---------------------------------------------------------------------
 Center     Atomic      Atomic             Coordinates (Angstroms)
 Number     Number       Type             X           Y           Z
 ---------------------------------------------------------------------
      1          6           0        1.561012   -3.256935   -0.000018
      2          6           0        0.995862   -1.984127   -0.000023
      3          6           0        1.770997   -0.780881   -0.000026
      4          6           0        3.187927   -0.919898   -0.000029
      5          6           0        3.743931   -2.195932   -0.000024
      6          6           0        2.950578   -3.362653   -0.000017
      7          1           0        0.923419   -4.146383   -0.000014
      8          1           0        3.822438   -0.028066   -0.000034
      9          1           0        4.833534   -2.297750   -0.000024
     10          1           0        3.424258   -4.347849   -0.000012
     11          7           0        1.028266    0.353882   -0.000030
     12         16           0       -0.706456   -1.622245   -0.000025
     13          6           0       -1.320146    1.058047    0.000010
     14          6           0       -2.701075    0.745877    0.000020
     15          6           0       -0.915445    2.467846    0.000035
     16          6           0       -3.650778    1.764058    0.000031
     17          1           0       -3.018516   -0.301199    0.000012
     18          6           0       -1.904754    3.475113    0.000042
     19          6           0       -3.260556    3.125356    0.000039
     20          1           0       -4.713648    1.508393    0.000034
     21          1           0       -1.583328    4.520839    0.000060
     22          1           0       -4.024537    3.906580    0.000045
     23          6           0       -0.307876    0.083472   -0.000021
     24          8           0        0.364530    2.725960    0.000055
     25          1           0        0.893234    1.857677    0.000024
 ---------------------------------------------------------------------
                    Distance matrix (angstroms):
                    1          2          3          4          5
     1  C    0.000000
     2  C    1.392636   0.000000
     3  C    2.484942   1.431305   0.000000
     4  C    2.847559   2.436746   1.423733   0.000000
     5  C    2.427109   2.756218   2.427928   1.391906   0.000000
     6  C    1.393581   2.391913   2.838478   2.454260   1.410903
     7  H    1.094368   2.163469   3.470589   3.941852   3.429219
     8  H    3.942036   3.437398   2.185210   1.094518   2.169287
     9  H    3.410196   3.850466   3.417605   2.146276   1.094351
    10  H    2.159115   3.388848   3.931479   3.436088   2.175532
    11  N    3.649907   2.338233   1.356222   2.507319   3.725101
    12  S    2.795286   1.740358   2.616422   3.957209   4.487210
    13  C    5.188463   3.823443   3.596780   4.922904   6.019406
    14  C    5.847041   4.595679   4.725508   6.120061   7.084655
    15  C    6.237464   4.844911   4.215590   5.321134   6.592466
    16  C    7.236928   5.969937   5.989354   7.346529   8.388279
    17  H    5.450546   4.352870   4.813474   6.237204   7.022869
    18  C    7.571790   6.181979   5.623578   6.726924   8.004272
    19  C    7.998822   6.650106   6.369868   7.612293   8.796529
    20  H    7.879068   6.692997   6.876875   8.266286   9.233237
    21  H    8.389317   6.997629   6.273734   7.236469   8.572904
    22  H    9.083738   7.739821   7.453892   8.678393   9.878751
    23  C    3.827671   2.444320   2.251404   3.636948   4.648959
    24  O    6.101361   4.752210   3.778371   4.611274   5.970374
    25  H    5.158022   3.843175   2.780730   3.602851   4.955625
                    6          7          8          9         10
     6  C    0.000000
     7  H    2.173385   0.000000
     8  H    3.446682   5.036352   0.000000
     9  H    2.163225   4.325094   2.484710   0.000000
    10  H    1.093153   2.508941   4.338096   2.487763   0.000000
    11  N    4.184246   4.501486   2.820156   4.638019   5.277030
    12  S    4.050052   3.004624   4.801280   5.581021   4.948910
    13  C    6.146680   5.667422   5.256027   7.009220   7.192572
    14  C    6.987217   6.088609   6.569263   8.126131   7.966539
    15  C    6.995774   6.865089   5.355102   7.467374   8.080020
    16  C    8.358293   7.473726   7.685094   9.406478   9.349414
    17  H    6.708397   5.506750   6.846404   8.101908   7.608200
    18  C    8.386256   8.129314   6.713642   8.873019   9.465574
    19  C    8.981784   8.389507   7.753249   9.742914  10.026741
    20  H    9.081159   7.984549   8.673262  10.277909  10.026021
    21  H    9.094271   9.022445   7.065044   9.363187  10.184770
    22  H   10.074422   9.451586   8.778181  10.814765  11.118459
    23  C    4.742711   4.405424   4.131820   5.666068   5.793568
    24  O    6.615048   6.895031   4.420609   6.723813   7.707185
    25  H    5.611107   6.004136   3.483715   5.726565   6.701839
                   11         12         13         14         15
    11  N    0.000000
    12  S    2.629513   0.000000
    13  C    2.451712   2.749651   0.000000
    14  C    3.749886   3.096208   1.415773   0.000000
    15  C    2.871734   4.095427   1.466736   2.480655   0.000000
    16  C    4.886926   4.487324   2.435219   1.392346   2.824422
    17  H    4.099461   2.662853   2.175318   1.094137   3.477141
    18  C    4.283070   5.236313   2.486759   2.843037   1.411849
    19  C    5.106375   5.391024   2.835305   2.444369   2.435542
    20  H    5.856832   5.085124   3.423254   2.152181   3.917511
    21  H    4.917719   6.205352   3.472779   3.936966   2.158900
    22  H    6.176770   6.448067   3.927832   3.426601   3.425844
    23  C    1.363231   1.751667   1.405164   2.483180   2.460564
    24  O    2.463189   4.478157   2.370668   3.649474   1.305741
    25  H    1.509846   3.829995   2.353393   3.762334   1.908828
                   16         17         18         19         20
    16  C    0.000000
    17  H    2.159870   0.000000
    18  C    2.444649   3.937130   0.000000
    19  C    1.416124   3.435092   1.400189   0.000000
    20  H    1.093187   2.479535   3.428976   2.173947   0.000000
    21  H    3.445895   5.031085   1.094010   2.181849   4.344391
    22  H    2.174878   4.326370   2.163248   1.092693   2.495230
    23  C    3.741572   2.737798   3.748765   4.239266   4.630467
    24  O    4.128916   4.539679   2.389744   3.647021   5.222103
    25  H    4.544976   4.467944   3.231846   4.342923   5.617751
                   21         22         23         24         25
    21  H    0.000000
    22  H    2.517303   0.000000
    23  C    4.617034   5.331952   0.000000
    24  O    2.648724   4.545082   2.726696   0.000000
    25  H    3.636728   5.327520   2.142538   1.016584   0.000000
 Symmetry turned off by external request.
 Stoichiometry    C13H9NOS
 Framework group  C1[X(C13H9NOS)]
 Deg. of freedom    69
 Full point group                 C1      NOp   1
 Rotational constants (GHZ):           1.3994275           0.2863907           0.2377380
 Leave Link  202 at Mon Jul 13 13:32:34 2020, MaxMem=  7784628224 cpu:               0.4 elap:               0.1
 (Enter /gpfs/loomis/apps/avx/software/Gaussian/16-C.01_AVX/g16/l301.exe)
 Standard basis: CC-pVDZ (5D, 7F)
 Ernie: Thresh=  0.10000D-02 Tol=  0.10000D-05 Strict=F.
 Ernie:  40 primitive shells out of 425 were deleted.
   273 basis functions,   629 primitive gaussians,   289 cartesian basis functions
    59 alpha electrons       59 beta electrons
       nuclear repulsion energy      1100.0098638875 Hartrees.
 IExCor= 4639 DFT=T Ex+Corr=wB97XD ExCW=0 ScaHFX=  1.000000
 ScaDFX=  1.000000  1.000000  1.000000  1.000000 ScalE2=  1.000000  1.000000
 IRadAn=      5 IRanWt=     -1 IRanGd=            0 ICorTp=0 IEmpDi=121
 HFx  wShort=  0.000000 wLong=  0.200000 cFull=  0.222036 cShort=  0.000000 cLong=  0.777964
 DFx  wShort=  0.000000 wLong=  0.200000 cFull=  0.000000 cShort=  0.000000 cLong=  1.000000
 NAtoms=   25 NActive=   25 NUniq=   25 SFac= 1.00D+00 NAtFMM=   60 NAOKFM=F Big=F
 Integral buffers will be    131072 words long.
 Raffenetti 1 integral format.
 Two-electron integral symmetry is turned off.
 R6Disp:  Grimme-D2 Dispersion energy=       -0.0138387783 Hartrees.
 Nuclear repulsion after empirical dispersion term =     1099.9960251091 Hartrees.
 ------------------------------------------------------------------------------
 Polarizable Continuum Model (PCM)
 =================================
 Model                : PCM.
 Atomic radii         : UFF (Universal Force Field).
 Polarization charges : Total charges.
 Charge compensation  : None.
 Solution method      : On-the-fly selection.
 Cavity type          : Scaled VdW (van der Waals Surface) (Alpha=1.100).
 Cavity algorithm     : GePol (No added spheres)
                        Default sphere list used, NSphG=   25.
                        Lebedev-Laikov grids with approx.  5.0 points / Ang**2.
                        Smoothing algorithm: York/Karplus (Gamma=1.0000).
                        Polarization charges: spherical gaussians, with
                                              point-specific exponents (IZeta= 3).
                        Self-potential: point-specific (ISelfS= 7).
                        Self-field    : sphere-specific E.n sum rule (ISelfD= 2).
 1st derivatives      : Analytical E(r).r(x)/FMM algorithm (CHGder, D1EAlg=3).
                        Cavity 1st derivative terms included.
 Solvent              : CarbonTetraChloride, Eps=   2.228000 Eps(inf)=   2.131892
 ------------------------------------------------------------------------------
 GePol: Number of generator spheres                  =      25
 GePol: Total number of spheres                      =      25
 GePol: Number of exposed spheres                    =      25 (100.00%)
 GePol: Number of points                             =    2189
 GePol: Average weight of points                     =       0.12
 GePol: Minimum weight of points                     =   0.24D-10
 GePol: Maximum weight of points                     =    0.20577
 GePol: Number of points with low weight             =     145
 GePol: Fraction of low-weight points (<1% of avg)   =       6.62%
 GePol: Cavity surface area                          =    271.652 Ang**2
 GePol: Cavity volume                                =    292.099 Ang**3
 Leave Link  301 at Mon Jul 13 13:32:35 2020, MaxMem=  7784628224 cpu:               0.8 elap:               0.1
 (Enter /gpfs/loomis/apps/avx/software/Gaussian/16-C.01_AVX/g16/l302.exe)
 NPDir=0 NMtPBC=     1 NCelOv=     1 NCel=       1 NClECP=     1 NCelD=      1
         NCelK=      1 NCelE2=     1 NClLst=     1 CellRange=     0.0.
 One-electron integrals computed using PRISM.
 NBasis=   273 RedAO= T EigKep=  3.22D-04  NBF=   273
 NBsUse=   273 1.00D-06 EigRej= -1.00D+00 NBFU=   273
 Precomputing XC quadrature grid using
 IXCGrd= 4 IRadAn=           5 IRanWt=          -1 IRanGd=           0 AccXCQ= 0.00D+00.
 Generated NRdTot=       0 NPtTot=           0 NUsed=           0 NTot=          32
 NSgBfM=   288   288   288   288   288 MxSgAt=    25 MxSgA2=    25.
 Leave Link  302 at Mon Jul 13 13:32:35 2020, MaxMem=  7784628224 cpu:               2.8 elap:               0.3
 (Enter /gpfs/loomis/apps/avx/software/Gaussian/16-C.01_AVX/g16/l303.exe)
 DipDrv:  MaxL=1.
 Leave Link  303 at Mon Jul 13 13:32:35 2020, MaxMem=  7784628224 cpu:               0.5 elap:               0.1
 (Enter /gpfs/loomis/apps/avx/software/Gaussian/16-C.01_AVX/g16/l308.exe)
 Leave Link  308 at Mon Jul 13 13:32:35 2020, MaxMem=  7784628224 cpu:               0.6 elap:               0.1
 (Enter /gpfs/loomis/apps/avx/software/Gaussian/16-C.01_AVX/g16/l401.exe)
 ExpMin= 1.22D-01 ExpMax= 1.11D+05 ExpMxC= 1.07D+03 IAcc=3 IRadAn=         5 AccDes= 0.00D+00
 Harris functional with IExCor= 4639 and IRadAn=       5 diagonalized for initial guess.
 HarFok:  IExCor= 4639 AccDes= 0.00D+00 IRadAn=         5 IDoV= 1 UseB2=F ITyADJ=14
 ICtDFT=  3500011 ScaDFX=  1.000000  1.000000  1.000000  1.000000
 FoFCou: FMM=F IPFlag=           0 FMFlag=      100000 FMFlg1=           0
         NFxFlg=           0 DoJE=T BraDBF=F KetDBF=T FulRan=T
         wScrn=  0.000000 ICntrl=       500 IOpCl=  0 I1Cent=   200000004 NGrid=           0
         NMat0=    1 NMatS0=      1 NMatT0=    0 NMatD0=    1 NMtDS0=    0 NMtDT0=    0
 Symmetry not used in FoFCou.
 Harris En= -994.454224108183    
 JPrj=0 DoOrth=F DoCkMO=F.
 Leave Link  401 at Mon Jul 13 13:32:37 2020, MaxMem=  7784628224 cpu:              13.9 elap:               1.4
 (Enter /gpfs/loomis/apps/avx/software/Gaussian/16-C.01_AVX/g16/l502.exe)
 Two-electron integral symmetry not used.
 Closed shell SCF:
 Using DIIS extrapolation, IDIIS=  1040.
 NGot=  7784628224 LenX=  7784455381 LenY=  7784371419
 Requested convergence on RMS density matrix=1.00D-08 within 128 cycles.
 Requested convergence on MAX density matrix=1.00D-06.
 Requested convergence on             energy=1.00D-06.
 No special actions if energy rises.
 Fock matrices will be formed incrementally for  20 cycles.

 Cycle   1  Pass 1  IDiag  1:
 FoFJK:  IHMeth= 1 ICntrl=       0 DoSepK=T KAlg= 0 I1Cent=           0 FoldK=F
 IRaf=         1 NMat=       1 IRICut=       1 DoRegI=T DoRafI=F ISym2E= 0 IDoP0=0 IntGTp=1.
 FoFCou: FMM=F IPFlag=           0 FMFlag=      100000 FMFlg1=           0
         NFxFlg=           0 DoJE=T BraDBF=F KetDBF=F FulRan=T
         wScrn=  0.000000 ICntrl=       500 IOpCl=  0 I1Cent=           0 NGrid=           0
         NMat0=    1 NMatS0=      1 NMatT0=    0 NMatD0=    1 NMtDS0=    0 NMtDT0=    0
 Symmetry not used in FoFCou.
 Inv3:  Mode=1 IEnd=    14375163.
 Iteration    1 A*A^-1 deviation from unit magnitude is 2.78D-15 for   2186.
 Iteration    1 A*A^-1 deviation from orthogonality  is 1.68D-15 for   2187   2095.
 Iteration    1 A^-1*A deviation from unit magnitude is 2.78D-15 for   2186.
 Iteration    1 A^-1*A deviation from orthogonality  is 1.47D-15 for   2173   2089.
 E= -1028.59095613047    
 DIIS: error= 3.03D-02 at cycle   1 NSaved=   1.
 NSaved= 1 IEnMin= 1 EnMin= -1028.59095613047     IErMin= 1 ErrMin= 3.03D-02
 ErrMax= 3.03D-02  0.00D+00 EMaxC= 1.00D-01 BMatC= 3.85D-01 BMatP= 3.85D-01
 IDIUse=3 WtCom= 6.97D-01 WtEn= 3.03D-01
 Coeff-Com:  0.100D+01
 Coeff-En:   0.100D+01
 Coeff:      0.100D+01
 Gap=     0.351 Goal=   None    Shift=    0.000
 GapD=    0.351 DampG=1.000 DampE=0.500 DampFc=0.5000 IDamp=-1.
 Damping current iteration by 5.00D-01
 RMSDP=3.47D-03 MaxDP=2.20D-01              OVMax= 1.67D-01

 Cycle   2  Pass 1  IDiag  1:
 RMSU=  1.73D-03    CP:  9.93D-01
 E= -1028.70450276206     Delta-E=       -0.113546631594 Rises=F Damp=T
 DIIS: error= 1.11D-02 at cycle   2 NSaved=   2.
 NSaved= 2 IEnMin= 2 EnMin= -1028.70450276206     IErMin= 2 ErrMin= 1.11D-02
 ErrMax= 1.11D-02  0.00D+00 EMaxC= 1.00D-01 BMatC= 5.74D-02 BMatP= 3.85D-01
 IDIUse=3 WtCom= 8.89D-01 WtEn= 1.11D-01
 Coeff-Com: -0.306D+00 0.131D+01
 Coeff-En:   0.000D+00 0.100D+01
 Coeff:     -0.272D+00 0.127D+01
 Gap=     0.305 Goal=   None    Shift=    0.000
 RMSDP=1.12D-03 MaxDP=2.26D-02 DE=-1.14D-01 OVMax= 1.06D-01

 Cycle   3  Pass 1  IDiag  1:
 RMSU=  1.06D-03    CP:  9.91D-01  1.21D+00
 E= -1028.80463163623     Delta-E=       -0.100128874164 Rises=F Damp=F
 DIIS: error= 5.89D-03 at cycle   3 NSaved=   3.
 NSaved= 3 IEnMin= 3 EnMin= -1028.80463163623     IErMin= 3 ErrMin= 5.89D-03
 ErrMax= 5.89D-03  0.00D+00 EMaxC= 1.00D-01 BMatC= 1.23D-02 BMatP= 5.74D-02
 IDIUse=3 WtCom= 9.41D-01 WtEn= 5.89D-02
 Coeff-Com: -0.202D+00 0.475D+00 0.727D+00
 Coeff-En:   0.000D+00 0.000D+00 0.100D+01
 Coeff:     -0.190D+00 0.447D+00 0.744D+00
 Gap=     0.265 Goal=   None    Shift=    0.000
 RMSDP=4.95D-04 MaxDP=1.86D-02 DE=-1.00D-01 OVMax= 3.72D-02

 Cycle   4  Pass 1  IDiag  1:
 RMSU=  3.77D-04    CP:  9.88D-01  1.37D+00  8.58D-01
 E= -1028.81623006202     Delta-E=       -0.011598425791 Rises=F Damp=F
 DIIS: error= 1.85D-03 at cycle   4 NSaved=   4.
 NSaved= 4 IEnMin= 4 EnMin= -1028.81623006202     IErMin= 4 ErrMin= 1.85D-03
 ErrMax= 1.85D-03  0.00D+00 EMaxC= 1.00D-01 BMatC= 1.41D-03 BMatP= 1.23D-02
 IDIUse=3 WtCom= 9.81D-01 WtEn= 1.85D-02
 Coeff-Com: -0.711D-01 0.141D+00 0.349D+00 0.582D+00
 Coeff-En:   0.000D+00 0.000D+00 0.000D+00 0.100D+01
 Coeff:     -0.698D-01 0.138D+00 0.342D+00 0.589D+00
 Gap=     0.263 Goal=   None    Shift=    0.000
 RMSDP=1.51D-04 MaxDP=8.37D-03 DE=-1.16D-02 OVMax= 1.13D-02

 Cycle   5  Pass 1  IDiag  1:
 RMSU=  9.75D-05    CP:  9.89D-01  1.38D+00  9.22D-01  7.58D-01
 E= -1028.81768836370     Delta-E=       -0.001458301684 Rises=F Damp=F
 DIIS: error= 3.30D-04 at cycle   5 NSaved=   5.
 NSaved= 5 IEnMin= 5 EnMin= -1028.81768836370     IErMin= 5 ErrMin= 3.30D-04
 ErrMax= 3.30D-04  0.00D+00 EMaxC= 1.00D-01 BMatC= 4.79D-05 BMatP= 1.41D-03
 IDIUse=3 WtCom= 9.97D-01 WtEn= 3.30D-03
 Coeff-Com: -0.637D-03-0.450D-02 0.344D-01 0.163D+00 0.808D+00
 Coeff-En:   0.000D+00 0.000D+00 0.000D+00 0.000D+00 0.100D+01
 Coeff:     -0.635D-03-0.448D-02 0.343D-01 0.162D+00 0.808D+00
 Gap=     0.263 Goal=   None    Shift=    0.000
 RMSDP=4.97D-05 MaxDP=1.52D-03 DE=-1.46D-03 OVMax= 4.69D-03

 Cycle   6  Pass 1  IDiag  1:
 RMSU=  3.21D-05    CP:  9.88D-01  1.38D+00  9.40D-01  8.39D-01  1.07D+00
 E= -1028.81778411742     Delta-E=       -0.000095753714 Rises=F Damp=F
 DIIS: error= 1.60D-04 at cycle   6 NSaved=   6.
 NSaved= 6 IEnMin= 6 EnMin= -1028.81778411742     IErMin= 6 ErrMin= 1.60D-04
 ErrMax= 1.60D-04  0.00D+00 EMaxC= 1.00D-01 BMatC= 7.42D-06 BMatP= 4.79D-05
 IDIUse=3 WtCom= 9.98D-01 WtEn= 1.60D-03
 Coeff-Com:  0.141D-01-0.290D-01-0.541D-01-0.545D-01 0.212D+00 0.912D+00
 Coeff-En:   0.000D+00 0.000D+00 0.000D+00 0.000D+00 0.000D+00 0.100D+01
 Coeff:      0.141D-01-0.290D-01-0.540D-01-0.545D-01 0.212D+00 0.912D+00
 Gap=     0.264 Goal=   None    Shift=    0.000
 RMSDP=2.70D-05 MaxDP=1.50D-03 DE=-9.58D-05 OVMax= 2.46D-03

 Cycle   7  Pass 1  IDiag  1:
 RMSU=  1.45D-05    CP:  9.88D-01  1.38D+00  9.51D-01  8.67D-01  1.23D+00
                    CP:  1.17D+00
 E= -1028.81780631629     Delta-E=       -0.000022198869 Rises=F Damp=F
 DIIS: error= 8.01D-05 at cycle   7 NSaved=   7.
 NSaved= 7 IEnMin= 7 EnMin= -1028.81780631629     IErMin= 7 ErrMin= 8.01D-05
 ErrMax= 8.01D-05  0.00D+00 EMaxC= 1.00D-01 BMatC= 1.80D-06 BMatP= 7.42D-06
 IDIUse=1 WtCom= 1.00D+00 WtEn= 0.00D+00
 Coeff-Com:  0.624D-02-0.120D-01-0.281D-01-0.447D-01-0.171D-01 0.398D+00
 Coeff-Com:  0.697D+00
 Coeff:      0.624D-02-0.120D-01-0.281D-01-0.447D-01-0.171D-01 0.398D+00
 Coeff:      0.697D+00
 Gap=     0.264 Goal=   None    Shift=    0.000
 RMSDP=9.20D-06 MaxDP=4.01D-04 DE=-2.22D-05 OVMax= 1.05D-03

 Cycle   8  Pass 1  IDiag  1:
 RMSU=  5.45D-06    CP:  9.88D-01  1.38D+00  9.53D-01  8.74D-01  1.26D+00
                    CP:  1.35D+00  1.10D+00
 E= -1028.81780964860     Delta-E=       -0.000003332315 Rises=F Damp=F
 DIIS: error= 2.82D-05 at cycle   8 NSaved=   8.
 NSaved= 8 IEnMin= 8 EnMin= -1028.81780964860     IErMin= 8 ErrMin= 2.82D-05
 ErrMax= 2.82D-05  0.00D+00 EMaxC= 1.00D-01 BMatC= 2.09D-07 BMatP= 1.80D-06
 IDIUse=1 WtCom= 1.00D+00 WtEn= 0.00D+00
 Coeff-Com: -0.124D-02 0.270D-02 0.378D-02 0.126D-02-0.410D-01-0.630D-01
 Coeff-Com:  0.210D+00 0.887D+00
 Coeff:     -0.124D-02 0.270D-02 0.378D-02 0.126D-02-0.410D-01-0.630D-01
 Coeff:      0.210D+00 0.887D+00
 Gap=     0.264 Goal=   None    Shift=    0.000
 RMSDP=4.11D-06 MaxDP=1.40D-04 DE=-3.33D-06 OVMax= 4.97D-04

 Cycle   9  Pass 1  IDiag  1:
 RMSU=  1.93D-06    CP:  9.88D-01  1.38D+00  9.52D-01  8.73D-01  1.27D+00
                    CP:  1.41D+00  1.29D+00  1.12D+00
 E= -1028.81781021476     Delta-E=       -0.000000566162 Rises=F Damp=F
 DIIS: error= 1.15D-05 at cycle   9 NSaved=   9.
 NSaved= 9 IEnMin= 9 EnMin= -1028.81781021476     IErMin= 9 ErrMin= 1.15D-05
 ErrMax= 1.15D-05  0.00D+00 EMaxC= 1.00D-01 BMatC= 2.46D-08 BMatP= 2.09D-07
 IDIUse=1 WtCom= 1.00D+00 WtEn= 0.00D+00
 Coeff-Com: -0.981D-03 0.195D-02 0.397D-02 0.558D-02-0.943D-02-0.665D-01
 Coeff-Com: -0.217D-01 0.221D+00 0.866D+00
 Coeff:     -0.981D-03 0.195D-02 0.397D-02 0.558D-02-0.943D-02-0.665D-01
 Coeff:     -0.217D-01 0.221D+00 0.866D+00
 Gap=     0.264 Goal=   None    Shift=    0.000
 RMSDP=1.69D-06 MaxDP=5.69D-05 DE=-5.66D-07 OVMax= 2.30D-04

 Cycle  10  Pass 1  IDiag  1:
 RMSU=  7.97D-07    CP:  9.88D-01  1.38D+00  9.52D-01  8.73D-01  1.27D+00
                    CP:  1.43D+00  1.36D+00  1.26D+00  1.20D+00
 E= -1028.81781030778     Delta-E=       -0.000000093014 Rises=F Damp=F
 DIIS: error= 6.87D-06 at cycle  10 NSaved=  10.
 NSaved=10 IEnMin=10 EnMin= -1028.81781030778     IErMin=10 ErrMin= 6.87D-06
 ErrMax= 6.87D-06  0.00D+00 EMaxC= 1.00D-01 BMatC= 5.71D-09 BMatP= 2.46D-08
 IDIUse=1 WtCom= 1.00D+00 WtEn= 0.00D+00
 Coeff-Com: -0.975D-04 0.157D-03 0.612D-03 0.181D-02 0.341D-02-0.148D-01
 Coeff-Com: -0.352D-01-0.736D-01 0.288D+00 0.830D+00
 Coeff:     -0.975D-04 0.157D-03 0.612D-03 0.181D-02 0.341D-02-0.148D-01
 Coeff:     -0.352D-01-0.736D-01 0.288D+00 0.830D+00
 Gap=     0.264 Goal=   None    Shift=    0.000
 RMSDP=7.64D-07 MaxDP=2.48D-05 DE=-9.30D-08 OVMax= 1.23D-04

 Cycle  11  Pass 1  IDiag  1:
 RMSU=  3.18D-07    CP:  9.88D-01  1.38D+00  9.52D-01  8.73D-01  1.27D+00
                    CP:  1.44D+00  1.38D+00  1.32D+00  1.44D+00  1.24D+00
 E= -1028.81781032846     Delta-E=       -0.000000020681 Rises=F Damp=F
 DIIS: error= 2.37D-06 at cycle  11 NSaved=  11.
 NSaved=11 IEnMin=11 EnMin= -1028.81781032846     IErMin=11 ErrMin= 2.37D-06
 ErrMax= 2.37D-06  0.00D+00 EMaxC= 1.00D-01 BMatC= 1.14D-09 BMatP= 5.71D-09
 IDIUse=1 WtCom= 1.00D+00 WtEn= 0.00D+00
 Coeff-Com:  0.168D-03-0.345D-03-0.619D-03-0.476D-03 0.321D-02 0.672D-02
 Coeff-Com: -0.237D-02-0.659D-01-0.743D-01 0.238D+00 0.896D+00
 Coeff:      0.168D-03-0.345D-03-0.619D-03-0.476D-03 0.321D-02 0.672D-02
 Coeff:     -0.237D-02-0.659D-01-0.743D-01 0.238D+00 0.896D+00
 Gap=     0.264 Goal=   None    Shift=    0.000
 RMSDP=3.88D-07 MaxDP=1.02D-05 DE=-2.07D-08 OVMax= 6.76D-05

 Cycle  12  Pass 1  IDiag  1:
 RMSU=  1.59D-07    CP:  9.88D-01  1.38D+00  9.52D-01  8.74D-01  1.27D+00
                    CP:  1.44D+00  1.39D+00  1.33D+00  1.55D+00  1.52D+00
                    CP:  1.22D+00
 E= -1028.81781033338     Delta-E=       -0.000000004924 Rises=F Damp=F
 DIIS: error= 1.23D-06 at cycle  12 NSaved=  12.
 NSaved=12 IEnMin=12 EnMin= -1028.81781033338     IErMin=12 ErrMin= 1.23D-06
 ErrMax= 1.23D-06  0.00D+00 EMaxC= 1.00D-01 BMatC= 3.69D-10 BMatP= 1.14D-09
 IDIUse=1 WtCom= 1.00D+00 WtEn= 0.00D+00
 Coeff-Com:  0.972D-04-0.190D-03-0.425D-03-0.642D-03 0.825D-03 0.602D-02
 Coeff-Com:  0.890D-02-0.140D-01-0.106D+00-0.115D+00 0.403D+00 0.818D+00
 Coeff:      0.972D-04-0.190D-03-0.425D-03-0.642D-03 0.825D-03 0.602D-02
 Coeff:      0.890D-02-0.140D-01-0.106D+00-0.115D+00 0.403D+00 0.818D+00
 Gap=     0.264 Goal=   None    Shift=    0.000
 RMSDP=2.09D-07 MaxDP=4.93D-06 DE=-4.92D-09 OVMax= 3.19D-05

 Cycle  13  Pass 1  IDiag  1:
 RMSU=  7.36D-08    CP:  9.88D-01  1.38D+00  9.52D-01  8.74D-01  1.27D+00
                    CP:  1.44D+00  1.39D+00  1.34D+00  1.61D+00  1.65D+00
                    CP:  1.53D+00  1.06D+00
 E= -1028.81781033457     Delta-E=       -0.000000001189 Rises=F Damp=F
 DIIS: error= 4.40D-07 at cycle  13 NSaved=  13.
 NSaved=13 IEnMin=13 EnMin= -1028.81781033457     IErMin=13 ErrMin= 4.40D-07
 ErrMax= 4.40D-07  0.00D+00 EMaxC= 1.00D-01 BMatC= 4.05D-11 BMatP= 3.69D-10
 IDIUse=1 WtCom= 1.00D+00 WtEn= 0.00D+00
 Coeff-Com: -0.184D-05 0.654D-05-0.180D-04-0.117D-03-0.192D-03 0.649D-03
 Coeff-Com:  0.403D-02 0.675D-02-0.192D-01-0.822D-01-0.313D-01 0.268D+00
 Coeff-Com:  0.853D+00
 Coeff:     -0.184D-05 0.654D-05-0.180D-04-0.117D-03-0.192D-03 0.649D-03
 Coeff:      0.403D-02 0.675D-02-0.192D-01-0.822D-01-0.313D-01 0.268D+00
 Coeff:      0.853D+00
 Gap=     0.264 Goal=   None    Shift=    0.000
 RMSDP=6.81D-08 MaxDP=1.63D-06 DE=-1.19D-09 OVMax= 1.02D-05

 Cycle  14  Pass 1  IDiag  1:
 RMSU=  2.65D-08    CP:  9.88D-01  1.38D+00  9.52D-01  8.74D-01  1.27D+00
                    CP:  1.44D+00  1.39D+00  1.34D+00  1.62D+00  1.70D+00
                    CP:  1.63D+00  1.26D+00  1.10D+00
 E= -1028.81781033468     Delta-E=       -0.000000000105 Rises=F Damp=F
 DIIS: error= 1.21D-07 at cycle  14 NSaved=  14.
 NSaved=14 IEnMin=14 EnMin= -1028.81781033468     IErMin=14 ErrMin= 1.21D-07
 ErrMax= 1.21D-07  0.00D+00 EMaxC= 1.00D-01 BMatC= 5.90D-12 BMatP= 4.05D-11
 IDIUse=1 WtCom= 1.00D+00 WtEn= 0.00D+00
 Coeff-Com: -0.105D-04 0.217D-04 0.374D-04 0.202D-04-0.150D-03-0.444D-03
 Coeff-Com:  0.703D-03 0.399D-02 0.461D-02-0.188D-01-0.523D-01 0.151D-01
 Coeff-Com:  0.331D+00 0.717D+00
 Coeff:     -0.105D-04 0.217D-04 0.374D-04 0.202D-04-0.150D-03-0.444D-03
 Coeff:      0.703D-03 0.399D-02 0.461D-02-0.188D-01-0.523D-01 0.151D-01
 Coeff:      0.331D+00 0.717D+00
 Gap=     0.264 Goal=   None    Shift=    0.000
 RMSDP=1.59D-08 MaxDP=3.19D-07 DE=-1.05D-10 OVMax= 1.98D-06

 Cycle  15  Pass 1  IDiag  1:
 RMSU=  9.63D-09    CP:  9.88D-01  1.38D+00  9.52D-01  8.74D-01  1.27D+00
                    CP:  1.44D+00  1.39D+00  1.34D+00  1.62D+00  1.70D+00
                    CP:  1.64D+00  1.30D+00  1.22D+00  1.03D+00
 E= -1028.81781033470     Delta-E=       -0.000000000021 Rises=F Damp=F
 DIIS: error= 5.96D-08 at cycle  15 NSaved=  15.
 NSaved=15 IEnMin=15 EnMin= -1028.81781033470     IErMin=15 ErrMin= 5.96D-08
 ErrMax= 5.96D-08  0.00D+00 EMaxC= 1.00D-01 BMatC= 8.01D-13 BMatP= 5.90D-12
 IDIUse=1 WtCom= 1.00D+00 WtEn= 0.00D+00
 Coeff-Com: -0.318D-05 0.593D-05 0.172D-04 0.297D-04-0.124D-04-0.308D-03
 Coeff-Com: -0.619D-03-0.193D-03 0.527D-02 0.103D-01-0.108D-01-0.528D-01
 Coeff-Com: -0.614D-01 0.221D+00 0.890D+00
 Coeff:     -0.318D-05 0.593D-05 0.172D-04 0.297D-04-0.124D-04-0.308D-03
 Coeff:     -0.619D-03-0.193D-03 0.527D-02 0.103D-01-0.108D-01-0.528D-01
 Coeff:     -0.614D-01 0.221D+00 0.890D+00
 Gap=     0.264 Goal=   None    Shift=    0.000
 RMSDP=8.89D-09 MaxDP=1.95D-07 DE=-2.07D-11 OVMax= 1.09D-06

 Error on total polarization charges =  0.00818
 SCF Done:  E(RwB97XD) =  -1028.81781033     A.U. after   15 cycles
            NFock= 15  Conv=0.89D-08     -V/T= 2.0050
 KE= 1.023708336840D+03 PE=-4.612153483934D+03 EE= 1.459631311650D+03
 Leave Link  502 at Mon Jul 13 13:34:00 2020, MaxMem=  7784628224 cpu:             828.9 elap:              83.6
 (Enter /gpfs/loomis/apps/avx/software/Gaussian/16-C.01_AVX/g16/l801.exe)
 DoSCS=F DFT=T ScalE2(SS,OS)=  1.000000  1.000000
 ExpMin= 1.22D-01 ExpMax= 1.11D+05 ExpMxC= 1.07D+03 IAcc=3 IRadAn=         5 AccDes= 0.00D+00
 HarFok:  IExCor=  205 AccDes= 0.00D+00 IRadAn=         5 IDoV=-2 UseB2=F ITyADJ=14
 ICtDFT= 12500011 ScaDFX=  1.000000  1.000000  1.000000  1.000000
 Largest valence mixing into a core orbital is  9.44D-05
 Largest core mixing into a valence orbital is  3.41D-05
 Range of M.O.s used for correlation:    21   273
 NBasis=   273 NAE=    59 NBE=    59 NFC=    20 NFV=     0
 NROrb=    253 NOA=    39 NOB=    39 NVA=   214 NVB=   214

 **** Warning!!: The largest alpha MO coefficient is  0.11177800D+02

 Leave Link  801 at Mon Jul 13 13:34:00 2020, MaxMem=  7784628224 cpu:               1.1 elap:               0.1
 (Enter /gpfs/loomis/apps/avx/software/Gaussian/16-C.01_AVX/g16/l914.exe)
 RHF ground state
 Keep R1, R2, and R3 ints in memory in canonical form, NReq=4262515490.
 FoFCou: FMM=F IPFlag=           0 FMFlag=           0 FMFlg1=           0
         NFxFlg=           0 DoJE=F BraDBF=F KetDBF=F FulRan=T
         wScrn=  0.000000 ICntrl=       600 IOpCl=  0 I1Cent=           0 NGrid=           0
         NMat0=    1 NMatS0=  37401 NMatT0=    0 NMatD0=    1 NMtDS0=    0 NMtDT0=    0
 Symmetry not used in FoFCou.
 Two-electron integral symmetry not used.
 MDV=  7784628224 DFT=T DoStab=F Mixed=T DoRPA=T DoScal=F NonHer=T
 NEqPCM:  Using equilibrium solvation (IEInf=0, Eps=   2.2280, EpsInf=   2.1319)
 Making orbital integer symmetry assigments:
    12 initial guesses have been made.
 Convergence on wavefunction:    0.000001000000000
 Davidson Disk Diagonalization:  ConvIn= 1.00D-06 SkipCon=T Conv= 1.00D-06.
 Max sub-space:  2000 roots to seek:    12 dimension of matrix:        16692
 Iteration     1 Dimension    12 NMult     0 NNew     12
 CISAX will form    12 AO SS matrices at one time.
 NMat=    12 NSing=    12 JSym2X= 0.
 New state      2 was old state      3
 New state      3 was old state      2
 Excitation Energies [eV] at current iteration:
 Root      1 :     4.007544477762262
 Root      2 :     4.931897880933968
 Root      3 :     5.087889192673286
 Root      4 :     5.317682225684573
 Root      5 :     6.039633509335424
 Root      6 :     6.240583957583736
 Root      7 :     6.311879030561662
 Root      8 :     6.539586201170315
 Root      9 :     6.885145271933379
 Root     10 :     7.284894739571233
 Root     11 :     7.456679433738588
 Root     12 :     7.903948965769046
 Iteration     2 Dimension    18 NMult    12 NNew      6
 CISAX will form     6 AO SS matrices at one time.
 NMat=     6 NSing=     6 JSym2X= 0.
 Root      1 not converged, maximum delta is    0.039237558495604
 Root      2 not converged, maximum delta is    0.187833720827637
 Root      3 not converged, maximum delta is    0.183678323700463
 Excitation Energies [eV] at current iteration:
 Root      1 :     3.535526878399141   Change is   -0.472017599363121
 Root      2 :     4.436776873194137   Change is   -0.495121007739832
 Root      3 :     4.673956023284368   Change is   -0.413933169388918
 Iteration     3 Dimension    24 NMult    18 NNew      6
 CISAX will form     6 AO SS matrices at one time.
 NMat=     6 NSing=     6 JSym2X= 0.
 Root      1 not converged, maximum delta is    0.024075503420727
 Root      2 not converged, maximum delta is    0.030390074966790
 Root      3 not converged, maximum delta is    0.029245097192390
 Excitation Energies [eV] at current iteration:
 Root      1 :     3.498372874904438   Change is   -0.037154003494704
 Root      2 :     4.399805299390495   Change is   -0.036971573803641
 Root      3 :     4.632124713064362   Change is   -0.041831310220005
 Iteration     4 Dimension    30 NMult    24 NNew      6
 CISAX will form     6 AO SS matrices at one time.
 NMat=     6 NSing=     6 JSym2X= 0.
 Root      1 not converged, maximum delta is    0.008147090436042
 Root      2 not converged, maximum delta is    0.008164074190550
 Root      3 not converged, maximum delta is    0.008144920730590
 Excitation Energies [eV] at current iteration:
 Root      1 :     3.494635172104694   Change is   -0.003737702799743
 Root      2 :     4.394314036620902   Change is   -0.005491262769593
 Root      3 :     4.627562145722345   Change is   -0.004562567342018
 Iteration     5 Dimension    36 NMult    30 NNew      6
 CISAX will form     6 AO SS matrices at one time.
 NMat=     6 NSing=     6 JSym2X= 0.
 Root      1 not converged, maximum delta is    0.002778183851909
 Root      2 not converged, maximum delta is    0.002507397580446
 Root      3 not converged, maximum delta is    0.002977285614869
 Excitation Energies [eV] at current iteration:
 Root      1 :     3.494230877460717   Change is   -0.000404294643978
 Root      2 :     4.393804598357968   Change is   -0.000509438262935
 Root      3 :     4.626927330591825   Change is   -0.000634815130519
 Iteration     6 Dimension    42 NMult    36 NNew      6
 CISAX will form     6 AO SS matrices at one time.
 NMat=     6 NSing=     6 JSym2X= 0.
 Root      1 not converged, maximum delta is    0.000545328925098
 Root      2 not converged, maximum delta is    0.000598393351638
 Root      3 not converged, maximum delta is    0.000883450548584
 Excitation Energies [eV] at current iteration:
 Root      1 :     3.494191879959456   Change is   -0.000038997501261
 Root      2 :     4.393762488563494   Change is   -0.000042109794474
 Root      3 :     4.626870676786178   Change is   -0.000056653805648
 Iteration     7 Dimension    48 NMult    42 NNew      6
 CISAX will form     6 AO SS matrices at one time.
 NMat=     6 NSing=     6 JSym2X= 0.
 Root      1 not converged, maximum delta is    0.000116908452751
 Root      2 not converged, maximum delta is    0.000235040156438
 Root      3 not converged, maximum delta is    0.000349381443167
 Excitation Energies [eV] at current iteration:
 Root      1 :     3.494188713214105   Change is   -0.000003166745352
 Root      2 :     4.393758205665677   Change is   -0.000004282897817
 Root      3 :     4.626865169461921   Change is   -0.000005507324257
 Iteration     8 Dimension    54 NMult    48 NNew      6
 CISAX will form     6 AO SS matrices at one time.
 NMat=     6 NSing=     6 JSym2X= 0.
 Root      1 not converged, maximum delta is    0.000024802462167
 Root      2 not converged, maximum delta is    0.000062237571982
 Root      3 not converged, maximum delta is    0.000074712047919
 Excitation Energies [eV] at current iteration:
 Root      1 :     3.494188569451391   Change is   -0.000000143762713
 Root      2 :     4.393757881847596   Change is   -0.000000323818081
 Root      3 :     4.626864704789304   Change is   -0.000000464672617
 Iteration     9 Dimension    60 NMult    54 NNew      6
 CISAX will form     6 AO SS matrices at one time.
 NMat=     6 NSing=     6 JSym2X= 0.
 Root      1 not converged, maximum delta is    0.000005230812867
 Root      2 not converged, maximum delta is    0.000015317745506
 Root      3 not converged, maximum delta is    0.000015964322536
 Excitation Energies [eV] at current iteration:
 Root      1 :     3.494188560626347   Change is   -0.000000008825044
 Root      2 :     4.393757863054978   Change is   -0.000000018792619
 Root      3 :     4.626864673644679   Change is   -0.000000031144625
 Iteration    10 Dimension    66 NMult    60 NNew      6
 CISAX will form     6 AO SS matrices at one time.
 NMat=     6 NSing=     6 JSym2X= 0.
 Root      1 has converged.
 Root      2 not converged, maximum delta is    0.000002612750894
 Root      3 not converged, maximum delta is    0.000002875097881
 Excitation Energies [eV] at current iteration:
 Root      1 :     3.494188560328826   Change is   -0.000000000297521
 Root      2 :     4.393757861824229   Change is   -0.000000001230749
 Root      3 :     4.626864672081056   Change is   -0.000000001563623
 Iteration    11 Dimension    70 NMult    66 NNew      4
 CISAX will form     4 AO SS matrices at one time.
 NMat=     4 NSing=     4 JSym2X= 0.
 Root      1 has converged.
 Root      2 has converged.
 Root      3 has converged.
 Excitation Energies [eV] at current iteration:
 Root      1 :     3.494188560326191   Change is   -0.000000000002635
 Root      2 :     4.393757861749800   Change is   -0.000000000074429
 Root      3 :     4.626864672010591   Change is   -0.000000000070466
 Convergence achieved on expansion vectors.
 ***********************************************************************
 Excited states from <AA,BB:AA,BB> singles matrix:
 ***********************************************************************
 
 1PDM for each excited state written to RWF  633
 Ground to excited state transition densities written to RWF  633
 Ground to excited state transition electric dipole moments (Au):
       state          X           Y           Z        Dip. S.      Osc.
         1        -1.6534      2.2048      0.0000      7.5952      0.6502
         2         1.3071     -0.4815     -0.0000      1.9404      0.2089
         3        -0.8697     -0.0296      0.0000      0.7573      0.0858
 Ground to excited state transition velocity dipole moments (Au):
       state          X           Y           Z        Dip. S.      Osc.
         1         0.2065     -0.2825     -0.0000      0.1224      0.6356
         2        -0.2070      0.0694      0.0000      0.0477      0.1968
         3         0.1464      0.0051     -0.0000      0.0215      0.0841
 Ground to excited state transition magnetic dipole moments (Au):
       state          X           Y           Z
         1        -0.0000     -0.0000      0.5436
         2         0.0000     -0.0000      1.3049
         3         0.0000     -0.0000      0.0496
 Ground to excited state transition velocity quadrupole moments (Au):
       state          XX          YY          ZZ          XY          XZ          YZ
         1        -0.0375     -0.4674      0.0130      0.2554      0.0000     -0.0000
         2         0.3361     -0.7763      0.0039      0.1326     -0.0000     -0.0000
         3         0.4494     -0.0037     -0.0270     -0.2821     -0.0000     -0.0000
 <0|del|b> * <b|rxdel|0> + <0|del|b> * <b|delr+rdel|0>
 Rotatory Strengths (R) in cgs (10**-40 erg-esu-cm/Gauss)
       state          XX          YY          ZZ    R(velocity)    E-M Angle
         1         0.0121     -0.0096      0.0187      0.0071       90.00
         2         0.0022      0.0028     -0.0068     -0.0006       90.00
         3         0.0000      0.0022      0.0026      0.0016       90.00
 1/2[<0|r|b>*<b|rxdel|0> + (<0|rxdel|b>*<b|r|0>)*]
 Rotatory Strengths (R) in cgs (10**-40 erg-esu-cm/Gauss)
       state          XX          YY          ZZ     R(length)
         1        -0.0015      0.0340     -0.0119      0.0069
         2        -0.0049     -0.0013      0.0047     -0.0005
         3         0.0051     -0.0002     -0.0001      0.0016
  1/2[<0|del|b>*<b|r|0> + (<0|r|b>*<b|del|0>)*] (Au)
       state          X           Y           Z        Dip. S.   Osc.(frdel)
         1        -0.3414     -0.6228     -0.0000      0.9642      0.6428
         2        -0.2705     -0.0334     -0.0000      0.3040      0.2026
         3        -0.1273     -0.0002     -0.0000      0.1275      0.0850

 Excitation energies and oscillator strengths:
 
 Excited state symmetry could not be determined.
 Excited State   1:      Singlet-?Sym    3.4942 eV  354.83 nm  f=0.6502  <S**2>=0.000
      59 -> 60         0.68865
 This state for optimization and/or second-order correction.
 Total Energy, E(TD-HF/TD-DFT) =  -1028.68940127    
 Copying the excited state density for this state as the 1-particle RhoCI density.
 
 Excited state symmetry could not be determined.
 Excited State   2:      Singlet-?Sym    4.3938 eV  282.18 nm  f=0.2089  <S**2>=0.000
      57 -> 60         0.28055
      58 -> 60         0.60098
      59 -> 62         0.11801
      59 -> 63         0.10311
 
 Excited state symmetry could not be determined.
 Excited State   3:      Singlet-?Sym    4.6269 eV  267.97 nm  f=0.0858  <S**2>=0.000
      57 -> 60         0.55787
      57 -> 62        -0.13695
      58 -> 60        -0.27688
      58 -> 61        -0.12703
      59 -> 61         0.20949
 SavETr:  write IOETrn=   770 NScale= 10 NData=  16 NLR=1 NState=    3 LETran=      64.
 The selected state is a singlet.
 CISGrd: IGrad=2 NXY=2 DFT=T
 CISAX will form     1 AO SS matrices at one time.
 NMat=     1 NSing=     1 JSym2X= 0.
 GePol: Maximum number of non-zero 1st derivatives   =     253
 Leave Link  914 at Mon Jul 13 13:36:39 2020, MaxMem=  7784628224 cpu:            1559.2 elap:             158.7
 (Enter /gpfs/loomis/apps/avx/software/Gaussian/16-C.01_AVX/g16/l1002.exe)
 Minotr:  Closed shell wavefunction.
          Computing CIS/TDA/TD derivatives.
          Using Z-Vector for PSCF gradient.
          Skipping F1 and S1 gradient terms here.
          IDoAtm=1111111111111111111111111
 NEqPCM:  Using equilibrium solvation (IEInf=0, Eps=   2.2280, EpsInf=   2.1319)
          Frozen-core window.
          Direct CPHF calculation.
          Differentiating once with respect to electric field.
                with respect to dipole field.
          Differentiating once with respect to nuclear coordinates.
          Requested convergence is 1.0D-10 RMS, and 1.0D-09 maximum.
          NewPWx=F KeepS1=T KeepF1=T KeepIn=T MapXYZ=F SortEE=F KeepMc=T.
 Keep R1 ints in memory in canonical form, NReq=1421479939.
 FoFCou: FMM=F IPFlag=           0 FMFlag=           0 FMFlg1=           0
         NFxFlg=           0 DoJE=F BraDBF=F KetDBF=F FulRan=T
         wScrn=  0.000000 ICntrl=       600 IOpCl=  0 I1Cent=           0 NGrid=           0
         NMat0=    1 NMatS0=  37401 NMatT0=    0 NMatD0=    1 NMtDS0=    0 NMtDT0=    0
 Symmetry not used in FoFCou.
 Two-electron integral symmetry not used.
          MDV=    7784628224 using IRadAn=       5.
          Solving linear equations separately, MaxMat=       0.
          There are     1 degrees of freedom in the 1st order CPHF.  IDoFFX=0 NUNeed=     1.
 LinEq1:  Iter=  0 NonCon=     1 RMS=4.23D-03 Max=2.10D-01 NDo=     1
 AX will form     1 AO Fock derivatives at one time.
 LinEq1:  Iter=  1 NonCon=     1 RMS=1.63D-03 Max=6.76D-02 NDo=     1
 LinEq1:  Iter=  2 NonCon=     1 RMS=9.52D-04 Max=3.84D-02 NDo=     1
 LinEq1:  Iter=  3 NonCon=     1 RMS=3.52D-04 Max=1.15D-02 NDo=     1
 LinEq1:  Iter=  4 NonCon=     1 RMS=1.80D-04 Max=7.39D-03 NDo=     1
 LinEq1:  Iter=  5 NonCon=     1 RMS=9.28D-05 Max=2.62D-03 NDo=     1
 LinEq1:  Iter=  6 NonCon=     1 RMS=3.37D-05 Max=1.01D-03 NDo=     1
 LinEq1:  Iter=  7 NonCon=     1 RMS=1.81D-05 Max=5.71D-04 NDo=     1
 LinEq1:  Iter=  8 NonCon=     1 RMS=7.71D-06 Max=2.31D-04 NDo=     1
 LinEq1:  Iter=  9 NonCon=     1 RMS=4.65D-06 Max=1.54D-04 NDo=     1
 LinEq1:  Iter= 10 NonCon=     1 RMS=2.15D-06 Max=7.46D-05 NDo=     1
 LinEq1:  Iter= 11 NonCon=     1 RMS=1.07D-06 Max=3.38D-05 NDo=     1
 LinEq1:  Iter= 12 NonCon=     1 RMS=5.74D-07 Max=1.52D-05 NDo=     1
 LinEq1:  Iter= 13 NonCon=     1 RMS=2.44D-07 Max=7.38D-06 NDo=     1
 LinEq1:  Iter= 14 NonCon=     1 RMS=1.02D-07 Max=3.21D-06 NDo=     1
 LinEq1:  Iter= 15 NonCon=     1 RMS=4.36D-08 Max=1.30D-06 NDo=     1
 LinEq1:  Iter= 16 NonCon=     1 RMS=1.75D-08 Max=5.31D-07 NDo=     1
 LinEq1:  Iter= 17 NonCon=     1 RMS=8.32D-09 Max=2.34D-07 NDo=     1
 LinEq1:  Iter= 18 NonCon=     1 RMS=3.08D-09 Max=1.02D-07 NDo=     1
 LinEq1:  Iter= 19 NonCon=     1 RMS=1.09D-09 Max=2.27D-08 NDo=     1
 LinEq1:  Iter= 20 NonCon=     1 RMS=6.14D-10 Max=1.46D-08 NDo=     1
 LinEq1:  Iter= 21 NonCon=     1 RMS=2.25D-10 Max=8.71D-09 NDo=     1
 LinEq1:  Iter= 22 NonCon=     1 RMS=1.02D-10 Max=3.30D-09 NDo=     1
 LinEq1:  Iter= 23 NonCon=     0 RMS=4.24D-11 Max=9.32D-10 NDo=     1
 Linear equations converged to 1.000D-10 1.000D-09 after    23 iterations.
 End of Minotr F.D. properties file   721 does not exist.
 End of Minotr F.D. properties file   722 does not exist.
 End of Minotr F.D. properties file   788 does not exist.
 Leave Link 1002 at Mon Jul 13 13:38:17 2020, MaxMem=  7784628224 cpu:             728.4 elap:              97.4
 (Enter /gpfs/loomis/apps/avx/software/Gaussian/16-C.01_AVX/g16/l601.exe)
 Copying SCF densities to generalized density rwf, IOpCl= 0 IROHF=0.

 **********************************************************************

            Population analysis using the SCF Density.

 **********************************************************************

 Alpha  occ. eigenvalues --  -89.08838 -19.27639 -14.47369 -10.39618 -10.38098
 Alpha  occ. eigenvalues --  -10.35448 -10.34660 -10.32375 -10.32202 -10.32171
 Alpha  occ. eigenvalues --  -10.32106 -10.31844 -10.31550 -10.31504 -10.30646
 Alpha  occ. eigenvalues --  -10.30590  -8.10915  -6.05749  -6.05408  -6.04978
 Alpha  occ. eigenvalues --   -1.17120  -1.08351  -0.96723  -0.95757  -0.92157
 Alpha  occ. eigenvalues --   -0.88750  -0.85012  -0.84453  -0.82389  -0.75959
 Alpha  occ. eigenvalues --   -0.71256  -0.70312  -0.69374  -0.68065  -0.63878
 Alpha  occ. eigenvalues --   -0.60476  -0.59015  -0.58674  -0.55866  -0.54457
 Alpha  occ. eigenvalues --   -0.54031  -0.53350  -0.52928  -0.50651  -0.50340
 Alpha  occ. eigenvalues --   -0.49380  -0.47284  -0.45984  -0.45703  -0.44785
 Alpha  occ. eigenvalues --   -0.44057  -0.42884  -0.42352  -0.40056  -0.36993
 Alpha  occ. eigenvalues --   -0.36434  -0.32059  -0.31449  -0.28164
 Alpha virt. eigenvalues --   -0.01741   0.04993   0.06796   0.07170   0.07776
 Alpha virt. eigenvalues --    0.10988   0.14466   0.15174   0.16906   0.17976
 Alpha virt. eigenvalues --    0.18584   0.21126   0.21602   0.22303   0.22492
 Alpha virt. eigenvalues --    0.23788   0.24041   0.24171   0.28129   0.30128
 Alpha virt. eigenvalues --    0.32388   0.33310   0.34940   0.35854   0.37105
 Alpha virt. eigenvalues --    0.38011   0.38893   0.40747   0.43245   0.43932
 Alpha virt. eigenvalues --    0.46932   0.48313   0.50793   0.51267   0.51450
 Alpha virt. eigenvalues --    0.52079   0.53403   0.54156   0.54658   0.55560
 Alpha virt. eigenvalues --    0.56029   0.56448   0.56935   0.57673   0.58101
 Alpha virt. eigenvalues --    0.58521   0.58624   0.58752   0.59446   0.60359
 Alpha virt. eigenvalues --    0.60729   0.60828   0.61741   0.62691   0.63263
 Alpha virt. eigenvalues --    0.64885   0.65931   0.66579   0.67456   0.69162
 Alpha virt. eigenvalues --    0.70067   0.71025   0.72315   0.72604   0.72830
 Alpha virt. eigenvalues --    0.73182   0.74402   0.75304   0.75968   0.78542
 Alpha virt. eigenvalues --    0.78853   0.79094   0.80168   0.81493   0.82189
 Alpha virt. eigenvalues --    0.84570   0.89015   0.90718   0.91859   0.93901
 Alpha virt. eigenvalues --    0.94994   0.95198   0.95566   0.97058   0.97232
 Alpha virt. eigenvalues --    0.97969   0.98801   1.00451   1.00566   1.01999
 Alpha virt. eigenvalues --    1.02423   1.05679   1.06550   1.07397   1.07658
 Alpha virt. eigenvalues --    1.08170   1.09336   1.09531   1.10580   1.11497
 Alpha virt. eigenvalues --    1.12377   1.12557   1.14037   1.14773   1.15589
 Alpha virt. eigenvalues --    1.15907   1.19853   1.20218   1.21996   1.22105
 Alpha virt. eigenvalues --    1.25282   1.29586   1.33014   1.34225   1.35069
 Alpha virt. eigenvalues --    1.36366   1.36977   1.38933   1.40957   1.47098
 Alpha virt. eigenvalues --    1.48462   1.48972   1.50819   1.53734   1.53960
 Alpha virt. eigenvalues --    1.54601   1.56360   1.56634   1.57117   1.57478
 Alpha virt. eigenvalues --    1.58640   1.59924   1.62064   1.65777   1.66582
 Alpha virt. eigenvalues --    1.68066   1.69375   1.69845   1.69882   1.71110
 Alpha virt. eigenvalues --    1.72284   1.72525   1.72820   1.73460   1.75254
 Alpha virt. eigenvalues --    1.76250   1.77503   1.79807   1.81078   1.82219
 Alpha virt. eigenvalues --    1.82667   1.83095   1.84641   1.84727   1.85012
 Alpha virt. eigenvalues --    1.86492   1.88132   1.88634   1.88905   1.91909
 Alpha virt. eigenvalues --    1.92247   1.92925   1.93371   1.94604   1.96585
 Alpha virt. eigenvalues --    1.99949   2.00139   2.02040   2.03021   2.03320
 Alpha virt. eigenvalues --    2.04819   2.07867   2.08659   2.11479   2.12513
 Alpha virt. eigenvalues --    2.16654   2.17383   2.20186   2.23147   2.24001
 Alpha virt. eigenvalues --    2.26028   2.28636   2.33887   2.36995   2.38628
 Alpha virt. eigenvalues --    2.41575   2.41599   2.43960   2.44987   2.46928
 Alpha virt. eigenvalues --    2.47456   2.49912   2.51217   2.53297   2.61935
 Alpha virt. eigenvalues --    2.63105   2.72506   2.72769   2.75320   2.79245
 Alpha virt. eigenvalues --    2.81048   2.83637   2.85717   2.89631   2.92527
 Alpha virt. eigenvalues --    2.99499   3.04285   3.07819   3.15046   3.33692
 Alpha virt. eigenvalues --    3.45580   3.55556   3.66852   3.94661
          Condensed to atoms (all electrons):
               1          2          3          4          5          6
     1  C    4.748457   0.465716   0.009869  -0.053508  -0.014985   0.520744
     2  C    0.465716   5.306433   0.343078  -0.032554  -0.067515  -0.007711
     3  C    0.009869   0.343078   4.777547   0.485989  -0.004304  -0.062860
     4  C   -0.053508  -0.032554   0.485989   4.783871   0.523593  -0.011695
     5  C   -0.014985  -0.067515  -0.004304   0.523593   4.738854   0.490853
     6  C    0.520744  -0.007711  -0.062860  -0.011695   0.490853   4.743357
     7  H    0.400700  -0.036690   0.008337  -0.000550   0.007963  -0.039911
     8  H   -0.000890   0.011816  -0.034912   0.394612  -0.042944   0.007860
     9  H    0.009056  -0.000785   0.008644  -0.038830   0.404474  -0.045666
    10  H   -0.042399   0.009411  -0.000482   0.008295  -0.042768   0.406013
    11  N    0.007525  -0.060885   0.468247  -0.039067   0.003115  -0.000083
    12  S   -0.071283   0.338128  -0.103924   0.007162   0.000271   0.003977
    13  C   -0.000207   0.003188   0.007158  -0.000558   0.000008   0.000004
    14  C   -0.000012   0.000118   0.000318   0.000007  -0.000000  -0.000000
    15  C    0.000006  -0.000240  -0.000221   0.000021  -0.000000  -0.000000
    16  C    0.000000  -0.000007   0.000006  -0.000000   0.000000  -0.000000
    17  H   -0.000010   0.000180  -0.000001   0.000000   0.000000   0.000000
    18  C    0.000000   0.000007  -0.000021  -0.000000  -0.000000  -0.000000
    19  C   -0.000000   0.000000   0.000002   0.000000   0.000000   0.000000
    20  H   -0.000000  -0.000000  -0.000000   0.000000  -0.000000  -0.000000
    21  H   -0.000000  -0.000000   0.000000   0.000000  -0.000000   0.000000
    22  H    0.000000  -0.000000  -0.000000  -0.000000   0.000000  -0.000000
    23  C    0.004478  -0.052869  -0.125241  -0.000688   0.000283  -0.000188
    24  O    0.000001  -0.000033  -0.001971  -0.000049  -0.000000  -0.000000
    25  H   -0.000064   0.002783  -0.006424  -0.000527  -0.000020   0.000010
               7          8          9         10         11         12
     1  C    0.400700  -0.000890   0.009056  -0.042399   0.007525  -0.071283
     2  C   -0.036690   0.011816  -0.000785   0.009411  -0.060885   0.338128
     3  C    0.008337  -0.034912   0.008644  -0.000482   0.468247  -0.103924
     4  C   -0.000550   0.394612  -0.038830   0.008295  -0.039067   0.007162
     5  C    0.007963  -0.042944   0.404474  -0.042768   0.003115   0.000271
     6  C   -0.039911   0.007860  -0.045666   0.406013  -0.000083   0.003977
     7  H    0.659641   0.000034  -0.000159  -0.011225  -0.000102  -0.007716
     8  H    0.000034   0.657377  -0.012715  -0.000111  -0.001461  -0.000154
     9  H   -0.000159  -0.012715   0.666746  -0.012125  -0.000092   0.000020
    10  H   -0.011225  -0.000111  -0.012125   0.663312   0.000001  -0.000170
    11  N   -0.000102  -0.001461  -0.000092   0.000001   6.513621  -0.071793
    12  S   -0.007716  -0.000154   0.000020  -0.000170  -0.071793  15.486993
    13  C    0.000001   0.000034  -0.000000  -0.000000  -0.015303  -0.062768
    14  C    0.000001   0.000001   0.000000  -0.000000   0.003636  -0.011679
    15  C   -0.000000  -0.000020   0.000000   0.000000  -0.020003   0.005209
    16  C    0.000000   0.000000  -0.000000  -0.000000  -0.000075   0.000292
    17  H    0.000002   0.000000  -0.000000  -0.000000   0.000223   0.008997
    18  C   -0.000000  -0.000000   0.000000  -0.000000  -0.000611  -0.000205
    19  C    0.000000   0.000000  -0.000000  -0.000000   0.000036   0.000026
    20  H    0.000000   0.000000   0.000000   0.000000   0.000001   0.000011
    21  H   -0.000000   0.000000  -0.000000   0.000000   0.000012   0.000004
    22  H    0.000000  -0.000000  -0.000000  -0.000000  -0.000000  -0.000000
    23  C    0.000140  -0.000890   0.000007   0.000005   0.529193   0.312454
    24  O   -0.000000  -0.000114   0.000000  -0.000000  -0.063299  -0.000217
    25  H    0.000001   0.000993  -0.000003   0.000000   0.110312   0.003133
              13         14         15         16         17         18
     1  C   -0.000207  -0.000012   0.000006   0.000000  -0.000010   0.000000
     2  C    0.003188   0.000118  -0.000240  -0.000007   0.000180   0.000007
     3  C    0.007158   0.000318  -0.000221   0.000006  -0.000001  -0.000021
     4  C   -0.000558   0.000007   0.000021  -0.000000   0.000000  -0.000000
     5  C    0.000008  -0.000000  -0.000000   0.000000   0.000000  -0.000000
     6  C    0.000004  -0.000000  -0.000000  -0.000000   0.000000  -0.000000
     7  H    0.000001   0.000001  -0.000000   0.000000   0.000002  -0.000000
     8  H    0.000034   0.000001  -0.000020   0.000000   0.000000  -0.000000
     9  H   -0.000000   0.000000   0.000000  -0.000000  -0.000000   0.000000
    10  H   -0.000000  -0.000000   0.000000  -0.000000  -0.000000  -0.000000
    11  N   -0.015303   0.003636  -0.020003  -0.000075   0.000223  -0.000611
    12  S   -0.062768  -0.011679   0.005209   0.000292   0.008997  -0.000205
    13  C    5.300757   0.482274   0.278426  -0.009896  -0.035555  -0.050434
    14  C    0.482274   4.817342  -0.007717   0.531609   0.398426  -0.054030
    15  C    0.278426  -0.007717   4.787446  -0.057650   0.006691   0.490473
    16  C   -0.009896   0.531609  -0.057650   4.735557  -0.032857  -0.018478
    17  H   -0.035555   0.398426   0.006691  -0.032857   0.658775  -0.000626
    18  C   -0.050434  -0.054030   0.490473  -0.018478  -0.000626   4.822092
    19  C   -0.052198  -0.020698  -0.008621   0.494591   0.007927   0.516596
    20  H    0.008733  -0.035176  -0.000204   0.401346  -0.012001   0.008112
    21  H    0.012730  -0.000480  -0.024292   0.007071   0.000042   0.379197
    22  H   -0.001260   0.009513   0.008895  -0.043373  -0.000164  -0.042067
    23  C    0.337865  -0.087326  -0.077217   0.006662  -0.022276   0.007728
    24  O   -0.093797   0.004232   0.538314  -0.000035  -0.000057  -0.055487
    25  H   -0.029296  -0.000972  -0.015570  -0.000008  -0.000006   0.004498
              19         20         21         22         23         24
     1  C   -0.000000  -0.000000  -0.000000   0.000000   0.004478   0.000001
     2  C    0.000000  -0.000000  -0.000000  -0.000000  -0.052869  -0.000033
     3  C    0.000002  -0.000000   0.000000  -0.000000  -0.125241  -0.001971
     4  C    0.000000   0.000000   0.000000  -0.000000  -0.000688  -0.000049
     5  C    0.000000  -0.000000  -0.000000   0.000000   0.000283  -0.000000
     6  C    0.000000  -0.000000   0.000000  -0.000000  -0.000188  -0.000000
     7  H    0.000000   0.000000  -0.000000   0.000000   0.000140  -0.000000
     8  H    0.000000   0.000000   0.000000  -0.000000  -0.000890  -0.000114
     9  H   -0.000000   0.000000  -0.000000  -0.000000   0.000007   0.000000
    10  H   -0.000000   0.000000   0.000000  -0.000000   0.000005  -0.000000
    11  N    0.000036   0.000001   0.000012  -0.000000   0.529193  -0.063299
    12  S    0.000026   0.000011   0.000004  -0.000000   0.312454  -0.000217
    13  C   -0.052198   0.008733   0.012730  -0.001260   0.337865  -0.093797
    14  C   -0.020698  -0.035176  -0.000480   0.009513  -0.087326   0.004232
    15  C   -0.008621  -0.000204  -0.024292   0.008895  -0.077217   0.538314
    16  C    0.494591   0.401346   0.007071  -0.043373   0.006662  -0.000035
    17  H    0.007927  -0.012001   0.000042  -0.000164  -0.022276  -0.000057
    18  C    0.516596   0.008112   0.379197  -0.042067   0.007728  -0.055487
    19  C    4.721068  -0.045969  -0.043596   0.406134   0.000851   0.002651
    20  H   -0.045969   0.675141  -0.000136  -0.011828  -0.000374   0.000002
    21  H   -0.043596  -0.000136   0.658449  -0.011972  -0.000423   0.002447
    22  H    0.406134  -0.011828  -0.011972   0.661284  -0.000006  -0.000053
    23  C    0.000851  -0.000374  -0.000423  -0.000006   5.085493  -0.001349
    24  O    0.002651   0.000002   0.002447  -0.000053  -0.001349   7.533262
    25  H   -0.000127  -0.000001   0.000012   0.000008  -0.002743   0.338139
              25
     1  C   -0.000064
     2  C    0.002783
     3  C   -0.006424
     4  C   -0.000527
     5  C   -0.000020
     6  C    0.000010
     7  H    0.000001
     8  H    0.000993
     9  H   -0.000003
    10  H    0.000000
    11  N    0.110312
    12  S    0.003133
    13  C   -0.029296
    14  C   -0.000972
    15  C   -0.015570
    16  C   -0.000008
    17  H   -0.000006
    18  C    0.004498
    19  C   -0.000127
    20  H   -0.000001
    21  H    0.000012
    22  H    0.000008
    23  C   -0.002743
    24  O    0.338139
    25  H    0.431063
 Mulliken charges:
               1
     1  C    0.016803
     2  C   -0.221570
     3  C    0.231168
     4  C   -0.025524
     5  C    0.003123
     6  C   -0.004704
     7  H    0.019535
     8  H    0.021483
     9  H    0.021429
    10  H    0.022243
    11  N   -0.363148
    12  S    0.163232
    13  C   -0.079903
    14  C   -0.029385
    15  C    0.096273
    16  C   -0.014755
    17  H    0.022291
    18  C   -0.006743
    19  C    0.021328
    20  H    0.012345
    21  H    0.020936
    22  H    0.024889
    23  C    0.086431
    24  O   -0.202587
    25  H    0.164809
 Sum of Mulliken charges =  -0.00000
 Mulliken charges with hydrogens summed into heavy atoms:
               1
     1  C    0.036338
     2  C   -0.221570
     3  C    0.231168
     4  C   -0.004041
     5  C    0.024552
     6  C    0.017539
    11  N   -0.363148
    12  S    0.163232
    13  C   -0.079903
    14  C   -0.007094
    15  C    0.096273
    16  C   -0.002411
    18  C    0.014193
    19  C    0.046217
    23  C    0.086431
    24  O   -0.037778
 Electronic spatial extent (au):  <R**2>=           4328.2880
 Charge=             -0.0000 electrons
 Dipole moment (field-independent basis, Debye):
    X=             -0.5333    Y=             -2.3702    Z=             -0.0000  Tot=              2.4295
 Quadrupole moment (field-independent basis, Debye-Ang):
   XX=            -83.1698   YY=            -89.5076   ZZ=           -104.3455
   XY=             -7.0897   XZ=             -0.0001   YZ=             -0.0000
 Traceless Quadrupole moment (field-independent basis, Debye-Ang):
   XX=              9.1711   YY=              2.8334   ZZ=            -12.0045
   XY=             -7.0897   XZ=             -0.0001   YZ=             -0.0000
 Octapole moment (field-independent basis, Debye-Ang**2):
  XXX=              7.6904  YYY=            -21.3933  ZZZ=              0.0000  XYY=             -7.2685
  XXY=              3.3456  XXZ=              0.0002  XZZ=              1.0151  YZZ=              3.7126
  YYZ=              0.0002  XYZ=             -0.0004
[...]
 0007831,-0.00004402,0.,0.00005016,-0.00000729,0.,-0.00756492,0.0083629
 4,0.00000023,-0.00143235,0.00205917,0.00000001,-0.05053254,0.01565968,
 0.00000035,-0.22863749,0.14803939,0.00000093,0.00851479,0.00326112,-0.
 00000006,0.74410933,-0.00088042,-0.00153686,-0.00000006,-0.00848209,-0
 .00417490,-0.00000011,-0.01022676,0.01741128,0.00000032,0.00989466,-0.
 00289140,0.00000006,0.00057194,0.00725351,0.00000008,-0.00262771,-0.00
 241202,-0.00000005,0.00004753,0.00017668,0.,-0.00011516,-0.00014253,0.
 ,-0.00012313,0.00012389,0.,-0.00004744,-0.00001873,0.,0.01596783,-0.01
 475770,-0.00000024,0.00149642,-0.00532365,0.00000002,0.04791762,0.0357
 0956,-0.00000045,0.07446431,-0.24092768,0.00000015,-0.00258332,-0.0130
 2569,0.00000020,0.00720240,0.64092841,0.,0.,-0.00008123,0.,0.00000004,
 -0.00012052,0.00000005,-0.00000008,-0.00009284,-0.00000003,0.00000002,
 -0.00017249,0.,-0.00000003,-0.00004359,0.,0.00000002,0.00002700,0.,0.,
 -0.00003856,0.,0.,-0.00005304,0.,0.,-0.00000046,0.,0.,0.00007829,-0.00
 000001,-0.00000005,0.00201912,0.,0.00000002,0.00006095,0.00000059,-0.0
 0000035,0.00304535,0.00000091,-0.00000017,-0.05218636,-0.00000007,-0.0
 0000007,-0.00386299,-0.00000562,-0.00000384,0.13105504,0.00031132,-0.0
 0011498,0.,-0.00120217,0.00022233,-0.00000014,0.00026854,0.00023031,0.
 ,0.00021976,0.00009585,0.00000001,0.00011738,0.00021097,0.,-0.00016994
 ,-0.00017347,0.,-0.00001936,-0.00000004,0.,0.00003291,-0.00000472,0.,0
 .00000565,-0.00000062,0.,0.00003634,-0.00001052,0.,0.00056410,0.000318
 77,-0.00000003,-0.00032339,0.00116868,0.00000013,-0.00365678,-0.028632
 74,0.00000023,-0.08246459,-0.08252916,0.00000129,-0.00549258,0.0024886
 0,0.00000022,0.01019469,0.02157189,-0.00000023,0.08369587,0.00011968,-
 0.00011562,0.,-0.00046701,0.00029786,0.00000006,0.00001411,0.00071152,
 0.00000003,0.00037738,-0.00004548,0.,0.00006950,0.00045663,0.,-0.00032
 856,-0.00024133,-0.00000001,-0.00001204,0.00002067,0.,0.00001268,-0.00
 001619,0.,-0.00000890,0.00000551,0.,0.00000059,0.00000462,0.,0.0006883
 5,0.00000281,-0.00000005,0.00061375,-0.00124092,-0.00000007,0.00215679
 ,-0.00344417,-0.00000001,-0.08280715,-0.32013668,0.00000314,-0.0001198
 9,0.00190299,0.00000008,-0.00956118,-0.01725338,0.00000027,0.08558494,
 0.33962036,-0.00000006,0.00000003,-0.00003804,0.00000005,-0.00000010,-
 0.00044559,-0.00000006,0.00000011,0.00012000,0.00000003,-0.00000002,0.
 00011328,0.,0.,0.00000479,0.00000003,0.,0.00002438,0.,0.,0.00000730,0.
 ,0.,0.00002418,0.,0.,0.00000319,0.,0.,-0.00001710,0.00000009,-0.000000
 03,-0.00135359,0.00000005,-0.00000008,0.00104224,-0.00000022,0.0000003
 6,0.00257712,0.00000145,0.00000336,-0.02992714,0.00000010,-0.00000007,
 0.00613440,-0.00000005,-0.00000008,0.00264826,-0.00000144,-0.00000343,
 0.01956555,-0.00229690,0.00199828,0.00000002,0.00074365,-0.00176608,0.
 00000002,-0.00215544,0.00660106,0.00000019,0.00269334,-0.00046604,-0.0
 0000002,-0.00045013,-0.00056211,-0.00000002,0.00299389,-0.00020944,0.0
 0000001,-0.00013844,0.00005137,0.,0.00014127,0.00002056,0.,0.00012895,
 -0.00003153,0.,0.00009717,-0.00005270,0.,0.00830223,0.00514478,0.00000
 005,-0.00184146,-0.00141225,-0.00000009,0.01306024,0.02516029,-0.00000
 016,-0.01583154,0.02087937,0.00000017,-0.18736580,0.07694694,0.0000002
 1,-0.00748889,-0.05372950,0.00000027,-0.00026440,0.00002373,0.00000004
 ,0.70158007,0.00029966,-0.00059931,0.,-0.00395865,-0.00292169,-0.00000
 004,-0.00208598,0.00643547,0.00000012,0.00241473,-0.00069608,0.0000000
 3,0.00052874,0.00242103,0.00000003,-0.00134892,-0.00128380,-0.00000003
 ,0.00000998,0.00010239,0.,-0.00010643,-0.00005859,0.,-0.00003779,0.000
 01420,0.,0.00001131,-0.00000333,0.,0.00846687,-0.00321207,-0.00000018,
 0.00130691,-0.00511940,-0.00000011,0.02728814,-0.03610153,0.,-0.007554
 36,0.00338450,-0.00000015,0.11249054,-0.24783172,0.00000012,-0.0317658
 6,-0.01848975,0.00000041,-0.00042025,0.00031663,-0.00000007,0.03884008
 ,0.72897426,0.00000002,-0.00000002,0.00016301,-0.00000009,-0.00000004,
 0.00084213,-0.00000002,0.00000010,0.00173521,0.00000006,0.,-0.00039493
 ,0.,0.00000007,-0.00006598,-0.00000004,-0.00000003,-0.00009871,0.,0.,0
 .00008086,0.,0.,0.00007961,0.,0.,0.00003646,0.,0.,-0.00006548,0.000000
 03,-0.00000013,-0.00451173,0.00000001,-0.00000006,-0.00010008,0.000000
 24,-0.00000028,0.01174067,-0.00000018,-0.00000010,-0.00183164,-0.00000
 017,0.00000053,-0.06482122,0.00000032,0.00000045,0.00515746,-0.0000000
 2,-0.00000002,-0.00069354,-0.00000190,-0.00000239,0.11186022,0.0022711
 0,-0.00068192,0.00000002,0.00442456,0.00475952,0.00000009,0.00836095,-
 0.01654557,-0.00000033,-0.00780779,0.00218849,-0.00000002,0.00005835,-
 0.00399579,-0.00000003,-0.00070558,0.00219820,0.00000002,0.00007379,-0
 .00009189,0.,0.00000624,0.00005903,0.,-0.00007505,-0.00001725,0.,-0.00
 004379,0.00006028,0.,-0.01902416,0.00832192,0.00000002,0.00227912,0.00
 406690,0.,-0.01418261,-0.02262254,0.00000010,0.04766922,0.00095122,-0.
 00000043,-0.04397441,0.02617876,-0.00000006,-0.13734990,-0.01771567,0.
 00000088,-0.00294996,0.00450458,0.00000003,-0.35377652,-0.07581648,0.0
 0000127,0.71237163,0.00075639,-0.00087131,-0.00000001,-0.00371964,-0.0
 0180783,-0.00000009,-0.00057002,0.00510778,0.00000005,0.00168374,-0.00
 055196,0.00000001,0.00043504,0.00244490,0.00000004,-0.00175448,-0.0016
 8694,-0.00000003,0.00002633,0.00007688,0.,-0.00009150,-0.00009372,-0.0
 0000001,-0.00003864,0.00000794,0.,-0.00002639,0.00003040,0.,0.00619253
 ,-0.00070522,0.00000003,-0.00080471,-0.00247967,0.00000005,-0.01160303
 ,-0.01758397,0.00000027,0.02950990,-0.05794574,0.00000024,0.01395590,0
 .03365481,-0.00000018,-0.08192762,-0.30113907,0.00000264,0.00316007,-0
 .00070856,-0.00000003,-0.03748751,-0.13128895,0.00000035,-0.03855848,0
 .68323601,-0.00000003,0.00000002,0.00014180,0.00000005,0.,-0.00045069,
 0.,-0.00000003,-0.00090630,0.,0.,0.00008485,0.,-0.00000002,0.00008369,
 0.00000003,0.00000003,0.00000525,0.,0.,-0.00003418,0.,0.,-0.00011294,0
 .,0.,0.00000048,0.,0.,0.00001287,-0.00000009,-0.00000005,0.00118581,0.
 00000005,0.00000003,0.00060152,0.00000009,0.00000019,-0.00376231,-0.00
 000038,0.00000039,0.00927813,-0.00000005,-0.00000025,0.00174425,0.0000
 0115,0.00000218,-0.06011888,0.00000004,0.00000008,0.00553739,0.0000014
 1,0.00000062,-0.05000732,-0.00000232,-0.00000409,0.11563955,0.00004902
 ,-0.00008916,0.,-0.00009557,0.00009130,0.,0.00001357,-0.00010275,0.,-0
 .00000827,0.00003071,0.,0.00002260,0.00009077,0.,-0.00014854,0.0000075
 6,0.,0.00000753,0.00000760,0.,-0.00000618,-0.00000655,0.,-0.00001298,0
 .00000730,0.,-0.00000854,0.00000600,0.,-0.00021962,0.00042557,0.000000
 01,0.00007522,-0.00008182,0.,-0.00029124,0.00353941,0.00000003,-0.0149
 1639,-0.00868912,0.00000029,0.00052545,0.00025334,-0.00000001,-0.33122
 765,-0.06621669,0.00000311,0.00080151,0.00005957,-0.00000003,0.0016199
 9,-0.00123910,0.00000007,-0.00393932,0.00188481,0.00000005,0.34814641,
 -0.00000570,-0.00000491,0.,-0.00010360,-0.00012715,0.,-0.00001629,0.00
 028717,0.,0.00010658,-0.00007366,0.,0.00002263,0.00008479,0.,-0.000025
 09,-0.00003717,0.,0.00000105,0.00000044,0.,-0.00000200,-0.00000115,0.,
 0.00000033,-0.00000254,0.,0.00000116,-0.00000074,0.,0.00046816,-0.0004
 0805,-0.00000003,0.00003183,-0.00002969,0.,0.00368092,-0.00331205,0.00
 000002,0.02205639,0.00928381,-0.00000024,0.00053308,-0.00119369,0.,-0.
 06674978,-0.07515294,0.00000097,-0.00016633,0.00081531,-0.00000003,-0.
 00041041,-0.00544388,0.00000009,-0.02947169,-0.00154956,0.00000028,0.0
 7086601,0.07467305,0.00000001,0.,-0.00004595,0.00000005,0.00000004,0.0
 0004790,0.00000004,-0.00000010,0.00049685,-0.00000005,0.00000001,0.000
 15466,0.,-0.00000004,-0.00007272,0.00000001,0.00000001,0.00001909,0.,0
 .,0.00000736,0.,0.,0.00003809,0.,0.,-0.00003236,0.,0.,0.00000139,-0.00
 000008,0.00000010,-0.00085068,-0.00000002,0.00000002,-0.00011939,0.,0.
 00000005,0.00691827,0.00000021,-0.00000011,0.00670278,0.00000002,0.000
 00002,-0.00106723,0.00000304,0.00000117,-0.03850291,-0.00000004,-0.000
 00006,-0.00389749,0.,0.00000015,0.00482463,0.00000028,-0.00000009,0.00
 561754,-0.00000345,-0.00000103,0.02365800,-0.00012198,0.00004847,0.,0.
 00013247,0.00005544,0.,-0.00013571,0.00006338,0.,0.00004518,-0.0000046
 3,0.,-0.00002433,-0.00003275,0.,0.00009222,0.00001342,0.,0.00000027,-0
 .00000592,0.,-0.00000263,0.00000217,0.,0.00000288,-0.00000069,0.,-0.00
 000288,-0.00000147,0.,0.00030430,-0.00036321,0.00000002,-0.00031219,0.
 00020541,0.,-0.00421059,0.00290411,0.00000002,0.00014512,0.00016401,0.
 ,0.00906697,0.02252469,-0.00000007,-0.00569994,0.00024096,0.00000003,0
 .00013445,-0.00006754,0.,-0.08120020,-0.08130151,0.00000030,-0.0017965
 9,-0.02887591,0.00000013,-0.00028972,-0.00141967,0.00000002,0.07983870
 ,0.00009318,0.00001933,0.,-0.00004693,0.00002951,0.,0.00013624,-0.0001
 1957,0.,-0.00007315,0.00001096,0.,-0.00001777,-0.00008224,0.,0.0000399
 7,-0.00000343,0.,-0.00000580,-0.00000057,0.,0.00001071,0.00000371,0.,0
 .00000901,-0.00000298,0.,0.00000826,-0.00000299,0.,-0.00037452,0.00034
 477,0.,0.00021854,-0.00007317,0.,0.00371411,-0.00073343,0.,0.00023259,
 0.00021722,0.,-0.01090153,-0.01715395,0.00000006,-0.00080830,0.0014970
 6,0.00000002,-0.00005741,-0.00008559,0.,-0.07921974,-0.32564265,0.0000
 0129,0.00167834,-0.00157254,0.,0.00006281,-0.00017630,0.,0.08646548,0.
 34170074,-0.00000001,0.00000001,-0.00031994,0.,0.,-0.00010285,-0.00000
 001,0.00000003,0.00025016,0.,0.,0.00000331,0.,0.,-0.00004750,0.0000000
 1,0.,0.00004330,0.,0.,-0.00001003,0.,0.,0.00004377,0.,0.,-0.00000427,0
 .,0.,0.00005882,0.00000009,0.00000001,-0.00002764,-0.00000005,-0.00000
 002,-0.00015467,0.00000008,-0.00000006,0.00437955,-0.00000009,0.000000
 06,-0.00061933,0.00000013,-0.00000001,0.00332040,0.00000006,-0.0000000
 7,0.00679376,0.,-0.00000001,-0.00060765,0.00000013,0.00000122,-0.03240
 865,0.00000022,0.00000023,0.00346927,0.,0.,-0.00025595,-0.00000043,-0.
 00000133,0.02264060,0.00003926,-0.00008750,0.,-0.00032780,-0.00008029,
 0.,-0.00007366,0.00047792,0.,0.00022804,-0.00006873,0.,0.00004153,0.00
 026320,0.,-0.00017829,-0.00010523,0.,0.00000322,0.00001057,0.,-0.00000
 638,-0.00001040,0.,-0.00001016,0.00000526,0.,-0.00000509,0.00000379,0.
 ,0.00054046,0.00013377,0.,-0.00001737,-0.00013129,0.,0.00055416,-0.000
 64241,0.,-0.00069880,-0.00214895,0.00000003,-0.00359625,-0.00315333,0.
 00000004,0.00939873,-0.00957264,0.00000003,0.00030887,-0.00040201,0.,-
 0.01422389,0.02288773,-0.00000008,-0.20063777,0.14617839,-0.00000030,0
 .00065739,0.00029071,-0.00000002,0.00105733,-0.00014767,-0.00000001,0.
 20902127,0.00005264,0.00007402,0.,0.00034815,0.00030553,0.,0.00046570,
 -0.00087693,-0.00000002,-0.00043190,0.00014318,0.,-0.00003215,-0.00035
 832,0.,0.00015147,0.00013485,0.,-0.00000758,-0.00000969,0.,0.00001361,
 0.00000972,0.,0.00000924,-0.00000569,0.,0.00000747,-0.00000238,0.,-0.0
 0093416,0.00054467,0.,-0.00002854,0.00030334,0.,-0.00152056,0.00006290
 ,0.,-0.00228887,-0.00446616,0.00000011,-0.00209409,-0.00040761,0.00000
 005,0.02288624,-0.01463663,0.,0.00106582,-0.00091930,0.,-0.00855105,0.
 00910820,0.,0.14583875,-0.20592893,0.00000066,-0.00015430,0.00100221,-
 0.00000003,0.00030656,0.00066619,-0.00000003,-0.15521568,0.21514694,0.
 00000001,0.,0.00005096,0.,0.,0.00004220,0.,0.,-0.00016155,0.,0.,0.0000
 2609,0.,0.,0.00001359,-0.00000001,0.,-0.00000387,0.,0.,0.00000349,0.,0
 .,0.00001807,0.,0.,0.00000107,0.,0.,-0.00002745,0.,0.,0.00042460,0.,0.
 00000002,-0.00021317,0.,0.,-0.00151167,0.00000005,0.00000015,0.0040690
 4,0.00000004,0.00000004,0.00695123,-0.00000023,0.00000013,0.00284267,0
 .,0.,0.00091302,0.00000010,-0.00000015,0.00416940,-0.00000024,0.000000
 65,-0.03214244,-0.00000004,-0.00000003,-0.00291735,-0.00000001,-0.0000
 0001,-0.00399456,0.00000029,-0.00000075,0.02197960,-0.00807085,-0.0039
 4590,-0.00000009,-0.01271531,0.01095401,0.00000021,-0.09197365,0.06156
 980,0.00000074,0.02365749,-0.00773578,0.00000013,0.00043361,0.01570480
 ,0.00000017,-0.00697839,-0.00327601,-0.00000011,0.00030967,-0.00044137
 ,0.00000001,-0.00055665,-0.00021704,0.,-0.00020473,0.00024440,0.,-0.00
 062457,-0.00005264,0.,-0.29264496,-0.05337199,-0.00000164,-0.05022731,
 -0.04585462,-0.00000090,-0.21379651,0.13322983,0.00000356,-0.05493481,
 0.04009988,0.00000080,0.01177916,0.00840215,0.00000024,0.00298557,-0.0
 1832661,0.00000009,0.00002457,-0.00029652,-0.00000004,-0.00220172,-0.0
 1530794,-0.00000006,0.00774492,-0.00329453,0.00000005,-0.00074038,0.00
 046484,0.00000004,0.00093450,-0.00064193,-0.00000006,-0.00051378,0.000
 75711,0.00000002,0.68326938,-0.00533774,0.00697223,0.00000005,0.046903
 66,-0.02596836,-0.00000008,0.02765949,-0.01065082,-0.00000008,-0.00251
 455,-0.00557140,-0.00000015,-0.00151838,-0.00731020,-0.00000011,0.0087
 7397,0.00247930,0.00000007,-0.00024449,-0.00080895,0.,0.00006528,0.000
 40054,0.00000002,0.00045891,-0.00058132,0.00000001,-0.00000235,-0.0000
 4091,-0.00000001,-0.05824704,-0.09494114,-0.00000107,-0.02752019,-0.14
 633341,-0.00000303,0.11138225,-0.22889376,-0.00000385,0.01942128,0.012
 43935,0.00000011,0.03347801,-0.04604472,-0.00000116,-0.00656604,-0.001
 01368,0.00000018,-0.00160264,0.00055696,0.,-0.01636305,0.00453280,0.00
 000021,0.00605035,0.00811682,-0.00000013,-0.00071666,0.00111181,-0.000
 00005,0.00043329,-0.00060269,0.00000003,0.00043712,-0.00011993,-0.0000
 0002,-0.11774533,0.54369218,-0.00000010,0.00000006,0.00226759,0.000000
 78,-0.00000007,-0.00215331,0.00000014,-0.00000029,0.00406411,-0.000000
 10,-0.00000010,0.00504172,-0.00000006,-0.00000022,0.00098568,0.0000001
 6,0.00000008,0.00102267,0.,-0.00000001,-0.00049292,0.,0.00000002,-0.00
 073798,0.00000002,0.,-0.00079414,0.,0.,-0.00033514,-0.00000090,-0.0000
 0090,-0.03851514,-0.00000053,-0.00000317,-0.01979987,0.00000246,-0.000
 00336,-0.04100445,0.00000106,-0.00000047,0.00889888,0.00000074,-0.0000
 0092,0.00721468,-0.00000008,0.00000017,0.00192118,0.,-0.00000004,-0.00
 081106,-0.00000055,0.00000027,0.00008951,0.00000043,0.00000002,-0.0009
 8527,-0.00000002,0.,-0.00075066,0.,0.00000002,0.00144048,0.,0.,0.00019
 551,-0.00000309,0.00000900,0.07259856,0.00134711,0.00271277,0.00000003
 ,0.00884606,0.01068707,0.00000018,0.01889710,-0.01732541,-0.00000018,-
 0.00910396,0.00287064,-0.00000008,-0.00172329,-0.00890588,-0.00000013,
 0.00457726,0.00370295,0.00000008,-0.00029469,0.00005228,0.,0.00047012,
 0.00010595,0.00000001,0.00012480,-0.00000921,0.,0.00007280,0.00003847,
 0.,-0.02154143,0.05701859,0.00000020,0.00010603,0.01029740,0.00000014,
 -0.05389401,-0.01840797,0.00000032,0.02996876,-0.01112024,-0.00000001,
 -0.40098381,-0.09478964,0.00000020,-0.01277589,0.01623527,-0.00000003,
 -0.00063768,-0.00035287,0.00000003,-0.06539520,0.01137676,0.00000021,0
 .00046748,0.00407135,0.00000011,-0.00008201,-0.00015027,-0.00000007,0.
 00228325,-0.00056866,-0.00000008,-0.00148845,-0.00071468,0.00000003,0.
 00485811,-0.00912770,-0.00000045,0.55843358,-0.00095446,-0.00153825,-0
 .00000005,-0.00187723,-0.00639985,-0.00000013,-0.01639148,0.00313859,0
 .00000002,0.00299023,-0.00130893,0.00000002,0.00045217,0.00295669,0.00
 000004,-0.00128427,-0.00169719,-0.00000003,0.00019985,-0.00035973,0.,0
 .00000077,0.00015181,0.,0.00015014,-0.00011000,0.,0.00003153,-0.000088
 78,0.,0.03114631,-0.06750629,-0.00000029,0.00073712,-0.00288786,0.0000
 0005,-0.03775398,-0.01104650,-0.00000028,-0.00655483,-0.00687055,0.,-0
 .06750369,-0.13271101,-0.00000086,0.00089668,-0.00373975,0.00000003,-0
 .00198210,-0.00032319,0.00000005,0.04196018,0.01982389,0.00000003,0.00
 125760,-0.00745043,0.00000009,-0.00006026,0.00041345,0.,-0.00187631,0.
 00207605,-0.00000001,0.00162230,0.00075135,-0.00000004,0.00815491,0.01
 059440,0.00000025,0.01702242,0.35295416,-0.00000004,-0.00000004,0.0003
 9709,-0.00000015,-0.00000019,-0.00079021,-0.00000048,0.00000038,-0.000
 28388,0.00000021,-0.00000008,0.00033452,0.00000002,0.00000017,0.000153
 74,-0.00000006,-0.00000007,0.00003907,0.,0.,-0.00006194,0.,0.,-0.00014
 247,0.,0.,-0.00003613,0.,0.,-0.00008967,0.00000071,-0.00000130,0.01305
 506,0.,-0.00000011,-0.00072841,0.00000016,0.00000029,0.01624504,-0.000
 00031,-0.00000004,0.00203559,0.00000101,-0.00000111,-0.04629184,0.0000
 0007,-0.00000010,-0.00035782,-0.00000004,0.00000003,-0.00129090,0.0000
 0035,0.00000017,0.00816190,0.00000009,-0.00000013,0.00401254,0.,0.,0.0
 0000695,-0.00000003,0.,-0.00327967,0.00000003,0.00000001,0.00000686,0.
 00000009,0.00000015,-0.00298984,-0.00000258,0.00000443,0.04505744,-0.0
 0091830,-0.00094877,-0.00000002,-0.00442641,-0.00457353,-0.00000010,-0
 .00945246,0.01105502,0.00000009,0.00463047,-0.00144741,0.00000004,0.00
 060645,0.00376573,0.00000006,-0.00154408,-0.00151969,-0.00000003,0.000
 14265,-0.00004779,0.,-0.00038725,-0.00004241,0.,0.00000505,-0.00001429
 ,0.,-0.00001611,-0.00006846,0.,-0.00996374,-0.02428748,0.00000025,-0.0
 0207430,-0.00637326,-0.00000012,0.00767796,-0.00106742,-0.00000011,-0.
 00907018,0.00288735,0.00000001,-0.05005096,0.02898356,0.00000081,0.002
 34298,-0.00496369,0.,0.00046487,0.00019802,0.,0.00326975,-0.00497821,0
 .00000003,0.00053611,0.00089797,-0.00000001,0.00006771,-0.00000288,0.0
 0000001,-0.00024090,0.00019418,0.,-0.00007259,0.00007080,-0.00000001,0
 .00018665,-0.00755747,0.00000008,-0.06253202,0.02961639,0.00000094,0.1
 3081864,0.00330952,0.00162893,0.00000006,0.00667041,0.01406093,0.00000
 025,0.03038545,-0.01899432,-0.00000032,-0.01049444,0.00449687,-0.00000
 004,-0.00170173,-0.00863188,-0.00000012,0.00258347,0.00371172,0.000000
 06,-0.00033091,0.00039053,0.,0.00025159,-0.00017969,0.,-0.00015426,0.0
 0015941,0.,-0.00005932,0.00016917,0.,-0.03945426,0.03135905,-0.0000002
 7,0.00216611,0.01198536,0.00000019,-0.02459467,0.00411637,0.00000036,0
 .02339319,-0.00673061,-0.00000003,0.03778647,0.01923607,0.00000009,-0.
 00580354,0.01353596,-0.00000003,-0.00042324,-0.00018146,0.00000002,-0.
 01736523,0.00357938,-0.00000004,-0.00259665,0.00068886,0.,0.00002364,-
 0.00015857,-0.00000004,0.00052220,-0.00031344,-0.00000001,-0.00054461,
 -0.00052153,0.00000003,-0.00907353,-0.02201507,-0.00000034,0.02528061,
 -0.14882208,-0.00000245,-0.01977625,0.09743004,0.00000003,-0.00000001,
 0.00023091,0.00000010,0.00000010,0.00109811,0.00000031,-0.00000038,-0.
 00307600,-0.00000017,0.00000007,-0.00054271,0.,-0.00000012,-0.00003104
 ,0.00000003,0.00000005,-0.00005148,0.,0.,-0.00003287,0.,0.,0.00001619,
 0.,0.,0.00005183,0.,0.,0.00004595,-0.00000013,0.00000085,-0.01471834,-
 0.00000002,0.00000002,0.00089283,-0.00000019,-0.00000006,-0.00474028,0
 .00000020,-0.00000004,0.00025121,0.00000019,0.00000018,-0.00149916,0.,
 0.00000007,-0.00001741,0.,-0.00000001,0.00036702,-0.00000025,-0.000000
 02,0.00605822,-0.00000003,0.00000008,0.00110540,0.,0.,0.00001919,0.,-0
 .00000001,-0.00061072,-0.00000002,-0.00000001,-0.00073534,-0.00000017,
 -0.00000007,0.00362922,0.00000206,-0.00000331,-0.03316304,-0.00000192,
 0.00000263,0.04545232\\-0.00113964,0.00111201,0.00000002,0.00134270,0.
 00284913,-0.00000008,0.00338523,0.00034245,0.00000031,0.00064145,-0.00
 086902,-0.00000005,-0.00049677,-0.00276409,-0.00000002,-0.00118047,-0.
 00105311,0.00000005,-0.00026724,0.00019636,0.00000001,0.00024391,-0.00
 018501,0.,-0.00004595,-0.00026402,0.,-0.00020675,-0.00014454,0.0000000
 1,-0.00186794,0.00352015,0.00000041,0.00177256,0.00690933,-0.00000011,
 -0.00134128,0.00178202,0.00000011,0.00303477,-0.00133416,0.00000022,0.
 00331999,0.00142972,0.00000033,-0.00079587,-0.00014569,0.00000010,0.00
 022736,-0.00012146,0.00000003,-0.00226833,-0.00013202,-0.00000040,-0.0
 0256003,-0.00192766,-0.00000016,-0.00002619,-0.00023243,0.,-0.00027534
 ,0.00002575,0.,-0.00028524,-0.00022015,-0.00000002,-0.00086852,-0.0002
 0631,-0.00000032,-0.00250088,-0.00153707,0.00000113,0.00215849,-0.0070
 3016,-0.00000157\\\@
 The archive entry for this job was punched.


 THE POLHOLDE ROLLS WITHOUT SLIPPING ON THE HERPOLHOLDE LYING IN
 THE INVARIABLE PLANE.
 H.GOLDSTEIN, "CLASSICAL MECHANICS", PG 161
 Job cpu time:       0 days  2 hours 51 minutes 59.3 seconds.
 Elapsed time:       0 days  0 hours 17 minutes 49.3 seconds.
 File lengths (MBytes):  RWF=   1380 Int=      0 D2E=      0 Chk=     48 Scr=      8
 Normal termination of Gaussian 16 at Mon Jul 13 14:36:26 2020.
