 Entering Gaussian System, Link 0=g16
 Initial command:
 /gpfs/loomis/apps/avx/software/Gaussian/16-C.01_AVX/g16/l1.exe "/home/fas/batista/pev4/scratch60/gauss-scratch/Gau-166484.inp" -scrdir="/home/fas/batista/pev4/scratch60/gauss-scratch/"
 Entering Link 1 = /gpfs/loomis/apps/avx/software/Gaussian/16-C.01_AVX/g16/l1.exe PID=    166485.
  
 Copyright (c) 1988-2019, Gaussian, Inc.  All Rights Reserved.
  
 This is part of the Gaussian(R) 16 program.  It is based on
 the Gaussian(R) 09 system (copyright 2009, Gaussian, Inc.),
 the Gaussian(R) 03 system (copyright 2003, Gaussian, Inc.),
 the Gaussian(R) 98 system (copyright 1998, Gaussian, Inc.),
 the Gaussian(R) 94 system (copyright 1995, Gaussian, Inc.),
 the Gaussian 92(TM) system (copyright 1992, Gaussian, Inc.),
 the Gaussian 90(TM) system (copyright 1990, Gaussian, Inc.),
 the Gaussian 88(TM) system (copyright 1988, Gaussian, Inc.),
 the Gaussian 86(TM) system (copyright 1986, Carnegie Mellon
 University), and the Gaussian 82(TM) system (copyright 1983,
 Carnegie Mellon University). Gaussian is a federally registered
 trademark of Gaussian, Inc.
  
 This software contains proprietary and confidential information,
 including trade secrets, belonging to Gaussian, Inc.
  
 This software is provided under written license and may be
 used, copied, transmitted, or stored only in accord with that
 written license.
  
 The following legend is applicable only to US Government
 contracts under FAR:
  
                    RESTRICTED RIGHTS LEGEND
  
 Use, reproduction and disclosure by the US Government is
 subject to restrictions as set forth in subparagraphs (a)
 and (c) of the Commercial Computer Software - Restricted
 Rights clause in FAR 52.227-19.
  
 Gaussian, Inc.
 340 Quinnipiac St., Bldg. 40, Wallingford CT 06492
  
  
 ---------------------------------------------------------------
 Warning -- This program may not be used in any manner that
 competes with the business of Gaussian, Inc. or will provide
 assistance to any competitor of Gaussian, Inc.  The licensee
 of this program is prohibited from giving any competitor of
 Gaussian, Inc. access to this program.  By using this program,
 the user acknowledges that Gaussian, Inc. is engaged in the
 business of creating and licensing software in the field of
 computational chemistry and represents and warrants to the
 licensee that it is not a competitor of Gaussian, Inc. and that
 it will not use this program in any manner prohibited above.
 ---------------------------------------------------------------
  

 Cite this work as:
 Gaussian 16, Revision C.01,
 M. J. Frisch, G. W. Trucks, H. B. Schlegel, G. E. Scuseria, 
 M. A. Robb, J. R. Cheeseman, G. Scalmani, V. Barone, 
 G. A. Petersson, H. Nakatsuji, X. Li, M. Caricato, A. V. Marenich, 
 J. Bloino, B. G. Janesko, R. Gomperts, B. Mennucci, H. P. Hratchian, 
 J. V. Ortiz, A. F. Izmaylov, J. L. Sonnenberg, D. Williams-Young, 
 F. Ding, F. Lipparini, F. Egidi, J. Goings, B. Peng, A. Petrone, 
 T. Henderson, D. Ranasinghe, V. G. Zakrzewski, J. Gao, N. Rega, 
 G. Zheng, W. Liang, M. Hada, M. Ehara, K. Toyota, R. Fukuda, 
 J. Hasegawa, M. Ishida, T. Nakajima, Y. Honda, O. Kitao, H. Nakai, 
 T. Vreven, K. Throssell, J. A. Montgomery, Jr., J. E. Peralta, 
 F. Ogliaro, M. J. Bearpark, J. J. Heyd, E. N. Brothers, K. N. Kudin, 
 V. N. Staroverov, T. A. Keith, R. Kobayashi, J. Normand, 
 K. Raghavachari, A. P. Rendell, J. C. Burant, S. S. Iyengar, 
 J. Tomasi, M. Cossi, J. M. Millam, M. Klene, C. Adamo, R. Cammi, 
 J. W. Ochterski, R. L. Martin, K. Morokuma, O. Farkas, 
 J. B. Foresman, and D. J. Fox, Gaussian, Inc., Wallingford CT, 2019.
 
 ******************************************
 Gaussian 16:  ES64L-G16RevC.01  3-Jul-2019
                14-Jul-2020 
 ******************************************
 %chk=config_12_5_fixed.chk
 %mem=58GB
 %nprocshared=10
 Will use up to   10 processors via shared memory.
 ----------------------------------------------------------------------
 #p opt=addgic freq td wb97xd/cc-pvdz nosymm int=ultrafine scrf=(solven
 t=CarbonTetraChloride)
 ----------------------------------------------------------------------
 1/18=20,19=15,26=6,38=1,145=903/1,3;
 2/9=110,12=2,15=1,17=6,18=5,40=1/2;
 3/5=16,11=9,25=1,30=1,70=2201,71=1,72=11,74=-58,75=-5/1,2,3,8;
 4//1;
 5/5=2,38=5,53=11/2;
 8/6=1,10=1/1;
 9/15=2,42=1,70=2/14;
 10/5=4,31=1/2;
 6/7=2,8=2,9=2,10=2/1;
 7/12=6,13=5,30=1/1,2,3,16;
 1/18=20,19=15,26=6,145=903/3(2);
 2/9=110,15=1/2;
 99//99;
 2/9=110,15=1/2;
 3/5=16,11=9,25=1,30=1,70=2205,71=1,72=11,74=-58,75=-5/1,2,3,8;
 4/5=5,16=3,69=1/1;
 5/5=2,38=5,53=11/2;
 8/6=1,10=1/1;
 9/15=2,42=1,49=4,70=2/14;
 10/5=4,31=1/2;
 7/12=6,13=5,30=1/1,2,3,16;
 1/18=20,19=15,26=6,145=903/3(-8);
 2/9=110,15=1/2;
 6/7=2,8=2,9=2,10=2/1;
 99/9=10/99;
 Leave Link    1 at Tue Jul 14 10:57:22 2020, MaxMem=  7784628224 cpu:               4.6 elap:               0.5
 (Enter /gpfs/loomis/apps/avx/software/Gaussian/16-C.01_AVX/g16/l101.exe)
 ------------------------------------------------
 NM 2D-scan of HBT TD-WB97XD pVDZ in CTC Relaxed.
 ------------------------------------------------
 Symbolic Z-matrix:
 Charge =  0 Multiplicity = 1
 C                     1.70734  -3.26107  -0.00002 
 C                     1.011    -2.05052  -0.00002 
 C                     1.70633  -0.81843  -0.00002 
 C                     3.09674  -0.7882   -0.00002 
 C                     3.78483  -1.99838  -0.00002 
 C                     3.10373  -3.22017  -0.00002 
 H                     1.17625  -4.21435  -0.00002 
 H                     3.62351   0.16683  -0.00002 
 H                     4.87634  -1.98817  -0.00002 
 H                     3.6668   -4.1545   -0.00002 
 N                     0.85901   0.27614  -0.00002 
 S                    -0.73842  -1.78686  -0.00002 
 C                    -1.4132    1.02265   0. 
 C                    -2.78006   0.85699  -0.00001 
 C                    -0.84529   2.40952   0.00003 
 C                    -3.65074   1.98803   0.00002 
 H                    -3.22129  -0.1442   -0.00003 
 C                    -1.77404   3.4975    0.00006 
 C                    -3.15327   3.28856   0.00006 
 H                    -4.728     1.81432   0.00002 
 H                    -1.33323   4.49629   0.00008 
 H                    -3.83931   4.13629   0.00008 
 C                    -0.4589   -0.05083  -0.00001 
 O                     0.39041   2.60696   0.00003 
 H                     1.0904    0.93592  -0.00001 
 
 Initializing the GIC definitions file.
 Number of initial coordinates =   134
 Number of input entries/lines =    53
 Number of additional coordinates =     2
 Number of removed coordinates =     0
 Number of frozen coordinates =     3
 Number of final active and frozen coordinates =   136
 ITRead=  0  0  0  0  0  0  0  0  0  0  0  0  0  0  0  0  0  0  0  0
 ITRead=  0  0  0  0  0
 MicOpt= -1 -1 -1 -1 -1 -1 -1 -1 -1 -1 -1 -1 -1 -1 -1 -1 -1 -1 -1 -1
 MicOpt= -1 -1 -1 -1 -1
 NAtoms=     25 NQM=       25 NQMF=       0 NMMI=      0 NMMIF=      0
                NMic=       0 NMicF=      0.
                    Isotopes and Nuclear Properties:
 (Nuclear quadrupole moments (NQMom) in fm**2, nuclear magnetic moments (NMagM)
  in nuclear magnetons)

  Atom         1           2           3           4           5           6           7           8           9          10
 IAtWgt=          12          12          12          12          12          12           1           1           1           1
 AtmWgt=  12.0000000  12.0000000  12.0000000  12.0000000  12.0000000  12.0000000   1.0078250   1.0078250   1.0078250   1.0078250
 NucSpn=           0           0           0           0           0           0           1           1           1           1
 AtZEff=  -0.0000000  -0.0000000  -0.0000000  -0.0000000  -0.0000000  -0.0000000  -0.0000000  -0.0000000  -0.0000000  -0.0000000
 NQMom=    0.0000000   0.0000000   0.0000000   0.0000000   0.0000000   0.0000000   0.0000000   0.0000000   0.0000000   0.0000000
 NMagM=    0.0000000   0.0000000   0.0000000   0.0000000   0.0000000   0.0000000   2.7928460   2.7928460   2.7928460   2.7928460
 AtZNuc=   6.0000000   6.0000000   6.0000000   6.0000000   6.0000000   6.0000000   1.0000000   1.0000000   1.0000000   1.0000000

  Atom        11          12          13          14          15          16          17          18          19          20
 IAtWgt=          14          32          12          12          12          12           1          12          12           1
 AtmWgt=  14.0030740  31.9720718  12.0000000  12.0000000  12.0000000  12.0000000   1.0078250  12.0000000  12.0000000   1.0078250
 NucSpn=           2           0           0           0           0           0           1           0           0           1
 AtZEff=  -0.0000000  -0.0000000  -0.0000000  -0.0000000  -0.0000000  -0.0000000  -0.0000000  -0.0000000  -0.0000000  -0.0000000
 NQMom=    2.0440000   0.0000000   0.0000000   0.0000000   0.0000000   0.0000000   0.0000000   0.0000000   0.0000000   0.0000000
 NMagM=    0.4037610   0.0000000   0.0000000   0.0000000   0.0000000   0.0000000   2.7928460   0.0000000   0.0000000   2.7928460
 AtZNuc=   7.0000000  16.0000000   6.0000000   6.0000000   6.0000000   6.0000000   1.0000000   6.0000000   6.0000000   1.0000000

  Atom        21          22          23          24          25
 IAtWgt=           1           1          12          16           1
 AtmWgt=   1.0078250   1.0078250  12.0000000  15.9949146   1.0078250
 NucSpn=           1           1           0           0           1
 AtZEff=  -0.0000000  -0.0000000  -0.0000000  -0.0000000  -0.0000000
 NQMom=    0.0000000   0.0000000   0.0000000   0.0000000   0.0000000
 NMagM=    2.7928460   2.7928460   0.0000000   0.0000000   2.7928460
 AtZNuc=   1.0000000   1.0000000   6.0000000   8.0000000   1.0000000
 Leave Link  101 at Tue Jul 14 10:57:25 2020, MaxMem=  7784628224 cpu:              32.6 elap:               3.3
 (Enter /gpfs/loomis/apps/avx/software/Gaussian/16-C.01_AVX/g16/l103.exe)

 GradGradGradGradGradGradGradGradGradGradGradGradGradGradGradGradGradGrad
 Berny optimization.
 Initialization pass.
                           ----------------------------
                           !    Initial Parameters    !
                           ! (Angstroms and Degrees)  !
 --------------------------                            --------------------------
 ! Name  Definition              Value          Derivative Info.                !
 --------------------------------------------------------------------------------
 ! R1    R(1,2)                  1.3965         estimate D2E/DX2                !
 ! R2    R(1,6)                  1.397          estimate D2E/DX2                !
 ! R3    R(1,7)                  1.0912         estimate D2E/DX2                !
 ! R4    R(2,3)                  1.4148         estimate D2E/DX2                !
 ! R5    R(2,12)                 1.7692         estimate D2E/DX2                !
 ! R6    R(3,4)                  1.3907         estimate D2E/DX2                !
 ! R7    R(3,11)                 1.3842         estimate D2E/DX2                !
 ! R8    R(4,5)                  1.3921         estimate D2E/DX2                !
 ! R9    R(4,8)                  1.0907         estimate D2E/DX2                !
 ! R10   R(5,6)                  1.3988         estimate D2E/DX2                !
 ! R11   R(5,9)                  1.0916         estimate D2E/DX2                !
 ! R12   R(6,10)                 1.0909         estimate D2E/DX2                !
 ! R13   R(11,23)                1.3579         estimate D2E/DX2                !
 ! R14   R(11,25)                0.6992         estimate D2E/DX2                !
 ! R15   R(12,23)                1.7584         estimate D2E/DX2                !
 ! R16   R(13,14)                1.3769         estimate D2E/DX2                !
 ! R17   R(13,15)                1.4986         estimate D2E/DX2                !
 ! R18   R(13,23)                1.4363         estimate D2E/DX2                !
 ! R19   R(14,16)                1.4274         estimate D2E/DX2                !
 ! R20   R(14,17)                1.0941         estimate D2E/DX2                !
 ! R21   R(15,18)                1.4305         estimate D2E/DX2                !
 ! R22   R(15,24)                1.2514         estimate D2E/DX2                !
 ! R23   R(16,19)                1.3924         estimate D2E/DX2                !
 ! R24   R(16,20)                1.0912         estimate D2E/DX2                !
 ! R25   R(18,19)                1.395          estimate D2E/DX2                !
 ! R26   R(18,21)                1.0917         estimate D2E/DX2                !
 ! R27   R(19,22)                1.0906         estimate D2E/DX2                !
 ! A1    A(2,1,6)              118.231          estimate D2E/DX2                !
 ! A2    A(2,1,7)              120.9683         estimate D2E/DX2                !
 ! A3    A(6,1,7)              120.8006         estimate D2E/DX2                !
 ! A4    A(1,2,3)              120.6529         estimate D2E/DX2                !
 ! A5    A(1,2,12)             128.4795         estimate D2E/DX2                !
 ! A6    A(3,2,12)             110.8676         estimate D2E/DX2                !
 ! A7    A(2,3,4)              120.684          estimate D2E/DX2                !
 ! A8    A(2,3,11)             112.8177         estimate D2E/DX2                !
 ! A9    A(4,3,11)             126.4983         estimate D2E/DX2                !
 ! A10   A(3,4,5)              118.3767         estimate D2E/DX2                !
 ! A11   A(3,4,8)              120.1253         estimate D2E/DX2                !
 ! A12   A(5,4,8)              121.498          estimate D2E/DX2                !
 ! A13   A(4,5,6)              121.2396         estimate D2E/DX2                !
 ! A14   A(4,5,9)              119.0865         estimate D2E/DX2                !
 ! A15   A(6,5,9)              119.6739         estimate D2E/DX2                !
 ! A16   A(1,6,5)              120.8158         estimate D2E/DX2                !
 ! A17   A(1,6,10)             119.3974         estimate D2E/DX2                !
 ! A18   A(5,6,10)             119.7868         estimate D2E/DX2                !
 ! A19   A(3,11,23)            113.8101         estimate D2E/DX2                !
 ! A20   A(3,11,25)            122.9299         estimate D2E/DX2                !
 ! A21   A(23,11,25)           123.2599         estimate D2E/DX2                !
 ! A22   A(2,12,23)             89.424          estimate D2E/DX2                !
 ! A23   A(14,13,15)           119.179          estimate D2E/DX2                !
 ! A24   A(14,13,23)           124.7257         estimate D2E/DX2                !
 ! A25   A(15,13,23)           116.0953         estimate D2E/DX2                !
 ! A26   A(13,14,16)           120.6787         estimate D2E/DX2                !
 ! A27   A(13,14,17)           120.6939         estimate D2E/DX2                !
 ! A28   A(16,14,17)           118.6274         estimate D2E/DX2                !
 ! A29   A(13,15,18)           117.246          estimate D2E/DX2                !
 ! A30   A(13,15,24)           121.3466         estimate D2E/DX2                !
 ! A31   A(18,15,24)           121.4075         estimate D2E/DX2                !
 ! A32   A(14,16,19)           121.4782         estimate D2E/DX2                !
 ! A33   A(14,16,20)           118.429          estimate D2E/DX2                !
 ! A34   A(19,16,20)           120.0928         estimate D2E/DX2                !
 ! A35   A(15,18,19)           121.8711         estimate D2E/DX2                !
 ! A36   A(15,18,21)           115.7006         estimate D2E/DX2                !
 ! A37   A(19,18,21)           122.4282         estimate D2E/DX2                !
 ! A38   A(16,19,18)           119.5469         estimate D2E/DX2                !
 ! A39   A(16,19,22)           120.0852         estimate D2E/DX2                !
 ! A40   A(18,19,22)           120.3679         estimate D2E/DX2                !
 ! A41   A(11,23,12)           113.0806         estimate D2E/DX2                !
 ! A42   A(11,23,13)           117.7025         estimate D2E/DX2                !
 ! A43   A(12,23,13)           129.2169         estimate D2E/DX2                !
 ! D1    D(6,1,2,3)              0.0            estimate D2E/DX2                !
 ! D2    D(6,1,2,12)          -179.9999         estimate D2E/DX2                !
 ! D3    D(7,1,2,3)            179.9999         estimate D2E/DX2                !
 ! D4    D(7,1,2,12)             0.0            estimate D2E/DX2                !
 ! D5    D(2,1,6,5)              0.0            estimate D2E/DX2                !
 ! D6    D(2,1,6,10)           180.0            estimate D2E/DX2                !
 ! D7    D(7,1,6,5)           -179.9999         estimate D2E/DX2                !
 ! D8    D(7,1,6,10)             0.0            estimate D2E/DX2                !
 ! D9    D(1,2,3,4)              0.0            estimate D2E/DX2                !
 ! D10   D(1,2,3,11)           180.0            estimate D2E/DX2                !
 ! D11   D(12,2,3,4)           180.0            estimate D2E/DX2                !
 ! D12   D(12,2,3,11)           -0.0001         estimate D2E/DX2                !
 ! D13   D(1,2,12,23)          179.9999         estimate D2E/DX2                !
 ! D14   D(3,2,12,23)            0.0            estimate D2E/DX2                !
 ! D15   D(2,3,4,5)              0.0            estimate D2E/DX2                !
 ! D16   D(2,3,4,8)            180.0            estimate D2E/DX2                !
 ! D17   D(11,3,4,5)          -180.0            estimate D2E/DX2                !
 ! D18   D(11,3,4,8)             0.0001         estimate D2E/DX2                !
 ! D19   D(2,3,11,23)            0.0002         estimate D2E/DX2                !
 ! D20   D(2,3,11,25)          179.9993         estimate D2E/DX2                !
 ! D21   D(4,3,11,23)         -179.9999         estimate D2E/DX2                !
 ! D22   D(4,3,11,25)           -0.0007         estimate D2E/DX2                !
 ! D23   D(3,4,5,6)              0.0            estimate D2E/DX2                !
 ! D24   D(3,4,5,9)           -180.0            estimate D2E/DX2                !
 ! D25   D(8,4,5,6)           -180.0            estimate D2E/DX2                !
 ! D26   D(8,4,5,9)              0.0            estimate D2E/DX2                !
 ! D27   D(4,5,6,1)              0.0            estimate D2E/DX2                !
 ! D28   D(4,5,6,10)          -180.0            estimate D2E/DX2                !
 ! D29   D(9,5,6,1)           -180.0            estimate D2E/DX2                !
 ! D30   D(9,5,6,10)             0.0            estimate D2E/DX2                !
 ! D31   D(3,11,23,12)          -0.0002         estimate D2E/DX2                !
 ! D32   D(3,11,23,13)         179.9993         estimate D2E/DX2                !
 ! D33   D(25,11,23,12)       -179.9993         estimate D2E/DX2                !
 ! D34   D(25,11,23,13)          0.0002         estimate D2E/DX2                !
 ! D35   D(2,12,23,11)           0.0001         estimate D2E/DX2                !
 ! D36   D(2,12,23,13)        -179.9993         estimate D2E/DX2                !
 ! D37   D(15,13,14,16)         -0.0004         estimate D2E/DX2                !
 ! D38   D(15,13,14,17)        179.9997         estimate D2E/DX2                !
 ! D39   D(23,13,14,16)        179.9995         estimate D2E/DX2                !
 ! D40   D(23,13,14,17)         -0.0004         estimate D2E/DX2                !
 ! D41   D(14,13,15,18)          0.0004         estimate D2E/DX2                !
 ! D42   D(14,13,15,24)       -179.9996         estimate D2E/DX2                !
 ! D43   D(23,13,15,18)       -179.9995         estimate D2E/DX2                !
 ! D44   D(23,13,15,24)          0.0004         estimate D2E/DX2                !
 ! D45   D(14,13,23,11)        179.9993         estimate D2E/DX2                !
 ! D46   D(14,13,23,12)         -0.0012         estimate D2E/DX2                !
 ! Atot  D(15,13,23,11)         -0.0008         Frozen                          !
 ! D48   D(15,13,23,12)        179.9987         estimate D2E/DX2                !
 ! D49   D(13,14,16,19)          0.0001         estimate D2E/DX2                !
 ! D50   D(13,14,16,20)       -179.9998         estimate D2E/DX2                !
 ! D51   D(17,14,16,19)       -180.0            estimate D2E/DX2                !
 ! D52   D(17,14,16,20)          0.0001         estimate D2E/DX2                !
 ! D53   D(13,15,18,19)         -0.0001         estimate D2E/DX2                !
 ! D54   D(13,15,18,21)        179.9998         estimate D2E/DX2                !
 ! D55   D(24,15,18,19)        180.0            estimate D2E/DX2                !
 ! D56   D(24,15,18,21)         -0.0002         estimate D2E/DX2                !
 ! D57   D(14,16,19,18)          0.0002         estimate D2E/DX2                !
 ! D58   D(14,16,19,22)       -179.9999         estimate D2E/DX2                !
 ! D59   D(20,16,19,18)       -179.9998         estimate D2E/DX2                !
 ! D60   D(20,16,19,22)          0.0001         estimate D2E/DX2                !
 ! D61   D(15,18,19,16)         -0.0003         estimate D2E/DX2                !
 ! D62   D(15,18,19,22)        179.9998         estimate D2E/DX2                !
 ! D63   D(21,18,19,16)        179.9999         estimate D2E/DX2                !
 ! D64   D(21,18,19,22)          0.0            estimate D2E/DX2                !
 ! Qtot  GIC-1                  60.0            Frozen                          !
 ! Ptot  GIC-2                 -60.0            Frozen                          !
 --------------------------------------------------------------------------------
 NOTE: GIC-type coordinates are in arbitrary units.
 Trust Radius=3.00D-01 FncErr=5.00D-06 GrdErr=5.00D-06 EigMax=2.50D+02 EigMin=1.00D-04
 Number of steps in this run=    146 maximum allowed number of steps=    150.
 GradGradGradGradGradGradGradGradGradGradGradGradGradGradGradGradGradGrad

 Leave Link  103 at Tue Jul 14 10:57:26 2020, MaxMem=  7784628224 cpu:               0.2 elap:               0.0
 (Enter /gpfs/loomis/apps/avx/software/Gaussian/16-C.01_AVX/g16/l202.exe)
                          Input orientation:                          
 ---------------------------------------------------------------------
 Center     Atomic      Atomic             Coordinates (Angstroms)
 Number     Number       Type             X           Y           Z
 ---------------------------------------------------------------------
      1          6           0        1.707338   -3.261068   -0.000023
      2          6           0        1.010999   -2.050522   -0.000021
      3          6           0        1.706334   -0.818434   -0.000019
      4          6           0        3.096739   -0.788203   -0.000020
      5          6           0        3.784835   -1.998376   -0.000022
      6          6           0        3.103725   -3.220170   -0.000024
      7          1           0        1.176246   -4.214352   -0.000023
      8          1           0        3.623505    0.166827   -0.000019
      9          1           0        4.876340   -1.988170   -0.000022
     10          1           0        3.666796   -4.154502   -0.000025
     11          7           0        0.859013    0.276141   -0.000019
     12         16           0       -0.738423   -1.786857   -0.000019
     13          6           0       -1.413197    1.022653    0.000002
     14          6           0       -2.780057    0.856991   -0.000006
     15          6           0       -0.845290    2.409522    0.000032
     16          6           0       -3.650738    1.988034    0.000024
     17          1           0       -3.221290   -0.144203   -0.000033
     18          6           0       -1.774037    3.497504    0.000060
     19          6           0       -3.153267    3.288562    0.000058
     20          1           0       -4.728003    1.814323    0.000019
     21          1           0       -1.333232    4.496287    0.000085
     22          1           0       -3.839310    4.136291    0.000083
     23          6           0       -0.458900   -0.050832   -0.000015
     24          8           0        0.390411    2.606962    0.000033
     25          1           0        1.090403    0.935919   -0.000011
 ---------------------------------------------------------------------
                    Distance matrix (angstroms):
                    1          2          3          4          5
     1  C    0.000000
     2  C    1.396536   0.000000
     3  C    2.442635   1.414755   0.000000
     4  C    2.836459   2.437983   1.390734   0.000000
     5  C    2.431128   2.774325   2.390068   1.392118   0.000000
     6  C    1.396986   2.397411   2.778676   2.431977   1.398818
     7  H    1.091242   2.170131   3.437042   3.927696   3.422760
     8  H    3.927107   3.426635   2.155524   1.090672   2.171205
     9  H    3.415091   3.865844   3.378938   2.146369   1.091553
    10  H    2.153531   3.388213   3.869465   3.414225   2.159355
    11  N    3.637514   2.331622   1.384214   2.477953   3.705922
    12  S    2.855705   1.769180   2.629579   3.963052   4.528201
    13  C    5.299812   3.914222   3.622303   4.859911   6.012167
    14  C    6.090577   4.777629   4.789025   6.102737   7.158975
    15  C    6.218642   4.830921   4.114667   5.075928   6.392778
    16  C    7.500804   6.167797   6.047684   7.296297   8.436777
    17  H    5.831486   4.641802   4.973537   6.350767   7.247327
    18  C    7.602518   6.207819   5.544394   6.487816   7.817017
    19  C    8.156172   6.771036   6.362636   7.462077   8.722899
    20  H    8.195927   6.919044   6.952130   8.246196   9.327651
    21  H    8.331965   6.953857   6.122518   6.895686   8.268933
    22  H    9.245877   7.861435   7.436630   8.506435   9.785792
    23  C    3.872752   2.481807   2.297271   3.631293   4.669284
    24  O    6.013991   4.698648   3.669468   4.341816   5.721124
    25  H    4.242088   2.987496   1.859334   2.645370   3.983723
                    6          7          8          9         10
     6  C    0.000000
     7  H    2.168773   0.000000
     8  H    3.426649   5.018348   0.000000
     9  H    2.158700   4.318169   2.492711   0.000000
    10  H    1.090882   2.491269   4.321546   2.481127   0.000000
    11  N    4.154868   4.501685   2.766653   4.611510   5.245402
    12  S    4.100792   3.091714   4.779467   5.618371   5.001170
    13  C    6.197107   5.842212   5.108895   6.973044   7.253224
    14  C    7.158362   6.432018   6.440647   8.167947   8.165597
    15  C    6.876638   6.925483   4.999981   7.216422   7.965257
    16  C    8.529253   7.859349   7.498760   9.408574   9.553902
    17  H    7.033306   5.992032   6.851859   8.304928   7.970460
    18  C    8.301789   8.256930   6.342466   8.620913   9.389135
    19  C    9.028485   8.662471   7.461224   9.608251  10.095170
    20  H    9.310322   8.438311   8.512458  10.329684  10.300462
    21  H    8.901140   9.064917   6.581297   8.978139   9.991818
    22  H   10.115496   9.741101   8.452825  10.652304  11.183867
    23  C    4.768334   4.473098   4.088204   5.676096   5.819061
    24  O    6.427873   6.866431   4.050575   6.421745   7.513461
    25  H    4.618067   5.150986   2.647283   4.783682   5.705277
                   11         12         13         14         15
    11  N    0.000000
    12  S    2.609169   0.000000
    13  C    2.391698   2.889406   0.000000
    14  C    3.685135   3.340389   1.376862   0.000000
    15  C    2.730561   4.197739   1.498641   2.480660   0.000000
    16  C    4.823736   4.767743   2.436914   1.427355   2.836933
    17  H    4.101897   2.977069   2.151918   1.094110   3.488106
    18  C    4.160544   5.384883   2.501018   2.825665   1.430481
    19  C    5.017277   5.620618   2.856954   2.460045   2.469710
    20  H    5.794890   5.374500   3.408032   2.170479   3.928069
    21  H    4.755583   6.311236   3.474555   3.916347   2.143053
    22  H    6.080707   6.685745   3.947248   3.446132   3.456282
    23  C    1.357868   1.758385   1.436333   2.492371   2.490509
    24  O    2.377460   4.536509   2.400633   3.621362   1.251375
    25  H    0.699176   3.279956   2.505102   3.871265   2.432779
                   16         17         18         19         20
    16  C    0.000000
    17  H    2.175054   0.000000
    18  C    2.408423   3.918746   0.000000
    19  C    1.392426   3.433438   1.394966   0.000000
    20  H    1.091181   2.471034   3.399854   2.157121   0.000000
    21  H    3.414991   5.009881   1.091731   2.184291   4.326361
    22  H    2.156518   4.324879   2.161805   1.090550   2.486224
    23  C    3.787453   2.763968   3.784213   4.290823   4.658760
    24  O    4.088270   4.540186   2.340491   3.608633   5.179424
    25  H    4.856476   4.444925   3.842751   4.852181   5.884339
                   21         22         23         24         25
    21  H    0.000000
    22  H    2.531802   0.000000
    23  C    4.630415   5.381373   0.000000
    24  O    2.557438   4.497709   2.790197   0.000000
    25  H    4.306998   5.877453   1.836849   1.811733   0.000000
 Symmetry turned off by external request.
 Stoichiometry    C13H9NOS
 Framework group  C1[X(C13H9NOS)]
 Deg. of freedom    69
 Full point group                 C1      NOp   1
 Rotational constants (GHZ):           1.3773671           0.2855526           0.2365182
 Leave Link  202 at Tue Jul 14 10:57:26 2020, MaxMem=  7784628224 cpu:               0.2 elap:               0.0
 (Enter /gpfs/loomis/apps/avx/software/Gaussian/16-C.01_AVX/g16/l301.exe)
 Standard basis: CC-pVDZ (5D, 7F)
 Ernie: Thresh=  0.10000D-02 Tol=  0.10000D-05 Strict=F.
 Ernie:  40 primitive shells out of 425 were deleted.
   273 basis functions,   629 primitive gaussians,   289 cartesian basis functions
    59 alpha electrons       59 beta electrons
       nuclear repulsion energy      1099.8809748594 Hartrees.
 IExCor= 4639 DFT=T Ex+Corr=wB97XD ExCW=0 ScaHFX=  1.000000
 ScaDFX=  1.000000  1.000000  1.000000  1.000000 ScalE2=  1.000000  1.000000
 IRadAn=      5 IRanWt=     -1 IRanGd=            0 ICorTp=0 IEmpDi=121
 HFx  wShort=  0.000000 wLong=  0.200000 cFull=  0.222036 cShort=  0.000000 cLong=  0.777964
 DFx  wShort=  0.000000 wLong=  0.200000 cFull=  0.000000 cShort=  0.000000 cLong=  1.000000
 NAtoms=   25 NActive=   25 NUniq=   25 SFac= 1.00D+00 NAtFMM=   60 NAOKFM=F Big=F
 Integral buffers will be    131072 words long.
 Raffenetti 1 integral format.
 Two-electron integral symmetry is turned off.
 R6Disp:  Grimme-D2 Dispersion energy=       -0.0141684347 Hartrees.
 Nuclear repulsion after empirical dispersion term =     1099.8668064247 Hartrees.
 ------------------------------------------------------------------------------
 Polarizable Continuum Model (PCM)
 =================================
 Model                : PCM.
 Atomic radii         : UFF (Universal Force Field).
 Polarization charges : Total charges.
 Charge compensation  : None.
 Solution method      : On-the-fly selection.
 Cavity type          : Scaled VdW (van der Waals Surface) (Alpha=1.100).
 Cavity algorithm     : GePol (No added spheres)
                        Default sphere list used, NSphG=   25.
                        Lebedev-Laikov grids with approx.  5.0 points / Ang**2.
                        Smoothing algorithm: York/Karplus (Gamma=1.0000).
                        Polarization charges: spherical gaussians, with
                                              point-specific exponents (IZeta= 3).
                        Self-potential: point-specific (ISelfS= 7).
                        Self-field    : sphere-specific E.n sum rule (ISelfD= 2).
 1st derivatives      : Analytical E(r).r(x)/FMM algorithm (CHGder, D1EAlg=3).
                        Cavity 1st derivative terms included.
 Solvent              : CarbonTetraChloride, Eps=   2.228000 Eps(inf)=   2.131892
 ------------------------------------------------------------------------------
 GePol: Number of generator spheres                  =      25
 GePol: Total number of spheres                      =      25
 GePol: Number of exposed spheres                    =      25 (100.00%)
 GePol: Number of points                             =    2207
 GePol: Average weight of points                     =       0.12
 GePol: Minimum weight of points                     =   0.14D-11
 GePol: Maximum weight of points                     =    0.20577
 GePol: Number of points with low weight             =     162
 GePol: Fraction of low-weight points (<1% of avg)   =       7.34%
 GePol: Cavity surface area                          =    274.618 Ang**2
 GePol: Cavity volume                                =    293.482 Ang**3
 Leave Link  301 at Tue Jul 14 10:57:26 2020, MaxMem=  7784628224 cpu:               4.1 elap:               0.5
 (Enter /gpfs/loomis/apps/avx/software/Gaussian/16-C.01_AVX/g16/l302.exe)
 NPDir=0 NMtPBC=     1 NCelOv=     1 NCel=       1 NClECP=     1 NCelD=      1
         NCelK=      1 NCelE2=     1 NClLst=     1 CellRange=     0.0.
 One-electron integrals computed using PRISM.
 NBasis=   273 RedAO= T EigKep=  3.00D-04  NBF=   273
 NBsUse=   273 1.00D-06 EigRej= -1.00D+00 NBFU=   273
 Precomputing XC quadrature grid using
 IXCGrd= 4 IRadAn=           5 IRanWt=          -1 IRanGd=           0 AccXCQ= 0.00D+00.
 Generated NRdTot=       0 NPtTot=           0 NUsed=           0 NTot=          32
 NSgBfM=   288   288   288   288   288 MxSgAt=    25 MxSgA2=    25.
 Leave Link  302 at Tue Jul 14 10:57:26 2020, MaxMem=  7784628224 cpu:               2.6 elap:               0.3
 (Enter /gpfs/loomis/apps/avx/software/Gaussian/16-C.01_AVX/g16/l303.exe)
 DipDrv:  MaxL=1.
 Leave Link  303 at Tue Jul 14 10:57:26 2020, MaxMem=  7784628224 cpu:               0.4 elap:               0.1
 (Enter /gpfs/loomis/apps/avx/software/Gaussian/16-C.01_AVX/g16/l308.exe)
 Leave Link  308 at Tue Jul 14 10:57:27 2020, MaxMem=  7784628224 cpu:               1.2 elap:               0.2
 (Enter /gpfs/loomis/apps/avx/software/Gaussian/16-C.01_AVX/g16/l401.exe)
 ExpMin= 1.22D-01 ExpMax= 1.11D+05 ExpMxC= 1.07D+03 IAcc=3 IRadAn=         5 AccDes= 0.00D+00
 Harris functional with IExCor= 4639 and IRadAn=       5 diagonalized for initial guess.
 HarFok:  IExCor= 4639 AccDes= 0.00D+00 IRadAn=         5 IDoV= 1 UseB2=F ITyADJ=14
 ICtDFT=  3500011 ScaDFX=  1.000000  1.000000  1.000000  1.000000
 FoFCou: FMM=F IPFlag=           0 FMFlag=      100000 FMFlg1=           0
         NFxFlg=           0 DoJE=T BraDBF=F KetDBF=T FulRan=T
         wScrn=  0.000000 ICntrl=       500 IOpCl=  0 I1Cent=   200000004 NGrid=           0
         NMat0=    1 NMatS0=      1 NMatT0=    0 NMatD0=    1 NMtDS0=    0 NMtDT0=    0
 Symmetry not used in FoFCou.
 Harris En= -994.256173333909    
 JPrj=0 DoOrth=F DoCkMO=F.
 Leave Link  401 at Tue Jul 14 10:57:28 2020, MaxMem=  7784628224 cpu:              13.6 elap:               1.4
 (Enter /gpfs/loomis/apps/avx/software/Gaussian/16-C.01_AVX/g16/l502.exe)
 Two-electron integral symmetry not used.
 Closed shell SCF:
 Using DIIS extrapolation, IDIIS=  1040.
 NGot=  7784628224 LenX=  7784455381 LenY=  7784371419
 Requested convergence on RMS density matrix=1.00D-08 within 128 cycles.
 Requested convergence on MAX density matrix=1.00D-06.
 Requested convergence on             energy=1.00D-06.
 No special actions if energy rises.
 Fock matrices will be formed incrementally for  20 cycles.

 Cycle   1  Pass 1  IDiag  1:
 FoFJK:  IHMeth= 1 ICntrl=       0 DoSepK=T KAlg= 0 I1Cent=           0 FoldK=F
 IRaf=         1 NMat=       1 IRICut=       1 DoRegI=T DoRafI=F ISym2E= 0 IDoP0=0 IntGTp=1.
 FoFCou: FMM=F IPFlag=           0 FMFlag=      100000 FMFlg1=           0
         NFxFlg=           0 DoJE=T BraDBF=F KetDBF=F FulRan=T
         wScrn=  0.000000 ICntrl=       500 IOpCl=  0 I1Cent=           0 NGrid=           0
         NMat0=    1 NMatS0=      1 NMatT0=    0 NMatD0=    1 NMtDS0=    0 NMtDT0=    0
 Symmetry not used in FoFCou.
 Inv3:  Mode=1 IEnd=    14612547.
 Iteration    1 A*A^-1 deviation from unit magnitude is 6.55D-15 for   2205.
 Iteration    1 A*A^-1 deviation from orthogonality  is 2.10D-15 for   2205   2105.
 Iteration    1 A^-1*A deviation from unit magnitude is 6.55D-15 for   2205.
 Iteration    1 A^-1*A deviation from orthogonality  is 2.10D-15 for   2191   2086.
 E= -1028.35535506297    
 DIIS: error= 4.32D-02 at cycle   1 NSaved=   1.
 NSaved= 1 IEnMin= 1 EnMin= -1028.35535506297     IErMin= 1 ErrMin= 4.32D-02
 ErrMax= 4.32D-02  0.00D+00 EMaxC= 1.00D-01 BMatC= 4.00D-01 BMatP= 4.00D-01
 IDIUse=3 WtCom= 5.68D-01 WtEn= 4.32D-01
 Coeff-Com:  0.100D+01
 Coeff-En:   0.100D+01
 Coeff:      0.100D+01
 Gap=     0.296 Goal=   None    Shift=    0.000
 GapD=    0.296 DampG=1.000 DampE=0.500 DampFc=0.5000 IDamp=-1.
 Damping current iteration by 5.00D-01
 RMSDP=3.76D-03 MaxDP=2.60D-01              OVMax= 2.20D-01

 Cycle   2  Pass 1  IDiag  1:
 RMSU=  1.87D-03    CP:  9.94D-01
 E= -1028.48172686049     Delta-E=       -0.126371797517 Rises=F Damp=T
 DIIS: error= 1.20D-02 at cycle   2 NSaved=   2.
 NSaved= 2 IEnMin= 2 EnMin= -1028.48172686049     IErMin= 2 ErrMin= 1.20D-02
 ErrMax= 1.20D-02  0.00D+00 EMaxC= 1.00D-01 BMatC= 5.82D-02 BMatP= 4.00D-01
 IDIUse=3 WtCom= 8.80D-01 WtEn= 1.20D-01
 Coeff-Com: -0.275D+00 0.127D+01
 Coeff-En:   0.000D+00 0.100D+01
 Coeff:     -0.242D+00 0.124D+01
 Gap=     0.364 Goal=   None    Shift=    0.000
 RMSDP=1.18D-03 MaxDP=3.21D-02 DE=-1.26D-01 OVMax= 1.53D-01

 Cycle   3  Pass 1  IDiag  1:
 RMSU=  1.15D-03    CP:  9.91D-01  1.15D+00
 E= -1028.59745308824     Delta-E=       -0.115726227757 Rises=F Damp=F
 DIIS: error= 6.04D-03 at cycle   3 NSaved=   3.
 NSaved= 3 IEnMin= 3 EnMin= -1028.59745308824     IErMin= 3 ErrMin= 6.04D-03
 ErrMax= 6.04D-03  0.00D+00 EMaxC= 1.00D-01 BMatC= 1.49D-02 BMatP= 5.82D-02
 IDIUse=3 WtCom= 9.40D-01 WtEn= 6.04D-02
 Coeff-Com: -0.197D+00 0.485D+00 0.712D+00
 Coeff-En:   0.000D+00 0.000D+00 0.100D+01
 Coeff:     -0.185D+00 0.455D+00 0.730D+00
 Gap=     0.230 Goal=   None    Shift=    0.000
 RMSDP=5.35D-04 MaxDP=2.37D-02 DE=-1.16D-01 OVMax= 4.91D-02

 Cycle   4  Pass 1  IDiag  1:
 RMSU=  4.25D-04    CP:  9.90D-01  1.31D+00  8.73D-01
 E= -1028.61228589329     Delta-E=       -0.014832805052 Rises=F Damp=F
 DIIS: error= 2.05D-03 at cycle   4 NSaved=   4.
 NSaved= 4 IEnMin= 4 EnMin= -1028.61228589329     IErMin= 4 ErrMin= 2.05D-03
 ErrMax= 2.05D-03  0.00D+00 EMaxC= 1.00D-01 BMatC= 1.79D-03 BMatP= 1.49D-02
 IDIUse=3 WtCom= 9.80D-01 WtEn= 2.05D-02
 Coeff-Com: -0.697D-01 0.137D+00 0.338D+00 0.594D+00
 Coeff-En:   0.000D+00 0.000D+00 0.000D+00 0.100D+01
 Coeff:     -0.683D-01 0.135D+00 0.331D+00 0.602D+00
 Gap=     0.233 Goal=   None    Shift=    0.000
 RMSDP=1.68D-04 MaxDP=9.14D-03 DE=-1.48D-02 OVMax= 1.31D-02

 Cycle   5  Pass 1  IDiag  1:
 RMSU=  1.15D-04    CP:  9.89D-01  1.32D+00  9.40D-01  7.81D-01
 E= -1028.61427284943     Delta-E=       -0.001986956131 Rises=F Damp=F
 DIIS: error= 6.58D-04 at cycle   5 NSaved=   5.
 NSaved= 5 IEnMin= 5 EnMin= -1028.61427284943     IErMin= 5 ErrMin= 6.58D-04
 ErrMax= 6.58D-04  0.00D+00 EMaxC= 1.00D-01 BMatC= 6.32D-05 BMatP= 1.79D-03
 IDIUse=3 WtCom= 9.93D-01 WtEn= 6.58D-03
 Coeff-Com:  0.281D-03-0.702D-02 0.211D-01 0.153D+00 0.833D+00
 Coeff-En:   0.000D+00 0.000D+00 0.000D+00 0.000D+00 0.100D+01
 Coeff:      0.279D-03-0.697D-02 0.209D-01 0.152D+00 0.834D+00
 Gap=     0.234 Goal=   None    Shift=    0.000
 RMSDP=6.41D-05 MaxDP=2.05D-03 DE=-1.99D-03 OVMax= 7.64D-03

 Cycle   6  Pass 1  IDiag  1:
 RMSU=  4.08D-05    CP:  9.89D-01  1.32D+00  9.59D-01  8.77D-01  1.14D+00
 E= -1028.61443284354     Delta-E=       -0.000159994111 Rises=F Damp=F
 DIIS: error= 2.55D-04 at cycle   6 NSaved=   6.
 NSaved= 6 IEnMin= 6 EnMin= -1028.61443284354     IErMin= 6 ErrMin= 2.55D-04
 ErrMax= 2.55D-04  0.00D+00 EMaxC= 1.00D-01 BMatC= 1.25D-05 BMatP= 6.32D-05
 IDIUse=3 WtCom= 9.97D-01 WtEn= 2.55D-03
 Coeff-Com:  0.178D-01-0.361D-01-0.718D-01-0.907D-01 0.215D+00 0.966D+00
 Coeff-En:   0.000D+00 0.000D+00 0.000D+00 0.000D+00 0.000D+00 0.100D+01
 Coeff:      0.177D-01-0.360D-01-0.716D-01-0.905D-01 0.214D+00 0.966D+00
 Gap=     0.235 Goal=   None    Shift=    0.000
 RMSDP=4.33D-05 MaxDP=2.04D-03 DE=-1.60D-04 OVMax= 4.81D-03

 Cycle   7  Pass 1  IDiag  1:
 RMSU=  1.97D-05    CP:  9.89D-01  1.32D+00  9.73D-01  9.16D-01  1.38D+00
                    CP:  1.38D+00
 E= -1028.61448024854     Delta-E=       -0.000047405004 Rises=F Damp=F
 DIIS: error= 9.74D-05 at cycle   7 NSaved=   7.
 NSaved= 7 IEnMin= 7 EnMin= -1028.61448024854     IErMin= 7 ErrMin= 9.74D-05
 ErrMax= 9.74D-05  0.00D+00 EMaxC= 1.00D-01 BMatC= 2.10D-06 BMatP= 1.25D-05
 IDIUse=1 WtCom= 1.00D+00 WtEn= 0.00D+00
 Coeff-Com:  0.598D-02-0.111D-01-0.250D-01-0.509D-01-0.245D-01 0.327D+00
 Coeff-Com:  0.778D+00
 Coeff:      0.598D-02-0.111D-01-0.250D-01-0.509D-01-0.245D-01 0.327D+00
 Coeff:      0.778D+00
 Gap=     0.236 Goal=   None    Shift=    0.000
 RMSDP=1.42D-05 MaxDP=5.21D-04 DE=-4.74D-05 OVMax= 2.01D-03

 Cycle   8  Pass 1  IDiag  1:
 RMSU=  7.40D-06    CP:  9.89D-01  1.32D+00  9.74D-01  9.23D-01  1.43D+00
                    CP:  1.60D+00  1.22D+00
 E= -1028.61448690392     Delta-E=       -0.000006655383 Rises=F Damp=F
 DIIS: error= 5.10D-05 at cycle   8 NSaved=   8.
 NSaved= 8 IEnMin= 8 EnMin= -1028.61448690392     IErMin= 8 ErrMin= 5.10D-05
 ErrMax= 5.10D-05  0.00D+00 EMaxC= 1.00D-01 BMatC= 4.70D-07 BMatP= 2.10D-06
 IDIUse=1 WtCom= 1.00D+00 WtEn= 0.00D+00
 Coeff-Com: -0.219D-02 0.459D-02 0.997D-02 0.654D-02-0.381D-01-0.144D+00
 Coeff-Com:  0.214D+00 0.949D+00
 Coeff:     -0.219D-02 0.459D-02 0.997D-02 0.654D-02-0.381D-01-0.144D+00
 Coeff:      0.214D+00 0.949D+00
 Gap=     0.236 Goal=   None    Shift=    0.000
 RMSDP=8.49D-06 MaxDP=1.94D-04 DE=-6.66D-06 OVMax= 1.27D-03

 Cycle   9  Pass 1  IDiag  1:
 RMSU=  3.05D-06    CP:  9.89D-01  1.32D+00  9.74D-01  9.22D-01  1.45D+00
                    CP:  1.72D+00  1.49D+00  1.26D+00
 E= -1028.61448878103     Delta-E=       -0.000001877102 Rises=F Damp=F
 DIIS: error= 2.24D-05 at cycle   9 NSaved=   9.
 NSaved= 9 IEnMin= 9 EnMin= -1028.61448878103     IErMin= 9 ErrMin= 2.24D-05
 ErrMax= 2.24D-05  0.00D+00 EMaxC= 1.00D-01 BMatC= 6.12D-08 BMatP= 4.70D-07
 IDIUse=1 WtCom= 1.00D+00 WtEn= 0.00D+00
 Coeff-Com: -0.905D-03 0.172D-02 0.437D-02 0.617D-02-0.105D-02-0.770D-01
 Coeff-Com: -0.669D-01 0.144D+00 0.990D+00
 Coeff:     -0.905D-03 0.172D-02 0.437D-02 0.617D-02-0.105D-02-0.770D-01
 Coeff:     -0.669D-01 0.144D+00 0.990D+00
 Gap=     0.236 Goal=   None    Shift=    0.000
 RMSDP=4.12D-06 MaxDP=1.00D-04 DE=-1.88D-06 OVMax= 6.68D-04

 Cycle  10  Pass 1  IDiag  1:
 RMSU=  1.32D-06    CP:  9.89D-01  1.32D+00  9.74D-01  9.22D-01  1.46D+00
                    CP:  1.77D+00  1.60D+00  1.51D+00  1.37D+00
 E= -1028.61448913327     Delta-E=       -0.000000352241 Rises=F Damp=F
 DIIS: error= 8.46D-06 at cycle  10 NSaved=  10.
 NSaved=10 IEnMin=10 EnMin= -1028.61448913327     IErMin=10 ErrMin= 8.46D-06
 ErrMax= 8.46D-06  0.00D+00 EMaxC= 1.00D-01 BMatC= 1.98D-08 BMatP= 6.12D-08
 IDIUse=1 WtCom= 1.00D+00 WtEn= 0.00D+00
 Coeff-Com:  0.169D-03-0.401D-03-0.453D-03 0.629D-03 0.900D-02-0.135D-02
 Coeff-Com: -0.633D-01-0.145D+00 0.406D+00 0.795D+00
 Coeff:      0.169D-03-0.401D-03-0.453D-03 0.629D-03 0.900D-02-0.135D-02
 Coeff:     -0.633D-01-0.145D+00 0.406D+00 0.795D+00
 Gap=     0.236 Goal=   None    Shift=    0.000
 RMSDP=1.55D-06 MaxDP=3.60D-05 DE=-3.52D-07 OVMax= 2.59D-04

 Cycle  11  Pass 1  IDiag  1:
 RMSU=  5.12D-07    CP:  9.89D-01  1.32D+00  9.74D-01  9.22D-01  1.46D+00
                    CP:  1.78D+00  1.63D+00  1.60D+00  1.67D+00  1.15D+00
 E= -1028.61448919579     Delta-E=       -0.000000062520 Rises=F Damp=F
 DIIS: error= 3.35D-06 at cycle  11 NSaved=  11.
 NSaved=11 IEnMin=11 EnMin= -1028.61448919579     IErMin=11 ErrMin= 3.35D-06
 ErrMax= 3.35D-06  0.00D+00 EMaxC= 1.00D-01 BMatC= 1.83D-09 BMatP= 1.98D-08
 IDIUse=1 WtCom= 1.00D+00 WtEn= 0.00D+00
 Coeff-Com:  0.253D-03-0.503D-03-0.104D-02-0.141D-02 0.302D-02 0.139D-01
 Coeff-Com: -0.322D-04-0.624D-01-0.790D-01 0.895D-01 0.104D+01
 Coeff:      0.253D-03-0.503D-03-0.104D-02-0.141D-02 0.302D-02 0.139D-01
 Coeff:     -0.322D-04-0.624D-01-0.790D-01 0.895D-01 0.104D+01
 Gap=     0.236 Goal=   None    Shift=    0.000
 RMSDP=7.06D-07 MaxDP=1.66D-05 DE=-6.25D-08 OVMax= 1.20D-04

 Cycle  12  Pass 1  IDiag  1:
 RMSU=  1.87D-07    CP:  9.89D-01  1.32D+00  9.74D-01  9.23D-01  1.46D+00
                    CP:  1.79D+00  1.65D+00  1.64D+00  1.80D+00  1.39D+00
                    CP:  1.29D+00
 E= -1028.61448920528     Delta-E=       -0.000000009491 Rises=F Damp=F
 DIIS: error= 1.28D-06 at cycle  12 NSaved=  12.
 NSaved=12 IEnMin=12 EnMin= -1028.61448920528     IErMin=12 ErrMin= 1.28D-06
 ErrMax= 1.28D-06  0.00D+00 EMaxC= 1.00D-01 BMatC= 4.67D-10 BMatP= 1.83D-09
 IDIUse=1 WtCom= 1.00D+00 WtEn= 0.00D+00
 Coeff-Com:  0.740D-04-0.141D-03-0.319D-03-0.642D-03 0.352D-03 0.561D-02
 Coeff-Com:  0.727D-02-0.927D-02-0.765D-01-0.782D-01 0.410D+00 0.742D+00
 Coeff:      0.740D-04-0.141D-03-0.319D-03-0.642D-03 0.352D-03 0.561D-02
 Coeff:      0.727D-02-0.927D-02-0.765D-01-0.782D-01 0.410D+00 0.742D+00
 Gap=     0.236 Goal=   None    Shift=    0.000
 RMSDP=2.12D-07 MaxDP=7.48D-06 DE=-9.49D-09 OVMax= 2.73D-05

 Cycle  13  Pass 1  IDiag  1:
 RMSU=  8.43D-08    CP:  9.89D-01  1.32D+00  9.74D-01  9.23D-01  1.46D+00
                    CP:  1.79D+00  1.65D+00  1.64D+00  1.84D+00  1.45D+00
                    CP:  1.48D+00  1.02D+00
 E= -1028.61448920628     Delta-E=       -0.000000000998 Rises=F Damp=F
 DIIS: error= 4.59D-07 at cycle  13 NSaved=  13.
 NSaved=13 IEnMin=13 EnMin= -1028.61448920628     IErMin=13 ErrMin= 4.59D-07
 ErrMax= 4.59D-07  0.00D+00 EMaxC= 1.00D-01 BMatC= 6.54D-11 BMatP= 4.67D-10
 IDIUse=1 WtCom= 1.00D+00 WtEn= 0.00D+00
 Coeff-Com: -0.126D-04 0.271D-04 0.536D-04-0.283D-04-0.211D-03-0.132D-03
 Coeff-Com:  0.265D-02 0.689D-02-0.122D-01-0.470D-01-0.181D-01 0.296D+00
 Coeff-Com:  0.772D+00
 Coeff:     -0.126D-04 0.271D-04 0.536D-04-0.283D-04-0.211D-03-0.132D-03
 Coeff:      0.265D-02 0.689D-02-0.122D-01-0.470D-01-0.181D-01 0.296D+00
 Coeff:      0.772D+00
 Gap=     0.236 Goal=   None    Shift=    0.000
 RMSDP=6.05D-08 MaxDP=2.02D-06 DE=-9.98D-10 OVMax= 8.50D-06

 Cycle  14  Pass 1  IDiag  1:
 RMSU=  3.47D-08    CP:  9.89D-01  1.32D+00  9.74D-01  9.23D-01  1.46D+00
                    CP:  1.79D+00  1.65D+00  1.64D+00  1.85D+00  1.47D+00
                    CP:  1.52D+00  1.19D+00  9.81D-01
 E= -1028.61448920642     Delta-E=       -0.000000000141 Rises=F Damp=F
 DIIS: error= 2.37D-07 at cycle  14 NSaved=  14.
 NSaved=14 IEnMin=14 EnMin= -1028.61448920642     IErMin=14 ErrMin= 2.37D-07
 ErrMax= 2.37D-07  0.00D+00 EMaxC= 1.00D-01 BMatC= 1.10D-11 BMatP= 6.54D-11
 IDIUse=1 WtCom= 1.00D+00 WtEn= 0.00D+00
 Coeff-Com: -0.146D-04 0.291D-04 0.633D-04 0.614D-04-0.156D-03-0.728D-03
 Coeff-Com:  0.303D-03 0.404D-02 0.286D-02-0.113D-01-0.586D-01 0.388D-01
 Coeff-Com:  0.340D+00 0.685D+00
 Coeff:     -0.146D-04 0.291D-04 0.633D-04 0.614D-04-0.156D-03-0.728D-03
 Coeff:      0.303D-03 0.404D-02 0.286D-02-0.113D-01-0.586D-01 0.388D-01
 Coeff:      0.340D+00 0.685D+00
 Gap=     0.236 Goal=   None    Shift=    0.000
 RMSDP=2.60D-08 MaxDP=9.59D-07 DE=-1.41D-10 OVMax= 2.85D-06

 Cycle  15  Pass 1  IDiag  1:
 RMSU=  1.23D-08    CP:  9.89D-01  1.32D+00  9.74D-01  9.23D-01  1.46D+00
                    CP:  1.79D+00  1.65D+00  1.64D+00  1.85D+00  1.47D+00
                    CP:  1.54D+00  1.22D+00  1.14D+00  9.96D-01
 E= -1028.61448920642     Delta-E=       -0.000000000005 Rises=F Damp=F
 DIIS: error= 7.14D-08 at cycle  15 NSaved=  15.
 NSaved=15 IEnMin=15 EnMin= -1028.61448920642     IErMin=15 ErrMin= 7.14D-08
 ErrMax= 7.14D-08  0.00D+00 EMaxC= 1.00D-01 BMatC= 1.39D-12 BMatP= 1.10D-11
 IDIUse=1 WtCom= 1.00D+00 WtEn= 0.00D+00
 Coeff-Com: -0.191D-05 0.334D-05 0.105D-04 0.300D-04-0.444D-05-0.279D-03
 Coeff-Com: -0.588D-03-0.657D-04 0.476D-02 0.912D-02-0.197D-01-0.606D-01
 Coeff-Com: -0.530D-01 0.227D+00 0.893D+00
 Coeff:     -0.191D-05 0.334D-05 0.105D-04 0.300D-04-0.444D-05-0.279D-03
 Coeff:     -0.588D-03-0.657D-04 0.476D-02 0.912D-02-0.197D-01-0.606D-01
 Coeff:     -0.530D-01 0.227D+00 0.893D+00
 Gap=     0.236 Goal=   None    Shift=    0.000
 RMSDP=1.15D-08 MaxDP=2.91D-07 DE=-4.55D-12 OVMax= 1.40D-06

 Cycle  16  Pass 1  IDiag  1:
 RMSU=  5.37D-09    CP:  9.89D-01  1.32D+00  9.74D-01  9.23D-01  1.46D+00
                    CP:  1.79D+00  1.65D+00  1.64D+00  1.85D+00  1.47D+00
                    CP:  1.54D+00  1.25D+00  1.20D+00  1.20D+00  1.10D+00
 E= -1028.61448920643     Delta-E=       -0.000000000011 Rises=F Damp=F
 DIIS: error= 2.98D-08 at cycle  16 NSaved=  16.
 NSaved=16 IEnMin=16 EnMin= -1028.61448920643     IErMin=16 ErrMin= 2.98D-08
 ErrMax= 2.98D-08  0.00D+00 EMaxC= 1.00D-01 BMatC= 1.77D-13 BMatP= 1.39D-12
 IDIUse=1 WtCom= 1.00D+00 WtEn= 0.00D+00
 Coeff-Com:  0.661D-06-0.145D-05-0.205D-05 0.328D-05 0.780D-05-0.182D-04
 Coeff-Com: -0.199D-03-0.373D-03 0.850D-03 0.353D-02-0.585D-03-0.198D-01
 Coeff-Com: -0.431D-01-0.173D-01 0.266D+00 0.811D+00
 Coeff:      0.661D-06-0.145D-05-0.205D-05 0.328D-05 0.780D-05-0.182D-04
 Coeff:     -0.199D-03-0.373D-03 0.850D-03 0.353D-02-0.585D-03-0.198D-01
 Coeff:     -0.431D-01-0.173D-01 0.266D+00 0.811D+00
 Gap=     0.236 Goal=   None    Shift=    0.000
 RMSDP=4.11D-09 MaxDP=1.27D-07 DE=-1.11D-11 OVMax= 5.62D-07

 Error on total polarization charges =  0.00853
 SCF Done:  E(RwB97XD) =  -1028.61448921     A.U. after   16 cycles
            NFock= 16  Conv=0.41D-08     -V/T= 2.0039
 KE= 1.024666274696D+03 PE=-4.611778048507D+03 EE= 1.458630478179D+03
 Leave Link  502 at Tue Jul 14 10:58:57 2020, MaxMem=  7784628224 cpu:             874.9 elap:              88.3
 (Enter /gpfs/loomis/apps/avx/software/Gaussian/16-C.01_AVX/g16/l801.exe)
 DoSCS=F DFT=T ScalE2(SS,OS)=  1.000000  1.000000
 ExpMin= 1.22D-01 ExpMax= 1.11D+05 ExpMxC= 1.07D+03 IAcc=3 IRadAn=         5 AccDes= 0.00D+00
 HarFok:  IExCor=  205 AccDes= 0.00D+00 IRadAn=         5 IDoV=-2 UseB2=F ITyADJ=14
 ICtDFT= 12500011 ScaDFX=  1.000000  1.000000  1.000000  1.000000
 Largest valence mixing into a core orbital is  9.56D-05
 Largest core mixing into a valence orbital is  3.12D-05
 Range of M.O.s used for correlation:    21   273
 NBasis=   273 NAE=    59 NBE=    59 NFC=    20 NFV=     0
 NROrb=    253 NOA=    39 NOB=    39 NVA=   214 NVB=   214
 Leave Link  801 at Tue Jul 14 10:58:57 2020, MaxMem=  7784628224 cpu:               2.0 elap:               0.3
 (Enter /gpfs/loomis/apps/avx/software/Gaussian/16-C.01_AVX/g16/l914.exe)
 RHF ground state
 Keep R1, R2, and R3 ints in memory in canonical form, NReq=4262515490.
 FoFCou: FMM=F IPFlag=           0 FMFlag=           0 FMFlg1=           0
         NFxFlg=           0 DoJE=F BraDBF=F KetDBF=F FulRan=T
         wScrn=  0.000000 ICntrl=       600 IOpCl=  0 I1Cent=           0 NGrid=           0
         NMat0=    1 NMatS0=  37401 NMatT0=    0 NMatD0=    1 NMtDS0=    0 NMtDT0=    0
 Symmetry not used in FoFCou.
 Two-electron integral symmetry not used.
 MDV=  7784628224 DFT=T DoStab=F Mixed=T DoRPA=T DoScal=F NonHer=T
 NEqPCM:  Using equilibrium solvation (IEInf=0, Eps=   2.2280, EpsInf=   2.1319)
 Making orbital integer symmetry assigments:
    12 initial guesses have been made.
 Convergence on wavefunction:    0.000001000000000
 Davidson Disk Diagonalization:  ConvIn= 1.00D-06 SkipCon=T Conv= 1.00D-06.
 Max sub-space:  2000 roots to seek:    12 dimension of matrix:        16692
 Iteration     1 Dimension    12 NMult     0 NNew     12
 CISAX will form    12 AO SS matrices at one time.
 NMat=    12 NSing=    12 JSym2X= 0.
 New state      3 was old state      4
 Excitation Energies [eV] at current iteration:
 Root      1 :     3.399773903568124
 Root      2 :     3.639317727194798
 Root      3 :     4.846900087798338
 Root      4 :     5.116626208589509
 Root      5 :     5.155565188520879
 Root      6 :     5.692849771039795
 Root      7 :     5.846999802913377
 Root      8 :     6.286322025056585
 Root      9 :     6.471481704845351
 Root     10 :     6.647252366267251
 Root     11 :     6.959557664955442
 Root     12 :     7.180914793614892
 Iteration     2 Dimension    18 NMult    12 NNew      6
 CISAX will form     6 AO SS matrices at one time.
 NMat=     6 NSing=     6 JSym2X= 0.
 Root      1 not converged, maximum delta is    0.043288366876814
 Root      2 not converged, maximum delta is    0.108694706055301
 Root      3 not converged, maximum delta is    0.080848866779357
 Excitation Energies [eV] at current iteration:
 Root      1 :     2.880409712338317   Change is   -0.519364191229808
 Root      2 :     3.430382290762132   Change is   -0.208935436432666
 Root      3 :     4.408593486781869   Change is   -0.438306601016469
 Iteration     3 Dimension    24 NMult    18 NNew      6
 CISAX will form     6 AO SS matrices at one time.
 NMat=     6 NSing=     6 JSym2X= 0.
 Root      1 not converged, maximum delta is    0.016110244002373
 Root      2 not converged, maximum delta is    0.028176170681784
 Root      3 not converged, maximum delta is    0.029223136345182
 Excitation Energies [eV] at current iteration:
 Root      1 :     2.851155148279305   Change is   -0.029254564059012
 Root      2 :     3.410057263259938   Change is   -0.020325027502194
 Root      3 :     4.379363726497178   Change is   -0.029229760284692
 Iteration     4 Dimension    30 NMult    24 NNew      6
 CISAX will form     6 AO SS matrices at one time.
 NMat=     6 NSing=     6 JSym2X= 0.
 Root      1 not converged, maximum delta is    0.008521041063932
 Root      2 not converged, maximum delta is    0.009354810388069
 Root      3 not converged, maximum delta is    0.015874754490547
 Excitation Energies [eV] at current iteration:
 Root      1 :     2.846621208417195   Change is   -0.004533939862110
 Root      2 :     3.408169362719464   Change is   -0.001887900540474
 Root      3 :     4.373570323010800   Change is   -0.005793403486377
 Iteration     5 Dimension    36 NMult    30 NNew      6
 CISAX will form     6 AO SS matrices at one time.
 NMat=     6 NSing=     6 JSym2X= 0.
 Root      1 not converged, maximum delta is    0.001807930755701
 Root      2 not converged, maximum delta is    0.001296625472411
 Root      3 not converged, maximum delta is    0.009158528672257
 Excitation Energies [eV] at current iteration:
 Root      1 :     2.846020489066756   Change is   -0.000600719350439
 Root      2 :     3.408066904800638   Change is   -0.000102457918826
 Root      3 :     4.372211133176881   Change is   -0.001359189833919
 Iteration     6 Dimension    42 NMult    36 NNew      6
 CISAX will form     6 AO SS matrices at one time.
 NMat=     6 NSing=     6 JSym2X= 0.
 Root      1 not converged, maximum delta is    0.000348895894840
 Root      2 not converged, maximum delta is    0.000312123846301
 Root      3 not converged, maximum delta is    0.002303218322779
 Excitation Energies [eV] at current iteration:
 Root      1 :     2.845978091939698   Change is   -0.000042397127058
 Root      2 :     3.408061886675149   Change is   -0.000005018125489
 Root      3 :     4.372028311253862   Change is   -0.000182821923019
 Iteration     7 Dimension    48 NMult    42 NNew      6
 CISAX will form     6 AO SS matrices at one time.
 NMat=     6 NSing=     6 JSym2X= 0.
 Root      1 not converged, maximum delta is    0.000106056359915
 Root      2 not converged, maximum delta is    0.000118843602795
 Root      3 not converged, maximum delta is    0.000526812179706
 Excitation Energies [eV] at current iteration:
 Root      1 :     2.845974702251454   Change is   -0.000003389688244
 Root      2 :     3.408061449215480   Change is   -0.000000437459669
 Root      3 :     4.372008028601885   Change is   -0.000020282651977
 Iteration     8 Dimension    54 NMult    48 NNew      6
 CISAX will form     6 AO SS matrices at one time.
 NMat=     6 NSing=     6 JSym2X= 0.
 Root      1 not converged, maximum delta is    0.000029736741964
 Root      2 not converged, maximum delta is    0.000012492026554
 Root      3 not converged, maximum delta is    0.000215188664055
 Excitation Energies [eV] at current iteration:
 Root      1 :     2.845974554838777   Change is   -0.000000147412678
 Root      2 :     3.408061429465095   Change is   -0.000000019750386
 Root      3 :     4.372005900838071   Change is   -0.000002127763815
 Iteration     9 Dimension    60 NMult    54 NNew      6
 CISAX will form     6 AO SS matrices at one time.
 NMat=     6 NSing=     6 JSym2X= 0.
 Root      1 not converged, maximum delta is    0.000010262329231
 Root      2 not converged, maximum delta is    0.000001923714925
 Root      3 not converged, maximum delta is    0.000053086908667
 Excitation Energies [eV] at current iteration:
 Root      1 :     2.845974543618592   Change is   -0.000000011220184
 Root      2 :     3.408061428674996   Change is   -0.000000000790099
 Root      3 :     4.372005726217335   Change is   -0.000000174620735
 Iteration    10 Dimension    66 NMult    60 NNew      6
 CISAX will form     6 AO SS matrices at one time.
 NMat=     6 NSing=     6 JSym2X= 0.
 Root      1 not converged, maximum delta is    0.000002470255705
 Root      2 not converged, maximum delta is    0.000001123369530
 Root      3 not converged, maximum delta is    0.000027345218802
 Excitation Energies [eV] at current iteration:
 Root      1 :     2.845974542838741   Change is   -0.000000000779852
 Root      2 :     3.408061428622676   Change is   -0.000000000052320
 Root      3 :     4.372005700379463   Change is   -0.000000025837871
 Iteration    11 Dimension    72 NMult    66 NNew      6
 CISAX will form     6 AO SS matrices at one time.
 NMat=     6 NSing=     6 JSym2X= 0.
 Root      1 has converged.
 Root      2 has converged.
 Root      3 not converged, maximum delta is    0.000006899907346
 Excitation Energies [eV] at current iteration:
 Root      1 :     2.845974542788277   Change is   -0.000000000050463
 Root      2 :     3.408061428616404   Change is   -0.000000000006272
 Root      3 :     4.372005697619743   Change is   -0.000000002759721
 Iteration    12 Dimension    74 NMult    72 NNew      2
 CISAX will form     2 AO SS matrices at one time.
 NMat=     2 NSing=     2 JSym2X= 0.
 Root      1 has converged.
 Root      2 has converged.
 Root      3 not converged, maximum delta is    0.000001419108462
 Excitation Energies [eV] at current iteration:
 Root      1 :     2.845974542786862   Change is   -0.000000000001415
 Root      2 :     3.408061428616259   Change is   -0.000000000000145
 Root      3 :     4.372005697385042   Change is   -0.000000000234701
 Iteration    13 Dimension    76 NMult    74 NNew      2
 CISAX will form     2 AO SS matrices at one time.
 NMat=     2 NSing=     2 JSym2X= 0.
 Root      1 has converged.
 Root      2 has converged.
 Root      3 has converged.
 Excitation Energies [eV] at current iteration:
 Root      1 :     2.845974542786602   Change is   -0.000000000000260
 Root      2 :     3.408061428616235   Change is   -0.000000000000024
 Root      3 :     4.372005697363155   Change is   -0.000000000021887
 Convergence achieved on expansion vectors.
 ***********************************************************************
 Excited states from <AA,BB:AA,BB> singles matrix:
 ***********************************************************************
 
 1PDM for each excited state written to RWF  633
 Ground to excited state transition densities written to RWF  633
 Ground to excited state transition electric dipole moments (Au):
       state          X           Y           Z        Dip. S.      Osc.
         1         1.1342     -2.2734     -0.0000      6.4548      0.4501
         2        -0.0000      0.0001     -0.0057      0.0000      0.0000
         3        -1.6646      1.0695      0.0000      3.9146      0.4193
 Ground to excited state transition velocity dipole moments (Au):
       state          X           Y           Z        Dip. S.      Osc.
         1        -0.1141      0.2406      0.0000      0.0709      0.4518
         2         0.0000     -0.0000      0.0005      0.0000      0.0000
         3         0.2622     -0.1613     -0.0000      0.0948      0.3933
 Ground to excited state transition magnetic dipole moments (Au):
       state          X           Y           Z
         1         0.0000      0.0000     -1.1975
         2         0.4259     -0.0192      0.0000
         3        -0.0000      0.0000     -0.8992
 Ground to excited state transition velocity quadrupole moments (Au):
       state          XX          YY          ZZ          XY          XZ          YZ
         1         0.0035      0.6508     -0.0115     -0.2742     -0.0000      0.0000
         2         0.0000     -0.0000      0.0000      0.0000     -0.0048      0.0200
         3        -0.4355      0.4549      0.0037      0.1179      0.0000      0.0000
 <0|del|b> * <b|rxdel|0> + <0|del|b> * <b|delr+rdel|0>
 Rotatory Strengths (R) in cgs (10**-40 erg-esu-cm/Gauss)
       state          XX          YY          ZZ    R(velocity)    E-M Angle
         1         0.0126     -0.0232      0.0206      0.0033       90.00
         2         0.0004      0.0039      0.0040      0.0028       90.00
         3        -0.0009      0.0022     -0.0069     -0.0019       90.00
 1/2[<0|r|b>*<b|rxdel|0> + (<0|rxdel|b>*<b|r|0>)*]
 Rotatory Strengths (R) in cgs (10**-40 erg-esu-cm/Gauss)
       state          XX          YY          ZZ     R(length)
         1        -0.0121      0.0525     -0.0306      0.0033
         2         0.0075      0.0008      0.0001      0.0028
         3        -0.0043     -0.0063      0.0054     -0.0017
  1/2[<0|del|b>*<b|r|0> + (<0|r|b>*<b|del|0>)*] (Au)
       state          X           Y           Z        Dip. S.   Osc.(frdel)
         1        -0.1294     -0.5469     -0.0000      0.6763      0.4509
         2        -0.0000     -0.0000     -0.0000      0.0000      0.0000
         3        -0.4365     -0.1725     -0.0000      0.6090      0.4060

 Excitation energies and oscillator strengths:
 
 Excited state symmetry could not be determined.
 Excited State   1:      Singlet-?Sym    2.8460 eV  435.65 nm  f=0.4501  <S**2>=0.000
      59 -> 60         0.69972
 This state for optimization and/or second-order correction.
 Total Energy, E(TD-HF/TD-DFT) =  -1028.50990157    
 Copying the excited state density for this state as the 1-particle RhoCI density.
 
 Excited state symmetry could not be determined.
 Excited State   2:      Singlet-?Sym    3.4081 eV  363.80 nm  f=0.0000  <S**2>=0.000
      58 -> 60         0.68433
      58 -> 62         0.11242
      58 -> 64         0.10954
 
 Excited state symmetry could not be determined.
 Excited State   3:      Singlet-?Sym    4.3720 eV  283.59 nm  f=0.4193  <S**2>=0.000
      57 -> 60         0.68396
 SavETr:  write IOETrn=   770 NScale= 10 NData=  16 NLR=1 NState=    3 LETran=      64.
 The selected state is a singlet.
 CISGrd: IGrad=2 NXY=2 DFT=T
 CISAX will form     1 AO SS matrices at one time.
 NMat=     1 NSing=     1 JSym2X= 0.
 GePol: Maximum number of non-zero 1st derivatives   =     268
 Leave Link  914 at Tue Jul 14 11:01:56 2020, MaxMem=  7784628224 cpu:            1760.4 elap:             178.8
 (Enter /gpfs/loomis/apps/avx/software/Gaussian/16-C.01_AVX/g16/l1002.exe)
 Minotr:  Closed shell wavefunction.
          Computing CIS/TDA/TD derivatives.
          Using Z-Vector for PSCF gradient.
          Skipping F1 and S1 gradient terms here.
          IDoAtm=1111111111111111111111111
 NEqPCM:  Using equilibrium solvation (IEInf=0, Eps=   2.2280, EpsInf=   2.1319)
          Frozen-core window.
          Direct CPHF calculation.
          Differentiating once with respect to electric field.
                with respect to dipole field.
          Differentiating once with respect to nuclear coordinates.
          Requested convergence is 1.0D-10 RMS, and 1.0D-09 maximum.
          NewPWx=F KeepS1=T KeepF1=T KeepIn=T MapXYZ=F SortEE=F KeepMc=T.
 Keep R1 ints in memory in canonical form, NReq=1421648167.
 FoFCou: FMM=F IPFlag=           0 FMFlag=           0 FMFlg1=           0
         NFxFlg=           0 DoJE=F BraDBF=F KetDBF=F FulRan=T
         wScrn=  0.000000 ICntrl=       600 IOpCl=  0 I1Cent=           0 NGrid=           0
         NMat0=    1 NMatS0=  37401 NMatT0=    0 NMatD0=    1 NMtDS0=    0 NMtDT0=    0
 Symmetry not used in FoFCou.
 Two-electron integral symmetry not used.
          MDV=    7784628224 using IRadAn=       5.
          Solving linear equations separately, MaxMat=       0.
          There are     1 degrees of freedom in the 1st order CPHF.  IDoFFX=0 NUNeed=     1.
 LinEq1:  Iter=  0 NonCon=     1 RMS=6.94D-03 Max=5.68D-01 NDo=     1
 AX will form     1 AO Fock derivatives at one time.
 LinEq1:  Iter=  1 NonCon=     1 RMS=3.20D-03 Max=1.76D-01 NDo=     1
 LinEq1:  Iter=  2 NonCon=     1 RMS=1.60D-03 Max=4.01D-02 NDo=     1
 LinEq1:  Iter=  3 NonCon=     1 RMS=7.61D-04 Max=2.14D-02 NDo=     1
 LinEq1:  Iter=  4 NonCon=     1 RMS=4.59D-04 Max=1.40D-02 NDo=     1
 LinEq1:  Iter=  5 NonCon=     1 RMS=2.23D-04 Max=8.10D-03 NDo=     1
 LinEq1:  Iter=  6 NonCon=     1 RMS=9.14D-05 Max=4.52D-03 NDo=     1
 LinEq1:  Iter=  7 NonCon=     1 RMS=4.76D-05 Max=1.60D-03 NDo=     1
 LinEq1:  Iter=  8 NonCon=     1 RMS=1.82D-05 Max=6.06D-04 NDo=     1
 LinEq1:  Iter=  9 NonCon=     1 RMS=8.24D-06 Max=1.93D-04 NDo=     1
 LinEq1:  Iter= 10 NonCon=     1 RMS=3.23D-06 Max=8.84D-05 NDo=     1
 LinEq1:  Iter= 11 NonCon=     1 RMS=1.60D-06 Max=5.40D-05 NDo=     1
 LinEq1:  Iter= 12 NonCon=     1 RMS=7.34D-07 Max=2.24D-05 NDo=     1
 LinEq1:  Iter= 13 NonCon=     1 RMS=3.63D-07 Max=1.17D-05 NDo=     1
 LinEq1:  Iter= 14 NonCon=     1 RMS=1.16D-07 Max=2.54D-06 NDo=     1
 LinEq1:  Iter= 15 NonCon=     1 RMS=6.12D-08 Max=1.75D-06 NDo=     1
 LinEq1:  Iter= 16 NonCon=     1 RMS=2.58D-08 Max=7.14D-07 NDo=     1
 LinEq1:  Iter= 17 NonCon=     1 RMS=1.23D-08 Max=3.77D-07 NDo=     1
 LinEq1:  Iter= 18 NonCon=     1 RMS=5.32D-09 Max=1.21D-07 NDo=     1
 LinEq1:  Iter= 19 NonCon=     1 RMS=2.10D-09 Max=5.44D-08 NDo=     1
 LinEq1:  Iter= 20 NonCon=     1 RMS=1.07D-09 Max=2.84D-08 NDo=     1
 LinEq1:  Iter= 21 NonCon=     1 RMS=3.64D-10 Max=1.06D-08 NDo=     1
 LinEq1:  Iter= 22 NonCon=     1 RMS=1.58D-10 Max=4.61D-09 NDo=     1
 LinEq1:  Iter= 23 NonCon=     1 RMS=6.79D-11 Max=1.83D-09 NDo=     1
 LinEq1:  Iter= 24 NonCon=     0 RMS=1.84D-11 Max=4.39D-10 NDo=     1
 Linear equations converged to 1.000D-10 1.000D-09 after    24 iterations.
 End of Minotr F.D. properties file   721 does not exist.
 End of Minotr F.D. properties file   722 does not exist.
 End of Minotr F.D. properties file   788 does not exist.
 Leave Link 1002 at Tue Jul 14 11:03:33 2020, MaxMem=  7784628224 cpu:             737.0 elap:              97.1
 (Enter /gpfs/loomis/apps/avx/software/Gaussian/16-C.01_AVX/g16/l601.exe)
 Copying SCF densities to generalized density rwf, IOpCl= 0 IROHF=0.

 **********************************************************************

            Population analysis using the SCF Density.

 **********************************************************************

 Alpha  occ. eigenvalues --  -89.11064 -19.20459 -14.50392 -10.42240 -10.37562
 Alpha  occ. eigenvalues --  -10.36617 -10.35571 -10.33636 -10.33006 -10.32696
 Alpha  occ. eigenvalues --  -10.32523 -10.31375 -10.30936 -10.30561 -10.29154
 Alpha  occ. eigenvalues --  -10.28160  -8.12998  -6.07888  -6.07514  -6.07001
 Alpha  occ. eigenvalues --   -1.15948  -1.09394  -0.99455  -0.96304  -0.93603
 Alpha  occ. eigenvalues --   -0.89202  -0.87372  -0.83994  -0.81207  -0.78778
 Alpha  occ. eigenvalues --   -0.75782  -0.72251  -0.69671  -0.67617  -0.65633
 Alpha  occ. eigenvalues --   -0.60824  -0.59811  -0.56986  -0.56391  -0.56228
 Alpha  occ. eigenvalues --   -0.55062  -0.53620  -0.53162  -0.50675  -0.49499
 Alpha  occ. eigenvalues --   -0.48787  -0.48481  -0.46979  -0.45567  -0.44917
 Alpha  occ. eigenvalues --   -0.44229  -0.42940  -0.42540  -0.40088  -0.36843
 Alpha  occ. eigenvalues --   -0.33935  -0.31707  -0.31114  -0.25609
 Alpha virt. eigenvalues --   -0.02040   0.03475   0.05516   0.05767   0.09569
 Alpha virt. eigenvalues --    0.10549   0.12941   0.14540   0.16304   0.17376
 Alpha virt. eigenvalues --    0.19044   0.20096   0.21137   0.21266   0.23132
 Alpha virt. eigenvalues --    0.23630   0.24015   0.25717   0.28535   0.30076
 Alpha virt. eigenvalues --    0.30610   0.33799   0.35630   0.35910   0.36685
 Alpha virt. eigenvalues --    0.38339   0.39086   0.39956   0.41916   0.45076
 Alpha virt. eigenvalues --    0.46691   0.49084   0.50606   0.50926   0.51286
 Alpha virt. eigenvalues --    0.52763   0.52827   0.52884   0.53839   0.55589
 Alpha virt. eigenvalues --    0.56215   0.56346   0.56374   0.57053   0.57537
 Alpha virt. eigenvalues --    0.57782   0.59144   0.59410   0.59704   0.60606
 Alpha virt. eigenvalues --    0.61434   0.61687   0.62375   0.62483   0.63961
 Alpha virt. eigenvalues --    0.64516   0.66865   0.67107   0.68649   0.69765
 Alpha virt. eigenvalues --    0.70052   0.70590   0.71991   0.71995   0.72860
 Alpha virt. eigenvalues --    0.74360   0.75172   0.76166   0.76322   0.78930
 Alpha virt. eigenvalues --    0.79159   0.79240   0.81255   0.81769   0.83106
 Alpha virt. eigenvalues --    0.86155   0.87673   0.91253   0.91562   0.92580
 Alpha virt. eigenvalues --    0.93698   0.94538   0.96245   0.97488   0.97870
 Alpha virt. eigenvalues --    0.99585   0.99665   1.00453   1.00589   1.01098
 Alpha virt. eigenvalues --    1.02572   1.05017   1.05822   1.06396   1.07137
 Alpha virt. eigenvalues --    1.08610   1.08971   1.10247   1.11367   1.11413
 Alpha virt. eigenvalues --    1.11908   1.12831   1.13806   1.14315   1.16051
 Alpha virt. eigenvalues --    1.17415   1.18389   1.20368   1.23681   1.24117
 Alpha virt. eigenvalues --    1.26643   1.27527   1.31104   1.32506   1.33842
 Alpha virt. eigenvalues --    1.34728   1.36138   1.38247   1.41621   1.44550
 Alpha virt. eigenvalues --    1.49374   1.49427   1.53169   1.54853   1.54861
 Alpha virt. eigenvalues --    1.55942   1.57252   1.57352   1.57710   1.60040
 Alpha virt. eigenvalues --    1.60045   1.62020   1.63225   1.65021   1.67757
 Alpha virt. eigenvalues --    1.68574   1.70045   1.71036   1.71786   1.71892
 Alpha virt. eigenvalues --    1.72416   1.73465   1.73772   1.75018   1.76344
 Alpha virt. eigenvalues --    1.78013   1.78832   1.80360   1.81737   1.82385
 Alpha virt. eigenvalues --    1.83964   1.84499   1.84905   1.85487   1.86436
 Alpha virt. eigenvalues --    1.86891   1.90253   1.91198   1.92460   1.92612
 Alpha virt. eigenvalues --    1.93071   1.94620   1.95393   1.96638   1.98372
 Alpha virt. eigenvalues --    2.00522   2.01912   2.02210   2.05186   2.06735
 Alpha virt. eigenvalues --    2.06947   2.07935   2.09676   2.10849   2.13620
 Alpha virt. eigenvalues --    2.17936   2.22988   2.23510   2.24264   2.27304
 Alpha virt. eigenvalues --    2.29578   2.29717   2.34452   2.37415   2.39951
 Alpha virt. eigenvalues --    2.40878   2.43311   2.46559   2.48815   2.50630
 Alpha virt. eigenvalues --    2.52532   2.53709   2.61915   2.65121   2.66679
 Alpha virt. eigenvalues --    2.69322   2.72758   2.74415   2.79234   2.80834
 Alpha virt. eigenvalues --    2.81408   2.82485   2.82855   2.89000   2.94406
 Alpha virt. eigenvalues --    2.94964   3.06020   3.17933   3.34393   3.49585
 Alpha virt. eigenvalues --    3.53453   3.58846   3.69394   4.55481
          Condensed to atoms (all electrons):
               1          2          3          4          5          6
     1  C    4.738097   0.474183   0.013764  -0.051572  -0.011233   0.510258
     2  C    0.474183   5.417192   0.260794  -0.075255  -0.072482  -0.003378
     3  C    0.013764   0.260794   4.892150   0.516326  -0.003915  -0.069619
     4  C   -0.051572  -0.075255   0.516326   4.818245   0.516259  -0.016437
     5  C   -0.011233  -0.072482  -0.003915   0.516259   4.722864   0.502685
     6  C    0.510258  -0.003378  -0.069619  -0.016437   0.502685   4.735164
     7  H    0.405149  -0.041422   0.009230  -0.000511   0.008099  -0.037906
     8  H   -0.000575   0.010489  -0.022474   0.393674  -0.040757   0.007241
     9  H    0.008360  -0.000183   0.008041  -0.038182   0.405518  -0.043055
    10  H   -0.042555   0.009618  -0.000617   0.008793  -0.042726   0.407731
    11  N    0.003876  -0.046577   0.434231  -0.045145   0.003049   0.000340
    12  S   -0.064247   0.340898  -0.139592   0.002545   0.000118   0.004120
    13  C   -0.000212   0.000242   0.013750  -0.000090   0.000017  -0.000003
    14  C   -0.000004  -0.000002   0.000315   0.000008  -0.000000  -0.000000
    15  C    0.000002  -0.000211   0.000905  -0.000005  -0.000001   0.000000
    16  C    0.000000  -0.000001   0.000004   0.000000   0.000000   0.000000
    17  H   -0.000003   0.000068  -0.000007  -0.000000   0.000000  -0.000000
    18  C    0.000000   0.000011  -0.000051  -0.000002  -0.000000   0.000000
    19  C   -0.000000  -0.000000   0.000003  -0.000000   0.000000   0.000000
    20  H   -0.000000  -0.000000  -0.000000   0.000000   0.000000  -0.000000
    21  H   -0.000000   0.000000  -0.000001  -0.000000  -0.000000  -0.000000
    22  H    0.000000  -0.000000  -0.000000  -0.000000   0.000000  -0.000000
    23  C    0.003654  -0.059077  -0.088773   0.007726   0.000418  -0.000420
    24  O    0.000002  -0.000235  -0.001754   0.000162   0.000000  -0.000000
    25  H    0.000198   0.024101  -0.001665  -0.032787  -0.000849  -0.000008
               7          8          9         10         11         12
     1  C    0.405149  -0.000575   0.008360  -0.042555   0.003876  -0.064247
     2  C   -0.041422   0.010489  -0.000183   0.009618  -0.046577   0.340898
     3  C    0.009230  -0.022474   0.008041  -0.000617   0.434231  -0.139592
     4  C   -0.000511   0.393674  -0.038182   0.008793  -0.045145   0.002545
     5  C    0.008099  -0.040757   0.405518  -0.042726   0.003049   0.000118
     6  C   -0.037906   0.007241  -0.043055   0.407731   0.000340   0.004120
     7  H    0.647878   0.000028  -0.000138  -0.011766  -0.000108  -0.006676
     8  H    0.000028   0.635054  -0.011303  -0.000120  -0.006796  -0.000255
     9  H   -0.000138  -0.011303   0.654387  -0.012172  -0.000095   0.000023
    10  H   -0.011766  -0.000120  -0.012172   0.656238   0.000005  -0.000124
    11  N   -0.000108  -0.006796  -0.000095   0.000005   5.637207  -0.040449
    12  S   -0.006676  -0.000255   0.000023  -0.000124  -0.040449  15.441075
    13  C    0.000006   0.000070  -0.000000  -0.000000  -0.024407  -0.068470
    14  C    0.000000   0.000001   0.000000  -0.000000   0.003524  -0.005198
    15  C   -0.000000  -0.000015   0.000000   0.000000  -0.005097   0.003627
    16  C   -0.000000  -0.000000  -0.000000  -0.000000  -0.000085  -0.000016
    17  H    0.000001   0.000000   0.000000  -0.000000   0.000261   0.005473
    18  C    0.000000  -0.000001  -0.000000  -0.000000  -0.000741  -0.000071
    19  C    0.000000   0.000000   0.000000   0.000000   0.000027   0.000012
    20  H    0.000000  -0.000000   0.000000   0.000000   0.000001  -0.000001
    21  H   -0.000000   0.000000  -0.000000   0.000000   0.000001   0.000003
    22  H    0.000000  -0.000000  -0.000000  -0.000000  -0.000000  -0.000000
    23  C    0.000181  -0.000638   0.000006   0.000003   0.490725   0.300629
    24  O    0.000000  -0.000206  -0.000000  -0.000000  -0.019203  -0.000085
    25  H    0.000010   0.001030  -0.000024   0.000000   0.353052   0.009360
              13         14         15         16         17         18
     1  C   -0.000212  -0.000004   0.000002   0.000000  -0.000003   0.000000
     2  C    0.000242  -0.000002  -0.000211  -0.000001   0.000068   0.000011
     3  C    0.013750   0.000315   0.000905   0.000004  -0.000007  -0.000051
     4  C   -0.000090   0.000008  -0.000005   0.000000  -0.000000  -0.000002
     5  C    0.000017  -0.000000  -0.000001   0.000000   0.000000  -0.000000
     6  C   -0.000003  -0.000000   0.000000   0.000000  -0.000000   0.000000
     7  H    0.000006   0.000000  -0.000000  -0.000000   0.000001   0.000000
     8  H    0.000070   0.000001  -0.000015  -0.000000   0.000000  -0.000001
     9  H   -0.000000   0.000000   0.000000  -0.000000   0.000000  -0.000000
    10  H   -0.000000  -0.000000   0.000000  -0.000000  -0.000000  -0.000000
    11  N   -0.024407   0.003524  -0.005097  -0.000085   0.000261  -0.000741
    12  S   -0.068470  -0.005198   0.003627  -0.000016   0.005473  -0.000071
    13  C    5.526480   0.423017   0.167490  -0.003609  -0.044273  -0.039962
    14  C    0.423017   4.861391   0.015670   0.536527   0.401682  -0.066712
    15  C    0.167490   0.015670   4.714793  -0.056880   0.006459   0.452231
    16  C   -0.003609   0.536527  -0.056880   4.777681  -0.033191  -0.015860
    17  H   -0.044273   0.401682   0.006459  -0.033191   0.686596  -0.001097
    18  C   -0.039962  -0.066712   0.452231  -0.015860  -0.001097   4.934254
    19  C   -0.051457  -0.015309  -0.004155   0.469941   0.008629   0.484066
    20  H    0.009246  -0.036862  -0.000178   0.399959  -0.012324   0.008465
    21  H    0.015812  -0.000622  -0.023317   0.007734   0.000056   0.370322
    22  H   -0.001626   0.009499   0.008524  -0.047068  -0.000199  -0.038507
    23  C    0.336918  -0.102484  -0.073127   0.006578  -0.020028   0.012484
    24  O   -0.097396   0.006287   0.687420  -0.000224  -0.000074  -0.071342
    25  H   -0.055739  -0.000771  -0.004905   0.000065  -0.000085   0.004052
              19         20         21         22         23         24
     1  C   -0.000000  -0.000000  -0.000000   0.000000   0.003654   0.000002
     2  C   -0.000000  -0.000000   0.000000  -0.000000  -0.059077  -0.000235
     3  C    0.000003  -0.000000  -0.000001  -0.000000  -0.088773  -0.001754
     4  C   -0.000000   0.000000  -0.000000  -0.000000   0.007726   0.000162
     5  C    0.000000   0.000000  -0.000000   0.000000   0.000418   0.000000
     6  C    0.000000  -0.000000  -0.000000  -0.000000  -0.000420  -0.000000
     7  H    0.000000   0.000000  -0.000000   0.000000   0.000181   0.000000
     8  H    0.000000  -0.000000   0.000000  -0.000000  -0.000638  -0.000206
     9  H    0.000000   0.000000  -0.000000  -0.000000   0.000006  -0.000000
    10  H    0.000000   0.000000   0.000000  -0.000000   0.000003  -0.000000
    11  N    0.000027   0.000001   0.000001  -0.000000   0.490725  -0.019203
    12  S    0.000012  -0.000001   0.000003  -0.000000   0.300629  -0.000085
    13  C   -0.051457   0.009246   0.015812  -0.001626   0.336918  -0.097396
    14  C   -0.015309  -0.036862  -0.000622   0.009499  -0.102484   0.006287
    15  C   -0.004155  -0.000178  -0.023317   0.008524  -0.073127   0.687420
    16  C    0.469941   0.399959   0.007734  -0.047068   0.006578  -0.000224
    17  H    0.008629  -0.012324   0.000056  -0.000199  -0.020028  -0.000074
    18  C    0.484066   0.008465   0.370322  -0.038507   0.012484  -0.071342
    19  C    4.761223  -0.047716  -0.048132   0.402433  -0.000059   0.005433
    20  H   -0.047716   0.691263  -0.000180  -0.012695  -0.000374   0.000000
    21  H   -0.048132  -0.000180   0.685606  -0.012837  -0.000483   0.006266
    22  H    0.402433  -0.012695  -0.012837   0.679803   0.000014  -0.000088
    23  C   -0.000059  -0.000374  -0.000483   0.000014   5.165876  -0.018749
    24  O    0.005433   0.000000   0.006266  -0.000088  -0.018749   7.817471
    25  H   -0.000347  -0.000000   0.000004   0.000004   0.000307   0.067798
              25
     1  C    0.000198
     2  C    0.024101
     3  C   -0.001665
     4  C   -0.032787
     5  C   -0.000849
     6  C   -0.000008
     7  H    0.000010
     8  H    0.001030
     9  H   -0.000024
    10  H    0.000000
    11  N    0.353052
    12  S    0.009360
    13  C   -0.055739
    14  C   -0.000771
    15  C   -0.004905
    16  C    0.000065
    17  H   -0.000085
    18  C    0.004052
    19  C   -0.000347
[...]
 ,0.00002959,0.,0.00000001,-0.00004192,0.,0.,-0.00002007,0.,0.,0.000017
 23,0.,0.,0.00003411,0.00000022,-0.00000145,0.00207151,0.00000042,-0.00
 000016,-0.00057681,0.00000246,0.00000320,0.00145660,-0.00000086,-0.000
 00961,-0.05513501,0.00000176,-0.00000145,-0.00537025,0.00001171,0.0000
 3289,0.12280244,0.00016975,0.00007048,-0.00000001,-0.00049066,0.000252
 94,0.00000001,0.00035866,-0.00014543,-0.00000008,-0.00008757,0.0000819
 3,0.,0.00005406,-0.00007580,0.,0.00003551,-0.00002657,0.,-0.00001586,-
 0.00000616,0.,0.00002934,0.00000505,0.,0.00001075,-0.00000356,0.,0.000
 02889,-0.00000332,0.,0.00066113,0.00050882,0.00000018,-0.00090071,0.00
 123665,-0.00000041,-0.00713517,-0.03045988,-0.00000293,-0.10173554,-0.
 10209521,-0.00000917,-0.00408209,0.00392688,-0.00000037,0.01088761,0.0
 1907401,0.00000163,0.10573058,-0.00000629,-0.00003863,-0.00000002,-0.0
 0013301,0.00038850,-0.00000009,0.00018605,0.00006933,-0.00000009,-0.00
 003260,0.00001382,0.00000001,0.00001250,0.00002932,0.,-0.00007122,0.00
 001077,0.00000001,-0.00000316,0.00001329,-0.00000001,0.00000742,-0.000
 00465,-0.00000001,-0.00000488,0.00000077,0.,-0.00000836,0.00000328,0.,
 0.00006156,0.00018391,0.00000024,-0.00041877,-0.00009500,-0.00000023,0
 .00101922,-0.00064176,-0.00000053,-0.10073287,-0.29463486,-0.00002313,
 0.00045467,0.00210093,-0.00000068,-0.01306094,-0.01708513,-0.00000190,
 0.10822472,0.31142994,-0.00000001,0.00000017,0.00004861,0.00000045,0.0
 0000024,-0.00016204,0.00000065,-0.00000068,0.00075389,-0.00000045,0.00
 000007,0.00004506,0.00000003,-0.00000033,-0.00001127,0.00000017,0.0000
 0012,-0.00002199,0.,0.,0.00003820,0.00000001,0.,0.00003571,0.,0.,-0.00
 000224,0.,0.,-0.00001834,0.00000030,0.00000162,-0.00174315,-0.00000076
 ,-0.00000016,0.00121958,0.00000086,-0.00000351,0.00868506,-0.00000964,
 -0.00002251,-0.03688323,-0.00000087,0.00000122,0.00990210,-0.00000088,
 -0.00000123,0.00376173,0.00001069,0.00002595,0.02107040,-0.00164441,0.
 00038696,0.00000039,-0.00411002,-0.00389789,0.00000041,-0.00515222,0.0
 1035633,-0.00000076,0.00502398,-0.00035045,-0.00000002,-0.00030135,0.0
 0172440,-0.00000004,0.00129303,-0.00107689,-0.00000004,-0.00012485,0.0
 0008150,0.00000003,0.00007144,0.00000740,0.,0.00011709,0.00000420,0.,0
 .00010167,-0.00006597,-0.00000009,0.01016489,-0.00040561,0.00000184,0.
 00115705,-0.00307483,0.00000046,0.02673007,0.00884393,0.00000159,-0.03
 669268,0.02173921,0.00000107,-0.11679578,0.05444784,0.00000424,-0.0180
 9852,-0.08630077,-0.00000572,-0.00059832,0.00055364,0.00000053,0.65338
 347,0.00078754,-0.00001368,-0.00000008,0.00037135,0.00027201,-0.000000
 03,0.00119014,-0.00196050,0.00000030,-0.00129130,0.00008594,-0.0000000
 2,0.00016086,-0.00041541,0.,-0.00042926,0.00016706,0.00000001,0.000013
 48,0.00000002,0.,-0.00001446,-0.00000518,0.,-0.00002727,-0.00000165,0.
 ,0.00000521,0.00001828,0.00000002,-0.00096498,0.00041728,-0.00000064,0
 .00114382,-0.00042202,-0.00000007,0.00899999,-0.02942845,-0.00000066,0
 .01026029,-0.00629102,-0.00000059,0.05857619,-0.22311573,-0.00000831,-
 0.03666381,0.00473560,-0.00000022,-0.00016392,0.00079043,-0.00000026,0
 .06554275,0.66714997,0.00000025,0.00000008,0.00023577,0.00000034,0.000
 00047,0.00065606,0.00000117,-0.00000116,0.00151083,-0.00000057,0.00000
 002,-0.00019785,0.00000008,-0.00000023,-0.00006030,-0.00000010,0.00000
 014,-0.00015106,0.,0.,0.00014247,0.00000002,0.,0.00010758,-0.00000001,
 0.,0.00001259,0.,0.,-0.00008397,-0.00000095,0.00000260,-0.00326320,-0.
 00000005,-0.00000034,0.00186071,0.00000085,-0.00000349,0.01430209,-0.0
 0000147,0.00000202,-0.00551629,0.00000397,-0.00000827,-0.06775925,-0.0
 0000181,-0.00000194,0.00812944,0.00000023,0.00000027,-0.00256768,0.000
 00626,0.00003551,0.10860901,0.00175516,0.00023719,-0.00000033,0.005327
 51,0.00411730,-0.00000063,0.00732062,-0.01259771,0.00000020,-0.0065944
 2,0.00044572,0.00000009,0.00043361,-0.00288135,0.00000012,-0.00068699,
 0.00150848,0.00000005,0.00009525,-0.00008235,-0.00000007,-0.00001255,0
 .00001525,-0.00000006,-0.00009965,-0.00002109,-0.00000001,-0.00005782,
 0.00007348,0.00000010,-0.01084163,0.00684059,-0.00000054,-0.00054967,0
 .00157341,-0.00000060,-0.01674525,-0.01239919,-0.00000220,0.05901725,-
 0.00185672,0.00000050,-0.05365808,0.02371880,-0.00000094,-0.15381762,-
 0.02909074,-0.00000235,-0.00255442,0.00447837,0.,-0.31289178,-0.054827
 16,-0.00000354,0.64926836,0.00010973,0.00089128,-0.00000013,0.00273290
 ,0.00115168,-0.00000007,0.00306821,-0.00411484,0.00000036,-0.00318864,
 0.00039283,0.00000003,0.00018270,-0.00223911,0.00000006,0.00085634,0.0
 0080601,-0.00000001,0.00000269,-0.00004408,0.,0.00000508,0.00000288,0.
 ,0.00000632,-0.00004616,0.,0.00001759,0.00003934,0.00000003,0.00022186
 ,0.00367018,-0.00000083,-0.00164978,0.00027593,0.00000007,-0.03147998,
 -0.00312541,-0.00000015,0.04949913,-0.05793846,-0.00000332,-0.00221383
 ,0.02448782,-0.00000110,-0.12198803,-0.32713025,-0.00001714,0.00346644
 ,-0.00216614,-0.00000078,0.01645525,-0.12491453,-0.00000445,-0.0509651
 5,0.72699766,-0.00000003,0.00000004,0.00013105,0.00000014,-0.00000008,
 -0.00029480,-0.00000017,-0.00000003,-0.00104797,-0.00000008,0.00000001
 ,0.00009213,-0.00000002,-0.00000008,0.00009131,0.00000006,0.,0.0000232
 0,0.,0.,-0.00006045,0.,0.,-0.00011657,0.,0.,-0.00000173,0.,0.,0.000003
 64,0.00000018,-0.00000060,0.00086288,-0.00000004,0.00000014,0.00013847
 ,-0.00000271,-0.00000048,-0.00133986,0.00000431,-0.00000424,0.00762236
 ,0.00000071,0.00000312,0.00084992,-0.00000878,-0.00001694,-0.05670795,
 0.00000005,-0.00000041,0.00365855,-0.00000054,-0.00000527,-0.05016268,
 -0.00000034,0.00003894,0.11503312,0.00007811,-0.00009851,0.,-0.0001125
 5,0.00012011,0.,-0.00001577,-0.00006884,0.,0.00002186,0.00000860,0.,0.
 00000310,0.00010510,0.,-0.00015071,-0.00001269,0.,0.00000521,0.0000071
 4,0.,0.00000148,-0.00000506,0.,-0.00001043,0.00000623,0.,-0.00000873,0
 .00000346,0.,-0.00017386,0.00035931,0.,0.00002929,0.00000701,0.,0.0003
 4044,0.00308859,0.00000025,-0.01374472,-0.00680666,-0.00000078,0.00059
 954,0.00037266,0.00000007,-0.33860864,-0.05211021,-0.00000728,0.000675
 02,0.00012520,0.00000003,0.00130685,-0.00197750,-0.00000025,-0.0057200
 3,0.00263734,0.,0.35585393,-0.00000277,0.00001370,0.,-0.00002896,-0.00
 008686,0.,0.00002464,0.00017403,-0.00000004,0.00004396,-0.00004803,0.,
 0.00001132,0.00002541,0.,0.00000938,-0.00002290,0.,-0.00000084,-0.0000
 0231,0.,0.00000069,0.00000169,0.,0.00000428,-0.00000395,0.,0.00000314,
 -0.00000183,0.,0.00039459,-0.00041689,0.,0.00001716,0.00003014,-0.0000
 0001,0.00276576,-0.00426933,-0.00000059,0.02394877,0.00698731,0.000000
 61,0.00049004,-0.00092525,0.00000010,-0.05143848,-0.06841672,-0.000003
 21,-0.00028127,0.00088351,0.00000024,-0.00124887,-0.00520643,-0.000000
 83,-0.02889627,0.00188473,-0.00000058,0.05498248,0.06728105,0.,0.,0.00
 000181,-0.00000004,0.,0.00007969,0.00000004,0.00000006,0.00046520,0.00
 000003,0.,0.00004897,0.,0.00000002,-0.00005674,-0.00000001,0.,0.000001
 61,0.,0.,0.00001458,0.,0.,0.00003537,0.,0.,-0.00001480,0.,0.,-0.000009
 15,-0.00000005,0.00000005,0.00012852,0.,0.,-0.00012933,-0.00000025,-0.
 00000015,0.00384625,0.00000130,-0.00000015,0.00447343,-0.00000003,-0.0
 0000032,-0.00153754,-0.00000735,-0.00000332,-0.03413257,0.00000002,0.0
 0000028,-0.00208043,0.00000011,-0.00000051,0.00675012,-0.00000180,-0.0
 0000031,0.00649875,0.00000789,0.00000377,0.02139008,-0.00012208,0.0000
 2893,0.,0.00010584,0.00004845,0.,-0.00010212,0.00006909,0.00000001,0.0
 0004222,0.00001453,0.,-0.00002100,-0.00004412,0.,0.00009439,0.00001771
 ,0.,-0.00000006,-0.00000432,0.,-0.00000507,0.00000088,0.,0.00000334,-0
 .00000083,0.,-0.00000256,-0.00000184,0.,0.00021204,-0.00016223,-0.0000
 0002,-0.00029131,0.00014077,0.00000004,-0.00305976,0.00305731,0.000000
 12,-0.00003183,0.00033527,0.,0.00956148,0.01950322,0.00000156,-0.00604
 650,0.00065428,0.,0.00007982,-0.00010507,-0.00000002,-0.09687566,-0.10
 126594,-0.00000722,-0.00471842,-0.02870077,-0.00000201,-0.00043634,-0.
 00144432,-0.00000009,0.09827402,0.00004119,0.00005797,0.00000004,-0.00
 011275,-0.00014656,0.00000003,0.00005319,0.00005893,0.00000002,-0.0000
 0821,-0.00000232,0.,0.00001170,-0.00003818,0.,0.00005307,-0.00001622,0
 .,-0.00000641,0.00000167,0.,0.00000684,0.00000353,0.,0.00000755,-0.000
 00372,0.,0.00001165,-0.00000152,0.,-0.00014852,0.00012849,-0.00000008,
 0.00032507,-0.00020450,0.00000006,0.00394332,-0.00268727,-0.00000015,0
 .00055191,0.00029809,0.00000002,-0.01486714,-0.01764181,-0.00000180,-0
 .00021854,0.00147418,-0.00000023,-0.00007947,-0.00005028,-0.00000010,-
 0.10032196,-0.30441681,-0.00001848,0.00270325,0.00101518,-0.00000049,0
 .00009000,-0.00007461,0.00000009,0.10887833,0.31937816,-0.00000002,-0.
 00000009,-0.00036796,-0.00000031,-0.00000011,-0.00038722,-0.00000036,0
 .00000046,-0.00011620,0.00000027,-0.00000002,0.00003600,-0.00000001,0.
 00000017,-0.00004791,-0.00000006,-0.00000006,0.00009122,0.,0.,-0.00004
 393,0.,0.,0.00002374,0.,0.,-0.00000705,0.,0.,0.00008239,0.00000007,-0.
 00000078,0.00076806,0.00000014,0.00000003,-0.00090931,0.00000027,0.000
 00040,0.00192181,0.00000057,-0.00000075,0.00011358,-0.00000282,-0.0000
 0214,0.00420511,-0.00000010,-0.00000014,0.00517649,-0.00000009,-0.0000
 0005,0.00041299,-0.00000644,-0.00001950,-0.03079018,0.00000042,0.00000
 042,0.00437216,0.,0.00000003,-0.00042585,0.00000761,0.00002071,0.02035
 952,0.00004442,-0.00001897,0.,0.00001364,0.00010896,-0.00000002,0.0001
 6927,-0.00012516,-0.00000005,-0.00008110,0.00000167,0.00000001,0.00001
 359,-0.00000301,0.,-0.00005454,0.00001254,0.,0.00000165,0.00000321,0.,
 0.00000591,-0.00000363,0.,-0.00000588,0.00000135,0.,-0.00000384,0.0000
 0347,0.,0.00013072,0.00035064,0.00000008,-0.00008238,0.00008452,-0.000
 00005,-0.00047030,-0.00042667,-0.00000018,0.00036953,-0.00262003,-0.00
 000017,-0.00263410,-0.00411590,-0.00000005,0.01019087,-0.01065435,-0.0
 0000069,0.00039423,-0.00048700,0.00000004,-0.01253712,0.02572679,0.000
 00140,-0.17099205,0.14115389,0.00000793,0.00071164,0.00038718,0.000000
 10,0.00106327,-0.00034427,-0.00000007,0.17587986,-0.00000150,0.0000601
 0,0.,0.00014362,0.00007307,-0.00000003,0.00017410,-0.00027271,-0.00000
 003,-0.00015748,0.00002000,0.,0.00000610,-0.00012838,0.,0.00007351,0.0
 0004210,0.,-0.00000284,-0.00000577,0.,0.00000114,0.00000479,0.,0.00000
 505,-0.00000306,0.,0.00000537,-0.00000139,0.,-0.00024044,0.00005240,0.
 00000004,-0.00008217,0.00003388,-0.00000002,-0.00050522,0.00035872,-0.
 00000002,-0.00325653,-0.00367934,-0.00000064,-0.00220331,0.00035456,-0
 .00000031,0.02110582,-0.01602555,-0.00000109,0.00095264,-0.00109307,-0
 .00000011,-0.00545245,0.00693513,0.00000024,0.13938530,-0.23313731,-0.
 00001211,-0.00014119,0.00099550,0.00000040,0.00028622,0.00063125,0.000
 00021,-0.15019618,0.24408131,-0.00000004,0.00000007,0.00000946,0.00000
 015,0.,0.00009096,0.00000013,-0.00000012,0.00017672,-0.00000011,0.0000
 0002,0.00000231,0.,-0.00000011,-0.00000190,0.00000009,0.00000004,-0.00
 000847,0.,0.,0.00001009,0.,0.,0.00001376,0.,0.,0.00000022,0.,0.,-0.000
 01022,0.00000017,0.00000029,-0.00020853,-0.00000011,-0.00000003,-0.000
 05371,0.00000030,-0.00000013,-0.00063144,-0.00000028,-0.00000044,0.006
 37323,-0.00000053,-0.00000072,0.00632873,0.00000146,-0.00000118,0.0036
 1253,0.00000005,-0.00000009,0.00041006,0.00000013,0.00000049,0.0031460
 3,0.00000730,-0.00001234,-0.03396858,0.00000010,0.00000037,-0.00428519
 ,0.00000004,0.00000028,-0.00328965,-0.00000844,0.00001328,0.02358594,-
 0.00145929,-0.00738919,-0.00000002,-0.00312814,0.02178314,0.00000011,-
 0.05391092,0.02842971,-0.00000130,0.00618398,-0.00262751,-0.00000008,-
 0.00112882,0.00507917,-0.00000004,-0.00578484,-0.00218572,0.00000001,0
 .00030940,-0.00071260,0.00000005,-0.00066586,-0.00004839,-0.00000004,0
 .00019672,-0.00010512,0.,-0.00065066,-0.00022805,0.00000007,-0.3569840
 4,-0.03806405,0.00000371,-0.04836026,-0.04305104,0.00000287,-0.1461267
 0,0.06034236,0.00000688,-0.03760541,0.03330110,0.00000175,0.04389821,0
 .00968629,-0.00000072,-0.00453013,-0.00944116,0.00000040,0.00017372,0.
 00067252,-0.00000141,-0.00643369,-0.00272429,-0.00000108,0.00008715,0.
 00385637,0.00000077,-0.00049522,0.00070927,0.00000008,0.00059842,-0.00
 112632,0.00000022,0.00005933,-0.00002859,-0.00000040,0.64046822,-0.000
 54575,-0.00073299,0.00000003,0.02166765,-0.01651874,0.00000143,0.01609
 745,0.01249038,-0.00000121,0.00177789,-0.00598005,0.00000061,-0.000371
 03,-0.00096173,0.00000012,0.00139979,-0.00078668,-0.00000007,0.0001452
 1,-0.00043957,0.00000006,-0.00040311,0.00007243,-0.00000005,0.00028763
 ,-0.00046139,-0.00000004,-0.00022994,0.00004174,-0.00000003,-0.0284072
 6,-0.12655286,0.00000339,-0.00536150,-0.17362827,0.00000757,0.03880219
 ,-0.16591392,-0.00000622,0.02443032,0.00797257,0.00000070,0.01567737,-
 0.04770722,-0.00000271,-0.00377129,0.00192032,-0.00000146,-0.00148786,
 0.00038916,0.00000162,-0.01332603,-0.00252919,0.00000030,0.00826566,-0
 .00078893,-0.00000010,-0.00061271,0.00092040,-0.00000009,0.00070784,-0
 .00065616,-0.00000057,0.00003914,0.00035802,0.00000036,-0.05689171,0.5
 0487258,0.00000035,0.00000005,0.00072135,-0.00000172,-0.00000006,-0.00
 114492,-0.00000058,0.00000070,0.00416349,0.00000026,0.00000019,0.00147
 265,0.00000007,0.00000020,0.00124659,-0.00000010,-0.00000005,0.0006426
 5,0.,0.00000003,-0.00028590,0.00000003,-0.00000002,-0.00061578,0.,0.,-
 0.00041072,0.00000004,0.,-0.00020490,0.00000708,0.00000343,-0.02288082
 ,0.00000232,0.00000453,-0.01592523,-0.00000262,-0.00000028,-0.03227777
 ,0.00000131,0.00000313,0.00664971,0.00000318,-0.00000510,0.00325213,0.
 00000023,-0.00000305,0.00534212,0.00000012,0.00000029,-0.00401324,-0.0
 0000414,0.00000029,-0.00112373,0.00000377,0.00000033,-0.00038603,0.,0.
 00000013,-0.00103677,-0.00000001,-0.00000020,0.00243705,0.00000010,0.0
 0000014,-0.00059279,-0.00001155,-0.00000456,0.06232525,-0.00049353,0.0
 0129600,0.00000026,-0.00045590,0.00041889,-0.00000028,0.00543932,0.000
 78794,-0.00000101,-0.00033652,-0.00011736,0.00000020,0.00006435,-0.000
 96341,0.00000011,0.00156824,0.00018253,0.,-0.00015540,0.00012568,-0.00
 000005,0.00028721,0.00006935,-0.00000012,0.00006547,-0.00000768,-0.000
 00001,0.00010357,0.00000441,-0.00000005,0.00480281,0.02469416,0.000003
 83,0.00041548,-0.00118162,-0.00000048,-0.03925854,-0.05097970,-0.00000
 164,0.00317610,-0.00515571,-0.00000032,-0.56117746,-0.07257684,0.00000
 268,-0.01003673,-0.00795775,-0.00000042,-0.00189473,-0.00083998,0.,-0.
 08876478,0.02775415,0.00000199,0.01718966,0.01576245,0.00000072,-0.000
 21304,-0.00045560,0.,0.00171458,0.00055181,0.00000082,-0.00233660,0.00
 018794,-0.00000004,-0.02029126,0.00778987,-0.00000009,0.68588040,-0.00
 042993,-0.00027622,-0.00000004,0.00084184,-0.00202129,0.00000045,-0.00
 571238,-0.00141990,0.00000050,0.00046924,-0.00028168,-0.00000003,-0.00
 000528,0.00042377,-0.00000002,0.00001108,-0.00037568,0.,0.00006979,-0.
 00017830,0.00000004,0.00005564,0.00003271,0.00000001,0.00008283,-0.000
 05727,0.,0.00001809,-0.00003204,0.,0.01563954,-0.02634304,-0.00000398,
 0.00029289,0.00140687,0.,-0.04842393,-0.01067478,0.00000147,-0.0011318
 3,-0.01076847,-0.00000176,-0.07071110,-0.09454568,0.00000008,0.0007245
 9,-0.00132604,0.00000031,-0.00249017,-0.00030139,-0.00000082,0.0378575
 6,0.01852477,-0.00000188,0.00143225,-0.00331520,-0.00000090,-0.0000836
 7,0.00036883,0.00000023,-0.00213011,0.00295612,0.00000145,0.00151069,0
 .00032918,0.00000018,0.00264296,0.00887480,0.00000097,0.07317203,0.130
 72005,-0.00000013,-0.00000009,0.00022971,0.00000033,-0.00000048,-0.000
 34152,-0.00000127,-0.00000011,-0.00042838,0.00000008,0.,0.00013934,-0.
 00000005,0.00000003,0.00020888,0.00000004,-0.00000008,0.00005273,0.000
 00002,-0.00000004,-0.00009760,0.,0.,-0.00024201,0.00000001,0.,-0.00002
 480,0.,0.,-0.00006920,0.00000180,-0.00000500,0.00870813,0.00000003,0.0
 0000059,-0.00115015,-0.00000097,-0.00000210,0.01820666,-0.00000054,-0.
 00000029,0.00251870,0.00000362,0.00000080,-0.05439842,0.00000018,-0.00
 000048,0.00010989,0.00000005,0.00000015,-0.00198581,0.00000139,-0.0000
 0035,0.01679682,0.00000030,0.00000025,0.00407856,0.,0.,0.00010339,0.,0
 .00000031,-0.00388782,0.00000007,0.00000002,-0.00056415,0.00000151,0.0
 0000091,-0.00295233,-0.00000483,0.00000491,0.01855166,0.00147707,0.000
 46312,0.,-0.00287570,0.00600980,-0.00000036,0.01530560,0.02532031,-0.0
 0000174,0.00129363,0.00206257,-0.00000061,-0.00033857,-0.00028946,0.,-
 0.00047000,-0.00004986,0.,-0.00020502,0.00031346,-0.00000001,-0.001888
 85,-0.00101068,0.00000011,0.00000852,-0.00001521,0.,-0.00006141,-0.000
 09475,0.00000002,-0.17444181,-0.21620574,0.00001461,-0.00409662,-0.001
 39240,0.00000007,0.00198884,0.00010440,-0.00000077,0.00001854,-0.00013
 068,0.00000008,-0.00853439,0.00045908,0.00000036,0.00027711,0.00029922
 ,-0.00000018,0.00020600,0.00010828,0.00000028,0.00167166,-0.00018264,0
 .00000050,-0.00055420,0.00015188,-0.00000015,0.00006357,0.00000472,0.0
 0000004,-0.00003671,0.00000473,-0.00000012,0.00015000,-0.00005888,0.00
 000004,-0.00441994,-0.02567982,0.00000195,0.00470731,-0.00370259,-0.00
 000162,0.17075538,-0.00027368,-0.00056257,0.00000010,0.00307641,-0.000
 58526,0.00000034,-0.00440829,-0.02951877,0.00000242,-0.00206414,0.0028
 8150,0.00000027,-0.00035212,-0.00124906,-0.00000005,-0.00015078,0.0008
 0391,-0.00000003,0.00015792,-0.00005622,0.,0.00076787,-0.00030886,0.00
 000010,-0.00017522,0.00017369,0.,-0.00001408,0.00007516,-0.00000002,-0
 .20442933,-0.40213619,0.00003134,0.00280047,0.00588985,-0.00000027,-0.
 00438184,0.00254311,0.00000139,0.00334365,-0.00179402,-0.00000041,0.01
 394705,0.00439542,0.00000029,-0.00250750,0.00355544,0.00000073,-0.0004
 8197,-0.00019604,-0.00000077,-0.00247925,-0.00037591,-0.00000061,-0.00
 117732,-0.00265512,0.00000006,0.00000381,-0.00009120,-0.00000003,0.000
 11673,-0.00006361,0.00000035,-0.00038886,0.00001658,-0.00000022,-0.001
 87915,0.00574530,-0.00000107,-0.01256153,-0.01172011,0.00000105,0.2135
 1114,0.42523298,0.00000014,0.00000013,0.00055061,0.00000002,0.00000061
 ,0.00356459,0.00000192,0.00000094,0.00492282,-0.00000064,0.00000029,-0
 .00123191,0.00000005,-0.00000019,-0.00063869,0.00000004,0.00000007,-0.
 00001115,-0.00000003,0.00000002,-0.00007293,-0.00000008,0.,0.00026307,
 0.,0.,0.00011873,0.,-0.00000001,-0.00000446,0.00001438,0.00003430,-0.0
 0808892,-0.00000036,-0.00000005,0.00418404,0.00000033,-0.00000087,-0.0
 0044441,-0.00000130,0.00000074,-0.00038982,0.00000084,0.00000104,0.000
 52675,0.00000038,-0.00000100,0.00042698,0.00000002,0.00000005,-0.00055
 250,-0.00000065,-0.00000012,-0.00058333,0.00000054,0.00000017,0.000630
 50,-0.00000002,0.,-0.00012940,0.,-0.00000003,0.00027296,-0.00000001,0.
 00000004,-0.00014540,-0.00000178,0.00000002,-0.00440207,-0.00000129,-0
 .00000115,-0.00356228,-0.00001251,-0.00003497,0.00479623\\0.00259284,0
 .00559247,-0.00000022,0.00797066,0.01095650,-0.00000048,0.01381845,-0.
 00036436,0.,-0.00192550,0.00324872,0.00000018,-0.00014383,-0.00283627,
 0.00000010,0.00287755,0.00288795,-0.00000022,-0.00001633,0.00072581,-0
 .00000024,0.00031145,0.00008790,0.00000007,0.00003474,0.00028466,0.,0.
 00023764,0.00029948,-0.00000008,-0.02116977,0.01295223,0.00000298,0.00
 431739,0.01045260,-0.00000097,-0.01235724,0.00725268,0.00000075,0.0112
 0545,-0.00062308,0.00000004,0.02114202,0.00391386,0.00000256,-0.004261
 26,0.01208747,0.00000034,0.00019989,0.00003644,0.00000034,-0.00437007,
 0.00051534,-0.00000067,-0.00712082,-0.00062350,-0.00000008,-0.00024899
 ,0.00012424,-0.00000016,-0.00034401,-0.00001526,-0.00000014,-0.0006962
 2,-0.00013744,0.00000013,-0.01318811,-0.00884721,-0.00000260,-0.011023
 49,-0.01710321,-0.00000186,0.01215757,-0.04086805,0.00000020\\\@
 The archive entry for this job was punched.


 ALTHOUGH J.J. COULD DIAGNOSE THE FAULTS OF AN
 APPARATUS WITH UNCANNY ACCURACY, IT WAS JUST AS
 WELL NOT TO LET HIM HANDLE IT.
   -- GEORGE THOMPSON, ABOUT HIS FATHER
 Job cpu time:       0 days  2 hours 50 minutes 19.1 seconds.
 Elapsed time:       0 days  0 hours 17 minutes 36.1 seconds.
 File lengths (MBytes):  RWF=   1380 Int=      0 D2E=      0 Chk=     48 Scr=      8
 Normal termination of Gaussian 16 at Tue Jul 14 12:06:59 2020.
