 Entering Gaussian System, Link 0=g16
 Initial command:
 /gpfs/loomis/apps/avx/software/Gaussian/16-C.01_AVX/g16/l1.exe "/home/fas/batista/pev4/scratch60/gauss-scratch/Gau-77587.inp" -scrdir="/home/fas/batista/pev4/scratch60/gauss-scratch/"
 Entering Link 1 = /gpfs/loomis/apps/avx/software/Gaussian/16-C.01_AVX/g16/l1.exe PID=     77588.
  
 Copyright (c) 1988-2019, Gaussian, Inc.  All Rights Reserved.
  
 This is part of the Gaussian(R) 16 program.  It is based on
 the Gaussian(R) 09 system (copyright 2009, Gaussian, Inc.),
 the Gaussian(R) 03 system (copyright 2003, Gaussian, Inc.),
 the Gaussian(R) 98 system (copyright 1998, Gaussian, Inc.),
 the Gaussian(R) 94 system (copyright 1995, Gaussian, Inc.),
 the Gaussian 92(TM) system (copyright 1992, Gaussian, Inc.),
 the Gaussian 90(TM) system (copyright 1990, Gaussian, Inc.),
 the Gaussian 88(TM) system (copyright 1988, Gaussian, Inc.),
 the Gaussian 86(TM) system (copyright 1986, Carnegie Mellon
 University), and the Gaussian 82(TM) system (copyright 1983,
 Carnegie Mellon University). Gaussian is a federally registered
 trademark of Gaussian, Inc.
  
 This software contains proprietary and confidential information,
 including trade secrets, belonging to Gaussian, Inc.
  
 This software is provided under written license and may be
 used, copied, transmitted, or stored only in accord with that
 written license.
  
 The following legend is applicable only to US Government
 contracts under FAR:
  
                    RESTRICTED RIGHTS LEGEND
  
 Use, reproduction and disclosure by the US Government is
 subject to restrictions as set forth in subparagraphs (a)
 and (c) of the Commercial Computer Software - Restricted
 Rights clause in FAR 52.227-19.
  
 Gaussian, Inc.
 340 Quinnipiac St., Bldg. 40, Wallingford CT 06492
  
  
 ---------------------------------------------------------------
 Warning -- This program may not be used in any manner that
 competes with the business of Gaussian, Inc. or will provide
 assistance to any competitor of Gaussian, Inc.  The licensee
 of this program is prohibited from giving any competitor of
 Gaussian, Inc. access to this program.  By using this program,
 the user acknowledges that Gaussian, Inc. is engaged in the
 business of creating and licensing software in the field of
 computational chemistry and represents and warrants to the
 licensee that it is not a competitor of Gaussian, Inc. and that
 it will not use this program in any manner prohibited above.
 ---------------------------------------------------------------
  

 Cite this work as:
 Gaussian 16, Revision C.01,
 M. J. Frisch, G. W. Trucks, H. B. Schlegel, G. E. Scuseria, 
 M. A. Robb, J. R. Cheeseman, G. Scalmani, V. Barone, 
 G. A. Petersson, H. Nakatsuji, X. Li, M. Caricato, A. V. Marenich, 
 J. Bloino, B. G. Janesko, R. Gomperts, B. Mennucci, H. P. Hratchian, 
 J. V. Ortiz, A. F. Izmaylov, J. L. Sonnenberg, D. Williams-Young, 
 F. Ding, F. Lipparini, F. Egidi, J. Goings, B. Peng, A. Petrone, 
 T. Henderson, D. Ranasinghe, V. G. Zakrzewski, J. Gao, N. Rega, 
 G. Zheng, W. Liang, M. Hada, M. Ehara, K. Toyota, R. Fukuda, 
 J. Hasegawa, M. Ishida, T. Nakajima, Y. Honda, O. Kitao, H. Nakai, 
 T. Vreven, K. Throssell, J. A. Montgomery, Jr., J. E. Peralta, 
 F. Ogliaro, M. J. Bearpark, J. J. Heyd, E. N. Brothers, K. N. Kudin, 
 V. N. Staroverov, T. A. Keith, R. Kobayashi, J. Normand, 
 K. Raghavachari, A. P. Rendell, J. C. Burant, S. S. Iyengar, 
 J. Tomasi, M. Cossi, J. M. Millam, M. Klene, C. Adamo, R. Cammi, 
 J. W. Ochterski, R. L. Martin, K. Morokuma, O. Farkas, 
 J. B. Foresman, and D. J. Fox, Gaussian, Inc., Wallingford CT, 2019.
 
 ******************************************
 Gaussian 16:  ES64L-G16RevC.01  3-Jul-2019
                14-Jul-2020 
 ******************************************
 %chk=config_2_19.chk
 %mem=58GB
 %nprocshared=10
 Will use up to   10 processors via shared memory.
 ----------------------------------------------------------------------
 #p opt=addgic freq td wb97xd/cc-pvdz nosymm int=ultrafine scrf=(solven
 t=CarbonTetraChloride)
 ----------------------------------------------------------------------
 1/18=20,19=15,26=6,38=1,145=903/1,3;
 2/9=110,12=2,15=1,17=6,18=5,40=1/2;
 3/5=16,11=9,25=1,30=1,70=2201,71=1,72=11,74=-58,75=-5/1,2,3,8;
 4//1;
 5/5=2,38=5,53=11/2;
 8/6=1,10=1/1;
 9/15=2,42=1,70=2/14;
 10/5=4,31=1/2;
 6/7=2,8=2,9=2,10=2/1;
 7/12=6,13=5,30=1/1,2,3,16;
 1/18=20,19=15,26=6,145=903/3(2);
 2/9=110,15=1/2;
 99//99;
 2/9=110,15=1/2;
 3/5=16,11=9,25=1,30=1,70=2205,71=1,72=11,74=-58,75=-5/1,2,3,8;
 4/5=5,16=3,69=1/1;
 5/5=2,38=5,53=11/2;
 8/6=1,10=1/1;
 9/15=2,42=1,49=4,70=2/14;
 10/5=4,31=1/2;
 7/12=6,13=5,30=1/1,2,3,16;
 1/18=20,19=15,26=6,145=903/3(-8);
 2/9=110,15=1/2;
 6/7=2,8=2,9=2,10=2/1;
 99/9=10/99;
 Leave Link    1 at Tue Jul 14 15:57:30 2020, MaxMem=  7784628224 cpu:               5.8 elap:               0.7
 (Enter /gpfs/loomis/apps/avx/software/Gaussian/16-C.01_AVX/g16/l101.exe)
 ------------------------------------------------
 NM 2D-scan of HBT TD-WB97XD pVDZ in CTC Relaxed.
 ------------------------------------------------
 Symbolic Z-matrix:
 Charge =  0 Multiplicity = 1
 C                     1.50292  -3.25375  -0.00002 
 C                     0.99195  -1.9544   -0.00002 
 C                     1.80083  -0.76593  -0.00003 
 C                     3.22402  -0.97195  -0.00003 
 C                     3.72743  -2.27614  -0.00002 
 C                     2.88979  -3.41914  -0.00001 
 H                     0.82126  -4.11681  -0.00001 
 H                     3.90336  -0.10647  -0.00004 
 H                     4.8162   -2.42177  -0.00003 
 H                     3.32709  -4.42496  -0.00001 
 N                     1.09124   0.38822  -0.00003 
 S                    -0.69317  -1.55501  -0.00003 
 C                    -1.2862    1.07427   0.00001 
 C                    -2.66622   0.70108   0.00003 
 C                    -0.93773   2.49241   0.00004 
 C                    -3.65194   1.67745   0.00003 
 H                    -2.93641  -0.3638    0.00003 
 C                    -1.95845   3.46629   0.00004 
 C                    -3.30563   3.05962   0.00003 
 H                    -4.70855   1.38644   0.00004 
 H                    -1.68444   4.53077   0.00005 
 H                    -4.10085   3.81421   0.00003 
 C                    -0.25083   0.13499  -0.00002 
 O                     0.35184   2.77021   0.00006 
 H                     0.85423   2.09276   0.00003 
 
 Initializing the GIC definitions file.
 Number of initial coordinates =   131
 Number of input entries/lines =    52
 Number of additional coordinates =     2
 Number of removed coordinates =     0
 Number of frozen coordinates =     2
 Number of final active and frozen coordinates =   133
 ITRead=  0  0  0  0  0  0  0  0  0  0  0  0  0  0  0  0  0  0  0  0
 ITRead=  0  0  0  0  0
 MicOpt= -1 -1 -1 -1 -1 -1 -1 -1 -1 -1 -1 -1 -1 -1 -1 -1 -1 -1 -1 -1
 MicOpt= -1 -1 -1 -1 -1
 NAtoms=     25 NQM=       25 NQMF=       0 NMMI=      0 NMMIF=      0
                NMic=       0 NMicF=      0.
                    Isotopes and Nuclear Properties:
 (Nuclear quadrupole moments (NQMom) in fm**2, nuclear magnetic moments (NMagM)
  in nuclear magnetons)

  Atom         1           2           3           4           5           6           7           8           9          10
 IAtWgt=          12          12          12          12          12          12           1           1           1           1
 AtmWgt=  12.0000000  12.0000000  12.0000000  12.0000000  12.0000000  12.0000000   1.0078250   1.0078250   1.0078250   1.0078250
 NucSpn=           0           0           0           0           0           0           1           1           1           1
 AtZEff=  -0.0000000  -0.0000000  -0.0000000  -0.0000000  -0.0000000  -0.0000000  -0.0000000  -0.0000000  -0.0000000  -0.0000000
 NQMom=    0.0000000   0.0000000   0.0000000   0.0000000   0.0000000   0.0000000   0.0000000   0.0000000   0.0000000   0.0000000
 NMagM=    0.0000000   0.0000000   0.0000000   0.0000000   0.0000000   0.0000000   2.7928460   2.7928460   2.7928460   2.7928460
 AtZNuc=   6.0000000   6.0000000   6.0000000   6.0000000   6.0000000   6.0000000   1.0000000   1.0000000   1.0000000   1.0000000

  Atom        11          12          13          14          15          16          17          18          19          20
 IAtWgt=          14          32          12          12          12          12           1          12          12           1
 AtmWgt=  14.0030740  31.9720718  12.0000000  12.0000000  12.0000000  12.0000000   1.0078250  12.0000000  12.0000000   1.0078250
 NucSpn=           2           0           0           0           0           0           1           0           0           1
 AtZEff=  -0.0000000  -0.0000000  -0.0000000  -0.0000000  -0.0000000  -0.0000000  -0.0000000  -0.0000000  -0.0000000  -0.0000000
 NQMom=    2.0440000   0.0000000   0.0000000   0.0000000   0.0000000   0.0000000   0.0000000   0.0000000   0.0000000   0.0000000
 NMagM=    0.4037610   0.0000000   0.0000000   0.0000000   0.0000000   0.0000000   2.7928460   0.0000000   0.0000000   2.7928460
 AtZNuc=   7.0000000  16.0000000   6.0000000   6.0000000   6.0000000   6.0000000   1.0000000   6.0000000   6.0000000   1.0000000

  Atom        21          22          23          24          25
 IAtWgt=           1           1          12          16           1
 AtmWgt=   1.0078250   1.0078250  12.0000000  15.9949146   1.0078250
 NucSpn=           1           1           0           0           1
 AtZEff=  -0.0000000  -0.0000000  -0.0000000  -0.0000000  -0.0000000
 NQMom=    0.0000000   0.0000000   0.0000000   0.0000000   0.0000000
 NMagM=    2.7928460   2.7928460   0.0000000   0.0000000   2.7928460
 AtZNuc=   1.0000000   1.0000000   6.0000000   8.0000000   1.0000000
 Leave Link  101 at Tue Jul 14 15:57:34 2020, MaxMem=  7784628224 cpu:              28.5 elap:               3.2
 (Enter /gpfs/loomis/apps/avx/software/Gaussian/16-C.01_AVX/g16/l103.exe)

 GradGradGradGradGradGradGradGradGradGradGradGradGradGradGradGradGradGrad
 Berny optimization.
 Initialization pass.
                           ----------------------------
                           !    Initial Parameters    !
                           ! (Angstroms and Degrees)  !
 --------------------------                            --------------------------
 ! Name  Definition              Value          Derivative Info.                !
 --------------------------------------------------------------------------------
 ! R1    R(1,2)                  1.3962         estimate D2E/DX2                !
 ! R2    R(1,6)                  1.3967         estimate D2E/DX2                !
 ! R3    R(1,7)                  1.0998         estimate D2E/DX2                !
 ! R4    R(2,3)                  1.4376         estimate D2E/DX2                !
 ! R5    R(2,12)                 1.7318         estimate D2E/DX2                !
 ! R6    R(3,4)                  1.438          estimate D2E/DX2                !
 ! R7    R(3,11)                 1.3548         estimate D2E/DX2                !
 ! R8    R(4,5)                  1.398          estimate D2E/DX2                !
 ! R9    R(4,8)                  1.1003         estimate D2E/DX2                !
 ! R10   R(5,6)                  1.4171         estimate D2E/DX2                !
 ! R11   R(5,9)                  1.0985         estimate D2E/DX2                !
 ! R12   R(6,10)                 1.0968         estimate D2E/DX2                !
 ! R13   R(11,23)                1.3657         estimate D2E/DX2                !
 ! R14   R(12,23)                1.7469         estimate D2E/DX2                !
 ! R15   R(13,14)                1.4296         estimate D2E/DX2                !
 ! R16   R(13,15)                1.4603         estimate D2E/DX2                !
 ! R17   R(13,23)                1.3979         estimate D2E/DX2                !
 ! R18   R(14,16)                1.3874         estimate D2E/DX2                !
 ! R19   R(14,17)                1.0986         estimate D2E/DX2                !
 ! R20   R(15,18)                1.4108         estimate D2E/DX2                !
 ! R21   R(15,24)                1.3192         estimate D2E/DX2                !
 ! R22   R(16,19)                1.4249         estimate D2E/DX2                !
 ! R23   R(16,20)                1.096          estimate D2E/DX2                !
 ! R24   R(18,19)                1.4072         estimate D2E/DX2                !
 ! R25   R(18,21)                1.0992         estimate D2E/DX2                !
 ! R26   R(19,22)                1.0963         estimate D2E/DX2                !
 ! R27   R(24,25)                0.8434         estimate D2E/DX2                !
 ! A1    A(2,1,6)              118.268          estimate D2E/DX2                !
 ! A2    A(2,1,7)              120.2307         estimate D2E/DX2                !
 ! A3    A(6,1,7)              121.5013         estimate D2E/DX2                !
 ! A4    A(1,2,3)              124.2931         estimate D2E/DX2                !
 ! A5    A(1,2,12)             124.801          estimate D2E/DX2                !
 ! A6    A(3,2,12)             110.9059         estimate D2E/DX2                !
 ! A7    A(2,3,4)              116.0028         estimate D2E/DX2                !
 ! A8    A(2,3,11)             114.1765         estimate D2E/DX2                !
 ! A9    A(4,3,11)             129.8207         estimate D2E/DX2                !
 ! A10   A(3,4,5)              119.3433         estimate D2E/DX2                !
 ! A11   A(3,4,8)              119.8926         estimate D2E/DX2                !
 ! A12   A(5,4,8)              120.7642         estimate D2E/DX2                !
 ! A13   A(4,5,6)              122.658          estimate D2E/DX2                !
 ! A14   A(4,5,9)              118.7251         estimate D2E/DX2                !
 ! A15   A(6,5,9)              118.617          estimate D2E/DX2                !
 ! A16   A(1,6,5)              119.4348         estimate D2E/DX2                !
 ! A17   A(1,6,10)             120.2984         estimate D2E/DX2                !
 ! A18   A(5,6,10)             120.2668         estimate D2E/DX2                !
 ! A19   A(3,11,23)            110.8985         estimate D2E/DX2                !
 ! A20   A(2,12,23)             88.6663         estimate D2E/DX2                !
 ! A21   A(14,13,15)           118.9375         estimate D2E/DX2                !
 ! A22   A(14,13,23)           122.6539         estimate D2E/DX2                !
 ! A23   A(15,13,23)           118.4086         estimate D2E/DX2                !
 ! A24   A(13,14,16)           120.1409         estimate D2E/DX2                !
 ! A25   A(13,14,17)           119.3695         estimate D2E/DX2                !
 ! A26   A(16,14,17)           120.4896         estimate D2E/DX2                !
 ! A27   A(13,15,18)           119.8494         estimate D2E/DX2                !
 ! A28   A(13,15,24)           115.9625         estimate D2E/DX2                !
 ! A29   A(18,15,24)           124.1881         estimate D2E/DX2                !
 ! A30   A(14,16,19)           120.661          estimate D2E/DX2                !
 ! A31   A(14,16,20)           119.8745         estimate D2E/DX2                !
 ! A32   A(19,16,20)           119.4645         estimate D2E/DX2                !
 ! A33   A(15,18,19)           119.5481         estimate D2E/DX2                !
 ! A34   A(15,18,21)           119.2199         estimate D2E/DX2                !
 ! A35   A(19,18,21)           121.2321         estimate D2E/DX2                !
 ! A36   A(16,19,18)           120.8631         estimate D2E/DX2                !
 ! A37   A(16,19,22)           119.4323         estimate D2E/DX2                !
 ! A38   A(18,19,22)           119.7046         estimate D2E/DX2                !
 ! A39   A(11,23,12)           115.3528         estimate D2E/DX2                !
 ! A40   A(11,23,13)           127.1006         estimate D2E/DX2                !
 ! A41   A(12,23,13)           117.5466         estimate D2E/DX2                !
 ! A42   A(15,24,25)           114.4027         estimate D2E/DX2                !
 ! D1    D(6,1,2,3)              0.0            estimate D2E/DX2                !
 ! D2    D(6,1,2,12)           179.9999         estimate D2E/DX2                !
 ! D3    D(7,1,2,3)            179.9999         estimate D2E/DX2                !
 ! D4    D(7,1,2,12)            -0.0001         estimate D2E/DX2                !
 ! D5    D(2,1,6,5)             -0.0002         estimate D2E/DX2                !
 ! D6    D(2,1,6,10)           179.9999         estimate D2E/DX2                !
 ! D7    D(7,1,6,5)            179.9999         estimate D2E/DX2                !
 ! D8    D(7,1,6,10)             0.0            estimate D2E/DX2                !
 ! D9    D(1,2,3,4)              0.0002         estimate D2E/DX2                !
 ! D10   D(1,2,3,11)          -179.9999         estimate D2E/DX2                !
 ! D11   D(12,2,3,4)          -179.9997         estimate D2E/DX2                !
 ! D12   D(12,2,3,11)            0.0001         estimate D2E/DX2                !
 ! D13   D(1,2,12,23)          179.9996         estimate D2E/DX2                !
 ! D14   D(3,2,12,23)           -0.0004         estimate D2E/DX2                !
 ! D15   D(2,3,4,5)             -0.0002         estimate D2E/DX2                !
 ! D16   D(2,3,4,8)            179.9998         estimate D2E/DX2                !
 ! D17   D(11,3,4,5)           180.0            estimate D2E/DX2                !
 ! D18   D(11,3,4,8)             0.0            estimate D2E/DX2                !
 ! D19   D(2,3,11,23)            0.0004         estimate D2E/DX2                !
 ! D20   D(4,3,11,23)         -179.9998         estimate D2E/DX2                !
 ! D21   D(3,4,5,6)              0.0            estimate D2E/DX2                !
 ! D22   D(3,4,5,9)           -179.9999         estimate D2E/DX2                !
 ! D23   D(8,4,5,6)            180.0            estimate D2E/DX2                !
 ! D24   D(8,4,5,9)              0.0            estimate D2E/DX2                !
 ! D25   D(4,5,6,1)              0.0002         estimate D2E/DX2                !
 ! D26   D(4,5,6,10)          -179.9999         estimate D2E/DX2                !
 ! D27   D(9,5,6,1)           -179.9999         estimate D2E/DX2                !
 ! D28   D(9,5,6,10)             0.0            estimate D2E/DX2                !
 ! D29   D(3,11,23,12)          -0.0008         estimate D2E/DX2                !
 ! D30   D(3,11,23,13)         179.998          estimate D2E/DX2                !
 ! D31   D(2,12,23,11)           0.0007         estimate D2E/DX2                !
 ! D32   D(2,12,23,13)        -179.9982         estimate D2E/DX2                !
 ! D33   D(15,13,14,16)          0.0016         estimate D2E/DX2                !
 ! D34   D(15,13,14,17)       -179.999          estimate D2E/DX2                !
 ! D35   D(23,13,14,16)       -179.9985         estimate D2E/DX2                !
 ! D36   D(23,13,14,17)          0.0009         estimate D2E/DX2                !
 ! D37   D(14,13,15,18)         -0.0019         estimate D2E/DX2                !
 ! D38   D(14,13,15,24)        179.9979         estimate D2E/DX2                !
 ! D39   D(23,13,15,18)        179.9982         estimate D2E/DX2                !
 ! D40   D(23,13,15,24)         -0.0021         estimate D2E/DX2                !
 ! D41   D(14,13,23,11)       -179.9996         estimate D2E/DX2                !
 ! D42   D(14,13,23,12)         -0.0008         estimate D2E/DX2                !
 ! D43   D(15,13,23,11)          0.0003         estimate D2E/DX2                !
 ! D44   D(15,13,23,12)        179.9991         estimate D2E/DX2                !
 ! D45   D(13,14,16,19)         -0.0004         estimate D2E/DX2                !
 ! D46   D(13,14,16,20)        179.9996         estimate D2E/DX2                !
 ! D47   D(17,14,16,19)       -179.9998         estimate D2E/DX2                !
 ! D48   D(17,14,16,20)          0.0002         estimate D2E/DX2                !
 ! D49   D(13,15,18,19)          0.0009         estimate D2E/DX2                !
 ! D50   D(13,15,18,21)       -179.9998         estimate D2E/DX2                !
 ! D51   D(24,15,18,19)       -179.9988         estimate D2E/DX2                !
 ! D52   D(24,15,18,21)          0.0005         estimate D2E/DX2                !
 ! D53   D(13,15,24,25)          0.0022         estimate D2E/DX2                !
 ! D54   D(18,15,24,25)       -179.998          estimate D2E/DX2                !
 ! D55   D(14,16,19,18)         -0.0006         estimate D2E/DX2                !
 ! D56   D(14,16,19,22)        179.9998         estimate D2E/DX2                !
 ! D57   D(20,16,19,18)        179.9995         estimate D2E/DX2                !
 ! D58   D(20,16,19,22)         -0.0002         estimate D2E/DX2                !
 ! D59   D(15,18,19,16)          0.0003         estimate D2E/DX2                !
 ! D60   D(15,18,19,22)        180.0            estimate D2E/DX2                !
 ! D61   D(21,18,19,16)       -179.9989         estimate D2E/DX2                !
 ! D62   D(21,18,19,22)          0.0007         estimate D2E/DX2                !
 ! Qtot  GIC-1                 -40.0            Frozen                          !
 ! Ptot  GIC-2                 220.0            Frozen                          !
 --------------------------------------------------------------------------------
 NOTE: GIC-type coordinates are in arbitrary units.
 Trust Radius=3.00D-01 FncErr=5.00D-06 GrdErr=5.00D-06 EigMax=2.50D+02 EigMin=1.00D-04
 Number of steps in this run=    143 maximum allowed number of steps=    150.
 GradGradGradGradGradGradGradGradGradGradGradGradGradGradGradGradGradGrad

 Leave Link  103 at Tue Jul 14 15:57:34 2020, MaxMem=  7784628224 cpu:               0.9 elap:               0.1
 (Enter /gpfs/loomis/apps/avx/software/Gaussian/16-C.01_AVX/g16/l202.exe)
                          Input orientation:                          
 ---------------------------------------------------------------------
 Center     Atomic      Atomic             Coordinates (Angstroms)
 Number     Number       Type             X           Y           Z
 ---------------------------------------------------------------------
      1          6           0        1.502915   -3.253745   -0.000016
      2          6           0        0.991947   -1.954399   -0.000023
      3          6           0        1.800831   -0.765931   -0.000029
      4          6           0        3.224023   -0.971951   -0.000032
      5          6           0        3.727435   -2.276137   -0.000024
      6          6           0        2.889793   -3.419139   -0.000014
      7          1           0        0.821257   -4.116811   -0.000010
      8          1           0        3.903364   -0.106470   -0.000039
      9          1           0        4.816205   -2.421771   -0.000025
     10          1           0        3.327089   -4.424964   -0.000007
     11          7           0        1.091239    0.388223   -0.000034
     12         16           0       -0.693166   -1.555006   -0.000027
     13          6           0       -1.286198    1.074269    0.000013
     14          6           0       -2.666218    0.701081    0.000030
     15          6           0       -0.937728    2.492408    0.000037
     16          6           0       -3.651939    1.677451    0.000034
     17          1           0       -2.936413   -0.363801    0.000030
     18          6           0       -1.958445    3.466288    0.000035
     19          6           0       -3.305635    3.059622    0.000031
     20          1           0       -4.708550    1.386441    0.000040
     21          1           0       -1.684439    4.530773    0.000050
     22          1           0       -4.100851    3.814209    0.000030
     23          6           0       -0.250829    0.134992   -0.000023
     24          8           0        0.351841    2.770213    0.000064
     25          1           0        0.854226    2.092759    0.000035
 ---------------------------------------------------------------------
                    Distance matrix (angstroms):
                    1          2          3          4          5
     1  C    0.000000
     2  C    1.396205   0.000000
     3  C    2.505588   1.437619   0.000000
     4  C    2.858111   2.438722   1.438026   0.000000
     5  C    2.429857   2.754343   2.447963   1.397972   0.000000
     6  C    1.396705   2.397349   2.867987   2.469907   1.417073
     7  H    1.099791   2.169138   3.491125   3.957705   3.440050
     8  H    3.958218   3.448360   2.203527   1.100255   2.176788
     9  H    3.416148   3.852711   3.440099   2.153374   1.098467
    10  H    2.167802   3.399497   3.964592   3.454551   2.185803
    11  N    3.665162   2.344725   1.354841   2.529593   3.748112
    12  S    2.776416   1.731797   2.615848   3.960344   4.479033
    13  C    5.148870   3.789825   3.593895   4.952687   6.030069
    14  C    5.746505   4.520370   4.701771   6.123232   7.052845
    15  C    6.242998   4.847447   4.256346   5.414975   6.671040
    16  C    7.133668   5.895423   5.975184   7.368730   8.371739
    17  H    5.297114   4.238162   4.754281   6.190381   6.932813
    18  C    7.559091   6.171601   5.660728   6.823191   8.081131
    19  C    7.936041   6.603757   6.380505   7.673982   8.828045
    20  H    7.753298   6.607335   6.856001   8.275731   9.196756
    21  H    8.411775   7.015733   6.340520   7.373803   8.696115
    22  H    9.019877   7.695026   7.470444   8.749920   9.918386
    23  C    3.815647   2.431059   2.240753   3.646906   4.651895
    24  O    6.132947   4.767777   3.821503   4.717332   6.071267
    25  H    5.385713   4.049501   3.011341   3.874066   5.229014
                    6          7          8          9         10
     6  C    0.000000
     7  H    2.183022   0.000000
     8  H    3.464260   5.057886   0.000000
     9  H    2.169287   4.339673   2.488754   0.000000
    10  H    1.096774   2.524708   4.356774   2.496047   0.000000
    11  N    4.210796   4.513116   2.855305   4.665987   5.307146
    12  S    4.038884   2.975957   4.819371   5.577136   4.939546
    13  C    6.134298   5.602560   5.322189   7.032895   7.178021
    14  C    6.917042   5.947652   6.619029   8.107950   7.886449
    15  C    7.042465   6.839284   5.494574   7.566829   8.126420
    16  C    8.292737   7.320038   7.763052   9.408139   9.270723
    17  H    6.578736   5.310854   6.844616   8.021118   7.464885
    18  C    8.421076   8.076517   6.864795   8.975807   9.497828
    19  C    8.964243   8.278431   7.873614   9.798466  10.000602
    20  H    8.990462   7.801573   8.740357  10.257847   9.916850
    21  H    9.171952   9.003290   7.261375   9.518206  10.262585
    22  H   10.059345   9.334250   8.912866  10.881238  11.093163
    23  C    4.742927   4.384883   4.161205   5.675550   5.796094
    24  O    6.689490   6.903003   4.570407   6.847426   7.786056
    25  H    5.875760   6.209657   3.759501   6.006518   6.971067
                   11         12         13         14         15
    11  N    0.000000
    12  S    2.638227   0.000000
    13  C    2.474442   2.695325   0.000000
    14  C    3.770459   2.997143   1.429589   0.000000
    15  C    2.923064   4.054797   1.460325   2.489284   0.000000
    16  C    4.915267   4.382136   2.441426   1.387424   2.833919
    17  H    4.097258   2.539907   2.188894   1.098626   3.486069
    18  C    4.333019   5.178255   2.484687   2.854350   1.410782
    19  C    5.144790   5.302809   2.831916   2.443679   2.434895
    20  H    5.885065   4.977491   3.436560   2.154260   3.929664
    21  H    4.986493   6.165982   3.479371   3.953535   2.170832
    22  H    6.220545   6.359307   3.928046   3.427789   3.428193
    23  C    1.365750   1.746928   1.397938   2.480839   2.455451
    24  O    2.494110   4.449670   2.357838   3.659234   1.319153
    25  H    1.720935   3.962400   2.370388   3.785538   1.835979
                   16         17         18         19         20
    16  C    0.000000
    17  H    2.163027   0.000000
    18  C    2.463302   3.952974   0.000000
    19  C    1.424894   3.443276   1.407230   0.000000
    20  H    1.095953   2.490746   3.448020   2.183508   0.000000
    21  H    3.465906   5.052158   1.099185   2.189192   4.362576
    22  H    2.183405   4.337244   2.170473   1.096253   2.502670
    23  C    3.734532   2.731512   3.743459   4.229101   4.630054
    24  O    4.150227   4.542539   2.412871   3.668908   5.246178
    25  H    4.525263   4.517038   3.130128   4.270745   5.607438
                   21         22         23         24         25
    21  H    0.000000
    22  H    2.520419   0.000000
    23  C    4.623649   5.325346   0.000000
    24  O    2.691842   4.573445   2.703258   0.000000
    25  H    3.519764   5.245587   2.248110   0.843406   0.000000
 Symmetry turned off by external request.
 Stoichiometry    C13H9NOS
 Framework group  C1[X(C13H9NOS)]
 Deg. of freedom    69
 Full point group                 C1      NOp   1
 Rotational constants (GHZ):           1.4022773           0.2864702           0.2378749
 Leave Link  202 at Tue Jul 14 15:57:34 2020, MaxMem=  7784628224 cpu:               0.3 elap:               0.1
 (Enter /gpfs/loomis/apps/avx/software/Gaussian/16-C.01_AVX/g16/l301.exe)
 Standard basis: CC-pVDZ (5D, 7F)
 Ernie: Thresh=  0.10000D-02 Tol=  0.10000D-05 Strict=F.
 Ernie:  40 primitive shells out of 425 were deleted.
   273 basis functions,   629 primitive gaussians,   289 cartesian basis functions
    59 alpha electrons       59 beta electrons
       nuclear repulsion energy      1100.1056241000 Hartrees.
 IExCor= 4639 DFT=T Ex+Corr=wB97XD ExCW=0 ScaHFX=  1.000000
 ScaDFX=  1.000000  1.000000  1.000000  1.000000 ScalE2=  1.000000  1.000000
 IRadAn=      5 IRanWt=     -1 IRanGd=            0 ICorTp=0 IEmpDi=121
 HFx  wShort=  0.000000 wLong=  0.200000 cFull=  0.222036 cShort=  0.000000 cLong=  0.777964
 DFx  wShort=  0.000000 wLong=  0.200000 cFull=  0.000000 cShort=  0.000000 cLong=  1.000000
 NAtoms=   25 NActive=   25 NUniq=   25 SFac= 1.00D+00 NAtFMM=   60 NAOKFM=F Big=F
 Integral buffers will be    131072 words long.
 Raffenetti 1 integral format.
 Two-electron integral symmetry is turned off.
 R6Disp:  Grimme-D2 Dispersion energy=       -0.0137746726 Hartrees.
 Nuclear repulsion after empirical dispersion term =     1100.0918494274 Hartrees.
 ------------------------------------------------------------------------------
 Polarizable Continuum Model (PCM)
 =================================
 Model                : PCM.
 Atomic radii         : UFF (Universal Force Field).
 Polarization charges : Total charges.
 Charge compensation  : None.
 Solution method      : On-the-fly selection.
 Cavity type          : Scaled VdW (van der Waals Surface) (Alpha=1.100).
 Cavity algorithm     : GePol (No added spheres)
                        Default sphere list used, NSphG=   25.
                        Lebedev-Laikov grids with approx.  5.0 points / Ang**2.
                        Smoothing algorithm: York/Karplus (Gamma=1.0000).
                        Polarization charges: spherical gaussians, with
                                              point-specific exponents (IZeta= 3).
                        Self-potential: point-specific (ISelfS= 7).
                        Self-field    : sphere-specific E.n sum rule (ISelfD= 2).
 1st derivatives      : Analytical E(r).r(x)/FMM algorithm (CHGder, D1EAlg=3).
                        Cavity 1st derivative terms included.
 Solvent              : CarbonTetraChloride, Eps=   2.228000 Eps(inf)=   2.131892
 ------------------------------------------------------------------------------
 GePol: Number of generator spheres                  =      25
 GePol: Total number of spheres                      =      25
 GePol: Number of exposed spheres                    =      25 (100.00%)
 GePol: Number of points                             =    2178
 GePol: Average weight of points                     =       0.12
 GePol: Minimum weight of points                     =   0.86D-09
 GePol: Maximum weight of points                     =    0.20577
 GePol: Number of points with low weight             =     138
 GePol: Fraction of low-weight points (<1% of avg)   =       6.34%
 GePol: Cavity surface area                          =    272.208 Ang**2
 GePol: Cavity volume                                =    292.784 Ang**3
 Leave Link  301 at Tue Jul 14 15:57:34 2020, MaxMem=  7784628224 cpu:               1.3 elap:               0.2
 (Enter /gpfs/loomis/apps/avx/software/Gaussian/16-C.01_AVX/g16/l302.exe)
 NPDir=0 NMtPBC=     1 NCelOv=     1 NCel=       1 NClECP=     1 NCelD=      1
         NCelK=      1 NCelE2=     1 NClLst=     1 CellRange=     0.0.
 One-electron integrals computed using PRISM.
 NBasis=   273 RedAO= T EigKep=  3.37D-04  NBF=   273
 NBsUse=   273 1.00D-06 EigRej= -1.00D+00 NBFU=   273
 Precomputing XC quadrature grid using
 IXCGrd= 4 IRadAn=           5 IRanWt=          -1 IRanGd=           0 AccXCQ= 0.00D+00.
 Generated NRdTot=       0 NPtTot=           0 NUsed=           0 NTot=          32
 NSgBfM=   288   288   288   288   288 MxSgAt=    25 MxSgA2=    25.
 Leave Link  302 at Tue Jul 14 15:57:35 2020, MaxMem=  7784628224 cpu:               7.9 elap:               0.9
 (Enter /gpfs/loomis/apps/avx/software/Gaussian/16-C.01_AVX/g16/l303.exe)
 DipDrv:  MaxL=1.
 Leave Link  303 at Tue Jul 14 15:57:35 2020, MaxMem=  7784628224 cpu:               0.8 elap:               0.1
 (Enter /gpfs/loomis/apps/avx/software/Gaussian/16-C.01_AVX/g16/l308.exe)
 Leave Link  308 at Tue Jul 14 15:57:35 2020, MaxMem=  7784628224 cpu:               0.5 elap:               0.1
 (Enter /gpfs/loomis/apps/avx/software/Gaussian/16-C.01_AVX/g16/l401.exe)
 ExpMin= 1.22D-01 ExpMax= 1.11D+05 ExpMxC= 1.07D+03 IAcc=3 IRadAn=         5 AccDes= 0.00D+00
 Harris functional with IExCor= 4639 and IRadAn=       5 diagonalized for initial guess.
 HarFok:  IExCor= 4639 AccDes= 0.00D+00 IRadAn=         5 IDoV= 1 UseB2=F ITyADJ=14
 ICtDFT=  3500011 ScaDFX=  1.000000  1.000000  1.000000  1.000000
 FoFCou: FMM=F IPFlag=           0 FMFlag=      100000 FMFlg1=           0
         NFxFlg=           0 DoJE=T BraDBF=F KetDBF=T FulRan=T
         wScrn=  0.000000 ICntrl=       500 IOpCl=  0 I1Cent=   200000004 NGrid=           0
         NMat0=    1 NMatS0=      1 NMatT0=    0 NMatD0=    1 NMtDS0=    0 NMtDT0=    0
 Symmetry not used in FoFCou.
 Harris En= -994.413814979147    
 JPrj=0 DoOrth=F DoCkMO=F.
 Leave Link  401 at Tue Jul 14 15:57:37 2020, MaxMem=  7784628224 cpu:              13.6 elap:               1.4
 (Enter /gpfs/loomis/apps/avx/software/Gaussian/16-C.01_AVX/g16/l502.exe)
 Two-electron integral symmetry not used.
 Closed shell SCF:
 Using DIIS extrapolation, IDIIS=  1040.
 NGot=  7784628224 LenX=  7784455381 LenY=  7784371419
 Requested convergence on RMS density matrix=1.00D-08 within 128 cycles.
 Requested convergence on MAX density matrix=1.00D-06.
 Requested convergence on             energy=1.00D-06.
 No special actions if energy rises.
 Fock matrices will be formed incrementally for  20 cycles.

 Cycle   1  Pass 1  IDiag  1:
 FoFJK:  IHMeth= 1 ICntrl=       0 DoSepK=T KAlg= 0 I1Cent=           0 FoldK=F
 IRaf=         1 NMat=       1 IRICut=       1 DoRegI=T DoRafI=F ISym2E= 0 IDoP0=0 IntGTp=1.
 FoFCou: FMM=F IPFlag=           0 FMFlag=      100000 FMFlg1=           0
         NFxFlg=           0 DoJE=T BraDBF=F KetDBF=F FulRan=T
         wScrn=  0.000000 ICntrl=       500 IOpCl=  0 I1Cent=           0 NGrid=           0
         NMat0=    1 NMatS0=      1 NMatT0=    0 NMatD0=    1 NMtDS0=    0 NMtDT0=    0
 Symmetry not used in FoFCou.
 Inv3:  Mode=1 IEnd=    14231052.
 Iteration    1 A*A^-1 deviation from unit magnitude is 6.88D-15 for   2174.
 Iteration    1 A*A^-1 deviation from orthogonality  is 1.51D-15 for   1499    182.
 Iteration    1 A^-1*A deviation from unit magnitude is 6.66D-15 for   2174.
 Iteration    1 A^-1*A deviation from orthogonality  is 1.57D-15 for   2138   1403.
 E= -1028.57527537651    
 DIIS: error= 3.17D-02 at cycle   1 NSaved=   1.
 NSaved= 1 IEnMin= 1 EnMin= -1028.57527537651     IErMin= 1 ErrMin= 3.17D-02
 ErrMax= 3.17D-02  0.00D+00 EMaxC= 1.00D-01 BMatC= 3.70D-01 BMatP= 3.70D-01
 IDIUse=3 WtCom= 6.83D-01 WtEn= 3.17D-01
 Coeff-Com:  0.100D+01
 Coeff-En:   0.100D+01
 Coeff:      0.100D+01
 Gap=     0.348 Goal=   None    Shift=    0.000
 GapD=    0.348 DampG=1.000 DampE=0.500 DampFc=0.5000 IDamp=-1.
 Damping current iteration by 5.00D-01
 RMSDP=3.36D-03 MaxDP=2.19D-01              OVMax= 1.66D-01

 Cycle   2  Pass 1  IDiag  1:
 RMSU=  1.68D-03    CP:  9.93D-01
 E= -1028.68243898546     Delta-E=       -0.107163608959 Rises=F Damp=T
 DIIS: error= 1.09D-02 at cycle   2 NSaved=   2.
 NSaved= 2 IEnMin= 2 EnMin= -1028.68243898546     IErMin= 2 ErrMin= 1.09D-02
 ErrMax= 1.09D-02  0.00D+00 EMaxC= 1.00D-01 BMatC= 5.70D-02 BMatP= 3.70D-01
 IDIUse=3 WtCom= 8.91D-01 WtEn= 1.09D-01
 Coeff-Com: -0.342D+00 0.134D+01
 Coeff-En:   0.000D+00 0.100D+01
 Coeff:     -0.305D+00 0.130D+01
 Gap=     0.306 Goal=   None    Shift=    0.000
 RMSDP=1.09D-03 MaxDP=2.11D-02 DE=-1.07D-01 OVMax= 1.14D-01

 Cycle   3  Pass 1  IDiag  1:
 RMSU=  1.03D-03    CP:  9.91D-01  1.22D+00
 E= -1028.77545453606     Delta-E=       -0.093015550591 Rises=F Damp=F
 DIIS: error= 5.57D-03 at cycle   3 NSaved=   3.
 NSaved= 3 IEnMin= 3 EnMin= -1028.77545453606     IErMin= 3 ErrMin= 5.57D-03
 ErrMax= 5.57D-03  0.00D+00 EMaxC= 1.00D-01 BMatC= 1.09D-02 BMatP= 5.70D-02
 IDIUse=3 WtCom= 9.44D-01 WtEn= 5.57D-02
 Coeff-Com: -0.209D+00 0.480D+00 0.729D+00
 Coeff-En:   0.000D+00 0.000D+00 0.100D+01
 Coeff:     -0.197D+00 0.453D+00 0.744D+00
 Gap=     0.265 Goal=   None    Shift=    0.000
 RMSDP=4.78D-04 MaxDP=1.37D-02 DE=-9.30D-02 OVMax= 3.78D-02

 Cycle   4  Pass 1  IDiag  1:
 RMSU=  3.50D-04    CP:  9.89D-01  1.39D+00  8.61D-01
 E= -1028.78641189685     Delta-E=       -0.010957360794 Rises=F Damp=F
 DIIS: error= 2.01D-03 at cycle   4 NSaved=   4.
 NSaved= 4 IEnMin= 4 EnMin= -1028.78641189685     IErMin= 4 ErrMin= 2.01D-03
 ErrMax= 2.01D-03  0.00D+00 EMaxC= 1.00D-01 BMatC= 1.30D-03 BMatP= 1.09D-02
 IDIUse=3 WtCom= 9.80D-01 WtEn= 2.01D-02
 Coeff-Com: -0.765D-01 0.152D+00 0.356D+00 0.569D+00
 Coeff-En:   0.000D+00 0.000D+00 0.000D+00 0.100D+01
 Coeff:     -0.750D-01 0.149D+00 0.349D+00 0.578D+00
 Gap=     0.263 Goal=   None    Shift=    0.000
 RMSDP=1.43D-04 MaxDP=7.00D-03 DE=-1.10D-02 OVMax= 1.07D-02

 Cycle   5  Pass 1  IDiag  1:
 RMSU=  9.54D-05    CP:  9.89D-01  1.40D+00  9.23D-01  7.55D-01
 E= -1028.78781821527     Delta-E=       -0.001406318421 Rises=F Damp=F
 DIIS: error= 4.10D-04 at cycle   5 NSaved=   5.
 NSaved= 5 IEnMin= 5 EnMin= -1028.78781821527     IErMin= 5 ErrMin= 4.10D-04
 ErrMax= 4.10D-04  0.00D+00 EMaxC= 1.00D-01 BMatC= 5.76D-05 BMatP= 1.30D-03
 IDIUse=3 WtCom= 9.96D-01 WtEn= 4.10D-03
 Coeff-Com: -0.326D-02 0.854D-03 0.473D-01 0.192D+00 0.763D+00
 Coeff-En:   0.000D+00 0.000D+00 0.000D+00 0.000D+00 0.100D+01
 Coeff:     -0.325D-02 0.851D-03 0.471D-01 0.191D+00 0.764D+00
 Gap=     0.263 Goal=   None    Shift=    0.000
 RMSDP=4.92D-05 MaxDP=1.58D-03 DE=-1.41D-03 OVMax= 4.53D-03

 Cycle   6  Pass 1  IDiag  1:
 RMSU=  3.25D-05    CP:  9.89D-01  1.40D+00  9.41D-01  8.43D-01  1.03D+00
 E= -1028.78792014800     Delta-E=       -0.000101932731 Rises=F Damp=F
 DIIS: error= 1.44D-04 at cycle   6 NSaved=   6.
 NSaved= 6 IEnMin= 6 EnMin= -1028.78792014800     IErMin= 6 ErrMin= 1.44D-04
 ErrMax= 1.44D-04  0.00D+00 EMaxC= 1.00D-01 BMatC= 8.20D-06 BMatP= 5.76D-05
 IDIUse=3 WtCom= 9.99D-01 WtEn= 1.44D-03
 Coeff-Com:  0.153D-01-0.317D-01-0.550D-01-0.464D-01 0.219D+00 0.899D+00
 Coeff-En:   0.000D+00 0.000D+00 0.000D+00 0.000D+00 0.000D+00 0.100D+01
 Coeff:      0.153D-01-0.316D-01-0.550D-01-0.464D-01 0.218D+00 0.899D+00
 Gap=     0.264 Goal=   None    Shift=    0.000
 RMSDP=2.83D-05 MaxDP=1.54D-03 DE=-1.02D-04 OVMax= 2.48D-03

 Cycle   7  Pass 1  IDiag  1:
 RMSU=  1.52D-05    CP:  9.89D-01  1.40D+00  9.53D-01  8.78D-01  1.19D+00
                    CP:  1.17D+00
 E= -1028.78794418230     Delta-E=       -0.000024034302 Rises=F Damp=F
 DIIS: error= 7.91D-05 at cycle   7 NSaved=   7.
 NSaved= 7 IEnMin= 7 EnMin= -1028.78794418230     IErMin= 7 ErrMin= 7.91D-05
 ErrMax= 7.91D-05  0.00D+00 EMaxC= 1.00D-01 BMatC= 1.79D-06 BMatP= 8.20D-06
 IDIUse=1 WtCom= 1.00D+00 WtEn= 0.00D+00
 Coeff-Com:  0.678D-02-0.131D-01-0.290D-01-0.446D-01-0.206D-01 0.373D+00
 Coeff-Com:  0.727D+00
 Coeff:      0.678D-02-0.131D-01-0.290D-01-0.446D-01-0.206D-01 0.373D+00
 Coeff:      0.727D+00
 Gap=     0.264 Goal=   None    Shift=    0.000
 RMSDP=9.60D-06 MaxDP=4.93D-04 DE=-2.40D-05 OVMax= 1.07D-03

 Cycle   8  Pass 1  IDiag  1:
 RMSU=  5.94D-06    CP:  9.89D-01  1.40D+00  9.55D-01  8.85D-01  1.23D+00
                    CP:  1.35D+00  1.10D+00
 E= -1028.78794779126     Delta-E=       -0.000003608952 Rises=F Damp=F
 DIIS: error= 2.84D-05 at cycle   8 NSaved=   8.
 NSaved= 8 IEnMin= 8 EnMin= -1028.78794779126     IErMin= 8 ErrMin= 2.84D-05
 ErrMax= 2.84D-05  0.00D+00 EMaxC= 1.00D-01 BMatC= 1.99D-07 BMatP= 1.79D-06
 IDIUse=1 WtCom= 1.00D+00 WtEn= 0.00D+00
 Coeff-Com: -0.116D-02 0.258D-02 0.301D-02-0.110D-02-0.407D-01-0.569D-01
 Coeff-Com:  0.204D+00 0.890D+00
 Coeff:     -0.116D-02 0.258D-02 0.301D-02-0.110D-02-0.407D-01-0.569D-01
 Coeff:      0.204D+00 0.890D+00
 Gap=     0.264 Goal=   None    Shift=    0.000
 RMSDP=4.26D-06 MaxDP=1.42D-04 DE=-3.61D-06 OVMax= 5.93D-04

 Cycle   9  Pass 1  IDiag  1:
 RMSU=  1.98D-06    CP:  9.89D-01  1.40D+00  9.55D-01  8.85D-01  1.24D+00
                    CP:  1.41D+00  1.30D+00  1.12D+00
 E= -1028.78794837074     Delta-E=       -0.000000579482 Rises=F Damp=F
 DIIS: error= 1.44D-05 at cycle   9 NSaved=   9.
 NSaved= 9 IEnMin= 9 EnMin= -1028.78794837074     IErMin= 9 ErrMin= 1.44D-05
 ErrMax= 1.44D-05  0.00D+00 EMaxC= 1.00D-01 BMatC= 4.17D-08 BMatP= 1.99D-07
 IDIUse=1 WtCom= 1.00D+00 WtEn= 0.00D+00
 Coeff-Com: -0.125D-02 0.252D-02 0.462D-02 0.535D-02-0.138D-01-0.710D-01
 Coeff-Com: -0.425D-02 0.350D+00 0.728D+00
 Coeff:     -0.125D-02 0.252D-02 0.462D-02 0.535D-02-0.138D-01-0.710D-01
 Coeff:     -0.425D-02 0.350D+00 0.728D+00
 Gap=     0.264 Goal=   None    Shift=    0.000
 RMSDP=1.64D-06 MaxDP=5.76D-05 DE=-5.79D-07 OVMax= 1.58D-04

 Cycle  10  Pass 1  IDiag  1:
 RMSU=  9.05D-07    CP:  9.89D-01  1.40D+00  9.54D-01  8.85D-01  1.25D+00
                    CP:  1.43D+00  1.35D+00  1.27D+00  1.08D+00
 E= -1028.78794846745     Delta-E=       -0.000000096708 Rises=F Damp=F
 DIIS: error= 6.86D-06 at cycle  10 NSaved=  10.
 NSaved=10 IEnMin=10 EnMin= -1028.78794846745     IErMin=10 ErrMin= 6.86D-06
 ErrMax= 6.86D-06  0.00D+00 EMaxC= 1.00D-01 BMatC= 7.51D-09 BMatP= 4.17D-08
 IDIUse=1 WtCom= 1.00D+00 WtEn= 0.00D+00
 Coeff-Com: -0.226D-03 0.413D-03 0.109D-02 0.240D-02 0.268D-02-0.200D-01
 Coeff-Com: -0.415D-01-0.419D-01 0.276D+00 0.821D+00
 Coeff:     -0.226D-03 0.413D-03 0.109D-02 0.240D-02 0.268D-02-0.200D-01
 Coeff:     -0.415D-01-0.419D-01 0.276D+00 0.821D+00
 Gap=     0.264 Goal=   None    Shift=    0.000
 RMSDP=8.95D-07 MaxDP=3.02D-05 DE=-9.67D-08 OVMax= 1.40D-04

 Cycle  11  Pass 1  IDiag  1:
 RMSU=  4.09D-07    CP:  9.89D-01  1.40D+00  9.54D-01  8.85D-01  1.25D+00
                    CP:  1.44D+00  1.38D+00  1.32D+00  1.31D+00  1.12D+00
 E= -1028.78794849344     Delta-E=       -0.000000025998 Rises=F Damp=F
 DIIS: error= 3.38D-06 at cycle  11 NSaved=  11.
 NSaved=11 IEnMin=11 EnMin= -1028.78794849344     IErMin=11 ErrMin= 3.38D-06
 ErrMax= 3.38D-06  0.00D+00 EMaxC= 1.00D-01 BMatC= 1.49D-09 BMatP= 7.51D-09
 IDIUse=1 WtCom= 1.00D+00 WtEn= 0.00D+00
 Coeff-Com:  0.153D-03-0.319D-03-0.496D-03-0.108D-03 0.327D-02 0.443D-02
 Coeff-Com: -0.796D-02-0.621D-01-0.584D-01 0.270D+00 0.851D+00
 Coeff:      0.153D-03-0.319D-03-0.496D-03-0.108D-03 0.327D-02 0.443D-02
 Coeff:     -0.796D-02-0.621D-01-0.584D-01 0.270D+00 0.851D+00
 Gap=     0.264 Goal=   None    Shift=    0.000
 RMSDP=3.75D-07 MaxDP=8.66D-06 DE=-2.60D-08 OVMax= 6.02D-05

 Cycle  12  Pass 1  IDiag  1:
 RMSU=  1.57D-07    CP:  9.89D-01  1.40D+00  9.55D-01  8.85D-01  1.25D+00
                    CP:  1.44D+00  1.38D+00  1.34D+00  1.41D+00  1.36D+00
                    CP:  1.16D+00
 E= -1028.78794849862     Delta-E=       -0.000000005176 Rises=F Damp=F
 DIIS: error= 8.64D-07 at cycle  12 NSaved=  12.
 NSaved=12 IEnMin=12 EnMin= -1028.78794849862     IErMin=12 ErrMin= 8.64D-07
 ErrMax= 8.64D-07  0.00D+00 EMaxC= 1.00D-01 BMatC= 2.63D-10 BMatP= 1.49D-09
 IDIUse=1 WtCom= 1.00D+00 WtEn= 0.00D+00
 Coeff-Com:  0.101D-03-0.198D-03-0.426D-03-0.593D-03 0.671D-03 0.582D-02
 Coeff-Com:  0.760D-02-0.100D-01-0.999D-01-0.995D-01 0.223D+00 0.973D+00
 Coeff:      0.101D-03-0.198D-03-0.426D-03-0.593D-03 0.671D-03 0.582D-02
 Coeff:      0.760D-02-0.100D-01-0.999D-01-0.995D-01 0.223D+00 0.973D+00
 Gap=     0.264 Goal=   None    Shift=    0.000
 RMSDP=2.28D-07 MaxDP=5.07D-06 DE=-5.18D-09 OVMax= 3.58D-05

 Cycle  13  Pass 1  IDiag  1:
 RMSU=  6.67D-08    CP:  9.89D-01  1.40D+00  9.55D-01  8.85D-01  1.25D+00
                    CP:  1.44D+00  1.39D+00  1.35D+00  1.46D+00  1.49D+00
                    CP:  1.45D+00  1.29D+00
 E= -1028.78794849992     Delta-E=       -0.000000001297 Rises=F Damp=F
 DIIS: error= 3.96D-07 at cycle  13 NSaved=  13.
 NSaved=13 IEnMin=13 EnMin= -1028.78794849992     IErMin=13 ErrMin= 3.96D-07
 ErrMax= 3.96D-07  0.00D+00 EMaxC= 1.00D-01 BMatC= 3.49D-11 BMatP= 2.63D-10
 IDIUse=1 WtCom= 1.00D+00 WtEn= 0.00D+00
 Coeff-Com:  0.124D-05 0.257D-06-0.324D-04-0.135D-03-0.223D-03 0.776D-03
 Coeff-Com:  0.358D-02 0.804D-02-0.180D-01-0.618D-01-0.894D-01 0.261D+00
 Coeff-Com:  0.896D+00
 Coeff:      0.124D-05 0.257D-06-0.324D-04-0.135D-03-0.223D-03 0.776D-03
 Coeff:      0.358D-02 0.804D-02-0.180D-01-0.618D-01-0.894D-01 0.261D+00
 Coeff:      0.896D+00
 Gap=     0.264 Goal=   None    Shift=    0.000
 RMSDP=6.68D-08 MaxDP=1.50D-06 DE=-1.30D-09 OVMax= 9.18D-06

 Cycle  14  Pass 1  IDiag  1:
 RMSU=  2.70D-08    CP:  9.89D-01  1.40D+00  9.55D-01  8.85D-01  1.25D+00
                    CP:  1.44D+00  1.39D+00  1.35D+00  1.48D+00  1.53D+00
                    CP:  1.52D+00  1.50D+00  1.17D+00
 E= -1028.78794850004     Delta-E=       -0.000000000119 Rises=F Damp=F
 DIIS: error= 1.29D-07 at cycle  14 NSaved=  14.
 NSaved=14 IEnMin=14 EnMin= -1028.78794850004     IErMin=14 ErrMin= 1.29D-07
 ErrMax= 1.29D-07  0.00D+00 EMaxC= 1.00D-01 BMatC= 5.27D-12 BMatP= 3.49D-11
 IDIUse=1 WtCom= 1.00D+00 WtEn= 0.00D+00
 Coeff-Com: -0.113D-04 0.231D-04 0.384D-04 0.191D-04-0.141D-03-0.398D-03
 Coeff-Com:  0.410D-03 0.379D-02 0.389D-02-0.902D-02-0.553D-01-0.959D-02
 Coeff-Com:  0.331D+00 0.735D+00
 Coeff:     -0.113D-04 0.231D-04 0.384D-04 0.191D-04-0.141D-03-0.398D-03
 Coeff:      0.410D-03 0.379D-02 0.389D-02-0.902D-02-0.553D-01-0.959D-02
 Coeff:      0.331D+00 0.735D+00
 Gap=     0.264 Goal=   None    Shift=    0.000
 RMSDP=1.63D-08 MaxDP=3.80D-07 DE=-1.19D-10 OVMax= 2.26D-06

 Cycle  15  Pass 1  IDiag  1:
 RMSU=  9.54D-09    CP:  9.89D-01  1.40D+00  9.55D-01  8.85D-01  1.25D+00
                    CP:  1.44D+00  1.39D+00  1.35D+00  1.48D+00  1.53D+00
                    CP:  1.53D+00  1.54D+00  1.31D+00  1.02D+00
 E= -1028.78794850005     Delta-E=       -0.000000000016 Rises=F Damp=F
 DIIS: error= 4.27D-08 at cycle  15 NSaved=  15.
 NSaved=15 IEnMin=15 EnMin= -1028.78794850005     IErMin=15 ErrMin= 4.27D-08
 ErrMax= 4.27D-08  0.00D+00 EMaxC= 1.00D-01 BMatC= 6.92D-13 BMatP= 5.27D-12
 IDIUse=1 WtCom= 1.00D+00 WtEn= 0.00D+00
 Coeff-Com: -0.310D-05 0.577D-05 0.168D-04 0.292D-04-0.500D-05-0.281D-03
 Coeff-Com: -0.607D-03-0.330D-03 0.463D-02 0.930D-02-0.551D-03-0.548D-01
 Coeff-Com: -0.764D-01 0.194D+00 0.926D+00
 Coeff:     -0.310D-05 0.577D-05 0.168D-04 0.292D-04-0.500D-05-0.281D-03
 Coeff:     -0.607D-03-0.330D-03 0.463D-02 0.930D-02-0.551D-03-0.548D-01
 Coeff:     -0.764D-01 0.194D+00 0.926D+00
 Gap=     0.264 Goal=   None    Shift=    0.000
 RMSDP=8.73D-09 MaxDP=1.99D-07 DE=-1.59D-11 OVMax= 9.69D-07

 Error on total polarization charges =  0.00792
 SCF Done:  E(RwB97XD) =  -1028.78794850     A.U. after   15 cycles
            NFock= 15  Conv=0.87D-08     -V/T= 2.0048
 KE= 1.023826928451D+03 PE=-4.612336195195D+03 EE= 1.459629468816D+03
 Leave Link  502 at Tue Jul 14 15:58:59 2020, MaxMem=  7784628224 cpu:             814.2 elap:              82.1
 (Enter /gpfs/loomis/apps/avx/software/Gaussian/16-C.01_AVX/g16/l801.exe)
 DoSCS=F DFT=T ScalE2(SS,OS)=  1.000000  1.000000
 ExpMin= 1.22D-01 ExpMax= 1.11D+05 ExpMxC= 1.07D+03 IAcc=3 IRadAn=         5 AccDes= 0.00D+00
 HarFok:  IExCor=  205 AccDes= 0.00D+00 IRadAn=         5 IDoV=-2 UseB2=F ITyADJ=14
 ICtDFT= 12500011 ScaDFX=  1.000000  1.000000  1.000000  1.000000
 Largest valence mixing into a core orbital is  9.39D-05
 Largest core mixing into a valence orbital is  3.44D-05
 Range of M.O.s used for correlation:    21   273
 NBasis=   273 NAE=    59 NBE=    59 NFC=    20 NFV=     0
 NROrb=    253 NOA=    39 NOB=    39 NVA=   214 NVB=   214

 **** Warning!!: The largest alpha MO coefficient is  0.10703932D+02

 Leave Link  801 at Tue Jul 14 15:58:59 2020, MaxMem=  7784628224 cpu:               2.0 elap:               0.3
 (Enter /gpfs/loomis/apps/avx/software/Gaussian/16-C.01_AVX/g16/l914.exe)
 RHF ground state
 Keep R1, R2, and R3 ints in memory in canonical form, NReq=4262515490.
 FoFCou: FMM=F IPFlag=           0 FMFlag=           0 FMFlg1=           0
         NFxFlg=           0 DoJE=F BraDBF=F KetDBF=F FulRan=T
         wScrn=  0.000000 ICntrl=       600 IOpCl=  0 I1Cent=           0 NGrid=           0
         NMat0=    1 NMatS0=  37401 NMatT0=    0 NMatD0=    1 NMtDS0=    0 NMtDT0=    0
 Symmetry not used in FoFCou.
 Two-electron integral symmetry not used.
 MDV=  7784628224 DFT=T DoStab=F Mixed=T DoRPA=T DoScal=F NonHer=T
 NEqPCM:  Using equilibrium solvation (IEInf=0, Eps=   2.2280, EpsInf=   2.1319)
 Making orbital integer symmetry assigments:
    12 initial guesses have been made.
 Convergence on wavefunction:    0.000001000000000
 Davidson Disk Diagonalization:  ConvIn= 1.00D-06 SkipCon=T Conv= 1.00D-06.
 Max sub-space:  2000 roots to seek:    12 dimension of matrix:        16692
 Iteration     1 Dimension    12 NMult     0 NNew     12
 CISAX will form    12 AO SS matrices at one time.
 NMat=    12 NSing=    12 JSym2X= 0.
 New state      2 was old state      3
 New state      3 was old state      2
 Excitation Energies [eV] at current iteration:
 Root      1 :     4.074143116963239
 Root      2 :     4.914412139608960
 Root      3 :     5.032876455385301
 Root      4 :     5.361440045254739
 Root      5 :     6.077310942571740
 Root      6 :     6.159346791507709
 Root      7 :     6.279080177114093
 Root      8 :     6.478924642742739
 Root      9 :     6.874732535072500
 Root     10 :     7.128647612339456
 Root     11 :     7.476104040146736
 Root     12 :     7.680133866204140
 Iteration     2 Dimension    18 NMult    12 NNew      6
 CISAX will form     6 AO SS matrices at one time.
 NMat=     6 NSing=     6 JSym2X= 0.
 Root      1 not converged, maximum delta is    0.057327898046697
 Root      2 not converged, maximum delta is    0.321144702748649
 Root      3 not converged, maximum delta is    0.307538144953172
 Excitation Energies [eV] at current iteration:
 Root      1 :     3.591708507873248   Change is   -0.482434609089991
 Root      2 :     4.462010549923265   Change is   -0.452401589685696
 Root      3 :     4.573259040097057   Change is   -0.459617415288244
 Iteration     3 Dimension    24 NMult    18 NNew      6
 CISAX will form     6 AO SS matrices at one time.
 NMat=     6 NSing=     6 JSym2X= 0.
 Root      1 not converged, maximum delta is    0.022018140662792
 Root      2 not converged, maximum delta is    0.036926004305298
 Root      3 not converged, maximum delta is    0.029666645152413
 Excitation Energies [eV] at current iteration:
 Root      1 :     3.557526848990197   Change is   -0.034181658883051
 Root      2 :     4.417139721055409   Change is   -0.044870828867855
 Root      3 :     4.528236756015402   Change is   -0.045022284081655
 Iteration     4 Dimension    30 NMult    24 NNew      6
 CISAX will form     6 AO SS matrices at one time.
 NMat=     6 NSing=     6 JSym2X= 0.
 Root      1 not converged, maximum delta is    0.006936352330314
 Root      2 not converged, maximum delta is    0.012675173590625
 Root      3 not converged, maximum delta is    0.007683603044224
 Excitation Energies [eV] at current iteration:
 Root      1 :     3.554045364644476   Change is   -0.003481484345722
 Root      2 :     4.410931340591607   Change is   -0.006208380463802
 Root      3 :     4.523297493942465   Change is   -0.004939262072937
 Iteration     5 Dimension    36 NMult    30 NNew      6
 CISAX will form     6 AO SS matrices at one time.
 NMat=     6 NSing=     6 JSym2X= 0.
 Root      1 not converged, maximum delta is    0.002217416647237
 Root      2 not converged, maximum delta is    0.003113315136050
 Root      3 not converged, maximum delta is    0.003753875850028
 Excitation Energies [eV] at current iteration:
 Root      1 :     3.553741261987645   Change is   -0.000304102656830
 Root      2 :     4.410392457862839   Change is   -0.000538882728768
 Root      3 :     4.522513759489335   Change is   -0.000783734453129
 Iteration     6 Dimension    42 NMult    36 NNew      6
 CISAX will form     6 AO SS matrices at one time.
 NMat=     6 NSing=     6 JSym2X= 0.
 Root      1 not converged, maximum delta is    0.000517003218909
 Root      2 not converged, maximum delta is    0.000572194922726
 Root      3 not converged, maximum delta is    0.001082856348414
 Excitation Energies [eV] at current iteration:
 Root      1 :     3.553710821040409   Change is   -0.000030440947237
 Root      2 :     4.410350519145839   Change is   -0.000041938717000
 Root      3 :     4.522446076359661   Change is   -0.000067683129675
 Iteration     7 Dimension    48 NMult    42 NNew      6
 CISAX will form     6 AO SS matrices at one time.
 NMat=     6 NSing=     6 JSym2X= 0.
 Root      1 not converged, maximum delta is    0.000111226832026
 Root      2 not converged, maximum delta is    0.000176702923899
 Root      3 not converged, maximum delta is    0.000199871420431
 Excitation Energies [eV] at current iteration:
 Root      1 :     3.553708955891976   Change is   -0.000001865148433
 Root      2 :     4.410346027783540   Change is   -0.000004491362298
 Root      3 :     4.522441353050613   Change is   -0.000004723309048
 Iteration     8 Dimension    54 NMult    48 NNew      6
 CISAX will form     6 AO SS matrices at one time.
 NMat=     6 NSing=     6 JSym2X= 0.
 Root      1 not converged, maximum delta is    0.000020551003192
 Root      2 not converged, maximum delta is    0.000067448574760
 Root      3 not converged, maximum delta is    0.000059862522689
 Excitation Energies [eV] at current iteration:
 Root      1 :     3.553708846399366   Change is   -0.000000109492610
 Root      2 :     4.410345645250445   Change is   -0.000000382533096
 Root      3 :     4.522440931877205   Change is   -0.000000421173408
 Iteration     9 Dimension    60 NMult    54 NNew      6
 CISAX will form     6 AO SS matrices at one time.
 NMat=     6 NSing=     6 JSym2X= 0.
 Root      1 not converged, maximum delta is    0.000005867508976
 Root      2 not converged, maximum delta is    0.000018422481500
 Root      3 not converged, maximum delta is    0.000013040468184
 Excitation Energies [eV] at current iteration:
 Root      1 :     3.553708838666299   Change is   -0.000000007733067
 Root      2 :     4.410345610697306   Change is   -0.000000034553138
 Root      3 :     4.522440901603067   Change is   -0.000000030274138
 Iteration    10 Dimension    66 NMult    60 NNew      6
 CISAX will form     6 AO SS matrices at one time.
 NMat=     6 NSing=     6 JSym2X= 0.
 Root      1 has converged.
 Root      2 not converged, maximum delta is    0.000002660588180
 Root      3 not converged, maximum delta is    0.000003325941412
 Excitation Energies [eV] at current iteration:
 Root      1 :     3.553708838357244   Change is   -0.000000000309056
 Root      2 :     4.410345609336776   Change is   -0.000000001360530
 Root      3 :     4.522440900175792   Change is   -0.000000001427275
 Iteration    11 Dimension    70 NMult    66 NNew      4
 CISAX will form     4 AO SS matrices at one time.
 NMat=     4 NSing=     4 JSym2X= 0.
 Root      1 has converged.
 Root      2 has converged.
 Root      3 has converged.
 Excitation Energies [eV] at current iteration:
 Root      1 :     3.553708838353751   Change is   -0.000000000003493
 Root      2 :     4.410345609256420   Change is   -0.000000000080356
 Root      3 :     4.522440900114860   Change is   -0.000000000060932
 Convergence achieved on expansion vectors.
 ***********************************************************************
 Excited states from <AA,BB:AA,BB> singles matrix:
 ***********************************************************************
 
 1PDM for each excited state written to RWF  633
 Ground to excited state transition densities written to RWF  633
 Ground to excited state transition electric dipole moments (Au):
       state          X           Y           Z        Dip. S.      Osc.
         1        -1.9010      2.2602      0.0000      8.7225      0.7594
         2         0.8385     -0.1887     -0.0000      0.7386      0.0798
         3        -1.0754      0.0098      0.0000      1.1566      0.1281
 Ground to excited state transition velocity dipole moments (Au):
       state          X           Y           Z        Dip. S.      Osc.
         1         0.2425     -0.2934     -0.0000      0.1449      0.7396
         2        -0.1329      0.0232      0.0000      0.0182      0.0748
         3         0.1768     -0.0001     -0.0000      0.0313      0.1254
 Ground to excited state transition magnetic dipole moments (Au):
       state          X           Y           Z
         1        -0.0000     -0.0000      0.1711
         2         0.0000     -0.0000      1.3112
         3         0.0000     -0.0000     -0.0699
 Ground to excited state transition velocity quadrupole moments (Au):
       state          XX          YY          ZZ          XY          XZ          YZ
         1        -0.1164     -0.3357      0.0115      0.2424      0.0000     -0.0000
         2         0.3728     -0.8166      0.0006      0.1473     -0.0000     -0.0000
         3         0.4640      0.1474     -0.0287     -0.3344     -0.0000      0.0000
 <0|del|b> * <b|rxdel|0> + <0|del|b> * <b|delr+rdel|0>
 Rotatory Strengths (R) in cgs (10**-40 erg-esu-cm/Gauss)
       state          XX          YY          ZZ    R(velocity)    E-M Angle
         1         0.0128     -0.0053      0.0158      0.0078       90.00
         2         0.0021      0.0023     -0.0049     -0.0002       90.00
         3         0.0002      0.0035      0.0034      0.0024       90.00
 1/2[<0|r|b>*<b|rxdel|0> + (<0|rxdel|b>*<b|r|0>)*]
 Rotatory Strengths (R) in cgs (10**-40 erg-esu-cm/Gauss)
       state          XX          YY          ZZ     R(length)
         1        -0.0006      0.0276     -0.0037      0.0078
         2        -0.0038     -0.0003      0.0029     -0.0004
         3         0.0071      0.0001      0.0001      0.0024
  1/2[<0|del|b>*<b|r|0> + (<0|r|b>*<b|del|0>)*] (Au)
       state          X           Y           Z        Dip. S.   Osc.(frdel)
         1        -0.4610     -0.6631     -0.0000      1.1241      0.7494
         2        -0.1114     -0.0044     -0.0000      0.1158      0.0772
         3        -0.1902     -0.0000     -0.0000      0.1902      0.1268

 Excitation energies and oscillator strengths:
 
 Excited state symmetry could not be determined.
 Excited State   1:      Singlet-?Sym    3.5537 eV  348.89 nm  f=0.7594  <S**2>=0.000
      59 -> 60         0.68629
 This state for optimization and/or second-order correction.
 Total Energy, E(TD-HF/TD-DFT) =  -1028.65735210    
 Copying the excited state density for this state as the 1-particle RhoCI density.
 
 Excited state symmetry could not be determined.
 Excited State   2:      Singlet-?Sym    4.4103 eV  281.12 nm  f=0.0798  <S**2>=0.000
      57 -> 60         0.65045
      59 -> 61         0.12656
      59 -> 62        -0.15037
 
 Excited state symmetry could not be determined.
 Excited State   3:      Singlet-?Sym    4.5224 eV  274.15 nm  f=0.1281  <S**2>=0.000
      58 -> 60         0.63451
      58 -> 63        -0.12648
      59 -> 61         0.17215
      59 -> 62         0.11810
 SavETr:  write IOETrn=   770 NScale= 10 NData=  16 NLR=1 NState=    3 LETran=      64.
 The selected state is a singlet.
 CISGrd: IGrad=2 NXY=2 DFT=T
 CISAX will form     1 AO SS matrices at one time.
 NMat=     1 NSing=     1 JSym2X= 0.
 GePol: Maximum number of non-zero 1st derivatives   =     240
 Leave Link  914 at Tue Jul 14 16:01:36 2020, MaxMem=  7784628224 cpu:            1543.0 elap:             156.8
 (Enter /gpfs/loomis/apps/avx/software/Gaussian/16-C.01_AVX/g16/l1002.exe)
 Minotr:  Closed shell wavefunction.
          Computing CIS/TDA/TD derivatives.
          Using Z-Vector for PSCF gradient.
          Skipping F1 and S1 gradient terms here.
          IDoAtm=1111111111111111111111111
 NEqPCM:  Using equilibrium solvation (IEInf=0, Eps=   2.2280, EpsInf=   2.1319)
          Frozen-core window.
          Direct CPHF calculation.
          Differentiating once with respect to electric field.
                with respect to dipole field.
          Differentiating once with respect to nuclear coordinates.
          Requested convergence is 1.0D-10 RMS, and 1.0D-09 maximum.
          NewPWx=F KeepS1=T KeepF1=T KeepIn=T MapXYZ=F SortEE=F KeepMc=T.
 Keep R1 ints in memory in canonical form, NReq=1421377844.
 FoFCou: FMM=F IPFlag=           0 FMFlag=           0 FMFlg1=           0
         NFxFlg=           0 DoJE=F BraDBF=F KetDBF=F FulRan=T
         wScrn=  0.000000 ICntrl=       600 IOpCl=  0 I1Cent=           0 NGrid=           0
         NMat0=    1 NMatS0=  37401 NMatT0=    0 NMatD0=    1 NMtDS0=    0 NMtDT0=    0
 Symmetry not used in FoFCou.
 Two-electron integral symmetry not used.
          MDV=    7784628224 using IRadAn=       5.
          Solving linear equations separately, MaxMat=       0.
          There are     1 degrees of freedom in the 1st order CPHF.  IDoFFX=0 NUNeed=     1.
 LinEq1:  Iter=  0 NonCon=     1 RMS=3.46D-03 Max=1.78D-01 NDo=     1
 AX will form     1 AO Fock derivatives at one time.
 LinEq1:  Iter=  1 NonCon=     1 RMS=1.32D-03 Max=6.14D-02 NDo=     1
 LinEq1:  Iter=  2 NonCon=     1 RMS=7.23D-04 Max=3.23D-02 NDo=     1
 LinEq1:  Iter=  3 NonCon=     1 RMS=2.87D-04 Max=9.66D-03 NDo=     1
 LinEq1:  Iter=  4 NonCon=     1 RMS=1.53D-04 Max=6.55D-03 NDo=     1
 LinEq1:  Iter=  5 NonCon=     1 RMS=8.56D-05 Max=2.94D-03 NDo=     1
 LinEq1:  Iter=  6 NonCon=     1 RMS=3.72D-05 Max=1.38D-03 NDo=     1
 LinEq1:  Iter=  7 NonCon=     1 RMS=2.50D-05 Max=9.06D-04 NDo=     1
 LinEq1:  Iter=  8 NonCon=     1 RMS=8.60D-06 Max=3.12D-04 NDo=     1
 LinEq1:  Iter=  9 NonCon=     1 RMS=4.69D-06 Max=1.37D-04 NDo=     1
 LinEq1:  Iter= 10 NonCon=     1 RMS=1.60D-06 Max=6.15D-05 NDo=     1
 LinEq1:  Iter= 11 NonCon=     1 RMS=7.27D-07 Max=2.98D-05 NDo=     1
 LinEq1:  Iter= 12 NonCon=     1 RMS=3.27D-07 Max=8.81D-06 NDo=     1
 LinEq1:  Iter= 13 NonCon=     1 RMS=1.19D-07 Max=2.31D-06 NDo=     1
 LinEq1:  Iter= 14 NonCon=     1 RMS=6.26D-08 Max=1.80D-06 NDo=     1
 LinEq1:  Iter= 15 NonCon=     1 RMS=2.13D-08 Max=5.63D-07 NDo=     1
 LinEq1:  Iter= 16 NonCon=     1 RMS=9.49D-09 Max=3.12D-07 NDo=     1
 LinEq1:  Iter= 17 NonCon=     1 RMS=4.29D-09 Max=1.13D-07 NDo=     1
 LinEq1:  Iter= 18 NonCon=     1 RMS=1.82D-09 Max=5.48D-08 NDo=     1
 LinEq1:  Iter= 19 NonCon=     1 RMS=7.54D-10 Max=2.68D-08 NDo=     1
 LinEq1:  Iter= 20 NonCon=     1 RMS=4.26D-10 Max=1.34D-08 NDo=     1
 LinEq1:  Iter= 21 NonCon=     1 RMS=1.62D-10 Max=3.95D-09 NDo=     1
 LinEq1:  Iter= 22 NonCon=     1 RMS=7.37D-11 Max=1.94D-09 NDo=     1
 LinEq1:  Iter= 23 NonCon=     0 RMS=3.10D-11 Max=6.41D-10 NDo=     1
 Linear equations converged to 1.000D-10 1.000D-09 after    23 iterations.
 End of Minotr F.D. properties file   721 does not exist.
 End of Minotr F.D. properties file   722 does not exist.
 End of Minotr F.D. properties file   788 does not exist.
 Leave Link 1002 at Tue Jul 14 16:03:10 2020, MaxMem=  7784628224 cpu:             715.9 elap:              94.7
 (Enter /gpfs/loomis/apps/avx/software/Gaussian/16-C.01_AVX/g16/l601.exe)
 Copying SCF densities to generalized density rwf, IOpCl= 0 IROHF=0.

 **********************************************************************

            Population analysis using the SCF Density.

 **********************************************************************

 Alpha  occ. eigenvalues --  -89.08344 -19.28197 -14.46700 -10.39038 -10.38742
 Alpha  occ. eigenvalues --  -10.35159 -10.34287 -10.32708 -10.32660 -10.32478
 Alpha  occ. eigenvalues --  -10.32040 -10.31846 -10.31483 -10.31470 -10.31440
 Alpha  occ. eigenvalues --  -10.31152  -8.10477  -6.05299  -6.04963  -6.04549
 Alpha  occ. eigenvalues --   -1.20551  -1.07727  -0.96876  -0.95461  -0.92025
 Alpha  occ. eigenvalues --   -0.88588  -0.85734  -0.84406  -0.82269  -0.76434
 Alpha  occ. eigenvalues --   -0.72321  -0.70129  -0.70023  -0.67982  -0.64577
 Alpha  occ. eigenvalues --   -0.60231  -0.59384  -0.58442  -0.56088  -0.54653
 Alpha  occ. eigenvalues --   -0.53887  -0.53584  -0.52592  -0.50699  -0.50292
 Alpha  occ. eigenvalues --   -0.49124  -0.47575  -0.46103  -0.45649  -0.44836
 Alpha  occ. eigenvalues --   -0.43835  -0.43102  -0.41944  -0.39675  -0.37314
 Alpha  occ. eigenvalues --   -0.36341  -0.32055  -0.31530  -0.28292
 Alpha virt. eigenvalues --   -0.01866   0.05157   0.06584   0.06841   0.08239
 Alpha virt. eigenvalues --    0.11138   0.14360   0.15300   0.17291   0.17888
 Alpha virt. eigenvalues --    0.18610   0.21241   0.21480   0.22168   0.22524
 Alpha virt. eigenvalues --    0.23759   0.23843   0.24049   0.28041   0.30273
 Alpha virt. eigenvalues --    0.32194   0.33351   0.34622   0.35648   0.37028
 Alpha virt. eigenvalues --    0.37846   0.39002   0.40635   0.43308   0.44755
 Alpha virt. eigenvalues --    0.46389   0.49038   0.50235   0.51298   0.51416
 Alpha virt. eigenvalues --    0.52421   0.53523   0.54389   0.54901   0.55771
 Alpha virt. eigenvalues --    0.56027   0.56253   0.56997   0.57831   0.57910
 Alpha virt. eigenvalues --    0.58460   0.58950   0.59029   0.59476   0.60144
 Alpha virt. eigenvalues --    0.60850   0.61002   0.61609   0.62804   0.63366
 Alpha virt. eigenvalues --    0.65432   0.66117   0.66616   0.67683   0.69244
 Alpha virt. eigenvalues --    0.71246   0.71402   0.72435   0.72519   0.73315
 Alpha virt. eigenvalues --    0.73367   0.74209   0.75605   0.75890   0.78603
 Alpha virt. eigenvalues --    0.78747   0.79171   0.80298   0.81324   0.82189
 Alpha virt. eigenvalues --    0.85819   0.89956   0.91500   0.92914   0.94212
 Alpha virt. eigenvalues --    0.94986   0.95096   0.95494   0.97040   0.97297
 Alpha virt. eigenvalues --    0.97981   0.98589   1.00568   1.00935   1.02187
 Alpha virt. eigenvalues --    1.02496   1.05905   1.06531   1.07122   1.07874
 Alpha virt. eigenvalues --    1.08026   1.08449   1.09949   1.10181   1.10961
 Alpha virt. eigenvalues --    1.11847   1.12511   1.14348   1.14849   1.15737
 Alpha virt. eigenvalues --    1.16118   1.19696   1.20451   1.21414   1.22230
 Alpha virt. eigenvalues --    1.24896   1.30255   1.32255   1.34162   1.35041
 Alpha virt. eigenvalues --    1.36829   1.37146   1.39420   1.40065   1.46467
 Alpha virt. eigenvalues --    1.48475   1.48692   1.50674   1.51788   1.53187
 Alpha virt. eigenvalues --    1.54885   1.56007   1.56324   1.56495   1.57001
 Alpha virt. eigenvalues --    1.58127   1.59200   1.61730   1.65453   1.66181
 Alpha virt. eigenvalues --    1.66708   1.68609   1.69021   1.70120   1.70790
 Alpha virt. eigenvalues --    1.71835   1.72293   1.72386   1.73454   1.75162
 Alpha virt. eigenvalues --    1.75584   1.77329   1.79352   1.80639   1.81668
 Alpha virt. eigenvalues --    1.82674   1.82695   1.84180   1.84484   1.84608
 Alpha virt. eigenvalues --    1.85803   1.87785   1.88574   1.89338   1.91688
 Alpha virt. eigenvalues --    1.91784   1.92831   1.93032   1.94187   1.96994
 Alpha virt. eigenvalues --    1.99749   2.00276   2.02403   2.02558   2.03383
 Alpha virt. eigenvalues --    2.05210   2.07330   2.08277   2.11155   2.12357
 Alpha virt. eigenvalues --    2.17353   2.17731   2.19426   2.23502   2.23989
 Alpha virt. eigenvalues --    2.25140   2.28200   2.35056   2.37172   2.41624
 Alpha virt. eigenvalues --    2.41906   2.42014   2.45273   2.46065   2.46494
 Alpha virt. eigenvalues --    2.47859   2.48730   2.52908   2.55121   2.61313
 Alpha virt. eigenvalues --    2.62647   2.71308   2.73943   2.75300   2.78028
 Alpha virt. eigenvalues --    2.80169   2.82645   2.86709   2.89212   2.92624
 Alpha virt. eigenvalues --    2.99625   3.04622   3.11780   3.17527   3.29637
 Alpha virt. eigenvalues --    3.46170   3.53336   3.70269   4.10443
          Condensed to atoms (all electrons):
               1          2          3          4          5          6
     1  C    4.772211   0.448653   0.015733  -0.055241  -0.015585   0.517648
     2  C    0.448653   5.317749   0.337713  -0.024574  -0.068258  -0.005518
     3  C    0.015733   0.337713   4.779918   0.472322  -0.003230  -0.062067
     4  C   -0.055241  -0.024574   0.472322   4.801977   0.522937  -0.010655
     5  C   -0.015585  -0.068258  -0.003230   0.522937   4.749076   0.486643
     6  C    0.517648  -0.005518  -0.062067  -0.010655   0.486643   4.750669
     7  H    0.399609  -0.035653   0.007961  -0.000555   0.007716  -0.039723
     8  H   -0.001056   0.012063  -0.038201   0.395018  -0.042716   0.007866
     9  H    0.009113  -0.000986   0.008600  -0.038939   0.404020  -0.045730
    10  H   -0.042373   0.009212  -0.000489   0.008009  -0.042132   0.405521
    11  N    0.008643  -0.065932   0.507375  -0.041643   0.003164  -0.000269
    12  S   -0.075321   0.339107  -0.099572   0.007899   0.000240   0.004134
    13  C   -0.000206   0.003474   0.006212  -0.000482   0.000007   0.000006
    14  C   -0.000020   0.000072   0.000484   0.000008  -0.000000  -0.000000
    15  C    0.000009  -0.000025  -0.001328  -0.000002  -0.000000  -0.000000
    16  C    0.000000  -0.000012   0.000008  -0.000000   0.000000  -0.000000
    17  H   -0.000014   0.000265  -0.000014   0.000000   0.000000   0.000000
    18  C    0.000000   0.000009  -0.000032  -0.000000  -0.000000  -0.000000
    19  C   -0.000000   0.000000   0.000002   0.000000   0.000000   0.000000
    20  H   -0.000000  -0.000000  -0.000000  -0.000000  -0.000000  -0.000000
    21  H   -0.000000  -0.000000   0.000000   0.000000  -0.000000   0.000000
    22  H    0.000000  -0.000000  -0.000000  -0.000000   0.000000  -0.000000
    23  C    0.005060  -0.055817  -0.129298  -0.001530   0.000307  -0.000219
    24  O    0.000001  -0.000025  -0.001595  -0.000024   0.000000  -0.000000
    25  H   -0.000060   0.001754  -0.002218  -0.000200  -0.000016   0.000008
               7          8          9         10         11         12
     1  C    0.399609  -0.001056   0.009113  -0.042373   0.008643  -0.075321
     2  C   -0.035653   0.012063  -0.000986   0.009212  -0.065932   0.339107
     3  C    0.007961  -0.038201   0.008600  -0.000489   0.507375  -0.099572
     4  C   -0.000555   0.395018  -0.038939   0.008009  -0.041643   0.007899
     5  C    0.007716  -0.042716   0.404020  -0.042132   0.003164   0.000240
     6  C   -0.039723   0.007866  -0.045730   0.405521  -0.000269   0.004134
     7  H    0.658278   0.000033  -0.000162  -0.010642  -0.000091  -0.007825
     8  H    0.000033   0.658569  -0.012701  -0.000101  -0.000960  -0.000112
     9  H   -0.000162  -0.012701   0.666187  -0.011776  -0.000080   0.000017
    10  H   -0.010642  -0.000101  -0.011776   0.661622   0.000000  -0.000180
    11  N   -0.000091  -0.000960  -0.000080   0.000000   6.489251  -0.077773
    12  S   -0.007825  -0.000112   0.000017  -0.000180  -0.077773  15.516336
    13  C   -0.000003   0.000027  -0.000000  -0.000000  -0.015062  -0.061705
    14  C    0.000002   0.000001   0.000000  -0.000000   0.003915  -0.016105
    15  C   -0.000000  -0.000020   0.000000   0.000000  -0.025090   0.006391
    16  C    0.000000   0.000000  -0.000000  -0.000000  -0.000059   0.000584
    17  H    0.000001   0.000000   0.000000  -0.000000   0.000209   0.009544
    18  C    0.000000  -0.000000   0.000000  -0.000000  -0.000576  -0.000241
    19  C   -0.000000   0.000000  -0.000000  -0.000000   0.000027   0.000024
    20  H    0.000000   0.000000   0.000000   0.000000   0.000001   0.000021
    21  H   -0.000000   0.000000  -0.000000   0.000000   0.000004   0.000004
    22  H    0.000000  -0.000000  -0.000000  -0.000000  -0.000000  -0.000000
    23  C    0.000146  -0.000888   0.000007   0.000005   0.538998   0.298974
    24  O   -0.000000  -0.000060   0.000000  -0.000000  -0.040775  -0.000092
    25  H    0.000001   0.000767  -0.000002   0.000000   0.069531   0.002915
              13         14         15         16         17         18
     1  C   -0.000206  -0.000020   0.000009   0.000000  -0.000014   0.000000
     2  C    0.003474   0.000072  -0.000025  -0.000012   0.000265   0.000009
     3  C    0.006212   0.000484  -0.001328   0.000008  -0.000014  -0.000032
     4  C   -0.000482   0.000008  -0.000002  -0.000000   0.000000  -0.000000
     5  C    0.000007  -0.000000  -0.000000   0.000000   0.000000  -0.000000
     6  C    0.000006  -0.000000  -0.000000  -0.000000   0.000000  -0.000000
     7  H   -0.000003   0.000002  -0.000000   0.000000   0.000001   0.000000
     8  H    0.000027   0.000001  -0.000020   0.000000   0.000000  -0.000000
     9  H   -0.000000   0.000000   0.000000  -0.000000   0.000000   0.000000
    10  H   -0.000000  -0.000000   0.000000  -0.000000  -0.000000  -0.000000
    11  N   -0.015062   0.003915  -0.025090  -0.000059   0.000209  -0.000576
    12  S   -0.061705  -0.016105   0.006391   0.000584   0.009544  -0.000241
    13  C    5.317163   0.489365   0.274367  -0.013768  -0.032774  -0.068104
    14  C    0.489365   4.826847  -0.018886   0.531442   0.398241  -0.052654
    15  C    0.274367  -0.018886   4.849073  -0.056320   0.006354   0.474457
    16  C   -0.013768   0.531442  -0.056320   4.730550  -0.032926  -0.017960
    17  H   -0.032774   0.398241   0.006354  -0.032926   0.646717  -0.000591
    18  C   -0.068104  -0.052654   0.474457  -0.017960  -0.000591   4.843713
    19  C   -0.050350  -0.022432  -0.010696   0.493885   0.007592   0.516305
    20  H    0.008537  -0.034518  -0.000250   0.401523  -0.011568   0.007868
    21  H    0.011852  -0.000450  -0.025035   0.006754   0.000037   0.381038
    22  H   -0.001220   0.009432   0.008776  -0.042199  -0.000156  -0.042124
    23  C    0.328614  -0.082872  -0.075652   0.006724  -0.023565   0.008113
    24  O   -0.095863   0.003862   0.527284  -0.000037  -0.000052  -0.051723
    25  H   -0.044020  -0.001335   0.003310   0.000014   0.000005   0.007007
              19         20         21         22         23         24
     1  C   -0.000000  -0.000000  -0.000000   0.000000   0.005060   0.000001
     2  C    0.000000  -0.000000  -0.000000  -0.000000  -0.055817  -0.000025
     3  C    0.000002  -0.000000   0.000000  -0.000000  -0.129298  -0.001595
     4  C    0.000000  -0.000000   0.000000  -0.000000  -0.001530  -0.000024
     5  C    0.000000  -0.000000  -0.000000   0.000000   0.000307   0.000000
     6  C    0.000000  -0.000000   0.000000  -0.000000  -0.000219  -0.000000
     7  H   -0.000000   0.000000  -0.000000   0.000000   0.000146  -0.000000
     8  H    0.000000   0.000000   0.000000  -0.000000  -0.000888  -0.000060
     9  H   -0.000000   0.000000  -0.000000  -0.000000   0.000007   0.000000
    10  H   -0.000000   0.000000   0.000000  -0.000000   0.000005  -0.000000
    11  N    0.000027   0.000001   0.000004  -0.000000   0.538998  -0.040775
    12  S    0.000024   0.000021   0.000004  -0.000000   0.298974  -0.000092
    13  C   -0.050350   0.008537   0.011852  -0.001220   0.328614  -0.095863
    14  C   -0.022432  -0.034518  -0.000450   0.009432  -0.082872   0.003862
    15  C   -0.010696  -0.000250  -0.025035   0.008776  -0.075652   0.527284
    16  C    0.493885   0.401523   0.006754  -0.042199   0.006724  -0.000037
    17  H    0.007592  -0.011568   0.000037  -0.000156  -0.023565  -0.000052
    18  C    0.516305   0.007868   0.381038  -0.042124   0.008113  -0.051723
    19  C    4.728866  -0.045126  -0.041703   0.406185   0.001010   0.002242
    20  H   -0.045126   0.667863  -0.000118  -0.011337  -0.000357   0.000003
    21  H   -0.041703  -0.000118   0.648832  -0.011534  -0.000410   0.001721
    22  H    0.406185  -0.011337  -0.011534   0.654677  -0.000013  -0.000043
    23  C    0.001010  -0.000357  -0.000410  -0.000013   5.094751  -0.000684
    24  O    0.002242   0.000003   0.001721  -0.000043  -0.000684   7.289034
    25  H   -0.000042  -0.000001   0.000093   0.000006   0.002698   0.409788
              25
     1  C   -0.000060
     2  C    0.001754
     3  C   -0.002218
     4  C   -0.000200
     5  C   -0.000016
     6  C    0.000008
     7  H    0.000001
     8  H    0.000767
     9  H   -0.000002
    10  H    0.000000
    11  N    0.069531
    12  S    0.002915
    13  C   -0.044020
    14  C   -0.001335
    15  C    0.003310
    16  C    0.000014
    17  H    0.000005
    18  C    0.007007
    19  C   -0.000042
    20  H   -0.000001
    21  H    0.000093
    22  H    0.000006
    23  C    0.002698
    24  O    0.409788
    25  H    0.521773
 Mulliken charges:
               1
     1  C    0.013195
     2  C   -0.213271
     3  C    0.201717
     4  C   -0.034325
     5  C   -0.002174
     6  C   -0.008316
     7  H    0.020908
     8  H    0.022472
     9  H    0.022430
    10  H    0.023325
    11  N   -0.352804
    12  S    0.152734
    13  C   -0.056065
    14  C   -0.034398
    15  C    0.063283
    16  C   -0.008204
    17  H    0.032694
    18  C   -0.004504
    19  C    0.014213
    20  H    0.017460
    21  H    0.028916
    22  H    0.029550
    23  C    0.085898
    24  O   -0.042960
    25  H    0.028225
 Sum of Mulliken charges =  -0.00000
 Mulliken charges with hydrogens summed into heavy atoms:
               1
     1  C    0.034103
     2  C   -0.213271
     3  C    0.201717
     4  C   -0.011853
     5  C    0.020257
     6  C    0.015009
    11  N   -0.352804
    12  S    0.152734
    13  C   -0.056065
    14  C   -0.001704
    15  C    0.063283
    16  C    0.009256
    18  C    0.024412
    19  C    0.043763
    23  C    0.085898
    24  O   -0.014736
 Electronic spatial extent (au):  <R**2>=           4326.7224
 Charge=             -0.0000 electrons
 Dipole moment (field-independent basis, Debye):
    X=             -1.1859    Y=             -1.6535    Z=              0.0000  Tot=              2.0348
 Quadrupole moment (field-independent basis, Debye-Ang):
   XX=            -82.9780   YY=            -88.1258   ZZ=           -104.4045
   XY=             -7.2783   XZ=             -0.0001   YZ=             -0.0001
 Traceless Quadrupole moment (field-independent basis, Debye-Ang):
   XX=              8.8581   YY=              3.7103   ZZ=            -12.5684
   XY=             -7.2783   XZ=             -0.0001   YZ=             -0.0001
 Octapole moment (field-independent basis, Debye-Ang**2):
  XXX=             -0.4673  YYY=            -12.5258  ZZZ=              0.0001  XYY=             -9.6741
  XXY=              6.8878  XXZ=              0.0002  XZZ=              0.7096  YZZ=              4.7349
  YYZ=              0.0001  XYZ=             -0.0003
 Hexadecapole moment (field-independent basis, Debye-Ang**3):
[...]
 2842,-0.00000018,-0.00419760,0.00360023,0.00000128,-0.00228928,-0.0278
 6702,-0.00000160,-0.07613937,-0.07214764,0.00000186,-0.00584184,0.0019
 4722,0.00000167,0.00963059,0.02298648,0.00000051,0.08081256,0.00029719
 ,-0.00016729,0.00000009,-0.00058807,0.00042398,-0.00000043,0.00005366,
 0.00084484,0.00000023,0.00054417,-0.00005353,0.00000008,0.00012192,0.0
 0069109,0.00000004,-0.00053880,-0.00039436,-0.00000006,-0.00002291,0.0
 0001489,-0.00000001,0.00002819,-0.00002194,0.00000003,-0.00000952,0.00
 000848,0.,0.00001271,0.00000475,-0.00000002,0.00094727,-0.00015835,-0.
 00000011,0.00348691,-0.00307615,-0.00000087,0.00274722,-0.00418220,-0.
 00000023,-0.07257125,-0.32713793,-0.00000645,-0.00093051,0.00186397,-0
 .00000018,-0.00849967,-0.01681663,0.00000029,0.07135772,0.34888794,-0.
 00000004,-0.00000007,-0.00001926,-0.00000022,-0.00000026,-0.00044668,-
 0.00000038,0.00000077,0.00014127,0.00000037,-0.00000019,0.00009091,0.0
 0000007,0.00000039,0.00000429,-0.00000021,-0.00000012,0.00002126,0.,0.
 00000002,0.00001442,-0.00000002,-0.00000001,0.00004171,-0.00000001,0.,
 0.00001042,0.,0.,-0.00003580,0.00000075,-0.00000042,-0.00135602,0.0000
 0102,-0.00000122,0.00137753,0.00000336,0.00000311,0.00169231,-0.000001
 41,-0.00000381,-0.02896632,0.,-0.00000035,0.00514803,-0.00000027,-0.00
 000609,0.00313276,-0.00000432,0.00000811,0.01872378,-0.00284834,0.0029
 3694,-0.00000054,0.00375179,-0.00091108,0.00000091,-0.00043462,0.00241
 860,0.00000139,0.00076003,0.00017288,-0.00000026,-0.00071245,-0.002589
 24,-0.00000035,0.00443305,0.00063334,0.00000053,-0.00016067,-0.0000050
 1,-0.00000001,0.00021008,0.00006172,0.00000012,0.00016192,-0.00006746,
 0.00000003,0.00012533,-0.00006440,0.00000006,0.00456286,0.00574732,-0.
 00000263,-0.00215173,0.00061620,-0.00000068,0.00863669,0.02547457,0.00
 000334,-0.01396086,0.02079245,0.00000552,-0.20018316,0.08051236,0.0000
 3143,-0.00208553,-0.05373305,-0.00000424,-0.00008220,0.00036613,-0.000
 00013,0.69929205,0.00038755,-0.00088148,-0.00000012,-0.00505138,-0.003
 36952,-0.00000081,-0.00215603,0.00800718,0.00000014,0.00299318,-0.0009
 6628,0.00000052,0.00072468,0.00310391,0.00000022,-0.00182772,-0.001652
 57,-0.00000027,0.00002240,0.00012219,0.,-0.00014024,-0.00007444,-0.000
 00003,-0.00005088,0.00002297,-0.00000003,-0.00000243,0.00000173,0.0000
 0002,0.00940899,-0.00374891,0.00000112,0.00112282,-0.00629773,0.000000
 35,0.03028070,-0.03278270,-0.00000671,-0.00833044,0.00369840,0.0000012
 8,0.12144004,-0.24537364,-0.00003796,-0.03177501,-0.01872634,0.0000016
 5,-0.00050602,0.00006821,-0.00000018,0.03522669,0.73714202,0.00000026,
 -0.00000090,0.00025559,-0.00000335,-0.00000197,0.00072029,-0.00000176,
 0.00000431,0.00132502,0.00000191,-0.00000048,-0.00033020,0.00000036,0.
 00000213,-0.00005042,-0.00000136,-0.00000127,-0.00008897,0.00000003,0.
 00000005,0.00006474,-0.00000012,-0.00000005,0.00005314,-0.00000004,0.0
 0000002,0.00003053,-0.00000003,0.00000002,-0.00007492,0.00000364,-0.00
 000592,-0.00294698,0.00000085,-0.00000241,-0.00044043,0.00000620,-0.00
 000591,0.01120363,-0.00000120,-0.00000161,-0.00168224,0.00002884,-0.00
 002842,-0.06528509,-0.00000129,0.00000253,0.00540670,-0.00000020,-0.00
 000011,-0.00058019,-0.00008717,0.00004754,0.11346550,0.00244513,-0.001
 56754,0.00000053,0.00109701,0.00325795,0.00000003,0.00537271,-0.011336
 22,-0.00000144,-0.00499936,0.00151615,-0.00000041,0.00028752,-0.001524
 08,0.00000012,-0.00204579,0.00123269,-0.00000020,0.00010043,-0.0000240
 9,0.00000002,-0.00005859,0.00000297,-0.00000009,-0.00011599,0.00002126
 ,0.,-0.00006508,0.00006391,-0.00000004,-0.01379386,0.00457730,-0.00000
 132,0.00285687,0.00220407,0.00000046,-0.00905338,-0.02143976,-0.000003
 28,0.03810421,0.00551161,-0.00000459,-0.04905582,0.02876421,0.00001207
 ,-0.13205723,-0.01688833,0.00000546,-0.00338023,0.00424452,0.00000216,
 -0.34684583,-0.08929041,0.00002949,0.71974001,0.00150177,-0.00215016,0
 .00000020,-0.00745580,-0.00290305,-0.00000147,-0.00196722,0.01004443,-
 0.00000026,0.00398551,-0.00150248,0.00000069,0.00091820,0.00526134,0.0
 0000039,-0.00385136,-0.00302863,-0.00000057,0.00007644,0.00013441,0.,-
 0.00019003,-0.00016206,-0.00000006,-0.00009681,0.00005153,-0.00000005,
 -0.00007883,0.00005617,-0.00000002,0.00944401,-0.00435385,0.00000162,-
 0.00073118,-0.00470324,0.00000116,-0.00706214,-0.01670032,-0.00000083,
 0.02913662,-0.05774787,-0.00001164,0.00498857,0.03948825,0.00000331,-0
 .07500537,-0.30504578,-0.00001689,0.00294517,-0.00084994,-0.00000071,-
 0.04357066,-0.14097774,-0.00000006,-0.03468249,0.67794411,-0.00000037,
 0.00000016,0.00010336,-0.00000049,-0.00000064,-0.00049826,-0.00000071,
 0.00000217,-0.00080862,0.00000097,-0.00000035,0.00008477,0.00000008,0.
 00000056,0.00007374,0.00000009,-0.00000028,0.00000698,0.,0.00000002,-0
 .00003145,0.00000001,0.,-0.00011138,0.,0.,0.00000030,0.,0.,0.00002407,
 0.00000263,-0.00000041,0.00097919,-0.00000044,-0.00000056,0.00074992,-
 0.00000064,0.00000237,-0.00466739,-0.00000100,-0.00000776,0.00943768,0
 .00000803,-0.00000302,0.00141790,0.00000123,-0.00002388,-0.06090594,0.
 00000147,-0.00000044,0.00616994,0.00002948,0.00000354,-0.05075145,-0.0
 0007678,0.00006193,0.11931427,0.00004138,-0.00008839,0.,-0.00008871,0.
 00009332,0.,0.00003076,-0.00013581,0.00000006,-0.00002137,0.00004191,0
 .00000002,0.00002824,0.00008395,0.,-0.00014894,0.00001537,-0.00000001,
 0.00000796,0.00000838,0.,-0.00000710,-0.00000630,0.,-0.00001341,0.0000
 0777,0.,-0.00000889,0.00000638,0.,-0.00026156,0.00044805,-0.00000013,0
 .00007769,-0.00009094,-0.00000003,-0.00060780,0.00359968,0.00000107,-0
 .01547898,-0.00980926,0.00000198,0.00052082,0.00031230,-0.00000011,-0.
 32513639,-0.07712219,0.00002981,0.00074193,0.00007604,-0.00000043,0.00
 163463,-0.00090034,0.00000040,-0.00262072,0.00181114,0.00000124,0.3416
 6929,-0.00001158,0.00000214,0.,-0.00008337,-0.00012128,0.,-0.00000340,
 0.00024440,-0.00000005,0.00008332,-0.00006967,-0.00000001,0.00002330,0
 .00006456,0.00000002,-0.00001574,-0.00002290,0.,0.00000159,0.00000054,
 0.,-0.00000271,-0.00000072,0.,-0.00000021,-0.00000251,0.,0.00000083,-0
 .00000057,0.,0.00042007,-0.00040144,0.00000009,0.00004473,-0.00002891,
 0.,0.00363173,-0.00289426,-0.00000121,0.02124452,0.00970902,-0.0000027
 6,0.00061089,-0.00121460,-0.00000014,-0.07789152,-0.08122485,0.0000057
 7,-0.00006282,0.00089402,0.00000030,-0.00005773,-0.00548478,-0.0000010
 8,-0.02973763,-0.00286457,0.00000290,0.08257401,0.08130127,0.00000004,
 0.,-0.00006116,0.00000001,0.,0.00006273,-0.00000002,-0.00000003,0.0004
 6392,-0.00000008,0.00000001,0.00016098,-0.00000001,-0.00000004,-0.0000
 7059,0.00000002,-0.00000003,0.00002077,0.,0.,0.00000720,0.,0.,0.000039
 07,0.00000001,0.,-0.00003408,0.,0.,0.00000307,0.00000032,0.00000011,-0
 .00093016,-0.00000014,-0.00000008,-0.00012105,0.00000142,-0.00000131,0
 .00752182,0.00000422,0.00000255,0.00610998,0.00000029,0.00000004,-0.00
 095904,0.00003022,0.00000558,-0.03808501,-0.00000045,-0.00000002,-0.00
 429530,0.00000027,-0.00000126,0.00479771,-0.00000228,-0.00000138,0.004
 68695,-0.00003333,-0.00000456,0.02422586,-0.00013720,0.00006489,-0.000
 00003,0.00014004,0.00003594,-0.00000003,-0.00014222,0.00011293,0.00000
 004,0.00006240,-0.00001377,0.00000001,-0.00002196,-0.00002371,0.,0.000
 10059,0.00001013,0.00000002,-0.00000029,-0.00000541,0.,-0.00000246,0.0
 0000183,0.,0.00000255,-0.00000066,0.,-0.00000263,-0.00000146,0.,0.0003
 3671,-0.00029012,0.00000028,-0.00032191,0.00022369,-0.00000010,-0.0044
 0770,0.00268062,0.00000176,-0.00006876,0.00023593,0.00000002,0.0084650
 4,0.02367728,0.00000111,-0.00552346,-0.00017560,0.00000160,0.00013737,
 -0.00005768,-0.00000011,-0.07417652,-0.06969219,0.00000094,-0.00075010
 ,-0.02887991,-0.00000159,-0.00023205,-0.00141728,-0.00000020,0.0724694
 0,0.00010663,0.00001480,0.00000003,0.00001526,0.00008977,0.00000004,0.
 00015420,-0.00024120,0.,-0.00012334,0.00003010,-0.00000003,-0.00003425
 ,-0.00012680,0.,0.00005536,0.00001242,0.,-0.00000635,-0.00000357,0.,0.
 00001283,0.00000464,0.,0.00001048,-0.00000370,0.,0.00000838,-0.0000032
 8,0.,-0.00042624,0.00031103,-0.00000019,0.00019703,-0.00001260,0.00000
 007,0.00351052,-0.00041151,-0.00000103,0.00034927,0.00020844,-0.000000
 03,-0.00966295,-0.01667051,0.00000003,-0.00115878,0.00161676,0.0000000
 8,-0.00003456,-0.00009097,0.00000007,-0.06741566,-0.33207481,-0.000012
 76,0.00157756,-0.00295736,-0.00000050,0.00005522,-0.00023632,-0.000000
 09,0.07403661,0.34896024,0.00000017,-0.00000001,-0.00028643,0.00000028
 ,0.00000027,-0.00006509,0.00000032,-0.00000084,0.00026062,-0.00000038,
 0.00000012,-0.00001012,-0.00000004,-0.00000023,-0.00004088,0.,0.000000
 11,0.00003731,0.,0.,-0.00000774,0.,0.,0.00004252,0.,0.,-0.00000199,0.,
 0.,0.00005047,-0.00000121,0.00000030,-0.00015711,0.00000015,0.00000024
 ,-0.00013681,0.00000174,-0.00000193,0.00489322,0.00000084,-0.00000023,
 -0.00069012,-0.00000171,-0.00000300,0.00361690,0.00000108,0.00000059,0
 .00680231,-0.00000009,0.00000002,-0.00067368,0.00000369,-0.00001210,-0
 .03280309,-0.00000104,0.00000242,0.00288638,0.00000002,0.00000018,-0.0
 0004262,-0.00000136,0.00001336,0.02323393,0.00004797,-0.00011130,0.,-0
 .00039966,-0.00011559,-0.00000002,-0.00011280,0.00059152,0.00000007,0.
 00027091,-0.00009367,0.00000002,0.00005711,0.00031694,0.00000002,-0.00
 021952,-0.00012985,-0.00000003,0.00000478,0.00001155,0.,-0.00000961,-0
 .00001103,0.,-0.00001096,0.00000599,0.,-0.00000648,0.00000417,0.,0.000
 60856,-0.00006234,-0.00000019,-0.00002512,-0.00020365,0.00000001,0.000
 67237,-0.00050145,-0.00000010,-0.00042236,-0.00196738,0.00000023,-0.00
 369999,-0.00321200,0.00000101,0.00867819,-0.00832264,-0.00000146,0.000
 26929,-0.00036601,0.00000002,-0.01447739,0.02174324,0.00000378,-0.2127
 5975,0.14510236,0.00003593,0.00064972,0.00035105,-0.00000037,0.0010671
 3,-0.00014661,-0.00000074,0.22174957,0.00006073,0.00004626,0.00000002,
 0.00023964,0.00026686,0.00000001,0.00035710,-0.00070688,-0.00000002,-0
 .00032793,0.00013019,-0.00000004,-0.00003040,-0.00027469,-0.00000001,0
 .00011215,0.00009534,0.00000002,-0.00000810,-0.00000812,0.,0.00001358,
 0.00000711,0.,0.00000841,-0.00000483,0.,0.00000814,-0.00000280,0.,-0.0
 0073221,0.00041179,-0.00000017,-0.00000890,0.00024920,0.00000004,-0.00
 140158,-0.00010603,0.00000027,-0.00238643,-0.00470160,-0.00000064,-0.0
 0221732,-0.00042012,-0.00000050,0.02401330,-0.01400030,-0.00000442,0.0
 0112667,-0.00090449,-0.00000027,-0.00965984,0.00959273,0.00000119,0.14
 532941,-0.19374036,-0.00003406,-0.00013385,0.00100510,0.00000031,0.000
 31237,0.00064480,0.00000044,-0.15458040,0.20219534,0.00000015,-0.00000
 004,0.00005778,0.00000025,0.00000040,0.00007429,0.00000023,-0.00000069
 ,-0.00009326,-0.00000028,0.00000005,0.00000233,-0.00000004,-0.00000018
 ,0.00001286,-0.00000002,0.00000013,-0.00000716,0.,0.,0.00000730,0.,0.,
 0.00002984,0.,0.,0.00000460,0.,0.,-0.00003580,-0.00000066,0.00000070,0
 .00026210,-0.00000006,0.00000033,-0.00025620,-0.00000066,0.00000067,-0
 .00149492,-0.00000018,-0.00000053,0.00412901,0.00000148,-0.00000062,0.
 00695493,0.00000160,-0.00000145,0.00333170,0.00000026,-0.00000026,0.00
 076386,0.00000213,-0.00000118,0.00436763,0.00003583,-0.00003450,-0.032
 97581,-0.00000053,0.00000029,-0.00287875,-0.00000063,0.00000020,-0.004
 00038,-0.00003900,0.00003730,0.02214045,-0.01067509,-0.00070244,-0.000
 00115,-0.00598688,0.00909655,0.00000027,-0.09426124,0.06381002,-0.0000
 1069,0.02401791,-0.00934328,0.00000225,0.00090131,0.01465407,0.0000005
 1,-0.00468725,-0.00124456,-0.00000078,0.00027985,-0.00051170,0.0000001
 2,-0.00046833,-0.00009876,-0.00000011,-0.00023646,0.00025814,0.0000000
 8,-0.00058769,-0.00006871,-0.00000002,-0.27933582,-0.04263238,-0.00003
 073,-0.05345375,-0.04064430,-0.00000337,-0.22050786,0.13974993,0.00001
 011,-0.05557383,0.03773757,0.00000665,0.00656531,0.00532826,0.00000036
 ,0.00326223,-0.01527273,-0.00000126,0.00009972,-0.00093203,-0.00000076
 ,0.00101084,-0.01597433,-0.00000240,0.00495850,-0.00500799,-0.00000123
 ,-0.00074263,0.00043317,0.00000024,0.00086273,-0.00047802,0.00000048,-
 0.00054674,0.00064330,0.00000048,0.67576095,-0.00823432,0.00985570,0.0
 0000015,0.04988364,-0.02826987,0.00000523,0.02843967,-0.01449782,0.000
 00165,-0.00106689,-0.00618912,-0.00000070,-0.00140272,-0.00743999,-0.0
 0000034,0.01119457,0.00335782,0.00000120,-0.00031418,-0.00081360,0.000
 00002,0.00023513,0.00043782,-0.00000012,0.00042344,-0.00060294,0.00000
 012,0.00008397,-0.00008579,-0.00000007,-0.04924229,-0.09004279,-0.0000
 0555,-0.02928718,-0.12560656,-0.00000656,0.11767388,-0.23126068,-0.000
 00810,0.01751187,0.01431088,-0.00000055,0.03735572,-0.04069669,-0.0000
 0284,-0.00625537,-0.00404985,0.00000016,-0.00188163,0.00052437,0.00000
 046,-0.01769382,0.00513110,0.00000436,0.00687126,0.01089851,-0.0000008
 3,-0.00079731,0.00106742,0.00000041,0.00048681,-0.00061474,0.,0.000497
 11,-0.00010572,-0.00000028,-0.13951385,0.51380516,-0.00000163,0.000000
 81,0.00278992,0.00000131,-0.00000008,-0.00325268,-0.00000995,0.0000078
 9,0.00344250,0.00000211,-0.00000166,0.00584008,-0.00000023,0.00000090,
 0.00095209,0.00000019,-0.00000021,0.00108550,0.,-0.00000005,-0.0005041
 0,0.00000005,0.00000008,-0.00077941,0.00000016,0.00000005,-0.00090654,
 0.00000004,-0.00000002,-0.00039449,-0.00002378,-0.00000522,-0.03875203
 ,-0.00000487,-0.00000881,-0.02042849,-0.00000549,0.00000152,-0.0415715
 8,0.00000604,0.00000098,0.00820333,0.00000592,-0.00000869,0.00736098,-
 0.00000008,-0.00000035,0.00137951,0.00000031,0.00000013,-0.00033056,-0
 .00000658,0.00000049,0.00029047,0.00000550,0.00000077,-0.00094483,-0.0
 0000001,0.00000012,-0.00049856,-0.00000008,-0.00000020,0.00119798,0.,0
 .00000004,0.00022521,0.00003115,0.00000816,0.07544176,0.00103062,0.003
 11341,0.00000053,0.01138840,0.01092421,0.00000321,0.01606789,-0.020741
 48,-0.00000045,-0.01004887,0.00350844,-0.00000225,-0.00234335,-0.01043
 278,-0.00000076,0.00581586,0.00438166,0.00000076,-0.00029991,-0.000065
 75,-0.00000001,0.00056814,0.00016256,0.00000010,0.00021025,-0.00006023
 ,0.00000017,0.00012374,-0.00000369,0.,-0.02311766,0.04083006,-0.000018
 81,0.00021670,0.01184515,-0.00000098,-0.04939298,-0.02124862,0.0000104
 3,0.02748346,-0.00880390,-0.00000262,-0.36839602,-0.10626236,0.0000721
 6,-0.01116147,0.01089943,0.00000129,-0.00019181,0.00015434,0.00000064,
 -0.07019621,0.00852788,0.00002305,0.00386169,0.00952846,0.00000113,-0.
 00009957,-0.00011633,-0.00000021,0.00231646,-0.00075999,-0.00000206,-0
 .00116442,-0.00073441,-0.00000035,0.00843532,-0.01117904,-0.00000422,0
 .57073179,-0.00034375,-0.00106633,-0.00000012,-0.00088002,-0.00354380,
 -0.00000152,-0.01015372,0.00103826,0.00000072,0.00110010,-0.00067200,0
 .00000074,0.00017578,0.00127292,0.00000011,-0.00071079,-0.00095869,-0.
 00000002,0.00011579,-0.00028205,-0.00000007,0.00002927,0.00012486,0.,0
 .00013070,-0.00008896,-0.00000004,0.00002790,-0.00006371,-0.00000001,0
 .01773963,-0.03741619,0.00001619,0.00070762,-0.00117996,0.00000063,-0.
 04251012,-0.01192597,0.00000472,-0.00037837,-0.00812164,0.00000002,-0.
 06924366,-0.14266806,-0.00000254,-0.00083479,0.00066283,0.00000063,-0.
 00200190,-0.00046896,0.00000002,0.03801783,0.02178297,-0.00000314,-0.0
 0008221,-0.00882265,0.00000004,-0.00009053,0.00039562,-0.00000006,-0.0
 0162618,0.00175026,0.00000017,0.00147058,0.00068886,-0.00000027,0.0077
 6176,0.00768330,0.00000076,-0.03174169,0.42193645,-0.00000043,-0.00000
 004,0.00037077,-0.00000017,-0.00000103,-0.00052208,-0.00000355,0.00000
 216,-0.00023238,0.00000117,-0.00000075,0.00022025,0.00000048,0.0000012
 1,0.00013914,-0.00000066,0.00000011,0.00002008,0.00000006,0.,-0.000046
 86,0.,0.,-0.00012705,-0.00000005,0.,-0.00002135,0.00000001,-0.00000001
 ,-0.00008230,0.00000178,-0.00000014,0.00802024,-0.00000053,-0.00000088
 ,-0.00058776,0.00000990,0.00000267,0.01488865,-0.00000351,0.00000133,0
 .00234283,0.00009035,0.00001082,-0.04466717,0.00000199,-0.00000140,-0.
 00066020,0.00000002,0.00000033,-0.00081447,0.00002171,0.00000366,0.007
 46646,0.00000073,-0.00000319,0.00430250,0.00000006,0.00000011,-0.00012
 077,-0.00000160,0.00000092,-0.00349644,0.00000087,0.00000033,0.0001286
 6,-0.00000171,-0.00000230,-0.00266568,-0.00018847,0.00010755,0.0422117
 3,-0.00081660,-0.00096475,-0.00000037,-0.00428627,-0.00424074,-0.00000
 141,-0.00806509,0.00983521,-0.00000020,0.00432659,-0.00150835,0.000001
 14,0.00073445,0.00380803,0.00000032,-0.00176515,-0.00154137,-0.0000002
 4,0.00013729,-0.00003471,0.00000005,-0.00036037,-0.00002591,-0.0000001
 2,-0.00002702,0.00000542,-0.00000008,-0.00003454,-0.00004496,0.0000000
 2,-0.00204648,-0.01606657,0.00001397,-0.00163366,-0.00545634,-0.000000
 62,0.00753808,0.00141845,-0.00000202,-0.00710870,0.00216626,0.00000054
 ,-0.05231490,0.03024885,0.00002543,0.00175361,-0.00232794,-0.00000032,
 0.00039363,0.00007847,-0.00000007,0.00373622,-0.00618073,-0.00000085,-
 0.00122234,-0.00085845,0.00000095,0.00006570,-0.00001889,0.00000004,-0
 .00017317,0.00015738,-0.00000013,-0.00022081,-0.00000342,-0.00000003,0
 .00090890,-0.00378846,0.00000413,-0.11183804,0.09332077,0.00007156,0.1
 7231868,0.00242999,0.00128867,0.00000115,0.00619374,0.01082669,0.00000
 312,0.02141021,-0.01649282,-0.00000476,-0.00834955,0.00386408,-0.00000
 193,-0.00162580,-0.00716559,-0.00000045,0.00247590,0.00311114,0.000000
 29,-0.00024978,0.00026739,-0.00000004,0.00024307,-0.00010274,-0.000000
 10,-0.00007600,0.00010307,0.00000009,-0.00002129,0.00011097,0.,-0.0276
 0163,0.02335794,-0.00002384,0.00172596,0.00931230,0.00000027,-0.018488
 10,-0.00129346,0.00000213,0.01499195,-0.00369456,-0.00000112,0.0230843
 9,0.02067167,0.00000154,-0.00350234,0.00558309,0.00000031,-0.00015503,
 0.00009621,0.00000044,-0.01720906,0.00373752,0.00000394,0.00139790,0.0
 0463130,-0.00000093,0.00004139,-0.00011672,-0.00000014,0.00030495,-0.0
 0019588,0.00000012,-0.00027059,-0.00035765,-0.00000008,-0.00704769,-0.
 01679593,0.00000261,0.10827468,-0.24005736,-0.00012147,-0.09797726,0.1
 9931068,-0.00000037,-0.00000089,0.00008540,0.00000027,-0.00000183,0.00
 071400,-0.00000320,-0.00000464,-0.00200490,-0.00000086,0.00000013,-0.0
 0039186,0.00000041,-0.00000025,-0.00002779,-0.00000029,0.00000023,-0.0
 0003327,0.00000013,-0.00000020,-0.00001627,-0.00000014,0.00000014,0.00
 003668,0.00000003,-0.00000008,0.00004092,0.00000002,-0.00000002,0.0000
 4430,0.00000949,0.00000257,-0.00923192,-0.00000096,-0.00000291,0.00061
 670,-0.00000122,0.00000009,-0.00397854,-0.00000179,-0.00000018,0.00018
 356,-0.00000072,-0.00001170,-0.00220453,0.00000097,-0.00000045,0.00007
 277,-0.00000024,-0.00000015,0.00018578,0.00000197,0.00000012,0.0055866
 0,-0.00000091,-0.00000088,0.00145719,-0.00000006,0.00000003,-0.0000029
 8,-0.00000003,0.00000005,-0.00060914,-0.00000006,0.00000019,-0.0007502
 7,0.00000153,0.00000633,0.00281961,0.00010772,-0.00012454,-0.02606681,
 -0.00011168,0.00013885,0.03347476\\-0.00153120,0.00066009,-0.00000044,
 0.00069450,0.00204117,-0.00000184,0.00233469,0.00038246,0.00000689,0.0
 0093292,-0.00130503,0.00000012,-0.00053296,-0.00277629,-0.00000037,-0.
 00160748,-0.00147424,-0.00000052,-0.00027455,0.00015488,0.00000017,0.0
 0023278,-0.00020950,0.00000004,-0.00005046,-0.00030874,0.,-0.00024546,
 -0.00017574,-0.00000002,0.00011533,0.00256336,0.00001251,0.00152635,0.
 00664667,0.00000108,-0.00017624,0.00119747,-0.00000509,0.00216479,-0.0
 0141449,0.00000211,0.00150534,0.00119061,0.00001097,-0.00043858,-0.001
 48169,-0.00000217,0.00024206,-0.00014585,0.00000086,-0.00211685,-0.000
 19016,-0.00000440,-0.00210676,-0.00208941,-0.00000099,-0.00000695,-0.0
 0028487,0.00000037,-0.00028374,0.00000869,0.00000062,-0.00026714,-0.00
 025731,0.00000085,0.00042799,0.00072206,-0.00000570,-0.00166195,0.0000
 5431,0.00002047,0.00112356,-0.00350846,-0.00003550\\\@
 The archive entry for this job was punched.


 PERICLES, SOPHOCLES,
 PELOPONESIAN WAR,
 FRENCH VERBS, LATIN VERBS
 H2SO4.
 Job cpu time:       0 days  2 hours 49 minutes 40.1 seconds.
 Elapsed time:       0 days  0 hours 17 minutes 27.0 seconds.
 File lengths (MBytes):  RWF=   1376 Int=      0 D2E=      0 Chk=     48 Scr=      8
 Normal termination of Gaussian 16 at Tue Jul 14 17:00:19 2020.
