 Entering Gaussian System, Link 0=g16
 Initial command:
 /gpfs/loomis/apps/avx/software/Gaussian/16-C.01_AVX/g16/l1.exe "/home/fas/batista/pev4/scratch60/gauss-scratch/Gau-34711.inp" -scrdir="/home/fas/batista/pev4/scratch60/gauss-scratch/"
 Entering Link 1 = /gpfs/loomis/apps/avx/software/Gaussian/16-C.01_AVX/g16/l1.exe PID=     34712.
  
 Copyright (c) 1988-2019, Gaussian, Inc.  All Rights Reserved.
  
 This is part of the Gaussian(R) 16 program.  It is based on
 the Gaussian(R) 09 system (copyright 2009, Gaussian, Inc.),
 the Gaussian(R) 03 system (copyright 2003, Gaussian, Inc.),
 the Gaussian(R) 98 system (copyright 1998, Gaussian, Inc.),
 the Gaussian(R) 94 system (copyright 1995, Gaussian, Inc.),
 the Gaussian 92(TM) system (copyright 1992, Gaussian, Inc.),
 the Gaussian 90(TM) system (copyright 1990, Gaussian, Inc.),
 the Gaussian 88(TM) system (copyright 1988, Gaussian, Inc.),
 the Gaussian 86(TM) system (copyright 1986, Carnegie Mellon
 University), and the Gaussian 82(TM) system (copyright 1983,
 Carnegie Mellon University). Gaussian is a federally registered
 trademark of Gaussian, Inc.
  
 This software contains proprietary and confidential information,
 including trade secrets, belonging to Gaussian, Inc.
  
 This software is provided under written license and may be
 used, copied, transmitted, or stored only in accord with that
 written license.
  
 The following legend is applicable only to US Government
 contracts under FAR:
  
                    RESTRICTED RIGHTS LEGEND
  
 Use, reproduction and disclosure by the US Government is
 subject to restrictions as set forth in subparagraphs (a)
 and (c) of the Commercial Computer Software - Restricted
 Rights clause in FAR 52.227-19.
  
 Gaussian, Inc.
 340 Quinnipiac St., Bldg. 40, Wallingford CT 06492
  
  
 ---------------------------------------------------------------
 Warning -- This program may not be used in any manner that
 competes with the business of Gaussian, Inc. or will provide
 assistance to any competitor of Gaussian, Inc.  The licensee
 of this program is prohibited from giving any competitor of
 Gaussian, Inc. access to this program.  By using this program,
 the user acknowledges that Gaussian, Inc. is engaged in the
 business of creating and licensing software in the field of
 computational chemistry and represents and warrants to the
 licensee that it is not a competitor of Gaussian, Inc. and that
 it will not use this program in any manner prohibited above.
 ---------------------------------------------------------------
  

 Cite this work as:
 Gaussian 16, Revision C.01,
 M. J. Frisch, G. W. Trucks, H. B. Schlegel, G. E. Scuseria, 
 M. A. Robb, J. R. Cheeseman, G. Scalmani, V. Barone, 
 G. A. Petersson, H. Nakatsuji, X. Li, M. Caricato, A. V. Marenich, 
 J. Bloino, B. G. Janesko, R. Gomperts, B. Mennucci, H. P. Hratchian, 
 J. V. Ortiz, A. F. Izmaylov, J. L. Sonnenberg, D. Williams-Young, 
 F. Ding, F. Lipparini, F. Egidi, J. Goings, B. Peng, A. Petrone, 
 T. Henderson, D. Ranasinghe, V. G. Zakrzewski, J. Gao, N. Rega, 
 G. Zheng, W. Liang, M. Hada, M. Ehara, K. Toyota, R. Fukuda, 
 J. Hasegawa, M. Ishida, T. Nakajima, Y. Honda, O. Kitao, H. Nakai, 
 T. Vreven, K. Throssell, J. A. Montgomery, Jr., J. E. Peralta, 
 F. Ogliaro, M. J. Bearpark, J. J. Heyd, E. N. Brothers, K. N. Kudin, 
 V. N. Staroverov, T. A. Keith, R. Kobayashi, J. Normand, 
 K. Raghavachari, A. P. Rendell, J. C. Burant, S. S. Iyengar, 
 J. Tomasi, M. Cossi, J. M. Millam, M. Klene, C. Adamo, R. Cammi, 
 J. W. Ochterski, R. L. Martin, K. Morokuma, O. Farkas, 
 J. B. Foresman, and D. J. Fox, Gaussian, Inc., Wallingford CT, 2019.
 
 ******************************************
 Gaussian 16:  ES64L-G16RevC.01  3-Jul-2019
                13-Jul-2020 
 ******************************************
 %chk=config_9_15.chk
 %mem=58GB
 %nprocshared=10
 Will use up to   10 processors via shared memory.
 ----------------------------------------------------------------------
 #p opt=addgic freq td wb97xd/cc-pvdz nosymm int=ultrafine scrf=(solven
 t=CarbonTetraChloride)
 ----------------------------------------------------------------------
 1/18=20,19=15,26=6,38=1,145=903/1,3;
 2/9=110,12=2,15=1,17=6,18=5,40=1/2;
 3/5=16,11=9,25=1,30=1,70=2201,71=1,72=11,74=-58,75=-5/1,2,3,8;
 4//1;
 5/5=2,38=5,53=11/2;
 8/6=1,10=1/1;
 9/15=2,42=1,70=2/14;
 10/5=4,31=1/2;
 6/7=2,8=2,9=2,10=2/1;
 7/12=6,13=5,30=1/1,2,3,16;
 1/18=20,19=15,26=6,145=903/3(2);
 2/9=110,15=1/2;
 99//99;
 2/9=110,15=1/2;
 3/5=16,11=9,25=1,30=1,70=2205,71=1,72=11,74=-58,75=-5/1,2,3,8;
 4/5=5,16=3,69=1/1;
 5/5=2,38=5,53=11/2;
 8/6=1,10=1/1;
 9/15=2,42=1,49=4,70=2/14;
 10/5=4,31=1/2;
 7/12=6,13=5,30=1/1,2,3,16;
 1/18=20,19=15,26=6,145=903/3(-8);
 2/9=110,15=1/2;
 6/7=2,8=2,9=2,10=2/1;
 99/9=10/99;
 Leave Link    1 at Mon Jul 13 15:47:51 2020, MaxMem=  7784628224 cpu:               4.9 elap:               0.6
 (Enter /gpfs/loomis/apps/avx/software/Gaussian/16-C.01_AVX/g16/l101.exe)
 ------------------------------------------------
 NM 2D-scan of HBT TD-WB97XD pVDZ in CTC Relaxed.
 ------------------------------------------------
 Symbolic Z-matrix:
 Charge =  0 Multiplicity = 1
 C                     1.56282  -3.25053  -0.00002 
 C                     1.00478  -1.97092  -0.00002 
 C                     1.78753  -0.78118  -0.00003 
 C                     3.18635  -0.9173   -0.00003 
 C                     3.74337  -2.20086  -0.00002 
 C                     2.95255  -3.36054  -0.00002 
 H                     0.91912  -4.13645  -0.00001 
 H                     3.82807  -0.02993  -0.00003 
 H                     4.83267  -2.29854  -0.00002 
 H                     3.42362  -4.34692  -0.00001 
 N                     1.00856   0.3674   -0.00003 
 S                    -0.70436  -1.61644  -0.00002 
 C                    -1.33378   1.06665   0.00001 
 C                    -2.68747   0.74442   0.00002 
 C                    -0.89136   2.47298   0.00004 
 C                    -3.65555   1.77649   0.00003 
 H                    -3.01438  -0.30038   0.00001 
 C                    -1.91061   3.47566   0.00004 
 C                    -3.26957   3.12347   0.00004 
 H                    -4.71633   1.51014   0.00003 
 H                    -1.5878    4.52131   0.00006 
 H                    -4.0338    3.90456   0.00005 
 C                    -0.32189   0.0743   -0.00002 
 O                     0.3548    2.71202   0.00005 
 H                     1.05932   1.30092   0.00001 
 
 Initializing the GIC definitions file.
 Number of initial coordinates =   134
 Number of input entries/lines =    52
 Number of additional coordinates =     2
 Number of removed coordinates =     0
 Number of frozen coordinates =     2
 Number of final active and frozen coordinates =   136
 ITRead=  0  0  0  0  0  0  0  0  0  0  0  0  0  0  0  0  0  0  0  0
 ITRead=  0  0  0  0  0
 MicOpt= -1 -1 -1 -1 -1 -1 -1 -1 -1 -1 -1 -1 -1 -1 -1 -1 -1 -1 -1 -1
 MicOpt= -1 -1 -1 -1 -1
 NAtoms=     25 NQM=       25 NQMF=       0 NMMI=      0 NMMIF=      0
                NMic=       0 NMicF=      0.
                    Isotopes and Nuclear Properties:
 (Nuclear quadrupole moments (NQMom) in fm**2, nuclear magnetic moments (NMagM)
  in nuclear magnetons)

  Atom         1           2           3           4           5           6           7           8           9          10
 IAtWgt=          12          12          12          12          12          12           1           1           1           1
 AtmWgt=  12.0000000  12.0000000  12.0000000  12.0000000  12.0000000  12.0000000   1.0078250   1.0078250   1.0078250   1.0078250
 NucSpn=           0           0           0           0           0           0           1           1           1           1
 AtZEff=  -0.0000000  -0.0000000  -0.0000000  -0.0000000  -0.0000000  -0.0000000  -0.0000000  -0.0000000  -0.0000000  -0.0000000
 NQMom=    0.0000000   0.0000000   0.0000000   0.0000000   0.0000000   0.0000000   0.0000000   0.0000000   0.0000000   0.0000000
 NMagM=    0.0000000   0.0000000   0.0000000   0.0000000   0.0000000   0.0000000   2.7928460   2.7928460   2.7928460   2.7928460
 AtZNuc=   6.0000000   6.0000000   6.0000000   6.0000000   6.0000000   6.0000000   1.0000000   1.0000000   1.0000000   1.0000000

  Atom        11          12          13          14          15          16          17          18          19          20
 IAtWgt=          14          32          12          12          12          12           1          12          12           1
 AtmWgt=  14.0030740  31.9720718  12.0000000  12.0000000  12.0000000  12.0000000   1.0078250  12.0000000  12.0000000   1.0078250
 NucSpn=           2           0           0           0           0           0           1           0           0           1
 AtZEff=  -0.0000000  -0.0000000  -0.0000000  -0.0000000  -0.0000000  -0.0000000  -0.0000000  -0.0000000  -0.0000000  -0.0000000
 NQMom=    2.0440000   0.0000000   0.0000000   0.0000000   0.0000000   0.0000000   0.0000000   0.0000000   0.0000000   0.0000000
 NMagM=    0.4037610   0.0000000   0.0000000   0.0000000   0.0000000   0.0000000   2.7928460   0.0000000   0.0000000   2.7928460
 AtZNuc=   7.0000000  16.0000000   6.0000000   6.0000000   6.0000000   6.0000000   1.0000000   6.0000000   6.0000000   1.0000000

  Atom        21          22          23          24          25
 IAtWgt=           1           1          12          16           1
 AtmWgt=   1.0078250   1.0078250  12.0000000  15.9949146   1.0078250
 NucSpn=           1           1           0           0           1
 AtZEff=  -0.0000000  -0.0000000  -0.0000000  -0.0000000  -0.0000000
 NQMom=    0.0000000   0.0000000   0.0000000   0.0000000   0.0000000
 NMagM=    2.7928460   2.7928460   0.0000000   0.0000000   2.7928460
 AtZNuc=   1.0000000   1.0000000   6.0000000   8.0000000   1.0000000
 Leave Link  101 at Mon Jul 13 15:47:55 2020, MaxMem=  7784628224 cpu:              32.4 elap:               3.3
 (Enter /gpfs/loomis/apps/avx/software/Gaussian/16-C.01_AVX/g16/l103.exe)

 GradGradGradGradGradGradGradGradGradGradGradGradGradGradGradGradGradGrad
 Berny optimization.
 Initialization pass.
                           ----------------------------
                           !    Initial Parameters    !
                           ! (Angstroms and Degrees)  !
 --------------------------                            --------------------------
 ! Name  Definition              Value          Derivative Info.                !
 --------------------------------------------------------------------------------
 ! R1    R(1,2)                  1.396          estimate D2E/DX2                !
 ! R2    R(1,6)                  1.3941         estimate D2E/DX2                !
 ! R3    R(1,7)                  1.0951         estimate D2E/DX2                !
 ! R4    R(2,3)                  1.4241         estimate D2E/DX2                !
 ! R5    R(2,12)                 1.7455         estimate D2E/DX2                !
 ! R6    R(3,4)                  1.4054         estimate D2E/DX2                !
 ! R7    R(3,11)                 1.3878         estimate D2E/DX2                !
 ! R8    R(4,5)                  1.3992         estimate D2E/DX2                !
 ! R9    R(4,8)                  1.0951         estimate D2E/DX2                !
 ! R10   R(5,6)                  1.4037         estimate D2E/DX2                !
 ! R11   R(5,9)                  1.0937         estimate D2E/DX2                !
 ! R12   R(6,10)                 1.0931         estimate D2E/DX2                !
 ! R13   R(11,23)                1.3624         estimate D2E/DX2                !
 ! R14   R(11,25)                0.9349         estimate D2E/DX2                !
 ! R15   R(12,23)                1.7335         estimate D2E/DX2                !
 ! R16   R(13,14)                1.3915         estimate D2E/DX2                !
 ! R17   R(13,15)                1.4743         estimate D2E/DX2                !
 ! R18   R(13,23)                1.4173         estimate D2E/DX2                !
 ! R19   R(14,16)                1.415          estimate D2E/DX2                !
 ! R20   R(14,17)                1.0947         estimate D2E/DX2                !
 ! R21   R(15,18)                1.4298         estimate D2E/DX2                !
 ! R22   R(15,24)                1.2689         estimate D2E/DX2                !
 ! R23   R(16,19)                1.4012         estimate D2E/DX2                !
 ! R24   R(16,20)                1.0937         estimate D2E/DX2                !
 ! R25   R(18,19)                1.4039         estimate D2E/DX2                !
 ! R26   R(18,21)                1.0943         estimate D2E/DX2                !
 ! R27   R(19,22)                1.0928         estimate D2E/DX2                !
 ! A1    A(2,1,6)              118.0879         estimate D2E/DX2                !
 ! A2    A(2,1,7)              120.4363         estimate D2E/DX2                !
 ! A3    A(6,1,7)              121.4758         estimate D2E/DX2                !
 ! A4    A(1,2,3)              123.0963         estimate D2E/DX2                !
 ! A5    A(1,2,12)             125.2792         estimate D2E/DX2                !
 ! A6    A(3,2,12)             111.6245         estimate D2E/DX2                !
 ! A7    A(2,3,4)              117.7837         estimate D2E/DX2                !
 ! A8    A(2,3,11)             112.513          estimate D2E/DX2                !
 ! A9    A(4,3,11)             129.7033         estimate D2E/DX2                !
 ! A10   A(3,4,5)              119.0172         estimate D2E/DX2                !
 ! A11   A(3,4,8)              120.3156         estimate D2E/DX2                !
 ! A12   A(5,4,8)              120.6672         estimate D2E/DX2                !
 ! A13   A(4,5,6)              122.2495         estimate D2E/DX2                !
 ! A14   A(4,5,9)              118.583          estimate D2E/DX2                !
 ! A15   A(6,5,9)              119.1675         estimate D2E/DX2                !
 ! A16   A(1,6,5)              119.7655         estimate D2E/DX2                !
 ! A17   A(1,6,10)             120.0535         estimate D2E/DX2                !
 ! A18   A(5,6,10)             120.181          estimate D2E/DX2                !
 ! A19   A(3,11,23)            111.7212         estimate D2E/DX2                !
 ! A20   A(3,11,25)            142.7425         estimate D2E/DX2                !
 ! A21   A(23,11,25)           105.5363         estimate D2E/DX2                !
 ! A22   A(2,12,23)             88.9705         estimate D2E/DX2                !
 ! A23   A(14,13,15)           120.8523         estimate D2E/DX2                !
 ! A24   A(14,13,23)           122.1693         estimate D2E/DX2                !
 ! A25   A(15,13,23)           116.9784         estimate D2E/DX2                !
 ! A26   A(13,14,16)           119.7781         estimate D2E/DX2                !
 ! A27   A(13,14,17)           120.7636         estimate D2E/DX2                !
 ! A28   A(16,14,17)           119.4583         estimate D2E/DX2                !
 ! A29   A(13,15,18)           117.0677         estimate D2E/DX2                !
 ! A30   A(13,15,24)           118.3215         estimate D2E/DX2                !
 ! A31   A(18,15,24)           124.6109         estimate D2E/DX2                !
 ! A32   A(14,16,19)           120.8428         estimate D2E/DX2                !
 ! A33   A(14,16,20)           119.0725         estimate D2E/DX2                !
 ! A34   A(19,16,20)           120.0847         estimate D2E/DX2                !
 ! A35   A(15,18,19)           120.9402         estimate D2E/DX2                !
 ! A36   A(15,18,21)           117.3744         estimate D2E/DX2                !
 ! A37   A(19,18,21)           121.6854         estimate D2E/DX2                !
 ! A38   A(16,19,18)           120.519          estimate D2E/DX2                !
 ! A39   A(16,19,22)           119.6349         estimate D2E/DX2                !
 ! A40   A(18,19,22)           119.8461         estimate D2E/DX2                !
 ! A41   A(11,23,12)           115.1708         estimate D2E/DX2                !
 ! A42   A(11,23,13)           123.1346         estimate D2E/DX2                !
 ! A43   A(12,23,13)           121.6946         estimate D2E/DX2                !
 ! D1    D(6,1,2,3)              0.0            estimate D2E/DX2                !
 ! D2    D(6,1,2,12)           180.0            estimate D2E/DX2                !
 ! D3    D(7,1,2,3)            179.9999         estimate D2E/DX2                !
 ! D4    D(7,1,2,12)            -0.0001         estimate D2E/DX2                !
 ! D5    D(2,1,6,5)             -0.0001         estimate D2E/DX2                !
 ! D6    D(2,1,6,10)           179.9999         estimate D2E/DX2                !
 ! D7    D(7,1,6,5)            179.9999         estimate D2E/DX2                !
 ! D8    D(7,1,6,10)             0.0            estimate D2E/DX2                !
 ! D9    D(1,2,3,4)              0.0002         estimate D2E/DX2                !
 ! D10   D(1,2,3,11)          -180.0            estimate D2E/DX2                !
 ! D11   D(12,2,3,4)          -179.9998         estimate D2E/DX2                !
 ! D12   D(12,2,3,11)            0.0            estimate D2E/DX2                !
 ! D13   D(1,2,12,23)          179.9997         estimate D2E/DX2                !
 ! D14   D(3,2,12,23)           -0.0003         estimate D2E/DX2                !
 ! D15   D(2,3,4,5)             -0.0002         estimate D2E/DX2                !
 ! D16   D(2,3,4,8)            179.9999         estimate D2E/DX2                !
 ! D17   D(11,3,4,5)           180.0            estimate D2E/DX2                !
 ! D18   D(11,3,4,8)             0.0001         estimate D2E/DX2                !
 ! D19   D(2,3,11,23)            0.0004         estimate D2E/DX2                !
 ! D20   D(2,3,11,25)          179.9959         estimate D2E/DX2                !
 ! D21   D(4,3,11,23)         -179.9998         estimate D2E/DX2                !
 ! D22   D(4,3,11,25)           -0.0043         estimate D2E/DX2                !
 ! D23   D(3,4,5,6)              0.0001         estimate D2E/DX2                !
 ! D24   D(3,4,5,9)           -179.9999         estimate D2E/DX2                !
 ! D25   D(8,4,5,6)            180.0            estimate D2E/DX2                !
 ! D26   D(8,4,5,9)              0.0            estimate D2E/DX2                !
 ! D27   D(4,5,6,1)              0.0001         estimate D2E/DX2                !
 ! D28   D(4,5,6,10)          -179.9999         estimate D2E/DX2                !
 ! D29   D(9,5,6,1)           -179.9999         estimate D2E/DX2                !
 ! D30   D(9,5,6,10)             0.0            estimate D2E/DX2                !
 ! D31   D(3,11,23,12)          -0.0006         estimate D2E/DX2                !
 ! D32   D(3,11,23,13)         179.9984         estimate D2E/DX2                !
 ! D33   D(25,11,23,12)       -179.9978         estimate D2E/DX2                !
 ! D34   D(25,11,23,13)          0.0012         estimate D2E/DX2                !
 ! D35   D(2,12,23,11)           0.0005         estimate D2E/DX2                !
 ! D36   D(2,12,23,13)        -179.9985         estimate D2E/DX2                !
 ! D37   D(15,13,14,16)          0.001          estimate D2E/DX2                !
 ! D38   D(15,13,14,17)       -179.9994         estimate D2E/DX2                !
 ! D39   D(23,13,14,16)       -179.9991         estimate D2E/DX2                !
 ! D40   D(23,13,14,17)          0.0005         estimate D2E/DX2                !
 ! D41   D(14,13,15,18)         -0.0012         estimate D2E/DX2                !
 ! D42   D(14,13,15,24)        179.9985         estimate D2E/DX2                !
 ! D43   D(23,13,15,18)        179.9989         estimate D2E/DX2                !
 ! D44   D(23,13,15,24)         -0.0014         estimate D2E/DX2                !
 ! D45   D(14,13,23,11)       -179.9999         estimate D2E/DX2                !
 ! D46   D(14,13,23,12)         -0.001          estimate D2E/DX2                !
 ! D47   D(15,13,23,11)          0.0            estimate D2E/DX2                !
 ! D48   D(15,13,23,12)        179.9989         estimate D2E/DX2                !
 ! D49   D(13,14,16,19)         -0.0002         estimate D2E/DX2                !
 ! D50   D(13,14,16,20)        179.9997         estimate D2E/DX2                !
 ! D51   D(17,14,16,19)       -179.9998         estimate D2E/DX2                !
 ! D52   D(17,14,16,20)          0.0001         estimate D2E/DX2                !
 ! D53   D(13,15,18,19)          0.0006         estimate D2E/DX2                !
 ! D54   D(13,15,18,21)       -180.0            estimate D2E/DX2                !
 ! D55   D(24,15,18,19)       -179.9991         estimate D2E/DX2                !
 ! D56   D(24,15,18,21)          0.0003         estimate D2E/DX2                !
 ! D57   D(14,16,19,18)         -0.0004         estimate D2E/DX2                !
 ! D58   D(14,16,19,22)        179.9998         estimate D2E/DX2                !
 ! D59   D(20,16,19,18)        179.9997         estimate D2E/DX2                !
 ! D60   D(20,16,19,22)         -0.0001         estimate D2E/DX2                !
 ! D61   D(15,18,19,16)          0.0001         estimate D2E/DX2                !
 ! D62   D(15,18,19,22)        179.9999         estimate D2E/DX2                !
 ! D63   D(21,18,19,16)       -179.9992         estimate D2E/DX2                !
 ! D64   D(21,18,19,22)          0.0006         estimate D2E/DX2                !
 ! Qtot  GIC-1                  30.0            Frozen                          !
 ! Ptot  GIC-2                 140.0            Frozen                          !
 --------------------------------------------------------------------------------
 NOTE: GIC-type coordinates are in arbitrary units.
 Trust Radius=3.00D-01 FncErr=5.00D-06 GrdErr=5.00D-06 EigMax=2.50D+02 EigMin=1.00D-04
 Number of steps in this run=    146 maximum allowed number of steps=    150.
 GradGradGradGradGradGradGradGradGradGradGradGradGradGradGradGradGradGrad

 Leave Link  103 at Mon Jul 13 15:47:55 2020, MaxMem=  7784628224 cpu:               0.2 elap:               0.0
 (Enter /gpfs/loomis/apps/avx/software/Gaussian/16-C.01_AVX/g16/l202.exe)
                          Input orientation:                          
 ---------------------------------------------------------------------
 Center     Atomic      Atomic             Coordinates (Angstroms)
 Number     Number       Type             X           Y           Z
 ---------------------------------------------------------------------
      1          6           0        1.562818   -3.250532   -0.000018
      2          6           0        1.004778   -1.970917   -0.000023
      3          6           0        1.787532   -0.781176   -0.000026
      4          6           0        3.186348   -0.917295   -0.000029
      5          6           0        3.743372   -2.200862   -0.000024
      6          6           0        2.952553   -3.360537   -0.000017
      7          1           0        0.919122   -4.136449   -0.000014
      8          1           0        3.828072   -0.029929   -0.000034
      9          1           0        4.832671   -2.298536   -0.000024
     10          1           0        3.423617   -4.346917   -0.000012
     11          7           0        1.008561    0.367403   -0.000029
     12         16           0       -0.704361   -1.616437   -0.000025
     13          6           0       -1.333780    1.066648    0.000010
     14          6           0       -2.687475    0.744418    0.000020
     15          6           0       -0.891364    2.472983    0.000036
     16          6           0       -3.655551    1.776490    0.000032
     17          1           0       -3.014380   -0.300382    0.000011
     18          6           0       -1.910608    3.475662    0.000042
     19          6           0       -3.269570    3.123473    0.000039
     20          1           0       -4.716331    1.510141    0.000034
     21          1           0       -1.587800    4.521312    0.000061
     22          1           0       -4.033802    3.904555    0.000045
     23          6           0       -0.321888    0.074298   -0.000021
     24          8           0        0.354796    2.712020    0.000055
     25          1           0        1.059318    1.300922    0.000008
 ---------------------------------------------------------------------
                    Distance matrix (angstroms):
                    1          2          3          4          5
     1  C    0.000000
     2  C    1.396002   0.000000
     3  C    2.479559   1.424145   0.000000
     4  C    2.842507   2.422678   1.405423   0.000000
     5  C    2.420046   2.748231   2.416778   1.399220   0.000000
     6  C    1.394082   2.392670   2.830261   2.454402   1.403653
     7  H    1.095077   2.167225   3.465832   3.937418   3.423870
     8  H    3.937469   3.426139   2.174437   1.095093   2.172585
     9  H    3.405618   3.841887   3.402242   2.149000   1.093669
    10  H    2.159776   3.390598   3.923172   3.437819   2.169746
    11  N    3.660144   2.338323   1.387815   2.528479   3.751689
    12  S    2.794703   1.745512   2.628154   3.953027   4.485965
    13  C    5.198877   3.833491   3.627264   4.936354   6.037722
    14  C    5.833062   4.583206   4.727909   6.104350   7.073222
    15  C    6.227490   4.831522   4.214978   5.302992   6.582219
    16  C    7.245849   5.980111   6.014051   7.353099   8.400202
    17  H    5.445560   4.352507   4.825922   6.231341   7.019903
    18  C    7.570097   6.177759   5.638875   6.728822   8.011892
    19  C    7.998744   6.650027   6.389097   7.616212   8.805106
    20  H    7.879830   6.696929   6.895678   8.267091   9.237863
    21  H    8.386176   6.990744   6.285638   7.236777   8.579570
    22  H    9.083910   7.740056   7.472885   8.682212   9.887393
    23  C    3.821860   2.437817   2.276289   3.645680   4.658615
    24  O    6.083695   4.727830   3.775600   4.603219   5.968154
    25  H    4.579218   3.272294   2.205771   3.073231   4.412101
                    6          7          8          9         10
     6  C    0.000000
     7  H    2.176438   0.000000
     8  H    3.443760   5.032445   0.000000
     9  H    2.159326   4.323631   2.481088   0.000000
    10  H    1.093091   2.513323   4.335894   2.486222   0.000000
    11  N    4.204359   4.504739   2.847370   4.661657   5.296915
    12  S    4.051531   2.997692   4.802079   5.578887   4.949316
    13  C    6.162192   5.669901   5.277045   7.024926   7.206907
    14  C    6.975713   6.068805   6.561400   8.112469   7.954064
    15  C    6.986104   6.852915   5.342064   7.451978   8.070322
    16  C    8.369951   7.475993   7.698556   9.415718   9.360061
    17  H    6.705880   5.494346   6.847795   8.097458   7.604094
    18  C    8.389514   8.121059   6.724702   8.877678   9.468194
    19  C    8.986500   8.381622   7.766625   9.749076  10.030228
    20  H    9.084893   7.977613   8.682087  10.280538  10.028154
    21  H    9.096062   9.013406   7.074282   9.366578  10.186255
    22  H   10.079222   9.444003   8.791429  10.820937  11.122045
    23  C    4.745530   4.389817   4.151269   5.674488   5.794476
    24  O    6.604869   6.871680   4.425148   6.719899   7.697159
    25  H    5.031256   5.439178   3.071997   5.214814   6.122744
                   11         12         13         14         15
    11  N    0.000000
    12  S    2.621015   0.000000
    13  C    2.444485   2.755923   0.000000
    14  C    3.715215   3.083241   1.391517   0.000000
    15  C    2.836051   4.093693   1.474283   2.492780   0.000000
    16  C    4.872317   4.496829   2.427858   1.415042   2.850584
    17  H    4.077989   2.658606   2.166376   1.094748   3.492671
    18  C    4.264132   5.233020   2.477111   2.839580   1.429763
    19  C    5.089039   5.389530   2.824501   2.449231   2.465562
    20  H    5.837828   5.086392   3.411500   2.168545   3.944291
    21  H    4.898577   6.201002   3.463991   3.933728   2.163487
    22  H    6.159292   6.447211   3.917121   3.434976   3.453160
    23  C    1.362353   1.733456   1.417280   2.458671   2.465358
    24  O    2.434058   4.456159   2.357656   3.623102   1.268879
    25  H    0.934898   3.409038   2.404538   3.787895   2.275717
                   16         17         18         19         20
    16  C    0.000000
    17  H    2.173591   0.000000
    18  C    2.435572   3.934059   0.000000
    19  C    1.401194   3.433351   1.403857   0.000000
    20  H    1.093707   2.484881   3.425690   2.167015   0.000000
    21  H    3.436516   5.028306   1.094344   2.186848   4.342218
    22  H    2.161420   4.326744   2.166080   1.092768   2.489792
    23  C    3.743096   2.718436   3.754105   4.241025   4.623069
    24  O    4.118021   4.519503   2.390649   3.647645   5.211606
    25  H    4.738792   4.377121   3.681026   4.696909   5.779437
                   21         22         23         24         25
    21  H    0.000000
    22  H    2.522561   0.000000
    23  C    4.623685   5.333777   0.000000
    24  O    2.654659   4.547739   2.723138   0.000000
    25  H    4.168711   5.720033   1.847251   1.577197   0.000000
 Symmetry turned off by external request.
 Stoichiometry    C13H9NOS
 Framework group  C1[X(C13H9NOS)]
 Deg. of freedom    69
 Full point group                 C1      NOp   1
 Rotational constants (GHZ):           1.4116840           0.2862975           0.2380247
 Leave Link  202 at Mon Jul 13 15:47:55 2020, MaxMem=  7784628224 cpu:               0.3 elap:               0.1
 (Enter /gpfs/loomis/apps/avx/software/Gaussian/16-C.01_AVX/g16/l301.exe)
 Standard basis: CC-pVDZ (5D, 7F)
 Ernie: Thresh=  0.10000D-02 Tol=  0.10000D-05 Strict=F.
 Ernie:  40 primitive shells out of 425 were deleted.
   273 basis functions,   629 primitive gaussians,   289 cartesian basis functions
    59 alpha electrons       59 beta electrons
       nuclear repulsion energy      1101.7487541731 Hartrees.
 IExCor= 4639 DFT=T Ex+Corr=wB97XD ExCW=0 ScaHFX=  1.000000
 ScaDFX=  1.000000  1.000000  1.000000  1.000000 ScalE2=  1.000000  1.000000
 IRadAn=      5 IRanWt=     -1 IRanGd=            0 ICorTp=0 IEmpDi=121
 HFx  wShort=  0.000000 wLong=  0.200000 cFull=  0.222036 cShort=  0.000000 cLong=  0.777964
 DFx  wShort=  0.000000 wLong=  0.200000 cFull=  0.000000 cShort=  0.000000 cLong=  1.000000
 NAtoms=   25 NActive=   25 NUniq=   25 SFac= 1.00D+00 NAtFMM=   60 NAOKFM=F Big=F
 Integral buffers will be    131072 words long.
 Raffenetti 1 integral format.
 Two-electron integral symmetry is turned off.
 R6Disp:  Grimme-D2 Dispersion energy=       -0.0139334458 Hartrees.
 Nuclear repulsion after empirical dispersion term =     1101.7348207274 Hartrees.
 ------------------------------------------------------------------------------
 Polarizable Continuum Model (PCM)
 =================================
 Model                : PCM.
 Atomic radii         : UFF (Universal Force Field).
 Polarization charges : Total charges.
 Charge compensation  : None.
 Solution method      : On-the-fly selection.
 Cavity type          : Scaled VdW (van der Waals Surface) (Alpha=1.100).
 Cavity algorithm     : GePol (No added spheres)
                        Default sphere list used, NSphG=   25.
                        Lebedev-Laikov grids with approx.  5.0 points / Ang**2.
                        Smoothing algorithm: York/Karplus (Gamma=1.0000).
                        Polarization charges: spherical gaussians, with
                                              point-specific exponents (IZeta= 3).
                        Self-potential: point-specific (ISelfS= 7).
                        Self-field    : sphere-specific E.n sum rule (ISelfD= 2).
 1st derivatives      : Analytical E(r).r(x)/FMM algorithm (CHGder, D1EAlg=3).
                        Cavity 1st derivative terms included.
 Solvent              : CarbonTetraChloride, Eps=   2.228000 Eps(inf)=   2.131892
 ------------------------------------------------------------------------------
 GePol: Number of generator spheres                  =      25
 GePol: Total number of spheres                      =      25
 GePol: Number of exposed spheres                    =      25 (100.00%)
 GePol: Number of points                             =    2191
 GePol: Average weight of points                     =       0.12
 GePol: Minimum weight of points                     =   0.10D-11
 GePol: Maximum weight of points                     =    0.20577
 GePol: Number of points with low weight             =     132
 GePol: Fraction of low-weight points (<1% of avg)   =       6.02%
 GePol: Cavity surface area                          =    271.339 Ang**2
 GePol: Cavity volume                                =    291.589 Ang**3
 Leave Link  301 at Mon Jul 13 15:47:55 2020, MaxMem=  7784628224 cpu:               1.1 elap:               0.1
 (Enter /gpfs/loomis/apps/avx/software/Gaussian/16-C.01_AVX/g16/l302.exe)
 NPDir=0 NMtPBC=     1 NCelOv=     1 NCel=       1 NClECP=     1 NCelD=      1
         NCelK=      1 NCelE2=     1 NClLst=     1 CellRange=     0.0.
 One-electron integrals computed using PRISM.
 NBasis=   273 RedAO= T EigKep=  3.13D-04  NBF=   273
 NBsUse=   273 1.00D-06 EigRej= -1.00D+00 NBFU=   273
 Precomputing XC quadrature grid using
 IXCGrd= 4 IRadAn=           5 IRanWt=          -1 IRanGd=           0 AccXCQ= 0.00D+00.
 Generated NRdTot=       0 NPtTot=           0 NUsed=           0 NTot=          32
 NSgBfM=   288   288   288   288   288 MxSgAt=    25 MxSgA2=    25.
 Leave Link  302 at Mon Jul 13 15:47:55 2020, MaxMem=  7784628224 cpu:               3.0 elap:               0.4
 (Enter /gpfs/loomis/apps/avx/software/Gaussian/16-C.01_AVX/g16/l303.exe)
 DipDrv:  MaxL=1.
 Leave Link  303 at Mon Jul 13 15:47:56 2020, MaxMem=  7784628224 cpu:               1.0 elap:               0.1
 (Enter /gpfs/loomis/apps/avx/software/Gaussian/16-C.01_AVX/g16/l308.exe)
 Leave Link  308 at Mon Jul 13 15:47:56 2020, MaxMem=  7784628224 cpu:               1.2 elap:               0.2
 (Enter /gpfs/loomis/apps/avx/software/Gaussian/16-C.01_AVX/g16/l401.exe)
 ExpMin= 1.22D-01 ExpMax= 1.11D+05 ExpMxC= 1.07D+03 IAcc=3 IRadAn=         5 AccDes= 0.00D+00
 Harris functional with IExCor= 4639 and IRadAn=       5 diagonalized for initial guess.
 HarFok:  IExCor= 4639 AccDes= 0.00D+00 IRadAn=         5 IDoV= 1 UseB2=F ITyADJ=14
 ICtDFT=  3500011 ScaDFX=  1.000000  1.000000  1.000000  1.000000
 FoFCou: FMM=F IPFlag=           0 FMFlag=      100000 FMFlg1=           0
         NFxFlg=           0 DoJE=T BraDBF=F KetDBF=T FulRan=T
         wScrn=  0.000000 ICntrl=       500 IOpCl=  0 I1Cent=   200000004 NGrid=           0
         NMat0=    1 NMatS0=      1 NMatT0=    0 NMatD0=    1 NMtDS0=    0 NMtDT0=    0
 Symmetry not used in FoFCou.
 Harris En= -994.433213992273    
 JPrj=0 DoOrth=F DoCkMO=F.
 Leave Link  401 at Mon Jul 13 15:47:58 2020, MaxMem=  7784628224 cpu:              14.5 elap:               1.5
 (Enter /gpfs/loomis/apps/avx/software/Gaussian/16-C.01_AVX/g16/l502.exe)
 Two-electron integral symmetry not used.
 Closed shell SCF:
 Using DIIS extrapolation, IDIIS=  1040.
 NGot=  7784628224 LenX=  7784455381 LenY=  7784371419
 Requested convergence on RMS density matrix=1.00D-08 within 128 cycles.
 Requested convergence on MAX density matrix=1.00D-06.
 Requested convergence on             energy=1.00D-06.
 No special actions if energy rises.
 Fock matrices will be formed incrementally for  20 cycles.

 Cycle   1  Pass 1  IDiag  1:
 FoFJK:  IHMeth= 1 ICntrl=       0 DoSepK=T KAlg= 0 I1Cent=           0 FoldK=F
 IRaf=         1 NMat=       1 IRICut=       1 DoRegI=T DoRafI=F ISym2E= 0 IDoP0=0 IntGTp=1.
 FoFCou: FMM=F IPFlag=           0 FMFlag=      100000 FMFlg1=           0
         NFxFlg=           0 DoJE=T BraDBF=F KetDBF=F FulRan=T
         wScrn=  0.000000 ICntrl=       500 IOpCl=  0 I1Cent=           0 NGrid=           0
         NMat0=    1 NMatS0=      1 NMatT0=    0 NMatD0=    1 NMtDS0=    0 NMtDT0=    0
 Symmetry not used in FoFCou.
 Inv3:  Mode=1 IEnd=    14401443.
 Iteration    1 A*A^-1 deviation from unit magnitude is 4.55D-15 for   2172.
 Iteration    1 A*A^-1 deviation from orthogonality  is 2.18D-15 for   2188   2094.
 Iteration    1 A^-1*A deviation from unit magnitude is 4.00D-15 for   2172.
 Iteration    1 A^-1*A deviation from orthogonality  is 2.03D-15 for   2188   2094.
 E= -1028.54429251042    
 DIIS: error= 4.03D-02 at cycle   1 NSaved=   1.
 NSaved= 1 IEnMin= 1 EnMin= -1028.54429251042     IErMin= 1 ErrMin= 4.03D-02
 ErrMax= 4.03D-02  0.00D+00 EMaxC= 1.00D-01 BMatC= 3.92D-01 BMatP= 3.92D-01
 IDIUse=3 WtCom= 5.97D-01 WtEn= 4.03D-01
 Coeff-Com:  0.100D+01
 Coeff-En:   0.100D+01
 Coeff:      0.100D+01
 Gap=     0.314 Goal=   None    Shift=    0.000
 GapD=    0.314 DampG=1.000 DampE=0.500 DampFc=0.5000 IDamp=-1.
 Damping current iteration by 5.00D-01
 RMSDP=3.59D-03 MaxDP=2.38D-01              OVMax= 1.96D-01

 Cycle   2  Pass 1  IDiag  1:
 RMSU=  1.79D-03    CP:  9.94D-01
 E= -1028.66297210534     Delta-E=       -0.118679594920 Rises=F Damp=T
 DIIS: error= 1.17D-02 at cycle   2 NSaved=   2.
 NSaved= 2 IEnMin= 2 EnMin= -1028.66297210534     IErMin= 2 ErrMin= 1.17D-02
 ErrMax= 1.17D-02  0.00D+00 EMaxC= 1.00D-01 BMatC= 5.86D-02 BMatP= 3.92D-01
 IDIUse=3 WtCom= 8.83D-01 WtEn= 1.17D-01
 Coeff-Com: -0.284D+00 0.128D+01
 Coeff-En:   0.000D+00 0.100D+01
 Coeff:     -0.251D+00 0.125D+01
 Gap=     0.284 Goal=   None    Shift=    0.000
 RMSDP=1.16D-03 MaxDP=2.56D-02 DE=-1.19D-01 OVMax= 1.40D-01

 Cycle   3  Pass 1  IDiag  1:
 RMSU=  1.12D-03    CP:  9.93D-01  1.16D+00
 E= -1028.76966903195     Delta-E=       -0.106696926610 Rises=F Damp=F
 DIIS: error= 7.05D-03 at cycle   3 NSaved=   3.
 NSaved= 3 IEnMin= 3 EnMin= -1028.76966903195     IErMin= 3 ErrMin= 7.05D-03
 ErrMax= 7.05D-03  0.00D+00 EMaxC= 1.00D-01 BMatC= 1.61D-02 BMatP= 5.86D-02
 IDIUse=3 WtCom= 9.30D-01 WtEn= 7.05D-02
 Coeff-Com: -0.207D+00 0.507D+00 0.700D+00
 Coeff-En:   0.000D+00 0.000D+00 0.100D+01
 Coeff:     -0.193D+00 0.472D+00 0.721D+00
 Gap=     0.240 Goal=   None    Shift=    0.000
 RMSDP=5.66D-04 MaxDP=2.01D-02 DE=-1.07D-01 OVMax= 4.48D-02

 Cycle   4  Pass 1  IDiag  1:
 RMSU=  4.46D-04    CP:  9.91D-01  1.32D+00  8.25D-01
 E= -1028.78522795045     Delta-E=       -0.015558918501 Rises=F Damp=F
 DIIS: error= 2.09D-03 at cycle   4 NSaved=   4.
 NSaved= 4 IEnMin= 4 EnMin= -1028.78522795045     IErMin= 4 ErrMin= 2.09D-03
 ErrMax= 2.09D-03  0.00D+00 EMaxC= 1.00D-01 BMatC= 2.00D-03 BMatP= 1.61D-02
 IDIUse=3 WtCom= 9.79D-01 WtEn= 2.09D-02
 Coeff-Com: -0.723D-01 0.143D+00 0.343D+00 0.586D+00
 Coeff-En:   0.000D+00 0.000D+00 0.000D+00 0.100D+01
 Coeff:     -0.708D-01 0.140D+00 0.335D+00 0.595D+00
 Gap=     0.241 Goal=   None    Shift=    0.000
 RMSDP=1.80D-04 MaxDP=1.02D-02 DE=-1.56D-02 OVMax= 1.39D-02

 Cycle   5  Pass 1  IDiag  1:
 RMSU=  1.11D-04    CP:  9.91D-01  1.33D+00  9.05D-01  7.56D-01
 E= -1028.78738033625     Delta-E=       -0.002152385797 Rises=F Damp=F
 DIIS: error= 5.08D-04 at cycle   5 NSaved=   5.
 NSaved= 5 IEnMin= 5 EnMin= -1028.78738033625     IErMin= 5 ErrMin= 5.08D-04
 ErrMax= 5.08D-04  0.00D+00 EMaxC= 1.00D-01 BMatC= 5.95D-05 BMatP= 2.00D-03
 IDIUse=3 WtCom= 9.95D-01 WtEn= 5.08D-03
 Coeff-Com: -0.896D-03-0.461D-02 0.296D-01 0.155D+00 0.821D+00
 Coeff-En:   0.000D+00 0.000D+00 0.000D+00 0.000D+00 0.100D+01
 Coeff:     -0.891D-03-0.459D-02 0.295D-01 0.154D+00 0.822D+00
 Gap=     0.242 Goal=   None    Shift=    0.000
 RMSDP=5.84D-05 MaxDP=1.92D-03 DE=-2.15D-03 OVMax= 5.70D-03

 Cycle   6  Pass 1  IDiag  1:
 RMSU=  3.77D-05    CP:  9.91D-01  1.34D+00  9.21D-01  8.42D-01  1.11D+00
 E= -1028.78751577980     Delta-E=       -0.000135443554 Rises=F Damp=F
 DIIS: error= 2.78D-04 at cycle   6 NSaved=   6.
 NSaved= 6 IEnMin= 6 EnMin= -1028.78751577980     IErMin= 6 ErrMin= 2.78D-04
 ErrMax= 2.78D-04  0.00D+00 EMaxC= 1.00D-01 BMatC= 1.06D-05 BMatP= 5.95D-05
 IDIUse=3 WtCom= 9.97D-01 WtEn= 2.78D-03
 Coeff-Com:  0.171D-01-0.349D-01-0.655D-01-0.800D-01 0.195D+00 0.968D+00
 Coeff-En:   0.000D+00 0.000D+00 0.000D+00 0.000D+00 0.000D+00 0.100D+01
 Coeff:      0.171D-01-0.348D-01-0.653D-01-0.798D-01 0.195D+00 0.968D+00
 Gap=     0.243 Goal=   None    Shift=    0.000
 RMSDP=3.79D-05 MaxDP=1.79D-03 DE=-1.35D-04 OVMax= 4.97D-03

 Cycle   7  Pass 1  IDiag  1:
 RMSU=  1.88D-05    CP:  9.91D-01  1.34D+00  9.33D-01  8.77D-01  1.31D+00
                    CP:  1.32D+00
 E= -1028.78755409818     Delta-E=       -0.000038318382 Rises=F Damp=F
 DIIS: error= 1.00D-04 at cycle   7 NSaved=   7.
 NSaved= 7 IEnMin= 7 EnMin= -1028.78755409818     IErMin= 7 ErrMin= 1.00D-04
 ErrMax= 1.00D-04  0.00D+00 EMaxC= 1.00D-01 BMatC= 2.81D-06 BMatP= 1.06D-05
 IDIUse=3 WtCom= 9.99D-01 WtEn= 1.00D-03
 Coeff-Com:  0.725D-02-0.138D-01-0.293D-01-0.524D-01-0.223D-01 0.438D+00
 Coeff-Com:  0.672D+00
 Coeff-En:   0.000D+00 0.000D+00 0.000D+00 0.000D+00 0.000D+00 0.000D+00
 Coeff-En:   0.100D+01
 Coeff:      0.724D-02-0.138D-01-0.293D-01-0.523D-01-0.223D-01 0.438D+00
 Coeff:      0.673D+00
 Gap=     0.243 Goal=   None    Shift=    0.000
 RMSDP=1.28D-05 MaxDP=4.96D-04 DE=-3.83D-05 OVMax= 1.31D-03

 Cycle   8  Pass 1  IDiag  1:
 RMSU=  8.08D-06    CP:  9.91D-01  1.34D+00  9.34D-01  8.83D-01  1.35D+00
                    CP:  1.54D+00  1.10D+00
 E= -1028.78756014868     Delta-E=       -0.000006050497 Rises=F Damp=F
 DIIS: error= 6.41D-05 at cycle   8 NSaved=   8.
 NSaved= 8 IEnMin= 8 EnMin= -1028.78756014868     IErMin= 8 ErrMin= 6.41D-05
 ErrMax= 6.41D-05  0.00D+00 EMaxC= 1.00D-01 BMatC= 3.64D-07 BMatP= 2.81D-06
 IDIUse=1 WtCom= 1.00D+00 WtEn= 0.00D+00
 Coeff-Com: -0.137D-02 0.304D-02 0.609D-02 0.148D-02-0.461D-01-0.777D-01
 Coeff-Com:  0.169D+00 0.945D+00
 Coeff:     -0.137D-02 0.304D-02 0.609D-02 0.148D-02-0.461D-01-0.777D-01
 Coeff:      0.169D+00 0.945D+00
 Gap=     0.243 Goal=   None    Shift=    0.000
 RMSDP=7.91D-06 MaxDP=2.10D-04 DE=-6.05D-06 OVMax= 1.36D-03

 Cycle   9  Pass 1  IDiag  1:
 RMSU=  3.21D-06    CP:  9.91D-01  1.34D+00  9.34D-01  8.83D-01  1.37D+00
                    CP:  1.66D+00  1.37D+00  1.20D+00
 E= -1028.78756195148     Delta-E=       -0.000001802803 Rises=F Damp=F
 DIIS: error= 1.95D-05 at cycle   9 NSaved=   9.
 NSaved= 9 IEnMin= 9 EnMin= -1028.78756195148     IErMin= 9 ErrMin= 1.95D-05
 ErrMax= 1.95D-05  0.00D+00 EMaxC= 1.00D-01 BMatC= 1.29D-07 BMatP= 3.64D-07
 IDIUse=1 WtCom= 1.00D+00 WtEn= 0.00D+00
 Coeff-Com: -0.144D-02 0.286D-02 0.653D-02 0.809D-02-0.142D-01-0.954D-01
 Coeff-Com: -0.853D-01 0.370D+00 0.809D+00
 Coeff:     -0.144D-02 0.286D-02 0.653D-02 0.809D-02-0.142D-01-0.954D-01
 Coeff:     -0.853D-01 0.370D+00 0.809D+00
 Gap=     0.243 Goal=   None    Shift=    0.000
 RMSDP=4.04D-06 MaxDP=1.16D-04 DE=-1.80D-06 OVMax= 6.12D-04

 Cycle  10  Pass 1  IDiag  1:
 RMSU=  1.55D-06    CP:  9.91D-01  1.34D+00  9.34D-01  8.83D-01  1.38D+00
                    CP:  1.72D+00  1.46D+00  1.46D+00  1.22D+00
 E= -1028.78756237056     Delta-E=       -0.000000419083 Rises=F Damp=F
 DIIS: error= 1.26D-05 at cycle  10 NSaved=  10.
 NSaved=10 IEnMin=10 EnMin= -1028.78756237056     IErMin=10 ErrMin= 1.26D-05
 ErrMax= 1.26D-05  0.00D+00 EMaxC= 1.00D-01 BMatC= 2.31D-08 BMatP= 1.29D-07
 IDIUse=1 WtCom= 1.00D+00 WtEn= 0.00D+00
 Coeff-Com:  0.314D-04-0.138D-03 0.276D-03 0.166D-02 0.747D-02-0.708D-02
 Coeff-Com: -0.917D-01-0.814D-01 0.292D+00 0.878D+00
 Coeff:      0.314D-04-0.138D-03 0.276D-03 0.166D-02 0.747D-02-0.708D-02
 Coeff:     -0.917D-01-0.814D-01 0.292D+00 0.878D+00
 Gap=     0.243 Goal=   None    Shift=    0.000
 RMSDP=1.99D-06 MaxDP=5.13D-05 DE=-4.19D-07 OVMax= 3.48D-04

 Cycle  11  Pass 1  IDiag  1:
 RMSU=  5.95D-07    CP:  9.91D-01  1.34D+00  9.34D-01  8.84D-01  1.38D+00
                    CP:  1.74D+00  1.51D+00  1.58D+00  1.53D+00  1.20D+00
 E= -1028.78756246790     Delta-E=       -0.000000097335 Rises=F Damp=F
 DIIS: error= 4.07D-06 at cycle  11 NSaved=  11.
 NSaved=11 IEnMin=11 EnMin= -1028.78756246790     IErMin=11 ErrMin= 4.07D-06
 ErrMax= 4.07D-06  0.00D+00 EMaxC= 1.00D-01 BMatC= 4.31D-09 BMatP= 2.31D-08
 IDIUse=1 WtCom= 1.00D+00 WtEn= 0.00D+00
 Coeff-Com:  0.293D-03-0.605D-03-0.106D-02-0.970D-03 0.533D-02 0.152D-01
 Coeff-Com: -0.228D-01-0.797D-01-0.517D-01 0.279D+00 0.857D+00
 Coeff:      0.293D-03-0.605D-03-0.106D-02-0.970D-03 0.533D-02 0.152D-01
 Coeff:     -0.228D-01-0.797D-01-0.517D-01 0.279D+00 0.857D+00
 Gap=     0.243 Goal=   None    Shift=    0.000
 RMSDP=7.83D-07 MaxDP=1.75D-05 DE=-9.73D-08 OVMax= 1.30D-04

 Cycle  12  Pass 1  IDiag  1:
 RMSU=  2.43D-07    CP:  9.91D-01  1.34D+00  9.34D-01  8.84D-01  1.38D+00
                    CP:  1.75D+00  1.51D+00  1.63D+00  1.65D+00  1.45D+00
                    CP:  1.19D+00
 E= -1028.78756248222     Delta-E=       -0.000000014318 Rises=F Damp=F
 DIIS: error= 1.39D-06 at cycle  12 NSaved=  12.
 NSaved=12 IEnMin=12 EnMin= -1028.78756248222     IErMin=12 ErrMin= 1.39D-06
 ErrMax= 1.39D-06  0.00D+00 EMaxC= 1.00D-01 BMatC= 6.95D-10 BMatP= 4.31D-09
 IDIUse=1 WtCom= 1.00D+00 WtEn= 0.00D+00
 Coeff-Com:  0.125D-03-0.244D-03-0.513D-03-0.859D-03 0.844D-03 0.852D-02
 Coeff-Com:  0.698D-02-0.129D-01-0.821D-01-0.667D-01 0.304D+00 0.843D+00
 Coeff:      0.125D-03-0.244D-03-0.513D-03-0.859D-03 0.844D-03 0.852D-02
 Coeff:      0.698D-02-0.129D-01-0.821D-01-0.667D-01 0.304D+00 0.843D+00
 Gap=     0.243 Goal=   None    Shift=    0.000
 RMSDP=3.19D-07 MaxDP=8.40D-06 DE=-1.43D-08 OVMax= 5.10D-05

 Cycle  13  Pass 1  IDiag  1:
 RMSU=  9.09D-08    CP:  9.91D-01  1.34D+00  9.34D-01  8.84D-01  1.38D+00
                    CP:  1.75D+00  1.52D+00  1.64D+00  1.70D+00  1.55D+00
                    CP:  1.40D+00  1.10D+00
 E= -1028.78756248450     Delta-E=       -0.000000002280 Rises=F Damp=F
 DIIS: error= 4.59D-07 at cycle  13 NSaved=  13.
 NSaved=13 IEnMin=13 EnMin= -1028.78756248450     IErMin=13 ErrMin= 4.59D-07
 ErrMax= 4.59D-07  0.00D+00 EMaxC= 1.00D-01 BMatC= 5.99D-11 BMatP= 6.95D-10
 IDIUse=1 WtCom= 1.00D+00 WtEn= 0.00D+00
 Coeff-Com: -0.106D-04 0.242D-04 0.299D-04-0.673D-04-0.355D-03 0.245D-03
 Coeff-Com:  0.313D-02 0.716D-02-0.115D-01-0.461D-01-0.508D-01 0.180D+00
 Coeff-Com:  0.918D+00
 Coeff:     -0.106D-04 0.242D-04 0.299D-04-0.673D-04-0.355D-03 0.245D-03
 Coeff:      0.313D-02 0.716D-02-0.115D-01-0.461D-01-0.508D-01 0.180D+00
 Coeff:      0.918D+00
 Gap=     0.243 Goal=   None    Shift=    0.000
 RMSDP=9.45D-08 MaxDP=2.21D-06 DE=-2.28D-09 OVMax= 1.28D-05

 Cycle  14  Pass 1  IDiag  1:
 RMSU=  3.44D-08    CP:  9.91D-01  1.34D+00  9.34D-01  8.84D-01  1.38D+00
                    CP:  1.75D+00  1.52D+00  1.65D+00  1.71D+00  1.57D+00
                    CP:  1.47D+00  1.26D+00  1.17D+00
 E= -1028.78756248467     Delta-E=       -0.000000000176 Rises=F Damp=F
 DIIS: error= 2.18D-07 at cycle  14 NSaved=  14.
 NSaved=14 IEnMin=14 EnMin= -1028.78756248467     IErMin=14 ErrMin= 2.18D-07
 ErrMax= 2.18D-07  0.00D+00 EMaxC= 1.00D-01 BMatC= 8.88D-12 BMatP= 5.99D-11
 IDIUse=1 WtCom= 1.00D+00 WtEn= 0.00D+00
 Coeff-Com: -0.142D-04 0.288D-04 0.550D-04 0.517D-04-0.190D-03-0.615D-03
 Coeff-Com:  0.288D-03 0.394D-02 0.383D-02-0.827D-02-0.439D-01-0.203D-01
 Coeff-Com:  0.329D+00 0.736D+00
 Coeff:     -0.142D-04 0.288D-04 0.550D-04 0.517D-04-0.190D-03-0.615D-03
 Coeff:      0.288D-03 0.394D-02 0.383D-02-0.827D-02-0.439D-01-0.203D-01
 Coeff:      0.329D+00 0.736D+00
 Gap=     0.243 Goal=   None    Shift=    0.000
 RMSDP=2.02D-08 MaxDP=4.16D-07 DE=-1.76D-10 OVMax= 2.20D-06

 Cycle  15  Pass 1  IDiag  1:
 RMSU=  1.37D-08    CP:  9.91D-01  1.34D+00  9.34D-01  8.84D-01  1.38D+00
                    CP:  1.75D+00  1.52D+00  1.65D+00  1.71D+00  1.58D+00
                    CP:  1.47D+00  1.29D+00  1.29D+00  1.06D+00
 E= -1028.78756248469     Delta-E=       -0.000000000016 Rises=F Damp=F
 DIIS: error= 8.40D-08 at cycle  15 NSaved=  15.
 NSaved=15 IEnMin=15 EnMin= -1028.78756248469     IErMin=15 ErrMin= 8.40D-08
 ErrMax= 8.40D-08  0.00D+00 EMaxC= 1.00D-01 BMatC= 1.41D-12 BMatP= 8.88D-12
 IDIUse=1 WtCom= 1.00D+00 WtEn= 0.00D+00
 Coeff-Com: -0.347D-05 0.638D-05 0.162D-04 0.371D-04-0.922D-05-0.336D-03
 Coeff-Com: -0.680D-03-0.445D-04 0.394D-02 0.735D-02-0.423D-02-0.519D-01
 Coeff-Com: -0.674D-01 0.246D+00 0.867D+00
 Coeff:     -0.347D-05 0.638D-05 0.162D-04 0.371D-04-0.922D-05-0.336D-03
 Coeff:     -0.680D-03-0.445D-04 0.394D-02 0.735D-02-0.423D-02-0.519D-01
 Coeff:     -0.674D-01 0.246D+00 0.867D+00
 Gap=     0.243 Goal=   None    Shift=    0.000
 RMSDP=1.14D-08 MaxDP=2.79D-07 DE=-1.64D-11 OVMax= 1.48D-06

 Cycle  16  Pass 1  IDiag  1:
 RMSU=  5.31D-09    CP:  9.91D-01  1.34D+00  9.34D-01  8.84D-01  1.38D+00
                    CP:  1.75D+00  1.52D+00  1.65D+00  1.71D+00  1.58D+00
                    CP:  1.48D+00  1.30D+00  1.35D+00  1.24D+00  1.09D+00
 E= -1028.78756248470     Delta-E=       -0.000000000007 Rises=F Damp=F
 DIIS: error= 2.98D-08 at cycle  16 NSaved=  16.
 NSaved=16 IEnMin=16 EnMin= -1028.78756248470     IErMin=16 ErrMin= 2.98D-08
 ErrMax= 2.98D-08  0.00D+00 EMaxC= 1.00D-01 BMatC= 1.86D-13 BMatP= 1.41D-12
 IDIUse=1 WtCom= 1.00D+00 WtEn= 0.00D+00
 Coeff-Com:  0.160D-06-0.486D-06 0.647D-07 0.662D-05 0.109D-04-0.485D-04
 Coeff-Com: -0.205D-03-0.351D-03 0.668D-03 0.252D-02 0.285D-02-0.148D-01
 Coeff-Com: -0.475D-01-0.277D-01 0.252D+00 0.832D+00
 Coeff:      0.160D-06-0.486D-06 0.647D-07 0.662D-05 0.109D-04-0.485D-04
 Coeff:     -0.205D-03-0.351D-03 0.668D-03 0.252D-02 0.285D-02-0.148D-01
 Coeff:     -0.475D-01-0.277D-01 0.252D+00 0.832D+00
 Gap=     0.243 Goal=   None    Shift=    0.000
 RMSDP=4.23D-09 MaxDP=1.23D-07 DE=-6.82D-12 OVMax= 5.11D-07

 Error on total polarization charges =  0.00854
 SCF Done:  E(RwB97XD) =  -1028.78756248     A.U. after   16 cycles
            NFock= 16  Conv=0.42D-08     -V/T= 2.0048
 KE= 1.023907551448D+03 PE=-4.615432187656D+03 EE= 1.461002252997D+03
 Leave Link  502 at Mon Jul 13 15:49:27 2020, MaxMem=  7784628224 cpu:             881.2 elap:              88.9
 (Enter /gpfs/loomis/apps/avx/software/Gaussian/16-C.01_AVX/g16/l801.exe)
 DoSCS=F DFT=T ScalE2(SS,OS)=  1.000000  1.000000
 ExpMin= 1.22D-01 ExpMax= 1.11D+05 ExpMxC= 1.07D+03 IAcc=3 IRadAn=         5 AccDes= 0.00D+00
 HarFok:  IExCor=  205 AccDes= 0.00D+00 IRadAn=         5 IDoV=-2 UseB2=F ITyADJ=14
 ICtDFT= 12500011 ScaDFX=  1.000000  1.000000  1.000000  1.000000
 Largest valence mixing into a core orbital is  9.44D-05
 Largest core mixing into a valence orbital is  3.25D-05
 Range of M.O.s used for correlation:    21   273
 NBasis=   273 NAE=    59 NBE=    59 NFC=    20 NFV=     0
 NROrb=    253 NOA=    39 NOB=    39 NVA=   214 NVB=   214

 **** Warning!!: The largest alpha MO coefficient is  0.10295472D+02

 Leave Link  801 at Mon Jul 13 15:49:27 2020, MaxMem=  7784628224 cpu:               1.2 elap:               0.2
 (Enter /gpfs/loomis/apps/avx/software/Gaussian/16-C.01_AVX/g16/l914.exe)
 RHF ground state
 Keep R1, R2, and R3 ints in memory in canonical form, NReq=4262515490.
 FoFCou: FMM=F IPFlag=           0 FMFlag=           0 FMFlg1=           0
         NFxFlg=           0 DoJE=F BraDBF=F KetDBF=F FulRan=T
         wScrn=  0.000000 ICntrl=       600 IOpCl=  0 I1Cent=           0 NGrid=           0
         NMat0=    1 NMatS0=  37401 NMatT0=    0 NMatD0=    1 NMtDS0=    0 NMtDT0=    0
 Symmetry not used in FoFCou.
 Two-electron integral symmetry not used.
 MDV=  7784628224 DFT=T DoStab=F Mixed=T DoRPA=T DoScal=F NonHer=T
 NEqPCM:  Using equilibrium solvation (IEInf=0, Eps=   2.2280, EpsInf=   2.1319)
 Making orbital integer symmetry assigments:
    12 initial guesses have been made.
 Convergence on wavefunction:    0.000001000000000
 Davidson Disk Diagonalization:  ConvIn= 1.00D-06 SkipCon=T Conv= 1.00D-06.
 Max sub-space:  2000 roots to seek:    12 dimension of matrix:        16692
 Iteration     1 Dimension    12 NMult     0 NNew     12
 CISAX will form    12 AO SS matrices at one time.
 NMat=    12 NSing=    12 JSym2X= 0.
 New state      2 was old state      4
 New state      3 was old state      2
 Excitation Energies [eV] at current iteration:
 Root      1 :     3.503150114336888
 Root      2 :     3.961429309569837
 Root      3 :     4.846321050841192
 Root      4 :     5.276310796308214
 Root      5 :     5.442477402281532
 Root      6 :     5.758539497617974
 Root      7 :     5.958425632839364
 Root      8 :     6.459501178367148
 Root      9 :     6.516857852890870
 Root     10 :     6.953161609589745
 Root     11 :     6.955030114812304
 Root     12 :     7.198265387606912
 Iteration     2 Dimension    18 NMult    12 NNew      6
 CISAX will form     6 AO SS matrices at one time.
 NMat=     6 NSing=     6 JSym2X= 0.
 Root      1 not converged, maximum delta is    0.044792297091778
 Root      2 not converged, maximum delta is    0.109123185329771
 Root      3 not converged, maximum delta is    0.076700562116094
 Excitation Energies [eV] at current iteration:
 Root      1 :     2.995517024600768   Change is   -0.507633089736120
 Root      2 :     3.753691103368893   Change is   -0.207738206200944
 Root      3 :     4.360493109078447   Change is   -0.485827941762745
 Iteration     3 Dimension    24 NMult    18 NNew      6
 CISAX will form     6 AO SS matrices at one time.
 NMat=     6 NSing=     6 JSym2X= 0.
 Root      1 not converged, maximum delta is    0.016680441674838
 Root      2 not converged, maximum delta is    0.031363850318841
 Root      3 not converged, maximum delta is    0.025425395509621
 Excitation Energies [eV] at current iteration:
 Root      1 :     2.963405727342632   Change is   -0.032111297258136
 Root      2 :     3.733593302724917   Change is   -0.020097800643976
 Root      3 :     4.331578073624129   Change is   -0.028915035454318
 Iteration     4 Dimension    30 NMult    24 NNew      6
 CISAX will form     6 AO SS matrices at one time.
 NMat=     6 NSing=     6 JSym2X= 0.
 Root      1 not converged, maximum delta is    0.008559915673681
 Root      2 not converged, maximum delta is    0.010841714816037
 Root      3 not converged, maximum delta is    0.017169783190453
 Excitation Energies [eV] at current iteration:
 Root      1 :     2.958336982649889   Change is   -0.005068744692743
 Root      2 :     3.731626590073800   Change is   -0.001966712651117
 Root      3 :     4.325123493091694   Change is   -0.006454580532436
 Iteration     5 Dimension    36 NMult    30 NNew      6
 CISAX will form     6 AO SS matrices at one time.
 NMat=     6 NSing=     6 JSym2X= 0.
 Root      1 not converged, maximum delta is    0.002300699496343
 Root      2 not converged, maximum delta is    0.001594412349699
 Root      3 not converged, maximum delta is    0.009237287243009
 Excitation Energies [eV] at current iteration:
 Root      1 :     2.957710556416367   Change is   -0.000626426233522
 Root      2 :     3.731496251164738   Change is   -0.000130338909062
 Root      3 :     4.323776727691858   Change is   -0.001346765399836
 Iteration     6 Dimension    42 NMult    36 NNew      6
 CISAX will form     6 AO SS matrices at one time.
 NMat=     6 NSing=     6 JSym2X= 0.
 Root      1 not converged, maximum delta is    0.000410221363881
 Root      2 not converged, maximum delta is    0.000349518665283
 Root      3 not converged, maximum delta is    0.002587197729844
 Excitation Energies [eV] at current iteration:
 Root      1 :     2.957666936859563   Change is   -0.000043619556804
 Root      2 :     3.731489585042818   Change is   -0.000006666121920
 Root      3 :     4.323588603339162   Change is   -0.000188124352696
 Iteration     7 Dimension    48 NMult    42 NNew      6
 CISAX will form     6 AO SS matrices at one time.
 NMat=     6 NSing=     6 JSym2X= 0.
 Root      1 not converged, maximum delta is    0.000109799370375
 Root      2 not converged, maximum delta is    0.000137840886761
 Root      3 not converged, maximum delta is    0.000440652036646
 Excitation Energies [eV] at current iteration:
 Root      1 :     2.957663106909887   Change is   -0.000003829949676
 Root      2 :     3.731488983906492   Change is   -0.000000601136327
 Root      3 :     4.323569247736841   Change is   -0.000019355602321
 Iteration     8 Dimension    54 NMult    48 NNew      6
 CISAX will form     6 AO SS matrices at one time.
 NMat=     6 NSing=     6 JSym2X= 0.
 Root      1 not converged, maximum delta is    0.000031495590901
 Root      2 not converged, maximum delta is    0.000015389025603
 Root      3 not converged, maximum delta is    0.000142007190384
 Excitation Energies [eV] at current iteration:
 Root      1 :     2.957662858925339   Change is   -0.000000247984547
 Root      2 :     3.731488953719468   Change is   -0.000000030187024
 Root      3 :     4.323567477152741   Change is   -0.000001770584100
 Iteration     9 Dimension    60 NMult    54 NNew      6
 CISAX will form     6 AO SS matrices at one time.
 NMat=     6 NSing=     6 JSym2X= 0.
 Root      1 not converged, maximum delta is    0.000011014731416
 Root      2 not converged, maximum delta is    0.000002747575614
 Root      3 not converged, maximum delta is    0.000025631406681
 Excitation Energies [eV] at current iteration:
 Root      1 :     2.957662840040943   Change is   -0.000000018884396
 Root      2 :     3.731488952358166   Change is   -0.000000001361302
 Root      3 :     4.323567356372816   Change is   -0.000000120779925
 Iteration    10 Dimension    66 NMult    60 NNew      6
 CISAX will form     6 AO SS matrices at one time.
 NMat=     6 NSing=     6 JSym2X= 0.
 Root      1 not converged, maximum delta is    0.000003864859926
 Root      2 not converged, maximum delta is    0.000001559925276
 Root      3 not converged, maximum delta is    0.000011141137968
 Excitation Energies [eV] at current iteration:
 Root      1 :     2.957662838765192   Change is   -0.000000001275752
 Root      2 :     3.731488952260922   Change is   -0.000000000097244
 Root      3 :     4.323567343563703   Change is   -0.000000012809114
 Iteration    11 Dimension    72 NMult    66 NNew      6
 CISAX will form     6 AO SS matrices at one time.
 NMat=     6 NSing=     6 JSym2X= 0.
 Root      1 has converged.
 Root      2 has converged.
 Root      3 not converged, maximum delta is    0.000002680464838
 Excitation Energies [eV] at current iteration:
 Root      1 :     2.957662838659627   Change is   -0.000000000105565
 Root      2 :     3.731488952248343   Change is   -0.000000000012580
 Root      3 :     4.323567342623375   Change is   -0.000000000940328
 Iteration    12 Dimension    74 NMult    72 NNew      2
 CISAX will form     2 AO SS matrices at one time.
 NMat=     2 NSing=     2 JSym2X= 0.
 Root      1 has converged.
 Root      2 has converged.
 Root      3 has converged.
 Excitation Energies [eV] at current iteration:
 Root      1 :     2.957662838659433   Change is   -0.000000000000194
 Root      2 :     3.731488952248210   Change is   -0.000000000000132
 Root      3 :     4.323567342564812   Change is   -0.000000000058563
 Convergence achieved on expansion vectors.
 ***********************************************************************
 Excited states from <AA,BB:AA,BB> singles matrix:
 ***********************************************************************
 
 1PDM for each excited state written to RWF  633
 Ground to excited state transition densities written to RWF  633
 Ground to excited state transition electric dipole moments (Au):
       state          X           Y           Z        Dip. S.      Osc.
         1         1.1793     -2.1820     -0.0000      6.1520      0.4458
         2         0.0000      0.0000      0.0006      0.0000      0.0000
         3        -1.5414      0.9364      0.0000      3.2528      0.3446
 Ground to excited state transition velocity dipole moments (Au):
       state          X           Y           Z        Dip. S.      Osc.
         1        -0.1244      0.2410      0.0000      0.0736      0.4513
         2        -0.0000     -0.0000      0.0009      0.0000      0.0000
         3         0.2403     -0.1398     -0.0000      0.0773      0.3242
 Ground to excited state transition magnetic dipole moments (Au):
       state          X           Y           Z
         1         0.0000      0.0000     -1.0358
         2         0.3283      0.0196      0.0000
         3        -0.0000      0.0000     -1.2146
 Ground to excited state transition velocity quadrupole moments (Au):
       state          XX          YY          ZZ          XY          XZ          YZ
         1         0.0591      0.6285     -0.0139     -0.2832     -0.0000      0.0000
         2        -0.0000     -0.0000      0.0000      0.0000     -0.0100      0.0162
         3        -0.5141      0.6066      0.0051      0.0662      0.0000      0.0000
 <0|del|b> * <b|rxdel|0> + <0|del|b> * <b|delr+rdel|0>
 Rotatory Strengths (R) in cgs (10**-40 erg-esu-cm/Gauss)
       state          XX          YY          ZZ    R(velocity)    E-M Angle
         1         0.0031     -0.0173      0.0155      0.0004       90.00
         2        -0.0003     -0.0005     -0.0006     -0.0004       90.00
         3         0.0064      0.0059     -0.0061      0.0020       90.00
 1/2[<0|r|b>*<b|rxdel|0> + (<0|rxdel|b>*<b|r|0>)*]
 Rotatory Strengths (R) in cgs (10**-40 erg-esu-cm/Gauss)
       state          XX          YY          ZZ     R(length)
         1        -0.0067      0.0324     -0.0257     -0.0000
         2        -0.0007     -0.0004     -0.0000     -0.0004
         3        -0.0042     -0.0012      0.0122      0.0023
  1/2[<0|del|b>*<b|r|0> + (<0|r|b>*<b|del|0>)*] (Au)
       state          X           Y           Z        Dip. S.   Osc.(frdel)
         1        -0.1467     -0.5260     -0.0000      0.6726      0.4484
         2        -0.0000     -0.0000      0.0000     -0.0000     -0.0000
         3        -0.3703     -0.1309     -0.0000      0.5012      0.3342

 Excitation energies and oscillator strengths:
 
 Excited state symmetry could not be determined.
 Excited State   1:      Singlet-?Sym    2.9577 eV  419.20 nm  f=0.4458  <S**2>=0.000
      59 -> 60         0.69714
 This state for optimization and/or second-order correction.
 Total Energy, E(TD-HF/TD-DFT) =  -1028.67887038    
 Copying the excited state density for this state as the 1-particle RhoCI density.
 
 Excited state symmetry could not be determined.
 Excited State   2:      Singlet-?Sym    3.7315 eV  332.26 nm  f=0.0000  <S**2>=0.000
      57 -> 60         0.68431
      57 -> 62         0.11467
      57 -> 64         0.11783
 
 Excited state symmetry could not be determined.
 Excited State   3:      Singlet-?Sym    4.3236 eV  286.76 nm  f=0.3446  <S**2>=0.000
      58 -> 60         0.68266
 SavETr:  write IOETrn=   770 NScale= 10 NData=  16 NLR=1 NState=    3 LETran=      64.
 The selected state is a singlet.
 CISGrd: IGrad=2 NXY=2 DFT=T
 CISAX will form     1 AO SS matrices at one time.
 NMat=     1 NSing=     1 JSym2X= 0.
 GePol: Maximum number of non-zero 1st derivatives   =     250
 Leave Link  914 at Mon Jul 13 15:52:22 2020, MaxMem=  7784628224 cpu:            1722.7 elap:             175.6
 (Enter /gpfs/loomis/apps/avx/software/Gaussian/16-C.01_AVX/g16/l1002.exe)
 Minotr:  Closed shell wavefunction.
          Computing CIS/TDA/TD derivatives.
          Using Z-Vector for PSCF gradient.
          Skipping F1 and S1 gradient terms here.
          IDoAtm=1111111111111111111111111
 NEqPCM:  Using equilibrium solvation (IEInf=0, Eps=   2.2280, EpsInf=   2.1319)
          Frozen-core window.
          Direct CPHF calculation.
          Differentiating once with respect to electric field.
                with respect to dipole field.
          Differentiating once with respect to nuclear coordinates.
          Requested convergence is 1.0D-10 RMS, and 1.0D-09 maximum.
          NewPWx=F KeepS1=T KeepF1=T KeepIn=T MapXYZ=F SortEE=F KeepMc=T.
 Keep R1 ints in memory in canonical form, NReq=1421499105.
 FoFCou: FMM=F IPFlag=           0 FMFlag=           0 FMFlg1=           0
         NFxFlg=           0 DoJE=F BraDBF=F KetDBF=F FulRan=T
         wScrn=  0.000000 ICntrl=       600 IOpCl=  0 I1Cent=           0 NGrid=           0
         NMat0=    1 NMatS0=  37401 NMatT0=    0 NMatD0=    1 NMtDS0=    0 NMtDT0=    0
 Symmetry not used in FoFCou.
 Two-electron integral symmetry not used.
          MDV=    7784628224 using IRadAn=       5.
          Solving linear equations separately, MaxMat=       0.
          There are     1 degrees of freedom in the 1st order CPHF.  IDoFFX=0 NUNeed=     1.
 LinEq1:  Iter=  0 NonCon=     1 RMS=6.59D-03 Max=4.92D-01 NDo=     1
 AX will form     1 AO Fock derivatives at one time.
 LinEq1:  Iter=  1 NonCon=     1 RMS=3.01D-03 Max=1.71D-01 NDo=     1
 LinEq1:  Iter=  2 NonCon=     1 RMS=1.67D-03 Max=4.40D-02 NDo=     1
 LinEq1:  Iter=  3 NonCon=     1 RMS=7.23D-04 Max=1.86D-02 NDo=     1
 LinEq1:  Iter=  4 NonCon=     1 RMS=4.19D-04 Max=1.31D-02 NDo=     1
 LinEq1:  Iter=  5 NonCon=     1 RMS=2.08D-04 Max=6.54D-03 NDo=     1
 LinEq1:  Iter=  6 NonCon=     1 RMS=8.69D-05 Max=3.71D-03 NDo=     1
 LinEq1:  Iter=  7 NonCon=     1 RMS=4.55D-05 Max=1.56D-03 NDo=     1
 LinEq1:  Iter=  8 NonCon=     1 RMS=1.69D-05 Max=5.50D-04 NDo=     1
 LinEq1:  Iter=  9 NonCon=     1 RMS=8.81D-06 Max=2.65D-04 NDo=     1
 LinEq1:  Iter= 10 NonCon=     1 RMS=3.20D-06 Max=7.93D-05 NDo=     1
 LinEq1:  Iter= 11 NonCon=     1 RMS=1.81D-06 Max=8.33D-05 NDo=     1
 LinEq1:  Iter= 12 NonCon=     1 RMS=8.84D-07 Max=2.97D-05 NDo=     1
 LinEq1:  Iter= 13 NonCon=     1 RMS=3.96D-07 Max=9.40D-06 NDo=     1
 LinEq1:  Iter= 14 NonCon=     1 RMS=1.47D-07 Max=4.42D-06 NDo=     1
 LinEq1:  Iter= 15 NonCon=     1 RMS=8.08D-08 Max=2.32D-06 NDo=     1
 LinEq1:  Iter= 16 NonCon=     1 RMS=3.32D-08 Max=1.20D-06 NDo=     1
 LinEq1:  Iter= 17 NonCon=     1 RMS=1.48D-08 Max=4.86D-07 NDo=     1
 LinEq1:  Iter= 18 NonCon=     1 RMS=6.24D-09 Max=1.53D-07 NDo=     1
 LinEq1:  Iter= 19 NonCon=     1 RMS=2.83D-09 Max=9.83D-08 NDo=     1
 LinEq1:  Iter= 20 NonCon=     1 RMS=1.37D-09 Max=2.94D-08 NDo=     1
 LinEq1:  Iter= 21 NonCon=     1 RMS=4.21D-10 Max=1.33D-08 NDo=     1
 LinEq1:  Iter= 22 NonCon=     1 RMS=1.79D-10 Max=5.45D-09 NDo=     1
 LinEq1:  Iter= 23 NonCon=     1 RMS=7.66D-11 Max=1.55D-09 NDo=     1
 LinEq1:  Iter= 24 NonCon=     0 RMS=2.35D-11 Max=6.02D-10 NDo=     1
 Linear equations converged to 1.000D-10 1.000D-09 after    24 iterations.
 End of Minotr F.D. properties file   721 does not exist.
 End of Minotr F.D. properties file   722 does not exist.
 End of Minotr F.D. properties file   788 does not exist.
 Leave Link 1002 at Mon Jul 13 15:54:06 2020, MaxMem=  7784628224 cpu:             764.7 elap:             103.5
 (Enter /gpfs/loomis/apps/avx/software/Gaussian/16-C.01_AVX/g16/l601.exe)
 Copying SCF densities to generalized density rwf, IOpCl= 0 IROHF=0.

 **********************************************************************

            Population analysis using the SCF Density.

 **********************************************************************

 Alpha  occ. eigenvalues --  -89.10208 -19.21075 -14.51427 -10.41314 -10.38063
 Alpha  occ. eigenvalues --  -10.36257 -10.35905 -10.33373 -10.33150 -10.32620
 Alpha  occ. eigenvalues --  -10.32469 -10.31678 -10.31112 -10.30635 -10.29496
 Alpha  occ. eigenvalues --  -10.28802  -8.12302  -6.07158  -6.06802  -6.06325
 Alpha  occ. eigenvalues --   -1.13472  -1.09278  -0.98486  -0.95854  -0.93343
 Alpha  occ. eigenvalues --   -0.89187  -0.86878  -0.83594  -0.81478  -0.76379
 Alpha  occ. eigenvalues --   -0.73573  -0.72095  -0.68575  -0.68012  -0.65578
 Alpha  occ. eigenvalues --   -0.60913  -0.59636  -0.56863  -0.55808  -0.55727
 Alpha  occ. eigenvalues --   -0.54923  -0.53909  -0.53020  -0.50378  -0.49207
 Alpha  occ. eigenvalues --   -0.48876  -0.48626  -0.46911  -0.45345  -0.44936
 Alpha  occ. eigenvalues --   -0.44142  -0.43234  -0.42361  -0.40228  -0.36740
 Alpha  occ. eigenvalues --   -0.33538  -0.32046  -0.31422  -0.26233
 Alpha virt. eigenvalues --   -0.01919   0.03699   0.05460   0.06584   0.09093
 Alpha virt. eigenvalues --    0.10588   0.14258   0.14854   0.16688   0.17463
 Alpha virt. eigenvalues --    0.18702   0.20190   0.21088   0.21257   0.22980
 Alpha virt. eigenvalues --    0.23478   0.24321   0.25512   0.28143   0.28966
 Alpha virt. eigenvalues --    0.31290   0.33809   0.35347   0.35590   0.36512
 Alpha virt. eigenvalues --    0.37850   0.39083   0.40250   0.41585   0.43761
 Alpha virt. eigenvalues --    0.46938   0.47881   0.50851   0.51292   0.51466
 Alpha virt. eigenvalues --    0.52641   0.52799   0.53150   0.54427   0.54972
 Alpha virt. eigenvalues --    0.56330   0.56381   0.56549   0.56798   0.57760
 Alpha virt. eigenvalues --    0.58062   0.58526   0.59280   0.59702   0.59706
 Alpha virt. eigenvalues --    0.61138   0.61352   0.61919   0.62804   0.63043
 Alpha virt. eigenvalues --    0.64916   0.66352   0.66982   0.68655   0.68672
 Alpha virt. eigenvalues --    0.70582   0.70808   0.71947   0.72669   0.72995
 Alpha virt. eigenvalues --    0.74261   0.75055   0.75850   0.76349   0.77966
 Alpha virt. eigenvalues --    0.78607   0.79740   0.80909   0.81007   0.82928
 Alpha virt. eigenvalues --    0.83972   0.87943   0.89966   0.91415   0.92788
 Alpha virt. eigenvalues --    0.94163   0.94352   0.95934   0.96880   0.97097
 Alpha virt. eigenvalues --    0.98387   0.98985   1.00401   1.00921   1.01337
 Alpha virt. eigenvalues --    1.02626   1.05305   1.05368   1.06308   1.07321
 Alpha virt. eigenvalues --    1.08103   1.09663   1.09950   1.10528   1.10934
 Alpha virt. eigenvalues --    1.12388   1.13087   1.14303   1.14593   1.14988
 Alpha virt. eigenvalues --    1.16734   1.19738   1.19945   1.22541   1.23902
 Alpha virt. eigenvalues --    1.25889   1.28094   1.32141   1.33005   1.34184
 Alpha virt. eigenvalues --    1.35537   1.37004   1.38692   1.40686   1.46290
 Alpha virt. eigenvalues --    1.48855   1.49593   1.53065   1.54481   1.54617
 Alpha virt. eigenvalues --    1.56541   1.57172   1.57317   1.58176   1.59022
 Alpha virt. eigenvalues --    1.60481   1.61318   1.63576   1.65250   1.67367
 Alpha virt. eigenvalues --    1.67992   1.70049   1.70460   1.71160   1.71741
 Alpha virt. eigenvalues --    1.71924   1.72660   1.73430   1.73812   1.75148
 Alpha virt. eigenvalues --    1.77951   1.79520   1.80159   1.81078   1.81673
 Alpha virt. eigenvalues --    1.82815   1.84411   1.84434   1.85234   1.85678
 Alpha virt. eigenvalues --    1.87343   1.89037   1.89944   1.91498   1.91738
 Alpha virt. eigenvalues --    1.93203   1.94188   1.95161   1.96415   1.97369
 Alpha virt. eigenvalues --    1.99180   1.99839   1.99955   2.03106   2.04147
 Alpha virt. eigenvalues --    2.06624   2.07657   2.09671   2.10157   2.15700
 Alpha virt. eigenvalues --    2.16668   2.17091   2.21593   2.22456   2.23540
 Alpha virt. eigenvalues --    2.26611   2.28344   2.32674   2.37156   2.39102
 Alpha virt. eigenvalues --    2.41926   2.42292   2.46074   2.48119   2.49075
 Alpha virt. eigenvalues --    2.51530   2.53676   2.54952   2.59077   2.61902
 Alpha virt. eigenvalues --    2.62554   2.70649   2.74235   2.74718   2.78782
 Alpha virt. eigenvalues --    2.81011   2.82106   2.84820   2.86156   2.89631
 Alpha virt. eigenvalues --    2.91870   3.01287   3.15929   3.27636   3.47931
 Alpha virt. eigenvalues --    3.48521   3.56666   3.59536   3.74520
          Condensed to atoms (all electrons):
               1          2          3          4          5          6
     1  C    4.734554   0.491635   0.006765  -0.052216  -0.013291   0.509970
     2  C    0.491635   5.323488   0.298513  -0.049321  -0.071011  -0.006026
     3  C    0.006765   0.298513   4.906377   0.510614  -0.001701  -0.065357
     4  C   -0.052216  -0.049321   0.510614   4.785769   0.517140  -0.011227
     5  C   -0.013291  -0.071011  -0.001701   0.517140   4.730698   0.498024
     6  C    0.509970  -0.006026  -0.065357  -0.011227   0.498024   4.735380
     7  H    0.403733  -0.038592   0.008985  -0.000648   0.008003  -0.039110
     8  H   -0.000557   0.010518  -0.029947   0.395715  -0.040425   0.007360
     9  H    0.008875  -0.000582   0.008313  -0.037980   0.405236  -0.044196
    10  H   -0.042543   0.009332  -0.000482   0.008287  -0.041957   0.407489
    11  N    0.003817  -0.034662   0.363458  -0.050590   0.002253   0.000266
    12  S   -0.070972   0.330098  -0.123584   0.004967   0.000209   0.004321
    13  C   -0.000239   0.000220   0.013312  -0.000354   0.000010   0.000002
    14  C   -0.000010   0.000110   0.000492   0.000007  -0.000000  -0.000000
    15  C    0.000004  -0.000238   0.000056   0.000031  -0.000000   0.000000
    16  C    0.000000  -0.000006   0.000004  -0.000000   0.000000   0.000000
    17  H   -0.000011   0.000209   0.000003   0.000001   0.000000   0.000000
    18  C    0.000000   0.000009  -0.000025  -0.000000  -0.000000  -0.000000
    19  C   -0.000000   0.000000   0.000002   0.000000  -0.000000   0.000000
    20  H   -0.000000  -0.000000  -0.000000  -0.000000  -0.000000  -0.000000
    21  H   -0.000000   0.000000  -0.000001  -0.000000  -0.000000   0.000000
    22  H    0.000000  -0.000000  -0.000000  -0.000000   0.000000  -0.000000
    23  C    0.003447  -0.046928  -0.111349   0.001657   0.000295  -0.000284
    24  O    0.000002  -0.000171  -0.000234   0.000019   0.000001  -0.000000
    25  H    0.000192   0.010466  -0.042163  -0.005556  -0.000113  -0.000012
               7          8          9         10         11         12
     1  C    0.403733  -0.000557   0.008875  -0.042543   0.003817  -0.070972
     2  C   -0.038592   0.010518  -0.000582   0.009332  -0.034662   0.330098
     3  C    0.008985  -0.029947   0.008313  -0.000482   0.363458  -0.123584
     4  C   -0.000648   0.395715  -0.037980   0.008287  -0.050590   0.004967
     5  C    0.008003  -0.040425   0.405236  -0.041957   0.002253   0.000209
     6  C   -0.039110   0.007360  -0.044196   0.407489   0.000266   0.004321
     7  H    0.648120   0.000027  -0.000148  -0.010948  -0.000084  -0.007827
     8  H    0.000027   0.638535  -0.012074  -0.000103  -0.003848  -0.000238
     9  H   -0.000148  -0.012074   0.655668  -0.011988  -0.000098   0.000019
    10  H   -0.010948  -0.000103  -0.011988   0.654637   0.000004  -0.000155
    11  N   -0.000084  -0.003848  -0.000098   0.000004   6.005121  -0.049553
    12  S   -0.007827  -0.000238   0.000019  -0.000155  -0.049553  15.453241
    13  C   -0.000001   0.000030  -0.000000  -0.000000  -0.028093  -0.068765
    14  C    0.000001   0.000000   0.000000  -0.000000   0.003695  -0.011812
    15  C   -0.000000  -0.000004   0.000000   0.000000  -0.006897   0.005329
    16  C    0.000000   0.000000  -0.000000  -0.000000  -0.000075   0.000348
    17  H    0.000001   0.000000   0.000000  -0.000000   0.000246   0.008438
    18  C    0.000000  -0.000000   0.000000  -0.000000  -0.000487  -0.000186
    19  C   -0.000000   0.000000  -0.000000   0.000000   0.000027   0.000023
    20  H    0.000000  -0.000000   0.000000   0.000000   0.000001   0.000010
    21  H   -0.000000   0.000000  -0.000000   0.000000   0.000010   0.000004
    22  H    0.000000  -0.000000   0.000000  -0.000000  -0.000000  -0.000001
    23  C    0.000232  -0.000617   0.000006   0.000005   0.524916   0.315248
    24  O    0.000000  -0.000133   0.000000  -0.000000  -0.049266  -0.000093
    25  H    0.000006   0.000716  -0.000008  -0.000000   0.357871   0.005354
              13         14         15         16         17         18
     1  C   -0.000239  -0.000010   0.000004   0.000000  -0.000011   0.000000
     2  C    0.000220   0.000110  -0.000238  -0.000006   0.000209   0.000009
     3  C    0.013312   0.000492   0.000056   0.000004   0.000003  -0.000025
     4  C   -0.000354   0.000007   0.000031  -0.000000   0.000001  -0.000000
     5  C    0.000010  -0.000000  -0.000000   0.000000   0.000000  -0.000000
     6  C    0.000002  -0.000000   0.000000   0.000000   0.000000  -0.000000
     7  H   -0.000001   0.000001  -0.000000   0.000000   0.000001   0.000000
     8  H    0.000030   0.000000  -0.000004   0.000000   0.000000  -0.000000
     9  H   -0.000000   0.000000   0.000000  -0.000000   0.000000   0.000000
    10  H   -0.000000  -0.000000   0.000000  -0.000000  -0.000000  -0.000000
    11  N   -0.028093   0.003695  -0.006897  -0.000075   0.000246  -0.000487
    12  S   -0.068765  -0.011812   0.005329   0.000348   0.008438  -0.000186
    13  C    5.463273   0.425186   0.176409  -0.006378  -0.039449  -0.040660
    14  C    0.425186   4.873674   0.007852   0.538926   0.397512  -0.061067
    15  C    0.176409   0.007852   4.737033  -0.053916   0.005826   0.459042
    16  C   -0.006378   0.538926  -0.053916   4.759325  -0.030544  -0.019175
    17  H   -0.039449   0.397512   0.005826  -0.030544   0.669338  -0.000820
    18  C   -0.040660  -0.061067   0.459042  -0.019175  -0.000820   4.906282
    19  C   -0.053663  -0.019293  -0.004364   0.478479   0.007968   0.501099
    20  H    0.009044  -0.036315  -0.000155   0.400221  -0.011727   0.008130
    21  H    0.015587  -0.000664  -0.025201   0.007582   0.000052   0.372676
    22  H   -0.001731   0.009870   0.008552  -0.045953  -0.000197  -0.039811
    23  C    0.362692  -0.093358  -0.071594   0.006064  -0.022140   0.010345
    24  O   -0.100409   0.006555   0.647659  -0.000166  -0.000074  -0.064519
    25  H   -0.044103  -0.000931  -0.010265   0.000066  -0.000092   0.003646
              19         20         21         22         23         24
     1  C   -0.000000  -0.000000  -0.000000   0.000000   0.003447   0.000002
     2  C    0.000000  -0.000000   0.000000  -0.000000  -0.046928  -0.000171
     3  C    0.000002  -0.000000  -0.000001  -0.000000  -0.111349  -0.000234
     4  C    0.000000  -0.000000  -0.000000  -0.000000   0.001657   0.000019
     5  C   -0.000000  -0.000000  -0.000000   0.000000   0.000295   0.000001
     6  C    0.000000  -0.000000   0.000000  -0.000000  -0.000284  -0.000000
     7  H   -0.000000   0.000000  -0.000000   0.000000   0.000232   0.000000
     8  H    0.000000  -0.000000   0.000000  -0.000000  -0.000617  -0.000133
     9  H   -0.000000   0.000000  -0.000000   0.000000   0.000006   0.000000
    10  H    0.000000   0.000000   0.000000  -0.000000   0.000005  -0.000000
    11  N    0.000027   0.000001   0.000010  -0.000000   0.524916  -0.049266
    12  S    0.000023   0.000010   0.000004  -0.000001   0.315248  -0.000093
    13  C   -0.053663   0.009044   0.015587  -0.001731   0.362692  -0.100409
    14  C   -0.019293  -0.036315  -0.000664   0.009870  -0.093358   0.006555
    15  C   -0.004364  -0.000155  -0.025201   0.008552  -0.071594   0.647659
    16  C    0.478479   0.400221   0.007582  -0.045953   0.006064  -0.000166
    17  H    0.007968  -0.011727   0.000052  -0.000197  -0.022140  -0.000074
    18  C    0.501099   0.008130   0.372676  -0.039811   0.010345  -0.064519
    19  C    4.745548  -0.046556  -0.046580   0.403060   0.000485   0.004113
    20  H   -0.046556   0.686326  -0.000149  -0.012393  -0.000398   0.000001
    21  H   -0.046580  -0.000149   0.679579  -0.012688  -0.000486   0.004873
    22  H    0.403060  -0.012393  -0.012688   0.674192   0.000004  -0.000069
    23  C    0.000485  -0.000398  -0.000486   0.000004   5.088011  -0.013151
    24  O    0.004113   0.000001   0.004873  -0.000069  -0.013151   7.870756
    25  H   -0.000362  -0.000001   0.000003   0.000006   0.027372   0.103213
              25
     1  C    0.000192
     2  C    0.010466
     3  C   -0.042163
     4  C   -0.005556
     5  C   -0.000113
     6  C   -0.000012
     7  H    0.000006
     8  H    0.000716
     9  H   -0.000008
    10  H   -0.000000
    11  N    0.357871
    12  S    0.005354
    13  C   -0.044103
    14  C   -0.000931
    15  C   -0.010265
    16  C    0.000066
    17  H   -0.000092
    18  C    0.003646
    19  C   -0.000362
    20  H   -0.000001
    21  H    0.000003
    22  H    0.000006
    23  C    0.027372
    24  O    0.103213
    25  H    0.540192
 Mulliken charges:
               1
     1  C    0.016848
     2  C   -0.227061
     3  C    0.257949
     4  C   -0.016313
     5  C    0.006628
     6  C    0.003400
     7  H    0.028251
[...]
 311,-0.00524915,-0.00000003,-0.00309613,0.00093917,0.00000003,-0.00010
 643,-0.00255436,0.,0.00152053,0.00087628,0.,-0.00005085,-0.00004366,0.
 ,0.00006642,0.00003137,0.,0.00003515,-0.00004197,0.,0.00005135,-0.0000
 0062,0.,-0.00120174,0.00830394,0.00000009,-0.00211770,-0.00002254,-0.0
 0000002,-0.05146475,0.01659600,0.00000017,-0.19652882,0.12296812,0.000
 00129,0.00587621,0.00135747,-0.00000014,0.71380189,0.00026841,-0.00222
 357,0.00000005,-0.00895467,-0.00252617,0.00000008,-0.00736885,0.014346
 49,0.00000008,0.00794690,-0.00179572,-0.00000006,0.00008024,0.00581589
 ,0.00000001,-0.00264144,-0.00250063,0.,0.00001280,0.00012512,0.0000000
 1,-0.00006388,-0.00009366,0.,-0.00002496,0.00010193,0.,-0.00003793,-0.
 00002472,-0.00000001,0.00793645,-0.01182718,-0.00000016,0.00210314,-0.
 00255328,0.00000005,0.05113865,0.02045493,0.00000034,0.03458698,-0.212
 00218,-0.00000183,0.02419843,-0.00863880,0.00000046,0.05752101,0.63279
 105,0.,-0.00000003,-0.00003263,-0.00000009,-0.00000001,0.00011595,-0.0
 0000006,0.00000013,-0.00041738,0.00000008,-0.00000002,-0.00028792,0.,0
 .00000006,0.00000232,-0.00000003,-0.00000002,0.00000944,0.,0.,-0.00003
 283,0.,0.,-0.00001890,0.,0.,0.00002518,0.,0.,0.00003112,0.00000003,-0.
 00000015,0.00248883,0.00000002,-0.00000002,-0.00073821,0.00000058,0.00
 000028,0.00249469,0.00000018,-0.00000159,-0.05252461,0.00000010,-0.000
 00002,-0.00506518,0.00000024,0.00000372,0.12437623,0.00026174,0.000031
 70,0.,-0.00067515,0.00029023,0.00000002,0.00037865,-0.00023581,0.,-0.0
 0006929,0.00013245,0.,0.00006493,-0.00008191,0.,0.00001918,-0.00004414
 ,0.,-0.00002145,-0.00000855,0.,0.00003755,0.00000212,0.,0.00001283,-0.
 00000484,0.,0.00003796,-0.00001092,0.,0.00061638,0.00074505,0.00000001
 ,-0.00124484,0.00172151,0.,-0.00371303,-0.02924419,-0.00000040,-0.0826
 0876,-0.08104324,-0.00000087,-0.00458538,0.00302409,0.00000006,0.01005
 613,0.02207256,0.00000026,0.08489560,0.00010114,-0.00001278,0.,-0.0001
 8387,0.00068805,0.,0.00036303,-0.00004966,-0.00000001,0.00001201,0.000
 08166,0.,0.00002332,0.00008065,0.,-0.00012182,-0.00004742,0.,-0.000018
 68,0.00001289,0.,0.00002984,-0.00000450,0.,-0.00000057,0.00000186,0.,0
 .00000781,0.00000118,0.,0.00005913,0.00045814,0.00000004,0.00071916,-0
 .00104444,-0.00000002,0.00065963,-0.00414950,-0.00000012,-0.07961280,-
 0.31540918,-0.00000339,0.00001037,0.00253654,-0.00000006,-0.01012463,-
 0.01697184,-0.00000025,0.08394183,0.33551777,0.,0.,-0.00000606,0.00000
 003,0.00000002,-0.00054114,0.00000003,-0.00000006,0.00052989,-0.000000
 03,0.,0.00012619,0.,-0.00000002,-0.00001737,0.,0.,0.00000924,0.,0.,0.0
 0002343,0.,0.,0.00001440,0.,0.,-0.00000452,0.,0.,-0.00000315,0.,0.0000
 0011,-0.00222559,-0.00000002,0.,0.00190328,-0.00000006,-0.00000026,0.0
 0674277,-0.00000076,-0.00000339,-0.03480220,0.,-0.00000002,0.00912316,
 -0.00000019,-0.00000013,0.00363549,0.00000098,0.00000379,0.02001537,-0
 .00096973,0.00006080,0.00000007,-0.00543655,-0.00341746,0.00000003,-0.
 00536866,0.01323419,-0.00000004,0.00590403,-0.00136798,-0.00000004,-0.
 00015680,0.00282744,0.00000001,0.00033913,-0.00175716,-0.00000002,-0.0
 0009628,0.00010546,0.,0.00004072,-0.00003477,0.,0.00010181,0.00001139,
 0.,0.00006998,-0.00005954,-0.00000001,0.01233749,-0.00203903,0.0000000
 6,0.00031599,-0.00331287,0.00000008,0.02273220,0.01528206,0.00000005,-
 0.03895157,0.01980284,0.00000015,-0.14410822,0.08037856,0.00000059,-0.
 00452606,-0.08403574,-0.00000067,-0.00058833,0.00008614,0.00000006,0.6
 6813481,0.00053705,-0.00007784,0.,-0.00014259,-0.00018493,0.,0.0006441
 1,-0.00096858,0.00000002,-0.00075911,0.00018932,0.,0.00012233,-0.00030
 875,0.,-0.00020954,0.00013173,0.,-0.00000466,0.00001680,0.,-0.00000370
 ,-0.00000133,0.,-0.00001012,-0.00000480,0.,0.00001974,0.00000273,0.,0.
 00006154,0.00040001,-0.00000005,0.00148254,-0.00118502,-0.00000004,0.0
 1628775,-0.02792201,-0.00000004,0.00536437,-0.00180997,-0.00000006,0.0
 8458393,-0.22698835,-0.00000069,-0.03576311,-0.00917274,-0.00000016,-0
 .00026488,0.00069639,0.,0.05166321,0.70067082,0.00000004,-0.00000002,0
 .00017278,-0.00000002,0.00000004,0.00043581,0.00000007,-0.00000010,0.0
 0126367,-0.00000004,0.,-0.00013823,0.00000001,0.,-0.00006745,-0.000000
 03,0.00000001,-0.00010570,0.,0.,0.00011737,0.,0.,0.00007356,0.,0.,0.00
 000747,0.,0.,-0.00005663,-0.00000012,0.00000020,-0.00361435,0.00000002
 ,-0.00000011,0.00156984,0.00000020,-0.00000068,0.01294315,-0.00000021,
 0.00000021,-0.00500127,0.00000051,-0.00000064,-0.06645013,-0.00000016,
 -0.00000035,0.00698357,0.,0.00000002,-0.00191816,0.00000215,0.00000483
 ,0.10819533,0.00074863,0.00070469,-0.00000006,0.00692133,0.00340515,-0
 .00000005,0.00730224,-0.01537737,-0.00000003,-0.00727621,0.00171322,0.
 00000006,0.00015676,-0.00415617,-0.00000001,0.00063595,0.00226729,0.00
 000002,0.00005724,-0.00009045,-0.00000001,0.00001995,0.00006014,0.,-0.
 00007837,-0.00003311,0.,-0.00002733,0.00005262,0.00000001,-0.01321944,
 0.00929882,0.00000016,0.00013428,0.00185440,-0.00000008,-0.01324118,-0
 .01375044,-0.00000022,0.05660541,0.00739420,0.00000009,-0.05874883,0.0
 1474224,-0.00000032,-0.14146138,-0.00417525,0.00000006,-0.00324830,0.0
 0456444,0.00000002,-0.32095903,-0.07817782,-0.00000106,0.67811377,0.00
 007180,0.00109862,-0.00000003,0.00388369,0.00146547,-0.00000001,0.0039
 6176,-0.00671410,0.00000003,-0.00409997,0.00103723,0.00000003,0.000010
 43,-0.00294017,-0.00000001,0.00122819,0.00113554,0.,-0.00001770,-0.000
 04594,0.,0.00004568,0.00003103,0.,0.00001066,-0.00005650,0.,0.00003019
 ,0.00002144,0.,-0.00189198,0.00681140,-0.00000007,-0.00175420,0.000919
 14,-0.00000002,-0.03008943,-0.00845684,-0.00000003,0.05966166,-0.05520
 981,-0.00000042,-0.00879508,0.02449679,-0.00000023,-0.09675360,-0.3145
 0458,-0.00000138,0.00332447,-0.00093247,-0.00000012,-0.01179538,-0.132
 01773,-0.00000063,-0.05680709,0.69492733,0.,0.00000001,0.00013084,0.00
 000004,0.,-0.00043538,0.00000002,-0.00000004,-0.00104324,-0.00000004,0
 .00000001,0.00007671,0.,-0.00000003,0.00009150,0.00000002,0.,0.0000155
 0,0.,0.,-0.00005710,0.,0.,-0.00011509,0.,0.,0.00000073,0.,0.,0.0000126
 2,-0.00000002,0.00000003,0.00126052,0.,0.00000003,0.00047291,-0.000000
 29,-0.00000009,-0.00144251,0.00000061,-0.00000052,0.00843826,-0.000000
 24,0.00000040,0.00178472,-0.00000067,-0.00000140,-0.05875036,0.0000000
 2,-0.00000007,0.00379813,-0.00000050,-0.00000081,-0.04980780,0.0000005
 1,0.00000352,0.11457709,0.00005930,-0.00011049,0.,-0.00010511,0.000131
 78,0.,-0.00003586,-0.00008611,0.,0.00002719,0.00001914,0.,0.00000623,0
 .00010099,0.,-0.00014735,0.00000021,0.,0.00000673,0.00000512,0.,-0.000
 00162,-0.00000389,0.,-0.00001041,0.00000800,0.,-0.00000913,0.00000512,
 0.,-0.00019591,0.00041177,0.,0.00007078,0.00000987,0.,-0.00030677,0.00
 358937,0.00000004,-0.01542794,-0.00908838,-0.00000008,0.00054904,0.000
 45725,0.00000002,-0.32763481,-0.07386008,-0.00000061,0.00073185,0.0001
 2294,0.,0.00152812,-0.00123803,-0.00000002,-0.00329363,0.00207414,0.,0
 .34450312,0.00001752,-0.00001513,0.,-0.00008522,-0.00008087,0.,0.00001
 069,0.00022757,0.,0.00006761,-0.00006177,0.,0.00001417,0.00006031,0.,-
 0.00002919,-0.00003269,0.,0.00000078,-0.00000112,0.,-0.00000076,0.,0.,
 0.00000169,-0.00000286,0.,0.00000106,-0.00000095,0.,0.00035603,-0.0004
 1668,0.,0.00003231,0.00003247,0.,0.00335954,-0.00361125,-0.00000008,0.
 02174370,0.00882100,0.00000004,0.00070429,-0.00075761,0.,-0.07378862,-
 0.07924083,-0.00000033,-0.00016219,0.00084902,0.00000003,-0.00049503,-
 0.00545752,-0.00000008,-0.02928175,-0.00086812,-0.00000005,0.07851437,
 0.07853266,0.,0.,-0.00001578,-0.00000001,0.,0.00008362,0.,0.,0.0004415
 9,0.,0.,0.00007278,0.,0.,-0.00005820,0.,0.,0.00000814,0.,0.,0.00001074
 ,0.,0.,0.00003641,0.,0.,-0.00001847,0.,0.,-0.00000592,0.,-0.00000001,0
 .00005350,0.,0.,-0.00023444,0.,-0.00000010,0.00436515,0.00000022,-0.00
 000004,0.00525012,0.,0.00000002,-0.00152928,-0.00000069,-0.00000031,-0
 .03517694,0.,0.00000004,-0.00238425,0.00000003,-0.00000003,0.00644447,
 -0.00000020,-0.00000008,0.00625500,0.00000065,0.00000043,0.02182893,-0
 .00010746,0.00003506,0.,0.00010554,0.00005331,0.,-0.00010675,0.0000759
 5,0.,0.00003594,0.00000012,0.,-0.00001910,-0.00002650,0.,0.00007296,0.
 00000826,0.,0.00000051,-0.00000470,0.,-0.00000376,-0.00000025,0.,0.000
 00223,-0.00000101,0.,-0.00000344,-0.00000107,0.,0.00026614,-0.00024444
 ,-0.00000001,-0.00030637,0.00015816,0.00000001,-0.00385444,0.00291306,
 -0.00000001,-0.00007767,0.00026179,0.,0.00876921,0.02215053,0.00000026
 ,-0.00577936,-0.00000287,-0.00000003,0.00010210,-0.00008144,0.,-0.0790
 2603,-0.07914950,-0.00000100,-0.00181553,-0.02876203,-0.00000027,-0.00
 029631,-0.00143853,0.,0.07819032,0.00004361,0.00005016,0.,-0.00011258,
 -0.00011539,0.,0.00005927,0.00006830,0.,0.00000281,-0.00000469,0.,0.00
 000412,-0.00003282,0.,0.00004909,-0.00002290,0.,-0.00000636,0.00000314
 ,0.,0.00000646,0.00000298,0.,0.00000741,-0.00000333,0.,0.00001031,-0.0
 0000354,0.,-0.00012229,0.00011945,0.,0.00023788,-0.00021831,0.,0.00403
 595,-0.00188494,0.,0.00025938,0.00037253,0.,-0.01173504,-0.01686185,-0
 .00000032,-0.00084933,0.00128654,-0.00000004,-0.00005772,-0.00009330,0
 .,-0.07742527,-0.32458965,-0.00000281,0.00240583,-0.00159618,-0.000000
 10,0.00005691,-0.00021241,0.,0.08472910,0.34034928,0.,0.,-0.00031731,-
 0.00000002,-0.00000002,-0.00024560,-0.00000003,0.00000005,0.00002968,0
 .00000002,0.,0.00000783,0.,0.00000001,-0.00003902,0.,0.,0.00007200,0.,
 0.,-0.00003070,0.,0.,0.00003250,0.,0.,-0.00000407,0.,0.,0.00006125,0.0
 0000005,-0.00000006,0.00059243,0.,0.,-0.00080498,-0.00000005,0.0000000
 7,0.00293219,0.00000006,-0.00000005,-0.00006971,-0.00000017,-0.0000001
 3,0.00388899,-0.00000004,-0.00000005,0.00566141,0.,0.,0.00012822,-0.00
 000102,-0.00000310,-0.03153602,0.00000016,0.,0.00416259,0.,0.,-0.00042
 631,0.00000100,0.00000318,0.02108590,0.00004605,-0.00004138,0.,-0.0000
 2456,0.00010880,0.,0.00014479,-0.00009159,0.,-0.00004066,0.00001139,0.
 ,0.00001123,0.00002575,0.,-0.00007156,0.00000659,0.,0.00000188,0.00000
 301,0.,0.00000401,-0.00000323,0.,-0.00000645,0.00000277,0.,-0.00000398
 ,0.00000396,0.,0.00011350,0.00047648,0.00000001,-0.00004334,0.00011066
 ,0.,-0.00027640,-0.00054714,-0.00000001,0.00065593,-0.00219444,-0.0000
 0002,-0.00243727,-0.00415556,0.,0.00883772,-0.00845264,-0.00000005,0.0
 0032061,-0.00034910,0.,-0.01486501,0.02381244,0.00000009,-0.20144860,0
 .14517461,0.00000064,0.00071462,0.00032856,0.00000001,0.00105787,-0.00
 028075,0.,0.20948829,-0.00000801,0.00008676,0.,0.00020115,0.00010074,0
 .,0.00023174,-0.00040670,0.,-0.00021346,0.00006120,0.,-0.00000027,-0.0
 0018221,0.,0.00010929,0.00006316,0.,-0.00000585,-0.00000458,0.,0.00000
 644,0.00000448,0.,0.00000550,-0.00000449,0.,0.00000712,-0.00000284,0.,
 -0.00030205,0.00019446,0.,-0.00010998,0.00002639,0.,-0.00071908,0.0002
 0107,0.,-0.00269461,-0.00438311,-0.00000005,-0.00245585,-0.00028123,-0
 .00000005,0.02352054,-0.01485263,-0.00000010,0.00107987,-0.00102125,-0
 .00000002,-0.00777644,0.00886134,0.00000002,0.14380656,-0.20347254,-0.
 00000079,-0.00015431,0.00101219,0.00000003,0.00032537,0.00065232,0.000
 00003,-0.15463909,0.21257457,0.,0.,0.00000318,0.00000001,0.,0.00008200
 ,0.,0.,0.00013626,0.,0.,0.00001328,0.,0.,-0.00000347,0.00000001,0.,-0.
 00000525,0.,0.,0.00000746,0.,0.,0.00001657,0.,0.,-0.00000071,0.,0.,-0.
 00001131,0.00000003,0.00000002,-0.00022880,0.,0.,-0.00010069,0.0000000
 3,0.,-0.00093330,0.,-0.00000005,0.00590302,-0.00000006,-0.00000013,0.0
 0658246,0.00000013,-0.00000013,0.00301564,0.,0.,0.00061846,-0.00000011
 ,0.00000007,0.00344821,0.00000064,-0.00000080,-0.03320252,0.,0.0000000
 3,-0.00400760,0.00000002,0.00000004,-0.00348743,-0.00000065,0.00000092
 ,0.02311997,-0.00325960,-0.00650587,-0.00000004,-0.00658825,0.02107872
 ,0.00000014,-0.06138489,0.03958964,0.00000089,0.00687048,-0.00290994,0
 .,-0.00089485,0.00489023,0.00000001,-0.00516359,-0.00169569,0.00000002
 ,0.00027705,-0.00063268,0.,-0.00071233,-0.00007632,0.,0.00014406,-0.00
 009002,0.,-0.00064910,-0.00008178,0.00000001,-0.35740834,-0.04530631,0
 .00000206,-0.05057689,-0.05386951,0.00000005,-0.17932385,0.08533829,0.
 00000190,-0.04481697,0.03137795,0.00000059,0.03940465,0.01742237,0.000
 00024,-0.00327650,-0.01068249,0.00000002,0.00026307,0.00061955,-0.0000
 0009,-0.00483852,-0.00389788,-0.00000015,-0.00029995,0.00398446,0.0000
 0007,-0.00062498,0.00061888,-0.00000002,0.00068062,-0.00102376,0.00000
 002,0.00004631,-0.00004272,-0.00000004,0.69905059,-0.00001235,0.000367
 20,-0.00000006,0.02623668,-0.02282684,-0.00000020,0.02401270,0.0090326
 1,-0.00000021,0.00017702,-0.00689882,0.,-0.00055805,-0.00132403,0.,0.0
 0144893,-0.00077477,-0.00000001,0.00003759,-0.00050508,0.,-0.00048262,
 0.00014638,0.00000001,0.00028518,-0.00053656,0.,-0.00018627,0.00004207
 ,0.,-0.03407011,-0.12533639,-0.00000107,-0.01918706,-0.16572298,-0.000
 00024,0.07058841,-0.18937488,-0.00000203,0.02172959,0.01331034,-0.0000
 0013,0.02013760,-0.04750916,-0.00000070,-0.00522316,0.00128249,-0.0000
 0010,-0.00216274,-0.00010933,0.00000008,-0.01334261,-0.00343603,-0.000
 00005,0.00780319,0.00034534,0.00000006,-0.00083672,0.00102365,0.000000
 01,0.00073881,-0.00047996,-0.00000008,-0.00001133,0.00035812,0.0000000
 3,-0.07079188,0.53223662,0.,0.00000003,0.00106810,0.00000004,-0.000000
 26,-0.00068789,0.00000031,-0.00000005,0.00592432,0.00000006,-0.0000000
 1,0.00184754,0.00000001,-0.00000003,0.00110389,0.00000007,0.,0.0008377
 1,0.,0.,-0.00043854,0.,0.,-0.00056777,0.,0.,-0.00045685,0.,0.,-0.00020
 679,0.00000347,-0.00000047,-0.02957135,0.00000021,-0.00000055,-0.01898
 429,0.00000179,-0.00000206,-0.03431799,0.00000018,0.00000012,0.0085945
 7,0.00000040,-0.00000075,0.00372503,0.00000007,-0.00000031,0.00407592,
 -0.00000003,0.00000003,-0.00286276,-0.00000041,0.,-0.00015029,0.000000
 29,0.00000021,-0.00062583,0.,0.00000001,-0.00097928,0.,-0.00000002,0.0
 0195313,0.,0.00000001,-0.00031768,-0.00000596,0.00000388,0.06235328,-0
 .00029068,0.00132219,0.00000002,-0.00079089,0.00085777,-0.00000003,0.0
 0641762,0.00096301,-0.00000006,0.00002991,0.00003682,0.,-0.00008707,-0
 .00084903,0.,0.00148552,0.00003122,-0.00000001,-0.00015736,0.00017173,
 0.,0.00024395,0.00003831,0.,0.00004219,0.00001404,0.,0.00008341,0.0000
 0051,0.,0.00279841,0.02698040,0.00000078,-0.00028746,-0.00123992,-0.00
 000004,-0.02871054,-0.05005439,-0.00000083,0.00534685,-0.00442033,0.,-
 0.46067842,-0.09874013,-0.00000223,-0.00978047,-0.00674767,0.,-0.00132
 625,-0.00105355,0.,-0.09302128,0.01525651,-0.00000037,0.01440570,0.016
 22129,0.00000014,-0.00018573,-0.00049558,0.,0.00215555,-0.00029500,0.0
 0000003,-0.00242570,-0.00013509,0.,-0.01874749,0.00669688,0.00000013,0
 .57882493,-0.00042876,-0.00023445,0.,0.00020469,-0.00224267,0.00000001
 ,-0.00637534,0.00074605,-0.00000006,0.00075173,-0.00045022,0.,0.000039
 99,0.00056937,0.,-0.00002268,-0.00049512,0.,0.00005090,-0.00016579,0.,
 0.00009305,0.00004324,0.,0.00009232,-0.00007122,0.,0.00002585,-0.00004
 158,0.,0.01393237,-0.02495815,-0.00000066,0.00018356,0.00051977,-0.000
 00003,-0.04672345,-0.01958808,-0.00000047,-0.00160774,-0.01007210,-0.0
 0000017,-0.10153562,-0.11757500,-0.00000085,0.00043486,-0.00412017,-0.
 00000004,-0.00237508,-0.00061286,0.00000002,0.02686120,0.02377127,0.00
 000007,0.00449752,-0.00056110,-0.00000009,-0.00012249,0.00030496,0.000
 00002,-0.00199136,0.00332732,0.00000013,0.00132226,0.00049050,0.000000
 03,0.00153867,0.01067093,0.00000024,0.11953637,0.14456074,-0.00000005,
 0.00000002,0.00023602,0.00000005,-0.00000011,-0.00017606,-0.00000021,0
 .00000008,-0.00045414,0.00000003,0.,0.00010139,-0.00000001,0.,0.000159
 74,0.00000004,-0.00000002,0.00002913,0.,0.,-0.00009075,0.,0.,-0.000170
 63,0.,0.,-0.00001688,0.,0.,-0.00005649,0.00000051,-0.00000082,0.007860
 86,-0.00000002,0.00000006,-0.00091443,-0.00000051,-0.00000059,0.017236
 57,-0.00000012,-0.00000015,0.00236672,-0.00000215,-0.00000077,-0.05742
 958,0.00000002,-0.00000011,0.00019003,-0.00000003,0.00000001,-0.002134
 11,-0.00000040,0.00000011,0.01607294,0.00000009,0.00000010,0.00426514,
 0.,0.,0.00005339,0.00000002,0.00000006,-0.00355804,0.,0.,-0.00057194,0
 .00000006,0.00000035,-0.00299006,0.00000291,0.00000182,0.02789160,0.00
 111196,0.00029212,-0.00000002,-0.00397231,0.00343170,0.00000002,0.0122
 3171,0.01568795,0.00000044,0.00110758,-0.00013659,-0.00000003,-0.00007
 202,0.00002069,0.,-0.00021853,-0.00002912,0.,-0.00012901,0.00028550,0.
 ,-0.00053807,-0.00048555,-0.00000006,-0.00001306,-0.00000352,0.,-0.000
 03362,-0.00004174,0.,-0.09390763,-0.08641327,-0.00000217,-0.00414935,-
 0.00357473,0.00000001,0.00173708,-0.00037047,-0.00000003,-0.00098627,0
 .00010484,0.00000002,-0.01193646,0.00151826,0.00000004,0.00093753,-0.0
 0081711,-0.00000002,0.00028219,0.00022613,0.00000002,0.00140777,-0.000
 21457,0.00000007,0.00001651,0.00108343,-0.00000001,0.00007858,0.000005
 68,0.,-0.00004276,-0.00000005,0.,0.00020073,-0.00003674,0.,-0.00817074
 ,-0.03302767,-0.00000065,0.00465531,-0.00838281,-0.00000022,0.10040289
 ,0.00016951,0.00006570,0.,0.00312686,0.00345062,-0.00000016,0.00486895
 ,-0.01054867,-0.00000015,-0.00277892,0.00210087,0.00000009,-0.00029145
 ,-0.00180718,0.00000003,0.00016677,0.00109869,0.,0.00003376,0.00010597
 ,0.,0.00033360,-0.00038858,-0.00000009,-0.00016064,0.00014848,0.,-0.00
 003155,0.00008893,0.,-0.09501665,-0.33464184,-0.00000640,0.00254774,0.
 00728782,-0.00000018,-0.00719856,0.00372309,0.00000012,0.00723544,-0.0
 0276926,-0.00000008,0.02086764,0.00824010,0.00000018,-0.00458401,0.006
 84424,0.00000008,-0.00066967,-0.00046563,-0.00000002,-0.00345400,-0.00
 061516,0.00000008,-0.00272087,-0.00491323,-0.00000010,-0.00000647,-0.0
 0010401,0.00000001,0.00025421,-0.00011276,0.00000001,-0.00062103,-0.00
 007575,-0.00000002,-0.00885191,-0.00398092,-0.00000004,-0.02409637,-0.
 00381564,-0.00000002,0.11087763,0.33108412,0.,0.00000011,0.00079510,-0
 .00000004,0.00000008,0.00285939,0.00000019,0.00000074,-0.00545469,0.00
 000015,-0.00000001,-0.00103104,-0.00000005,0.00000002,-0.00030804,0.00
 000006,-0.00000004,-0.00009373,-0.00000001,0.00000002,-0.00002674,-0.0
 0000005,-0.00000008,-0.00015789,0.,0.,0.00008855,0.,0.,0.00002501,-0.0
 0000285,-0.00000850,-0.01950422,0.00000016,0.00000024,0.00288246,-0.00
 000013,0.00000008,-0.00228309,0.00000005,-0.00000007,-0.00005156,0.000
 00031,0.00000026,0.00071127,-0.00000004,0.00000007,-0.00006083,-0.0000
 0002,0.,0.00023128,-0.00000006,-0.00000005,0.00111786,-0.00000005,-0.0
 0000004,0.00013756,0.,0.,-0.00006739,0.,0.,-0.00008891,-0.00000002,0.,
 -0.00007583,0.00000024,0.00000047,0.00167390,-0.00000044,0.00000005,-0
 .00790039,0.00000261,0.00000665,0.02658197\\-0.00056300,-0.00043024,0.
 00000001,-0.00057454,-0.00067044,0.00000004,-0.00107673,0.00012382,0.0
 0000004,0.00048264,-0.00067572,-0.00000008,-0.00008688,-0.00029462,-0.
 00000003,-0.00072972,-0.00064029,0.00000002,-0.00007665,-0.00003617,0.
 00000001,0.00003777,-0.00004743,0.00000001,-0.00001263,-0.00008486,0.,
 -0.00008772,-0.00007487,0.,0.00247263,-0.00098117,-0.00000062,-0.00008
 695,0.00069333,0.00000004,0.00122814,-0.00037683,-0.00000039,-0.000564
 61,-0.00035386,0.,-0.00177721,-0.00012898,0.00000132,0.00027989,-0.001
 58531,0.00000012,0.00003046,-0.00003375,0.00000007,-0.00012445,-0.0001
 1812,-0.00000052,0.00028277,-0.00038620,-0.00000006,0.00002057,-0.0000
 7175,-0.00000005,-0.00002681,0.00001934,0.00000001,-0.00001010,-0.0000
 5340,-0.00000003,0.00128776,0.00074179,-0.00000011,0.00069289,0.001837
 19,-0.00000040,-0.00101750,0.00362855,0.00000056\\\@
 The archive entry for this job was punched.


 THOSE WHO ASPIRE NOT TO GUESS AND DIVINE,
 BUT TO DISCOVER AND KNOW, WHO PROPOSE NOT TO DEVISE 
 MIMIC AND FABULOUS WORLDS OF THEIR OWN, BUT TO 
 EXAMINE AND DISSECT THE NATURE OF THIS VERY WORLD 
 ITSELF, MUST GO TO THE FACTS THEMSELVES FOR EVERYTHING.

                               -- FRANCIS BACON, 1620
 Job cpu time:       0 days  2 hours 52 minutes 11.7 seconds.
 Elapsed time:       0 days  0 hours 17 minutes 45.1 seconds.
 File lengths (MBytes):  RWF=   1376 Int=      0 D2E=      0 Chk=     48 Scr=      8
 Normal termination of Gaussian 16 at Mon Jul 13 16:37:47 2020.
