 Entering Gaussian System, Link 0=g16
 Initial command:
 /gpfs/loomis/apps/avx/software/Gaussian/16-C.01_AVX/g16/l1.exe "/home/fas/batista/pev4/scratch60/gauss-scratch/Gau-163367.inp" -scrdir="/home/fas/batista/pev4/scratch60/gauss-scratch/"
 Entering Link 1 = /gpfs/loomis/apps/avx/software/Gaussian/16-C.01_AVX/g16/l1.exe PID=    163368.
  
 Copyright (c) 1988-2019, Gaussian, Inc.  All Rights Reserved.
  
 This is part of the Gaussian(R) 16 program.  It is based on
 the Gaussian(R) 09 system (copyright 2009, Gaussian, Inc.),
 the Gaussian(R) 03 system (copyright 2003, Gaussian, Inc.),
 the Gaussian(R) 98 system (copyright 1998, Gaussian, Inc.),
 the Gaussian(R) 94 system (copyright 1995, Gaussian, Inc.),
 the Gaussian 92(TM) system (copyright 1992, Gaussian, Inc.),
 the Gaussian 90(TM) system (copyright 1990, Gaussian, Inc.),
 the Gaussian 88(TM) system (copyright 1988, Gaussian, Inc.),
 the Gaussian 86(TM) system (copyright 1986, Carnegie Mellon
 University), and the Gaussian 82(TM) system (copyright 1983,
 Carnegie Mellon University). Gaussian is a federally registered
 trademark of Gaussian, Inc.
  
 This software contains proprietary and confidential information,
 including trade secrets, belonging to Gaussian, Inc.
  
 This software is provided under written license and may be
 used, copied, transmitted, or stored only in accord with that
 written license.
  
 The following legend is applicable only to US Government
 contracts under FAR:
  
                    RESTRICTED RIGHTS LEGEND
  
 Use, reproduction and disclosure by the US Government is
 subject to restrictions as set forth in subparagraphs (a)
 and (c) of the Commercial Computer Software - Restricted
 Rights clause in FAR 52.227-19.
  
 Gaussian, Inc.
 340 Quinnipiac St., Bldg. 40, Wallingford CT 06492
  
  
 ---------------------------------------------------------------
 Warning -- This program may not be used in any manner that
 competes with the business of Gaussian, Inc. or will provide
 assistance to any competitor of Gaussian, Inc.  The licensee
 of this program is prohibited from giving any competitor of
 Gaussian, Inc. access to this program.  By using this program,
 the user acknowledges that Gaussian, Inc. is engaged in the
 business of creating and licensing software in the field of
 computational chemistry and represents and warrants to the
 licensee that it is not a competitor of Gaussian, Inc. and that
 it will not use this program in any manner prohibited above.
 ---------------------------------------------------------------
  

 Cite this work as:
 Gaussian 16, Revision C.01,
 M. J. Frisch, G. W. Trucks, H. B. Schlegel, G. E. Scuseria, 
 M. A. Robb, J. R. Cheeseman, G. Scalmani, V. Barone, 
 G. A. Petersson, H. Nakatsuji, X. Li, M. Caricato, A. V. Marenich, 
 J. Bloino, B. G. Janesko, R. Gomperts, B. Mennucci, H. P. Hratchian, 
 J. V. Ortiz, A. F. Izmaylov, J. L. Sonnenberg, D. Williams-Young, 
 F. Ding, F. Lipparini, F. Egidi, J. Goings, B. Peng, A. Petrone, 
 T. Henderson, D. Ranasinghe, V. G. Zakrzewski, J. Gao, N. Rega, 
 G. Zheng, W. Liang, M. Hada, M. Ehara, K. Toyota, R. Fukuda, 
 J. Hasegawa, M. Ishida, T. Nakajima, Y. Honda, O. Kitao, H. Nakai, 
 T. Vreven, K. Throssell, J. A. Montgomery, Jr., J. E. Peralta, 
 F. Ogliaro, M. J. Bearpark, J. J. Heyd, E. N. Brothers, K. N. Kudin, 
 V. N. Staroverov, T. A. Keith, R. Kobayashi, J. Normand, 
 K. Raghavachari, A. P. Rendell, J. C. Burant, S. S. Iyengar, 
 J. Tomasi, M. Cossi, J. M. Millam, M. Klene, C. Adamo, R. Cammi, 
 J. W. Ochterski, R. L. Martin, K. Morokuma, O. Farkas, 
 J. B. Foresman, and D. J. Fox, Gaussian, Inc., Wallingford CT, 2019.
 
 ******************************************
 Gaussian 16:  ES64L-G16RevC.01  3-Jul-2019
                14-Jul-2020 
 ******************************************
 %chk=config_6_17.chk
 %mem=58GB
 %nprocshared=10
 Will use up to   10 processors via shared memory.
 ----------------------------------------------------------------------
 #p opt=addgic freq td wb97xd/cc-pvdz nosymm int=ultrafine scrf=(solven
 t=CarbonTetraChloride)
 ----------------------------------------------------------------------
 1/18=20,19=15,26=6,38=1,145=903/1,3;
 2/9=110,12=2,15=1,17=6,18=5,40=1/2;
 3/5=16,11=9,25=1,30=1,70=2201,71=1,72=11,74=-58,75=-5/1,2,3,8;
 4//1;
 5/5=2,38=5,53=11/2;
 8/6=1,10=1/1;
 9/15=2,42=1,70=2/14;
 10/5=4,31=1/2;
 6/7=2,8=2,9=2,10=2/1;
 7/12=6,13=5,30=1/1,2,3,16;
 1/18=20,19=15,26=6,145=903/3(2);
 2/9=110,15=1/2;
 99//99;
 2/9=110,15=1/2;
 3/5=16,11=9,25=1,30=1,70=2205,71=1,72=11,74=-58,75=-5/1,2,3,8;
 4/5=5,16=3,69=1/1;
 5/5=2,38=5,53=11/2;
 8/6=1,10=1/1;
 9/15=2,42=1,49=4,70=2/14;
 10/5=4,31=1/2;
 7/12=6,13=5,30=1/1,2,3,16;
 1/18=20,19=15,26=6,145=903/3(-8);
 2/9=110,15=1/2;
 6/7=2,8=2,9=2,10=2/1;
 99/9=10/99;
 Leave Link    1 at Tue Jul 14 12:59:26 2020, MaxMem=  7784628224 cpu:               4.4 elap:               0.5
 (Enter /gpfs/loomis/apps/avx/software/Gaussian/16-C.01_AVX/g16/l101.exe)
 ------------------------------------------------
 NM 2D-scan of HBT TD-WB97XD pVDZ in CTC Relaxed.
 ------------------------------------------------
 Symbolic Z-matrix:
 Charge =  0 Multiplicity = 1
 C                     1.53305  -3.2515   -0.00002 
 C                     0.99925  -1.96134  -0.00002 
 C                     1.79584  -0.77358  -0.00003 
 C                     3.20503  -0.94436  -0.00003 
 C                     3.73535  -2.23899  -0.00002 
 C                     2.92137  -3.38963  -0.00002 
 H                     0.86976  -4.12564  -0.00001 
 H                     3.86628  -0.06839  -0.00004 
 H                     4.82435  -2.36023  -0.00002 
 H                     3.37529  -4.38585  -0.00001 
 N                     1.04793   0.37917  -0.00003 
 S                    -0.69855  -1.58514  -0.00003 
 C                    -1.31135   1.07132   0.00001 
 C                    -2.67549   0.7226    0.00002 
 C                    -0.91214   2.48321   0.00004 
 C                    -3.65422   1.72821   0.00003 
 H                    -2.97498  -0.33201   0.00002 
 C                    -1.93511   3.47103   0.00004 
 C                    -3.2885    3.09136   0.00003 
 H                    -4.71271   1.44847   0.00004 
 H                    -1.63657   4.52609   0.00006 
 H                    -4.06825   3.85918   0.00004 
 C                    -0.28776   0.10373  -0.00002 
 O                     0.35235   2.73972   0.00006 
 H                     0.97338   1.64117   0.00002 
 
 Add virtual bond connecting atoms H25        and N11        Dist= 2.39D+00.
 Add virtual bond connecting atoms H25        and O24        Dist= 2.38D+00.
 Initializing the GIC definitions file.
 Number of initial coordinates =   142
 Number of input entries/lines =    52
 Number of additional coordinates =     2
 Number of removed coordinates =     0
 Number of frozen coordinates =     2
 Number of final active and frozen coordinates =   144
 ITRead=  0  0  0  0  0  0  0  0  0  0  0  0  0  0  0  0  0  0  0  0
 ITRead=  0  0  0  0  0
 MicOpt= -1 -1 -1 -1 -1 -1 -1 -1 -1 -1 -1 -1 -1 -1 -1 -1 -1 -1 -1 -1
 MicOpt= -1 -1 -1 -1 -1
 NAtoms=     25 NQM=       25 NQMF=       0 NMMI=      0 NMMIF=      0
                NMic=       0 NMicF=      0.
                    Isotopes and Nuclear Properties:
 (Nuclear quadrupole moments (NQMom) in fm**2, nuclear magnetic moments (NMagM)
  in nuclear magnetons)

  Atom         1           2           3           4           5           6           7           8           9          10
 IAtWgt=          12          12          12          12          12          12           1           1           1           1
 AtmWgt=  12.0000000  12.0000000  12.0000000  12.0000000  12.0000000  12.0000000   1.0078250   1.0078250   1.0078250   1.0078250
 NucSpn=           0           0           0           0           0           0           1           1           1           1
 AtZEff=  -0.0000000  -0.0000000  -0.0000000  -0.0000000  -0.0000000  -0.0000000  -0.0000000  -0.0000000  -0.0000000  -0.0000000
 NQMom=    0.0000000   0.0000000   0.0000000   0.0000000   0.0000000   0.0000000   0.0000000   0.0000000   0.0000000   0.0000000
 NMagM=    0.0000000   0.0000000   0.0000000   0.0000000   0.0000000   0.0000000   2.7928460   2.7928460   2.7928460   2.7928460
 AtZNuc=   6.0000000   6.0000000   6.0000000   6.0000000   6.0000000   6.0000000   1.0000000   1.0000000   1.0000000   1.0000000

  Atom        11          12          13          14          15          16          17          18          19          20
 IAtWgt=          14          32          12          12          12          12           1          12          12           1
 AtmWgt=  14.0030740  31.9720718  12.0000000  12.0000000  12.0000000  12.0000000   1.0078250  12.0000000  12.0000000   1.0078250
 NucSpn=           2           0           0           0           0           0           1           0           0           1
 AtZEff=  -0.0000000  -0.0000000  -0.0000000  -0.0000000  -0.0000000  -0.0000000  -0.0000000  -0.0000000  -0.0000000  -0.0000000
 NQMom=    2.0440000   0.0000000   0.0000000   0.0000000   0.0000000   0.0000000   0.0000000   0.0000000   0.0000000   0.0000000
 NMagM=    0.4037610   0.0000000   0.0000000   0.0000000   0.0000000   0.0000000   2.7928460   0.0000000   0.0000000   2.7928460
 AtZNuc=   7.0000000  16.0000000   6.0000000   6.0000000   6.0000000   6.0000000   1.0000000   6.0000000   6.0000000   1.0000000

  Atom        21          22          23          24          25
 IAtWgt=           1           1          12          16           1
 AtmWgt=   1.0078250   1.0078250  12.0000000  15.9949146   1.0078250
 NucSpn=           1           1           0           0           1
 AtZEff=  -0.0000000  -0.0000000  -0.0000000  -0.0000000  -0.0000000
 NQMom=    0.0000000   0.0000000   0.0000000   0.0000000   0.0000000
 NMagM=    2.7928460   2.7928460   0.0000000   0.0000000   2.7928460
 AtZNuc=   1.0000000   1.0000000   6.0000000   8.0000000   1.0000000
 Leave Link  101 at Tue Jul 14 12:59:29 2020, MaxMem=  7784628224 cpu:              31.6 elap:               3.2
 (Enter /gpfs/loomis/apps/avx/software/Gaussian/16-C.01_AVX/g16/l103.exe)

 GradGradGradGradGradGradGradGradGradGradGradGradGradGradGradGradGradGrad
 Berny optimization.
 Initialization pass.
                           ----------------------------
                           !    Initial Parameters    !
                           ! (Angstroms and Degrees)  !
 --------------------------                            --------------------------
 ! Name  Definition              Value          Derivative Info.                !
 --------------------------------------------------------------------------------
 ! R1    R(1,2)                  1.3962         estimate D2E/DX2                !
 ! R2    R(1,6)                  1.3952         estimate D2E/DX2                !
 ! R3    R(1,7)                  1.0973         estimate D2E/DX2                !
 ! R4    R(2,3)                  1.4301         estimate D2E/DX2                !
 ! R5    R(2,12)                 1.739          estimate D2E/DX2                !
 ! R6    R(3,4)                  1.4195         estimate D2E/DX2                !
 ! R7    R(3,11)                 1.3741         estimate D2E/DX2                !
 ! R8    R(4,5)                  1.399          estimate D2E/DX2                !
 ! R9    R(4,8)                  1.0975         estimate D2E/DX2                !
 ! R10   R(5,6)                  1.4094         estimate D2E/DX2                !
 ! R11   R(5,9)                  1.0957         estimate D2E/DX2                !
 ! R12   R(6,10)                 1.0948         estimate D2E/DX2                !
 ! R13   R(11,23)                1.3638         estimate D2E/DX2                !
 ! R14   R(11,25)                1.2642         estimate D2E/DX2                !
 ! R15   R(12,23)                1.7381         estimate D2E/DX2                !
 ! R16   R(13,14)                1.408          estimate D2E/DX2                !
 ! R17   R(13,15)                1.4672         estimate D2E/DX2                !
 ! R18   R(13,23)                1.4085         estimate D2E/DX2                !
 ! R19   R(14,16)                1.4033         estimate D2E/DX2                !
 ! R20   R(14,17)                1.0963         estimate D2E/DX2                !
 ! R21   R(15,18)                1.4221         estimate D2E/DX2                !
 ! R22   R(15,24)                1.2902         estimate D2E/DX2                !
 ! R23   R(16,19)                1.4114         estimate D2E/DX2                !
 ! R24   R(16,20)                1.0948         estimate D2E/DX2                !
 ! R25   R(18,19)                1.4056         estimate D2E/DX2                !
 ! R26   R(18,21)                1.0965         estimate D2E/DX2                !
 ! R27   R(19,22)                1.0943         estimate D2E/DX2                !
 ! R28   R(24,25)                1.2619         estimate D2E/DX2                !
 ! A1    A(2,1,6)              118.1587         estimate D2E/DX2                !
 ! A2    A(2,1,7)              120.3322         estimate D2E/DX2                !
 ! A3    A(6,1,7)              121.509          estimate D2E/DX2                !
 ! A4    A(1,2,3)              123.6749         estimate D2E/DX2                !
 ! A5    A(1,2,12)             124.9705         estimate D2E/DX2                !
 ! A6    A(3,2,12)             111.3546         estimate D2E/DX2                !
 ! A7    A(2,3,4)              116.9383         estimate D2E/DX2                !
 ! A8    A(2,3,11)             113.1762         estimate D2E/DX2                !
 ! A9    A(4,3,11)             129.8856         estimate D2E/DX2                !
 ! A10   A(3,4,5)              119.1855         estimate D2E/DX2                !
 ! A11   A(3,4,8)              120.1383         estimate D2E/DX2                !
 ! A12   A(5,4,8)              120.6762         estimate D2E/DX2                !
 ! A13   A(4,5,6)              122.4483         estimate D2E/DX2                !
 ! A14   A(4,5,9)              118.6281         estimate D2E/DX2                !
 ! A15   A(6,5,9)              118.9236         estimate D2E/DX2                !
 ! A16   A(1,6,5)              119.5944         estimate D2E/DX2                !
 ! A17   A(1,6,10)             120.1777         estimate D2E/DX2                !
 ! A18   A(5,6,10)             120.2279         estimate D2E/DX2                !
 ! A19   A(3,11,23)            111.3238         estimate D2E/DX2                !
 ! A20   A(3,11,25)            150.4051         estimate D2E/DX2                !
 ! A21   A(23,11,25)            98.2712         estimate D2E/DX2                !
 ! A22   A(2,12,23)             88.8227         estimate D2E/DX2                !
 ! A23   A(14,13,15)           120.1278         estimate D2E/DX2                !
 ! A24   A(14,13,23)           122.2715         estimate D2E/DX2                !
 ! A25   A(15,13,23)           117.6006         estimate D2E/DX2                !
 ! A26   A(13,14,16)           119.8846         estimate D2E/DX2                !
 ! A27   A(13,14,17)           120.1933         estimate D2E/DX2                !
 ! A28   A(16,14,17)           119.9221         estimate D2E/DX2                !
 ! A29   A(13,15,18)           118.2101         estimate D2E/DX2                !
 ! A30   A(13,15,24)           117.2558         estimate D2E/DX2                !
 ! A31   A(18,15,24)           124.5342         estimate D2E/DX2                !
 ! A32   A(14,16,19)           120.7577         estimate D2E/DX2                !
 ! A33   A(14,16,20)           119.4198         estimate D2E/DX2                !
 ! A34   A(19,16,20)           119.8225         estimate D2E/DX2                !
 ! A35   A(15,18,19)           120.331          estimate D2E/DX2                !
 ! A36   A(15,18,21)           118.1988         estimate D2E/DX2                !
 ! A37   A(19,18,21)           121.4702         estimate D2E/DX2                !
 ! A38   A(16,19,18)           120.6888         estimate D2E/DX2                !
 ! A39   A(16,19,22)           119.5401         estimate D2E/DX2                !
 ! A40   A(18,19,22)           119.7711         estimate D2E/DX2                !
 ! A41   A(11,23,12)           115.3228         estimate D2E/DX2                !
 ! A42   A(11,23,13)           124.9592         estimate D2E/DX2                !
 ! A43   A(12,23,13)           119.718          estimate D2E/DX2                !
 ! A44   A(15,24,25)           108.0129         estimate D2E/DX2                !
 ! A45   A(11,25,24)           153.9004         estimate D2E/DX2                !
 ! D1    D(6,1,2,3)              0.0            estimate D2E/DX2                !
 ! D2    D(6,1,2,12)           180.0            estimate D2E/DX2                !
 ! D3    D(7,1,2,3)            179.9999         estimate D2E/DX2                !
 ! D4    D(7,1,2,12)            -0.0001         estimate D2E/DX2                !
 ! D5    D(2,1,6,5)             -0.0001         estimate D2E/DX2                !
 ! D6    D(2,1,6,10)           179.9999         estimate D2E/DX2                !
 ! D7    D(7,1,6,5)            179.9999         estimate D2E/DX2                !
 ! D8    D(7,1,6,10)             0.0            estimate D2E/DX2                !
 ! D9    D(1,2,3,4)              0.0002         estimate D2E/DX2                !
 ! D10   D(1,2,3,11)          -179.9999         estimate D2E/DX2                !
 ! D11   D(12,2,3,4)          -179.9998         estimate D2E/DX2                !
 ! D12   D(12,2,3,11)            0.0001         estimate D2E/DX2                !
 ! D13   D(1,2,12,23)          179.9996         estimate D2E/DX2                !
 ! D14   D(3,2,12,23)           -0.0004         estimate D2E/DX2                !
 ! D15   D(2,3,4,5)             -0.0002         estimate D2E/DX2                !
 ! D16   D(2,3,4,8)            179.9998         estimate D2E/DX2                !
 ! D17   D(11,3,4,5)           180.0            estimate D2E/DX2                !
 ! D18   D(11,3,4,8)             0.0            estimate D2E/DX2                !
 ! D19   D(2,3,11,23)            0.0004         estimate D2E/DX2                !
 ! D20   D(2,3,11,25)          179.9948         estimate D2E/DX2                !
 ! D21   D(4,3,11,23)         -179.9998         estimate D2E/DX2                !
 ! D22   D(4,3,11,25)           -0.0054         estimate D2E/DX2                !
 ! D23   D(3,4,5,6)              0.0001         estimate D2E/DX2                !
 ! D24   D(3,4,5,9)           -179.9999         estimate D2E/DX2                !
 ! D25   D(8,4,5,6)            180.0            estimate D2E/DX2                !
 ! D26   D(8,4,5,9)              0.0            estimate D2E/DX2                !
 ! D27   D(4,5,6,1)              0.0001         estimate D2E/DX2                !
 ! D28   D(4,5,6,10)          -179.9999         estimate D2E/DX2                !
 ! D29   D(9,5,6,1)           -179.9999         estimate D2E/DX2                !
 ! D30   D(9,5,6,10)             0.0            estimate D2E/DX2                !
 ! D31   D(3,11,23,12)          -0.0007         estimate D2E/DX2                !
 ! D32   D(3,11,23,13)         179.9982         estimate D2E/DX2                !
 ! D33   D(25,11,23,12)       -179.9979         estimate D2E/DX2                !
 ! D34   D(25,11,23,13)          0.001          estimate D2E/DX2                !
 ! D35   D(3,11,25,24)        -179.9962         estimate D2E/DX2                !
 ! D36   D(23,11,25,24)         -0.0014         estimate D2E/DX2                !
 ! D37   D(2,12,23,11)           0.0006         estimate D2E/DX2                !
 ! D38   D(2,12,23,13)        -179.9984         estimate D2E/DX2                !
 ! D39   D(15,13,14,16)          0.0013         estimate D2E/DX2                !
 ! D40   D(15,13,14,17)       -179.9992         estimate D2E/DX2                !
 ! D41   D(23,13,14,16)       -179.9988         estimate D2E/DX2                !
 ! D42   D(23,13,14,17)          0.0007         estimate D2E/DX2                !
 ! D43   D(14,13,15,18)         -0.0015         estimate D2E/DX2                !
 ! D44   D(14,13,15,24)        179.9982         estimate D2E/DX2                !
 ! D45   D(23,13,15,18)        179.9985         estimate D2E/DX2                !
 ! D46   D(23,13,15,24)         -0.0017         estimate D2E/DX2                !
 ! D47   D(14,13,23,11)       -179.9998         estimate D2E/DX2                !
 ! D48   D(14,13,23,12)         -0.0009         estimate D2E/DX2                !
 ! D49   D(15,13,23,11)          0.0001         estimate D2E/DX2                !
 ! D50   D(15,13,23,12)        179.999          estimate D2E/DX2                !
 ! D51   D(13,14,16,19)         -0.0003         estimate D2E/DX2                !
 ! D52   D(13,14,16,20)        179.9996         estimate D2E/DX2                !
 ! D53   D(17,14,16,19)       -179.9998         estimate D2E/DX2                !
 ! D54   D(17,14,16,20)          0.0001         estimate D2E/DX2                !
 ! D55   D(13,15,18,19)          0.0008         estimate D2E/DX2                !
 ! D56   D(13,15,18,21)       -179.9999         estimate D2E/DX2                !
 ! D57   D(24,15,18,19)       -179.9989         estimate D2E/DX2                !
 ! D58   D(24,15,18,21)          0.0004         estimate D2E/DX2                !
 ! D59   D(13,15,24,25)          0.0017         estimate D2E/DX2                !
 ! D60   D(18,15,24,25)       -179.9986         estimate D2E/DX2                !
 ! D61   D(14,16,19,18)         -0.0005         estimate D2E/DX2                !
 ! D62   D(14,16,19,22)        179.9998         estimate D2E/DX2                !
 ! D63   D(20,16,19,18)        179.9996         estimate D2E/DX2                !
 ! D64   D(20,16,19,22)         -0.0001         estimate D2E/DX2                !
 ! D65   D(15,18,19,16)          0.0002         estimate D2E/DX2                !
 ! D66   D(15,18,19,22)        179.9999         estimate D2E/DX2                !
 ! D67   D(21,18,19,16)       -179.9991         estimate D2E/DX2                !
 ! D68   D(21,18,19,22)          0.0006         estimate D2E/DX2                !
 ! D69   D(15,24,25,11)          0.0            estimate D2E/DX2                !
 ! Qtot  GIC-1                   0.0            Frozen                          !
 ! Ptot  GIC-2                 180.0            Frozen                          !
 --------------------------------------------------------------------------------
 NOTE: GIC-type coordinates are in arbitrary units.
 Trust Radius=3.00D-01 FncErr=5.00D-06 GrdErr=5.00D-06 EigMax=2.50D+02 EigMin=1.00D-04
 Number of steps in this run=    150 maximum allowed number of steps=    150.
 GradGradGradGradGradGradGradGradGradGradGradGradGradGradGradGradGradGrad

 Leave Link  103 at Tue Jul 14 12:59:29 2020, MaxMem=  7784628224 cpu:               0.2 elap:               0.0
 (Enter /gpfs/loomis/apps/avx/software/Gaussian/16-C.01_AVX/g16/l202.exe)
                          Input orientation:                          
 ---------------------------------------------------------------------
 Center     Atomic      Atomic             Coordinates (Angstroms)
 Number     Number       Type             X           Y           Z
 ---------------------------------------------------------------------
      1          6           0        1.533047   -3.251498   -0.000017
      2          6           0        0.999254   -1.961337   -0.000023
      3          6           0        1.795835   -0.773583   -0.000027
      4          6           0        3.205028   -0.944363   -0.000030
      5          6           0        3.735347   -2.238992   -0.000024
      6          6           0        2.921370   -3.389626   -0.000016
      7          1           0        0.869760   -4.125636   -0.000012
      8          1           0        3.866281   -0.068386   -0.000036
      9          1           0        4.824351   -2.360232   -0.000025
     10          1           0        3.375289   -4.385847   -0.000010
     11          7           0        1.047929    0.379165   -0.000032
     12         16           0       -0.698554   -1.585141   -0.000026
     13          6           0       -1.311353    1.071318    0.000012
     14          6           0       -2.675487    0.722604    0.000025
     15          6           0       -0.912138    2.483209    0.000036
     16          6           0       -3.654223    1.728214    0.000033
     17          1           0       -2.974983   -0.332010    0.000020
     18          6           0       -1.935112    3.471030    0.000039
     19          6           0       -3.288504    3.091359    0.000035
     20          1           0       -4.712709    1.448466    0.000037
     21          1           0       -1.636567    4.526090    0.000055
     22          1           0       -4.068253    3.859180    0.000038
     23          6           0       -0.287760    0.103728   -0.000022
     24          8           0        0.352345    2.739723    0.000059
     25          1           0        0.973380    1.641165    0.000020
 ---------------------------------------------------------------------
                    Distance matrix (angstroms):
                    1          2          3          4          5
     1  C    0.000000
     2  C    1.396227   0.000000
     3  C    2.491811   1.430140   0.000000
     4  C    2.849279   2.428924   1.419503   0.000000
     5  C    2.423901   2.750145   2.430871   1.399037   0.000000
     6  C    1.395178   2.394690   2.847896   2.461661   1.409438
     7  H    1.097300   2.168170   3.477625   3.946388   3.430892
     8  H    3.946668   3.435565   2.187247   1.097539   2.174552
     9  H    3.409845   3.845840   3.418971   2.151022   1.095732
    10  H    2.163470   3.394671   3.942477   3.445694   2.176839
    11  N    3.662930   2.341008   1.374115   2.530771   3.751928
    12  S    2.785102   1.738987   2.623090   3.955825   4.481853
    13  C    5.174684   3.812598   3.613624   4.945772   6.035507
    14  C    5.788371   4.550523   4.715007   6.112219   7.061858
    15  C    6.234244   4.838121   4.235542   5.357173   6.625580
    16  C    7.190640   5.938656   5.996842   7.361520   8.387161
    17  H    5.370824   4.295261   4.791210   6.210274   6.976039
    18  C    7.564424   6.174230   5.651257   6.776189   8.047265
    19  C    7.967382   6.626809   6.386570   7.645456   8.817433
    20  H    7.816593   6.652313   6.877401   8.271407   9.217755
    21  H    8.398651   7.002447   6.314105   7.305265   8.638507
    22  H    9.051867   7.717386   7.473287   8.716343   9.903731
    23  C    3.817444   2.433290   2.260762   3.646651   4.655505
    24  O    6.106454   4.745361   3.798287   4.659430   6.019328
    25  H    4.924569   3.602595   2.550968   3.415436   4.762781
                    6          7          8          9         10
     6  C    0.000000
     7  H    2.179637   0.000000
     8  H    3.453041   5.043850   0.000000
     9  H    2.163559   4.330756   2.484041   0.000000
    10  H    1.094760   2.519005   4.345290   2.490562   0.000000
    11  N    4.208749   4.508323   2.853666   4.665368   5.303013
    12  S    4.044752   2.985587   4.810225   5.577029   4.943699
    13  C    6.149469   5.636097   5.301586   7.030107   7.193418
    14  C    6.945160   6.006180   6.589415   8.108726   7.918848
    15  C    7.013272   6.844852   5.417004   7.507745   8.097282
    16  C    8.332509   7.398241   7.732124   9.412843   9.316425
    17  H    6.641988   5.401264   6.846342   8.058741   7.533893
    18  C    8.405595   8.097941   6.795854   8.927148   9.483189
    19  C    8.975840   8.329236   7.821440   9.774367  10.015725
    20  H    9.038047   7.888889   8.712055  10.269454   9.972708
    21  H    9.134186   9.007444   7.168720   9.442717  10.224545
    22  H   10.069758   9.388357   8.853395  10.851705  11.107961
    23  C    4.743631   4.384903   4.157605   5.674926   5.794326
    24  O    6.645962   6.884829   4.498135   6.782948   7.740280
    25  H    5.394768   5.767732   3.360274   5.553481   6.487992
                   11         12         13         14         15
    11  N    0.000000
    12  S    2.628441   0.000000
    13  C    2.458717   2.726224   0.000000
    14  C    3.739221   3.038741   1.408000   0.000000
    15  C    2.875564   4.073953   1.467245   2.491813   0.000000
    16  C    4.891847   4.440078   2.433218   1.403273   2.844125
    17  H    4.085290   2.598551   2.176464   1.096315   3.490099
    18  C    4.296297   5.205183   2.479454   2.846401   1.422064
    19  C    5.114748   5.345791   2.826604   2.446792   2.452949
    20  H    5.859040   5.031521   3.422202   2.162672   3.938912
    21  H    4.939991   6.182799   3.470045   3.942824   2.167524
    22  H    6.187554   6.402772   3.920800   3.431896   3.443016
    23  C    1.363793   1.738110   1.408536   2.466626   2.460037
    24  O    2.460908   4.450711   2.356154   3.638205   1.290239
    25  H    1.264200   3.633788   2.354725   3.762710   2.064998
                   16         17         18         19         20
    16  C    0.000000
    17  H    2.169306   0.000000
    18  C    2.448009   3.942644   0.000000
    19  C    1.411352   3.437695   1.405638   0.000000
    20  H    1.094830   2.487928   3.435958   2.174272   0.000000
    21  H    3.449499   5.039096   1.096486   2.188001   4.351370
    22  H    2.170815   4.331433   2.168167   1.094330   2.495369
    23  C    3.737917   2.722322   3.748666   4.234430   4.624769
    24  O    4.132280   4.528427   2.401514   3.657790   5.227056
    25  H    4.628422   4.413954   3.436238   4.501857   5.689353
                   21         22         23         24         25
    21  H    0.000000
    22  H    2.521481   0.000000
    23  C    4.623480   5.328747   0.000000
    24  O    2.673365   4.560139   2.712601   0.000000
    25  H    3.890324   5.507963   1.988514   1.261948   0.000000
 Symmetry turned off by external request.
 Stoichiometry    C13H9NOS
 Framework group  C1[X(C13H9NOS)]
 Deg. of freedom    69
 Full point group                 C1      NOp   1
 Rotational constants (GHZ):           1.4090310           0.2864117           0.2380281
 Leave Link  202 at Tue Jul 14 12:59:29 2020, MaxMem=  7784628224 cpu:               0.3 elap:               0.1
 (Enter /gpfs/loomis/apps/avx/software/Gaussian/16-C.01_AVX/g16/l301.exe)
 Standard basis: CC-pVDZ (5D, 7F)
 Ernie: Thresh=  0.10000D-02 Tol=  0.10000D-05 Strict=F.
 Ernie:  40 primitive shells out of 425 were deleted.
   273 basis functions,   629 primitive gaussians,   289 cartesian basis functions
    59 alpha electrons       59 beta electrons
       nuclear repulsion energy      1100.5219826536 Hartrees.
 IExCor= 4639 DFT=T Ex+Corr=wB97XD ExCW=0 ScaHFX=  1.000000
 ScaDFX=  1.000000  1.000000  1.000000  1.000000 ScalE2=  1.000000  1.000000
 IRadAn=      5 IRanWt=     -1 IRanGd=            0 ICorTp=0 IEmpDi=121
 HFx  wShort=  0.000000 wLong=  0.200000 cFull=  0.222036 cShort=  0.000000 cLong=  0.777964
 DFx  wShort=  0.000000 wLong=  0.200000 cFull=  0.000000 cShort=  0.000000 cLong=  1.000000
 NAtoms=   25 NActive=   25 NUniq=   25 SFac= 1.00D+00 NAtFMM=   60 NAOKFM=F Big=F
 Integral buffers will be    131072 words long.
 Raffenetti 1 integral format.
 Two-electron integral symmetry is turned off.
 R6Disp:  Grimme-D2 Dispersion energy=       -0.0138231406 Hartrees.
 Nuclear repulsion after empirical dispersion term =     1100.5081595130 Hartrees.
 ------------------------------------------------------------------------------
 Polarizable Continuum Model (PCM)
 =================================
 Model                : PCM.
 Atomic radii         : UFF (Universal Force Field).
 Polarization charges : Total charges.
 Charge compensation  : None.
 Solution method      : On-the-fly selection.
 Cavity type          : Scaled VdW (van der Waals Surface) (Alpha=1.100).
 Cavity algorithm     : GePol (No added spheres)
                        Default sphere list used, NSphG=   25.
                        Lebedev-Laikov grids with approx.  5.0 points / Ang**2.
                        Smoothing algorithm: York/Karplus (Gamma=1.0000).
                        Polarization charges: spherical gaussians, with
                                              point-specific exponents (IZeta= 3).
                        Self-potential: point-specific (ISelfS= 7).
                        Self-field    : sphere-specific E.n sum rule (ISelfD= 2).
 1st derivatives      : Analytical E(r).r(x)/FMM algorithm (CHGder, D1EAlg=3).
                        Cavity 1st derivative terms included.
 Solvent              : CarbonTetraChloride, Eps=   2.228000 Eps(inf)=   2.131892
 ------------------------------------------------------------------------------
 GePol: Number of generator spheres                  =      25
 GePol: Total number of spheres                      =      25
 GePol: Number of exposed spheres                    =      25 (100.00%)
 GePol: Number of points                             =    2190
 GePol: Average weight of points                     =       0.12
 GePol: Minimum weight of points                     =   0.21D-08
 GePol: Maximum weight of points                     =    0.20577
 GePol: Number of points with low weight             =     152
 GePol: Fraction of low-weight points (<1% of avg)   =       6.94%
 GePol: Cavity surface area                          =    271.674 Ang**2
 GePol: Cavity volume                                =    292.279 Ang**3
 Leave Link  301 at Tue Jul 14 12:59:30 2020, MaxMem=  7784628224 cpu:               0.9 elap:               0.1
 (Enter /gpfs/loomis/apps/avx/software/Gaussian/16-C.01_AVX/g16/l302.exe)
 NPDir=0 NMtPBC=     1 NCelOv=     1 NCel=       1 NClECP=     1 NCelD=      1
         NCelK=      1 NCelE2=     1 NClLst=     1 CellRange=     0.0.
 One-electron integrals computed using PRISM.
 NBasis=   273 RedAO= T EigKep=  3.24D-04  NBF=   273
 NBsUse=   273 1.00D-06 EigRej= -1.00D+00 NBFU=   273
 Precomputing XC quadrature grid using
 IXCGrd= 4 IRadAn=           5 IRanWt=          -1 IRanGd=           0 AccXCQ= 0.00D+00.
 Generated NRdTot=       0 NPtTot=           0 NUsed=           0 NTot=          32
 NSgBfM=   288   288   288   288   288 MxSgAt=    25 MxSgA2=    25.
 Leave Link  302 at Tue Jul 14 12:59:30 2020, MaxMem=  7784628224 cpu:               2.5 elap:               0.3
 (Enter /gpfs/loomis/apps/avx/software/Gaussian/16-C.01_AVX/g16/l303.exe)
 DipDrv:  MaxL=1.
 Leave Link  303 at Tue Jul 14 12:59:30 2020, MaxMem=  7784628224 cpu:               0.5 elap:               0.1
 (Enter /gpfs/loomis/apps/avx/software/Gaussian/16-C.01_AVX/g16/l308.exe)
 Leave Link  308 at Tue Jul 14 12:59:30 2020, MaxMem=  7784628224 cpu:               0.9 elap:               0.2
 (Enter /gpfs/loomis/apps/avx/software/Gaussian/16-C.01_AVX/g16/l401.exe)
 ExpMin= 1.22D-01 ExpMax= 1.11D+05 ExpMxC= 1.07D+03 IAcc=3 IRadAn=         5 AccDes= 0.00D+00
 Harris functional with IExCor= 4639 and IRadAn=       5 diagonalized for initial guess.
 HarFok:  IExCor= 4639 AccDes= 0.00D+00 IRadAn=         5 IDoV= 1 UseB2=F ITyADJ=14
 ICtDFT=  3500011 ScaDFX=  1.000000  1.000000  1.000000  1.000000
 FoFCou: FMM=F IPFlag=           0 FMFlag=      100000 FMFlg1=           0
         NFxFlg=           0 DoJE=T BraDBF=F KetDBF=T FulRan=T
         wScrn=  0.000000 ICntrl=       500 IOpCl=  0 I1Cent=   200000004 NGrid=           0
         NMat0=    1 NMatS0=      1 NMatT0=    0 NMatD0=    1 NMtDS0=    0 NMtDT0=    0
 Symmetry not used in FoFCou.
 Harris En= -994.456789427884    
 JPrj=0 DoOrth=F DoCkMO=F.
 Leave Link  401 at Tue Jul 14 12:59:32 2020, MaxMem=  7784628224 cpu:              13.7 elap:               1.4
 (Enter /gpfs/loomis/apps/avx/software/Gaussian/16-C.01_AVX/g16/l502.exe)
 Two-electron integral symmetry not used.
 Closed shell SCF:
 Using DIIS extrapolation, IDIIS=  1040.
 NGot=  7784628224 LenX=  7784455381 LenY=  7784371419
 Requested convergence on RMS density matrix=1.00D-08 within 128 cycles.
 Requested convergence on MAX density matrix=1.00D-06.
 Requested convergence on             energy=1.00D-06.
 No special actions if energy rises.
 Fock matrices will be formed incrementally for  20 cycles.

 Cycle   1  Pass 1  IDiag  1:
 FoFJK:  IHMeth= 1 ICntrl=       0 DoSepK=T KAlg= 0 I1Cent=           0 FoldK=F
 IRaf=         1 NMat=       1 IRICut=       1 DoRegI=T DoRafI=F ISym2E= 0 IDoP0=0 IntGTp=1.
 FoFCou: FMM=F IPFlag=           0 FMFlag=      100000 FMFlg1=           0
         NFxFlg=           0 DoJE=T BraDBF=F KetDBF=F FulRan=T
         wScrn=  0.000000 ICntrl=       500 IOpCl=  0 I1Cent=           0 NGrid=           0
         NMat0=    1 NMatS0=      1 NMatT0=    0 NMatD0=    1 NMtDS0=    0 NMtDT0=    0
 Symmetry not used in FoFCou.
 Inv3:  Mode=1 IEnd=    14388300.
 Iteration    1 A*A^-1 deviation from unit magnitude is 4.00D-15 for   2174.
 Iteration    1 A*A^-1 deviation from orthogonality  is 1.63D-15 for   1359   1146.
 Iteration    1 A^-1*A deviation from unit magnitude is 4.11D-15 for   2174.
 Iteration    1 A^-1*A deviation from orthogonality  is 2.52D-15 for   2185    129.
 E= -1028.56869528287    
 DIIS: error= 3.40D-02 at cycle   1 NSaved=   1.
 NSaved= 1 IEnMin= 1 EnMin= -1028.56869528287     IErMin= 1 ErrMin= 3.40D-02
 ErrMax= 3.40D-02  0.00D+00 EMaxC= 1.00D-01 BMatC= 3.91D-01 BMatP= 3.91D-01
 IDIUse=3 WtCom= 6.60D-01 WtEn= 3.40D-01
 Coeff-Com:  0.100D+01
 Coeff-En:   0.100D+01
 Coeff:      0.100D+01
 Gap=     0.336 Goal=   None    Shift=    0.000
 GapD=    0.336 DampG=1.000 DampE=0.500 DampFc=0.5000 IDamp=-1.
 Damping current iteration by 5.00D-01
 RMSDP=3.52D-03 MaxDP=2.22D-01              OVMax= 1.74D-01

 Cycle   2  Pass 1  IDiag  1:
 RMSU=  1.75D-03    CP:  9.93D-01
 E= -1028.68510762596     Delta-E=       -0.116412343090 Rises=F Damp=T
 DIIS: error= 1.14D-02 at cycle   2 NSaved=   2.
 NSaved= 2 IEnMin= 2 EnMin= -1028.68510762596     IErMin= 2 ErrMin= 1.14D-02
 ErrMax= 1.14D-02  0.00D+00 EMaxC= 1.00D-01 BMatC= 5.82D-02 BMatP= 3.91D-01
 IDIUse=3 WtCom= 8.86D-01 WtEn= 1.14D-01
 Coeff-Com: -0.288D+00 0.129D+01
 Coeff-En:   0.000D+00 0.100D+01
 Coeff:     -0.255D+00 0.126D+01
 Gap=     0.302 Goal=   None    Shift=    0.000
 RMSDP=1.14D-03 MaxDP=2.47D-02 DE=-1.16D-01 OVMax= 1.14D-01

 Cycle   3  Pass 1  IDiag  1:
 RMSU=  1.09D-03    CP:  9.92D-01  1.19D+00
 E= -1028.78804515802     Delta-E=       -0.102937532062 Rises=F Damp=F
 DIIS: error= 5.84D-03 at cycle   3 NSaved=   3.
 NSaved= 3 IEnMin= 3 EnMin= -1028.78804515802     IErMin= 3 ErrMin= 5.84D-03
 ErrMax= 5.84D-03  0.00D+00 EMaxC= 1.00D-01 BMatC= 1.50D-02 BMatP= 5.82D-02
 IDIUse=3 WtCom= 9.42D-01 WtEn= 5.84D-02
 Coeff-Com: -0.206D+00 0.498D+00 0.708D+00
 Coeff-En:   0.000D+00 0.000D+00 0.100D+01
 Coeff:     -0.194D+00 0.469D+00 0.725D+00
 Gap=     0.257 Goal=   None    Shift=    0.000
 RMSDP=5.51D-04 MaxDP=2.12D-02 DE=-1.03D-01 OVMax= 3.87D-02

 Cycle   4  Pass 1  IDiag  1:
 RMSU=  4.32D-04    CP:  9.89D-01  1.35D+00  8.26D-01
 E= -1028.80182012851     Delta-E=       -0.013774970490 Rises=F Damp=F
 DIIS: error= 1.84D-03 at cycle   4 NSaved=   4.
 NSaved= 4 IEnMin= 4 EnMin= -1028.80182012851     IErMin= 4 ErrMin= 1.84D-03
 ErrMax= 1.84D-03  0.00D+00 EMaxC= 1.00D-01 BMatC= 1.86D-03 BMatP= 1.50D-02
 IDIUse=3 WtCom= 9.82D-01 WtEn= 1.84D-02
 Coeff-Com: -0.734D-01 0.146D+00 0.349D+00 0.578D+00
 Coeff-En:   0.000D+00 0.000D+00 0.000D+00 0.100D+01
 Coeff:     -0.720D-01 0.143D+00 0.343D+00 0.586D+00
 Gap=     0.255 Goal=   None    Shift=    0.000
 RMSDP=1.75D-04 MaxDP=1.04D-02 DE=-1.38D-02 OVMax= 1.41D-02

 Cycle   5  Pass 1  IDiag  1:
 RMSU=  1.05D-04    CP:  9.89D-01  1.36D+00  9.01D-01  7.40D-01
 E= -1028.80374126708     Delta-E=       -0.001921138566 Rises=F Damp=F
 DIIS: error= 4.57D-04 at cycle   5 NSaved=   5.
 NSaved= 5 IEnMin= 5 EnMin= -1028.80374126708     IErMin= 5 ErrMin= 4.57D-04
 ErrMax= 4.57D-04  0.00D+00 EMaxC= 1.00D-01 BMatC= 5.44D-05 BMatP= 1.86D-03
 IDIUse=3 WtCom= 9.95D-01 WtEn= 4.57D-03
 Coeff-Com: -0.350D-02 0.989D-03 0.434D-01 0.166D+00 0.793D+00
 Coeff-En:   0.000D+00 0.000D+00 0.000D+00 0.000D+00 0.100D+01
 Coeff:     -0.349D-02 0.985D-03 0.432D-01 0.165D+00 0.794D+00
 Gap=     0.256 Goal=   None    Shift=    0.000
 RMSDP=5.08D-05 MaxDP=1.72D-03 DE=-1.92D-03 OVMax= 4.53D-03

 Cycle   6  Pass 1  IDiag  1:
 RMSU=  3.32D-05    CP:  9.89D-01  1.36D+00  9.19D-01  8.14D-01  1.07D+00
 E= -1028.80384815839     Delta-E=       -0.000106891314 Rises=F Damp=F
 DIIS: error= 1.86D-04 at cycle   6 NSaved=   6.
 NSaved= 6 IEnMin= 6 EnMin= -1028.80384815839     IErMin= 6 ErrMin= 1.86D-04
 ErrMax= 1.86D-04  0.00D+00 EMaxC= 1.00D-01 BMatC= 1.14D-05 BMatP= 5.44D-05
 IDIUse=3 WtCom= 9.98D-01 WtEn= 1.86D-03
 Coeff-Com:  0.141D-01-0.298D-01-0.514D-01-0.479D-01 0.263D+00 0.852D+00
 Coeff-En:   0.000D+00 0.000D+00 0.000D+00 0.000D+00 0.000D+00 0.100D+01
 Coeff:      0.141D-01-0.297D-01-0.514D-01-0.478D-01 0.263D+00 0.852D+00
 Gap=     0.256 Goal=   None    Shift=    0.000
 RMSDP=2.86D-05 MaxDP=1.44D-03 DE=-1.07D-04 OVMax= 3.02D-03

 Cycle   7  Pass 1  IDiag  1:
 RMSU=  1.57D-05    CP:  9.89D-01  1.36D+00  9.28D-01  8.42D-01  1.22D+00
                    CP:  1.20D+00
 E= -1028.80387579614     Delta-E=       -0.000027637753 Rises=F Damp=F
 DIIS: error= 1.26D-04 at cycle   7 NSaved=   7.
 NSaved= 7 IEnMin= 7 EnMin= -1028.80387579614     IErMin= 7 ErrMin= 1.26D-04
 ErrMax= 1.26D-04  0.00D+00 EMaxC= 1.00D-01 BMatC= 2.62D-06 BMatP= 1.14D-05
 IDIUse=3 WtCom= 9.99D-01 WtEn= 1.26D-03
 Coeff-Com:  0.719D-02-0.139D-01-0.307D-01-0.494D-01-0.722D-02 0.392D+00
 Coeff-Com:  0.702D+00
 Coeff-En:   0.000D+00 0.000D+00 0.000D+00 0.000D+00 0.000D+00 0.000D+00
 Coeff-En:   0.100D+01
 Coeff:      0.718D-02-0.138D-01-0.307D-01-0.493D-01-0.721D-02 0.392D+00
 Coeff:      0.702D+00
 Gap=     0.257 Goal=   None    Shift=    0.000
 RMSDP=1.16D-05 MaxDP=5.46D-04 DE=-2.76D-05 OVMax= 1.35D-03

 Cycle   8  Pass 1  IDiag  1:
 RMSU=  6.94D-06    CP:  9.89D-01  1.36D+00  9.31D-01  8.49D-01  1.27D+00
                    CP:  1.41D+00  1.11D+00
 E= -1028.80388128312     Delta-E=       -0.000005486974 Rises=F Damp=F
 DIIS: error= 4.46D-05 at cycle   8 NSaved=   8.
 NSaved= 8 IEnMin= 8 EnMin= -1028.80388128312     IErMin= 8 ErrMin= 4.46D-05
 ErrMax= 4.46D-05  0.00D+00 EMaxC= 1.00D-01 BMatC= 2.97D-07 BMatP= 2.62D-06
 IDIUse=1 WtCom= 1.00D+00 WtEn= 0.00D+00
 Coeff-Com: -0.111D-02 0.250D-02 0.358D-02 0.362D-03-0.400D-01-0.745D-01
 Coeff-Com:  0.176D+00 0.934D+00
 Coeff:     -0.111D-02 0.250D-02 0.358D-02 0.362D-03-0.400D-01-0.745D-01
 Coeff:      0.176D+00 0.934D+00
 Gap=     0.257 Goal=   None    Shift=    0.000
 RMSDP=5.64D-06 MaxDP=1.86D-04 DE=-5.49D-06 OVMax= 8.56D-04

 Cycle   9  Pass 1  IDiag  1:
 RMSU=  2.50D-06    CP:  9.89D-01  1.36D+00  9.31D-01  8.49D-01  1.28D+00
                    CP:  1.49D+00  1.34D+00  1.24D+00
 E= -1028.80388233082     Delta-E=       -0.000001047698 Rises=F Damp=F
 DIIS: error= 2.07D-05 at cycle   9 NSaved=   9.
 NSaved= 9 IEnMin= 9 EnMin= -1028.80388233082     IErMin= 9 ErrMin= 2.07D-05
 ErrMax= 2.07D-05  0.00D+00 EMaxC= 1.00D-01 BMatC= 5.06D-08 BMatP= 2.97D-07
 IDIUse=1 WtCom= 1.00D+00 WtEn= 0.00D+00
 Coeff-Com: -0.117D-02 0.234D-02 0.484D-02 0.651D-02-0.104D-01-0.801D-01
 Coeff-Com: -0.377D-01 0.274D+00 0.842D+00
 Coeff:     -0.117D-02 0.234D-02 0.484D-02 0.651D-02-0.104D-01-0.801D-01
 Coeff:     -0.377D-01 0.274D+00 0.842D+00
 Gap=     0.257 Goal=   None    Shift=    0.000
 RMSDP=2.55D-06 MaxDP=6.93D-05 DE=-1.05D-06 OVMax= 4.36D-04

 Cycle  10  Pass 1  IDiag  1:
 RMSU=  1.20D-06    CP:  9.89D-01  1.36D+00  9.31D-01  8.48D-01  1.28D+00
                    CP:  1.53D+00  1.42D+00  1.41D+00  1.23D+00
 E= -1028.80388254727     Delta-E=       -0.000000216453 Rises=F Damp=F
 DIIS: error= 8.65D-06 at cycle  10 NSaved=  10.
 NSaved=10 IEnMin=10 EnMin= -1028.80388254727     IErMin=10 ErrMin= 8.65D-06
 ErrMax= 8.65D-06  0.00D+00 EMaxC= 1.00D-01 BMatC= 1.65D-08 BMatP= 5.06D-08
 IDIUse=1 WtCom= 1.00D+00 WtEn= 0.00D+00
 Coeff-Com: -0.177D-03 0.294D-03 0.105D-02 0.254D-02 0.500D-02-0.173D-01
 Coeff-Com: -0.515D-01-0.115D+00 0.349D+00 0.826D+00
 Coeff:     -0.177D-03 0.294D-03 0.105D-02 0.254D-02 0.500D-02-0.173D-01
 Coeff:     -0.515D-01-0.115D+00 0.349D+00 0.826D+00
 Gap=     0.257 Goal=   None    Shift=    0.000
 RMSDP=1.46D-06 MaxDP=3.90D-05 DE=-2.16D-07 OVMax= 2.36D-04

 Cycle  11  Pass 1  IDiag  1:
 RMSU=  5.44D-07    CP:  9.89D-01  1.36D+00  9.31D-01  8.49D-01  1.28D+00
                    CP:  1.54D+00  1.46D+00  1.51D+00  1.57D+00  1.19D+00
 E= -1028.80388260834     Delta-E=       -0.000000061071 Rises=F Damp=F
 DIIS: error= 4.97D-06 at cycle  11 NSaved=  11.
 NSaved=11 IEnMin=11 EnMin= -1028.80388260834     IErMin=11 ErrMin= 4.97D-06
 ErrMax= 4.97D-06  0.00D+00 EMaxC= 1.00D-01 BMatC= 2.21D-09 BMatP= 1.65D-08
 IDIUse=1 WtCom= 1.00D+00 WtEn= 0.00D+00
 Coeff-Com:  0.248D-03-0.512D-03-0.868D-03-0.807D-03 0.448D-02 0.112D-01
 Coeff-Com: -0.452D-02-0.919D-01-0.494D-01 0.208D+00 0.924D+00
 Coeff:      0.248D-03-0.512D-03-0.868D-03-0.807D-03 0.448D-02 0.112D-01
 Coeff:     -0.452D-02-0.919D-01-0.494D-01 0.208D+00 0.924D+00
 Gap=     0.257 Goal=   None    Shift=    0.000
 RMSDP=6.33D-07 MaxDP=1.83D-05 DE=-6.11D-08 OVMax= 1.23D-04

 Cycle  12  Pass 1  IDiag  1:
 RMSU=  2.20D-07    CP:  9.89D-01  1.36D+00  9.31D-01  8.49D-01  1.29D+00
                    CP:  1.54D+00  1.47D+00  1.53D+00  1.72D+00  1.46D+00
                    CP:  1.18D+00
 E= -1028.80388261999     Delta-E=       -0.000000011655 Rises=F Damp=F
 DIIS: error= 1.21D-06 at cycle  12 NSaved=  12.
 NSaved=12 IEnMin=12 EnMin= -1028.80388261999     IErMin=12 ErrMin= 1.21D-06
 ErrMax= 1.21D-06  0.00D+00 EMaxC= 1.00D-01 BMatC= 7.20D-10 BMatP= 2.21D-09
 IDIUse=1 WtCom= 1.00D+00 WtEn= 0.00D+00
 Coeff-Com:  0.132D-03-0.258D-03-0.543D-03-0.859D-03 0.108D-02 0.799D-02
 Coeff-Com:  0.940D-02-0.160D-01-0.952D-01-0.123D+00 0.376D+00 0.841D+00
 Coeff:      0.132D-03-0.258D-03-0.543D-03-0.859D-03 0.108D-02 0.799D-02
 Coeff:      0.940D-02-0.160D-01-0.952D-01-0.123D+00 0.376D+00 0.841D+00
 Gap=     0.257 Goal=   None    Shift=    0.000
 RMSDP=3.32D-07 MaxDP=7.62D-06 DE=-1.17D-08 OVMax= 5.29D-05

 Cycle  13  Pass 1  IDiag  1:
 RMSU=  9.03D-08    CP:  9.89D-01  1.36D+00  9.31D-01  8.49D-01  1.29D+00
                    CP:  1.54D+00  1.48D+00  1.55D+00  1.80D+00  1.58D+00
                    CP:  1.46D+00  1.12D+00
 E= -1028.80388262234     Delta-E=       -0.000000002345 Rises=F Damp=F
 DIIS: error= 5.87D-07 at cycle  13 NSaved=  13.
 NSaved=13 IEnMin=13 EnMin= -1028.80388262234     IErMin=13 ErrMin= 5.87D-07
 ErrMax= 5.87D-07  0.00D+00 EMaxC= 1.00D-01 BMatC= 5.82D-11 BMatP= 7.20D-10
 IDIUse=1 WtCom= 1.00D+00 WtEn= 0.00D+00
 Coeff-Com:  0.519D-05-0.659D-05-0.442D-04-0.173D-03-0.215D-03 0.932D-03
 Coeff-Com:  0.365D-02 0.807D-02-0.196D-01-0.725D-01-0.842D-02 0.257D+00
 Coeff-Com:  0.832D+00
 Coeff:      0.519D-05-0.659D-05-0.442D-04-0.173D-03-0.215D-03 0.932D-03
 Coeff:      0.365D-02 0.807D-02-0.196D-01-0.725D-01-0.842D-02 0.257D+00
 Coeff:      0.832D+00
 Gap=     0.257 Goal=   None    Shift=    0.000
 RMSDP=8.08D-08 MaxDP=2.02D-06 DE=-2.35D-09 OVMax= 1.20D-05

 Cycle  14  Pass 1  IDiag  1:
 RMSU=  3.61D-08    CP:  9.89D-01  1.36D+00  9.31D-01  8.49D-01  1.29D+00
                    CP:  1.54D+00  1.48D+00  1.55D+00  1.81D+00  1.61D+00
                    CP:  1.53D+00  1.27D+00  1.05D+00
 E= -1028.80388262250     Delta-E=       -0.000000000161 Rises=F Damp=F
 DIIS: error= 1.56D-07 at cycle  14 NSaved=  14.
 NSaved=14 IEnMin=14 EnMin= -1028.80388262250     IErMin=14 ErrMin= 1.56D-07
 ErrMax= 1.56D-07  0.00D+00 EMaxC= 1.00D-01 BMatC= 1.27D-11 BMatP= 5.82D-11
 IDIUse=1 WtCom= 1.00D+00 WtEn= 0.00D+00
 Coeff-Com: -0.127D-04 0.264D-04 0.436D-04 0.211D-04-0.200D-03-0.447D-03
 Coeff-Com:  0.582D-03 0.545D-02 0.264D-02-0.183D-01-0.451D-01 0.104D-01
 Coeff-Com:  0.367D+00 0.678D+00
 Coeff:     -0.127D-04 0.264D-04 0.436D-04 0.211D-04-0.200D-03-0.447D-03
 Coeff:      0.582D-03 0.545D-02 0.264D-02-0.183D-01-0.451D-01 0.104D-01
 Coeff:      0.367D+00 0.678D+00
 Gap=     0.257 Goal=   None    Shift=    0.000
 RMSDP=2.24D-08 MaxDP=6.12D-07 DE=-1.61D-10 OVMax= 2.04D-06

 Cycle  15  Pass 1  IDiag  1:
 RMSU=  1.32D-08    CP:  9.89D-01  1.36D+00  9.31D-01  8.49D-01  1.29D+00
                    CP:  1.54D+00  1.48D+00  1.55D+00  1.81D+00  1.62D+00
                    CP:  1.54D+00  1.31D+00  1.19D+00  9.37D-01
 E= -1028.80388262253     Delta-E=       -0.000000000026 Rises=F Damp=F
 DIIS: error= 8.17D-08 at cycle  15 NSaved=  15.
 NSaved=15 IEnMin=15 EnMin= -1028.80388262253     IErMin=15 ErrMin= 8.17D-08
 ErrMax= 8.17D-08  0.00D+00 EMaxC= 1.00D-01 BMatC= 9.60D-13 BMatP= 1.27D-11
 IDIUse=1 WtCom= 1.00D+00 WtEn= 0.00D+00
 Coeff-Com: -0.412D-05 0.778D-05 0.199D-04 0.348D-04-0.193D-04-0.311D-03
 Coeff-Com: -0.582D-03-0.166D-03 0.434D-02 0.839D-02-0.828D-02-0.438D-01
 Coeff-Com: -0.458D-01 0.162D+00 0.924D+00
 Coeff:     -0.412D-05 0.778D-05 0.199D-04 0.348D-04-0.193D-04-0.311D-03
 Coeff:     -0.582D-03-0.166D-03 0.434D-02 0.839D-02-0.828D-02-0.438D-01
 Coeff:     -0.458D-01 0.162D+00 0.924D+00
 Gap=     0.257 Goal=   None    Shift=    0.000
 RMSDP=9.33D-09 MaxDP=1.99D-07 DE=-2.57D-11 OVMax= 1.03D-06

 Error on total polarization charges =  0.00821
 SCF Done:  E(RwB97XD) =  -1028.80388262     A.U. after   15 cycles
            NFock= 15  Conv=0.93D-08     -V/T= 2.0052
 KE= 1.023532139135D+03 PE=-4.612941178993D+03 EE= 1.460096997722D+03
 Leave Link  502 at Tue Jul 14 13:00:54 2020, MaxMem=  7784628224 cpu:             817.5 elap:              82.5
 (Enter /gpfs/loomis/apps/avx/software/Gaussian/16-C.01_AVX/g16/l801.exe)
 DoSCS=F DFT=T ScalE2(SS,OS)=  1.000000  1.000000
 ExpMin= 1.22D-01 ExpMax= 1.11D+05 ExpMxC= 1.07D+03 IAcc=3 IRadAn=         5 AccDes= 0.00D+00
 HarFok:  IExCor=  205 AccDes= 0.00D+00 IRadAn=         5 IDoV=-2 UseB2=F ITyADJ=14
 ICtDFT= 12500011 ScaDFX=  1.000000  1.000000  1.000000  1.000000
 Largest valence mixing into a core orbital is  9.41D-05
 Largest core mixing into a valence orbital is  3.08D-05
 Range of M.O.s used for correlation:    21   273
 NBasis=   273 NAE=    59 NBE=    59 NFC=    20 NFV=     0
 NROrb=    253 NOA=    39 NOB=    39 NVA=   214 NVB=   214

 **** Warning!!: The largest alpha MO coefficient is  0.11580830D+02

 Leave Link  801 at Tue Jul 14 13:00:54 2020, MaxMem=  7784628224 cpu:               1.4 elap:               0.2
 (Enter /gpfs/loomis/apps/avx/software/Gaussian/16-C.01_AVX/g16/l914.exe)
 RHF ground state
 Keep R1, R2, and R3 ints in memory in canonical form, NReq=4262515490.
 FoFCou: FMM=F IPFlag=           0 FMFlag=           0 FMFlg1=           0
         NFxFlg=           0 DoJE=F BraDBF=F KetDBF=F FulRan=T
         wScrn=  0.000000 ICntrl=       600 IOpCl=  0 I1Cent=           0 NGrid=           0
         NMat0=    1 NMatS0=  37401 NMatT0=    0 NMatD0=    1 NMtDS0=    0 NMtDT0=    0
 Symmetry not used in FoFCou.
 Two-electron integral symmetry not used.
 MDV=  7784628224 DFT=T DoStab=F Mixed=T DoRPA=T DoScal=F NonHer=T
 NEqPCM:  Using equilibrium solvation (IEInf=0, Eps=   2.2280, EpsInf=   2.1319)
 Making orbital integer symmetry assigments:
    12 initial guesses have been made.
 Convergence on wavefunction:    0.000001000000000
 Davidson Disk Diagonalization:  ConvIn= 1.00D-06 SkipCon=T Conv= 1.00D-06.
 Max sub-space:  2000 roots to seek:    12 dimension of matrix:        16692
 Iteration     1 Dimension    12 NMult     0 NNew     12
 CISAX will form    12 AO SS matrices at one time.
 NMat=    12 NSing=    12 JSym2X= 0.
 New state      2 was old state      5
 New state      3 was old state      2
 Excitation Energies [eV] at current iteration:
 Root      1 :     3.769806523857180
 Root      2 :     4.854163336205808
 Root      3 :     4.886919411814117
 Root      4 :     5.204370661925165
 Root      5 :     5.890946936011535
 Root      6 :     6.054529774527846
 Root      7 :     6.239242705750568
 Root      8 :     6.350764688378644
 Root      9 :     6.862152816663663
 Root     10 :     7.046818149956195
 Root     11 :     7.150210305297542
 Root     12 :     7.864597054090214
 Iteration     2 Dimension    18 NMult    12 NNew      6
 CISAX will form     6 AO SS matrices at one time.
 NMat=     6 NSing=     6 JSym2X= 0.
 Root      1 not converged, maximum delta is    0.044458552701364
 New state      2 was old state      3
 Root      2 not converged, maximum delta is    0.082189601199585
 New state      3 was old state      2
 Root      3 not converged, maximum delta is    0.078333432256756
 Excitation Energies [eV] at current iteration:
 Root      1 :     3.277459663798719   Change is   -0.492346860058461
 Root      2 :     4.353157731714955   Change is   -0.533761680099162
 Root      3 :     4.648764730325839   Change is   -0.205398605879969
 Iteration     3 Dimension    24 NMult    18 NNew      6
 CISAX will form     6 AO SS matrices at one time.
 NMat=     6 NSing=     6 JSym2X= 0.
 Root      1 not converged, maximum delta is    0.020740985213926
 Root      2 not converged, maximum delta is    0.019435909100611
 Root      3 not converged, maximum delta is    0.028518343763492
 Excitation Energies [eV] at current iteration:
 Root      1 :     3.242704763739881   Change is   -0.034754900058838
 Root      2 :     4.324390042089804   Change is   -0.028767689625151
 Root      3 :     4.632389478562031   Change is   -0.016375251763808
 Iteration     4 Dimension    30 NMult    24 NNew      6
 CISAX will form     6 AO SS matrices at one time.
 NMat=     6 NSing=     6 JSym2X= 0.
 Root      1 not converged, maximum delta is    0.007795622865555
 Root      2 not converged, maximum delta is    0.007910719504659
 Root      3 not converged, maximum delta is    0.009846620662619
 Excitation Energies [eV] at current iteration:
 Root      1 :     3.237726166398013   Change is   -0.004978597341868
 Root      2 :     4.319292527279517   Change is   -0.005097514810287
 Root      3 :     4.630774672754962   Change is   -0.001614805807069
 Iteration     5 Dimension    36 NMult    30 NNew      6
 CISAX will form     6 AO SS matrices at one time.
 NMat=     6 NSing=     6 JSym2X= 0.
 Root      1 not converged, maximum delta is    0.003144266661186
 Root      2 not converged, maximum delta is    0.002695697973169
 Root      3 not converged, maximum delta is    0.002142147543691
 Excitation Energies [eV] at current iteration:
 Root      1 :     3.237207927699787   Change is   -0.000518238698226
 Root      2 :     4.318806796867695   Change is   -0.000485730411822
 Root      3 :     4.630622345292987   Change is   -0.000152327461975
 Iteration     6 Dimension    42 NMult    36 NNew      6
 CISAX will form     6 AO SS matrices at one time.
 NMat=     6 NSing=     6 JSym2X= 0.
 Root      1 not converged, maximum delta is    0.000616197723344
 Root      2 not converged, maximum delta is    0.000893106399615
 Root      3 not converged, maximum delta is    0.000315507353387
 Excitation Energies [eV] at current iteration:
 Root      1 :     3.237152446699860   Change is   -0.000055480999927
 Root      2 :     4.318749973240247   Change is   -0.000056823627448
 Root      3 :     4.630610489386935   Change is   -0.000011855906052
 Iteration     7 Dimension    48 NMult    42 NNew      6
 CISAX will form     6 AO SS matrices at one time.
 NMat=     6 NSing=     6 JSym2X= 0.
 Root      1 not converged, maximum delta is    0.000195785993027
 Root      2 not converged, maximum delta is    0.000290984633183
 Root      3 not converged, maximum delta is    0.000086814647509
 Excitation Energies [eV] at current iteration:
 Root      1 :     3.237148522328941   Change is   -0.000003924370919
 Root      2 :     4.318742809950956   Change is   -0.000007163289291
 Root      3 :     4.630609795634283   Change is   -0.000000693752653
 Iteration     8 Dimension    54 NMult    48 NNew      6
 CISAX will form     6 AO SS matrices at one time.
 NMat=     6 NSing=     6 JSym2X= 0.
 Root      1 not converged, maximum delta is    0.000030854642865
 Root      2 not converged, maximum delta is    0.000084029188354
 Root      3 not converged, maximum delta is    0.000047768298931
 Excitation Energies [eV] at current iteration:
 Root      1 :     3.237148213991672   Change is   -0.000000308337269
 Root      2 :     4.318742198016505   Change is   -0.000000611934452
 Root      3 :     4.630609730627280   Change is   -0.000000065007002
 Iteration     9 Dimension    60 NMult    54 NNew      6
 CISAX will form     6 AO SS matrices at one time.
 NMat=     6 NSing=     6 JSym2X= 0.
 Root      1 not converged, maximum delta is    0.000009215375373
 Root      2 not converged, maximum delta is    0.000033734606439
 Root      3 not converged, maximum delta is    0.000015922599613
 Excitation Energies [eV] at current iteration:
 Root      1 :     3.237148197226855   Change is   -0.000000016764817
 Root      2 :     4.318742143692823   Change is   -0.000000054323681
 Root      3 :     4.630609724805251   Change is   -0.000000005822029
 Iteration    10 Dimension    66 NMult    60 NNew      6
 CISAX will form     6 AO SS matrices at one time.
 NMat=     6 NSing=     6 JSym2X= 0.
 Root      1 not converged, maximum delta is    0.000001690312364
 Root      2 not converged, maximum delta is    0.000015407089899
 Root      3 not converged, maximum delta is    0.000003491499141
 Excitation Energies [eV] at current iteration:
 Root      1 :     3.237148196208819   Change is   -0.000000001018037
 Root      2 :     4.318742138136889   Change is   -0.000000005555935
 Root      3 :     4.630609724315977   Change is   -0.000000000489274
 Iteration    11 Dimension    72 NMult    66 NNew      6
 CISAX will form     6 AO SS matrices at one time.
 NMat=     6 NSing=     6 JSym2X= 0.
 Root      1 has converged.
 Root      2 not converged, maximum delta is    0.000005622017769
 Root      3 has converged.
 Excitation Energies [eV] at current iteration:
 Root      1 :     3.237148196155388   Change is   -0.000000000053431
 Root      2 :     4.318742137598787   Change is   -0.000000000538102
 Root      3 :     4.630609724267067   Change is   -0.000000000048910
 Iteration    12 Dimension    74 NMult    72 NNew      2
 CISAX will form     2 AO SS matrices at one time.
 NMat=     2 NSing=     2 JSym2X= 0.
 Root      1 has converged.
 Root      2 not converged, maximum delta is    0.000001424652193
 Root      3 has converged.
 Excitation Energies [eV] at current iteration:
 Root      1 :     3.237148196155363   Change is   -0.000000000000025
 Root      2 :     4.318742137546535   Change is   -0.000000000052252
 Root      3 :     4.630609724266854   Change is   -0.000000000000213
 Iteration    13 Dimension    76 NMult    74 NNew      2
 CISAX will form     2 AO SS matrices at one time.
 NMat=     2 NSing=     2 JSym2X= 0.
 Root      1 has converged.
 Root      2 has converged.
 Root      3 has converged.
 Excitation Energies [eV] at current iteration:
 Root      1 :     3.237148196155261   Change is   -0.000000000000102
 Root      2 :     4.318742137541643   Change is   -0.000000000004892
 Root      3 :     4.630609724266641   Change is   -0.000000000000213
 Convergence achieved on expansion vectors.
 ***********************************************************************
 Excited states from <AA,BB:AA,BB> singles matrix:
 ***********************************************************************
 
 1PDM for each excited state written to RWF  633
 Ground to excited state transition densities written to RWF  633
 Ground to excited state transition electric dipole moments (Au):
       state          X           Y           Z        Dip. S.      Osc.
         1         1.3350     -2.1060     -0.0000      6.2175      0.4931
         2         1.4612     -0.7398     -0.0000      2.6824      0.2838
         3         0.0000      0.0001      0.0137      0.0002      0.0000
 Ground to excited state transition velocity dipole moments (Au):
       state          X           Y           Z        Dip. S.      Osc.
         1        -0.1543      0.2527      0.0000      0.0876      0.4912
         2        -0.2275      0.1088      0.0000      0.0636      0.2672
         3        -0.0000     -0.0000     -0.0022      0.0000      0.0000
 Ground to excited state transition magnetic dipole moments (Au):
       state          X           Y           Z
         1         0.0000      0.0000     -0.8235
         2         0.0000      0.0000      1.3386
         3        -0.0054      0.0651     -0.0001
 Ground to excited state transition velocity quadrupole moments (Au):
       state          XX          YY          ZZ          XY          XZ          YZ
         1         0.0593      0.5521     -0.0146     -0.2780     -0.0000      0.0000
         2         0.4428     -0.7183     -0.0011      0.0361     -0.0000     -0.0000
         3        -0.0001      0.0000      0.0000      0.0000     -0.0226     -0.0182
 <0|del|b> * <b|rxdel|0> + <0|del|b> * <b|delr+rdel|0>
 Rotatory Strengths (R) in cgs (10**-40 erg-esu-cm/Gauss)
       state          XX          YY          ZZ    R(velocity)    E-M Angle
         1         0.0073     -0.0118      0.0170      0.0042       90.00
         2         0.0072      0.0024     -0.0096     -0.0000       90.00
         3        -0.0023      0.0005     -0.0012     -0.0010       90.00
 1/2[<0|r|b>*<b|rxdel|0> + (<0|rxdel|b>*<b|r|0>)*]
 Rotatory Strengths (R) in cgs (10**-40 erg-esu-cm/Gauss)
       state          XX          YY          ZZ     R(length)
         1        -0.0027      0.0321     -0.0182      0.0037
         2        -0.0114      0.0007      0.0103     -0.0001
         3         0.0000     -0.0036      0.0007     -0.0010
  1/2[<0|del|b>*<b|r|0> + (<0|r|b>*<b|del|0>)*] (Au)
       state          X           Y           Z        Dip. S.   Osc.(frdel)
         1        -0.2060     -0.5321     -0.0000      0.7381      0.4921
         2        -0.3324     -0.0805     -0.0000      0.4129      0.2753
         3        -0.0000     -0.0000     -0.0000      0.0000      0.0000

 Excitation energies and oscillator strengths:
 
 Excited state symmetry could not be determined.
 Excited State   1:      Singlet-?Sym    3.2371 eV  383.00 nm  f=0.4931  <S**2>=0.000
      59 -> 60         0.69329
 This state for optimization and/or second-order correction.
 Total Energy, E(TD-HF/TD-DFT) =  -1028.68491962    
 Copying the excited state density for this state as the 1-particle RhoCI density.
 
 Excited state symmetry could not be determined.
 Excited State   2:      Singlet-?Sym    4.3187 eV  287.08 nm  f=0.2838  <S**2>=0.000
      57 -> 60        -0.10856
      58 -> 60         0.66900
 
 Excited state symmetry could not be determined.
 Excited State   3:      Singlet-?Sym    4.6306 eV  267.75 nm  f=0.0000  <S**2>=0.000
      56 -> 60         0.68837
      56 -> 64        -0.10319
 SavETr:  write IOETrn=   770 NScale= 10 NData=  16 NLR=1 NState=    3 LETran=      64.
 The selected state is a singlet.
 CISGrd: IGrad=2 NXY=2 DFT=T
 CISAX will form     1 AO SS matrices at one time.
 NMat=     1 NSing=     1 JSym2X= 0.
 GePol: Maximum number of non-zero 1st derivatives   =     250
 Leave Link  914 at Tue Jul 14 13:03:54 2020, MaxMem=  7784628224 cpu:            1763.5 elap:             179.3
 (Enter /gpfs/loomis/apps/avx/software/Gaussian/16-C.01_AVX/g16/l1002.exe)
 Minotr:  Closed shell wavefunction.
          Computing CIS/TDA/TD derivatives.
          Using Z-Vector for PSCF gradient.
          Skipping F1 and S1 gradient terms here.
          IDoAtm=1111111111111111111111111
 NEqPCM:  Using equilibrium solvation (IEInf=0, Eps=   2.2280, EpsInf=   2.1319)
          Frozen-core window.
          Direct CPHF calculation.
          Differentiating once with respect to electric field.
                with respect to dipole field.
          Differentiating once with respect to nuclear coordinates.
          Requested convergence is 1.0D-10 RMS, and 1.0D-09 maximum.
          NewPWx=F KeepS1=T KeepF1=T KeepIn=T MapXYZ=F SortEE=F KeepMc=T.
 Keep R1 ints in memory in canonical form, NReq=1421489701.
 FoFCou: FMM=F IPFlag=           0 FMFlag=           0 FMFlg1=           0
         NFxFlg=           0 DoJE=F BraDBF=F KetDBF=F FulRan=T
         wScrn=  0.000000 ICntrl=       600 IOpCl=  0 I1Cent=           0 NGrid=           0
         NMat0=    1 NMatS0=  37401 NMatT0=    0 NMatD0=    1 NMtDS0=    0 NMtDT0=    0
 Symmetry not used in FoFCou.
 Two-electron integral symmetry not used.
          MDV=    7784628224 using IRadAn=       5.
          Solving linear equations separately, MaxMat=       0.
          There are     1 degrees of freedom in the 1st order CPHF.  IDoFFX=0 NUNeed=     1.
 LinEq1:  Iter=  0 NonCon=     1 RMS=5.54D-03 Max=2.90D-01 NDo=     1
 AX will form     1 AO Fock derivatives at one time.
 LinEq1:  Iter=  1 NonCon=     1 RMS=2.32D-03 Max=1.11D-01 NDo=     1
 LinEq1:  Iter=  2 NonCon=     1 RMS=1.46D-03 Max=5.08D-02 NDo=     1
 LinEq1:  Iter=  3 NonCon=     1 RMS=5.48D-04 Max=1.28D-02 NDo=     1
 LinEq1:  Iter=  4 NonCon=     1 RMS=3.03D-04 Max=1.02D-02 NDo=     1
 LinEq1:  Iter=  5 NonCon=     1 RMS=1.61D-04 Max=7.77D-03 NDo=     1
 LinEq1:  Iter=  6 NonCon=     1 RMS=7.28D-05 Max=3.00D-03 NDo=     1
 LinEq1:  Iter=  7 NonCon=     1 RMS=3.92D-05 Max=9.85D-04 NDo=     1
 LinEq1:  Iter=  8 NonCon=     1 RMS=1.67D-05 Max=5.07D-04 NDo=     1
 LinEq1:  Iter=  9 NonCon=     1 RMS=9.47D-06 Max=2.92D-04 NDo=     1
 LinEq1:  Iter= 10 NonCon=     1 RMS=3.63D-06 Max=1.05D-04 NDo=     1
 LinEq1:  Iter= 11 NonCon=     1 RMS=2.09D-06 Max=1.02D-04 NDo=     1
 LinEq1:  Iter= 12 NonCon=     1 RMS=9.77D-07 Max=2.82D-05 NDo=     1
 LinEq1:  Iter= 13 NonCon=     1 RMS=3.92D-07 Max=1.10D-05 NDo=     1
 LinEq1:  Iter= 14 NonCon=     1 RMS=1.67D-07 Max=4.65D-06 NDo=     1
 LinEq1:  Iter= 15 NonCon=     1 RMS=8.41D-08 Max=2.77D-06 NDo=     1
 LinEq1:  Iter= 16 NonCon=     1 RMS=3.54D-08 Max=1.15D-06 NDo=     1
 LinEq1:  Iter= 17 NonCon=     1 RMS=1.68D-08 Max=6.04D-07 NDo=     1
 LinEq1:  Iter= 18 NonCon=     1 RMS=6.35D-09 Max=1.70D-07 NDo=     1
 LinEq1:  Iter= 19 NonCon=     1 RMS=3.29D-09 Max=9.85D-08 NDo=     1
 LinEq1:  Iter= 20 NonCon=     1 RMS=1.47D-09 Max=4.89D-08 NDo=     1
 LinEq1:  Iter= 21 NonCon=     1 RMS=3.68D-10 Max=8.86D-09 NDo=     1
 LinEq1:  Iter= 22 NonCon=     1 RMS=1.37D-10 Max=2.74D-09 NDo=     1
 LinEq1:  Iter= 23 NonCon=     1 RMS=6.24D-11 Max=1.19D-09 NDo=     1
 LinEq1:  Iter= 24 NonCon=     0 RMS=2.15D-11 Max=8.52D-10 NDo=     1
 Linear equations converged to 1.000D-10 1.000D-09 after    24 iterations.
 End of Minotr F.D. properties file   721 does not exist.
 End of Minotr F.D. properties file   722 does not exist.
 End of Minotr F.D. properties file   788 does not exist.
 Leave Link 1002 at Tue Jul 14 13:05:34 2020, MaxMem=  7784628224 cpu:             746.0 elap:             100.8
 (Enter /gpfs/loomis/apps/avx/software/Gaussian/16-C.01_AVX/g16/l601.exe)
 Copying SCF densities to generalized density rwf, IOpCl= 0 IROHF=0.

 **********************************************************************

            Population analysis using the SCF Density.

 **********************************************************************

 Alpha  occ. eigenvalues --  -89.09425 -19.24725 -14.49763 -10.40475 -10.37195
 Alpha  occ. eigenvalues --  -10.36806 -10.35392 -10.32793 -10.32572 -10.32172
 Alpha  occ. eigenvalues --  -10.32118 -10.32012 -10.31838 -10.31343 -10.30135
 Alpha  occ. eigenvalues --  -10.29906  -8.11542  -6.06381  -6.06034  -6.05590
 Alpha  occ. eigenvalues --   -1.13591  -1.09428  -0.97132  -0.95702  -0.92783
 Alpha  occ. eigenvalues --   -0.88826  -0.85754  -0.83607  -0.82184  -0.75769
 Alpha  occ. eigenvalues --   -0.71566  -0.71049  -0.68569  -0.67536  -0.63664
 Alpha  occ. eigenvalues --   -0.60816  -0.59215  -0.57832  -0.55388  -0.54706
 Alpha  occ. eigenvalues --   -0.54263  -0.53543  -0.52845  -0.50665  -0.49702
 Alpha  occ. eigenvalues --   -0.49485  -0.47025  -0.46392  -0.45599  -0.44936
 Alpha  occ. eigenvalues --   -0.44315  -0.43011  -0.42171  -0.40642  -0.36523
 Alpha  occ. eigenvalues --   -0.35189  -0.32626  -0.31229  -0.27513
 Alpha virt. eigenvalues --   -0.01854   0.04362   0.06199   0.07302   0.07959
 Alpha virt. eigenvalues --    0.10612   0.14592   0.14886   0.16909   0.17722
 Alpha virt. eigenvalues --    0.18614   0.20700   0.21254   0.21717   0.22464
 Alpha virt. eigenvalues --    0.23275   0.23861   0.24676   0.27671   0.28969
 Alpha virt. eigenvalues --    0.32235   0.33253   0.34963   0.35332   0.36726
 Alpha virt. eigenvalues --    0.38088   0.39167   0.40469   0.41673   0.42915
 Alpha virt. eigenvalues --    0.47113   0.47423   0.50734   0.51134   0.51379
 Alpha virt. eigenvalues --    0.52057   0.53155   0.53636   0.53698   0.55059
 Alpha virt. eigenvalues --    0.56187   0.56280   0.56695   0.57147   0.58125
 Alpha virt. eigenvalues --    0.58182   0.58351   0.58643   0.59227   0.60295
 Alpha virt. eigenvalues --    0.60767   0.61072   0.61877   0.62859   0.62945
 Alpha virt. eigenvalues --    0.65447   0.65468   0.66731   0.67028   0.68913
 Alpha virt. eigenvalues --    0.70387   0.70960   0.71991   0.72190   0.72824
 Alpha virt. eigenvalues --    0.72951   0.74676   0.75009   0.75812   0.78141
 Alpha virt. eigenvalues --    0.78667   0.79073   0.80050   0.80928   0.82327
 Alpha virt. eigenvalues --    0.84618   0.87834   0.90677   0.90803   0.93452
 Alpha virt. eigenvalues --    0.94683   0.94704   0.95981   0.96466   0.97067
 Alpha virt. eigenvalues --    0.98257   0.98384   1.00353   1.00640   1.01596
 Alpha virt. eigenvalues --    1.02421   1.05590   1.06381   1.06430   1.07330
 Alpha virt. eigenvalues --    1.07852   1.09784   1.09792   1.10291   1.11143
 Alpha virt. eigenvalues --    1.12027   1.12748   1.14469   1.14573   1.15233
 Alpha virt. eigenvalues --    1.15765   1.19773   1.20163   1.22063   1.22705
 Alpha virt. eigenvalues --    1.25429   1.29070   1.32695   1.33444   1.34389
 Alpha virt. eigenvalues --    1.36566   1.36844   1.38990   1.40518   1.47544
 Alpha virt. eigenvalues --    1.48886   1.50107   1.51427   1.53603   1.54577
 Alpha virt. eigenvalues --    1.56412   1.56647   1.56739   1.58123   1.58475
 Alpha virt. eigenvalues --    1.59169   1.60769   1.63762   1.66145   1.66295
 Alpha virt. eigenvalues --    1.68219   1.68626   1.69790   1.69918   1.70449
 Alpha virt. eigenvalues --    1.71703   1.72333   1.73334   1.73456   1.75888
 Alpha virt. eigenvalues --    1.76617   1.79454   1.79924   1.81356   1.82092
 Alpha virt. eigenvalues --    1.82635   1.83883   1.84107   1.84288   1.84980
 Alpha virt. eigenvalues --    1.86557   1.87163   1.88063   1.89357   1.91881
 Alpha virt. eigenvalues --    1.92014   1.92396   1.93439   1.94877   1.96349
 Alpha virt. eigenvalues --    1.97594   1.99387   1.99642   2.02724   2.03237
 Alpha virt. eigenvalues --    2.04651   2.07413   2.09005   2.10590   2.13385
 Alpha virt. eigenvalues --    2.16124   2.16800   2.18013   2.20120   2.23381
 Alpha virt. eigenvalues --    2.24958   2.25895   2.30739   2.36790   2.40609
 Alpha virt. eigenvalues --    2.40687   2.41855   2.42807   2.44865   2.46151
 Alpha virt. eigenvalues --    2.47341   2.49177   2.50689   2.52832   2.61111
 Alpha virt. eigenvalues --    2.62016   2.71465   2.72933   2.74797   2.78182
 Alpha virt. eigenvalues --    2.80329   2.83252   2.84517   2.88730   2.89626
 Alpha virt. eigenvalues --    2.91052   3.01581   3.10825   3.16120   3.37404
 Alpha virt. eigenvalues --    3.44580   3.54291   3.64273   3.82939
          Condensed to atoms (all electrons):
               1          2          3          4          5          6
     1  C    4.739744   0.484041   0.005714  -0.051634  -0.016129   0.517358
     2  C    0.484041   5.288717   0.342734  -0.037810  -0.066759  -0.009318
     3  C    0.005714   0.342734   4.820974   0.491870  -0.004788  -0.061380
     4  C   -0.051634  -0.037810   0.491870   4.785635   0.520526  -0.011922
     5  C   -0.016129  -0.066759  -0.004788   0.520526   4.736995   0.494302
     6  C    0.517358  -0.009318  -0.061380  -0.011922   0.494302   4.739104
     7  H    0.401802  -0.037084   0.008412  -0.000603   0.007857  -0.039312
     8  H   -0.000655   0.010811  -0.033982   0.395881  -0.040983   0.007502
     9  H    0.008918  -0.000703   0.008432  -0.038195   0.404559  -0.044905
    10  H   -0.042329   0.009215  -0.000452   0.008124  -0.042005   0.406520
    11  N    0.005540  -0.051561   0.402986  -0.039519   0.002940   0.000012
    12  S   -0.071684   0.330131  -0.108396   0.006284   0.000303   0.004090
    13  C   -0.000212   0.002318   0.007822  -0.000482   0.000007   0.000004
    14  C   -0.000012   0.000193   0.000312   0.000006  -0.000000  -0.000000
    15  C    0.000005  -0.000350   0.000488   0.000031  -0.000000  -0.000000
    16  C    0.000000  -0.000008   0.000005  -0.000000   0.000000  -0.000000
    17  H   -0.000013   0.000240  -0.000006   0.000001   0.000000   0.000000
    18  C    0.000000   0.000007  -0.000010  -0.000000   0.000000  -0.000000
    19  C   -0.000000   0.000001   0.000001   0.000000  -0.000000   0.000000
    20  H   -0.000000  -0.000000  -0.000000   0.000000  -0.000000  -0.000000
    21  H   -0.000000  -0.000000   0.000000  -0.000000  -0.000000   0.000000
    22  H    0.000000  -0.000000  -0.000000  -0.000000   0.000000  -0.000000
    23  C    0.003932  -0.047930  -0.119353   0.000036   0.000257  -0.000188
    24  O    0.000002  -0.000089  -0.001341  -0.000034   0.000000  -0.000000
    25  H   -0.000002   0.004492  -0.016239  -0.001006  -0.000034   0.000006
               7          8          9         10         11         12
     1  C    0.401802  -0.000655   0.008918  -0.042329   0.005540  -0.071684
     2  C   -0.037084   0.010811  -0.000703   0.009215  -0.051561   0.330131
     3  C    0.008412  -0.033982   0.008432  -0.000452   0.402986  -0.108396
     4  C   -0.000603   0.395881  -0.038195   0.008124  -0.039519   0.006284
     5  C    0.007857  -0.040983   0.404559  -0.042005   0.002940   0.000303
     6  C   -0.039312   0.007502  -0.044905   0.406520   0.000012   0.004090
     7  H    0.652540   0.000030  -0.000155  -0.010783  -0.000087  -0.007857
     8  H    0.000030   0.646709  -0.012333  -0.000104  -0.002284  -0.000204
     9  H   -0.000155  -0.012333   0.660216  -0.011888  -0.000089   0.000019
    10  H   -0.010783  -0.000104  -0.011888   0.657706   0.000002  -0.000168
    11  N   -0.000087  -0.002284  -0.000089   0.000002   6.430194  -0.061827
    12  S   -0.007857  -0.000204   0.000019  -0.000168  -0.061827  15.465711
    13  C   -0.000002   0.000028  -0.000000  -0.000000  -0.022213  -0.063883
    14  C    0.000001   0.000000   0.000000  -0.000000   0.003424  -0.013742
    15  C   -0.000000  -0.000008   0.000000   0.000000  -0.012530   0.005201
    16  C    0.000000   0.000000  -0.000000  -0.000000  -0.000070   0.000444
    17  H    0.000001   0.000000  -0.000000  -0.000000   0.000224   0.009091
    18  C    0.000000  -0.000000   0.000000  -0.000000  -0.000574  -0.000229
    19  C   -0.000000   0.000000  -0.000000  -0.000000   0.000035   0.000028
    20  H    0.000000   0.000000   0.000000   0.000000   0.000001   0.000016
    21  H   -0.000000   0.000000  -0.000000   0.000000   0.000015   0.000005
    22  H    0.000000  -0.000000   0.000000  -0.000000  -0.000000  -0.000001
    23  C    0.000189  -0.000729   0.000006   0.000005   0.526241   0.319506
    24  O   -0.000000  -0.000116   0.000000  -0.000000  -0.073301  -0.000228
    25  H    0.000002   0.000793  -0.000004  -0.000000   0.206334   0.003422
              13         14         15         16         17         18
     1  C   -0.000212  -0.000012   0.000005   0.000000  -0.000013   0.000000
     2  C    0.002318   0.000193  -0.000350  -0.000008   0.000240   0.000007
     3  C    0.007822   0.000312   0.000488   0.000005  -0.000006  -0.000010
     4  C   -0.000482   0.000006   0.000031  -0.000000   0.000001  -0.000000
     5  C    0.000007  -0.000000  -0.000000   0.000000   0.000000   0.000000
     6  C    0.000004  -0.000000  -0.000000  -0.000000   0.000000  -0.000000
     7  H   -0.000002   0.000001  -0.000000   0.000000   0.000001   0.000000
     8  H    0.000028   0.000000  -0.000008   0.000000   0.000000  -0.000000
     9  H   -0.000000   0.000000   0.000000  -0.000000  -0.000000   0.000000
    10  H   -0.000000  -0.000000   0.000000  -0.000000  -0.000000  -0.000000
    11  N   -0.022213   0.003424  -0.012530  -0.000070   0.000224  -0.000574
    12  S   -0.063883  -0.013742   0.005201   0.000444   0.009091  -0.000229
    13  C    5.340308   0.454401   0.249574  -0.009452  -0.035909  -0.041102
    14  C    0.454401   4.847299  -0.000064   0.534456   0.396964  -0.055893
    15  C    0.249574  -0.000064   4.745229  -0.054588   0.006071   0.481907
    16  C   -0.009452   0.534456  -0.054588   4.745944  -0.031225  -0.020025
    17  H   -0.035909   0.396964   0.006071  -0.031225   0.658363  -0.000644
    18  C   -0.041102  -0.055893   0.481907  -0.020025  -0.000644   4.851391
    19  C   -0.053520  -0.020735  -0.007654   0.489658   0.007723   0.512773
    20  H    0.008787  -0.035563  -0.000169   0.400710  -0.011616   0.007972
    21  H    0.013786  -0.000597  -0.024899   0.007235   0.000045   0.376816
    22  H   -0.001478   0.009683   0.008678  -0.044284  -0.000176  -0.041129
    23  C    0.360777  -0.087430  -0.078309   0.006192  -0.022652   0.008445
    24  O   -0.091817   0.005505   0.569544  -0.000090  -0.000063  -0.057840
    25  H   -0.022053  -0.000755  -0.023353   0.000020  -0.000046   0.003212
              19         20         21         22         23         24
     1  C   -0.000000  -0.000000  -0.000000   0.000000   0.003932   0.000002
     2  C    0.000001  -0.000000  -0.000000  -0.000000  -0.047930  -0.000089
     3  C    0.000001  -0.000000   0.000000  -0.000000  -0.119353  -0.001341
     4  C    0.000000   0.000000  -0.000000  -0.000000   0.000036  -0.000034
     5  C   -0.000000  -0.000000  -0.000000   0.000000   0.000257   0.000000
     6  C    0.000000  -0.000000   0.000000  -0.000000  -0.000188  -0.000000
     7  H   -0.000000   0.000000  -0.000000   0.000000   0.000189  -0.000000
     8  H    0.000000   0.000000   0.000000  -0.000000  -0.000729  -0.000116
     9  H   -0.000000   0.000000  -0.000000   0.000000   0.000006   0.000000
    10  H   -0.000000   0.000000   0.000000  -0.000000   0.000005  -0.000000
    11  N    0.000035   0.000001   0.000015  -0.000000   0.526241  -0.073301
    12  S    0.000028   0.000016   0.000005  -0.000001   0.319506  -0.000228
    13  C   -0.053520   0.008787   0.013786  -0.001478   0.360777  -0.091817
    14  C   -0.020735  -0.035563  -0.000597   0.009683  -0.087430   0.005505
    15  C   -0.007654  -0.000169  -0.024899   0.008678  -0.078309   0.569544
    16  C    0.489658   0.400710   0.007235  -0.044284   0.006192  -0.000090
    17  H    0.007723  -0.011616   0.000045  -0.000176  -0.022652  -0.000063
    18  C    0.512773   0.007972   0.376816  -0.041129   0.008445  -0.057840
    19  C    4.728871  -0.045787  -0.044796   0.404601   0.000757   0.003150
    20  H   -0.045787   0.678843  -0.000136  -0.011940  -0.000388   0.000002
    21  H   -0.044796  -0.000136   0.666273  -0.012112  -0.000439   0.003379
    22  H    0.404601  -0.011940  -0.012112   0.665294  -0.000004  -0.000058
    23  C    0.000757  -0.000388  -0.000439  -0.000004   5.062490  -0.005647
    24  O    0.003150   0.000002   0.003379  -0.000058  -0.005647   7.792259
    25  H   -0.000252  -0.000001  -0.000003   0.000007  -0.003559   0.218640
              25
     1  C   -0.000002
     2  C    0.004492
     3  C   -0.016239
     4  C   -0.001006
     5  C   -0.000034
     6  C    0.000006
     7  H    0.000002
     8  H    0.000793
     9  H   -0.000004
    10  H   -0.000000
    11  N    0.206334
    12  S    0.003422
    13  C   -0.022053
    14  C   -0.000755
    15  C   -0.023353
    16  C    0.000020
    17  H   -0.000046
    18  C    0.003212
[...]
 0.00349816,-0.00000006,0.00009450,0.00016797,0.00000001,-0.00017303,-0
 .00016036,-0.00000001,-0.00012353,0.00014733,-0.00000002,-0.00010656,0
 .00000156,0.,0.01401910,-0.02172713,-0.00000039,0.00317854,-0.00512274
 ,0.00000047,0.04998132,0.03043362,-0.00000067,0.05455995,-0.22945741,0
 .00000253,0.00904610,-0.00540414,0.00000088,0.02327089,0.62808801,0.00
 000003,0.,-0.00002633,0.00000012,0.00000015,0.00003825,0.00000026,-0.0
 0000039,-0.00020713,-0.00000019,0.00000007,-0.00026462,0.,-0.00000015,
 -0.00001493,0.00000003,0.00000007,0.00000196,0.,0.,-0.00002233,0.,0.,-
 0.00003138,0.,0.,0.00001862,0.,0.,0.00004587,-0.00000027,0.00000019,0.
 00237712,-0.00000008,0.00000013,-0.00023048,0.00000069,-0.00000085,0.0
 0282715,-0.00000079,0.00000253,-0.05137893,-0.00000032,0.00000008,-0.0
 0459867,-0.00000489,-0.00001092,0.12967992,0.00031266,-0.00007088,0.,-
 0.00087301,0.00023114,-0.00000004,0.00036577,-0.00013999,0.,0.00000074
 ,0.00012892,0.,0.00008714,0.00000757,0.,-0.00007384,-0.00007708,0.,-0.
 00001902,-0.00000592,0.,0.00003353,0.00000114,0.,0.00000957,-0.0000027
 4,0.,0.00003553,-0.00001268,0.,0.00035326,0.00081546,-0.00000005,-0.00
 324643,0.00303424,0.00000065,-0.00271543,-0.02898024,0.00000061,-0.080
 21699,-0.07799643,0.00000279,-0.00482400,0.00279378,0.00000040,0.01004
 279,0.02222393,-0.00000048,0.08333618,0.00016659,-0.00002315,0.0000000
 2,-0.00034566,0.00077365,-0.00000024,0.00039756,0.00011911,0.00000005,
 0.00013469,0.00009777,0.00000003,0.00003517,0.00019793,0.,-0.00019661,
 -0.00014114,0.00000001,-0.00002718,0.00001252,0.,0.00003833,-0.0000127
 6,0.,-0.00000004,0.00000311,0.,0.00001533,0.00000100,0.,0.00017440,0.0
 0054954,-0.00000007,0.00287618,-0.00222906,-0.00000065,0.00145370,-0.0
 0422095,0.00000005,-0.07768409,-0.32197758,0.00000772,0.00030191,0.002
 17106,0.00000026,-0.00933429,-0.01717644,0.00000049,0.07902011,0.34292
 647,-0.00000008,0.00000005,-0.00004855,0.00000004,-0.00000017,-0.00055
 648,-0.00000009,0.00000017,0.00028778,0.00000004,-0.00000002,0.0001357
 8,0.,0.,-0.00000797,0.00000005,0.,0.00002732,0.,0.,0.00000653,0.,0.,0.
 00000999,0.,0.,-0.00000191,0.,0.,-0.00000145,0.00000011,-0.00000007,-0
 .00194850,0.00000066,-0.00000070,0.00157928,-0.00000075,0.00000068,0.0
 0394205,0.00000335,0.00000800,-0.03132653,0.00000021,-0.00000023,0.007
 66327,-0.00000005,0.00000017,0.00277167,-0.00000357,-0.00000768,0.0193
 6611,-0.00095498,0.00024124,0.00000002,-0.00474328,-0.00293357,-0.0000
 0009,-0.00512707,0.01342684,0.00000029,0.00602201,-0.00183176,0.000000
 03,-0.00003957,0.00310410,0.,0.00019893,-0.00176695,-0.00000001,-0.000
 07624,0.00012066,0.,0.00002835,-0.00005607,0.,0.00007022,0.00001995,0.
 ,0.00004751,-0.00004591,0.,0.01274055,-0.00037555,0.00000052,-0.000539
 89,-0.00339928,0.00000002,0.01617622,0.02417744,-0.00000058,-0.0286834
 5,0.02086973,0.00000010,-0.17432747,0.08365536,-0.00000044,-0.00515920
 ,-0.06643795,0.00000104,-0.00047340,-0.00028756,0.00000006,0.68397003,
 0.00045786,-0.00017374,0.,-0.00131854,-0.00091242,0.00000002,0.0001120
 7,0.00143910,0.00000010,-0.00003448,0.00007006,0.00000002,0.00018621,0
 .00015691,0.,-0.00030746,-0.00024896,0.,-0.00001358,0.00004565,0.,-0.0
 0002897,-0.00000843,0.,0.00000170,-0.00000829,0.,0.00002786,-0.0000048
 5,0.,0.00360993,0.00059335,-0.00000023,0.00130142,-0.00292782,-0.00000
 016,0.02350176,-0.03404787,0.00000052,-0.00184719,0.00192926,-0.000000
 30,0.10193056,-0.23839953,0.00000199,-0.03221518,-0.01721272,0.0000005
 8,-0.00027866,0.00054827,-0.00000014,0.03938289,0.72391703,0.00000004,
 -0.00000005,0.00006803,-0.00000022,-0.00000001,0.00065969,-0.00000004,
 0.00000020,0.00195120,0.00000013,-0.00000005,-0.00022915,0.00000002,0.
 00000013,-0.00009800,-0.00000009,-0.00000004,-0.00011048,0.,0.,0.00013
 208,0.,0.,0.00009207,0.,0.,0.00001061,0.,0.,-0.00004407,0.00000015,0.0
 0000006,-0.00586518,0.,-0.00000018,0.00086269,0.00000008,-0.00000008,0
 .01258695,-0.00000058,-0.00000005,-0.00311259,-0.00000122,0.00000227,-
 0.06448394,0.00000079,0.00000027,0.00521162,-0.00000004,-0.00000005,-0
 .00106884,0.00000105,-0.00000734,0.10990460,0.00056244,0.00108855,0.00
 000002,0.00837474,0.00425329,0.00000025,0.00948272,-0.01939255,-0.0000
 0037,-0.00904694,0.00288339,-0.00000009,-0.00016877,-0.00599836,-0.000
 00002,0.00164404,0.00305607,0.00000003,0.00001859,-0.00011154,0.,0.000
 07174,0.00009737,0.00000001,-0.00004311,-0.00004705,0.00000001,0.00000
 450,0.00004428,0.,-0.01923156,0.01380550,-0.00000014,0.00072214,0.0040
 0730,-0.00000035,-0.01466119,-0.01951672,0.00000016,0.05714385,0.00468
 137,-0.00000074,-0.05164376,0.01666850,-0.00000099,-0.13849054,-0.0029
 4513,0.00000097,-0.00317248,0.00463176,-0.00000004,-0.33654161,-0.0794
 1274,0.00000068,0.69518599,0.00023690,0.00077956,0.,0.00236037,0.00103
 388,0.,0.00381793,-0.00455852,-0.00000002,-0.00330564,0.00110304,-0.00
 000003,-0.00008195,-0.00235747,-0.00000001,0.00094281,0.00059305,0.000
 00002,-0.00003782,-0.00001986,0.,0.00004427,0.00001388,0.,0.00003204,-
 0.00004977,0.,0.00003659,0.00001509,0.,-0.00122476,0.00896026,0.000000
 14,-0.00170409,0.00063681,0.00000002,-0.02009105,-0.01754171,0.0000007
 6,0.04755648,-0.05774291,0.00000119,0.00779402,0.02772209,-0.00000086,
 -0.08401821,-0.29877568,0.00000595,0.00326401,-0.00034428,-0.00000004,
 -0.03480771,-0.13137615,0.00000086,-0.04790851,0.68323939,-0.00000002,
 -0.00000002,0.00016888,-0.00000004,-0.00000005,-0.00050361,-0.00000009
 ,0.00000011,-0.00106441,0.00000009,-0.00000002,0.00008222,0.,0.0000000
 6,0.00008961,-0.00000002,0.,0.00000935,0.,0.,-0.00004677,0.,0.,-0.0001
 1490,0.,0.,0.00000402,0.,0.,0.00000792,-0.00000016,-0.00000039,0.00147
 637,0.00000017,0.,0.00070630,0.00000044,0.00000023,-0.00227504,-0.0000
 0107,0.00000133,0.00924770,-0.00000040,-0.00000012,0.00234959,0.000002
 09,0.00000526,-0.05967941,-0.00000005,0.00000024,0.00439904,0.00000034
 ,0.00000092,-0.04954360,0.00000117,-0.00001167,0.11283021,0.00005081,-
 0.00010176,0.,-0.00009341,0.00012340,0.,-0.00000678,-0.00010619,0.0000
 0001,0.00000680,0.00003036,0.,0.00001250,0.00008703,0.,-0.00014002,0.0
 0000752,0.,0.00000672,0.00000612,0.,-0.00000517,-0.00000483,0.,-0.0000
 1138,0.00000777,0.,-0.00000914,0.00000589,0.,-0.00020489,0.00045839,0.
 00000004,0.00007752,-0.00005935,-0.00000002,-0.00043311,0.00368116,-0.
 00000007,-0.01529632,-0.00923080,0.00000043,0.00049245,0.00034498,-0.0
 0000002,-0.32843260,-0.07196325,0.00000348,0.00076880,0.00008003,0.,0.
 00164647,-0.00108962,0.00000010,-0.00326952,0.00185749,0.,0.34517576,0
 .00001834,-0.00001969,0.,-0.00011032,-0.00009598,0.,0.00000841,0.00026
 482,0.00000002,0.00008322,-0.00007024,0.,0.00001865,0.00007539,0.,-0.0
 0003695,-0.00003810,0.,0.00000106,-0.00000010,0.,-0.00000208,-0.000000
 73,0.,0.00000078,-0.00000265,0.,0.00000066,-0.00000070,0.,0.00038808,-
 0.00036500,-0.00000005,0.00003754,0.00000235,0.,0.00375607,-0.00334754
 ,0.00000011,0.02140601,0.00942819,-0.00000023,0.00067195,-0.00099171,0
 .,-0.07245326,-0.07863453,0.00000156,-0.00014852,0.00085033,-0.0000000
 6,-0.00033854,-0.00540886,0.00000025,-0.02921884,-0.00146902,0.0000002
 8,0.07684092,0.07773390,0.,0.00000002,-0.00003397,0.00000010,0.0000000
 5,0.00006157,0.00000006,-0.00000019,0.00044581,-0.00000008,0.00000002,
 0.00012376,0.,-0.00000006,-0.00006229,0.00000003,0.00000003,0.00001489
 ,0.,0.,0.00000799,0.,0.,0.00003417,0.,0.,-0.00002753,0.,0.,-0.00000044
 ,-0.00000013,0.00000020,-0.00040505,-0.00000005,0.00000005,-0.00019519
 ,-0.00000017,0.00000022,0.00565506,0.00000016,-0.00000040,0.00677914,0
 .00000001,0.00000003,-0.00128395,0.00000335,0.00000208,-0.03789472,-0.
 00000004,-0.00000015,-0.00311954,0.00000002,0.00000034,0.00545930,0.00
 000062,-0.00000019,0.00630616,-0.00000385,-0.00000175,0.02281159,-0.00
 011050,0.00003494,0.,0.00011504,0.00004747,0.,-0.00016443,0.00006687,0
 .,0.00004911,-0.00001156,0.,-0.00001905,-0.00001204,0.,0.00006574,0.00
 000602,0.,0.00000117,-0.00000665,0.,-0.00000325,0.00000127,0.,0.000002
 23,-0.00000081,0.,-0.00000344,-0.00000102,0.,0.00035704,-0.00053110,0.
 00000002,-0.00030370,0.00020443,0.00000001,-0.00431182,0.00306244,-0.0
 0000004,0.00017350,0.00016056,0.,0.00899192,0.02265416,-0.00000022,-0.
 00570586,0.00012891,-0.00000005,0.00012917,-0.00006983,0.00000001,-0.0
 7732235,-0.07549500,0.00000053,-0.00128852,-0.02870612,0.00000037,-0.0
 0026744,-0.00141705,0.00000006,0.07554722,0.00006073,0.00003417,0.,-0.
 00011920,-0.00006419,-0.00000001,0.00007905,0.00005455,0.,0.00000249,-
 0.00000911,0.,-0.00000286,-0.00002728,0.,0.00003487,-0.00002502,0.,-0.
 00000486,0.00000274,0.,0.00000810,0.00000211,0.,0.00000741,-0.00000266
 ,0.,0.00000903,-0.00000356,0.,-0.00021574,0.00026360,0.00000001,0.0002
 0798,-0.00016596,0.,0.00387193,-0.00113178,0.00000005,0.00006893,0.000
 30772,-0.00000002,-0.01071344,-0.01657372,0.00000010,-0.00086924,0.001
 21174,0.00000005,-0.00006044,-0.00009630,0.,-0.07386420,-0.32874357,0.
 00000351,0.00215988,-0.00202330,0.00000005,0.00005908,-0.00021213,0.,0
 .08053356,0.34501610,-0.00000003,0.00000002,-0.00031199,0.00000004,0.0
 0000001,-0.00017174,0.,0.00000002,0.00014036,0.,0.,0.00000426,0.,-0.00
 000002,-0.00004184,0.00000003,0.,0.00005953,0.,0.,-0.00002138,0.,0.,0.
 00003840,0.,0.,-0.00000416,0.,0.,0.00005671,0.00000017,0.00000006,0.00
 036154,-0.00000011,-0.00000003,-0.00043138,0.00000002,-0.00000014,0.00
 379703,-0.00000006,0.00000008,-0.00042276,0.00000036,0.00000028,0.0031
 4653,0.00000001,-0.00000007,0.00645192,0.00000001,-0.00000004,-0.00034
 330,0.00000016,0.00000337,-0.03194800,0.00000034,0.00000030,0.00403109
 ,0.00000001,-0.00000002,-0.00045366,-0.00000074,-0.00000365,0.02191696
 ,0.00005806,-0.00006680,0.,-0.00016014,0.00007543,0.,0.00011853,0.0001
 3857,0.,0.00005492,-0.00001057,0.,0.00001887,0.00010631,0.,-0.00011350
 ,-0.00003527,0.,0.00000073,0.00000723,0.,-0.00000176,-0.00000605,0.,-0
 .00000754,0.00000408,0.,-0.00000459,0.00000410,0.,0.00020265,0.0006234
 2,0.00000001,-0.00002517,0.00002328,0.00000001,0.00025559,-0.00075853,
 0.,-0.00010495,-0.00213911,0.00000006,-0.00288611,-0.00358414,0.000000
 01,0.00892917,-0.00898862,0.00000017,0.00030555,-0.00036072,0.,-0.0152
 3872,0.02292124,-0.00000042,-0.20590024,0.14618848,-0.00000297,0.00070
 382,0.00029107,0.,0.00105734,-0.00020437,0.00000003,0.21493750,-0.0000
 1150,0.00012118,0.,0.00033943,0.00018693,0.,0.00038289,-0.00070100,-0.
 00000002,-0.00034302,0.00012178,0.,-0.00001967,-0.00030497,0.,0.000174
 23,0.00011512,0.,-0.00000838,-0.00000660,0.,0.00001273,0.00000702,0.,0
 .00000779,-0.00000549,0.,0.00000925,-0.00000341,0.,-0.00065620,0.00053
 436,0.00000001,-0.00009563,0.00017844,0.,-0.00120967,0.00014823,-0.000
 00004,-0.00226267,-0.00451919,0.00000024,-0.00245456,-0.00058169,0.000
 00013,0.02348458,-0.01468261,0.00000029,0.00108901,-0.00094884,0.00000
 001,-0.00859062,0.00924565,-0.00000009,0.14503486,-0.20001067,0.000003
 48,-0.00013874,0.00098650,-0.00000009,0.00029619,0.00066948,-0.0000000
 9,-0.15497200,0.20910880,0.,0.,0.00002713,0.00000002,-0.00000001,0.000
 07030,-0.00000001,0.,-0.00009961,0.,0.,0.00001762,0.,0.,0.00000928,0.,
 0.,-0.00000020,0.,0.,-0.00000342,0.,0.,0.00001289,0.,0.,0.00000061,0.,
 0.,-0.00001775,-0.00000002,0.,0.00034613,0.,0.00000004,-0.00026678,0.,
 -0.00000006,-0.00146252,0.00000019,0.00000031,0.00467773,0.00000004,0.
 00000005,0.00675379,-0.00000051,0.00000040,0.00248487,0.,0.00000002,0.
 00100014,0.00000003,-0.00000016,0.00379412,-0.00000290,0.00000346,-0.0
 3174273,-0.00000005,-0.00000009,-0.00332313,0.00000002,-0.00000005,-0.
 00387107,0.00000314,-0.00000386,0.02219615,-0.00371966,-0.00724415,-0.
 00000015,-0.01459774,0.01812588,0.00000028,-0.07891768,0.05319982,0.00
 000073,0.01501739,-0.00547043,0.00000023,-0.00018914,0.01145662,0.0000
 0005,-0.00828183,-0.00337317,-0.00000018,0.00033267,-0.00053024,0.0000
 0003,-0.00066452,-0.00017179,0.,-0.00004165,0.00010624,0.,-0.00070153,
 0.00000053,0.,-0.33320160,-0.05839426,-0.00000243,-0.04681642,-0.05227
 094,-0.00000145,-0.22234158,0.12259862,0.00000633,-0.04591957,0.034347
 89,0.00000137,0.02489474,0.01494341,0.00000051,-0.00122755,-0.01294309
 ,0.00000035,0.00051217,-0.00035074,0.,-0.00324928,-0.01004281,-0.00000
 014,0.00374657,0.00040588,0.00000007,-0.00075809,0.00051948,0.00000002
 ,0.00095708,-0.00086651,-0.00000011,-0.00028843,0.00032347,0.00000003,
 0.72549235,-0.00154210,0.00367313,-0.00000007,0.03716264,-0.02662113,-
 0.00000014,0.02847786,-0.00072259,0.00000028,-0.00209697,-0.00639528,-
 0.00000014,-0.00116201,-0.00444104,-0.00000006,0.00465157,0.00042492,0
 .00000004,-0.00019336,-0.00062512,0.,-0.00026218,0.00028005,0.00000002
 ,0.00039694,-0.00059423,0.00000002,-0.00007255,-0.00000323,0.,-0.05340
 059,-0.10441734,-0.00000201,-0.02815947,-0.16431840,-0.00000430,0.1062
 3179,-0.21523517,-0.00000655,0.01745549,0.01421406,-0.00000003,0.02745
 263,-0.04933251,-0.00000199,-0.00551291,-0.00021132,0.00000039,-0.0018
 9393,0.00005429,-0.00000014,-0.01507275,0.00041560,0.00000019,0.006490
 72,0.00424994,-0.00000006,-0.00079711,0.00112807,-0.00000013,0.0005200
 7,-0.00049377,0.00000005,0.00022614,0.00011569,-0.00000003,-0.09672755
 ,0.56348261,-0.00000004,-0.00000011,0.00168050,0.00000038,0.00000006,-
 0.00055438,-0.00000015,0.00000030,0.00594643,0.00000011,-0.00000017,0.
 00336409,-0.00000003,-0.00000005,0.00101929,0.,0.00000002,0.00096663,0
 .,-0.00000002,-0.00053927,0.,0.,-0.00061247,0.00000002,0.,-0.00060779,
 0.,0.,-0.00026331,0.,-0.00000194,-0.03570772,-0.00000075,-0.00000541,-
 0.01928847,0.00000471,-0.00000514,-0.03767578,0.00000115,-0.00000062,0
 .00971958,0.00000077,-0.00000173,0.00653670,0.00000015,-0.00000027,0.0
 0258799,-0.00000012,0.,-0.00144368,-0.00000130,0.00000030,-0.00000049,
 0.00000137,0.00000009,-0.00101311,-0.00000005,-0.00000003,-0.00097751,
 -0.00000002,0.00000007,0.00174374,0.,0.00000005,0.00011853,-0.00000536
 ,0.00001503,0.06311949,0.00052037,0.00193661,0.,0.00195285,0.00572669,
 0.00000002,0.01539507,-0.00512817,0.00000014,-0.00249128,0.00096205,-0
 .00000006,-0.00063548,-0.00295089,-0.00000003,0.00214039,0.00132628,0.
 00000004,-0.00023438,0.00028399,-0.00000001,0.00024465,-0.00003102,0.,
 -0.00003810,0.00008036,0.,0.00003252,0.00005184,0.,-0.01246089,0.06115
 496,0.00000185,0.00018253,0.00504997,0.,-0.04757149,-0.02810035,-0.000
 00031,0.02070496,-0.00796842,0.,-0.41339056,-0.08657471,-0.00000337,-0
 .01315763,0.00946252,-0.00000017,-0.00123618,-0.00110729,0.00000009,-0
 .07019019,0.01002773,-0.00000080,0.00373196,0.00317881,0.00000024,-0.0
 0010936,-0.00034398,-0.00000010,0.00233122,-0.00029748,-0.00000016,-0.
 00219850,-0.00047766,0.00000005,-0.00770771,-0.00218020,-0.00000024,0.
 52616808,-0.00111930,-0.00114676,-0.00000005,-0.00035142,-0.00604906,-
 0.00000010,-0.01720662,0.00245347,-0.00000040,0.00225737,-0.00122670,0
 .00000003,0.00030067,0.00208502,0.00000003,-0.00072956,-0.00134828,-0.
 00000002,0.00018835,-0.00041008,0.,0.00008216,0.00016290,0.,0.00018266
 ,-0.00014712,0.,0.00004066,-0.00009481,0.,0.03551883,-0.07494041,-0.00
 000187,0.00035650,-0.00170733,0.00000015,-0.03940938,-0.01749619,-0.00
 000081,-0.00744963,-0.00768463,0.00000017,-0.07922983,-0.12398353,-0.0
 0000116,0.00174204,-0.00738648,0.00000006,-0.00196525,-0.00027962,0.00
 000014,0.03314546,0.02284579,0.00000017,0.00490430,-0.00193120,0.00000
 002,-0.00006475,0.00039224,-0.00000003,-0.00222279,0.00228808,-0.00000
 005,0.00163686,0.00073065,-0.00000001,0.00719904,0.01184281,0.00000045
 ,0.09891221,0.19369946,-0.00000005,-0.00000005,0.00036991,-0.00000012,
 -0.00000023,-0.00064381,-0.00000058,0.00000042,-0.00044134,0.00000021,
 -0.00000007,0.00023936,0.,0.00000015,0.00016586,-0.00000004,-0.0000001
 1,0.00005264,0.,0.,-0.00012014,0.,0.,-0.00015806,0.,0.,-0.00002348,0.,
 0.,-0.00007764,0.00000104,-0.00000220,0.01527182,0.00000006,0.,-0.0010
 3885,-0.00000042,0.00000028,0.01694124,-0.00000029,-0.00000026,0.00201
 456,-0.00000281,-0.00000186,-0.05253434,0.,-0.00000014,0.00007842,-0.0
 0000010,0.00000002,-0.00195700,-0.00000094,0.00000030,0.01136526,0.000
 00022,0.00000016,0.00392028,0.,0.,0.00006280,0.00000004,-0.00000006,-0
 .00324838,0.,0.,-0.00032344,0.00000032,0.00000032,-0.00333026,0.000004
 26,0.00000238,0.04199976,-0.00021205,-0.00086305,-0.00000001,-0.004412
 55,-0.00269269,-0.00000008,-0.00641931,0.01047738,0.00000024,0.0029736
 1,-0.00092821,0.00000003,0.00029523,0.00219347,0.00000001,-0.00103317,
 -0.00098222,-0.00000002,0.00011371,-0.00004259,0.,-0.00037691,-0.00007
 479,0.,0.00005824,-0.00003601,0.,-0.00000429,-0.00007784,0.,-0.0376077
 7,-0.03212059,-0.00000099,-0.00323087,-0.00722524,-0.00000011,0.006612
 51,-0.00421670,-0.00000013,-0.00858699,0.00200157,0.00000008,-0.032124
 77,0.01215987,0.00000017,0.00305410,-0.00680974,0.00000010,0.00055794,
 0.00043826,-0.00000003,0.00176642,-0.00137698,0.00000001,0.00276898,0.
 00416979,-0.00000015,0.00009561,0.00002729,0.00000002,-0.00027739,0.00
 011530,0.00000004,0.00028692,0.00008588,0.,-0.00232900,-0.01999218,-0.
 00000061,-0.00198286,-0.03671859,-0.00000079,0.08001465,0.00229843,0.0
 0181729,0.,0.00433347,0.01262406,0.00000009,0.03274820,-0.01411307,0.0
 0000048,-0.00723517,0.00402952,-0.00000004,-0.00125210,-0.00602052,-0.
 00000007,0.00194720,0.00298319,0.00000006,-0.00032190,0.00060056,-0.00
 000001,0.00011422,-0.00033403,0.00000001,-0.00031234,0.00027459,0.,-0.
 00008927,0.00020906,0.,-0.04965861,-0.01249471,0.00000040,0.00268481,0
 .01298288,0.00000004,-0.02625065,0.01366648,0.00000069,0.02607121,-0.0
 0673916,-0.00000023,0.03810198,0.01739244,0.00000003,-0.00886880,0.021
 17176,-0.00000029,-0.00097654,-0.00085492,0.00000005,-0.00833525,-0.00
 173346,0.00000004,-0.00925569,-0.01014643,0.00000034,-0.00003373,-0.00
 020484,-0.00000007,0.00075708,-0.00027794,-0.00000009,-0.00112002,-0.0
 0050536,0.,-0.01484124,-0.02647005,-0.00000089,-0.06299385,0.00933179,
 0.00000097,0.08248858,-0.01718913,0.00000003,0.00000009,0.00066640,0.0
 0000005,0.00000028,0.00177308,0.00000092,0.00000021,-0.00735396,-0.000
 00009,0.00000007,-0.00063792,-0.00000005,-0.00000014,0.00002092,0.0000
 0009,0.00000005,-0.00011870,-0.00000001,0.00000002,-0.00001249,0.,-0.0
 0000001,-0.00008929,0.,0.,0.00006340,0.,0.,0.00002978,-0.00000134,-0.0
 0000047,-0.02677767,0.,0.00000024,0.00154294,-0.00000036,0.00000018,-0
 .00438732,0.00000059,-0.00000007,0.00033301,0.00000060,0.00000080,-0.0
 0040669,-0.00000015,0.00000040,-0.00022645,0.00000002,-0.00000003,0.00
 063478,-0.00000031,-0.00000014,0.00440612,-0.00000019,-0.00000010,0.00
 035485,0.,0.,0.00001473,0.00000001,-0.00000002,-0.00047838,-0.00000003
 ,-0.00000003,-0.00039865,-0.00000051,-0.00000069,0.00521125,-0.0000014
 9,0.00000089,-0.02858518,0.00000222,-0.00000153,0.05442143\\-0.0023544
 3,-0.00107567,0.00000004,-0.00173518,-0.00140075,0.00000012,-0.0019845
 5,0.00058206,-0.00000013,0.00154093,-0.00226697,-0.00000018,-0.0004926
 2,-0.00191195,-0.00000005,-0.00246576,-0.00232745,0.00000016,-0.000233
 20,-0.00006310,0.00000001,0.00015051,-0.00020237,0.,-0.00004102,-0.000
 34968,0.00000002,-0.00028066,-0.00024719,0.00000002,0.00664020,-0.0015
 6392,-0.00000039,0.00018313,0.00342216,-0.00000025,0.00367418,-0.00101
 446,-0.00000003,-0.00133559,-0.00133857,0.00000039,-0.00505885,-0.0000
 7574,0.00000058,0.00087537,-0.00523761,0.00000006,0.00018914,-0.000190
 46,0.00000011,-0.00081011,-0.00034070,-0.00000036,0.00007119,-0.001992
 09,-0.00000030,0.00005174,-0.00038552,0.,-0.00022410,0.00001292,-0.000
 00008,-0.00008369,-0.00023722,-0.00000005,0.00464466,0.00349230,-0.000
 00026,0.00162727,0.00541022,0.00000038,-0.00254853,0.00930175,0.000000
 18\\\@
 The archive entry for this job was punched.


 IT IS A QUALITY OF REVOLUTIONS NOT TO GO BY OLD LINES OR OLD LAWS,
 BUT TO BREAK UP BOTH, AND MAKE NEW ONES.
                                              -- A. LINCOLN (1848)
 Job cpu time:       0 days  3 hours  5 minutes 45.3 seconds.
 Elapsed time:       0 days  0 hours 19 minutes 24.9 seconds.
 File lengths (MBytes):  RWF=   1380 Int=      0 D2E=      0 Chk=     48 Scr=      8
 Normal termination of Gaussian 16 at Tue Jul 14 13:57:42 2020.
