 Entering Gaussian System, Link 0=g16
 Initial command:
 /gpfs/loomis/apps/avx/software/Gaussian/16-C.01_AVX/g16/l1.exe "/home/fas/batista/pev4/scratch60/gauss-scratch/Gau-71392.inp" -scrdir="/home/fas/batista/pev4/scratch60/gauss-scratch/"
 Entering Link 1 = /gpfs/loomis/apps/avx/software/Gaussian/16-C.01_AVX/g16/l1.exe PID=     71393.
  
 Copyright (c) 1988-2019, Gaussian, Inc.  All Rights Reserved.
  
 This is part of the Gaussian(R) 16 program.  It is based on
 the Gaussian(R) 09 system (copyright 2009, Gaussian, Inc.),
 the Gaussian(R) 03 system (copyright 2003, Gaussian, Inc.),
 the Gaussian(R) 98 system (copyright 1998, Gaussian, Inc.),
 the Gaussian(R) 94 system (copyright 1995, Gaussian, Inc.),
 the Gaussian 92(TM) system (copyright 1992, Gaussian, Inc.),
 the Gaussian 90(TM) system (copyright 1990, Gaussian, Inc.),
 the Gaussian 88(TM) system (copyright 1988, Gaussian, Inc.),
 the Gaussian 86(TM) system (copyright 1986, Carnegie Mellon
 University), and the Gaussian 82(TM) system (copyright 1983,
 Carnegie Mellon University). Gaussian is a federally registered
 trademark of Gaussian, Inc.
  
 This software contains proprietary and confidential information,
 including trade secrets, belonging to Gaussian, Inc.
  
 This software is provided under written license and may be
 used, copied, transmitted, or stored only in accord with that
 written license.
  
 The following legend is applicable only to US Government
 contracts under FAR:
  
                    RESTRICTED RIGHTS LEGEND
  
 Use, reproduction and disclosure by the US Government is
 subject to restrictions as set forth in subparagraphs (a)
 and (c) of the Commercial Computer Software - Restricted
 Rights clause in FAR 52.227-19.
  
 Gaussian, Inc.
 340 Quinnipiac St., Bldg. 40, Wallingford CT 06492
  
  
 ---------------------------------------------------------------
 Warning -- This program may not be used in any manner that
 competes with the business of Gaussian, Inc. or will provide
 assistance to any competitor of Gaussian, Inc.  The licensee
 of this program is prohibited from giving any competitor of
 Gaussian, Inc. access to this program.  By using this program,
 the user acknowledges that Gaussian, Inc. is engaged in the
 business of creating and licensing software in the field of
 computational chemistry and represents and warrants to the
 licensee that it is not a competitor of Gaussian, Inc. and that
 it will not use this program in any manner prohibited above.
 ---------------------------------------------------------------
  

 Cite this work as:
 Gaussian 16, Revision C.01,
 M. J. Frisch, G. W. Trucks, H. B. Schlegel, G. E. Scuseria, 
 M. A. Robb, J. R. Cheeseman, G. Scalmani, V. Barone, 
 G. A. Petersson, H. Nakatsuji, X. Li, M. Caricato, A. V. Marenich, 
 J. Bloino, B. G. Janesko, R. Gomperts, B. Mennucci, H. P. Hratchian, 
 J. V. Ortiz, A. F. Izmaylov, J. L. Sonnenberg, D. Williams-Young, 
 F. Ding, F. Lipparini, F. Egidi, J. Goings, B. Peng, A. Petrone, 
 T. Henderson, D. Ranasinghe, V. G. Zakrzewski, J. Gao, N. Rega, 
 G. Zheng, W. Liang, M. Hada, M. Ehara, K. Toyota, R. Fukuda, 
 J. Hasegawa, M. Ishida, T. Nakajima, Y. Honda, O. Kitao, H. Nakai, 
 T. Vreven, K. Throssell, J. A. Montgomery, Jr., J. E. Peralta, 
 F. Ogliaro, M. J. Bearpark, J. J. Heyd, E. N. Brothers, K. N. Kudin, 
 V. N. Staroverov, T. A. Keith, R. Kobayashi, J. Normand, 
 K. Raghavachari, A. P. Rendell, J. C. Burant, S. S. Iyengar, 
 J. Tomasi, M. Cossi, J. M. Millam, M. Klene, C. Adamo, R. Cammi, 
 J. W. Ochterski, R. L. Martin, K. Morokuma, O. Farkas, 
 J. B. Foresman, and D. J. Fox, Gaussian, Inc., Wallingford CT, 2019.
 
 ******************************************
 Gaussian 16:  ES64L-G16RevC.01  3-Jul-2019
                14-Jul-2020 
 ******************************************
 %chk=config_6_20.chk
 %mem=58GB
 %nprocshared=10
 Will use up to   10 processors via shared memory.
 ----------------------------------------------------------------------
 #p opt=addgic freq td wb97xd/cc-pvdz nosymm int=ultrafine scrf=(solven
 t=CarbonTetraChloride)
 ----------------------------------------------------------------------
 1/18=20,19=15,26=6,38=1,145=903/1,3;
 2/9=110,12=2,15=1,17=6,18=5,40=1/2;
 3/5=16,11=9,25=1,30=1,70=2201,71=1,72=11,74=-58,75=-5/1,2,3,8;
 4//1;
 5/5=2,38=5,53=11/2;
 8/6=1,10=1/1;
 9/15=2,42=1,70=2/14;
 10/5=4,31=1/2;
 6/7=2,8=2,9=2,10=2/1;
 7/12=6,13=5,30=1/1,2,3,16;
 1/18=20,19=15,26=6,145=903/3(2);
 2/9=110,15=1/2;
 99//99;
 2/9=110,15=1/2;
 3/5=16,11=9,25=1,30=1,70=2205,71=1,72=11,74=-58,75=-5/1,2,3,8;
 4/5=5,16=3,69=1/1;
 5/5=2,38=5,53=11/2;
 8/6=1,10=1/1;
 9/15=2,42=1,49=4,70=2/14;
 10/5=4,31=1/2;
 7/12=6,13=5,30=1/1,2,3,16;
 1/18=20,19=15,26=6,145=903/3(-8);
 2/9=110,15=1/2;
 6/7=2,8=2,9=2,10=2/1;
 99/9=10/99;
 Leave Link    1 at Tue Jul 14 16:55:56 2020, MaxMem=  7784628224 cpu:               5.1 elap:               0.6
 (Enter /gpfs/loomis/apps/avx/software/Gaussian/16-C.01_AVX/g16/l101.exe)
 ------------------------------------------------
 NM 2D-scan of HBT TD-WB97XD pVDZ in CTC Relaxed.
 ------------------------------------------------
 Symbolic Z-matrix:
 Charge =  0 Multiplicity = 1
 C                     1.49002  -3.24718  -0.00002 
 C                     0.99899  -1.93508  -0.00002 
 C                     1.82317  -0.76246  -0.00003 
 C                     3.23163  -0.98262  -0.00003 
 C                     3.72281  -2.30063  -0.00002 
 C                     2.87637  -3.43136  -0.00001 
 H                     0.79185  -4.10048  -0.00001 
 H                     3.92867  -0.12775  -0.00004 
 H                     4.8111   -2.45348  -0.00003 
 H                     3.30222  -4.4434   -0.00001 
 N                     1.08925   0.40898  -0.00003 
 S                    -0.68796  -1.53297  -0.00003 
 C                    -1.28998   1.08606   0.00001 
 C                    -2.64526   0.68857   0.00003 
 C                    -0.92163   2.50317   0.00004 
 C                    -3.65653   1.66699   0.00004 
 H                    -2.91217  -0.37872   0.00003 
 C                    -1.97714   3.46458   0.00003 
 C                    -3.32502   3.04149   0.00003 
 H                    -4.70969   1.35753   0.00004 
 H                    -1.71374   4.53368   0.00005 
 H                    -4.12827   3.78929   0.00003 
 C                    -0.24918   0.13962  -0.00002 
 O                     0.33991   2.76873   0.00007 
 H                     0.99395   1.65045   0.00002 
 
 Add virtual bond connecting atoms H25        and N11        Dist= 2.35D+00.
 Add virtual bond connecting atoms H25        and O24        Dist= 2.45D+00.
 Initializing the GIC definitions file.
 Number of initial coordinates =   142
 Number of input entries/lines =    52
 Number of additional coordinates =     2
 Number of removed coordinates =     0
 Number of frozen coordinates =     2
 Number of final active and frozen coordinates =   144
 ITRead=  0  0  0  0  0  0  0  0  0  0  0  0  0  0  0  0  0  0  0  0
 ITRead=  0  0  0  0  0
 MicOpt= -1 -1 -1 -1 -1 -1 -1 -1 -1 -1 -1 -1 -1 -1 -1 -1 -1 -1 -1 -1
 MicOpt= -1 -1 -1 -1 -1
 NAtoms=     25 NQM=       25 NQMF=       0 NMMI=      0 NMMIF=      0
                NMic=       0 NMicF=      0.
                    Isotopes and Nuclear Properties:
 (Nuclear quadrupole moments (NQMom) in fm**2, nuclear magnetic moments (NMagM)
  in nuclear magnetons)

  Atom         1           2           3           4           5           6           7           8           9          10
 IAtWgt=          12          12          12          12          12          12           1           1           1           1
 AtmWgt=  12.0000000  12.0000000  12.0000000  12.0000000  12.0000000  12.0000000   1.0078250   1.0078250   1.0078250   1.0078250
 NucSpn=           0           0           0           0           0           0           1           1           1           1
 AtZEff=  -0.0000000  -0.0000000  -0.0000000  -0.0000000  -0.0000000  -0.0000000  -0.0000000  -0.0000000  -0.0000000  -0.0000000
 NQMom=    0.0000000   0.0000000   0.0000000   0.0000000   0.0000000   0.0000000   0.0000000   0.0000000   0.0000000   0.0000000
 NMagM=    0.0000000   0.0000000   0.0000000   0.0000000   0.0000000   0.0000000   2.7928460   2.7928460   2.7928460   2.7928460
 AtZNuc=   6.0000000   6.0000000   6.0000000   6.0000000   6.0000000   6.0000000   1.0000000   1.0000000   1.0000000   1.0000000

  Atom        11          12          13          14          15          16          17          18          19          20
 IAtWgt=          14          32          12          12          12          12           1          12          12           1
 AtmWgt=  14.0030740  31.9720718  12.0000000  12.0000000  12.0000000  12.0000000   1.0078250  12.0000000  12.0000000   1.0078250
 NucSpn=           2           0           0           0           0           0           1           0           0           1
 AtZEff=  -0.0000000  -0.0000000  -0.0000000  -0.0000000  -0.0000000  -0.0000000  -0.0000000  -0.0000000  -0.0000000  -0.0000000
 NQMom=    2.0440000   0.0000000   0.0000000   0.0000000   0.0000000   0.0000000   0.0000000   0.0000000   0.0000000   0.0000000
 NMagM=    0.4037610   0.0000000   0.0000000   0.0000000   0.0000000   0.0000000   2.7928460   0.0000000   0.0000000   2.7928460
 AtZNuc=   7.0000000  16.0000000   6.0000000   6.0000000   6.0000000   6.0000000   1.0000000   6.0000000   6.0000000   1.0000000

  Atom        21          22          23          24          25
 IAtWgt=           1           1          12          16           1
 AtmWgt=   1.0078250   1.0078250  12.0000000  15.9949146   1.0078250
 NucSpn=           1           1           0           0           1
 AtZEff=  -0.0000000  -0.0000000  -0.0000000  -0.0000000  -0.0000000
 NQMom=    0.0000000   0.0000000   0.0000000   0.0000000   0.0000000
 NMagM=    2.7928460   2.7928460   0.0000000   0.0000000   2.7928460
 AtZNuc=   1.0000000   1.0000000   6.0000000   8.0000000   1.0000000
 Leave Link  101 at Tue Jul 14 16:55:59 2020, MaxMem=  7784628224 cpu:              31.7 elap:               3.2
 (Enter /gpfs/loomis/apps/avx/software/Gaussian/16-C.01_AVX/g16/l103.exe)

 GradGradGradGradGradGradGradGradGradGradGradGradGradGradGradGradGradGrad
 Berny optimization.
 Initialization pass.
                           ----------------------------
                           !    Initial Parameters    !
                           ! (Angstroms and Degrees)  !
 --------------------------                            --------------------------
 ! Name  Definition              Value          Derivative Info.                !
 --------------------------------------------------------------------------------
 ! R1    R(1,2)                  1.401          estimate D2E/DX2                !
 ! R2    R(1,6)                  1.3985         estimate D2E/DX2                !
 ! R3    R(1,7)                  1.1025         estimate D2E/DX2                !
 ! R4    R(2,3)                  1.4333         estimate D2E/DX2                !
 ! R5    R(2,12)                 1.7342         estimate D2E/DX2                !
 ! R6    R(3,4)                  1.4256         estimate D2E/DX2                !
 ! R7    R(3,11)                 1.3824         estimate D2E/DX2                !
 ! R8    R(4,5)                  1.4066         estimate D2E/DX2                !
 ! R9    R(4,8)                  1.103          estimate D2E/DX2                !
 ! R10   R(5,6)                  1.4124         estimate D2E/DX2                !
 ! R11   R(5,9)                  1.099          estimate D2E/DX2                !
 ! R12   R(6,10)                 1.098          estimate D2E/DX2                !
 ! R13   R(11,23)                1.3653         estimate D2E/DX2                !
 ! R14   R(11,25)                1.2451         estimate D2E/DX2                !
 ! R15   R(12,23)                1.7292         estimate D2E/DX2                !
 ! R16   R(13,14)                1.4124         estimate D2E/DX2                !
 ! R17   R(13,15)                1.4642         estimate D2E/DX2                !
 ! R18   R(13,23)                1.4068         estimate D2E/DX2                !
 ! R19   R(14,16)                1.4071         estimate D2E/DX2                !
 ! R20   R(14,17)                1.1002         estimate D2E/DX2                !
 ! R21   R(15,18)                1.4277         estimate D2E/DX2                !
 ! R22   R(15,24)                1.2892         estimate D2E/DX2                !
 ! R23   R(16,19)                1.4139         estimate D2E/DX2                !
 ! R24   R(16,20)                1.0977         estimate D2E/DX2                !
 ! R25   R(18,19)                1.4127         estimate D2E/DX2                !
 ! R26   R(18,21)                1.1011         estimate D2E/DX2                !
 ! R27   R(19,22)                1.0975         estimate D2E/DX2                !
 ! R28   R(24,25)                1.2955         estimate D2E/DX2                !
 ! A1    A(2,1,6)              118.0843         estimate D2E/DX2                !
 ! A2    A(2,1,7)              120.1927         estimate D2E/DX2                !
 ! A3    A(6,1,7)              121.723          estimate D2E/DX2                !
 ! A4    A(1,2,3)              124.3813         estimate D2E/DX2                !
 ! A5    A(1,2,12)             123.9242         estimate D2E/DX2                !
 ! A6    A(3,2,12)             111.6945         estimate D2E/DX2                !
 ! A7    A(2,3,4)              116.2172         estimate D2E/DX2                !
 ! A8    A(2,3,11)             112.8306         estimate D2E/DX2                !
 ! A9    A(4,3,11)             130.9521         estimate D2E/DX2                !
 ! A10   A(3,4,5)              119.3233         estimate D2E/DX2                !
 ! A11   A(3,4,8)              120.3085         estimate D2E/DX2                !
 ! A12   A(5,4,8)              120.3683         estimate D2E/DX2                !
 ! A13   A(4,5,6)              122.7435         estimate D2E/DX2                !
 ! A14   A(4,5,9)              118.4342         estimate D2E/DX2                !
 ! A15   A(6,5,9)              118.8223         estimate D2E/DX2                !
 ! A16   A(1,6,5)              119.2504         estimate D2E/DX2                !
 ! A17   A(1,6,10)             120.3873         estimate D2E/DX2                !
 ! A18   A(5,6,10)             120.3623         estimate D2E/DX2                !
 ! A19   A(3,11,23)            110.6889         estimate D2E/DX2                !
 ! A20   A(3,11,25)            152.3217         estimate D2E/DX2                !
 ! A21   A(23,11,25)            96.9894         estimate D2E/DX2                !
 ! A22   A(2,12,23)             88.7076         estimate D2E/DX2                !
 ! A23   A(14,13,15)           120.9168         estimate D2E/DX2                !
 ! A24   A(14,13,23)           121.3722         estimate D2E/DX2                !
 ! A25   A(15,13,23)           117.7109         estimate D2E/DX2                !
 ! A26   A(13,14,16)           119.5996         estimate D2E/DX2                !
 ! A27   A(13,14,17)           120.3864         estimate D2E/DX2                !
 ! A28   A(16,14,17)           120.014          estimate D2E/DX2                !
 ! A29   A(13,15,18)           117.7578         estimate D2E/DX2                !
 ! A30   A(13,15,24)           116.4582         estimate D2E/DX2                !
 ! A31   A(18,15,24)           125.784          estimate D2E/DX2                !
 ! A32   A(14,16,19)           120.4944         estimate D2E/DX2                !
 ! A33   A(14,16,20)           119.5707         estimate D2E/DX2                !
 ! A34   A(19,16,20)           119.9348         estimate D2E/DX2                !
 ! A35   A(15,18,19)           120.245          estimate D2E/DX2                !
 ! A36   A(15,18,21)           118.4883         estimate D2E/DX2                !
 ! A37   A(19,18,21)           121.2667         estimate D2E/DX2                !
 ! A38   A(16,19,18)           120.9863         estimate D2E/DX2                !
 ! A39   A(16,19,22)           119.3927         estimate D2E/DX2                !
 ! A40   A(18,19,22)           119.621          estimate D2E/DX2                !
 ! A41   A(11,23,12)           116.0785         estimate D2E/DX2                !
 ! A42   A(11,23,13)           126.3394         estimate D2E/DX2                !
 ! A43   A(12,23,13)           117.5821         estimate D2E/DX2                !
 ! A44   A(15,24,25)           108.4343         estimate D2E/DX2                !
 ! A45   A(11,25,24)           154.0677         estimate D2E/DX2                !
 ! D1    D(6,1,2,3)             -0.0001         estimate D2E/DX2                !
 ! D2    D(6,1,2,12)           179.9999         estimate D2E/DX2                !
 ! D3    D(7,1,2,3)            179.9999         estimate D2E/DX2                !
 ! D4    D(7,1,2,12)            -0.0001         estimate D2E/DX2                !
 ! D5    D(2,1,6,5)             -0.0002         estimate D2E/DX2                !
 ! D6    D(2,1,6,10)           179.9999         estimate D2E/DX2                !
 ! D7    D(7,1,6,5)            179.9999         estimate D2E/DX2                !
 ! D8    D(7,1,6,10)             0.0            estimate D2E/DX2                !
 ! D9    D(1,2,3,4)              0.0003         estimate D2E/DX2                !
 ! D10   D(1,2,3,11)          -179.9999         estimate D2E/DX2                !
 ! D11   D(12,2,3,4)          -179.9997         estimate D2E/DX2                !
 ! D12   D(12,2,3,11)            0.0001         estimate D2E/DX2                !
 ! D13   D(1,2,12,23)          179.9996         estimate D2E/DX2                !
 ! D14   D(3,2,12,23)           -0.0004         estimate D2E/DX2                !
 ! D15   D(2,3,4,5)             -0.0003         estimate D2E/DX2                !
 ! D16   D(2,3,4,8)            179.9998         estimate D2E/DX2                !
 ! D17   D(11,3,4,5)           180.0            estimate D2E/DX2                !
 ! D18   D(11,3,4,8)             0.0001         estimate D2E/DX2                !
 ! D19   D(2,3,11,23)            0.0004         estimate D2E/DX2                !
 ! D20   D(2,3,11,25)          179.9937         estimate D2E/DX2                !
 ! D21   D(4,3,11,23)         -179.9998         estimate D2E/DX2                !
 ! D22   D(4,3,11,25)           -0.0065         estimate D2E/DX2                !
 ! D23   D(3,4,5,6)              0.0001         estimate D2E/DX2                !
 ! D24   D(3,4,5,9)           -179.9999         estimate D2E/DX2                !
 ! D25   D(8,4,5,6)            180.0            estimate D2E/DX2                !
 ! D26   D(8,4,5,9)              0.0            estimate D2E/DX2                !
 ! D27   D(4,5,6,1)              0.0002         estimate D2E/DX2                !
 ! D28   D(4,5,6,10)          -179.9999         estimate D2E/DX2                !
 ! D29   D(9,5,6,1)           -179.9999         estimate D2E/DX2                !
 ! D30   D(9,5,6,10)             0.0            estimate D2E/DX2                !
 ! D31   D(3,11,23,12)          -0.0008         estimate D2E/DX2                !
 ! D32   D(3,11,23,13)         179.998          estimate D2E/DX2                !
 ! D33   D(25,11,23,12)       -179.9976         estimate D2E/DX2                !
 ! D34   D(25,11,23,13)          0.0011         estimate D2E/DX2                !
 ! D35   D(3,11,25,24)        -179.9955         estimate D2E/DX2                !
 ! D36   D(23,11,25,24)         -0.0018         estimate D2E/DX2                !
 ! D37   D(2,12,23,11)           0.0007         estimate D2E/DX2                !
 ! D38   D(2,12,23,13)        -179.9981         estimate D2E/DX2                !
 ! D39   D(15,13,14,16)          0.0017         estimate D2E/DX2                !
 ! D40   D(15,13,14,17)       -179.9989         estimate D2E/DX2                !
 ! D41   D(23,13,14,16)       -179.9983         estimate D2E/DX2                !
 ! D42   D(23,13,14,17)          0.001          estimate D2E/DX2                !
 ! D43   D(14,13,15,18)         -0.002          estimate D2E/DX2                !
 ! D44   D(14,13,15,24)        179.9977         estimate D2E/DX2                !
 ! D45   D(23,13,15,18)        179.998          estimate D2E/DX2                !
 ! D46   D(23,13,15,24)         -0.0023         estimate D2E/DX2                !
 ! D47   D(14,13,23,11)       -179.9995         estimate D2E/DX2                !
 ! D48   D(14,13,23,12)         -0.0008         estimate D2E/DX2                !
 ! D49   D(15,13,23,11)          0.0004         estimate D2E/DX2                !
 ! D50   D(15,13,23,12)        179.9991         estimate D2E/DX2                !
 ! D51   D(13,14,16,19)         -0.0004         estimate D2E/DX2                !
 ! D52   D(13,14,16,20)        179.9995         estimate D2E/DX2                !
 ! D53   D(17,14,16,19)       -179.9997         estimate D2E/DX2                !
 ! D54   D(17,14,16,20)          0.0002         estimate D2E/DX2                !
 ! D55   D(13,15,18,19)          0.001          estimate D2E/DX2                !
 ! D56   D(13,15,18,21)       -179.9999         estimate D2E/DX2                !
 ! D57   D(24,15,18,19)       -179.9987         estimate D2E/DX2                !
 ! D58   D(24,15,18,21)          0.0005         estimate D2E/DX2                !
 ! D59   D(13,15,24,25)          0.0021         estimate D2E/DX2                !
 ! D60   D(18,15,24,25)       -179.9983         estimate D2E/DX2                !
 ! D61   D(14,16,19,18)         -0.0007         estimate D2E/DX2                !
 ! D62   D(14,16,19,22)        179.9997         estimate D2E/DX2                !
 ! D63   D(20,16,19,18)        179.9994         estimate D2E/DX2                !
 ! D64   D(20,16,19,22)         -0.0002         estimate D2E/DX2                !
 ! D65   D(15,18,19,16)          0.0004         estimate D2E/DX2                !
 ! D66   D(15,18,19,22)        180.0            estimate D2E/DX2                !
 ! D67   D(21,18,19,16)       -179.9988         estimate D2E/DX2                !
 ! D68   D(21,18,19,22)          0.0008         estimate D2E/DX2                !
 ! D69   D(15,24,25,11)          0.0002         estimate D2E/DX2                !
 ! Qtot  GIC-1                   0.0            Frozen                          !
 ! Ptot  GIC-2                 240.0            Frozen                          !
 --------------------------------------------------------------------------------
 NOTE: GIC-type coordinates are in arbitrary units.
 Trust Radius=3.00D-01 FncErr=5.00D-06 GrdErr=5.00D-06 EigMax=2.50D+02 EigMin=1.00D-04
 Number of steps in this run=    150 maximum allowed number of steps=    150.
 GradGradGradGradGradGradGradGradGradGradGradGradGradGradGradGradGradGrad

 Leave Link  103 at Tue Jul 14 16:55:59 2020, MaxMem=  7784628224 cpu:               0.1 elap:               0.0
 (Enter /gpfs/loomis/apps/avx/software/Gaussian/16-C.01_AVX/g16/l202.exe)
                          Input orientation:                          
 ---------------------------------------------------------------------
 Center     Atomic      Atomic             Coordinates (Angstroms)
 Number     Number       Type             X           Y           Z
 ---------------------------------------------------------------------
      1          6           0        1.490016   -3.247184   -0.000015
      2          6           0        0.998992   -1.935078   -0.000023
      3          6           0        1.823171   -0.762459   -0.000029
      4          6           0        3.231626   -0.982622   -0.000033
      5          6           0        3.722808   -2.300626   -0.000024
      6          6           0        2.876374   -3.431355   -0.000014
      7          1           0        0.791849   -4.100477   -0.000009
      8          1           0        3.928665   -0.127748   -0.000041
      9          1           0        4.811095   -2.453483   -0.000025
     10          1           0        3.302220   -4.443404   -0.000006
     11          7           0        1.089247    0.408977   -0.000035
     12         16           0       -0.687958   -1.532969   -0.000028
     13          6           0       -1.289982    1.086065    0.000015
     14          6           0       -2.645264    0.688569    0.000032
     15          6           0       -0.921626    2.503173    0.000037
     16          6           0       -3.656526    1.666988    0.000035
     17          1           0       -2.912165   -0.378717    0.000033
     18          6           0       -1.977137    3.464576    0.000033
     19          6           0       -3.325017    3.041493    0.000029
     20          1           0       -4.709690    1.357526    0.000042
     21          1           0       -1.713743    4.533683    0.000048
     22          1           0       -4.128269    3.789294    0.000027
     23          6           0       -0.249179    0.139615   -0.000024
     24          8           0        0.339908    2.768731    0.000066
     25          1           0        0.993950    1.650450    0.000023
 ---------------------------------------------------------------------
                    Distance matrix (angstroms):
                    1          2          3          4          5
     1  C    0.000000
     2  C    1.400974   0.000000
     3  C    2.506961   1.433285   0.000000
     4  C    2.856825   2.427308   1.425559   0.000000
     5  C    2.425146   2.748235   2.444295   1.406554   0.000000
     6  C    1.398538   2.400710   2.869189   2.474368   1.412445
     7  H    1.102518   2.175284   3.493707   3.958981   3.439475
     8  H    3.959532   3.442299   2.199083   1.103029   2.182607
     9  H    3.414605   3.847190   3.433257   2.158276   1.098970
    10  H    2.171411   3.405372   3.966982   3.461502   2.183665
    11  N    3.678061   2.345792   1.382356   2.554670   3.778570
    12  S    2.771661   1.734213   2.626682   3.958033   4.477070
    13  C    5.148343   3.790344   3.620602   4.972364   6.049606
    14  C    5.708826   4.490449   4.698126   6.109887   7.034744
    15  C    6.235593   4.835994   4.265941   5.422201   6.681859
    16  C    7.115897   5.886318   5.994105   7.380181   8.378337
    17  H    5.254266   4.209444   4.750860   6.173401   6.907721
    18  C    7.554395   6.165518   5.684203   6.848999   8.107215
    19  C    7.920354   6.592671   6.401085   7.693053   8.843646
    20  H    7.722675   6.590166   6.868231   8.278937   9.191795
    21  H    8.414628   7.014542   6.368585   7.408528   8.732918
    22  H    9.004285   7.684871   7.492535   8.771501   9.936122
    23  C    3.807258   2.421215   2.260170   3.657242   4.661701
    24  O    6.124866   4.749759   3.830061   4.736526   6.094455
    25  H    4.922693   3.585532   2.551418   3.455469   4.801840
                    6          7          8          9         10
     6  C    0.000000
     7  H    2.189285   0.000000
     8  H    3.467151   5.061837   0.000000
     9  H    2.167805   4.343608   2.487514   0.000000
    10  H    1.097992   2.533685   4.360886   2.497297   0.000000
    11  N    4.235797   4.519250   2.889701   4.695299   5.333184
    12  S    4.038358   2.963432   4.825750   5.575566   4.938842
    13  C    6.145373   5.588760   5.357949   7.053477   7.187722
    14  C    6.889286   5.894803   6.624418   8.091340   7.855553
    15  C    7.045809   6.822330   5.517886   7.578425   8.129932
    16  C    8.286850   7.283659   7.794627   9.416947   9.260726
    17  H    6.544142   5.250831   6.845433   7.997087   7.425649
    18  C    8.432701   8.055887   6.912546   9.005750   9.508300
    19  C    8.964096   8.243562   7.915806   9.817896   9.997197
    20  H    8.971162   7.749627   8.765114  10.255200   9.891485
    21  H    9.192987   8.990367   7.318859   9.560021  10.283383
    22  H   10.059960   9.298174   8.958650  10.903416  11.090062
    23  C    4.745620   4.366019   4.186390   5.685994   5.797974
    24  O    6.698860   6.884059   4.611807   6.874811   7.796806
    25  H    5.419250   5.754477   3.431405   5.604718   6.516377
                   11         12         13         14         15
    11  N    0.000000
    12  S    2.632416   0.000000
    13  C    2.473697   2.687335   0.000000
    14  C    3.744962   2.960790   1.412371   0.000000
    15  C    2.903319   4.042900   1.464199   2.502741   0.000000
    16  C    4.909679   4.364873   2.436802   1.407109   2.859875
    17  H    4.078206   2.505872   2.185650   1.100152   3.502504
    18  C    4.328903   5.161147   2.475782   2.855277   1.427726
    19  C    5.139636   5.280130   2.822245   2.449146   2.462941
    20  H    5.876003   4.952705   3.430466   2.170105   3.957516
    21  H    4.986977   6.152763   3.473563   3.956341   2.179546
    22  H    6.216833   6.337367   3.919607   3.437121   3.454948
    23  C    1.365261   1.729181   1.406783   2.458165   2.457354
    24  O    2.475873   4.422797   2.342628   3.638451   1.289182
    25  H    1.245125   3.600413   2.352631   3.764185   2.096799
                   16         17         18         19         20
    16  C    0.000000
    17  H    2.176920   0.000000
    18  C    2.460014   3.955399   0.000000
    19  C    1.413917   3.445037   1.412720   0.000000
    20  H    1.097689   2.499126   3.450580   2.180153   0.000000
    21  H    3.462996   5.056470   1.101075   2.196095   4.366197
    22  H    2.174103   4.341799   2.175501   1.097461   2.500310
    23  C    3.734017   2.712963   3.747160   4.228673   4.623794
    24  O    4.145519   4.525750   2.419277   3.675061   5.243085
    25  H    4.650505   4.401733   3.481151   4.537452   5.711157
                   21         22         23         24         25
    21  H    0.000000
    22  H    2.526668   0.000000
    23  C    4.631714   5.326114   0.000000
    24  O    2.707866   4.583247   2.694304   0.000000
    25  H    3.955329   5.550836   1.956525   1.295501   0.000000
 Symmetry turned off by external request.
 Stoichiometry    C13H9NOS
 Framework group  C1[X(C13H9NOS)]
 Deg. of freedom    69
 Full point group                 C1      NOp   1
 Rotational constants (GHZ):           1.4136958           0.2864301           0.2381736
 Leave Link  202 at Tue Jul 14 16:55:59 2020, MaxMem=  7784628224 cpu:               0.2 elap:               0.1
 (Enter /gpfs/loomis/apps/avx/software/Gaussian/16-C.01_AVX/g16/l301.exe)
 Standard basis: CC-pVDZ (5D, 7F)
 Ernie: Thresh=  0.10000D-02 Tol=  0.10000D-05 Strict=F.
 Ernie:  40 primitive shells out of 425 were deleted.
   273 basis functions,   629 primitive gaussians,   289 cartesian basis functions
    59 alpha electrons       59 beta electrons
       nuclear repulsion energy      1100.4153162917 Hartrees.
 IExCor= 4639 DFT=T Ex+Corr=wB97XD ExCW=0 ScaHFX=  1.000000
 ScaDFX=  1.000000  1.000000  1.000000  1.000000 ScalE2=  1.000000  1.000000
 IRadAn=      5 IRanWt=     -1 IRanGd=            0 ICorTp=0 IEmpDi=121
 HFx  wShort=  0.000000 wLong=  0.200000 cFull=  0.222036 cShort=  0.000000 cLong=  0.777964
 DFx  wShort=  0.000000 wLong=  0.200000 cFull=  0.000000 cShort=  0.000000 cLong=  1.000000
 NAtoms=   25 NActive=   25 NUniq=   25 SFac= 1.00D+00 NAtFMM=   60 NAOKFM=F Big=F
 Integral buffers will be    131072 words long.
 Raffenetti 1 integral format.
 Two-electron integral symmetry is turned off.
 R6Disp:  Grimme-D2 Dispersion energy=       -0.0137856417 Hartrees.
 Nuclear repulsion after empirical dispersion term =     1100.4015306500 Hartrees.
 ------------------------------------------------------------------------------
 Polarizable Continuum Model (PCM)
 =================================
 Model                : PCM.
 Atomic radii         : UFF (Universal Force Field).
 Polarization charges : Total charges.
 Charge compensation  : None.
 Solution method      : On-the-fly selection.
 Cavity type          : Scaled VdW (van der Waals Surface) (Alpha=1.100).
 Cavity algorithm     : GePol (No added spheres)
                        Default sphere list used, NSphG=   25.
                        Lebedev-Laikov grids with approx.  5.0 points / Ang**2.
                        Smoothing algorithm: York/Karplus (Gamma=1.0000).
                        Polarization charges: spherical gaussians, with
                                              point-specific exponents (IZeta= 3).
                        Self-potential: point-specific (ISelfS= 7).
                        Self-field    : sphere-specific E.n sum rule (ISelfD= 2).
 1st derivatives      : Analytical E(r).r(x)/FMM algorithm (CHGder, D1EAlg=3).
                        Cavity 1st derivative terms included.
 Solvent              : CarbonTetraChloride, Eps=   2.228000 Eps(inf)=   2.131892
 ------------------------------------------------------------------------------
 GePol: Number of generator spheres                  =      25
 GePol: Total number of spheres                      =      25
 GePol: Number of exposed spheres                    =      25 (100.00%)
 GePol: Number of points                             =    2176
 GePol: Average weight of points                     =       0.12
 GePol: Minimum weight of points                     =   0.19D-07
 GePol: Maximum weight of points                     =    0.20577
 GePol: Number of points with low weight             =     155
 GePol: Fraction of low-weight points (<1% of avg)   =       7.12%
 GePol: Cavity surface area                          =    271.833 Ang**2
 GePol: Cavity volume                                =    292.554 Ang**3
 Leave Link  301 at Tue Jul 14 16:55:59 2020, MaxMem=  7784628224 cpu:               0.8 elap:               0.1
 (Enter /gpfs/loomis/apps/avx/software/Gaussian/16-C.01_AVX/g16/l302.exe)
 NPDir=0 NMtPBC=     1 NCelOv=     1 NCel=       1 NClECP=     1 NCelD=      1
         NCelK=      1 NCelE2=     1 NClLst=     1 CellRange=     0.0.
 One-electron integrals computed using PRISM.
 NBasis=   273 RedAO= T EigKep=  3.35D-04  NBF=   273
 NBsUse=   273 1.00D-06 EigRej= -1.00D+00 NBFU=   273
 Precomputing XC quadrature grid using
 IXCGrd= 4 IRadAn=           5 IRanWt=          -1 IRanGd=           0 AccXCQ= 0.00D+00.
 Generated NRdTot=       0 NPtTot=           0 NUsed=           0 NTot=          32
 NSgBfM=   288   288   288   288   288 MxSgAt=    25 MxSgA2=    25.
 Leave Link  302 at Tue Jul 14 16:56:00 2020, MaxMem=  7784628224 cpu:               3.7 elap:               0.5
 (Enter /gpfs/loomis/apps/avx/software/Gaussian/16-C.01_AVX/g16/l303.exe)
 DipDrv:  MaxL=1.
 Leave Link  303 at Tue Jul 14 16:56:00 2020, MaxMem=  7784628224 cpu:               0.4 elap:               0.1
 (Enter /gpfs/loomis/apps/avx/software/Gaussian/16-C.01_AVX/g16/l308.exe)
 Leave Link  308 at Tue Jul 14 16:56:01 2020, MaxMem=  7784628224 cpu:               0.5 elap:               0.1
 (Enter /gpfs/loomis/apps/avx/software/Gaussian/16-C.01_AVX/g16/l401.exe)
 ExpMin= 1.22D-01 ExpMax= 1.11D+05 ExpMxC= 1.07D+03 IAcc=3 IRadAn=         5 AccDes= 0.00D+00
 Harris functional with IExCor= 4639 and IRadAn=       5 diagonalized for initial guess.
 HarFok:  IExCor= 4639 AccDes= 0.00D+00 IRadAn=         5 IDoV= 1 UseB2=F ITyADJ=14
 ICtDFT=  3500011 ScaDFX=  1.000000  1.000000  1.000000  1.000000
 FoFCou: FMM=F IPFlag=           0 FMFlag=      100000 FMFlg1=           0
         NFxFlg=           0 DoJE=T BraDBF=F KetDBF=T FulRan=T
         wScrn=  0.000000 ICntrl=       500 IOpCl=  0 I1Cent=   200000004 NGrid=           0
         NMat0=    1 NMatS0=      1 NMatT0=    0 NMatD0=    1 NMtDS0=    0 NMtDT0=    0
 Symmetry not used in FoFCou.
 Harris En= -994.454868764020    
 JPrj=0 DoOrth=F DoCkMO=F.
 Leave Link  401 at Tue Jul 14 16:56:02 2020, MaxMem=  7784628224 cpu:              13.5 elap:               1.4
 (Enter /gpfs/loomis/apps/avx/software/Gaussian/16-C.01_AVX/g16/l502.exe)
 Two-electron integral symmetry not used.
 Closed shell SCF:
 Using DIIS extrapolation, IDIIS=  1040.
 NGot=  7784628224 LenX=  7784455381 LenY=  7784371419
 Requested convergence on RMS density matrix=1.00D-08 within 128 cycles.
 Requested convergence on MAX density matrix=1.00D-06.
 Requested convergence on             energy=1.00D-06.
 No special actions if energy rises.
 Fock matrices will be formed incrementally for  20 cycles.

 Cycle   1  Pass 1  IDiag  1:
 FoFJK:  IHMeth= 1 ICntrl=       0 DoSepK=T KAlg= 0 I1Cent=           0 FoldK=F
 IRaf=         1 NMat=       1 IRICut=       1 DoRegI=T DoRafI=F ISym2E= 0 IDoP0=0 IntGTp=1.
 FoFCou: FMM=F IPFlag=           0 FMFlag=      100000 FMFlg1=           0
         NFxFlg=           0 DoJE=T BraDBF=F KetDBF=F FulRan=T
         wScrn=  0.000000 ICntrl=       500 IOpCl=  0 I1Cent=           0 NGrid=           0
         NMat0=    1 NMatS0=      1 NMatT0=    0 NMatD0=    1 NMtDS0=    0 NMtDT0=    0
 Symmetry not used in FoFCou.
 Inv3:  Mode=1 IEnd=    14204928.
 Iteration    1 A*A^-1 deviation from unit magnitude is 3.77D-15 for   2173.
 Iteration    1 A*A^-1 deviation from orthogonality  is 1.41D-15 for   2154   2100.
 Iteration    1 A^-1*A deviation from unit magnitude is 3.55D-15 for   2173.
 Iteration    1 A^-1*A deviation from orthogonality  is 1.41D-15 for   2174   2173.
 E= -1028.56263406962    
 DIIS: error= 2.98D-02 at cycle   1 NSaved=   1.
 NSaved= 1 IEnMin= 1 EnMin= -1028.56263406962     IErMin= 1 ErrMin= 2.98D-02
 ErrMax= 2.98D-02  0.00D+00 EMaxC= 1.00D-01 BMatC= 3.90D-01 BMatP= 3.90D-01
 IDIUse=3 WtCom= 7.02D-01 WtEn= 2.98D-01
 Coeff-Com:  0.100D+01
 Coeff-En:   0.100D+01
 Coeff:      0.100D+01
 Gap=     0.330 Goal=   None    Shift=    0.000
 GapD=    0.330 DampG=1.000 DampE=0.500 DampFc=0.5000 IDamp=-1.
 Damping current iteration by 5.00D-01
 RMSDP=3.50D-03 MaxDP=2.21D-01              OVMax= 1.72D-01

 Cycle   2  Pass 1  IDiag  1:
 RMSU=  1.74D-03    CP:  9.93D-01
 E= -1028.67780986701     Delta-E=       -0.115175797383 Rises=F Damp=T
 DIIS: error= 1.07D-02 at cycle   2 NSaved=   2.
 NSaved= 2 IEnMin= 2 EnMin= -1028.67780986701     IErMin= 2 ErrMin= 1.07D-02
 ErrMax= 1.07D-02  0.00D+00 EMaxC= 1.00D-01 BMatC= 5.85D-02 BMatP= 3.90D-01
 IDIUse=3 WtCom= 8.93D-01 WtEn= 1.07D-01
 Coeff-Com: -0.289D+00 0.129D+01
 Coeff-En:   0.000D+00 0.100D+01
 Coeff:     -0.258D+00 0.126D+01
 Gap=     0.301 Goal=   None    Shift=    0.000
 RMSDP=1.13D-03 MaxDP=2.48D-02 DE=-1.15D-01 OVMax= 1.14D-01

 Cycle   3  Pass 1  IDiag  1:
 RMSU=  1.09D-03    CP:  9.92D-01  1.18D+00
 E= -1028.77920490483     Delta-E=       -0.101395037823 Rises=F Damp=F
 DIIS: error= 7.36D-03 at cycle   3 NSaved=   3.
 NSaved= 3 IEnMin= 3 EnMin= -1028.77920490483     IErMin= 3 ErrMin= 7.36D-03
 ErrMax= 7.36D-03  0.00D+00 EMaxC= 1.00D-01 BMatC= 1.59D-02 BMatP= 5.85D-02
 IDIUse=3 WtCom= 9.26D-01 WtEn= 7.36D-02
 Coeff-Com: -0.210D+00 0.509D+00 0.701D+00
 Coeff-En:   0.000D+00 0.000D+00 0.100D+01
 Coeff:     -0.195D+00 0.472D+00 0.723D+00
 Gap=     0.256 Goal=   None    Shift=    0.000
 RMSDP=5.69D-04 MaxDP=2.41D-02 DE=-1.01D-01 OVMax= 3.97D-02

 Cycle   4  Pass 1  IDiag  1:
 RMSU=  4.41D-04    CP:  9.90D-01  1.35D+00  8.12D-01
 E= -1028.79371191415     Delta-E=       -0.014507009318 Rises=F Damp=F
 DIIS: error= 2.49D-03 at cycle   4 NSaved=   4.
 NSaved= 4 IEnMin= 4 EnMin= -1028.79371191415     IErMin= 4 ErrMin= 2.49D-03
 ErrMax= 2.49D-03  0.00D+00 EMaxC= 1.00D-01 BMatC= 2.07D-03 BMatP= 1.59D-02
 IDIUse=3 WtCom= 9.75D-01 WtEn= 2.49D-02
 Coeff-Com: -0.738D-01 0.147D+00 0.352D+00 0.575D+00
 Coeff-En:   0.000D+00 0.000D+00 0.000D+00 0.100D+01
 Coeff:     -0.720D-01 0.143D+00 0.343D+00 0.585D+00
 Gap=     0.254 Goal=   None    Shift=    0.000
 RMSDP=1.83D-04 MaxDP=1.05D-02 DE=-1.45D-02 OVMax= 1.41D-02

 Cycle   5  Pass 1  IDiag  1:
 RMSU=  1.06D-04    CP:  9.90D-01  1.36D+00  8.93D-01  7.32D-01
 E= -1028.79582875558     Delta-E=       -0.002116841431 Rises=F Damp=F
 DIIS: error= 5.01D-04 at cycle   5 NSaved=   5.
 NSaved= 5 IEnMin= 5 EnMin= -1028.79582875558     IErMin= 5 ErrMin= 5.01D-04
 ErrMax= 5.01D-04  0.00D+00 EMaxC= 1.00D-01 BMatC= 5.96D-05 BMatP= 2.07D-03
 IDIUse=3 WtCom= 9.95D-01 WtEn= 5.01D-03
 Coeff-Com: -0.393D-02 0.180D-02 0.468D-01 0.172D+00 0.783D+00
 Coeff-En:   0.000D+00 0.000D+00 0.000D+00 0.000D+00 0.100D+01
 Coeff:     -0.391D-02 0.179D-02 0.466D-01 0.172D+00 0.784D+00
 Gap=     0.254 Goal=   None    Shift=    0.000
 RMSDP=5.12D-05 MaxDP=1.90D-03 DE=-2.12D-03 OVMax= 4.50D-03

 Cycle   6  Pass 1  IDiag  1:
 RMSU=  3.38D-05    CP:  9.90D-01  1.36D+00  9.10D-01  8.06D-01  1.06D+00
 E= -1028.79594052026     Delta-E=       -0.000111764681 Rises=F Damp=F
 DIIS: error= 1.97D-04 at cycle   6 NSaved=   6.
 NSaved= 6 IEnMin= 6 EnMin= -1028.79594052026     IErMin= 6 ErrMin= 1.97D-04
 ErrMax= 1.97D-04  0.00D+00 EMaxC= 1.00D-01 BMatC= 1.24D-05 BMatP= 5.96D-05
 IDIUse=3 WtCom= 9.98D-01 WtEn= 1.97D-03
 Coeff-Com:  0.141D-01-0.299D-01-0.501D-01-0.429D-01 0.275D+00 0.834D+00
 Coeff-En:   0.000D+00 0.000D+00 0.000D+00 0.000D+00 0.000D+00 0.100D+01
 Coeff:      0.141D-01-0.298D-01-0.500D-01-0.428D-01 0.274D+00 0.835D+00
 Gap=     0.255 Goal=   None    Shift=    0.000
 RMSDP=2.89D-05 MaxDP=1.43D-03 DE=-1.12D-04 OVMax= 3.20D-03

 Cycle   7  Pass 1  IDiag  1:
 RMSU=  1.63D-05    CP:  9.90D-01  1.36D+00  9.20D-01  8.34D-01  1.21D+00
                    CP:  1.19D+00
 E= -1028.79596969162     Delta-E=       -0.000029171358 Rises=F Damp=F
 DIIS: error= 1.19D-04 at cycle   7 NSaved=   7.
 NSaved= 7 IEnMin= 7 EnMin= -1028.79596969162     IErMin= 7 ErrMin= 1.19D-04
 ErrMax= 1.19D-04  0.00D+00 EMaxC= 1.00D-01 BMatC= 2.74D-06 BMatP= 1.24D-05
 IDIUse=3 WtCom= 9.99D-01 WtEn= 1.19D-03
 Coeff-Com:  0.731D-02-0.141D-01-0.310D-01-0.496D-01-0.623D-02 0.380D+00
 Coeff-Com:  0.714D+00
 Coeff-En:   0.000D+00 0.000D+00 0.000D+00 0.000D+00 0.000D+00 0.000D+00
 Coeff-En:   0.100D+01
 Coeff:      0.731D-02-0.141D-01-0.309D-01-0.496D-01-0.622D-02 0.380D+00
 Coeff:      0.714D+00
 Gap=     0.255 Goal=   None    Shift=    0.000
 RMSDP=1.23D-05 MaxDP=5.92D-04 DE=-2.92D-05 OVMax= 1.46D-03

 Cycle   8  Pass 1  IDiag  1:
 RMSU=  7.24D-06    CP:  9.90D-01  1.36D+00  9.23D-01  8.41D-01  1.26D+00
                    CP:  1.40D+00  1.11D+00
 E= -1028.79597575767     Delta-E=       -0.000006066054 Rises=F Damp=F
 DIIS: error= 4.65D-05 at cycle   8 NSaved=   8.
 NSaved= 8 IEnMin= 8 EnMin= -1028.79597575767     IErMin= 8 ErrMin= 4.65D-05
 ErrMax= 4.65D-05  0.00D+00 EMaxC= 1.00D-01 BMatC= 3.10D-07 BMatP= 2.74D-06
 IDIUse=1 WtCom= 1.00D+00 WtEn= 0.00D+00
 Coeff-Com: -0.113D-02 0.255D-02 0.370D-02 0.484D-05-0.406D-01-0.786D-01
 Coeff-Com:  0.165D+00 0.949D+00
 Coeff:     -0.113D-02 0.255D-02 0.370D-02 0.484D-05-0.406D-01-0.786D-01
 Coeff:      0.165D+00 0.949D+00
 Gap=     0.255 Goal=   None    Shift=    0.000
 RMSDP=6.06D-06 MaxDP=2.05D-04 DE=-6.07D-06 OVMax= 9.35D-04

 Cycle   9  Pass 1  IDiag  1:
 RMSU=  2.61D-06    CP:  9.90D-01  1.36D+00  9.22D-01  8.41D-01  1.27D+00
                    CP:  1.50D+00  1.35D+00  1.26D+00
 E= -1028.79597693849     Delta-E=       -0.000001180819 Rises=F Damp=F
 DIIS: error= 2.30D-05 at cycle   9 NSaved=   9.
 NSaved= 9 IEnMin= 9 EnMin= -1028.79597693849     IErMin= 9 ErrMin= 2.30D-05
 ErrMax= 2.30D-05  0.00D+00 EMaxC= 1.00D-01 BMatC= 5.59D-08 BMatP= 3.10D-07
 IDIUse=1 WtCom= 1.00D+00 WtEn= 0.00D+00
 Coeff-Com: -0.120D-02 0.240D-02 0.499D-02 0.652D-02-0.107D-01-0.805D-01
 Coeff-Com: -0.449D-01 0.280D+00 0.843D+00
 Coeff:     -0.120D-02 0.240D-02 0.499D-02 0.652D-02-0.107D-01-0.805D-01
 Coeff:     -0.449D-01 0.280D+00 0.843D+00
 Gap=     0.255 Goal=   None    Shift=    0.000
 RMSDP=2.75D-06 MaxDP=7.53D-05 DE=-1.18D-06 OVMax= 4.83D-04

 Cycle  10  Pass 1  IDiag  1:
 RMSU=  1.28D-06    CP:  9.90D-01  1.36D+00  9.22D-01  8.41D-01  1.28D+00
                    CP:  1.53D+00  1.44D+00  1.45D+00  1.22D+00
 E= -1028.79597718522     Delta-E=       -0.000000246730 Rises=F Damp=F
 DIIS: error= 9.27D-06 at cycle  10 NSaved=  10.
 NSaved=10 IEnMin=10 EnMin= -1028.79597718522     IErMin=10 ErrMin= 9.27D-06
 ErrMax= 9.27D-06  0.00D+00 EMaxC= 1.00D-01 BMatC= 1.97D-08 BMatP= 5.59D-08
 IDIUse=1 WtCom= 1.00D+00 WtEn= 0.00D+00
 Coeff-Com: -0.181D-03 0.297D-03 0.110D-02 0.267D-02 0.524D-02-0.163D-01
 Coeff-Com: -0.545D-01-0.124D+00 0.368D+00 0.818D+00
 Coeff:     -0.181D-03 0.297D-03 0.110D-02 0.267D-02 0.524D-02-0.163D-01
 Coeff:     -0.545D-01-0.124D+00 0.368D+00 0.818D+00
 Gap=     0.255 Goal=   None    Shift=    0.000
 RMSDP=1.59D-06 MaxDP=4.25D-05 DE=-2.47D-07 OVMax= 2.56D-04

 Cycle  11  Pass 1  IDiag  1:
 RMSU=  5.71D-07    CP:  9.90D-01  1.36D+00  9.22D-01  8.41D-01  1.28D+00
                    CP:  1.55D+00  1.48D+00  1.54D+00  1.58D+00  1.17D+00
 E= -1028.79597725583     Delta-E=       -0.000000070615 Rises=F Damp=F
 DIIS: error= 5.21D-06 at cycle  11 NSaved=  11.
 NSaved=11 IEnMin=11 EnMin= -1028.79597725583     IErMin=11 ErrMin= 5.21D-06
 ErrMax= 5.21D-06  0.00D+00 EMaxC= 1.00D-01 BMatC= 2.43D-09 BMatP= 1.97D-08
 IDIUse=1 WtCom= 1.00D+00 WtEn= 0.00D+00
 Coeff-Com:  0.257D-03-0.534D-03-0.889D-03-0.784D-03 0.465D-02 0.119D-01
 Coeff-Com: -0.470D-02-0.969D-01-0.390D-01 0.202D+00 0.924D+00
 Coeff:      0.257D-03-0.534D-03-0.889D-03-0.784D-03 0.465D-02 0.119D-01
 Coeff:     -0.470D-02-0.969D-01-0.390D-01 0.202D+00 0.924D+00
 Gap=     0.255 Goal=   None    Shift=    0.000
 RMSDP=6.76D-07 MaxDP=1.95D-05 DE=-7.06D-08 OVMax= 1.31D-04

 Cycle  12  Pass 1  IDiag  1:
 RMSU=  2.32D-07    CP:  9.90D-01  1.36D+00  9.22D-01  8.42D-01  1.28D+00
                    CP:  1.55D+00  1.49D+00  1.57D+00  1.73D+00  1.44D+00
                    CP:  1.18D+00
 E= -1028.79597726883     Delta-E=       -0.000000012996 Rises=F Damp=F
 DIIS: error= 1.25D-06 at cycle  12 NSaved=  12.
 NSaved=12 IEnMin=12 EnMin= -1028.79597726883     IErMin=12 ErrMin= 1.25D-06
 ErrMax= 1.25D-06  0.00D+00 EMaxC= 1.00D-01 BMatC= 8.17D-10 BMatP= 2.43D-09
 IDIUse=1 WtCom= 1.00D+00 WtEn= 0.00D+00
 Coeff-Com:  0.139D-03-0.274D-03-0.570D-03-0.883D-03 0.113D-02 0.820D-02
 Coeff-Com:  0.968D-02-0.169D-01-0.931D-01-0.123D+00 0.383D+00 0.833D+00
 Coeff:      0.139D-03-0.274D-03-0.570D-03-0.883D-03 0.113D-02 0.820D-02
 Coeff:      0.968D-02-0.169D-01-0.931D-01-0.123D+00 0.383D+00 0.833D+00
 Gap=     0.255 Goal=   None    Shift=    0.000
 RMSDP=3.48D-07 MaxDP=8.22D-06 DE=-1.30D-08 OVMax= 5.57D-05

 Cycle  13  Pass 1  IDiag  1:
 RMSU=  9.51D-08    CP:  9.90D-01  1.36D+00  9.22D-01  8.42D-01  1.28D+00
                    CP:  1.55D+00  1.50D+00  1.59D+00  1.81D+00  1.55D+00
                    CP:  1.46D+00  1.11D+00
 E= -1028.79597727142     Delta-E=       -0.000000002588 Rises=F Damp=F
 DIIS: error= 5.90D-07 at cycle  13 NSaved=  13.
 NSaved=13 IEnMin=13 EnMin= -1028.79597727142     IErMin=13 ErrMin= 5.90D-07
 ErrMax= 5.90D-07  0.00D+00 EMaxC= 1.00D-01 BMatC= 6.48D-11 BMatP= 8.17D-10
 IDIUse=1 WtCom= 1.00D+00 WtEn= 0.00D+00
 Coeff-Com:  0.545D-05-0.686D-05-0.479D-04-0.183D-03-0.241D-03 0.913D-03
 Coeff-Com:  0.365D-02 0.854D-02-0.201D-01-0.726D-01-0.794D-02 0.251D+00
 Coeff-Com:  0.838D+00
 Coeff:      0.545D-05-0.686D-05-0.479D-04-0.183D-03-0.241D-03 0.913D-03
 Coeff:      0.365D-02 0.854D-02-0.201D-01-0.726D-01-0.794D-02 0.251D+00
 Coeff:      0.838D+00
 Gap=     0.255 Goal=   None    Shift=    0.000
 RMSDP=8.82D-08 MaxDP=2.00D-06 DE=-2.59D-09 OVMax= 1.30D-05

 Cycle  14  Pass 1  IDiag  1:
 RMSU=  3.76D-08    CP:  9.90D-01  1.36D+00  9.22D-01  8.42D-01  1.28D+00
                    CP:  1.55D+00  1.50D+00  1.59D+00  1.83D+00  1.58D+00
                    CP:  1.53D+00  1.27D+00  1.05D+00
 E= -1028.79597727162     Delta-E=       -0.000000000206 Rises=F Damp=F
 DIIS: error= 1.62D-07 at cycle  14 NSaved=  14.
 NSaved=14 IEnMin=14 EnMin= -1028.79597727162     IErMin=14 ErrMin= 1.62D-07
 ErrMax= 1.62D-07  0.00D+00 EMaxC= 1.00D-01 BMatC= 1.32D-11 BMatP= 6.48D-11
 IDIUse=1 WtCom= 1.00D+00 WtEn= 0.00D+00
 Coeff-Com: -0.130D-04 0.272D-04 0.441D-04 0.201D-04-0.211D-03-0.463D-03
 Coeff-Com:  0.508D-03 0.563D-02 0.249D-02-0.176D-01-0.446D-01 0.664D-02
 Coeff-Com:  0.356D+00 0.691D+00
 Coeff:     -0.130D-04 0.272D-04 0.441D-04 0.201D-04-0.211D-03-0.463D-03
 Coeff:      0.508D-03 0.563D-02 0.249D-02-0.176D-01-0.446D-01 0.664D-02
 Coeff:      0.356D+00 0.691D+00
 Gap=     0.255 Goal=   None    Shift=    0.000
 RMSDP=2.32D-08 MaxDP=6.37D-07 DE=-2.06D-10 OVMax= 2.02D-06

 Cycle  15  Pass 1  IDiag  1:
 RMSU=  1.37D-08    CP:  9.90D-01  1.36D+00  9.22D-01  8.42D-01  1.28D+00
                    CP:  1.55D+00  1.50D+00  1.59D+00  1.83D+00  1.59D+00
                    CP:  1.54D+00  1.30D+00  1.19D+00  9.58D-01
 E= -1028.79597727165     Delta-E=       -0.000000000021 Rises=F Damp=F
 DIIS: error= 8.34D-08 at cycle  15 NSaved=  15.
 NSaved=15 IEnMin=15 EnMin= -1028.79597727165     IErMin=15 ErrMin= 8.34D-08
 ErrMax= 8.34D-08  0.00D+00 EMaxC= 1.00D-01 BMatC= 1.07D-12 BMatP= 1.32D-11
 IDIUse=1 WtCom= 1.00D+00 WtEn= 0.00D+00
 Coeff-Com: -0.435D-05 0.822D-05 0.210D-04 0.371D-04-0.188D-04-0.306D-03
 Coeff-Com: -0.621D-03-0.223D-03 0.444D-02 0.861D-02-0.813D-02-0.439D-01
 Coeff-Com: -0.508D-01 0.164D+00 0.927D+00
 Coeff:     -0.435D-05 0.822D-05 0.210D-04 0.371D-04-0.188D-04-0.306D-03
 Coeff:     -0.621D-03-0.223D-03 0.444D-02 0.861D-02-0.813D-02-0.439D-01
 Coeff:     -0.508D-01 0.164D+00 0.927D+00
 Gap=     0.255 Goal=   None    Shift=    0.000
 RMSDP=9.95D-09 MaxDP=1.91D-07 DE=-2.09D-11 OVMax= 1.09D-06

 Error on total polarization charges =  0.00819
 SCF Done:  E(RwB97XD) =  -1028.79597727     A.U. after   15 cycles
            NFock= 15  Conv=0.99D-08     -V/T= 2.0053
 KE= 1.023382843745D+03 PE=-4.612578904581D+03 EE= 1.459998552915D+03
 Leave Link  502 at Tue Jul 14 16:57:25 2020, MaxMem=  7784628224 cpu:             818.5 elap:              82.5
 (Enter /gpfs/loomis/apps/avx/software/Gaussian/16-C.01_AVX/g16/l801.exe)
 DoSCS=F DFT=T ScalE2(SS,OS)=  1.000000  1.000000
 ExpMin= 1.22D-01 ExpMax= 1.11D+05 ExpMxC= 1.07D+03 IAcc=3 IRadAn=         5 AccDes= 0.00D+00
 HarFok:  IExCor=  205 AccDes= 0.00D+00 IRadAn=         5 IDoV=-2 UseB2=F ITyADJ=14
 ICtDFT= 12500011 ScaDFX=  1.000000  1.000000  1.000000  1.000000
 Largest valence mixing into a core orbital is  9.38D-05
 Largest core mixing into a valence orbital is  3.11D-05
 Range of M.O.s used for correlation:    21   273
 NBasis=   273 NAE=    59 NBE=    59 NFC=    20 NFV=     0
 NROrb=    253 NOA=    39 NOB=    39 NVA=   214 NVB=   214

 **** Warning!!: The largest alpha MO coefficient is  0.11827296D+02

 Leave Link  801 at Tue Jul 14 16:57:25 2020, MaxMem=  7784628224 cpu:               1.0 elap:               0.1
 (Enter /gpfs/loomis/apps/avx/software/Gaussian/16-C.01_AVX/g16/l914.exe)
 RHF ground state
 Keep R1, R2, and R3 ints in memory in canonical form, NReq=4262515490.
 FoFCou: FMM=F IPFlag=           0 FMFlag=           0 FMFlg1=           0
         NFxFlg=           0 DoJE=F BraDBF=F KetDBF=F FulRan=T
         wScrn=  0.000000 ICntrl=       600 IOpCl=  0 I1Cent=           0 NGrid=           0
         NMat0=    1 NMatS0=  37401 NMatT0=    0 NMatD0=    1 NMtDS0=    0 NMtDT0=    0
 Symmetry not used in FoFCou.
 Two-electron integral symmetry not used.
 MDV=  7784628224 DFT=T DoStab=F Mixed=T DoRPA=T DoScal=F NonHer=T
 NEqPCM:  Using equilibrium solvation (IEInf=0, Eps=   2.2280, EpsInf=   2.1319)
 Making orbital integer symmetry assigments:
    12 initial guesses have been made.
 Convergence on wavefunction:    0.000001000000000
 Davidson Disk Diagonalization:  ConvIn= 1.00D-06 SkipCon=T Conv= 1.00D-06.
 Max sub-space:  2000 roots to seek:    12 dimension of matrix:        16692
 Iteration     1 Dimension    12 NMult     0 NNew     12
 CISAX will form    12 AO SS matrices at one time.
 NMat=    12 NSing=    12 JSym2X= 0.
 New state      2 was old state      5
 New state      3 was old state      2
 Excitation Energies [eV] at current iteration:
 Root      1 :     3.728131925399420
 Root      2 :     4.791960077867425
 Root      3 :     4.840702351474491
 Root      4 :     5.206952446738920
 Root      5 :     5.894531106825321
 Root      6 :     5.993003308892432
 Root      7 :     6.176314194550154
 Root      8 :     6.316622777726274
 Root      9 :     6.843606406564262
 Root     10 :     6.998066788350012
 Root     11 :     7.085198533318938
 Root     12 :     7.794183843718278
 Iteration     2 Dimension    18 NMult    12 NNew      6
 CISAX will form     6 AO SS matrices at one time.
 NMat=     6 NSing=     6 JSym2X= 0.
 Root      1 not converged, maximum delta is    0.044393877322604
 New state      2 was old state      3
 Root      2 not converged, maximum delta is    0.079219807540466
 New state      3 was old state      2
 Root      3 not converged, maximum delta is    0.082991879927318
 Excitation Energies [eV] at current iteration:
 Root      1 :     3.233351335192221   Change is   -0.494780590207199
 Root      2 :     4.306566131493483   Change is   -0.534136219981008
 Root      3 :     4.587644861580948   Change is   -0.204315216286477
 Iteration     3 Dimension    24 NMult    18 NNew      6
 CISAX will form     6 AO SS matrices at one time.
 NMat=     6 NSing=     6 JSym2X= 0.
 Root      1 not converged, maximum delta is    0.020739846249346
 Root      2 not converged, maximum delta is    0.018266978489348
 Root      3 not converged, maximum delta is    0.028899841057918
 Excitation Energies [eV] at current iteration:
 Root      1 :     3.198636963236943   Change is   -0.034714371955278
 Root      2 :     4.279114148276623   Change is   -0.027451983216860
 Root      3 :     4.571033465928265   Change is   -0.016611395652683
 Iteration     4 Dimension    30 NMult    24 NNew      6
 CISAX will form     6 AO SS matrices at one time.
 NMat=     6 NSing=     6 JSym2X= 0.
 Root      1 not converged, maximum delta is    0.007837611206566
 Root      2 not converged, maximum delta is    0.008426221778624
 Root      3 not converged, maximum delta is    0.010232392521849
 Excitation Energies [eV] at current iteration:
 Root      1 :     3.193607960844830   Change is   -0.005029002392113
 Root      2 :     4.274204701088531   Change is   -0.004909447188091
 Root      3 :     4.569343343487180   Change is   -0.001690122441085
 Iteration     5 Dimension    36 NMult    30 NNew      6
 CISAX will form     6 AO SS matrices at one time.
 NMat=     6 NSing=     6 JSym2X= 0.
 Root      1 not converged, maximum delta is    0.003159233284616
 Root      2 not converged, maximum delta is    0.002545665662236
 Root      3 not converged, maximum delta is    0.002220142323312
 Excitation Energies [eV] at current iteration:
 Root      1 :     3.193072087484012   Change is   -0.000535873360818
 Root      2 :     4.273746050278571   Change is   -0.000458650809961
 Root      3 :     4.569182263875307   Change is   -0.000161079611872
 Iteration     6 Dimension    42 NMult    36 NNew      6
 CISAX will form     6 AO SS matrices at one time.
 NMat=     6 NSing=     6 JSym2X= 0.
 Root      1 not converged, maximum delta is    0.000608756015297
 Root      2 not converged, maximum delta is    0.000865213795310
 Root      3 not converged, maximum delta is    0.000315119498189
 Excitation Energies [eV] at current iteration:
 Root      1 :     3.193014681278566   Change is   -0.000057406205446
 Root      2 :     4.273691578883163   Change is   -0.000054471395407
 Root      3 :     4.569170134899913   Change is   -0.000012128975395
 Iteration     7 Dimension    48 NMult    42 NNew      6
 CISAX will form     6 AO SS matrices at one time.
 NMat=     6 NSing=     6 JSym2X= 0.
 Root      1 not converged, maximum delta is    0.000186748664920
 Root      2 not converged, maximum delta is    0.000346584347109
 Root      3 not converged, maximum delta is    0.000106697398109
 Excitation Energies [eV] at current iteration:
 Root      1 :     3.193010665015837   Change is   -0.000004016262729
 Root      2 :     4.273684653807877   Change is   -0.000006925075287
 Root      3 :     4.569169375095607   Change is   -0.000000759804306
 Iteration     8 Dimension    54 NMult    48 NNew      6
 CISAX will form     6 AO SS matrices at one time.
 NMat=     6 NSing=     6 JSym2X= 0.
 Root      1 not converged, maximum delta is    0.000030378936745
 Root      2 not converged, maximum delta is    0.000064937678065
 Root      3 not converged, maximum delta is    0.000054753091326
 Excitation Energies [eV] at current iteration:
 Root      1 :     3.193010339197808   Change is   -0.000000325818029
 Root      2 :     4.273684031844986   Change is   -0.000000621962891
 Root      3 :     4.569169302040860   Change is   -0.000000073054747
 Iteration     9 Dimension    60 NMult    54 NNew      6
 CISAX will form     6 AO SS matrices at one time.
 NMat=     6 NSing=     6 JSym2X= 0.
 Root      1 not converged, maximum delta is    0.000009247150767
 Root      2 not converged, maximum delta is    0.000024768308960
 Root      3 not converged, maximum delta is    0.000016016276246
 Excitation Energies [eV] at current iteration:
 Root      1 :     3.193010321425646   Change is   -0.000000017772162
 Root      2 :     4.273683981560254   Change is   -0.000000050284732
 Root      3 :     4.569169295757282   Change is   -0.000000006283578
 Iteration    10 Dimension    66 NMult    60 NNew      6
 CISAX will form     6 AO SS matrices at one time.
 NMat=     6 NSing=     6 JSym2X= 0.
 Root      1 not converged, maximum delta is    0.000001708044798
 Root      2 not converged, maximum delta is    0.000006713125146
 Root      3 not converged, maximum delta is    0.000003309225678
 Excitation Energies [eV] at current iteration:
 Root      1 :     3.193010320345701   Change is   -0.000000001079946
 Root      2 :     4.273683977329523   Change is   -0.000000004230730
 Root      3 :     4.569169295231815   Change is   -0.000000000525468
 Iteration    11 Dimension    72 NMult    66 NNew      6
 CISAX will form     6 AO SS matrices at one time.
 NMat=     6 NSing=     6 JSym2X= 0.
 Root      1 has converged.
 Root      2 not converged, maximum delta is    0.000002543039555
 Root      3 has converged.
 Excitation Energies [eV] at current iteration:
 Root      1 :     3.193010320286150   Change is   -0.000000000059551
 Root      2 :     4.273683976933267   Change is   -0.000000000396256
 Root      3 :     4.569169295194752   Change is   -0.000000000037063
 Iteration    12 Dimension    74 NMult    72 NNew      2
 CISAX will form     2 AO SS matrices at one time.
 NMat=     2 NSing=     2 JSym2X= 0.
 Root      1 has converged.
 Root      2 has converged.
 Root      3 has converged.
 Excitation Energies [eV] at current iteration:
 Root      1 :     3.193010320285944   Change is   -0.000000000000206
 Root      2 :     4.273683976896643   Change is   -0.000000000036624
 Root      3 :     4.569169295194662   Change is   -0.000000000000090
 Convergence achieved on expansion vectors.
 ***********************************************************************
 Excited states from <AA,BB:AA,BB> singles matrix:
 ***********************************************************************
 
 1PDM for each excited state written to RWF  633
 Ground to excited state transition densities written to RWF  633
 Ground to excited state transition electric dipole moments (Au):
       state          X           Y           Z        Dip. S.      Osc.
         1         1.3282     -2.0934     -0.0000      6.1463      0.4808
         2         1.3962     -0.7116     -0.0000      2.4558      0.2571
         3        -0.0000      0.0001      0.0123      0.0002      0.0000
 Ground to excited state transition velocity dipole moments (Au):
       state          X           Y           Z        Dip. S.      Osc.
         1        -0.1518      0.2484      0.0000      0.0848      0.4816
         2        -0.2153      0.1035      0.0000      0.0571      0.2422
         3         0.0000     -0.0000     -0.0014      0.0000      0.0000
 Ground to excited state transition magnetic dipole moments (Au):
       state          X           Y           Z
         1         0.0000      0.0000     -0.7854
         2         0.0000      0.0000      1.4073
         3         0.0365      0.0580     -0.0001
 Ground to excited state transition velocity quadrupole moments (Au):
       state          XX          YY          ZZ          XY          XZ          YZ
         1         0.0958      0.5456     -0.0149     -0.2878     -0.0000      0.0000
         2         0.4817     -0.7380     -0.0028      0.0314     -0.0000     -0.0000
         3        -0.0001      0.0000      0.0000      0.0000     -0.0223     -0.0128
 <0|del|b> * <b|rxdel|0> + <0|del|b> * <b|delr+rdel|0>
 Rotatory Strengths (R) in cgs (10**-40 erg-esu-cm/Gauss)
       state          XX          YY          ZZ    R(velocity)    E-M Angle
         1         0.0044     -0.0107      0.0153      0.0030       90.00
         2         0.0098      0.0026     -0.0106      0.0006       90.00
         3        -0.0022      0.0005     -0.0007     -0.0008       90.00
 1/2[<0|r|b>*<b|rxdel|0> + (<0|rxdel|b>*<b|r|0>)*]
 Rotatory Strengths (R) in cgs (10**-40 erg-esu-cm/Gauss)
       state          XX          YY          ZZ     R(length)
         1        -0.0021      0.0274     -0.0173      0.0027
         2        -0.0140      0.0021      0.0130      0.0003
         3         0.0006     -0.0034      0.0008     -0.0007
  1/2[<0|del|b>*<b|r|0> + (<0|r|b>*<b|del|0>)*] (Au)
       state          X           Y           Z        Dip. S.   Osc.(frdel)
         1        -0.2016     -0.5201     -0.0000      0.7217      0.4811
         2        -0.3005     -0.0737     -0.0000      0.3742      0.2495
         3        -0.0000     -0.0000     -0.0000      0.0000      0.0000

 Excitation energies and oscillator strengths:
 
 Excited state symmetry could not be determined.
 Excited State   1:      Singlet-?Sym    3.1930 eV  388.30 nm  f=0.4808  <S**2>=0.000
      59 -> 60         0.69343
 This state for optimization and/or second-order correction.
 Total Energy, E(TD-HF/TD-DFT) =  -1028.67863630    
 Copying the excited state density for this state as the 1-particle RhoCI density.
 
 Excited state symmetry could not be determined.
 Excited State   2:      Singlet-?Sym    4.2737 eV  290.11 nm  f=0.2571  <S**2>=0.000
      58 -> 60         0.67272
 
 Excited state symmetry could not be determined.
 Excited State   3:      Singlet-?Sym    4.5692 eV  271.35 nm  f=0.0000  <S**2>=0.000
      56 -> 60         0.68796
      56 -> 64        -0.10512
 SavETr:  write IOETrn=   770 NScale= 10 NData=  16 NLR=1 NState=    3 LETran=      64.
 The selected state is a singlet.
 CISGrd: IGrad=2 NXY=2 DFT=T
 CISAX will form     1 AO SS matrices at one time.
 NMat=     1 NSing=     1 JSym2X= 0.
 GePol: Maximum number of non-zero 1st derivatives   =     240
 Leave Link  914 at Tue Jul 14 17:00:12 2020, MaxMem=  7784628224 cpu:            1652.2 elap:             167.7
 (Enter /gpfs/loomis/apps/avx/software/Gaussian/16-C.01_AVX/g16/l1002.exe)
 Minotr:  Closed shell wavefunction.
          Computing CIS/TDA/TD derivatives.
          Using Z-Vector for PSCF gradient.
          Skipping F1 and S1 gradient terms here.
          IDoAtm=1111111111111111111111111
 NEqPCM:  Using equilibrium solvation (IEInf=0, Eps=   2.2280, EpsInf=   2.1319)
          Frozen-core window.
          Direct CPHF calculation.
          Differentiating once with respect to electric field.
                with respect to dipole field.
          Differentiating once with respect to nuclear coordinates.
          Requested convergence is 1.0D-10 RMS, and 1.0D-09 maximum.
          NewPWx=F KeepS1=T KeepF1=T KeepIn=T MapXYZ=F SortEE=F KeepMc=T.
 Keep R1 ints in memory in canonical form, NReq=1421359944.
 FoFCou: FMM=F IPFlag=           0 FMFlag=           0 FMFlg1=           0
         NFxFlg=           0 DoJE=F BraDBF=F KetDBF=F FulRan=T
         wScrn=  0.000000 ICntrl=       600 IOpCl=  0 I1Cent=           0 NGrid=           0
         NMat0=    1 NMatS0=  37401 NMatT0=    0 NMatD0=    1 NMtDS0=    0 NMtDT0=    0
 Symmetry not used in FoFCou.
 Two-electron integral symmetry not used.
          MDV=    7784628224 using IRadAn=       5.
          Solving linear equations separately, MaxMat=       0.
          There are     1 degrees of freedom in the 1st order CPHF.  IDoFFX=0 NUNeed=     1.
 LinEq1:  Iter=  0 NonCon=     1 RMS=5.62D-03 Max=2.99D-01 NDo=     1
 AX will form     1 AO Fock derivatives at one time.
 LinEq1:  Iter=  1 NonCon=     1 RMS=2.36D-03 Max=1.15D-01 NDo=     1
 LinEq1:  Iter=  2 NonCon=     1 RMS=1.50D-03 Max=5.30D-02 NDo=     1
 LinEq1:  Iter=  3 NonCon=     1 RMS=5.65D-04 Max=1.43D-02 NDo=     1
 LinEq1:  Iter=  4 NonCon=     1 RMS=3.13D-04 Max=1.02D-02 NDo=     1
 LinEq1:  Iter=  5 NonCon=     1 RMS=1.67D-04 Max=8.09D-03 NDo=     1
 LinEq1:  Iter=  6 NonCon=     1 RMS=7.40D-05 Max=3.03D-03 NDo=     1
 LinEq1:  Iter=  7 NonCon=     1 RMS=3.97D-05 Max=9.44D-04 NDo=     1
 LinEq1:  Iter=  8 NonCon=     1 RMS=1.70D-05 Max=4.96D-04 NDo=     1
 LinEq1:  Iter=  9 NonCon=     1 RMS=9.84D-06 Max=2.97D-04 NDo=     1
 LinEq1:  Iter= 10 NonCon=     1 RMS=3.75D-06 Max=1.12D-04 NDo=     1
 LinEq1:  Iter= 11 NonCon=     1 RMS=2.19D-06 Max=1.04D-04 NDo=     1
 LinEq1:  Iter= 12 NonCon=     1 RMS=1.03D-06 Max=3.01D-05 NDo=     1
 LinEq1:  Iter= 13 NonCon=     1 RMS=4.08D-07 Max=1.13D-05 NDo=     1
 LinEq1:  Iter= 14 NonCon=     1 RMS=1.71D-07 Max=4.84D-06 NDo=     1
 LinEq1:  Iter= 15 NonCon=     1 RMS=8.62D-08 Max=2.74D-06 NDo=     1
 LinEq1:  Iter= 16 NonCon=     1 RMS=3.66D-08 Max=1.23D-06 NDo=     1
 LinEq1:  Iter= 17 NonCon=     1 RMS=1.73D-08 Max=6.18D-07 NDo=     1
 LinEq1:  Iter= 18 NonCon=     1 RMS=6.64D-09 Max=1.72D-07 NDo=     1
 LinEq1:  Iter= 19 NonCon=     1 RMS=3.44D-09 Max=1.09D-07 NDo=     1
 LinEq1:  Iter= 20 NonCon=     1 RMS=1.54D-09 Max=5.17D-08 NDo=     1
 LinEq1:  Iter= 21 NonCon=     1 RMS=3.94D-10 Max=9.36D-09 NDo=     1
 LinEq1:  Iter= 22 NonCon=     1 RMS=1.49D-10 Max=3.10D-09 NDo=     1
 LinEq1:  Iter= 23 NonCon=     1 RMS=6.81D-11 Max=1.35D-09 NDo=     1
 LinEq1:  Iter= 24 NonCon=     0 RMS=2.32D-11 Max=9.53D-10 NDo=     1
 Linear equations converged to 1.000D-10 1.000D-09 after    24 iterations.
 End of Minotr F.D. properties file   721 does not exist.
 End of Minotr F.D. properties file   722 does not exist.
 End of Minotr F.D. properties file   788 does not exist.
 Leave Link 1002 at Tue Jul 14 17:01:55 2020, MaxMem=  7784628224 cpu:             758.5 elap:             102.7
 (Enter /gpfs/loomis/apps/avx/software/Gaussian/16-C.01_AVX/g16/l601.exe)
 Copying SCF densities to generalized density rwf, IOpCl= 0 IROHF=0.

 **********************************************************************

            Population analysis using the SCF Density.

 **********************************************************************

 Alpha  occ. eigenvalues --  -89.09360 -19.24468 -14.50201 -10.40483 -10.37188
 Alpha  occ. eigenvalues --  -10.37179 -10.35480 -10.32966 -10.32892 -10.32329
 Alpha  occ. eigenvalues --  -10.32297 -10.32202 -10.31992 -10.31237 -10.30272
 Alpha  occ. eigenvalues --  -10.30076  -8.11526  -6.06361  -6.06014  -6.05572
 Alpha  occ. eigenvalues --   -1.13307  -1.09459  -0.97041  -0.95768  -0.92816
 Alpha  occ. eigenvalues --   -0.88752  -0.85772  -0.83423  -0.82096  -0.75703
 Alpha  occ. eigenvalues --   -0.71698  -0.71085  -0.68453  -0.67327  -0.63696
 Alpha  occ. eigenvalues --   -0.60789  -0.59155  -0.57768  -0.55282  -0.54770
 Alpha  occ. eigenvalues --   -0.54192  -0.53629  -0.52775  -0.50540  -0.49551
 Alpha  occ. eigenvalues --   -0.49354  -0.47086  -0.46402  -0.45550  -0.44894
 Alpha  occ. eigenvalues --   -0.44344  -0.43004  -0.42132  -0.40626  -0.36486
 Alpha  occ. eigenvalues --   -0.35011  -0.32626  -0.31190  -0.27460
 Alpha virt. eigenvalues --   -0.01929   0.04204   0.05955   0.07400   0.07945
 Alpha virt. eigenvalues --    0.10526   0.14611   0.14817   0.17082   0.17597
 Alpha virt. eigenvalues --    0.18593   0.20534   0.21068   0.21407   0.22340
 Alpha virt. eigenvalues --    0.22983   0.23751   0.24599   0.27458   0.28506
 Alpha virt. eigenvalues --    0.32198   0.33123   0.34775   0.35028   0.36505
 Alpha virt. eigenvalues --    0.37919   0.38977   0.40415   0.41429   0.42797
 Alpha virt. eigenvalues --    0.46839   0.47453   0.50808   0.51016   0.51186
 Alpha virt. eigenvalues --    0.51820   0.53132   0.53264   0.53607   0.54871
 Alpha virt. eigenvalues --    0.56041   0.56244   0.56664   0.57086   0.57904
 Alpha virt. eigenvalues --    0.58103   0.58268   0.58561   0.59077   0.60283
 Alpha virt. eigenvalues --    0.60796   0.61211   0.61800   0.62704   0.63126
 Alpha virt. eigenvalues --    0.65430   0.65607   0.66715   0.66744   0.68854
 Alpha virt. eigenvalues --    0.70320   0.71076   0.71701   0.72082   0.72701
 Alpha virt. eigenvalues --    0.73031   0.74609   0.74893   0.75693   0.78027
 Alpha virt. eigenvalues --    0.78448   0.78959   0.79802   0.80592   0.82343
 Alpha virt. eigenvalues --    0.85331   0.87385   0.90739   0.91078   0.93420
 Alpha virt. eigenvalues --    0.94536   0.94538   0.95806   0.96513   0.96815
 Alpha virt. eigenvalues --    0.98170   0.98181   1.00362   1.00660   1.01444
 Alpha virt. eigenvalues --    1.02375   1.05535   1.05923   1.06366   1.07211
 Alpha virt. eigenvalues --    1.07571   1.09580   1.09897   1.10083   1.10753
 Alpha virt. eigenvalues --    1.11810   1.12582   1.14129   1.14784   1.15298
 Alpha virt. eigenvalues --    1.15627   1.19673   1.20304   1.21965   1.22596
 Alpha virt. eigenvalues --    1.25191   1.29203   1.31940   1.33189   1.34147
 Alpha virt. eigenvalues --    1.36463   1.37153   1.38989   1.40641   1.47457
 Alpha virt. eigenvalues --    1.48644   1.49994   1.52493   1.53193   1.54264
 Alpha virt. eigenvalues --    1.56154   1.56452   1.56490   1.57789   1.58116
 Alpha virt. eigenvalues --    1.59177   1.60684   1.63450   1.65552   1.66044
 Alpha virt. eigenvalues --    1.67440   1.68281   1.69467   1.69740   1.70052
 Alpha virt. eigenvalues --    1.71199   1.72148   1.73197   1.73429   1.75847
 Alpha virt. eigenvalues --    1.76331   1.79027   1.79616   1.80831   1.81326
 Alpha virt. eigenvalues --    1.82178   1.83742   1.83794   1.83830   1.84717
 Alpha virt. eigenvalues --    1.86171   1.86594   1.87683   1.89332   1.91477
 Alpha virt. eigenvalues --    1.91590   1.92150   1.93109   1.94418   1.95941
 Alpha virt. eigenvalues --    1.97566   1.98733   1.99097   2.02692   2.02707
 Alpha virt. eigenvalues --    2.04374   2.06890   2.08597   2.10167   2.12735
 Alpha virt. eigenvalues --    2.15379   2.16405   2.19084   2.19573   2.22750
 Alpha virt. eigenvalues --    2.23151   2.25195   2.30459   2.35916   2.40150
 Alpha virt. eigenvalues --    2.40583   2.41352   2.42796   2.44711   2.45325
 Alpha virt. eigenvalues --    2.46595   2.47997   2.49623   2.52387   2.60082
 Alpha virt. eigenvalues --    2.61317   2.70795   2.72469   2.74186   2.76815
 Alpha virt. eigenvalues --    2.79196   2.82391   2.83537   2.87578   2.88270
 Alpha virt. eigenvalues --    2.89834   3.00061   3.11246   3.14881   3.36713
 Alpha virt. eigenvalues --    3.43536   3.52120   3.63987   3.80347
          Condensed to atoms (all electrons):
               1          2          3          4          5          6
     1  C    4.749327   0.484754   0.005153  -0.051110  -0.017688   0.514988
     2  C    0.484754   5.277694   0.348390  -0.036693  -0.065535  -0.010232
     3  C    0.005153   0.348390   4.833718   0.486499  -0.005971  -0.059288
     4  C   -0.051110  -0.036693   0.486499   4.797294   0.518724  -0.012006
     5  C   -0.017688  -0.065535  -0.005971   0.518724   4.742797   0.493796
     6  C    0.514988  -0.010232  -0.059288  -0.012006   0.493796   4.741424
     7  H    0.401497  -0.036592   0.008139  -0.000618   0.007639  -0.038895
     8  H   -0.000607   0.010311  -0.035392   0.396581  -0.039788   0.007305
     9  H    0.008846  -0.000768   0.008289  -0.037953   0.404315  -0.044555
    10  H   -0.042217   0.008977  -0.000439   0.007865  -0.041271   0.406339
    11  N    0.005296  -0.050095   0.393462  -0.039129   0.002862  -0.000028
    12  S   -0.073312   0.326037  -0.106431   0.006303   0.000327   0.004175
    13  C   -0.000211   0.002155   0.007214  -0.000419   0.000006   0.000005
    14  C   -0.000014   0.000240   0.000348   0.000007  -0.000000   0.000000
    15  C    0.000005  -0.000338   0.000424   0.000024  -0.000000  -0.000000
    16  C    0.000000  -0.000012   0.000005  -0.000000   0.000000  -0.000000
    17  H   -0.000019   0.000325  -0.000014   0.000001  -0.000000   0.000000
    18  C    0.000000   0.000007  -0.000007  -0.000000   0.000000  -0.000000
    19  C   -0.000000   0.000001   0.000001   0.000000  -0.000000   0.000000
    20  H   -0.000000  -0.000000  -0.000000  -0.000000  -0.000000  -0.000000
    21  H   -0.000000  -0.000000  -0.000000  -0.000000  -0.000000   0.000000
    22  H    0.000000  -0.000000  -0.000000  -0.000000   0.000000  -0.000000
    23  C    0.003941  -0.046864  -0.120518  -0.000132   0.000233  -0.000191
    24  O    0.000001  -0.000087  -0.001165  -0.000025   0.000000  -0.000000
    25  H    0.000007   0.004510  -0.017118  -0.000828  -0.000028   0.000005
               7          8          9         10         11         12
     1  C    0.401497  -0.000607   0.008846  -0.042217   0.005296  -0.073312
     2  C   -0.036592   0.010311  -0.000768   0.008977  -0.050095   0.326037
     3  C    0.008139  -0.035392   0.008289  -0.000439   0.393462  -0.106431
     4  C   -0.000618   0.396581  -0.037953   0.007865  -0.039129   0.006303
     5  C    0.007639  -0.039788   0.404315  -0.041271   0.002862   0.000327
     6  C   -0.038895   0.007305  -0.044555   0.406339  -0.000028   0.004175
     7  H    0.648268   0.000028  -0.000154  -0.010229  -0.000080  -0.007897
     8  H    0.000028   0.642387  -0.012098  -0.000097  -0.002210  -0.000207
     9  H   -0.000154  -0.012098   0.656877  -0.011555  -0.000079   0.000017
    10  H   -0.010229  -0.000097  -0.011555   0.654057   0.000002  -0.000172
    11  N   -0.000080  -0.002210  -0.000079   0.000002   6.419757  -0.060667
    12  S   -0.007897  -0.000207   0.000017  -0.000172  -0.060667  15.471373
    13  C   -0.000005   0.000024  -0.000000  -0.000000  -0.023684  -0.064056
    14  C    0.000002   0.000000   0.000000  -0.000000   0.003446  -0.017106
    15  C   -0.000000  -0.000007   0.000000   0.000000  -0.012269   0.005568
    16  C    0.000000   0.000000  -0.000000  -0.000000  -0.000059   0.000695
    17  H    0.000000   0.000000   0.000000  -0.000000   0.000212   0.009036
    18  C    0.000000  -0.000000   0.000000  -0.000000  -0.000529  -0.000266
    19  C   -0.000000   0.000000  -0.000000  -0.000000   0.000030   0.000030
    20  H    0.000000   0.000000   0.000000   0.000000   0.000001   0.000025
    21  H   -0.000000   0.000000  -0.000000   0.000000   0.000012   0.000005
    22  H    0.000000  -0.000000   0.000000  -0.000000  -0.000000  -0.000001
    23  C    0.000214  -0.000677   0.000006   0.000006   0.524910   0.316814
    24  O    0.000000  -0.000088   0.000000  -0.000000  -0.069391  -0.000165
    25  H    0.000002   0.000667  -0.000003  -0.000000   0.217159   0.003618
              13         14         15         16         17         18
     1  C   -0.000211  -0.000014   0.000005   0.000000  -0.000019   0.000000
     2  C    0.002155   0.000240  -0.000338  -0.000012   0.000325   0.000007
     3  C    0.007214   0.000348   0.000424   0.000005  -0.000014  -0.000007
     4  C   -0.000419   0.000007   0.000024  -0.000000   0.000001  -0.000000
     5  C    0.000006  -0.000000  -0.000000   0.000000  -0.000000   0.000000
     6  C    0.000005   0.000000  -0.000000  -0.000000   0.000000  -0.000000
     7  H   -0.000005   0.000002  -0.000000   0.000000   0.000000   0.000000
     8  H    0.000024   0.000000  -0.000007   0.000000   0.000000  -0.000000
     9  H   -0.000000   0.000000   0.000000  -0.000000   0.000000   0.000000
    10  H   -0.000000  -0.000000   0.000000  -0.000000  -0.000000  -0.000000
    11  N   -0.023684   0.003446  -0.012269  -0.000059   0.000212  -0.000529
    12  S   -0.064056  -0.017106   0.005568   0.000695   0.009036  -0.000266
    13  C    5.344909   0.447024   0.249824  -0.010628  -0.034133  -0.040430
    14  C    0.447024   4.864503   0.000074   0.533642   0.396481  -0.055432
    15  C    0.249824   0.000074   4.737025  -0.052512   0.005602   0.473685
    16  C   -0.010628   0.533642  -0.052512   4.748648  -0.030681  -0.020572
    17  H   -0.034133   0.396481   0.005602  -0.030681   0.650034  -0.000622
    18  C   -0.040430  -0.055432   0.473685  -0.020572  -0.000622   4.869333
    19  C   -0.053488  -0.021390  -0.007102   0.488318   0.007405   0.510602
    20  H    0.008639  -0.035483  -0.000174   0.400526  -0.011144   0.007766
    21  H    0.013650  -0.000626  -0.025922   0.007117   0.000042   0.377190
    22  H   -0.001550   0.009670   0.008451  -0.043868  -0.000173  -0.040876
    23  C    0.365893  -0.085568  -0.078940   0.006015  -0.023419   0.008890
    24  O   -0.093583   0.005767   0.575503  -0.000119  -0.000061  -0.057205
    25  H   -0.021678  -0.000774  -0.022278   0.000028  -0.000057   0.003015
              19         20         21         22         23         24
     1  C   -0.000000  -0.000000  -0.000000   0.000000   0.003941   0.000001
     2  C    0.000001  -0.000000  -0.000000  -0.000000  -0.046864  -0.000087
     3  C    0.000001  -0.000000  -0.000000  -0.000000  -0.120518  -0.001165
     4  C    0.000000  -0.000000  -0.000000  -0.000000  -0.000132  -0.000025
     5  C   -0.000000  -0.000000  -0.000000   0.000000   0.000233   0.000000
     6  C    0.000000  -0.000000   0.000000  -0.000000  -0.000191  -0.000000
     7  H   -0.000000   0.000000  -0.000000   0.000000   0.000214   0.000000
     8  H    0.000000   0.000000   0.000000  -0.000000  -0.000677  -0.000088
     9  H   -0.000000   0.000000  -0.000000   0.000000   0.000006   0.000000
    10  H   -0.000000   0.000000   0.000000  -0.000000   0.000006  -0.000000
    11  N    0.000030   0.000001   0.000012  -0.000000   0.524910  -0.069391
    12  S    0.000030   0.000025   0.000005  -0.000001   0.316814  -0.000165
    13  C   -0.053488   0.008639   0.013650  -0.001550   0.365893  -0.093583
    14  C   -0.021390  -0.035483  -0.000626   0.009670  -0.085568   0.005767
    15  C   -0.007102  -0.000174  -0.025922   0.008451  -0.078940   0.575503
    16  C    0.488318   0.400526   0.007117  -0.043868   0.006015  -0.000119
    17  H    0.007405  -0.011144   0.000042  -0.000173  -0.023419  -0.000061
    18  C    0.510602   0.007766   0.377190  -0.040876   0.008890  -0.057205
    19  C    4.734108  -0.045061  -0.044119   0.404113   0.000746   0.003077
    20  H   -0.045061   0.675923  -0.000126  -0.011681  -0.000384   0.000002
    21  H   -0.044119  -0.000126   0.663930  -0.011832  -0.000439   0.003231
    22  H    0.404113  -0.011681  -0.011832   0.662762  -0.000007  -0.000053
    23  C    0.000746  -0.000384  -0.000439  -0.000007   5.059372  -0.005690
    24  O    0.003077   0.000002   0.003231  -0.000053  -0.005690   7.810638
    25  H   -0.000251  -0.000001  -0.000007   0.000007  -0.004025   0.205153
              25
     1  C    0.000007
     2  C    0.004510
     3  C   -0.017118
     4  C   -0.000828
     5  C   -0.000028
     6  C    0.000005
     7  H    0.000002
     8  H    0.000667
     9  H   -0.000003
    10  H   -0.000000
    11  N    0.217159
    12  S    0.003618
    13  C   -0.021678
    14  C   -0.000774
    15  C   -0.022278
    16  C    0.000028
    17  H   -0.000057
    18  C    0.003015
    19  C   -0.000251
    20  H   -0.000001
    21  H   -0.000007
    22  H    0.000007
    23  C   -0.004025
    24  O    0.205153
    25  H    0.396864
 Mulliken charges:
               1
     1  C    0.011362
     2  C   -0.216186
     3  C    0.254703
     4  C   -0.034384
     5  C   -0.000419
     6  C   -0.002841
     7  H    0.028680
     8  H    0.033867
     9  H    0.028816
    10  H    0.028735
    11  N   -0.308929
    12  S    0.186255
    13  C   -0.095476
    14  C   -0.044809
    15  C    0.143357
    16  C   -0.026542
    17  H    0.031186
[...]
 000015,-0.00028435,0.,-0.00000029,-0.00000728,0.00000010,0.00000014,-0
 .00000817,0.,0.,-0.00001748,0.,0.,-0.00003040,0.,0.,0.00002184,0.,0.,0
 .00004138,-0.00000037,0.00000039,0.00247876,-0.00000023,0.00000024,-0.
 00037488,0.00000146,-0.00000208,0.00303229,-0.00000064,0.00000478,-0.0
 5087049,-0.00000072,0.00000024,-0.00464327,-0.00001320,-0.00002243,0.1
 2836834,0.00034210,-0.00006647,0.00000001,-0.00095271,0.00041065,-0.00
 000069,0.00042139,-0.00025252,0.00000001,-0.00001205,0.00016416,0.0000
 0005,0.00008403,-0.00002003,0.,-0.00006197,-0.00007740,0.00000004,-0.0
 0002422,-0.00001082,-0.00000002,0.00004198,-0.00000123,0.,0.00001174,-
 0.00000353,0.,0.00004064,-0.00001469,0.,0.00037611,0.00089155,-0.00000
 017,-0.00088195,0.00168454,0.00000048,-0.00191666,-0.02838348,0.000001
 67,-0.07527557,-0.07159881,0.00000579,-0.00475521,0.00264402,0.0000007
 9,0.00955744,0.02317601,-0.00000125,0.07637901,0.00013954,-0.00002090,
 0.00000003,-0.00010982,0.00085877,0.00000012,0.00042017,0.00009669,0.0
 0000014,0.00011434,0.00010420,0.00000003,0.00003585,0.00016807,0.,-0.0
 0018440,-0.00011863,-0.00000002,-0.00003155,0.00001395,0.,0.00003950,-
 0.00001216,0.00000002,0.00000117,0.00000288,0.,0.00001439,-0.00000074,
 -0.00000002,0.00018205,0.00062114,-0.00000014,0.00154724,-0.00136534,-
 0.00000006,0.00137092,-0.00534066,0.00000027,-0.07121700,-0.32612397,0
 .00001970,0.00009485,0.00234032,0.00000054,-0.00840682,-0.01677980,0.0
 0000135,0.07271480,0.34657850,-0.00000019,0.00000008,-0.00005043,0.000
 00007,-0.00000043,-0.00066977,-0.00000024,0.00000046,0.00034145,0.0000
 0011,-0.00000008,0.00015318,0.00000001,0.00000003,-0.00001518,0.000000
 09,0.00000002,0.00003082,0.00000001,0.,0.00000809,-0.00000002,0.,0.000
 00711,0.,0.,-0.00000267,0.,0.,0.00000127,0.00000022,-0.00000042,-0.002
 15630,0.00000049,-0.00000013,0.00207141,-0.00000143,0.00000178,0.00401
 320,0.00000639,0.00002113,-0.03143650,0.00000031,-0.00000059,0.0078073
 1,0.00000016,0.00000002,0.00307682,-0.00000633,-0.00002177,0.01883938,
 -0.00054105,-0.00015149,-0.00000003,-0.00551431,-0.00268086,-0.0000003
 1,-0.00504233,0.01409509,0.00000061,0.00611475,-0.00209716,0.00000017,
 0.00004225,0.00346478,-0.00000003,-0.00033603,-0.00195069,-0.00000001,
 -0.00005844,0.00012039,0.,0.00001040,-0.00006430,0.,0.00006576,0.00002
 210,0.,0.00003264,-0.00004087,0.00000001,0.01261241,-0.00196048,0.0000
 0123,-0.00032927,-0.00323296,0.00000014,0.01542640,0.02440902,-0.00000
 120,-0.03198938,0.01971861,0.00000070,-0.17624972,0.08802899,0.0000003
 4,-0.00132249,-0.06920782,0.00000226,-0.00052901,-0.00032348,0.0000000
 4,0.67778462,0.00045281,-0.00015650,0.00000002,-0.00115926,-0.00072775
 ,0.00000001,0.00026082,0.00110951,0.00000009,-0.00014441,0.00011241,0.
 00000005,0.00015572,0.00000404,0.,-0.00020896,-0.00016247,0.,-0.000016
 72,0.00004222,0.,-0.00001980,-0.00000384,0.,0.00000531,-0.00000913,0.,
 0.00003076,-0.00000696,0.,0.00320013,0.00099868,-0.00000015,0.00132271
 ,-0.00279977,-0.00000030,0.02433853,-0.03203198,0.00000039,-0.00178104
 ,0.00208180,-0.00000038,0.10224558,-0.23289846,0.00000228,-0.03198346,
 -0.01872100,0.00000153,-0.00029825,0.00053385,-0.00000026,0.03702711,0
 .72606094,0.00000008,-0.00000014,0.00006598,-0.00000050,-0.00000004,0.
 00057727,-0.00000021,0.00000042,0.00190493,0.00000025,-0.00000009,-0.0
 0016416,0.00000003,0.00000026,-0.00010691,-0.00000018,-0.00000010,-0.0
 0010594,0.,0.,0.00013596,0.,0.,0.00008913,0.,0.,0.00000043,0.,0.,-0.00
 003990,0.00000041,-0.00000045,-0.00550977,0.00000008,-0.00000024,0.000
 97433,-0.00000039,0.00000047,0.01267843,-0.00000044,-0.00000082,-0.003
 49499,-0.00000082,0.00000274,-0.06480627,0.00000138,0.00000145,0.00533
 748,-0.00000009,-0.00000006,-0.00114035,-0.00000501,-0.00001469,0.1098
 7807,0.00007047,0.00141781,0.00000009,0.00854450,0.00343520,0.00000077
 ,0.00854274,-0.01882397,-0.00000058,-0.00839843,0.00297296,-0.00000032
 ,-0.00023111,-0.00581300,0.00000002,0.00202276,0.00299823,0.00000006,0
 .00000443,-0.00010089,0.,0.00007697,0.00009481,0.00000004,-0.00004411,
 -0.00004284,0.00000002,0.00001735,0.00003346,-0.00000004,-0.01794826,0
 .01377932,-0.00000109,0.00066795,0.00335593,-0.00000100,-0.01344545,-0
 .01821690,0.00000036,0.05603728,0.00902498,-0.00000198,-0.05531933,0.0
 1393883,-0.00000073,-0.13636974,0.00288341,0.00000207,-0.00338775,0.00
 452947,0.00000003,-0.32863126,-0.08681147,0.00000477,0.69473828,0.0000
 9827,0.00106167,0.00000005,0.00329757,0.00126336,0.00000009,0.00428296
 ,-0.00612458,-0.00000006,-0.00387000,0.00139680,-0.00000015,-0.0001515
 5,-0.00289324,0.,0.00130334,0.00089906,0.00000005,-0.00005093,-0.00003
 167,0.,0.00006137,0.00002456,0.,0.00003151,-0.00005336,0.,0.00004843,0
 .00000973,0.,-0.00227446,0.01047567,0.00000011,-0.00188038,0.00095578,
 0.,-0.02136910,-0.01770217,0.00000196,0.05412327,-0.05595683,0.0000015
 0,0.00134817,0.02801895,-0.00000143,-0.08027191,-0.29946330,0.00001149
 ,0.00321596,-0.00012166,0.00000004,-0.03834647,-0.13553376,0.00000220,
 -0.04864698,0.67817843,-0.00000005,-0.00000005,0.00016677,-0.00000022,
 -0.00000016,-0.00056452,-0.00000027,0.00000053,-0.00109660,0.00000031,
 -0.00000009,0.00007954,0.00000002,0.00000021,0.00009068,-0.00000007,-0
 .00000005,0.00001026,0.,0.,-0.00004879,0.,0.,-0.00011675,0.,0.,0.00000
 622,0.,0.,0.00001012,-0.00000004,-0.00000092,0.00148079,0.00000036,-0.
 00000014,0.00085244,0.00000102,0.00000083,-0.00216205,-0.00000289,0.00
 000239,0.00936928,0.00000038,-0.00000073,0.00244719,0.00000446,0.00000
 952,-0.05990812,-0.00000011,0.00000061,0.00426547,0.00000369,0.0000029
 9,-0.04955839,-0.00000355,-0.00002134,0.11328617,0.00004491,-0.0001041
 6,0.,-0.00008367,0.00013542,0.00000001,-0.00001021,-0.00012357,0.00000
 003,0.00000756,0.00003426,0.,0.00001039,0.00008211,0.,-0.00013500,0.00
 001174,0.,0.00000688,0.00000569,0.,-0.00000446,-0.00000483,0.,-0.00001
 091,0.00000822,0.,-0.00000944,0.00000612,0.,-0.00022374,0.00047587,0.0
 0000008,0.00007965,-0.00005499,-0.00000004,-0.00066368,0.00378508,-0.0
 0000014,-0.01569011,-0.01008057,0.00000108,0.00046260,0.00038834,-0.00
 000007,-0.32400342,-0.07983084,0.00000930,0.00070632,0.00006259,0.,0.0
 0166421,-0.00084566,0.00000021,-0.00230232,0.00184781,0.00000007,0.340
 49080,0.00002369,-0.00002447,0.,-0.00011537,-0.00008764,0.,0.00001188,
 0.00026167,0.00000003,0.00007492,-0.00006995,0.00000002,0.00001802,0.0
 0007143,0.,-0.00004029,-0.00003652,0.,0.00000151,0.00000005,0.,-0.0000
 0242,-0.00000073,0.,0.00000069,-0.00000258,0.,0.00000035,-0.00000059,0
 .,0.00036633,-0.00036353,-0.00000009,0.00003752,0.00001987,0.00000002,
 0.00377022,-0.00311526,0.00000022,0.02069768,0.00972530,-0.00000061,0.
 00075106,-0.00091170,-0.00000002,-0.08049377,-0.08369354,0.00000400,-0
 .00014865,0.00090667,-0.00000015,-0.00009940,-0.00540894,0.00000048,-0
 .02920967,-0.00220776,0.00000083,0.08528163,0.08289704,0.,0.00000005,-
 0.00003762,0.00000023,0.00000010,0.00007528,0.00000011,-0.00000040,0.0
 0042557,-0.00000018,0.00000006,0.00011720,-0.00000002,-0.00000014,-0.0
 0005970,0.00000007,0.00000006,0.00001539,0.,0.,0.00000743,0.,0.,0.0000
 3422,0.,0.,-0.00002690,0.,0.,-0.00000029,-0.00000025,0.00000043,-0.000
 27354,-0.00000013,0.00000010,-0.00024587,-0.00000028,0.00000048,0.0054
 9084,0.00000034,-0.00000049,0.00658720,0.00000004,0.00000003,-0.001338
 82,0.00000929,0.00000503,-0.03740134,-0.00000008,-0.00000041,-0.003022
 07,0.,0.00000059,0.00563237,0.00000121,-0.00000033,0.00612187,-0.00001
 027,-0.00000445,0.02269001,-0.00010989,0.00003645,0.,0.00011942,0.0000
 4705,0.,-0.00016546,0.00006998,-0.00000001,0.00004599,-0.00001476,0.,-
 0.00001724,-0.00000939,0.,0.00006140,0.00000572,0.,0.00000097,-0.00000
 695,0.,-0.00000366,0.00000155,0.,0.00000204,-0.00000097,0.,-0.00000361
 ,-0.00000082,0.,0.00036375,-0.00053503,0.00000007,-0.00030274,0.000214
 30,0.,-0.00450329,0.00300938,0.00000005,0.00013098,0.00017322,0.000000
 01,0.00862389,0.02333826,-0.00000066,-0.00561712,-0.00009624,0.0000000
 5,0.00012630,-0.00006050,0.00000002,-0.07230093,-0.06653676,0.00000166
 ,-0.00049816,-0.02869631,0.00000079,-0.00022668,-0.00141046,0.00000009
 ,0.07013833,0.00005841,0.00003451,-0.00000001,-0.00012402,-0.00007004,
 -0.00000003,0.00007224,0.00006982,0.,0.00000725,-0.00001051,0.,-0.0000
 0212,-0.00002329,0.,0.00003442,-0.00002810,0.,-0.00000486,0.00000276,0
 .,0.00000787,0.00000163,0.,0.00000727,-0.00000285,0.,0.00000904,-0.000
 00384,0.,-0.00016276,0.00021338,0.00000001,0.00018757,-0.00017735,0.,0
 .00387170,-0.00107931,-0.00000004,0.00002493,0.00032754,-0.00000004,-0
 .00999258,-0.01608393,0.00000052,-0.00106398,0.00115105,0.00000011,-0.
 00005032,-0.00010353,0.,-0.06489209,-0.33324554,0.00000775,0.00227213,
 -0.00285905,0.00000016,0.00005498,-0.00025908,0.,0.07109005,0.34975987
 ,-0.00000005,0.00000006,-0.00030096,0.00000016,0.00000006,-0.00017373,
 0.00000006,-0.00000007,0.00010948,-0.00000008,0.00000003,-0.00000472,0
 .,-0.00000009,-0.00003706,0.00000008,0.00000003,0.00006280,0.,0.,-0.00
 002459,0.,0.,0.00003673,0.,0.,-0.00000271,0.,0.,0.00005341,0.00000021,
 0.00000027,0.00039916,-0.00000026,-0.00000004,-0.00052311,0.00000020,-
 0.00000048,0.00381286,-0.00000008,0.00000020,-0.00037195,0.00000078,0.
 00000029,0.00312197,0.00000017,-0.00000007,0.00636840,0.00000004,-0.00
 000009,-0.00027955,0.00000090,0.00000785,-0.03188554,0.00000044,0.0000
 0083,0.00395441,0.00000002,0.,-0.00042652,-0.00000209,-0.00000832,0.02
 187623,0.00005883,-0.00006953,0.,-0.00014080,0.00009580,-0.00000001,0.
 00013197,0.00010420,0.00000001,0.00004070,-0.00000476,0.,0.00001676,0.
 00009268,0.,-0.00010965,-0.00002717,0.,0.00000097,0.00000693,0.,-0.000
 00099,-0.00000611,0.,-0.00000732,0.00000427,0.,-0.00000488,0.00000434,
 0.,0.00016022,0.00065368,0.,-0.00002936,0.00004385,0.00000004,0.000222
 08,-0.00075204,0.00000002,0.00018941,-0.00198469,0.00000014,-0.0026542
 1,-0.00372452,0.00000005,0.00838314,-0.00818102,0.00000024,0.00027935,
 -0.00031632,0.00000002,-0.01584182,0.02230379,-0.00000057,-0.21451187,
 0.14520037,-0.00000386,0.00066809,0.00033991,-0.00000007,0.00105523,-0
 .00021500,0.00000002,0.22427520,-0.00002107,0.00012850,0.,0.00032063,0
 .00016104,0.,0.00034541,-0.00064701,-0.00000002,-0.00030597,0.00012111
 ,-0.00000001,-0.00001835,-0.00028133,0.,0.00017426,0.00010403,0.,-0.00
 000970,-0.00000567,0.,0.00001282,0.00000634,0.,0.00000737,-0.00000540,
 0.,0.00001003,-0.00000406,0.,-0.00056727,0.00051628,0.,-0.00010045,0.0
 0011682,0.,-0.00113892,0.00008662,-0.00000007,-0.00216990,-0.00471298,
 0.00000046,-0.00256955,-0.00071739,0.00000028,0.02432784,-0.01428721,0
 .00000037,0.00112184,-0.00092125,0.00000003,-0.00929105,0.00958097,-0.
 00000006,0.14401841,-0.19084713,0.00000479,-0.00013779,0.00100944,-0.0
 0000018,0.00032181,0.00064883,-0.00000017,-0.15412933,0.19952364,0.000
 00002,-0.00000001,0.00001999,0.00000004,0.,0.00007293,0.,-0.00000007,-
 0.00006386,-0.00000003,0.,0.00001434,0.,0.00000001,0.00000742,-0.00000
 003,0.,0.00000060,0.,0.,-0.00000388,0.,0.,0.00001395,0.,0.,0.00000070,
 0.,0.,-0.00001631,-0.00000014,0.00000002,0.00025247,0.00000003,0.00000
 011,-0.00027162,-0.00000004,-0.00000012,-0.00143399,0.00000031,0.00000
 066,0.00487959,0.00000021,0.00000020,0.00672891,-0.00000098,0.00000079
 ,0.00254846,0.00000003,-0.00000001,0.00096945,0.00000039,-0.00000058,0
 .00379134,-0.00000391,0.00000490,-0.03195350,-0.00000015,-0.00000019,-
 0.00343189,-0.00000002,-0.00000010,-0.00385633,0.00000403,-0.00000549,
 0.02230729,-0.00361924,-0.00724936,-0.00000030,-0.01369790,0.01911876,
 0.00000032,-0.07560897,0.05327478,-0.00000005,0.01280048,-0.00526287,0
 .00000058,-0.00018491,0.01008466,0.00000003,-0.00794457,-0.00293387,-0
 .00000044,0.00034662,-0.00054638,0.00000008,-0.00070887,-0.00013336,-0
 .00000001,-0.00001151,0.00006353,-0.00000001,-0.00071221,0.00003356,-0
 .00000001,-0.33995673,-0.05691996,-0.00000897,-0.04759484,-0.05441629,
 -0.00000338,-0.22555695,0.11977766,0.00001191,-0.04670792,0.03225792,0
 .00000299,0.02665512,0.01740236,0.00000059,-0.00174504,-0.01161105,0.0
 0000059,0.00013890,0.00008301,0.00000007,-0.00220574,-0.00890711,0.000
 00024,0.00197851,0.00069642,0.,-0.00076560,0.00050438,0.00000005,0.000
 95606,-0.00088389,-0.00000025,-0.00023622,0.00020224,0.00000008,0.7379
 8028,-0.00099328,0.00332906,-0.00000012,0.03533869,-0.02804736,0.00000
 019,0.02939710,0.00030208,0.00000108,-0.00220656,-0.00658103,-0.000000
 31,-0.00106590,-0.00391057,-0.00000009,0.00401766,0.00018394,0.0000001
 1,-0.00019420,-0.00057576,0.00000004,-0.00032605,0.00028573,0.00000002
 ,0.00036287,-0.00061028,0.00000004,-0.00006802,0.00000112,-0.00000002,
 -0.04976220,-0.10600901,-0.00000426,-0.02926672,-0.16191053,-0.0000078
 7,0.10613931,-0.21002106,-0.00001172,0.01718599,0.01485244,-0.00000001
 ,0.02731023,-0.04867151,-0.00000358,-0.00558638,-0.00013762,0.00000100
 ,-0.00206210,-0.00000669,-0.00000041,-0.01475476,-0.00086629,0.0000003
 8,0.00642192,0.00373295,-0.00000023,-0.00087200,0.00111029,-0.00000025
 ,0.00058465,-0.00044676,0.00000023,0.00016542,0.00016939,-0.00000007,-
 0.09577573,0.55764932,-0.00000005,-0.00000037,0.00168520,0.00000028,0.
 00000056,-0.00038580,-0.00000124,0.00000153,0.00659129,0.00000038,-0.0
 0000052,0.00300739,-0.00000003,0.00000014,0.00099407,-0.00000025,0.,0.
 00098324,0.00000001,-0.00000004,-0.00056999,0.,0.,-0.00057202,0.000000
 04,-0.00000003,-0.00057645,-0.00000002,0.,-0.00026129,-0.00000424,-0.0
 0000484,-0.03467595,-0.00000203,-0.00001036,-0.01983484,0.00000796,-0.
 00000813,-0.03651930,0.00000288,-0.00000088,0.00986780,0.00000096,-0.0
 0000337,0.00623740,0.00000025,-0.00000035,0.00251803,-0.00000004,-0.00
 000021,-0.00143227,-0.00000284,0.00000053,0.00003901,0.00000312,0.0000
 0002,-0.00098990,-0.00000011,-0.00000007,-0.00097253,-0.00000004,0.000
 00016,0.00175812,-0.00000004,0.00000012,0.00010832,-0.00000326,0.00002
 711,0.06075930,0.00045844,0.00165672,0.00000001,0.00073775,0.00460825,
 0.00000015,0.01365252,-0.00335538,0.00000037,-0.00136628,0.00069093,-0
 .00000014,-0.00049331,-0.00195992,-0.00000006,0.00170221,0.00085373,0.
 00000008,-0.00020501,0.00029783,-0.00000002,0.00022572,-0.00006216,0.0
 0000003,-0.00004374,0.00008600,0.00000002,0.00002991,0.00004362,0.0000
 0001,-0.01147816,0.05339174,0.00000164,0.00015831,0.00368302,-0.000000
 18,-0.04266605,-0.03354253,-0.00000003,0.01777167,-0.00670198,0.000000
 12,-0.39909398,-0.09037333,-0.00000202,-0.01291117,0.00581095,-0.00000
 030,-0.00123147,-0.00115393,0.00000035,-0.07436513,0.00812649,-0.00000
 057,0.00570269,0.00559749,0.00000022,-0.00011326,-0.00038649,-0.000000
 22,0.00238587,-0.00039278,-0.00000038,-0.00227718,-0.00048910,0.000000
 16,-0.00960816,-0.00054442,-0.00000060,0.50785694,-0.00094350,-0.00083
 565,-0.00000011,-0.00011960,-0.00494046,-0.00000026,-0.01440035,0.0028
 0334,-0.00000057,0.00177153,-0.00113547,0.00000009,0.00023384,0.001578
 09,0.00000003,-0.00050495,-0.00110759,-0.00000001,0.00014051,-0.000356
 29,0.,0.00008957,0.00013031,-0.00000001,0.00016395,-0.00013991,0.,0.00
 003737,-0.00008212,0.00000002,0.03038212,-0.05991779,-0.00000106,0.000
 19090,-0.00088644,0.00000043,-0.04170504,-0.02021855,-0.00000090,-0.00
 556175,-0.00845825,0.00000047,-0.08654207,-0.12629106,-0.00000093,0.00
 133724,-0.00667640,0.00000014,-0.00202838,-0.00042899,0.00000027,0.028
 16095,0.02440696,-0.00000002,0.00526119,-0.00122635,0.00000006,-0.0000
 8501,0.00036379,-0.00000008,-0.00223764,0.00241527,-0.00000021,0.00149
 939,0.00072601,-0.00000007,0.00560680,0.01135410,0.00000078,0.11401011
 ,0.17465030,0.,-0.00000005,0.00035106,-0.00000020,-0.00000015,-0.00047
 874,-0.00000040,0.00000067,-0.00052106,0.00000027,-0.00000011,0.000173
 81,0.,0.00000022,0.00016453,-0.00000009,-0.00000013,0.00004374,0.,0.,-
 0.00012378,0.,0.,-0.00015708,0.,0.,-0.00001385,0.,0.,-0.00007068,0.000
 00056,-0.00000120,0.01295063,0.00000013,0.00000005,-0.00095623,-0.0000
 0034,0.00000124,0.01679718,-0.00000030,-0.00000045,0.00205829,-0.00000
 150,-0.00000219,-0.05439572,0.00000002,-0.00000012,0.00010073,-0.00000
 022,0.00000004,-0.00202072,-0.00000091,0.00000023,0.01200612,0.0000003
 0,0.00000022,0.00404565,0.,0.,0.00003906,0.00000008,-0.00000014,-0.003
 25863,0.,-0.00000002,-0.00037527,0.00000025,0.00000028,-0.00326203,0.0
 0000245,0.00000149,0.04073016,-0.00003022,-0.00079843,-0.00000002,-0.0
 0448407,-0.00191756,-0.00000025,-0.00468651,0.00967962,0.00000040,0.00
 247876,-0.00074300,0.00000012,0.00022438,0.00177406,0.00000001,-0.0009
 0935,-0.00081001,-0.00000005,0.00009919,-0.00002240,0.00000002,-0.0003
 8754,-0.00006685,-0.00000003,0.00005309,-0.00002588,0.,-0.00000633,-0.
 00006956,0.,-0.04343705,-0.02908293,-0.00000129,-0.00346278,-0.0070727
 5,-0.00000013,0.00530230,-0.00421462,0.00000004,-0.00781351,0.00147546
 ,0.00000005,-0.02737481,0.00763332,0.00000023,0.00324525,-0.00636806,0
 .00000021,0.00052323,0.00045391,-0.00000015,0.00150345,-0.00075686,-0.
 00000030,0.00268385,0.00440515,-0.00000026,0.00010110,0.00002673,0.000
 00004,-0.00026145,0.00008653,0.00000012,0.00033234,0.00008581,0.,-0.00
 399057,-0.02344552,-0.00000107,0.00517086,-0.03475719,-0.00000011,0.07
 512637,0.00179861,0.00157900,0.00000003,0.00385457,0.01091880,0.000000
 33,0.02873042,-0.01286539,0.00000073,-0.00584655,0.00379447,-0.0000002
 2,-0.00113658,-0.00492037,-0.00000010,0.00168106,0.00254853,0.00000011
 ,-0.00025468,0.00057078,-0.00000005,0.00010424,-0.00031891,0.00000003,
 -0.00029964,0.00027736,0.,-0.00008163,0.00019148,0.,-0.04866561,-0.039
 10735,-0.00000073,0.00276534,0.01202906,-0.00000013,-0.02415482,0.0128
 0874,0.00000076,0.02365682,-0.00546344,-0.00000014,0.03314206,0.016845
 43,-0.00000082,-0.00930003,0.01955817,-0.00000065,-0.00100686,-0.00088
 071,0.00000036,-0.00595316,-0.00235898,0.00000056,-0.00877233,-0.01099
 609,0.00000079,-0.00004044,-0.00018327,-0.00000017,0.00071342,-0.00023
 148,-0.00000031,-0.00110415,-0.00046959,0.00000004,-0.01446620,-0.0251
 7596,-0.00000177,-0.05989487,0.01427319,0.00000010,0.08453103,0.007576
 55,0.,0.00000002,0.00078506,0.00000002,0.00000029,0.00175238,0.0000008
 9,0.00000013,-0.00889708,-0.00000013,0.00000007,-0.00055555,-0.0000000
 3,-0.00000013,0.00007657,0.00000004,0.00000007,-0.00013902,0.,0.,0.000
 00622,0.,0.,-0.00013684,0.,0.,0.00006005,0.,0.,0.00001864,-0.00000105,
 -0.00000153,-0.02760821,-0.00000021,-0.00000002,0.00162620,-0.00000018
 ,0.00000006,-0.00392395,0.00000052,0.00000018,0.00034883,0.00000019,0.
 00000079,-0.00029134,-0.00000013,0.00000029,-0.00023478,0.00000009,-0.
 00000005,0.00064085,-0.00000013,-0.00000020,0.00370139,-0.00000011,-0.
 00000013,0.00021174,0.,0.,0.00000064,0.,-0.00000002,-0.00040817,-0.000
 00002,-0.00000003,-0.00030913,-0.00000107,-0.00000152,0.00550322,-0.00
 000112,0.00000049,-0.02382718,0.00000242,0.00000124,0.05159944\\-0.003
 20341,-0.00234109,0.00000027,-0.00360370,-0.00386473,0.00000018,-0.005
 14948,0.00072277,-0.00000081,0.00216213,-0.00323447,-0.00000014,-0.000
 51097,-0.00153158,0.,-0.00334674,-0.00320986,0.00000010,-0.00024597,-0
 .00021900,0.00000005,0.00010407,-0.00023885,-0.00000003,-0.00003857,-0
 .00043905,0.,-0.00035009,-0.00032021,0.00000005,0.01198416,-0.00444105
 ,-0.00000029,-0.00068723,0.00163855,-0.00000036,0.00668293,-0.00265104
 ,0.00000067,-0.00379898,-0.00136772,0.00000068,-0.01015975,-0.00090653
 ,-0.00000149,0.00183583,-0.00845519,-0.00000039,0.00016442,-0.00023579
 ,0.00000012,-0.00002526,-0.00055083,0.00000002,0.00158915,-0.00208875,
 -0.00000011,0.00010724,-0.00047025,0.00000013,-0.00019071,0.00002612,-
 0.00000007,0.00003826,-0.00025106,-0.00000009,0.00791651,0.00581240,-0
 .00000018,0.00421302,0.00966672,0.00000101,-0.00548688,0.01895049,0.00
 000067\\\@
 The archive entry for this job was punched.


 CONFIDENCE: THAT QUIET ASSURED FEELING YOU HAVE
 JUST BEFORE YOU FALL FLAT ON YOUR FACE.
 Job cpu time:       0 days  2 hours 51 minutes 48.4 seconds.
 Elapsed time:       0 days  0 hours 17 minutes 41.7 seconds.
 File lengths (MBytes):  RWF=   1376 Int=      0 D2E=      0 Chk=     48 Scr=      8
 Normal termination of Gaussian 16 at Tue Jul 14 17:56:49 2020.
