 Entering Gaussian System, Link 0=g16
 Initial command:
 /gpfs/loomis/apps/avx/software/Gaussian/16-C.01_AVX/g16/l1.exe "/home/fas/batista/pev4/scratch60/gauss-scratch/Gau-49265.inp" -scrdir="/home/fas/batista/pev4/scratch60/gauss-scratch/"
 Entering Link 1 = /gpfs/loomis/apps/avx/software/Gaussian/16-C.01_AVX/g16/l1.exe PID=     49266.
  
 Copyright (c) 1988-2019, Gaussian, Inc.  All Rights Reserved.
  
 This is part of the Gaussian(R) 16 program.  It is based on
 the Gaussian(R) 09 system (copyright 2009, Gaussian, Inc.),
 the Gaussian(R) 03 system (copyright 2003, Gaussian, Inc.),
 the Gaussian(R) 98 system (copyright 1998, Gaussian, Inc.),
 the Gaussian(R) 94 system (copyright 1995, Gaussian, Inc.),
 the Gaussian 92(TM) system (copyright 1992, Gaussian, Inc.),
 the Gaussian 90(TM) system (copyright 1990, Gaussian, Inc.),
 the Gaussian 88(TM) system (copyright 1988, Gaussian, Inc.),
 the Gaussian 86(TM) system (copyright 1986, Carnegie Mellon
 University), and the Gaussian 82(TM) system (copyright 1983,
 Carnegie Mellon University). Gaussian is a federally registered
 trademark of Gaussian, Inc.
  
 This software contains proprietary and confidential information,
 including trade secrets, belonging to Gaussian, Inc.
  
 This software is provided under written license and may be
 used, copied, transmitted, or stored only in accord with that
 written license.
  
 The following legend is applicable only to US Government
 contracts under FAR:
  
                    RESTRICTED RIGHTS LEGEND
  
 Use, reproduction and disclosure by the US Government is
 subject to restrictions as set forth in subparagraphs (a)
 and (c) of the Commercial Computer Software - Restricted
 Rights clause in FAR 52.227-19.
  
 Gaussian, Inc.
 340 Quinnipiac St., Bldg. 40, Wallingford CT 06492
  
  
 ---------------------------------------------------------------
 Warning -- This program may not be used in any manner that
 competes with the business of Gaussian, Inc. or will provide
 assistance to any competitor of Gaussian, Inc.  The licensee
 of this program is prohibited from giving any competitor of
 Gaussian, Inc. access to this program.  By using this program,
 the user acknowledges that Gaussian, Inc. is engaged in the
 business of creating and licensing software in the field of
 computational chemistry and represents and warrants to the
 licensee that it is not a competitor of Gaussian, Inc. and that
 it will not use this program in any manner prohibited above.
 ---------------------------------------------------------------
  

 Cite this work as:
 Gaussian 16, Revision C.01,
 M. J. Frisch, G. W. Trucks, H. B. Schlegel, G. E. Scuseria, 
 M. A. Robb, J. R. Cheeseman, G. Scalmani, V. Barone, 
 G. A. Petersson, H. Nakatsuji, X. Li, M. Caricato, A. V. Marenich, 
 J. Bloino, B. G. Janesko, R. Gomperts, B. Mennucci, H. P. Hratchian, 
 J. V. Ortiz, A. F. Izmaylov, J. L. Sonnenberg, D. Williams-Young, 
 F. Ding, F. Lipparini, F. Egidi, J. Goings, B. Peng, A. Petrone, 
 T. Henderson, D. Ranasinghe, V. G. Zakrzewski, J. Gao, N. Rega, 
 G. Zheng, W. Liang, M. Hada, M. Ehara, K. Toyota, R. Fukuda, 
 J. Hasegawa, M. Ishida, T. Nakajima, Y. Honda, O. Kitao, H. Nakai, 
 T. Vreven, K. Throssell, J. A. Montgomery, Jr., J. E. Peralta, 
 F. Ogliaro, M. J. Bearpark, J. J. Heyd, E. N. Brothers, K. N. Kudin, 
 V. N. Staroverov, T. A. Keith, R. Kobayashi, J. Normand, 
 K. Raghavachari, A. P. Rendell, J. C. Burant, S. S. Iyengar, 
 J. Tomasi, M. Cossi, J. M. Millam, M. Klene, C. Adamo, R. Cammi, 
 J. W. Ochterski, R. L. Martin, K. Morokuma, O. Farkas, 
 J. B. Foresman, and D. J. Fox, Gaussian, Inc., Wallingford CT, 2019.
 
 ******************************************
 Gaussian 16:  ES64L-G16RevC.01  3-Jul-2019
                14-Jul-2020 
 ******************************************
 %chk=config_8_18.chk
 %mem=58GB
 %nprocshared=10
 Will use up to   10 processors via shared memory.
 ----------------------------------------------------------------------
 #p opt=addgic freq td wb97xd/cc-pvdz nosymm int=ultrafine scrf=(solven
 t=CarbonTetraChloride)
 ----------------------------------------------------------------------
 1/18=20,19=15,26=6,38=1,145=903/1,3;
 2/9=110,12=2,15=1,17=6,18=5,40=1/2;
 3/5=16,11=9,25=1,30=1,70=2201,71=1,72=11,74=-58,75=-5/1,2,3,8;
 4//1;
 5/5=2,38=5,53=11/2;
 8/6=1,10=1/1;
 9/15=2,42=1,70=2/14;
 10/5=4,31=1/2;
 6/7=2,8=2,9=2,10=2/1;
 7/12=6,13=5,30=1/1,2,3,16;
 1/18=20,19=15,26=6,145=903/3(2);
 2/9=110,15=1/2;
 99//99;
 2/9=110,15=1/2;
 3/5=16,11=9,25=1,30=1,70=2205,71=1,72=11,74=-58,75=-5/1,2,3,8;
 4/5=5,16=3,69=1/1;
 5/5=2,38=5,53=11/2;
 8/6=1,10=1/1;
 9/15=2,42=1,49=4,70=2/14;
 10/5=4,31=1/2;
 7/12=6,13=5,30=1/1,2,3,16;
 1/18=20,19=15,26=6,145=903/3(-8);
 2/9=110,15=1/2;
 6/7=2,8=2,9=2,10=2/1;
 99/9=10/99;
 Leave Link    1 at Tue Jul 14 14:39:03 2020, MaxMem=  7784628224 cpu:               4.4 elap:               0.5
 (Enter /gpfs/loomis/apps/avx/software/Gaussian/16-C.01_AVX/g16/l101.exe)
 ------------------------------------------------
 NM 2D-scan of HBT TD-WB97XD pVDZ in CTC Relaxed.
 ------------------------------------------------
 Symbolic Z-matrix:
 Charge =  0 Multiplicity = 1
 C                     1.51943  -3.2475   -0.00002 
 C                     1.00273  -1.9473   -0.00002 
 C                     1.81156  -0.76999  -0.00003 
 C                     3.21326  -0.95608  -0.00003 
 C                     3.73094  -2.26151  -0.00002 
 C                     2.90716  -3.40269  -0.00002 
 H                     0.84207  -4.11328  -0.00001 
 H                     3.88933  -0.08892  -0.00004 
 H                     4.81959  -2.39163  -0.00003 
 H                     3.35068  -4.40466  -0.00001 
 N                     1.05382   0.39451  -0.00003 
 S                    -0.69418  -1.56543  -0.00003 
 C                    -1.30968   1.07967   0.00001 
 C                    -2.65997   0.71068   0.00003 
 C                    -0.90567   2.49192   0.00004 
 C                    -3.6569    1.71278   0.00003 
 H                    -2.95239  -0.34725   0.00002 
 C                    -1.95146   3.4691    0.00004 
 C                    -3.30428   3.07398   0.00003 
 H                    -4.71278   1.41885   0.00004 
 H                    -1.66408   4.52881   0.00005 
 H                    -4.09196   3.83507   0.00003 
 C                    -0.2805    0.11202  -0.00002 
 O                     0.34431   2.74382   0.00006 
 H                     1.04667   1.42156   0.00001 
 
 Initializing the GIC definitions file.
 Number of initial coordinates =   134
 Number of input entries/lines =    52
 Number of additional coordinates =     2
 Number of removed coordinates =     0
 Number of frozen coordinates =     2
 Number of final active and frozen coordinates =   136
 ITRead=  0  0  0  0  0  0  0  0  0  0  0  0  0  0  0  0  0  0  0  0
 ITRead=  0  0  0  0  0
 MicOpt= -1 -1 -1 -1 -1 -1 -1 -1 -1 -1 -1 -1 -1 -1 -1 -1 -1 -1 -1 -1
 MicOpt= -1 -1 -1 -1 -1
 NAtoms=     25 NQM=       25 NQMF=       0 NMMI=      0 NMMIF=      0
                NMic=       0 NMicF=      0.
                    Isotopes and Nuclear Properties:
 (Nuclear quadrupole moments (NQMom) in fm**2, nuclear magnetic moments (NMagM)
  in nuclear magnetons)

  Atom         1           2           3           4           5           6           7           8           9          10
 IAtWgt=          12          12          12          12          12          12           1           1           1           1
 AtmWgt=  12.0000000  12.0000000  12.0000000  12.0000000  12.0000000  12.0000000   1.0078250   1.0078250   1.0078250   1.0078250
 NucSpn=           0           0           0           0           0           0           1           1           1           1
 AtZEff=  -0.0000000  -0.0000000  -0.0000000  -0.0000000  -0.0000000  -0.0000000  -0.0000000  -0.0000000  -0.0000000  -0.0000000
 NQMom=    0.0000000   0.0000000   0.0000000   0.0000000   0.0000000   0.0000000   0.0000000   0.0000000   0.0000000   0.0000000
 NMagM=    0.0000000   0.0000000   0.0000000   0.0000000   0.0000000   0.0000000   2.7928460   2.7928460   2.7928460   2.7928460
 AtZNuc=   6.0000000   6.0000000   6.0000000   6.0000000   6.0000000   6.0000000   1.0000000   1.0000000   1.0000000   1.0000000

  Atom        11          12          13          14          15          16          17          18          19          20
 IAtWgt=          14          32          12          12          12          12           1          12          12           1
 AtmWgt=  14.0030740  31.9720718  12.0000000  12.0000000  12.0000000  12.0000000   1.0078250  12.0000000  12.0000000   1.0078250
 NucSpn=           2           0           0           0           0           0           1           0           0           1
 AtZEff=  -0.0000000  -0.0000000  -0.0000000  -0.0000000  -0.0000000  -0.0000000  -0.0000000  -0.0000000  -0.0000000  -0.0000000
 NQMom=    2.0440000   0.0000000   0.0000000   0.0000000   0.0000000   0.0000000   0.0000000   0.0000000   0.0000000   0.0000000
 NMagM=    0.4037610   0.0000000   0.0000000   0.0000000   0.0000000   0.0000000   2.7928460   0.0000000   0.0000000   2.7928460
 AtZNuc=   7.0000000  16.0000000   6.0000000   6.0000000   6.0000000   6.0000000   1.0000000   6.0000000   6.0000000   1.0000000

  Atom        21          22          23          24          25
 IAtWgt=           1           1          12          16           1
 AtmWgt=   1.0078250   1.0078250  12.0000000  15.9949146   1.0078250
 NucSpn=           1           1           0           0           1
 AtZEff=  -0.0000000  -0.0000000  -0.0000000  -0.0000000  -0.0000000
 NQMom=    0.0000000   0.0000000   0.0000000   0.0000000   0.0000000
 NMagM=    2.7928460   2.7928460   0.0000000   0.0000000   2.7928460
 AtZNuc=   1.0000000   1.0000000   6.0000000   8.0000000   1.0000000
 Leave Link  101 at Tue Jul 14 14:39:06 2020, MaxMem=  7784628224 cpu:              32.0 elap:               3.2
 (Enter /gpfs/loomis/apps/avx/software/Gaussian/16-C.01_AVX/g16/l103.exe)

 GradGradGradGradGradGradGradGradGradGradGradGradGradGradGradGradGradGrad
 Berny optimization.
 Initialization pass.
                           ----------------------------
                           !    Initial Parameters    !
                           ! (Angstroms and Degrees)  !
 --------------------------                            --------------------------
 ! Name  Definition              Value          Derivative Info.                !
 --------------------------------------------------------------------------------
 ! R1    R(1,2)                  1.3991         estimate D2E/DX2                !
 ! R2    R(1,6)                  1.3964         estimate D2E/DX2                !
 ! R3    R(1,7)                  1.0993         estimate D2E/DX2                !
 ! R4    R(2,3)                  1.4284         estimate D2E/DX2                !
 ! R5    R(2,12)                 1.7394         estimate D2E/DX2                !
 ! R6    R(3,4)                  1.414          estimate D2E/DX2                !
 ! R7    R(3,11)                 1.3893         estimate D2E/DX2                !
 ! R8    R(4,5)                  1.4043         estimate D2E/DX2                !
 ! R9    R(4,8)                  1.0996         estimate D2E/DX2                !
 ! R10   R(5,6)                  1.4074         estimate D2E/DX2                !
 ! R11   R(5,9)                  1.0964         estimate D2E/DX2                !
 ! R12   R(6,10)                 1.0957         estimate D2E/DX2                !
 ! R13   R(11,23)                1.3639         estimate D2E/DX2                !
 ! R14   R(11,25)                1.0271         estimate D2E/DX2                !
 ! R15   R(12,23)                1.7277         estimate D2E/DX2                !
 ! R16   R(13,14)                1.3998         estimate D2E/DX2                !
 ! R17   R(13,15)                1.4689         estimate D2E/DX2                !
 ! R18   R(13,23)                1.4126         estimate D2E/DX2                !
 ! R19   R(14,16)                1.4135         estimate D2E/DX2                !
 ! R20   R(14,17)                1.0976         estimate D2E/DX2                !
 ! R21   R(15,18)                1.4313         estimate D2E/DX2                !
 ! R22   R(15,24)                1.2751         estimate D2E/DX2                !
 ! R23   R(16,19)                1.4061         estimate D2E/DX2                !
 ! R24   R(16,20)                1.096          estimate D2E/DX2                !
 ! R25   R(18,19)                1.4093         estimate D2E/DX2                !
 ! R26   R(18,21)                1.098          estimate D2E/DX2                !
 ! R27   R(19,22)                1.0953         estimate D2E/DX2                !
 ! A1    A(2,1,6)              118.0535         estimate D2E/DX2                !
 ! A2    A(2,1,7)              120.2889         estimate D2E/DX2                !
 ! A3    A(6,1,7)              121.6576         estimate D2E/DX2                !
 ! A4    A(1,2,3)              123.8377         estimate D2E/DX2                !
 ! A5    A(1,2,12)             124.3552         estimate D2E/DX2                !
 ! A6    A(3,2,12)             111.8071         estimate D2E/DX2                !
 ! A7    A(2,3,4)              116.9276         estimate D2E/DX2                !
 ! A8    A(2,3,11)             112.4583         estimate D2E/DX2                !
 ! A9    A(4,3,11)             130.6141         estimate D2E/DX2                !
 ! A10   A(3,4,5)              119.1933         estimate D2E/DX2                !
 ! A11   A(3,4,8)              120.3792         estimate D2E/DX2                !
 ! A12   A(5,4,8)              120.4275         estimate D2E/DX2                !
 ! A13   A(4,5,6)              122.5444         estimate D2E/DX2                !
 ! A14   A(4,5,9)              118.4472         estimate D2E/DX2                !
 ! A15   A(6,5,9)              119.0084         estimate D2E/DX2                !
 ! A16   A(1,6,5)              119.4435         estimate D2E/DX2                !
 ! A17   A(1,6,10)             120.2571         estimate D2E/DX2                !
 ! A18   A(5,6,10)             120.2994         estimate D2E/DX2                !
 ! A19   A(3,11,23)            111.0984         estimate D2E/DX2                !
 ! A20   A(3,11,25)            147.3468         estimate D2E/DX2                !
 ! A21   A(23,11,25)           101.5548         estimate D2E/DX2                !
 ! A22   A(2,12,23)             88.8291         estimate D2E/DX2                !
 ! A23   A(14,13,15)           121.249          estimate D2E/DX2                !
 ! A24   A(14,13,23)           121.4805         estimate D2E/DX2                !
 ! A25   A(15,13,23)           117.2705         estimate D2E/DX2                !
 ! A26   A(13,14,16)           119.5674         estimate D2E/DX2                !
 ! A27   A(13,14,17)           120.7354         estimate D2E/DX2                !
 ! A28   A(16,14,17)           119.6972         estimate D2E/DX2                !
 ! A29   A(13,15,18)           117.0927         estimate D2E/DX2                !
 ! A30   A(13,15,24)           117.3585         estimate D2E/DX2                !
 ! A31   A(18,15,24)           125.5488         estimate D2E/DX2                !
 ! A32   A(14,16,19)           120.6251         estimate D2E/DX2                !
 ! A33   A(14,16,20)           119.2959         estimate D2E/DX2                !
 ! A34   A(19,16,20)           120.0789         estimate D2E/DX2                !
 ! A35   A(15,18,19)           120.6612         estimate D2E/DX2                !
 ! A36   A(15,18,21)           117.8844         estimate D2E/DX2                !
 ! A37   A(19,18,21)           121.4544         estimate D2E/DX2                !
 ! A38   A(16,19,18)           120.8046         estimate D2E/DX2                !
 ! A39   A(16,19,22)           119.4931         estimate D2E/DX2                !
 ! A40   A(18,19,22)           119.7023         estimate D2E/DX2                !
 ! A41   A(11,23,12)           115.807          estimate D2E/DX2                !
 ! A42   A(11,23,13)           124.8112         estimate D2E/DX2                !
 ! A43   A(12,23,13)           119.3818         estimate D2E/DX2                !
 ! D1    D(6,1,2,3)             -0.0001         estimate D2E/DX2                !
 ! D2    D(6,1,2,12)           180.0            estimate D2E/DX2                !
 ! D3    D(7,1,2,3)            179.9999         estimate D2E/DX2                !
 ! D4    D(7,1,2,12)            -0.0001         estimate D2E/DX2                !
 ! D5    D(2,1,6,5)             -0.0002         estimate D2E/DX2                !
 ! D6    D(2,1,6,10)           179.9999         estimate D2E/DX2                !
 ! D7    D(7,1,6,5)            179.9999         estimate D2E/DX2                !
 ! D8    D(7,1,6,10)             0.0            estimate D2E/DX2                !
 ! D9    D(1,2,3,4)              0.0003         estimate D2E/DX2                !
 ! D10   D(1,2,3,11)          -179.9999         estimate D2E/DX2                !
 ! D11   D(12,2,3,4)          -179.9997         estimate D2E/DX2                !
 ! D12   D(12,2,3,11)            0.0001         estimate D2E/DX2                !
 ! D13   D(1,2,12,23)          179.9996         estimate D2E/DX2                !
 ! D14   D(3,2,12,23)           -0.0004         estimate D2E/DX2                !
 ! D15   D(2,3,4,5)             -0.0003         estimate D2E/DX2                !
 ! D16   D(2,3,4,8)            179.9998         estimate D2E/DX2                !
 ! D17   D(11,3,4,5)           180.0            estimate D2E/DX2                !
 ! D18   D(11,3,4,8)             0.0001         estimate D2E/DX2                !
 ! D19   D(2,3,11,23)            0.0004         estimate D2E/DX2                !
 ! D20   D(2,3,11,25)          179.9947         estimate D2E/DX2                !
 ! D21   D(4,3,11,23)         -179.9998         estimate D2E/DX2                !
 ! D22   D(4,3,11,25)           -0.0055         estimate D2E/DX2                !
 ! D23   D(3,4,5,6)              0.0001         estimate D2E/DX2                !
 ! D24   D(3,4,5,9)           -179.9999         estimate D2E/DX2                !
 ! D25   D(8,4,5,6)            180.0            estimate D2E/DX2                !
 ! D26   D(8,4,5,9)              0.0            estimate D2E/DX2                !
 ! D27   D(4,5,6,1)              0.0002         estimate D2E/DX2                !
 ! D28   D(4,5,6,10)          -179.9999         estimate D2E/DX2                !
 ! D29   D(9,5,6,1)           -179.9999         estimate D2E/DX2                !
 ! D30   D(9,5,6,10)             0.0            estimate D2E/DX2                !
 ! D31   D(3,11,23,12)          -0.0007         estimate D2E/DX2                !
 ! D32   D(3,11,23,13)         179.9981         estimate D2E/DX2                !
 ! D33   D(25,11,23,12)       -179.9976         estimate D2E/DX2                !
 ! D34   D(25,11,23,13)          0.0013         estimate D2E/DX2                !
 ! D35   D(2,12,23,11)           0.0006         estimate D2E/DX2                !
 ! D36   D(2,12,23,13)        -179.9983         estimate D2E/DX2                !
 ! D37   D(15,13,14,16)          0.0015         estimate D2E/DX2                !
 ! D38   D(15,13,14,17)       -179.9991         estimate D2E/DX2                !
 ! D39   D(23,13,14,16)       -179.9986         estimate D2E/DX2                !
 ! D40   D(23,13,14,17)          0.0008         estimate D2E/DX2                !
 ! D41   D(14,13,15,18)         -0.0017         estimate D2E/DX2                !
 ! D42   D(14,13,15,24)        179.998          estimate D2E/DX2                !
 ! D43   D(23,13,15,18)        179.9984         estimate D2E/DX2                !
 ! D44   D(23,13,15,24)         -0.0019         estimate D2E/DX2                !
 ! D45   D(14,13,23,11)       -179.9997         estimate D2E/DX2                !
 ! D46   D(14,13,23,12)         -0.0009         estimate D2E/DX2                !
 ! D47   D(15,13,23,11)          0.0002         estimate D2E/DX2                !
 ! D48   D(15,13,23,12)        179.999          estimate D2E/DX2                !
 ! D49   D(13,14,16,19)         -0.0003         estimate D2E/DX2                !
 ! D50   D(13,14,16,20)        179.9996         estimate D2E/DX2                !
 ! D51   D(17,14,16,19)       -179.9998         estimate D2E/DX2                !
 ! D52   D(17,14,16,20)          0.0001         estimate D2E/DX2                !
 ! D53   D(13,15,18,19)          0.0008         estimate D2E/DX2                !
 ! D54   D(13,15,18,21)       -179.9999         estimate D2E/DX2                !
 ! D55   D(24,15,18,19)       -179.9988         estimate D2E/DX2                !
 ! D56   D(24,15,18,21)          0.0004         estimate D2E/DX2                !
 ! D57   D(14,16,19,18)         -0.0006         estimate D2E/DX2                !
 ! D58   D(14,16,19,22)        179.9998         estimate D2E/DX2                !
 ! D59   D(20,16,19,18)        179.9995         estimate D2E/DX2                !
 ! D60   D(20,16,19,22)         -0.0002         estimate D2E/DX2                !
 ! D61   D(15,18,19,16)          0.0003         estimate D2E/DX2                !
 ! D62   D(15,18,19,22)        179.9999         estimate D2E/DX2                !
 ! D63   D(21,18,19,16)       -179.9989         estimate D2E/DX2                !
 ! D64   D(21,18,19,22)          0.0007         estimate D2E/DX2                !
 ! Qtot  GIC-1                  20.0            Frozen                          !
 ! Ptot  GIC-2                 200.0            Frozen                          !
 --------------------------------------------------------------------------------
 NOTE: GIC-type coordinates are in arbitrary units.
 Trust Radius=3.00D-01 FncErr=5.00D-06 GrdErr=5.00D-06 EigMax=2.50D+02 EigMin=1.00D-04
 Number of steps in this run=    146 maximum allowed number of steps=    150.
 GradGradGradGradGradGradGradGradGradGradGradGradGradGradGradGradGradGrad

 Leave Link  103 at Tue Jul 14 14:39:06 2020, MaxMem=  7784628224 cpu:               0.1 elap:               0.0
 (Enter /gpfs/loomis/apps/avx/software/Gaussian/16-C.01_AVX/g16/l202.exe)
                          Input orientation:                          
 ---------------------------------------------------------------------
 Center     Atomic      Atomic             Coordinates (Angstroms)
 Number     Number       Type             X           Y           Z
 ---------------------------------------------------------------------
      1          6           0        1.519425   -3.247499   -0.000016
      2          6           0        1.002733   -1.947300   -0.000023
      3          6           0        1.811561   -0.769993   -0.000028
      4          6           0        3.213263   -0.956075   -0.000031
      5          6           0        3.730944   -2.261509   -0.000024
      6          6           0        2.907161   -3.402689   -0.000015
      7          1           0        0.842070   -4.113276   -0.000011
      8          1           0        3.889329   -0.088918   -0.000038
      9          1           0        4.819587   -2.391630   -0.000025
     10          1           0        3.350676   -4.404660   -0.000008
     11          7           0        1.053820    0.394511   -0.000033
     12         16           0       -0.694184   -1.565427   -0.000027
     13          6           0       -1.309683    1.079674    0.000013
     14          6           0       -2.659972    0.710675    0.000027
     15          6           0       -0.905668    2.491919    0.000037
     16          6           0       -3.656900    1.712778    0.000034
     17          1           0       -2.952389   -0.347252    0.000024
     18          6           0       -1.951463    3.469098    0.000037
     19          6           0       -3.304280    3.073983    0.000033
     20          1           0       -4.712776    1.418852    0.000039
     21          1           0       -1.664081    4.528810    0.000053
     22          1           0       -4.091964    3.835075    0.000034
     23          6           0       -0.280504    0.112021   -0.000023
     24          8           0        0.344306    2.743816    0.000061
     25          1           0        1.046670    1.421558    0.000014
 ---------------------------------------------------------------------
                    Distance matrix (angstroms):
                    1          2          3          4          5
     1  C    0.000000
     2  C    1.399102   0.000000
     3  C    2.494670   1.428375   0.000000
     4  C    2.849510   2.422595   1.413999   0.000000
     5  C    2.421361   2.746245   2.430772   1.404333   0.000000
     6  C    1.396387   2.396874   2.851566   2.465688   1.407448
     7  H    1.099264   2.171926   3.481014   3.948477   3.431419
     8  H    3.948807   3.433078   2.186546   1.099558   2.178356
     9  H    3.409337   3.842630   3.417298   2.154320   1.096392
    10  H    2.166218   3.398743   3.947110   3.451322   2.176626
    11  N    3.671651   2.342368   1.389331   2.547013   3.771132
    12  S    2.780186   1.739355   2.628969   3.954675   4.479542
    13  C    5.169940   3.809178   3.628144   4.959971   6.047431
    14  C    5.756258   4.525511   4.710307   6.105157   7.048240
    15  C    6.230730   4.832045   4.245398   5.371615   6.640275
    16  C    7.169288   5.925230   6.005682   7.370340   8.388993
    17  H    5.329968   4.266515   4.782670   6.195638   6.952074
    18  C    7.560406   6.169655   5.668354   6.801216   8.070292
    19  C    7.951684   6.615410   6.399061   7.662880   8.829601
    20  H    7.785574   6.633100   6.881715   8.274198   9.210942
    21  H    8.402720   7.003707   6.336987   7.339785   8.672643
    22  H    9.036069   7.706608   7.487206   8.736215   9.917975
    23  C    3.811315   2.426417   2.270393   3.653387   4.661047
    24  O    6.105470   4.737098   3.807846   4.681892   6.043393
    25  H    4.692930   3.369145   2.321196   3.216716   4.557445
                    6          7          8          9         10
     6  C    0.000000
     7  H    2.183926   0.000000
     8  H    3.456260   5.047895   0.000000
     9  H    2.163241   4.334133   2.483518   0.000000
    10  H    1.095742   2.525472   4.349227   2.491985   0.000000
    11  N    4.225353   4.512758   2.876425   4.684398   5.320488
    12  S    4.042923   2.975167   4.815462   5.575329   4.941876
    13  C    6.154133   5.621101   5.328727   7.043997   7.197004
    14  C    6.921903   5.961108   6.597932   8.097414   7.892690
    15  C    7.020262   6.832510   5.445431   7.525131   8.104275
    16  C    8.321953   7.360954   7.758330   9.417908   9.302106
    17  H    6.608331   5.346107   6.846594   8.036361   7.496079
    18  C    8.415919   8.080608   6.839176   8.955180   9.492563
    19  C    8.973812   8.297525   7.858242   9.791330  10.010922
    20  H    9.017244   7.839691   8.733246  10.265754   9.946484
    21  H    9.154504   8.998136   7.222450   9.483167  10.244739
    22  H   10.068415   9.355265   8.893749  10.871412  11.103429
    23  C    4.744934   4.371877   4.174672   5.681479   5.795332
    24  O    6.659411   6.875135   4.537794   6.811824   7.754932
    25  H    5.170569   5.538614   3.219045   5.364262   6.265242
                   11         12         13         14         15
    11  N    0.000000
    12  S    2.626190   0.000000
    13  C    2.460811   2.715768   0.000000
    14  C    3.727226   3.007484   1.399801   0.000000
    15  C    2.870316   4.062853   1.468898   2.500082   0.000000
    16  C    4.891698   4.418632   2.431101   1.413533   2.859429
    17  H    4.074300   2.565821   2.175915   1.097597   3.499994
    18  C    4.299396   5.189141   2.474112   2.847961   1.431281
    19  C    5.115917   5.323225   2.820583   2.449563   2.468226
    20  H    5.856867   5.005496   3.419954   2.171524   3.955444
    21  H    4.947668   6.170934   3.467295   3.945878   2.173503
    22  H    6.190038   6.380464   3.915779   3.436928   3.457825
    23  C    1.363899   1.727704   1.412643   2.453621   2.460639
    24  O    2.454108   4.432611   2.346284   3.627582   1.275103
    25  H    1.027072   3.457261   2.381026   3.774196   2.226499
                   16         17         18         19         20
    16  C    0.000000
    17  H    2.177168   0.000000
    18  C    2.448097   3.945426   0.000000
    19  C    1.406137   3.439285   1.409337   0.000000
    20  H    1.096023   2.493608   3.439238   2.173320   0.000000
    21  H    3.449835   5.043384   1.097988   2.192435   4.355041
    22  H    2.166431   4.334800   2.171563   1.095311   2.494702
    23  C    3.736639   2.711070   3.749943   4.232782   4.620913
    24  O    4.131911   4.519171   2.407610   3.663494   5.227772
    25  H    4.712577   4.372776   3.630595   4.654168   5.759447
                   21         22         23         24         25
    21  H    0.000000
    22  H    2.525051   0.000000
    23  C    4.628425   5.328073   0.000000
    24  O    2.686973   4.568516   2.704947   0.000000
    25  H    4.123493   5.677203   1.864479   1.497225   0.000000
 Symmetry turned off by external request.
 Stoichiometry    C13H9NOS
 Framework group  C1[X(C13H9NOS)]
 Deg. of freedom    69
 Full point group                 C1      NOp   1
 Rotational constants (GHZ):           1.4158402           0.2863830           0.2382018
 Leave Link  202 at Tue Jul 14 14:39:06 2020, MaxMem=  7784628224 cpu:               0.1 elap:               0.0
 (Enter /gpfs/loomis/apps/avx/software/Gaussian/16-C.01_AVX/g16/l301.exe)
 Standard basis: CC-pVDZ (5D, 7F)
 Ernie: Thresh=  0.10000D-02 Tol=  0.10000D-05 Strict=F.
 Ernie:  40 primitive shells out of 425 were deleted.
   273 basis functions,   629 primitive gaussians,   289 cartesian basis functions
    59 alpha electrons       59 beta electrons
       nuclear repulsion energy      1101.4065921856 Hartrees.
 IExCor= 4639 DFT=T Ex+Corr=wB97XD ExCW=0 ScaHFX=  1.000000
 ScaDFX=  1.000000  1.000000  1.000000  1.000000 ScalE2=  1.000000  1.000000
 IRadAn=      5 IRanWt=     -1 IRanGd=            0 ICorTp=0 IEmpDi=121
 HFx  wShort=  0.000000 wLong=  0.200000 cFull=  0.222036 cShort=  0.000000 cLong=  0.777964
 DFx  wShort=  0.000000 wLong=  0.200000 cFull=  0.000000 cShort=  0.000000 cLong=  1.000000
 NAtoms=   25 NActive=   25 NUniq=   25 SFac= 1.00D+00 NAtFMM=   60 NAOKFM=F Big=F
 Integral buffers will be    131072 words long.
 Raffenetti 1 integral format.
 Two-electron integral symmetry is turned off.
 R6Disp:  Grimme-D2 Dispersion energy=       -0.0138577914 Hartrees.
 Nuclear repulsion after empirical dispersion term =     1101.3927343942 Hartrees.
 ------------------------------------------------------------------------------
 Polarizable Continuum Model (PCM)
 =================================
 Model                : PCM.
 Atomic radii         : UFF (Universal Force Field).
 Polarization charges : Total charges.
 Charge compensation  : None.
 Solution method      : On-the-fly selection.
 Cavity type          : Scaled VdW (van der Waals Surface) (Alpha=1.100).
 Cavity algorithm     : GePol (No added spheres)
                        Default sphere list used, NSphG=   25.
                        Lebedev-Laikov grids with approx.  5.0 points / Ang**2.
                        Smoothing algorithm: York/Karplus (Gamma=1.0000).
                        Polarization charges: spherical gaussians, with
                                              point-specific exponents (IZeta= 3).
                        Self-potential: point-specific (ISelfS= 7).
                        Self-field    : sphere-specific E.n sum rule (ISelfD= 2).
 1st derivatives      : Analytical E(r).r(x)/FMM algorithm (CHGder, D1EAlg=3).
                        Cavity 1st derivative terms included.
 Solvent              : CarbonTetraChloride, Eps=   2.228000 Eps(inf)=   2.131892
 ------------------------------------------------------------------------------
 GePol: Number of generator spheres                  =      25
 GePol: Total number of spheres                      =      25
 GePol: Number of exposed spheres                    =      25 (100.00%)
 GePol: Number of points                             =    2183
 GePol: Average weight of points                     =       0.12
 GePol: Minimum weight of points                     =   0.43D-11
 GePol: Maximum weight of points                     =    0.20577
 GePol: Number of points with low weight             =     135
 GePol: Fraction of low-weight points (<1% of avg)   =       6.18%
 GePol: Cavity surface area                          =    271.547 Ang**2
 GePol: Cavity volume                                =    292.147 Ang**3
 Leave Link  301 at Tue Jul 14 14:39:06 2020, MaxMem=  7784628224 cpu:               0.8 elap:               0.1
 (Enter /gpfs/loomis/apps/avx/software/Gaussian/16-C.01_AVX/g16/l302.exe)
 NPDir=0 NMtPBC=     1 NCelOv=     1 NCel=       1 NClECP=     1 NCelD=      1
         NCelK=      1 NCelE2=     1 NClLst=     1 CellRange=     0.0.
 One-electron integrals computed using PRISM.
 NBasis=   273 RedAO= T EigKep=  3.24D-04  NBF=   273
 NBsUse=   273 1.00D-06 EigRej= -1.00D+00 NBFU=   273
 Precomputing XC quadrature grid using
 IXCGrd= 4 IRadAn=           5 IRanWt=          -1 IRanGd=           0 AccXCQ= 0.00D+00.
 Generated NRdTot=       0 NPtTot=           0 NUsed=           0 NTot=          32
 NSgBfM=   288   288   288   288   288 MxSgAt=    25 MxSgA2=    25.
 Leave Link  302 at Tue Jul 14 14:39:06 2020, MaxMem=  7784628224 cpu:               2.6 elap:               0.3
 (Enter /gpfs/loomis/apps/avx/software/Gaussian/16-C.01_AVX/g16/l303.exe)
 DipDrv:  MaxL=1.
 Leave Link  303 at Tue Jul 14 14:39:07 2020, MaxMem=  7784628224 cpu:               0.4 elap:               0.1
 (Enter /gpfs/loomis/apps/avx/software/Gaussian/16-C.01_AVX/g16/l308.exe)
 Leave Link  308 at Tue Jul 14 14:39:07 2020, MaxMem=  7784628224 cpu:               0.5 elap:               0.1
 (Enter /gpfs/loomis/apps/avx/software/Gaussian/16-C.01_AVX/g16/l401.exe)
 ExpMin= 1.22D-01 ExpMax= 1.11D+05 ExpMxC= 1.07D+03 IAcc=3 IRadAn=         5 AccDes= 0.00D+00
 Harris functional with IExCor= 4639 and IRadAn=       5 diagonalized for initial guess.
 HarFok:  IExCor= 4639 AccDes= 0.00D+00 IRadAn=         5 IDoV= 1 UseB2=F ITyADJ=14
 ICtDFT=  3500011 ScaDFX=  1.000000  1.000000  1.000000  1.000000
 FoFCou: FMM=F IPFlag=           0 FMFlag=      100000 FMFlg1=           0
         NFxFlg=           0 DoJE=T BraDBF=F KetDBF=T FulRan=T
         wScrn=  0.000000 ICntrl=       500 IOpCl=  0 I1Cent=   200000004 NGrid=           0
         NMat0=    1 NMatS0=      1 NMatT0=    0 NMatD0=    1 NMtDS0=    0 NMtDT0=    0
 Symmetry not used in FoFCou.
 Harris En= -994.447535770505    
 JPrj=0 DoOrth=F DoCkMO=F.
 Leave Link  401 at Tue Jul 14 14:39:09 2020, MaxMem=  7784628224 cpu:              14.5 elap:               1.5
 (Enter /gpfs/loomis/apps/avx/software/Gaussian/16-C.01_AVX/g16/l502.exe)
 Two-electron integral symmetry not used.
 Closed shell SCF:
 Using DIIS extrapolation, IDIIS=  1040.
 NGot=  7784628224 LenX=  7784455381 LenY=  7784371419
 Requested convergence on RMS density matrix=1.00D-08 within 128 cycles.
 Requested convergence on MAX density matrix=1.00D-06.
 Requested convergence on             energy=1.00D-06.
 No special actions if energy rises.
 Fock matrices will be formed incrementally for  20 cycles.

 Cycle   1  Pass 1  IDiag  1:
 FoFJK:  IHMeth= 1 ICntrl=       0 DoSepK=T KAlg= 0 I1Cent=           0 FoldK=F
 IRaf=         1 NMat=       1 IRICut=       1 DoRegI=T DoRafI=F ISym2E= 0 IDoP0=0 IntGTp=1.
 FoFCou: FMM=F IPFlag=           0 FMFlag=      100000 FMFlg1=           0
         NFxFlg=           0 DoJE=T BraDBF=F KetDBF=F FulRan=T
         wScrn=  0.000000 ICntrl=       500 IOpCl=  0 I1Cent=           0 NGrid=           0
         NMat0=    1 NMatS0=      1 NMatT0=    0 NMatD0=    1 NMtDS0=    0 NMtDT0=    0
 Symmetry not used in FoFCou.
 Inv3:  Mode=1 IEnd=    14296467.
 Iteration    1 A*A^-1 deviation from unit magnitude is 7.66D-15 for   2168.
 Iteration    1 A*A^-1 deviation from orthogonality  is 1.71D-15 for   1163    571.
 Iteration    1 A^-1*A deviation from unit magnitude is 7.66D-15 for   2168.
 Iteration    1 A^-1*A deviation from orthogonality  is 1.71D-15 for   2157   2001.
 E= -1028.55410584023    
 DIIS: error= 3.60D-02 at cycle   1 NSaved=   1.
 NSaved= 1 IEnMin= 1 EnMin= -1028.55410584023     IErMin= 1 ErrMin= 3.60D-02
 ErrMax= 3.60D-02  0.00D+00 EMaxC= 1.00D-01 BMatC= 3.92D-01 BMatP= 3.92D-01
 IDIUse=3 WtCom= 6.40D-01 WtEn= 3.60D-01
 Coeff-Com:  0.100D+01
 Coeff-En:   0.100D+01
 Coeff:      0.100D+01
 Gap=     0.318 Goal=   None    Shift=    0.000
 GapD=    0.318 DampG=1.000 DampE=0.500 DampFc=0.5000 IDamp=-1.
 Damping current iteration by 5.00D-01
 RMSDP=3.55D-03 MaxDP=2.31D-01              OVMax= 1.90D-01

 Cycle   2  Pass 1  IDiag  1:
 RMSU=  1.77D-03    CP:  9.94D-01
 E= -1028.67145045585     Delta-E=       -0.117344615621 Rises=F Damp=T
 DIIS: error= 1.21D-02 at cycle   2 NSaved=   2.
 NSaved= 2 IEnMin= 2 EnMin= -1028.67145045585     IErMin= 2 ErrMin= 1.21D-02
 ErrMax= 1.21D-02  0.00D+00 EMaxC= 1.00D-01 BMatC= 5.88D-02 BMatP= 3.92D-01
 IDIUse=3 WtCom= 8.79D-01 WtEn= 1.21D-01
 Coeff-Com: -0.281D+00 0.128D+01
 Coeff-En:   0.000D+00 0.100D+01
 Coeff:     -0.247D+00 0.125D+01
 Gap=     0.289 Goal=   None    Shift=    0.000
 RMSDP=1.15D-03 MaxDP=2.54D-02 DE=-1.17D-01 OVMax= 1.32D-01

 Cycle   3  Pass 1  IDiag  1:
 RMSU=  1.11D-03    CP:  9.93D-01  1.17D+00
 E= -1028.77654578502     Delta-E=       -0.105095329167 Rises=F Damp=F
 DIIS: error= 6.78D-03 at cycle   3 NSaved=   3.
 NSaved= 3 IEnMin= 3 EnMin= -1028.77654578502     IErMin= 3 ErrMin= 6.78D-03
 ErrMax= 6.78D-03  0.00D+00 EMaxC= 1.00D-01 BMatC= 1.65D-02 BMatP= 5.88D-02
 IDIUse=3 WtCom= 9.32D-01 WtEn= 6.78D-02
 Coeff-Com: -0.208D+00 0.510D+00 0.698D+00
 Coeff-En:   0.000D+00 0.000D+00 0.100D+01
 Coeff:     -0.194D+00 0.476D+00 0.718D+00
 Gap=     0.244 Goal=   None    Shift=    0.000
 RMSDP=5.69D-04 MaxDP=2.44D-02 DE=-1.05D-01 OVMax= 4.24D-02

 Cycle   4  Pass 1  IDiag  1:
 RMSU=  4.49D-04    CP:  9.91D-01  1.32D+00  8.17D-01
 E= -1028.79218831012     Delta-E=       -0.015642525098 Rises=F Damp=F
 DIIS: error= 2.04D-03 at cycle   4 NSaved=   4.
 NSaved= 4 IEnMin= 4 EnMin= -1028.79218831012     IErMin= 4 ErrMin= 2.04D-03
 ErrMax= 2.04D-03  0.00D+00 EMaxC= 1.00D-01 BMatC= 2.05D-03 BMatP= 1.65D-02
 IDIUse=3 WtCom= 9.80D-01 WtEn= 2.04D-02
 Coeff-Com: -0.726D-01 0.144D+00 0.343D+00 0.585D+00
 Coeff-En:   0.000D+00 0.000D+00 0.000D+00 0.100D+01
 Coeff:     -0.711D-01 0.141D+00 0.336D+00 0.594D+00
 Gap=     0.244 Goal=   None    Shift=    0.000
 RMSDP=1.82D-04 MaxDP=1.06D-02 DE=-1.56D-02 OVMax= 1.38D-02

 Cycle   5  Pass 1  IDiag  1:
 RMSU=  1.10D-04    CP:  9.91D-01  1.34D+00  8.98D-01  7.50D-01
 E= -1028.79436946078     Delta-E=       -0.002181150659 Rises=F Damp=F
 DIIS: error= 4.54D-04 at cycle   5 NSaved=   5.
 NSaved= 5 IEnMin= 5 EnMin= -1028.79436946078     IErMin= 5 ErrMin= 4.54D-04
 ErrMax= 4.54D-04  0.00D+00 EMaxC= 1.00D-01 BMatC= 5.73D-05 BMatP= 2.05D-03
 IDIUse=3 WtCom= 9.95D-01 WtEn= 4.54D-03
 Coeff-Com: -0.138D-02-0.358D-02 0.325D-01 0.155D+00 0.818D+00
 Coeff-En:   0.000D+00 0.000D+00 0.000D+00 0.000D+00 0.100D+01
 Coeff:     -0.137D-02-0.357D-02 0.323D-01 0.154D+00 0.819D+00
 Gap=     0.245 Goal=   None    Shift=    0.000
 RMSDP=5.55D-05 MaxDP=1.84D-03 DE=-2.18D-03 OVMax= 5.25D-03

 Cycle   6  Pass 1  IDiag  1:
 RMSU=  3.56D-05    CP:  9.91D-01  1.34D+00  9.14D-01  8.31D-01  1.10D+00
 E= -1028.79449747415     Delta-E=       -0.000128013376 Rises=F Damp=F
 DIIS: error= 2.64D-04 at cycle   6 NSaved=   6.
 NSaved= 6 IEnMin= 6 EnMin= -1028.79449747415     IErMin= 6 ErrMin= 2.64D-04
 ErrMax= 2.64D-04  0.00D+00 EMaxC= 1.00D-01 BMatC= 1.06D-05 BMatP= 5.73D-05
 IDIUse=3 WtCom= 9.97D-01 WtEn= 2.64D-03
 Coeff-Com:  0.163D-01-0.335D-01-0.615D-01-0.736D-01 0.205D+00 0.947D+00
 Coeff-En:   0.000D+00 0.000D+00 0.000D+00 0.000D+00 0.000D+00 0.100D+01
 Coeff:      0.163D-01-0.334D-01-0.614D-01-0.734D-01 0.204D+00 0.947D+00
 Gap=     0.246 Goal=   None    Shift=    0.000
 RMSDP=3.52D-05 MaxDP=1.69D-03 DE=-1.28D-04 OVMax= 4.60D-03

 Cycle   7  Pass 1  IDiag  1:
 RMSU=  1.72D-05    CP:  9.91D-01  1.34D+00  9.25D-01  8.64D-01  1.29D+00
                    CP:  1.34D+00
 E= -1028.79453311649     Delta-E=       -0.000035642334 Rises=F Damp=F
 DIIS: error= 1.19D-04 at cycle   7 NSaved=   7.
 NSaved= 7 IEnMin= 7 EnMin= -1028.79453311649     IErMin= 7 ErrMin= 1.19D-04
 ErrMax= 1.19D-04  0.00D+00 EMaxC= 1.00D-01 BMatC= 2.35D-06 BMatP= 1.06D-05
 IDIUse=3 WtCom= 9.99D-01 WtEn= 1.19D-03
 Coeff-Com:  0.659D-02-0.126D-01-0.269D-01-0.483D-01-0.226D-01 0.395D+00
 Coeff-Com:  0.709D+00
 Coeff-En:   0.000D+00 0.000D+00 0.000D+00 0.000D+00 0.000D+00 0.000D+00
 Coeff-En:   0.100D+01
 Coeff:      0.659D-02-0.125D-01-0.268D-01-0.482D-01-0.226D-01 0.394D+00
 Coeff:      0.709D+00
 Gap=     0.246 Goal=   None    Shift=    0.000
 RMSDP=1.22D-05 MaxDP=5.19D-04 DE=-3.56D-05 OVMax= 1.37D-03

 Cycle   8  Pass 1  IDiag  1:
 RMSU=  7.46D-06    CP:  9.91D-01  1.34D+00  9.27D-01  8.70D-01  1.33D+00
                    CP:  1.55D+00  1.16D+00
 E= -1028.79453904130     Delta-E=       -0.000005924813 Rises=F Damp=F
 DIIS: error= 6.44D-05 at cycle   8 NSaved=   8.
 NSaved= 8 IEnMin= 8 EnMin= -1028.79453904130     IErMin= 8 ErrMin= 6.44D-05
 ErrMax= 6.44D-05  0.00D+00 EMaxC= 1.00D-01 BMatC= 3.39D-07 BMatP= 2.35D-06
 IDIUse=1 WtCom= 1.00D+00 WtEn= 0.00D+00
 Coeff-Com: -0.162D-02 0.350D-02 0.682D-02 0.363D-02-0.450D-01-0.105D+00
 Coeff-Com:  0.166D+00 0.972D+00
 Coeff:     -0.162D-02 0.350D-02 0.682D-02 0.363D-02-0.450D-01-0.105D+00
 Coeff:      0.166D+00 0.972D+00
 Gap=     0.246 Goal=   None    Shift=    0.000
 RMSDP=7.73D-06 MaxDP=2.16D-04 DE=-5.92D-06 OVMax= 1.35D-03

 Cycle   9  Pass 1  IDiag  1:
 RMSU=  2.93D-06    CP:  9.91D-01  1.34D+00  9.27D-01  8.70D-01  1.35D+00
                    CP:  1.67D+00  1.44D+00  1.24D+00
 E= -1028.79454077562     Delta-E=       -0.000001734317 Rises=F Damp=F
 DIIS: error= 2.17D-05 at cycle   9 NSaved=   9.
 NSaved= 9 IEnMin= 9 EnMin= -1028.79454077562     IErMin= 9 ErrMin= 2.17D-05
 ErrMax= 2.17D-05  0.00D+00 EMaxC= 1.00D-01 BMatC= 8.21D-08 BMatP= 3.39D-07
 IDIUse=1 WtCom= 1.00D+00 WtEn= 0.00D+00
 Coeff-Com: -0.126D-02 0.247D-02 0.563D-02 0.772D-02-0.965D-02-0.865D-01
 Coeff-Com: -0.879D-01 0.280D+00 0.890D+00
 Coeff:     -0.126D-02 0.247D-02 0.563D-02 0.772D-02-0.965D-02-0.865D-01
 Coeff:     -0.879D-01 0.280D+00 0.890D+00
 Gap=     0.246 Goal=   None    Shift=    0.000
 RMSDP=3.80D-06 MaxDP=1.04D-04 DE=-1.73D-06 OVMax= 5.94D-04

 Cycle  10  Pass 1  IDiag  1:
 RMSU=  1.43D-06    CP:  9.91D-01  1.34D+00  9.27D-01  8.70D-01  1.35D+00
                    CP:  1.72D+00  1.55D+00  1.51D+00  1.30D+00
 E= -1028.79454113402     Delta-E=       -0.000000358404 Rises=F Damp=F
 DIIS: error= 1.06D-05 at cycle  10 NSaved=  10.
 NSaved=10 IEnMin=10 EnMin= -1028.79454113402     IErMin=10 ErrMin= 1.06D-05
 ErrMax= 1.06D-05  0.00D+00 EMaxC= 1.00D-01 BMatC= 1.92D-08 BMatP= 8.21D-08
 IDIUse=1 WtCom= 1.00D+00 WtEn= 0.00D+00
 Coeff-Com:  0.637D-04-0.197D-03 0.134D-03 0.144D-02 0.750D-02-0.377D-02
 Coeff-Com: -0.816D-01-0.101D+00 0.350D+00 0.827D+00
 Coeff:      0.637D-04-0.197D-03 0.134D-03 0.144D-02 0.750D-02-0.377D-02
 Coeff:     -0.816D-01-0.101D+00 0.350D+00 0.827D+00
 Gap=     0.246 Goal=   None    Shift=    0.000
 RMSDP=1.67D-06 MaxDP=4.93D-05 DE=-3.58D-07 OVMax= 3.09D-04

 Cycle  11  Pass 1  IDiag  1:
 RMSU=  5.62D-07    CP:  9.91D-01  1.34D+00  9.27D-01  8.70D-01  1.36D+00
                    CP:  1.74D+00  1.59D+00  1.60D+00  1.62D+00  1.12D+00
 E= -1028.79454121089     Delta-E=       -0.000000076869 Rises=F Damp=F
 DIIS: error= 3.10D-06 at cycle  11 NSaved=  11.
 NSaved=11 IEnMin=11 EnMin= -1028.79454121089     IErMin=11 ErrMin= 3.10D-06
 ErrMax= 3.10D-06  0.00D+00 EMaxC= 1.00D-01 BMatC= 4.33D-09 BMatP= 1.92D-08
 IDIUse=1 WtCom= 1.00D+00 WtEn= 0.00D+00
 Coeff-Com:  0.286D-03-0.591D-03-0.102D-02-0.980D-03 0.515D-02 0.159D-01
 Coeff-Com: -0.194D-01-0.894D-01-0.500D-01 0.312D+00 0.828D+00
 Coeff:      0.286D-03-0.591D-03-0.102D-02-0.980D-03 0.515D-02 0.159D-01
 Coeff:     -0.194D-01-0.894D-01-0.500D-01 0.312D+00 0.828D+00
 Gap=     0.246 Goal=   None    Shift=    0.000
 RMSDP=7.85D-07 MaxDP=2.04D-05 DE=-7.69D-08 OVMax= 1.25D-04

 Cycle  12  Pass 1  IDiag  1:
 RMSU=  2.51D-07    CP:  9.91D-01  1.34D+00  9.27D-01  8.71D-01  1.36D+00
                    CP:  1.75D+00  1.60D+00  1.65D+00  1.75D+00  1.40D+00
                    CP:  1.13D+00
 E= -1028.79454122451     Delta-E=       -0.000000013623 Rises=F Damp=F
 DIIS: error= 1.71D-06 at cycle  12 NSaved=  12.
 NSaved=12 IEnMin=12 EnMin= -1028.79454122451     IErMin=12 ErrMin= 1.71D-06
 ErrMax= 1.71D-06  0.00D+00 EMaxC= 1.00D-01 BMatC= 7.08D-10 BMatP= 4.33D-09
 IDIUse=1 WtCom= 1.00D+00 WtEn= 0.00D+00
 Coeff-Com:  0.131D-03-0.256D-03-0.531D-03-0.876D-03 0.963D-03 0.879D-02
 Coeff-Com:  0.707D-02-0.156D-01-0.970D-01-0.310D-01 0.336D+00 0.793D+00
 Coeff:      0.131D-03-0.256D-03-0.531D-03-0.876D-03 0.963D-03 0.879D-02
 Coeff:      0.707D-02-0.156D-01-0.970D-01-0.310D-01 0.336D+00 0.793D+00
 Gap=     0.246 Goal=   None    Shift=    0.000
 RMSDP=2.79D-07 MaxDP=9.45D-06 DE=-1.36D-08 OVMax= 4.67D-05

 Cycle  13  Pass 1  IDiag  1:
 RMSU=  9.78D-08    CP:  9.91D-01  1.34D+00  9.27D-01  8.71D-01  1.36D+00
                    CP:  1.75D+00  1.61D+00  1.66D+00  1.81D+00  1.48D+00
                    CP:  1.34D+00  1.02D+00
 E= -1028.79454122658     Delta-E=       -0.000000002065 Rises=F Damp=F
 DIIS: error= 4.47D-07 at cycle  13 NSaved=  13.
 NSaved=13 IEnMin=13 EnMin= -1028.79454122658     IErMin=13 ErrMin= 4.47D-07
 ErrMax= 4.47D-07  0.00D+00 EMaxC= 1.00D-01 BMatC= 8.98D-11 BMatP= 7.08D-10
 IDIUse=1 WtCom= 1.00D+00 WtEn= 0.00D+00
 Coeff-Com: -0.321D-05 0.102D-04-0.437D-05-0.123D-03-0.341D-03 0.680D-03
 Coeff-Com:  0.371D-02 0.729D-02-0.234D-01-0.486D-01-0.325D-01 0.246D+00
 Coeff-Com:  0.847D+00
 Coeff:     -0.321D-05 0.102D-04-0.437D-05-0.123D-03-0.341D-03 0.680D-03
 Coeff:      0.371D-02 0.729D-02-0.234D-01-0.486D-01-0.325D-01 0.246D+00
 Coeff:      0.847D+00
 Gap=     0.246 Goal=   None    Shift=    0.000
 RMSDP=1.04D-07 MaxDP=2.42D-06 DE=-2.06D-09 OVMax= 1.38D-05

 Cycle  14  Pass 1  IDiag  1:
 RMSU=  3.81D-08    CP:  9.91D-01  1.34D+00  9.27D-01  8.71D-01  1.36D+00
                    CP:  1.75D+00  1.61D+00  1.67D+00  1.82D+00  1.51D+00
                    CP:  1.41D+00  1.18D+00  1.08D+00
 E= -1028.79454122679     Delta-E=       -0.000000000213 Rises=F Damp=F
 DIIS: error= 2.26D-07 at cycle  14 NSaved=  14.
 NSaved=14 IEnMin=14 EnMin= -1028.79454122679     IErMin=14 ErrMin= 2.26D-07
 ErrMax= 2.26D-07  0.00D+00 EMaxC= 1.00D-01 BMatC= 1.30D-11 BMatP= 8.98D-11
 IDIUse=1 WtCom= 1.00D+00 WtEn= 0.00D+00
 Coeff-Com: -0.146D-04 0.300D-04 0.538D-04 0.417D-04-0.226D-03-0.582D-03
 Coeff-Com:  0.618D-03 0.516D-02 0.139D-02-0.143D-01-0.514D-01 0.138D-01
 Coeff-Com:  0.349D+00 0.697D+00
 Coeff:     -0.146D-04 0.300D-04 0.538D-04 0.417D-04-0.226D-03-0.582D-03
 Coeff:      0.618D-03 0.516D-02 0.139D-02-0.143D-01-0.514D-01 0.138D-01
 Coeff:      0.349D+00 0.697D+00
 Gap=     0.246 Goal=   None    Shift=    0.000
 RMSDP=2.28D-08 MaxDP=5.37D-07 DE=-2.13D-10 OVMax= 2.53D-06

 Cycle  15  Pass 1  IDiag  1:
 RMSU=  1.49D-08    CP:  9.91D-01  1.34D+00  9.27D-01  8.71D-01  1.36D+00
                    CP:  1.75D+00  1.61D+00  1.67D+00  1.82D+00  1.52D+00
                    CP:  1.42D+00  1.21D+00  1.21D+00  9.90D-01
 E= -1028.79454122681     Delta-E=       -0.000000000014 Rises=F Damp=F
 DIIS: error= 7.14D-08 at cycle  15 NSaved=  15.
 NSaved=15 IEnMin=15 EnMin= -1028.79454122681     IErMin=15 ErrMin= 7.14D-08
 ErrMax= 7.14D-08  0.00D+00 EMaxC= 1.00D-01 BMatC= 1.52D-12 BMatP= 1.30D-11
 IDIUse=1 WtCom= 1.00D+00 WtEn= 0.00D+00
 Coeff-Com: -0.423D-05 0.788D-05 0.195D-04 0.414D-04-0.142D-04-0.361D-03
 Coeff-Com: -0.744D-03 0.866D-04 0.521D-02 0.693D-02-0.857D-02-0.502D-01
 Coeff-Com: -0.648D-01 0.195D+00 0.917D+00
 Coeff:     -0.423D-05 0.788D-05 0.195D-04 0.414D-04-0.142D-04-0.361D-03
 Coeff:     -0.744D-03 0.866D-04 0.521D-02 0.693D-02-0.857D-02-0.502D-01
 Coeff:     -0.648D-01 0.195D+00 0.917D+00
 Gap=     0.246 Goal=   None    Shift=    0.000
 RMSDP=1.21D-08 MaxDP=2.55D-07 DE=-1.36D-11 OVMax= 1.44D-06

 Cycle  16  Pass 1  IDiag  1:
 RMSU=  5.42D-09    CP:  9.91D-01  1.34D+00  9.27D-01  8.71D-01  1.36D+00
                    CP:  1.75D+00  1.61D+00  1.67D+00  1.82D+00  1.52D+00
                    CP:  1.42D+00  1.23D+00  1.26D+00  1.17D+00  1.15D+00
 E= -1028.79454122682     Delta-E=       -0.000000000010 Rises=F Damp=F
 DIIS: error= 2.82D-08 at cycle  16 NSaved=  16.
 NSaved=16 IEnMin=16 EnMin= -1028.79454122682     IErMin=16 ErrMin= 2.82D-08
 ErrMax= 2.82D-08  0.00D+00 EMaxC= 1.00D-01 BMatC= 1.66D-13 BMatP= 1.52D-12
 IDIUse=1 WtCom= 1.00D+00 WtEn= 0.00D+00
 Coeff-Com:  0.505D-07-0.295D-06 0.718D-06 0.771D-05 0.113D-04-0.531D-04
 Coeff-Com: -0.248D-03-0.379D-03 0.107D-02 0.287D-02 0.201D-02-0.161D-01
 Coeff-Com: -0.465D-01-0.255D-01 0.225D+00 0.858D+00
 Coeff:      0.505D-07-0.295D-06 0.718D-06 0.771D-05 0.113D-04-0.531D-04
 Coeff:     -0.248D-03-0.379D-03 0.107D-02 0.287D-02 0.201D-02-0.161D-01
 Coeff:     -0.465D-01-0.255D-01 0.225D+00 0.858D+00
 Gap=     0.246 Goal=   None    Shift=    0.000
 RMSDP=4.43D-09 MaxDP=1.25D-07 DE=-9.55D-12 OVMax= 5.55D-07

 Error on total polarization charges =  0.00834
 SCF Done:  E(RwB97XD) =  -1028.79454123     A.U. after   16 cycles
            NFock= 16  Conv=0.44D-08     -V/T= 2.0050
 KE= 1.023644154938D+03 PE=-4.614619900886D+03 EE= 1.460788470327D+03
 Leave Link  502 at Tue Jul 14 14:40:40 2020, MaxMem=  7784628224 cpu:             898.1 elap:              91.7
 (Enter /gpfs/loomis/apps/avx/software/Gaussian/16-C.01_AVX/g16/l801.exe)
 DoSCS=F DFT=T ScalE2(SS,OS)=  1.000000  1.000000
 ExpMin= 1.22D-01 ExpMax= 1.11D+05 ExpMxC= 1.07D+03 IAcc=3 IRadAn=         5 AccDes= 0.00D+00
 HarFok:  IExCor=  205 AccDes= 0.00D+00 IRadAn=         5 IDoV=-2 UseB2=F ITyADJ=14
 ICtDFT= 12500011 ScaDFX=  1.000000  1.000000  1.000000  1.000000
 Largest valence mixing into a core orbital is  9.40D-05
 Largest core mixing into a valence orbital is  3.20D-05
 Range of M.O.s used for correlation:    21   273
 NBasis=   273 NAE=    59 NBE=    59 NFC=    20 NFV=     0
 NROrb=    253 NOA=    39 NOB=    39 NVA=   214 NVB=   214

 **** Warning!!: The largest alpha MO coefficient is  0.11215285D+02

 Leave Link  801 at Tue Jul 14 14:40:41 2020, MaxMem=  7784628224 cpu:               1.0 elap:               0.1
 (Enter /gpfs/loomis/apps/avx/software/Gaussian/16-C.01_AVX/g16/l914.exe)
 RHF ground state
 Keep R1, R2, and R3 ints in memory in canonical form, NReq=4262515490.
 FoFCou: FMM=F IPFlag=           0 FMFlag=           0 FMFlg1=           0
         NFxFlg=           0 DoJE=F BraDBF=F KetDBF=F FulRan=T
         wScrn=  0.000000 ICntrl=       600 IOpCl=  0 I1Cent=           0 NGrid=           0
         NMat0=    1 NMatS0=  37401 NMatT0=    0 NMatD0=    1 NMtDS0=    0 NMtDT0=    0
 Symmetry not used in FoFCou.
 Two-electron integral symmetry not used.
 MDV=  7784628224 DFT=T DoStab=F Mixed=T DoRPA=T DoScal=F NonHer=T
 NEqPCM:  Using equilibrium solvation (IEInf=0, Eps=   2.2280, EpsInf=   2.1319)
 Making orbital integer symmetry assigments:
    12 initial guesses have been made.
 Convergence on wavefunction:    0.000001000000000
 Davidson Disk Diagonalization:  ConvIn= 1.00D-06 SkipCon=T Conv= 1.00D-06.
 Max sub-space:  2000 roots to seek:    12 dimension of matrix:        16692
 Iteration     1 Dimension    12 NMult     0 NNew     12
 CISAX will form    12 AO SS matrices at one time.
 NMat=    12 NSing=    12 JSym2X= 0.
 New state      2 was old state      4
 New state      3 was old state      2
 Excitation Energies [eV] at current iteration:
 Root      1 :     3.548120985183889
 Root      2 :     4.161486665806443
 Root      3 :     4.871919530253352
 Root      4 :     5.288128076863261
 Root      5 :     5.585546930012934
 Root      6 :     5.774518451106751
 Root      7 :     6.043776818259853
 Root      8 :     6.465215629742411
 Root      9 :     6.820241791480417
 Root     10 :     6.939912687646578
 Root     11 :     7.139752296496433
 Root     12 :     7.525058108396442
 Iteration     2 Dimension    18 NMult    12 NNew      6
 CISAX will form     6 AO SS matrices at one time.
 NMat=     6 NSing=     6 JSym2X= 0.
 Root      1 not converged, maximum delta is    0.045067713846599
 Root      2 not converged, maximum delta is    0.105159491698642
 Root      3 not converged, maximum delta is    0.058510606409435
 Excitation Energies [eV] at current iteration:
 Root      1 :     3.039045745895935   Change is   -0.509075239287954
 Root      2 :     3.957655569415312   Change is   -0.203831096391131
 Root      3 :     4.323050843540882   Change is   -0.548868686712470
 Iteration     3 Dimension    24 NMult    18 NNew      6
 CISAX will form     6 AO SS matrices at one time.
 NMat=     6 NSing=     6 JSym2X= 0.
 Root      1 not converged, maximum delta is    0.016775244220103
 Root      2 not converged, maximum delta is    0.031906911391612
 Root      3 not converged, maximum delta is    0.015896651549432
 Excitation Energies [eV] at current iteration:
 Root      1 :     3.008408731612973   Change is   -0.030637014282963
 Root      2 :     3.938013679375989   Change is   -0.019641890039323
 Root      3 :     4.294442831820794   Change is   -0.028608011720088
 Iteration     4 Dimension    30 NMult    24 NNew      6
 CISAX will form     6 AO SS matrices at one time.
 NMat=     6 NSing=     6 JSym2X= 0.
 Root      1 not converged, maximum delta is    0.008384887968067
 Root      2 not converged, maximum delta is    0.011063982320649
 Root      3 not converged, maximum delta is    0.018763236255763
 Excitation Energies [eV] at current iteration:
 Root      1 :     3.003084131584024   Change is   -0.005324600028949
 Root      2 :     3.936068240435813   Change is   -0.001945438940176
 Root      3 :     4.287183191596783   Change is   -0.007259640224012
 Iteration     5 Dimension    36 NMult    30 NNew      6
 CISAX will form     6 AO SS matrices at one time.
 NMat=     6 NSing=     6 JSym2X= 0.
 Root      1 not converged, maximum delta is    0.002243306865318
 Root      2 not converged, maximum delta is    0.001811991982771
 Root      3 not converged, maximum delta is    0.009075314372175
 Excitation Energies [eV] at current iteration:
 Root      1 :     3.002527046825430   Change is   -0.000557084758594
 Root      2 :     3.935921793148000   Change is   -0.000146447287813
 Root      3 :     4.285775159527293   Change is   -0.001408032069490
 Iteration     6 Dimension    42 NMult    36 NNew      6
 CISAX will form     6 AO SS matrices at one time.
 NMat=     6 NSing=     6 JSym2X= 0.
 Root      1 not converged, maximum delta is    0.000522123752399
 Root      2 not converged, maximum delta is    0.000324026955950
 Root      3 not converged, maximum delta is    0.003114759512066
 Excitation Energies [eV] at current iteration:
 Root      1 :     3.002474516004329   Change is   -0.000052530821101
 Root      2 :     3.935913774019874   Change is   -0.000008019128127
 Root      3 :     4.285544511894464   Change is   -0.000230647632829
 Iteration     7 Dimension    48 NMult    42 NNew      6
 CISAX will form     6 AO SS matrices at one time.
 NMat=     6 NSing=     6 JSym2X= 0.
 Root      1 not converged, maximum delta is    0.000116684700445
 Root      2 not converged, maximum delta is    0.000134070862755
 Root      3 not converged, maximum delta is    0.000550516384172
 Excitation Energies [eV] at current iteration:
 Root      1 :     3.002471501402106   Change is   -0.000003014602224
 Root      2 :     3.935913078527572   Change is   -0.000000695492302
 Root      3 :     4.285519645249851   Change is   -0.000024866644612
 Iteration     8 Dimension    54 NMult    48 NNew      6
 CISAX will form     6 AO SS matrices at one time.
 NMat=     6 NSing=     6 JSym2X= 0.
 Root      1 not converged, maximum delta is    0.000030174682042
 Root      2 not converged, maximum delta is    0.000022166440952
 Root      3 not converged, maximum delta is    0.000112599615390
 Excitation Energies [eV] at current iteration:
 Root      1 :     3.002471289397239   Change is   -0.000000212004867
 Root      2 :     3.935913035375359   Change is   -0.000000043152213
 Root      3 :     4.285517547493550   Change is   -0.000002097756301
 Iteration     9 Dimension    60 NMult    54 NNew      6
 CISAX will form     6 AO SS matrices at one time.
 NMat=     6 NSing=     6 JSym2X= 0.
 Root      1 not converged, maximum delta is    0.000012622862528
 Root      2 not converged, maximum delta is    0.000003254181069
 Root      3 not converged, maximum delta is    0.000046876921927
 Excitation Energies [eV] at current iteration:
 Root      1 :     3.002471273161749   Change is   -0.000000016235489
 Root      2 :     3.935913033276097   Change is   -0.000000002099262
 Root      3 :     4.285517353560795   Change is   -0.000000193932754
 Iteration    10 Dimension    66 NMult    60 NNew      6
 CISAX will form     6 AO SS matrices at one time.
 NMat=     6 NSing=     6 JSym2X= 0.
 Root      1 not converged, maximum delta is    0.000002835534604
 Root      2 not converged, maximum delta is    0.000001754341701
 Root      3 not converged, maximum delta is    0.000017868781080
 Excitation Energies [eV] at current iteration:
 Root      1 :     3.002471271582775   Change is   -0.000000001578975
 Root      2 :     3.935913033136596   Change is   -0.000000000139501
 Root      3 :     4.285517336975393   Change is   -0.000000016585403
 Iteration    11 Dimension    72 NMult    66 NNew      6
 CISAX will form     6 AO SS matrices at one time.
 NMat=     6 NSing=     6 JSym2X= 0.
 Root      1 has converged.
 Root      2 has converged.
 Root      3 not converged, maximum delta is    0.000009256258100
 Excitation Energies [eV] at current iteration:
 Root      1 :     3.002471271506412   Change is   -0.000000000076362
 Root      2 :     3.935913033117839   Change is   -0.000000000018756
 Root      3 :     4.285517334848768   Change is   -0.000000002126625
 Iteration    12 Dimension    74 NMult    72 NNew      2
 CISAX will form     2 AO SS matrices at one time.
 NMat=     2 NSing=     2 JSym2X= 0.
 Root      1 has converged.
 Root      2 has converged.
 Root      3 not converged, maximum delta is    0.000002020620459
 Excitation Energies [eV] at current iteration:
 Root      1 :     3.002471271505536   Change is   -0.000000000000876
 Root      2 :     3.935913033117798   Change is   -0.000000000000042
 Root      3 :     4.285517334663963   Change is   -0.000000000184805
 Iteration    13 Dimension    76 NMult    74 NNew      2
 CISAX will form     2 AO SS matrices at one time.
 NMat=     2 NSing=     2 JSym2X= 0.
 Root      1 has converged.
 Root      2 has converged.
 Root      3 has converged.
 Excitation Energies [eV] at current iteration:
 Root      1 :     3.002471271505481   Change is   -0.000000000000055
 Root      2 :     3.935913033117798   Change is    0.000000000000000
 Root      3 :     4.285517334649096   Change is   -0.000000000014867
 Convergence achieved on expansion vectors.
 ***********************************************************************
 Excited states from <AA,BB:AA,BB> singles matrix:
 ***********************************************************************
 
 1PDM for each excited state written to RWF  633
 Ground to excited state transition densities written to RWF  633
 Ground to excited state transition electric dipole moments (Au):
       state          X           Y           Z        Dip. S.      Osc.
         1         1.2076     -2.1415     -0.0000      6.0443      0.4446
         2         0.0000      0.0000      0.0034      0.0000      0.0000
         3        -1.4848      0.8655      0.0000      2.9539      0.3101
 Ground to excited state transition velocity dipole moments (Au):
       state          X           Y           Z        Dip. S.      Osc.
         1        -0.1296      0.2403      0.0000      0.0745      0.4503
         2        -0.0000     -0.0000      0.0008      0.0000      0.0000
         3         0.2295     -0.1278     -0.0000      0.0690      0.2921
 Ground to excited state transition magnetic dipole moments (Au):
       state          X           Y           Z
         1         0.0000      0.0000     -0.9621
         2         0.2678      0.0270      0.0000
         3        -0.0000     -0.0000     -1.3131
 Ground to excited state transition velocity quadrupole moments (Au):
       state          XX          YY          ZZ          XY          XZ          YZ
         1         0.0801      0.6072     -0.0146     -0.2869     -0.0000      0.0000
         2         0.0000     -0.0000      0.0000      0.0000     -0.0128      0.0123
         3        -0.5256      0.6563      0.0051      0.0401      0.0000      0.0000
 <0|del|b> * <b|rxdel|0> + <0|del|b> * <b|delr+rdel|0>
 Rotatory Strengths (R) in cgs (10**-40 erg-esu-cm/Gauss)
       state          XX          YY          ZZ    R(velocity)    E-M Angle
         1         0.0024     -0.0155      0.0143      0.0004       90.00
         2        -0.0001     -0.0035     -0.0034     -0.0023       90.00
         3         0.0085      0.0087     -0.0044      0.0042       90.00
 1/2[<0|r|b>*<b|rxdel|0> + (<0|rxdel|b>*<b|r|0>)*]
 Rotatory Strengths (R) in cgs (10**-40 erg-esu-cm/Gauss)
       state          XX          YY          ZZ     R(length)
         1        -0.0057      0.0287     -0.0232     -0.0001
         2        -0.0067     -0.0002     -0.0001     -0.0023
         3        -0.0008      0.0002      0.0145      0.0046
  1/2[<0|del|b>*<b|r|0> + (<0|r|b>*<b|del|0>)*] (Au)
       state          X           Y           Z        Dip. S.   Osc.(frdel)
         1        -0.1565     -0.5146     -0.0000      0.6711      0.4474
         2        -0.0000     -0.0000      0.0000     -0.0000     -0.0000
         3        -0.3408     -0.1106     -0.0000      0.4514      0.3009

 Excitation energies and oscillator strengths:
 
 Excited state symmetry could not be determined.
 Excited State   1:      Singlet-?Sym    3.0025 eV  412.94 nm  f=0.4446  <S**2>=0.000
      59 -> 60         0.69599
 This state for optimization and/or second-order correction.
 Total Energy, E(TD-HF/TD-DFT) =  -1028.68420244    
 Copying the excited state density for this state as the 1-particle RhoCI density.
 
 Excited state symmetry could not be determined.
 Excited State   2:      Singlet-?Sym    3.9359 eV  315.01 nm  f=0.0000  <S**2>=0.000
      57 -> 60         0.68503
      57 -> 62         0.11239
      57 -> 64         0.11682
 
 Excited state symmetry could not be determined.
 Excited State   3:      Singlet-?Sym    4.2855 eV  289.31 nm  f=0.3101  <S**2>=0.000
      58 -> 60         0.68152
 SavETr:  write IOETrn=   770 NScale= 10 NData=  16 NLR=1 NState=    3 LETran=      64.
 The selected state is a singlet.
 CISGrd: IGrad=2 NXY=2 DFT=T
 CISAX will form     1 AO SS matrices at one time.
 NMat=     1 NSing=     1 JSym2X= 0.
 GePol: Maximum number of non-zero 1st derivatives   =     240
 Leave Link  914 at Tue Jul 14 14:43:49 2020, MaxMem=  7784628224 cpu:            1852.5 elap:             188.1
 (Enter /gpfs/loomis/apps/avx/software/Gaussian/16-C.01_AVX/g16/l1002.exe)
 Minotr:  Closed shell wavefunction.
          Computing CIS/TDA/TD derivatives.
          Using Z-Vector for PSCF gradient.
          Skipping F1 and S1 gradient terms here.
          IDoAtm=1111111111111111111111111
 NEqPCM:  Using equilibrium solvation (IEInf=0, Eps=   2.2280, EpsInf=   2.1319)
          Frozen-core window.
          Direct CPHF calculation.
          Differentiating once with respect to electric field.
                with respect to dipole field.
          Differentiating once with respect to nuclear coordinates.
          Requested convergence is 1.0D-10 RMS, and 1.0D-09 maximum.
          NewPWx=F KeepS1=T KeepF1=T KeepIn=T MapXYZ=F SortEE=F KeepMc=T.
 Keep R1 ints in memory in canonical form, NReq=1421424819.
 FoFCou: FMM=F IPFlag=           0 FMFlag=           0 FMFlg1=           0
         NFxFlg=           0 DoJE=F BraDBF=F KetDBF=F FulRan=T
         wScrn=  0.000000 ICntrl=       600 IOpCl=  0 I1Cent=           0 NGrid=           0
         NMat0=    1 NMatS0=  37401 NMatT0=    0 NMatD0=    1 NMtDS0=    0 NMtDT0=    0
 Symmetry not used in FoFCou.
 Two-electron integral symmetry not used.
          MDV=    7784628224 using IRadAn=       5.
          Solving linear equations separately, MaxMat=       0.
          There are     1 degrees of freedom in the 1st order CPHF.  IDoFFX=0 NUNeed=     1.
 LinEq1:  Iter=  0 NonCon=     1 RMS=6.39D-03 Max=4.46D-01 NDo=     1
 AX will form     1 AO Fock derivatives at one time.
 LinEq1:  Iter=  1 NonCon=     1 RMS=2.88D-03 Max=1.63D-01 NDo=     1
 LinEq1:  Iter=  2 NonCon=     1 RMS=1.67D-03 Max=4.88D-02 NDo=     1
 LinEq1:  Iter=  3 NonCon=     1 RMS=6.91D-04 Max=1.75D-02 NDo=     1
 LinEq1:  Iter=  4 NonCon=     1 RMS=3.89D-04 Max=1.33D-02 NDo=     1
 LinEq1:  Iter=  5 NonCon=     1 RMS=1.96D-04 Max=6.96D-03 NDo=     1
 LinEq1:  Iter=  6 NonCon=     1 RMS=8.24D-05 Max=3.05D-03 NDo=     1
 LinEq1:  Iter=  7 NonCon=     1 RMS=4.37D-05 Max=1.50D-03 NDo=     1
 LinEq1:  Iter=  8 NonCon=     1 RMS=1.65D-05 Max=4.98D-04 NDo=     1
 LinEq1:  Iter=  9 NonCon=     1 RMS=9.15D-06 Max=2.76D-04 NDo=     1
 LinEq1:  Iter= 10 NonCon=     1 RMS=3.42D-06 Max=9.96D-05 NDo=     1
 LinEq1:  Iter= 11 NonCon=     1 RMS=2.03D-06 Max=8.82D-05 NDo=     1
 LinEq1:  Iter= 12 NonCon=     1 RMS=1.03D-06 Max=3.50D-05 NDo=     1
 LinEq1:  Iter= 13 NonCon=     1 RMS=4.24D-07 Max=1.04D-05 NDo=     1
 LinEq1:  Iter= 14 NonCon=     1 RMS=1.67D-07 Max=5.38D-06 NDo=     1
 LinEq1:  Iter= 15 NonCon=     1 RMS=8.94D-08 Max=2.54D-06 NDo=     1
 LinEq1:  Iter= 16 NonCon=     1 RMS=3.62D-08 Max=1.28D-06 NDo=     1
 LinEq1:  Iter= 17 NonCon=     1 RMS=1.62D-08 Max=5.22D-07 NDo=     1
 LinEq1:  Iter= 18 NonCon=     1 RMS=6.71D-09 Max=1.54D-07 NDo=     1
 LinEq1:  Iter= 19 NonCon=     1 RMS=3.19D-09 Max=1.14D-07 NDo=     1
 LinEq1:  Iter= 20 NonCon=     1 RMS=1.49D-09 Max=3.74D-08 NDo=     1
 LinEq1:  Iter= 21 NonCon=     1 RMS=4.39D-10 Max=1.34D-08 NDo=     1
 LinEq1:  Iter= 22 NonCon=     1 RMS=1.85D-10 Max=5.30D-09 NDo=     1
 LinEq1:  Iter= 23 NonCon=     1 RMS=8.06D-11 Max=1.63D-09 NDo=     1
 LinEq1:  Iter= 24 NonCon=     0 RMS=2.54D-11 Max=7.22D-10 NDo=     1
 Linear equations converged to 1.000D-10 1.000D-09 after    24 iterations.
 End of Minotr F.D. properties file   721 does not exist.
 End of Minotr F.D. properties file   722 does not exist.
 End of Minotr F.D. properties file   788 does not exist.
 Leave Link 1002 at Tue Jul 14 14:45:30 2020, MaxMem=  7784628224 cpu:             770.0 elap:             101.8
 (Enter /gpfs/loomis/apps/avx/software/Gaussian/16-C.01_AVX/g16/l601.exe)
 Copying SCF densities to generalized density rwf, IOpCl= 0 IROHF=0.

 **********************************************************************

            Population analysis using the SCF Density.

 **********************************************************************

 Alpha  occ. eigenvalues --  -89.09919 -19.21795 -14.51504 -10.41073 -10.38048
 Alpha  occ. eigenvalues --  -10.36238 -10.36084 -10.33329 -10.33227 -10.32629
 Alpha  occ. eigenvalues --  -10.32479 -10.31911 -10.31436 -10.30720 -10.29761
 Alpha  occ. eigenvalues --  -10.29217  -8.12059  -6.06906  -6.06554  -6.06088
 Alpha  occ. eigenvalues --   -1.12918  -1.09488  -0.98004  -0.95842  -0.93169
 Alpha  occ. eigenvalues --   -0.89031  -0.86576  -0.83403  -0.81677  -0.76077
 Alpha  occ. eigenvalues --   -0.72729  -0.71838  -0.68271  -0.67786  -0.65119
 Alpha  occ. eigenvalues --   -0.60898  -0.59480  -0.57037  -0.55539  -0.55294
 Alpha  occ. eigenvalues --   -0.54711  -0.53945  -0.52907  -0.50253  -0.49470
 Alpha  occ. eigenvalues --   -0.48923  -0.48276  -0.46784  -0.45201  -0.45039
 Alpha  occ. eigenvalues --   -0.44127  -0.43290  -0.42242  -0.40374  -0.36658
 Alpha  occ. eigenvalues --   -0.33291  -0.32762  -0.31303  -0.26566
 Alpha virt. eigenvalues --   -0.01947   0.03777   0.05486   0.06872   0.08767
 Alpha virt. eigenvalues --    0.10529   0.14382   0.14889   0.16864   0.17507
 Alpha virt. eigenvalues --    0.18607   0.20218   0.21034   0.21184   0.22765
 Alpha virt. eigenvalues --    0.23376   0.24091   0.25235   0.27955   0.28160
 Alpha virt. eigenvalues --    0.31639   0.33563   0.35113   0.35309   0.36392
 Alpha virt. eigenvalues --    0.37759   0.38745   0.40477   0.41437   0.43190
 Alpha virt. eigenvalues --    0.47106   0.47385   0.50847   0.51153   0.51445
 Alpha virt. eigenvalues --    0.52299   0.52858   0.53277   0.53961   0.54682
 Alpha virt. eigenvalues --    0.56124   0.56382   0.56669   0.56689   0.57760
 Alpha virt. eigenvalues --    0.57934   0.58475   0.59013   0.59392   0.59864
 Alpha virt. eigenvalues --    0.61184   0.61277   0.61909   0.62704   0.63189
 Alpha virt. eigenvalues --    0.65055   0.66089   0.66901   0.67928   0.68682
 Alpha virt. eigenvalues --    0.70725   0.70759   0.71904   0.72859   0.72891
 Alpha virt. eigenvalues --    0.73835   0.74548   0.75485   0.75728   0.77891
 Alpha virt. eigenvalues --    0.78466   0.79430   0.80263   0.80640   0.82600
 Alpha virt. eigenvalues --    0.84585   0.87476   0.90535   0.91081   0.92980
 Alpha virt. eigenvalues --    0.94233   0.94334   0.96029   0.96435   0.96942
 Alpha virt. eigenvalues --    0.98200   0.98703   1.00383   1.00862   1.01333
 Alpha virt. eigenvalues --    1.02499   1.05232   1.05357   1.06312   1.07267
 Alpha virt. eigenvalues --    1.07797   1.09797   1.09917   1.10145   1.10651
 Alpha virt. eigenvalues --    1.12166   1.12850   1.14289   1.14842   1.14985
 Alpha virt. eigenvalues --    1.16329   1.19707   1.20153   1.22220   1.23542
 Alpha virt. eigenvalues --    1.25478   1.28508   1.31833   1.32879   1.34006
 Alpha virt. eigenvalues --    1.36409   1.36805   1.38912   1.40668   1.46743
 Alpha virt. eigenvalues --    1.48617   1.49874   1.52914   1.54262   1.54273
 Alpha virt. eigenvalues --    1.56420   1.56942   1.56946   1.58255   1.58537
 Alpha virt. eigenvalues --    1.60453   1.60652   1.64741   1.65072   1.66966
 Alpha virt. eigenvalues --    1.67109   1.69360   1.69918   1.70547   1.71280
 Alpha virt. eigenvalues --    1.71422   1.72103   1.73301   1.73523   1.75300
 Alpha virt. eigenvalues --    1.77369   1.79476   1.80113   1.80375   1.81269
 Alpha virt. eigenvalues --    1.82441   1.83768   1.84028   1.85030   1.85082
 Alpha virt. eigenvalues --    1.87137   1.88350   1.88408   1.91082   1.91337
 Alpha virt. eigenvalues --    1.92501   1.93625   1.94419   1.95394   1.96860
 Alpha virt. eigenvalues --    1.97906   1.98824   1.99453   2.02883   2.03480
 Alpha virt. eigenvalues --    2.06069   2.07456   2.09286   2.10032   2.13934
 Alpha virt. eigenvalues --    2.16710   2.17077   2.19663   2.20721   2.23031
 Alpha virt. eigenvalues --    2.25940   2.26363   2.31325   2.36323   2.39097
 Alpha virt. eigenvalues --    2.41630   2.41995   2.45504   2.47332   2.47716
 Alpha virt. eigenvalues --    2.50705   2.51048   2.51438   2.54408   2.60832
 Alpha virt. eigenvalues --    2.61264   2.70591   2.73656   2.74289   2.77666
 Alpha virt. eigenvalues --    2.79998   2.82037   2.84630   2.85346   2.88410
 Alpha virt. eigenvalues --    2.90709   3.00288   3.14771   3.23096   3.42949
 Alpha virt. eigenvalues --    3.46608   3.54184   3.59687   3.73933
          Condensed to atoms (all electrons):
               1          2          3          4          5          6
     1  C    4.740722   0.491925   0.005271  -0.051556  -0.015451   0.511001
     2  C    0.491925   5.296057   0.321669  -0.043564  -0.068363  -0.008132
     3  C    0.005271   0.321669   4.891106   0.500116  -0.003659  -0.062247
     4  C   -0.051556  -0.043564   0.500116   4.790522   0.516979  -0.011273
     5  C   -0.015451  -0.068363  -0.003659   0.516979   4.736209   0.496541
     6  C    0.511001  -0.008132  -0.062247  -0.011273   0.496541   4.737272
     7  H    0.402938  -0.037652   0.008605  -0.000654   0.007812  -0.038922
     8  H   -0.000537   0.010190  -0.032513   0.396500  -0.039668   0.007272
     9  H    0.008860  -0.000673   0.008279  -0.037830   0.404866  -0.044240
    10  H   -0.042389   0.009131  -0.000458   0.008047  -0.041457   0.407092
    11  N    0.004118  -0.038805   0.355992  -0.045616   0.002452   0.000144
    12  S   -0.072538   0.326125  -0.115991   0.005491   0.000269   0.004295
    13  C   -0.000227   0.000879   0.010675  -0.000386   0.000008   0.000004
    14  C   -0.000012   0.000170   0.000475   0.000007  -0.000000  -0.000000
    15  C    0.000005  -0.000287   0.000196   0.000031  -0.000000   0.000000
    16  C    0.000000  -0.000009   0.000004  -0.000000   0.000000  -0.000000
    17  H   -0.000016   0.000278  -0.000003   0.000001  -0.000000   0.000000
    18  C    0.000000   0.000008  -0.000014  -0.000000   0.000000  -0.000000
    19  C   -0.000000   0.000000   0.000001   0.000000  -0.000000   0.000000
    20  H   -0.000000  -0.000000  -0.000000  -0.000000  -0.000000  -0.000000
    21  H   -0.000000  -0.000000  -0.000001  -0.000000  -0.000000   0.000000
    22  H    0.000000  -0.000000  -0.000000  -0.000000   0.000000  -0.000000
    23  C    0.003605  -0.045074  -0.117029   0.000828   0.000250  -0.000235
    24  O    0.000002  -0.000138  -0.000350  -0.000003   0.000000  -0.000000
    25  H    0.000125   0.007874  -0.035049  -0.002822  -0.000057  -0.000005
               7          8          9         10         11         12
     1  C    0.402938  -0.000537   0.008860  -0.042389   0.004118  -0.072538
     2  C   -0.037652   0.010190  -0.000673   0.009131  -0.038805   0.326125
     3  C    0.008605  -0.032513   0.008279  -0.000458   0.355992  -0.115991
     4  C   -0.000654   0.396500  -0.037830   0.008047  -0.045616   0.005491
     5  C    0.007812  -0.039668   0.404866  -0.041457   0.002452   0.000269
     6  C   -0.038922   0.007272  -0.044240   0.407092   0.000144   0.004295
     7  H    0.646338   0.000027  -0.000150  -0.010493  -0.000077  -0.007930
     8  H    0.000027   0.637844  -0.012039  -0.000097  -0.003137  -0.000231
     9  H   -0.000150  -0.012039   0.654689  -0.011732  -0.000089   0.000018
    10  H   -0.010493  -0.000097  -0.011732   0.652909   0.000004  -0.000163
    11  N   -0.000077  -0.003137  -0.000089   0.000004   6.153280  -0.052892
    12  S   -0.007930  -0.000231   0.000018  -0.000163  -0.052892  15.459248
    13  C   -0.000004   0.000024  -0.000000  -0.000000  -0.028888  -0.067229
    14  C    0.000002   0.000000   0.000000  -0.000000   0.003582  -0.014674
    15  C   -0.000000  -0.000004   0.000000   0.000000  -0.007957   0.005587
    16  C    0.000000   0.000000  -0.000000  -0.000000  -0.000066   0.000551
    17  H    0.000001   0.000000   0.000000  -0.000000   0.000230   0.008873
    18  C    0.000000  -0.000000   0.000000  -0.000000  -0.000461  -0.000229
    19  C   -0.000000   0.000000  -0.000000  -0.000000   0.000027   0.000026
    20  H    0.000000   0.000000   0.000000   0.000000   0.000001   0.000018
    21  H   -0.000000   0.000000  -0.000000   0.000000   0.000011   0.000005
    22  H    0.000000  -0.000000   0.000000  -0.000000  -0.000000  -0.000001
    23  C    0.000235  -0.000611   0.000006   0.000006   0.530484   0.316163
    24  O    0.000000  -0.000105   0.000000  -0.000000  -0.057729  -0.000088
    25  H    0.000004   0.000640  -0.000005  -0.000000   0.322440   0.004668
              13         14         15         16         17         18
     1  C   -0.000227  -0.000012   0.000005   0.000000  -0.000016   0.000000
     2  C    0.000879   0.000170  -0.000287  -0.000009   0.000278   0.000008
     3  C    0.010675   0.000475   0.000196   0.000004  -0.000003  -0.000014
     4  C   -0.000386   0.000007   0.000031  -0.000000   0.000001  -0.000000
     5  C    0.000008  -0.000000  -0.000000   0.000000  -0.000000   0.000000
     6  C    0.000004  -0.000000   0.000000  -0.000000   0.000000  -0.000000
     7  H   -0.000004   0.000002  -0.000000   0.000000   0.000001   0.000000
     8  H    0.000024   0.000000  -0.000004   0.000000   0.000000  -0.000000
     9  H   -0.000000   0.000000   0.000000  -0.000000   0.000000   0.000000
    10  H   -0.000000  -0.000000   0.000000  -0.000000  -0.000000  -0.000000
    11  N   -0.028888   0.003582  -0.007957  -0.000066   0.000230  -0.000461
    12  S   -0.067229  -0.014674   0.005587   0.000551   0.008873  -0.000229
    13  C    5.425234   0.427835   0.197244  -0.008296  -0.036876  -0.040299
    14  C    0.427835   4.877474   0.005421   0.537657   0.396567  -0.058795
    15  C    0.197244   0.005421   4.734955  -0.052615   0.005569   0.460759
    16  C   -0.008296   0.537657  -0.052615   4.756556  -0.030251  -0.020149
    17  H   -0.036876   0.396567   0.005569  -0.030251   0.660268  -0.000736
    18  C   -0.040299  -0.058795   0.460759  -0.020149  -0.000736   4.900805
    19  C   -0.053689  -0.020340  -0.004902   0.481152   0.007648   0.504415
    20  H    0.008870  -0.036048  -0.000161   0.400261  -0.011367   0.007933
    21  H    0.015002  -0.000674  -0.025850   0.007411   0.000048   0.374169
    22  H   -0.001714   0.009829   0.008440  -0.045174  -0.000189  -0.040099
    23  C    0.372476  -0.089090  -0.075217   0.005901  -0.022929   0.009825
    24  O   -0.099849   0.006477   0.627783  -0.000158  -0.000070  -0.061940
    25  H   -0.035695  -0.000903  -0.014298   0.000059  -0.000087   0.003378
              19         20         21         22         23         24
     1  C   -0.000000  -0.000000  -0.000000   0.000000   0.003605   0.000002
     2  C    0.000000  -0.000000  -0.000000  -0.000000  -0.045074  -0.000138
     3  C    0.000001  -0.000000  -0.000001  -0.000000  -0.117029  -0.000350
     4  C    0.000000  -0.000000  -0.000000  -0.000000   0.000828  -0.000003
     5  C   -0.000000  -0.000000  -0.000000   0.000000   0.000250   0.000000
     6  C    0.000000  -0.000000   0.000000  -0.000000  -0.000235  -0.000000
     7  H   -0.000000   0.000000  -0.000000   0.000000   0.000235   0.000000
     8  H    0.000000   0.000000   0.000000  -0.000000  -0.000611  -0.000105
     9  H   -0.000000   0.000000  -0.000000   0.000000   0.000006   0.000000
    10  H   -0.000000   0.000000   0.000000  -0.000000   0.000006  -0.000000
    11  N    0.000027   0.000001   0.000011  -0.000000   0.530484  -0.057729
    12  S    0.000026   0.000018   0.000005  -0.000001   0.316163  -0.000088
    13  C   -0.053689   0.008870   0.015002  -0.001714   0.372476  -0.099849
    14  C   -0.020340  -0.036048  -0.000674   0.009829  -0.089090   0.006477
    15  C   -0.004902  -0.000161  -0.025850   0.008440  -0.075217   0.627783
    16  C    0.481152   0.400261   0.007411  -0.045174   0.005901  -0.000158
    17  H    0.007648  -0.011367   0.000048  -0.000189  -0.022929  -0.000070
    18  C    0.504415   0.007933   0.374169  -0.040099   0.009825  -0.061940
    19  C    4.742829  -0.045827  -0.045591   0.403221   0.000582   0.003707
    20  H   -0.045827   0.682305  -0.000138  -0.012085  -0.000394   0.000001
    21  H   -0.045591  -0.000138   0.674265  -0.012340  -0.000473   0.004284
    22  H    0.403221  -0.012085  -0.012340   0.669872  -0.000001  -0.000062
    23  C    0.000582  -0.000394  -0.000473  -0.000001   5.068385  -0.009928
    24  O    0.003707   0.000001   0.004284  -0.000062  -0.009928   7.873728
    25  H   -0.000338  -0.000001   0.000002   0.000006   0.017023   0.126083
              25
     1  C    0.000125
     2  C    0.007874
     3  C   -0.035049
     4  C   -0.002822
     5  C   -0.000057
     6  C   -0.000005
     7  H    0.000004
     8  H    0.000640
     9  H   -0.000005
    10  H   -0.000000
[...]
 0.00000029,0.00829003,-0.00227876,0.00000009,0.00024270,0.00642692,0.0
 0000014,-0.00327423,-0.00274626,-0.00000006,0.00003258,0.00012834,0.,-
 0.00009348,-0.00011178,-0.00000002,-0.00004253,0.00010680,-0.00000001,
 -0.00006793,-0.00000966,0.00000001,0.00888396,-0.01354686,-0.00000037,
 0.00214619,-0.00299222,0.00000023,0.04938567,0.02279481,-0.00000107,0.
 04282040,-0.21527171,0.00000188,0.02402192,-0.00662858,-0.00000035,0.0
 4729881,0.63437064,0.00000003,0.00000002,-0.00001673,0.00000016,0.0000
 0008,0.00021268,0.00000022,-0.00000036,-0.00039285,-0.00000018,0.00000
 006,-0.00030755,0.,-0.00000011,0.00000437,0.00000002,0.00000006,-0.000
 00224,0.,0.,-0.00002672,0.,0.,-0.00001967,0.,0.,0.00002711,0.,0.,0.000
 03047,-0.00000024,0.00000027,0.00259028,-0.00000005,0.00000014,-0.0007
 6443,0.00000010,-0.00000062,0.00275734,0.00000058,0.00000136,-0.051597
 51,-0.00000088,0.00000001,-0.00494018,-0.00000697,-0.00001104,0.124725
 20,0.00029598,-0.00000491,0.,-0.00078630,0.00025746,0.,0.00034914,-0.0
 0020436,0.,-0.00005246,0.00013275,0.,0.00006965,-0.00006933,0.,-0.0000
 0265,-0.00005215,0.,-0.00001976,-0.00000986,0.,0.00003625,0.00000045,0
 .,0.00001224,-0.00000468,0.,0.00003875,-0.00001238,0.,0.00065145,0.000
 82019,-0.00000002,-0.00141237,0.00159214,0.00000041,-0.00265470,-0.028
 77371,0.00000037,-0.07786830,-0.07509669,0.00000195,-0.00468692,0.0027
 9739,0.00000019,0.00976895,0.02297164,-0.00000041,0.07984787,0.0001023
 4,-0.00001364,0.,-0.00005692,0.00085572,-0.00000007,0.00039413,-0.0000
 4693,0.00000002,0.00004702,0.00009773,0.00000002,0.00002456,0.00010624
 ,0.,-0.00014174,-0.00006405,0.,-0.00002452,0.00001220,0.,0.00003644,-0
 .00000719,0.,0.00000041,0.00000231,0.,0.00001023,0.00000039,0.,0.00010
 070,0.00051694,-0.00000005,0.00077522,-0.00113609,-0.00000029,0.000661
 88,-0.00507979,0.00000013,-0.07351630,-0.32025345,0.00000558,-0.000097
 12,0.00256934,0.00000016,-0.00919240,-0.01686098,0.00000041,0.07699997
 ,0.34081797,-0.00000003,0.,-0.00002238,0.00000002,-0.00000005,-0.00063
 876,-0.00000007,0.00000003,0.00050247,0.,-0.00000001,0.00014566,0.,-0.
 00000001,-0.00002020,0.00000002,0.,0.00001753,0.,0.,0.00002025,0.,0.,0
 .00000845,0.,0.,-0.00000471,0.,0.,0.00000045,-0.00000008,-0.00000025,-
 0.00237675,0.00000056,-0.00000048,0.00222222,-0.00000043,0.00000063,0.
 00601595,0.00000249,0.00000586,-0.03398921,0.00000008,-0.00000004,0.00
 880343,-0.00000020,0.00000030,0.00366004,-0.00000242,-0.00000583,0.019
 44095,-0.00065720,-0.00012910,-0.00000009,-0.00586596,-0.00313765,-0.0
 0000018,-0.00529469,0.01415232,0.00000053,0.00612558,-0.00176274,0.000
 00002,-0.00007753,0.00326035,0.00000005,-0.00010476,-0.00197090,-0.000
 00005,-0.00008131,0.00010698,0.00000001,0.00002413,-0.00004899,0.,0.00
 009160,0.00001335,0.,0.00005028,-0.00005344,0.00000002,0.01290964,-0.0
 0250765,-0.00000066,0.00004740,-0.00327649,0.00000025,0.02107005,0.017
 41959,-0.00000081,-0.03937452,0.01925154,0.00000036,-0.15565036,0.0882
 6337,-0.00000373,-0.00068339,-0.08211584,0.00000207,-0.00058697,-0.000
 09830,0.00000003,0.67371090,0.00048293,-0.00010820,0.,-0.00039432,-0.0
 0032177,0.,0.00046981,-0.00049716,0.,-0.00055839,0.00018631,0.,0.00011
 838,-0.00024015,0.,-0.00017406,0.00008471,0.,-0.00000873,0.00002152,0.
 ,-0.00000248,-0.00000111,0.,-0.00000456,-0.00000524,0.,0.00002498,-0.0
 0000169,0.,0.00065567,0.00039157,0.00000007,0.00154192,-0.00153442,-0.
 00000007,0.01870949,-0.02776172,0.00000086,0.00330440,-0.00030044,-0.0
 0000014,0.09314179,-0.22739008,0.00000504,-0.03484120,-0.01341090,0.00
 000073,-0.00028428,0.00064927,-0.00000008,0.04611361,0.71066214,0.,-0.
 00000004,0.00015239,0.,0.,0.00041342,-0.00000013,-0.00000009,0.0013339
 3,-0.00000002,0.,-0.00012623,0.,0.00000001,-0.00007354,-0.00000002,0.,
 -0.00009773,0.,0.,0.00011668,0.,0.,0.00006887,0.,0.,0.00000395,0.,0.,-
 0.00005118,-0.00000010,-0.00000055,-0.00388692,0.,-0.00000002,0.001462
 42,-0.00000041,0.00000033,0.01267167,0.00000023,-0.00000024,-0.0047621
 7,-0.00000389,0.00000489,-0.06630452,0.00000095,0.00000125,0.00658369,
 0.,-0.00000005,-0.00171700,-0.00000458,-0.00001789,0.10843540,0.000343
 02,0.00096445,0.00000010,0.00746995,0.00310630,0.00000027,0.00726783,-
 0.01637725,-0.00000039,-0.00746301,0.00217915,-0.00000006,0.00003557,-
 0.00465827,-0.00000009,0.00119677,0.00251468,0.00000005,0.00004100,-0.
 00008885,0.,0.00003701,0.00007388,0.00000002,-0.00006780,-0.00003401,0
 .00000001,-0.00000648,0.00004405,-0.00000002,-0.01421640,0.01026094,0.
 00000014,0.00037554,0.00194750,-0.00000024,-0.01281528,-0.01408777,0.0
 0000035,0.05592561,0.00980563,-0.00000081,-0.06008648,0.01239943,0.000
 00111,-0.13875494,0.00246802,0.00000063,-0.00341522,0.00456285,-0.0000
 0004,-0.32231443,-0.08544945,0.00000363,0.68669553,-0.00000494,0.00119
 321,0.00000007,0.00425044,0.00150783,0.00000005,0.00421720,-0.00757281
 ,-0.00000027,-0.00435448,0.00130942,-0.00000003,-0.00005995,-0.0032078
 7,-0.00000006,0.00142019,0.00124986,0.00000003,-0.00002665,-0.00004948
 ,0.,0.00006205,0.00003792,0.,0.00001578,-0.00005586,0.,0.00004446,0.00
 001539,0.,-0.00268575,0.00814208,0.00000062,-0.00175345,0.00111782,-0.
 00000008,-0.02886222,-0.01061457,0.00000063,0.06215207,-0.05447381,0.0
 0000077,-0.01016351,0.02463238,-0.00000030,-0.08958793,-0.30892788,0.0
 0000662,0.00328426,-0.00054951,-0.00000003,-0.02157005,-0.13544993,0.0
 0000264,-0.05551655,0.68573869,-0.00000002,0.,0.00013686,-0.00000013,-
 0.00000005,-0.00050136,-0.00000010,0.00000031,-0.00109137,0.00000015,-
 0.00000004,0.00007556,0.,0.00000008,0.00009253,-0.00000001,-0.00000003
 ,0.00001411,0.,0.,-0.00005607,0.,0.,-0.00011641,0.,0.,0.00000253,0.,0.
 ,0.00001456,0.00000015,-0.00000013,0.00141664,0.00000002,-0.00000013,0
 .00063020,0.00000079,0.00000038,-0.00154553,-0.00000163,0.00000121,0.0
 0874822,0.00000046,-0.00000104,0.00207654,0.00000279,0.00000614,-0.059
 33748,-0.00000001,0.00000003,0.00387490,0.00000232,0.00000301,-0.04956
 390,-0.00000202,-0.00001430,0.11434320,0.00005162,-0.00010996,0.,-0.00
 009700,0.00013671,0.,-0.00003500,-0.00009848,0.,0.00002501,0.00002370,
 0.,0.00000685,0.00009470,0.,-0.00014117,0.00000539,0.,0.00000663,0.000
 00517,0.,-0.00000275,-0.00000365,0.,-0.00001035,0.00000814,0.,-0.00000
 956,0.00000545,0.,-0.00021074,0.00043094,0.00000001,0.00007668,0.00000
 161,0.,-0.00052403,0.00371422,-0.00000002,-0.01578908,-0.00984361,0.00
 000037,0.00051609,0.00046799,-0.00000002,-0.32413512,-0.07993516,0.000
 00418,0.00068620,0.00010551,-0.00000002,0.00157973,-0.00099533,0.00000
 007,-0.00246876,0.00196170,0.,0.34077971,0.00002239,-0.00002184,0.,-0.
 00010237,-0.00008057,0.,0.00000598,0.00024721,0.00000002,0.00007306,-0
 .00006650,0.,0.00001515,0.00006779,0.,-0.00003739,-0.00003499,0.,0.000
 00111,-0.00000075,0.,-0.00000164,-0.00000031,0.,0.00000121,-0.00000266
 ,0.,0.00000048,-0.00000076,0.,0.00035714,-0.00041389,-0.00000003,0.000
 03969,0.00003299,0.,0.00349900,-0.00335399,0.00000008,0.02106025,0.009
 23678,-0.00000026,0.00076222,-0.00072721,-0.00000003,-0.08017800,-0.08
 334389,0.00000169,-0.00013209,0.00091160,-0.00000005,-0.00024890,-0.00
 547991,0.00000028,-0.02930544,-0.00165328,0.00000038,0.08515140,0.0826
 8767,0.,0.,-0.00002343,0.,0.,0.00008885,0.,-0.00000003,0.00043910,0.,0
 .,0.00008160,0.,0.,-0.00005857,0.,0.,0.00001043,0.,0.,0.00000959,0.,0.
 ,0.00003682,0.,0.,-0.00002010,0.,0.,-0.00000464,0.00000001,0.,0.000008
 02,0.,0.00000003,-0.00027289,0.00000003,0.00000014,0.00460094,-0.00000
 016,-0.00000007,0.00552487,-0.00000007,0.,-0.00151494,0.00000392,0.000
 00172,-0.03549389,-0.00000002,-0.00000006,-0.00252044,0.00000002,0.000
 00029,0.00630187,0.00000072,0.00000016,0.00612004,-0.00000451,-0.00000
 199,0.02196569,-0.00010483,0.00003606,0.,0.00010788,0.00005397,0.,-0.0
 0011415,0.00007617,0.,0.00003431,-0.00000450,0.,-0.00001812,-0.0000213
 8,0.,0.00006706,0.00000680,0.,0.00000076,-0.00000509,0.,-0.00000352,-0
 .00000013,0.,0.00000204,-0.00000099,0.,-0.00000349,-0.00000084,0.,0.00
 028268,-0.00029755,0.,-0.00030722,0.00017233,0.,-0.00411331,0.00287492
 ,-0.00000003,-0.00005645,0.00023407,0.00000001,0.00838147,0.02288108,-
 0.00000066,-0.00567221,-0.00016057,0.00000007,0.00010860,-0.00007417,0
 .,-0.07416531,-0.07145308,0.00000214,-0.00102570,-0.02866037,0.0000008
 7,-0.00025191,-0.00142579,0.00000003,0.07301937,0.00004875,0.00004460,
 -0.00000001,-0.00011762,-0.00009987,-0.00000001,0.00006850,0.00007109,
 0.,0.00000409,-0.00000612,0.,0.00000294,-0.00002785,0.,0.00004193,-0.0
 0002572,0.,-0.00000581,0.00000310,0.,0.00000695,0.00000218,0.,0.000007
 07,-0.00000316,0.,0.00000986,-0.00000361,0.,-0.00010761,0.00015021,0.0
 0000002,0.00020860,-0.00021957,-0.00000003,0.00403668,-0.00163628,0.00
 000016,0.00015092,0.00038795,-0.00000004,-0.01082512,-0.01650353,0.000
 00050,-0.00100384,0.00119750,0.00000020,-0.00004951,-0.00010154,0.,-0.
 06950101,-0.32950712,0.00000954,0.00243449,-0.00239078,0.00000015,0.00
 005425,-0.00024998,-0.00000001,0.07628959,0.34597241,-0.00000002,0.000
 00003,-0.00030657,0.00000008,0.00000001,-0.00020896,0.00000006,-0.0000
 0008,0.00006340,-0.00000005,0.00000002,-0.00000088,0.,-0.00000004,-0.0
 0003725,0.00000003,0.00000001,0.00006770,0.,0.,-0.00002801,0.,0.,0.000
 03494,0.,0.,-0.00000291,0.,0.,0.00005644,0.00000003,0.00000019,0.00051
 479,-0.00000007,0.00000003,-0.00076982,-0.00000027,-0.00000006,0.00320
 541,0.00000018,-0.00000006,-0.00013848,0.00000059,0.00000089,0.0037364
 0,0.00000006,0.00000028,0.00583344,0.,0.,0.00003864,0.00000225,0.00000
 918,-0.03171530,-0.00000013,0.00000022,0.00406267,0.,0.00000001,-0.000
 41421,-0.00000237,-0.00001025,0.02140601,0.00004627,-0.00004837,0.,-0.
 00004363,0.00010721,0.,0.00013613,-0.00005899,0.,-0.00002115,0.0000101
 6,0.,0.00001122,0.00003836,0.,-0.00007733,0.00000201,0.,0.00000154,0.0
 0000367,0.,0.00000266,-0.00000340,0.,-0.00000655,0.00000316,0.,-0.0000
 0432,0.00000400,0.,0.00011477,0.00052143,-0.00000001,-0.00003378,0.000
 11231,0.00000002,-0.00018917,-0.00058989,0.00000003,0.00069660,-0.0020
 4168,0.00000004,-0.00239046,-0.00411706,0.00000022,0.00837257,-0.00790
 376,0.00000016,0.00029515,-0.00031306,-0.00000001,-0.01552639,0.023139
 35,-0.00000065,-0.21009622,0.14482393,-0.00000292,0.00069198,0.0003574
 0,-0.00000002,0.00106127,-0.00027838,-0.00000003,0.21913419,-0.0000140
 3,0.00009815,0.,0.00022683,0.00010994,0.00000001,0.00024879,-0.0004585
 4,0.,-0.00023128,0.00007925,0.,-0.00000398,-0.00020446,0.,0.00012638,0
 .00007158,0.,-0.00000694,-0.00000477,0.,0.00000865,0.00000463,0.,0.000
 00601,-0.00000471,0.,0.00000851,-0.00000341,0.,-0.00033376,0.00025937,
 -0.00000003,-0.00011917,0.00002369,0.,-0.00080551,0.00013916,-0.000000
 01,-0.00248916,-0.00459846,0.00000030,-0.00252911,-0.00047865,0.000000
 20,0.02420279,-0.01440756,0.00000029,0.00112210,-0.00098737,0.,-0.0085
 6343,0.00932849,-0.00000019,0.14357011,-0.19479441,0.00000381,-0.00014
 573,0.00101983,-0.00000014,0.00032077,0.00064747,-0.00000011,-0.154306
 11,0.20341260,0.,-0.00000001,0.00000133,-0.00000005,-0.00000003,0.0000
 7369,-0.00000006,0.00000011,0.00011649,0.00000005,-0.00000002,0.000016
 00,0.,0.00000004,-0.00000331,-0.00000002,-0.00000002,-0.00000297,0.,0.
 ,0.00000517,0.,0.,0.00001693,0.,0.,-0.00000087,0.,0.,-0.00001152,0.000
 00008,-0.00000009,-0.00019197,0.00000002,0.00000001,-0.00013125,0.0000
 0005,0.00000009,-0.00105095,-0.00000004,0.00000032,0.00571885,0.000000
 30,0.00000010,0.00666845,-0.00000064,0.00000014,0.00286745,-0.00000003
 ,0.00000005,0.00069388,0.,-0.00000029,0.00358093,-0.00000268,0.0000040
 6,-0.03300268,-0.00000005,-0.00000011,-0.00389340,-0.00000002,-0.00000
 015,-0.00358046,0.00000317,-0.00000412,0.02295805,-0.00359581,-0.00637
 661,-0.00000019,-0.00776201,0.02075129,0.00000027,-0.06482752,0.044056
 58,0.00000115,0.00749222,-0.00322290,0.00000004,-0.00082525,0.00537446
 ,0.00000009,-0.00532164,-0.00176338,-0.00000002,0.00029658,-0.00060524
 ,-0.00000003,-0.00073210,-0.00008931,0.00000001,0.00011618,-0.00007496
 ,0.,-0.00066081,-0.00003647,-0.00000002,-0.35513947,-0.04783322,-0.000
 00446,-0.05090513,-0.05456765,-0.00000110,-0.19150979,0.09353400,0.000
 00114,-0.04686080,0.03078559,0.00000061,0.03732460,0.01959078,-0.00000
 069,-0.00274889,-0.01112345,0.00000017,0.00019589,0.00051310,0.0000002
 2,-0.00424273,-0.00452088,0.00000059,-0.00015021,0.00380670,-0.0000002
 8,-0.00066600,0.00057108,0.,0.00073048,-0.00100869,-0.00000008,0.00001
 883,-0.00002847,0.00000002,0.71605411,0.00001310,0.00085316,-0.0000000
 4,0.02776293,-0.02473764,-0.00000058,0.02660040,0.00694133,0.00000058,
 -0.00051955,-0.00699738,-0.00000026,-0.00062385,-0.00166926,-0.0000001
 1,0.00166223,-0.00063620,-0.00000003,-0.00001150,-0.00050180,0.,-0.000
 48181,0.00018781,0.00000005,0.00028914,-0.00055984,0.,-0.00015952,0.00
 003854,0.00000001,-0.03671587,-0.12145210,-0.00000293,-0.02173881,-0.1
 5839286,-0.00000308,0.08094430,-0.19445566,-0.00000205,0.02053602,0.01
 428597,-0.00000028,0.02184016,-0.04762492,-0.00000028,-0.00557821,0.00
 103940,0.00000027,-0.00221683,-0.00018671,-0.00000022,-0.01340881,-0.0
 0345469,0.00000015,0.00750853,0.00084279,-0.00000009,-0.00089682,0.001
 04448,-0.00000002,0.00072728,-0.00042868,0.00000012,-0.00001166,0.0003
 4276,-0.00000007,-0.07768180,0.53323558,0.00000008,-0.00000009,0.00123
 397,0.00000058,-0.00000049,-0.00053569,0.00000025,0.00000018,0.0066933
 8,-0.00000002,-0.00000024,0.00201192,0.00000002,0.00000003,0.00105683,
 -0.00000011,-0.00000004,0.00088547,0.,0.,-0.00048854,0.,0.00000002,-0.
 00055563,0.,0.,-0.00047526,0.,0.,-0.00021752,-0.00000228,-0.00000296,-
 0.03124853,-0.00000048,-0.00000333,-0.01993064,0.00000161,-0.00000183,
 -0.03443877,0.00000100,-0.00000028,0.00907729,-0.00000073,-0.00000059,
 0.00398281,-0.00000009,0.00000021,0.00358955,-0.00000007,-0.00000007,-
 0.00244406,-0.00000018,0.00000004,-0.00000985,0.00000039,-0.00000013,-
 0.00070879,-0.00000002,-0.00000002,-0.00096263,-0.00000001,0.00000010,
 0.00186576,-0.00000002,0.,-0.00020572,0.00000174,0.00001003,0.06139916
 ,-0.00012419,0.00129941,-0.00000002,-0.00090224,0.00122844,0.00000010,
 0.00714055,0.00082997,0.00000009,0.00011402,0.00004204,-0.00000002,-0.
 00013412,-0.00075301,-0.00000003,0.00137329,-0.00000911,0.,-0.00015800
 ,0.00019240,0.,0.00022538,0.00001300,0.00000001,0.00002758,0.00002448,
 0.,0.00006845,0.00000421,0.,0.00120146,0.02921943,-0.00000044,-0.00043
 107,-0.00088227,0.00000003,-0.02683943,-0.04851414,0.00000210,0.006632
 34,-0.00440136,0.00000011,-0.42727561,-0.10050791,0.00001297,-0.009982
 22,-0.00563237,0.00000028,-0.00119008,-0.00109344,0.00000001,-0.092318
 53,0.01125192,0.00000242,0.01310682,0.01554242,-0.00000040,-0.00016286
 ,-0.00049176,0.00000004,0.00210361,-0.00048550,-0.00000031,-0.00242345
 ,-0.00024362,-0.00000011,-0.01775614,0.00584601,0.00000030,0.54249142,
 -0.00045064,-0.00026276,0.,0.00003588,-0.00240638,-0.00000014,-0.00699
 129,0.00151936,0.00000011,0.00090440,-0.00056795,0.,0.00005982,0.00067
 339,0.00000002,-0.00006949,-0.00057228,-0.00000002,0.00005394,-0.00017
 574,0.,0.00008970,0.00005121,0.,0.00009974,-0.00007844,0.,0.00002915,-
 0.00004629,0.,0.01472134,-0.02671573,0.00000062,0.00010589,0.00027632,
 -0.00000002,-0.04531700,-0.02184806,0.00000214,-0.00196248,-0.00984435
 ,0.00000013,-0.10408011,-0.12439955,0.00000649,0.00045211,-0.00493937,
 0.00000014,-0.00231610,-0.00067320,-0.00000007,0.02353475,0.02497636,-
 0.00000074,0.00525700,0.00014454,0.00000018,-0.00012705,0.00029130,-0.
 00000003,-0.00190353,0.00289258,-0.00000021,0.00126944,0.00053955,-0.0
 0000004,0.00148151,0.01108131,-0.00000012,0.12686402,0.14978900,0.0000
 0007,0.,0.00025123,0.00000009,0.00000026,-0.00016712,0.00000066,-0.000
 00035,-0.00053266,-0.00000015,0.00000006,0.00010240,0.,-0.00000008,0.0
 0015375,-0.00000003,0.00000008,0.00002625,0.,0.00000001,-0.00009374,0.
 ,0.,-0.00015942,-0.00000001,0.,-0.00001356,0.,0.,-0.00005520,-0.000001
 24,0.00000163,0.00798981,0.00000008,0.00000025,-0.00086402,0.00000170,
 0.00000214,0.01675896,-0.00000019,0.00000032,0.00230116,0.00001403,0.0
 0000696,-0.05881884,0.00000048,0.00000047,0.00017880,0.00000002,-0.000
 00001,-0.00213400,0.00000187,-0.00000090,0.01556698,-0.00000088,-0.000
 00048,0.00429589,0.,0.,0.00003924,-0.00000002,-0.00000018,-0.00352251,
 -0.00000002,-0.00000002,-0.00056174,0.00000017,-0.00000046,-0.00295418
 ,-0.00001795,-0.00000804,0.03193683,0.00092555,0.00007200,-0.00000004,
 -0.00419374,0.00234933,0.00000005,0.00930213,0.01226661,0.00000112,0.0
 0117329,-0.00017507,-0.00000003,-0.00007544,0.00023729,-0.00000002,-0.
 00025929,-0.00010807,0.,-0.00008062,0.00023496,0.,-0.00057446,-0.00030
 451,-0.00000006,-0.00000898,0.00000541,0.,-0.00002721,-0.00003957,0.,-
 0.07927733,-0.05220499,-0.00000400,-0.00399291,-0.00426835,-0.00000003
 ,0.00154698,-0.00075677,0.00000019,-0.00180913,0.00026524,-0.00000002,
 -0.01389830,0.00182646,0.00000007,0.00138471,-0.00155809,0.00000006,0.
 00031960,0.00027359,-0.00000010,0.00133478,-0.00026750,-0.00000022,0.0
 0038629,0.00166463,-0.00000002,0.00008381,0.00000582,0.,-0.00006332,0.
 00001846,0.00000005,0.00022927,-0.00002062,0.,-0.00852461,-0.03368505,
 -0.00000196,0.00521301,-0.01174104,0.00000134,0.09088595,0.00037821,0.
 00037666,-0.00000006,0.00305548,0.00474874,-0.00000013,0.00927330,-0.0
 0851687,0.00000014,-0.00300698,0.00224947,0.00000007,-0.00037985,-0.00
 212512,-0.00000002,0.00040624,0.00124312,0.00000004,-0.00002266,0.0002
 0034,0.,0.00026464,-0.00019523,0.,-0.00018021,0.00016430,0.,-0.0000425
 9,0.00010595,0.,-0.06669000,-0.26699698,-0.00001596,0.00245046,0.00779
 469,-0.00000004,-0.00940412,0.00451356,-0.00000028,0.00961532,-0.00316
 763,0.00000011,0.02341495,0.01021109,-0.00000162,-0.00571699,0.0086963
 6,-0.00000024,-0.00075147,-0.00057925,0.00000027,-0.00372258,-0.000835
 84,0.00000071,-0.00357942,-0.00619172,0.00000011,-0.00001110,-0.000109
 11,0.00000001,0.00033495,-0.00016528,-0.00000019,-0.00072006,-0.000134
 13,0.00000004,-0.01153208,-0.00879540,-0.00000042,-0.02934327,0.000295
 17,-0.00000169,0.08590983,0.25721312,0.00000003,0.00000006,0.00085587,
 -0.00000014,0.00000009,0.00247081,-0.00000009,0.00000135,-0.00793329,0
 .00000026,-0.00000005,-0.00079359,-0.00000004,0.00000011,-0.00016653,-
 0.00000002,-0.00000007,-0.00012076,0.,0.00000002,-0.00000453,-0.000000
 03,0.,-0.00010476,0.,0.,0.00007740,0.,0.,0.00002484,-0.00000508,-0.000
 01959,-0.02345767,0.00000015,0.00000021,0.00244715,-0.00000020,0.00000
 032,-0.00267188,0.00000025,0.00000005,0.00007116,-0.00000052,-0.000000
 61,0.00068177,-0.00000005,0.00000015,-0.00016118,0.00000003,0.00000001
 ,0.00042270,0.00000048,0.00000014,0.00161615,-0.00000007,-0.00000019,0
 .00001914,0.,0.,-0.00004793,-0.00000001,0.,-0.00016025,0.00000003,0.,-
 0.00008036,0.00000062,-0.00000074,0.00337967,0.00000079,-0.00000039,-0
 .00972431,0.00000360,0.00001913,0.03336037\\-0.00172680,-0.00240093,-0
 .00000005,-0.00339109,-0.00455678,-0.00000012,-0.00595142,0.00045631,-
 0.00000057,0.00134459,-0.00201203,-0.00000009,-0.00008269,0.00046804,-
 0.00000006,-0.00192884,-0.00186991,-0.00000012,-0.00007265,-0.00028914
 ,0.00000006,-0.00005187,-0.00008152,0.00000005,-0.00001602,-0.00020795
 ,0.,-0.00017252,-0.00018901,0.00000006,0.01014869,-0.00532032,-0.00000
 329,-0.00147887,-0.00245664,0.00000056,0.00573699,-0.00291000,-0.00000
 228,-0.00437534,-0.00033555,-0.00000046,-0.00933592,-0.00151722,0.0000
 0736,0.00169312,-0.00619351,0.00000055,-0.00002604,-0.00008405,0.00000
 009,0.00122988,-0.00036874,-0.00000233,0.00267239,-0.00042090,-0.00000
 016,0.00010950,-0.00018800,-0.00000007,0.00002459,0.00005104,0.0000000
 7,0.00021065,-0.00001821,-0.00000005,0.00620753,0.00414773,0.00000027,
 0.00460250,0.00811243,-0.00000440,-0.00537037,0.01818486,0.00000496\\\
 @
 The archive entry for this job was punched.


 WHEN ALL ELSE FAILS, TRY THE BOSS'S SUGGESTION.
 Job cpu time:       0 days  2 hours 50 minutes 43.4 seconds.
 Elapsed time:       0 days  0 hours 17 minutes 38.8 seconds.
 File lengths (MBytes):  RWF=   1396 Int=      0 D2E=      0 Chk=     48 Scr=      8
 Normal termination of Gaussian 16 at Tue Jul 14 15:29:07 2020.
