 Entering Gaussian System, Link 0=g16
 Initial command:
 /gpfs/loomis/apps/avx/software/Gaussian/16-C.01_AVX/g16/l1.exe "/home/fas/batista/pev4/scratch60/gauss-scratch/Gau-117187.inp" -scrdir="/home/fas/batista/pev4/scratch60/gauss-scratch/"
 Entering Link 1 = /gpfs/loomis/apps/avx/software/Gaussian/16-C.01_AVX/g16/l1.exe PID=    117188.
  
 Copyright (c) 1988-2019, Gaussian, Inc.  All Rights Reserved.
  
 This is part of the Gaussian(R) 16 program.  It is based on
 the Gaussian(R) 09 system (copyright 2009, Gaussian, Inc.),
 the Gaussian(R) 03 system (copyright 2003, Gaussian, Inc.),
 the Gaussian(R) 98 system (copyright 1998, Gaussian, Inc.),
 the Gaussian(R) 94 system (copyright 1995, Gaussian, Inc.),
 the Gaussian 92(TM) system (copyright 1992, Gaussian, Inc.),
 the Gaussian 90(TM) system (copyright 1990, Gaussian, Inc.),
 the Gaussian 88(TM) system (copyright 1988, Gaussian, Inc.),
 the Gaussian 86(TM) system (copyright 1986, Carnegie Mellon
 University), and the Gaussian 82(TM) system (copyright 1983,
 Carnegie Mellon University). Gaussian is a federally registered
 trademark of Gaussian, Inc.
  
 This software contains proprietary and confidential information,
 including trade secrets, belonging to Gaussian, Inc.
  
 This software is provided under written license and may be
 used, copied, transmitted, or stored only in accord with that
 written license.
  
 The following legend is applicable only to US Government
 contracts under FAR:
  
                    RESTRICTED RIGHTS LEGEND
  
 Use, reproduction and disclosure by the US Government is
 subject to restrictions as set forth in subparagraphs (a)
 and (c) of the Commercial Computer Software - Restricted
 Rights clause in FAR 52.227-19.
  
 Gaussian, Inc.
 340 Quinnipiac St., Bldg. 40, Wallingford CT 06492
  
  
 ---------------------------------------------------------------
 Warning -- This program may not be used in any manner that
 competes with the business of Gaussian, Inc. or will provide
 assistance to any competitor of Gaussian, Inc.  The licensee
 of this program is prohibited from giving any competitor of
 Gaussian, Inc. access to this program.  By using this program,
 the user acknowledges that Gaussian, Inc. is engaged in the
 business of creating and licensing software in the field of
 computational chemistry and represents and warrants to the
 licensee that it is not a competitor of Gaussian, Inc. and that
 it will not use this program in any manner prohibited above.
 ---------------------------------------------------------------
  

 Cite this work as:
 Gaussian 16, Revision C.01,
 M. J. Frisch, G. W. Trucks, H. B. Schlegel, G. E. Scuseria, 
 M. A. Robb, J. R. Cheeseman, G. Scalmani, V. Barone, 
 G. A. Petersson, H. Nakatsuji, X. Li, M. Caricato, A. V. Marenich, 
 J. Bloino, B. G. Janesko, R. Gomperts, B. Mennucci, H. P. Hratchian, 
 J. V. Ortiz, A. F. Izmaylov, J. L. Sonnenberg, D. Williams-Young, 
 F. Ding, F. Lipparini, F. Egidi, J. Goings, B. Peng, A. Petrone, 
 T. Henderson, D. Ranasinghe, V. G. Zakrzewski, J. Gao, N. Rega, 
 G. Zheng, W. Liang, M. Hada, M. Ehara, K. Toyota, R. Fukuda, 
 J. Hasegawa, M. Ishida, T. Nakajima, Y. Honda, O. Kitao, H. Nakai, 
 T. Vreven, K. Throssell, J. A. Montgomery, Jr., J. E. Peralta, 
 F. Ogliaro, M. J. Bearpark, J. J. Heyd, E. N. Brothers, K. N. Kudin, 
 V. N. Staroverov, T. A. Keith, R. Kobayashi, J. Normand, 
 K. Raghavachari, A. P. Rendell, J. C. Burant, S. S. Iyengar, 
 J. Tomasi, M. Cossi, J. M. Millam, M. Klene, C. Adamo, R. Cammi, 
 J. W. Ochterski, R. L. Martin, K. Morokuma, O. Farkas, 
 J. B. Foresman, and D. J. Fox, Gaussian, Inc., Wallingford CT, 2019.
 
 ******************************************
 Gaussian 16:  ES64L-G16RevC.01  3-Jul-2019
                13-Jul-2020 
 ******************************************
 %chk=config_1_7.chk
 %mem=58GB
 %nprocshared=10
 Will use up to   10 processors via shared memory.
 ----------------------------------------------------------------------
 #p opt=addgic freq td wb97xd/cc-pvdz nosymm int=ultrafine scrf=(solven
 t=CarbonTetraChloride)
 ----------------------------------------------------------------------
 1/18=20,19=15,26=6,38=1,145=903/1,3;
 2/9=110,12=2,15=1,17=6,18=5,40=1/2;
 3/5=16,11=9,25=1,30=1,70=2201,71=1,72=11,74=-58,75=-5/1,2,3,8;
 4//1;
 5/5=2,38=5,53=11/2;
 8/6=1,10=1/1;
 9/15=2,42=1,70=2/14;
 10/5=4,31=1/2;
 6/7=2,8=2,9=2,10=2/1;
 7/12=6,13=5,30=1/1,2,3,16;
 1/18=20,19=15,26=6,145=903/3(2);
 2/9=110,15=1/2;
 99//99;
 2/9=110,15=1/2;
 3/5=16,11=9,25=1,30=1,70=2205,71=1,72=11,74=-58,75=-5/1,2,3,8;
 4/5=5,16=3,69=1/1;
 5/5=2,38=5,53=11/2;
 8/6=1,10=1/1;
 9/15=2,42=1,49=4,70=2/14;
 10/5=4,31=1/2;
 7/12=6,13=5,30=1/1,2,3,16;
 1/18=20,19=15,26=6,145=903/3(-8);
 2/9=110,15=1/2;
 6/7=2,8=2,9=2,10=2/1;
 99/9=10/99;
 Leave Link    1 at Mon Jul 13 19:49:56 2020, MaxMem=  7784628224 cpu:               4.6 elap:               0.5
 (Enter /gpfs/loomis/apps/avx/software/Gaussian/16-C.01_AVX/g16/l101.exe)
 ------------------------------------------------
 NM 2D-scan of HBT TD-WB97XD pVDZ in CTC Relaxed.
 ------------------------------------------------
 Symbolic Z-matrix:
 Charge =  0 Multiplicity = 1
 C                     1.67468  -3.27228  -0.00002 
 C                     0.99121  -2.06208  -0.00002 
 C                     1.68818  -0.81037  -0.00002 
 C                     3.11794  -0.81943  -0.00002 
 C                     3.7777   -2.02862  -0.00002 
 C                     3.06938  -3.25265  -0.00002 
 H                     1.13376  -4.21943  -0.00002 
 H                     3.6527    0.13135  -0.00002 
 H                     4.8694   -2.04861  -0.00002 
 H                     3.61949  -4.19492  -0.00002 
 N                     0.92991   0.26627  -0.00002 
 S                    -0.73597  -1.76485  -0.00002 
 C                    -1.36896   1.01356   0. 
 C                    -2.78983   0.83751  0. 
 C                    -0.90459   2.41153   0.00003 
 C                    -3.64177   1.91987   0.00002 
 H                    -3.18851  -0.17714  -0.00002 
 C                    -1.78917   3.49199   0.00006 
 C                    -3.15778   3.25946   0.00005 
 H                    -4.72009   1.74985   0.00002 
 H                    -1.37484   4.50031   0.00008 
 H                    -3.85894   4.09416   0.00008 
 C                    -0.40235  -0.00672  -0.00002 
 O                     0.40353   2.65697   0.00004 
 H                     0.73873   2.16697   0.00003 
 
 Initializing the GIC definitions file.
 Number of initial coordinates =   131
 Number of input entries/lines =    52
 Number of additional coordinates =     2
 Number of removed coordinates =     0
 Number of frozen coordinates =     2
 Number of final active and frozen coordinates =   133
 ITRead=  0  0  0  0  0  0  0  0  0  0  0  0  0  0  0  0  0  0  0  0
 ITRead=  0  0  0  0  0
 MicOpt= -1 -1 -1 -1 -1 -1 -1 -1 -1 -1 -1 -1 -1 -1 -1 -1 -1 -1 -1 -1
 MicOpt= -1 -1 -1 -1 -1
 NAtoms=     25 NQM=       25 NQMF=       0 NMMI=      0 NMMIF=      0
                NMic=       0 NMicF=      0.
                    Isotopes and Nuclear Properties:
 (Nuclear quadrupole moments (NQMom) in fm**2, nuclear magnetic moments (NMagM)
  in nuclear magnetons)

  Atom         1           2           3           4           5           6           7           8           9          10
 IAtWgt=          12          12          12          12          12          12           1           1           1           1
 AtmWgt=  12.0000000  12.0000000  12.0000000  12.0000000  12.0000000  12.0000000   1.0078250   1.0078250   1.0078250   1.0078250
 NucSpn=           0           0           0           0           0           0           1           1           1           1
 AtZEff=  -0.0000000  -0.0000000  -0.0000000  -0.0000000  -0.0000000  -0.0000000  -0.0000000  -0.0000000  -0.0000000  -0.0000000
 NQMom=    0.0000000   0.0000000   0.0000000   0.0000000   0.0000000   0.0000000   0.0000000   0.0000000   0.0000000   0.0000000
 NMagM=    0.0000000   0.0000000   0.0000000   0.0000000   0.0000000   0.0000000   2.7928460   2.7928460   2.7928460   2.7928460
 AtZNuc=   6.0000000   6.0000000   6.0000000   6.0000000   6.0000000   6.0000000   1.0000000   1.0000000   1.0000000   1.0000000

  Atom        11          12          13          14          15          16          17          18          19          20
 IAtWgt=          14          32          12          12          12          12           1          12          12           1
 AtmWgt=  14.0030740  31.9720718  12.0000000  12.0000000  12.0000000  12.0000000   1.0078250  12.0000000  12.0000000   1.0078250
 NucSpn=           2           0           0           0           0           0           1           0           0           1
 AtZEff=  -0.0000000  -0.0000000  -0.0000000  -0.0000000  -0.0000000  -0.0000000  -0.0000000  -0.0000000  -0.0000000  -0.0000000
 NQMom=    2.0440000   0.0000000   0.0000000   0.0000000   0.0000000   0.0000000   0.0000000   0.0000000   0.0000000   0.0000000
 NMagM=    0.4037610   0.0000000   0.0000000   0.0000000   0.0000000   0.0000000   2.7928460   0.0000000   0.0000000   2.7928460
 AtZNuc=   7.0000000  16.0000000   6.0000000   6.0000000   6.0000000   6.0000000   1.0000000   6.0000000   6.0000000   1.0000000

  Atom        21          22          23          24          25
 IAtWgt=           1           1          12          16           1
 AtmWgt=   1.0078250   1.0078250  12.0000000  15.9949146   1.0078250
 NucSpn=           1           1           0           0           1
 AtZEff=  -0.0000000  -0.0000000  -0.0000000  -0.0000000  -0.0000000
 NQMom=    0.0000000   0.0000000   0.0000000   0.0000000   0.0000000
 NMagM=    2.7928460   2.7928460   0.0000000   0.0000000   2.7928460
 AtZNuc=   1.0000000   1.0000000   6.0000000   8.0000000   1.0000000
 Leave Link  101 at Mon Jul 13 19:49:59 2020, MaxMem=  7784628224 cpu:              32.4 elap:               3.3
 (Enter /gpfs/loomis/apps/avx/software/Gaussian/16-C.01_AVX/g16/l103.exe)

 GradGradGradGradGradGradGradGradGradGradGradGradGradGradGradGradGradGrad
 Berny optimization.
 Initialization pass.
                           ----------------------------
                           !    Initial Parameters    !
                           ! (Angstroms and Degrees)  !
 --------------------------                            --------------------------
 ! Name  Definition              Value          Derivative Info.                !
 --------------------------------------------------------------------------------
 ! R1    R(1,2)                  1.3899         estimate D2E/DX2                !
 ! R2    R(1,6)                  1.3948         estimate D2E/DX2                !
 ! R3    R(1,7)                  1.0907         estimate D2E/DX2                !
 ! R4    R(2,3)                  1.4327         estimate D2E/DX2                !
 ! R5    R(2,12)                 1.7526         estimate D2E/DX2                !
 ! R6    R(3,4)                  1.4298         estimate D2E/DX2                !
 ! R7    R(3,11)                 1.3169         estimate D2E/DX2                !
 ! R8    R(4,5)                  1.3775         estimate D2E/DX2                !
 ! R9    R(4,8)                  1.0909         estimate D2E/DX2                !
 ! R10   R(5,6)                  1.4142         estimate D2E/DX2                !
 ! R11   R(5,9)                  1.0919         estimate D2E/DX2                !
 ! R12   R(6,10)                 1.0911         estimate D2E/DX2                !
 ! R13   R(11,23)                1.3599         estimate D2E/DX2                !
 ! R14   R(12,23)                1.7895         estimate D2E/DX2                !
 ! R15   R(13,14)                1.4317         estimate D2E/DX2                !
 ! R16   R(13,15)                1.4731         estimate D2E/DX2                !
 ! R17   R(13,23)                1.4055         estimate D2E/DX2                !
 ! R18   R(14,16)                1.3774         estimate D2E/DX2                !
 ! R19   R(14,17)                1.0902         estimate D2E/DX2                !
 ! R20   R(15,18)                1.3964         estimate D2E/DX2                !
 ! R21   R(15,24)                1.331          estimate D2E/DX2                !
 ! R22   R(16,19)                1.4243         estimate D2E/DX2                !
 ! R23   R(16,20)                1.0916         estimate D2E/DX2                !
 ! R24   R(18,19)                1.3882         estimate D2E/DX2                !
 ! R25   R(18,21)                1.0901         estimate D2E/DX2                !
 ! R26   R(19,22)                1.0901         estimate D2E/DX2                !
 ! R27   R(24,25)                0.5937         estimate D2E/DX2                !
 ! A1    A(2,1,6)              118.6493         estimate D2E/DX2                !
 ! A2    A(2,1,7)              120.8135         estimate D2E/DX2                !
 ! A3    A(6,1,7)              120.5372         estimate D2E/DX2                !
 ! A4    A(1,2,3)              121.4344         estimate D2E/DX2                !
 ! A5    A(1,2,12)             129.22           estimate D2E/DX2                !
 ! A6    A(3,2,12)             109.3456         estimate D2E/DX2                !
 ! A7    A(2,3,4)              118.7465         estimate D2E/DX2                !
 ! A8    A(2,3,11)             115.7334         estimate D2E/DX2                !
 ! A9    A(4,3,11)             125.5201         estimate D2E/DX2                !
 ! A10   A(3,4,5)              118.9812         estimate D2E/DX2                !
 ! A11   A(3,4,8)              118.9917         estimate D2E/DX2                !
 ! A12   A(5,4,8)              122.0271         estimate D2E/DX2                !
 ! A13   A(4,5,6)              121.3249         estimate D2E/DX2                !
 ! A14   A(4,5,9)              119.667          estimate D2E/DX2                !
 ! A15   A(6,5,9)              119.0081         estimate D2E/DX2                !
 ! A16   A(1,6,5)              120.8637         estimate D2E/DX2                !
 ! A17   A(1,6,10)             119.4702         estimate D2E/DX2                !
 ! A18   A(5,6,10)             119.6661         estimate D2E/DX2                !
 ! A19   A(3,11,23)            113.5766         estimate D2E/DX2                !
 ! A20   A(2,12,23)             89.0197         estimate D2E/DX2                !
 ! A21   A(14,13,15)           115.4381         estimate D2E/DX2                !
 ! A22   A(14,13,23)           126.3891         estimate D2E/DX2                !
 ! A23   A(15,13,23)           118.1728         estimate D2E/DX2                !
 ! A24   A(13,14,16)           121.1438         estimate D2E/DX2                !
 ! A25   A(13,14,17)           118.5144         estimate D2E/DX2                !
 ! A26   A(16,14,17)           120.3419         estimate D2E/DX2                !
 ! A27   A(13,15,18)           122.3178         estimate D2E/DX2                !
 ! A28   A(13,15,24)           119.0016         estimate D2E/DX2                !
 ! A29   A(18,15,24)           118.6807         estimate D2E/DX2                !
 ! A30   A(14,16,19)           121.9284         estimate D2E/DX2                !
 ! A31   A(14,16,20)           119.247          estimate D2E/DX2                !
 ! A32   A(19,16,20)           118.8246         estimate D2E/DX2                !
 ! A33   A(15,18,19)           119.6646         estimate D2E/DX2                !
 ! A34   A(15,18,21)           118.3542         estimate D2E/DX2                !
 ! A35   A(19,18,21)           121.9811         estimate D2E/DX2                !
 ! A36   A(16,19,18)           119.5074         estimate D2E/DX2                !
 ! A37   A(16,19,22)           120.1045         estimate D2E/DX2                !
 ! A38   A(18,19,22)           120.3882         estimate D2E/DX2                !
 ! A39   A(11,23,12)           112.3246         estimate D2E/DX2                !
 ! A40   A(11,23,13)           121.8721         estimate D2E/DX2                !
 ! A41   A(12,23,13)           125.8032         estimate D2E/DX2                !
 ! A42   A(15,24,25)           113.7485         estimate D2E/DX2                !
 ! D1    D(6,1,2,3)              0.0            estimate D2E/DX2                !
 ! D2    D(6,1,2,12)          -180.0            estimate D2E/DX2                !
 ! D3    D(7,1,2,3)            180.0            estimate D2E/DX2                !
 ! D4    D(7,1,2,12)             0.0            estimate D2E/DX2                !
 ! D5    D(2,1,6,5)              0.0            estimate D2E/DX2                !
 ! D6    D(2,1,6,10)           180.0            estimate D2E/DX2                !
 ! D7    D(7,1,6,5)           -180.0            estimate D2E/DX2                !
 ! D8    D(7,1,6,10)             0.0            estimate D2E/DX2                !
 ! D9    D(1,2,3,4)              0.0            estimate D2E/DX2                !
 ! D10   D(1,2,3,11)           180.0            estimate D2E/DX2                !
 ! D11   D(12,2,3,4)           180.0            estimate D2E/DX2                !
 ! D12   D(12,2,3,11)            0.0            estimate D2E/DX2                !
 ! D13   D(1,2,12,23)          179.9999         estimate D2E/DX2                !
 ! D14   D(3,2,12,23)           -0.0001         estimate D2E/DX2                !
 ! D15   D(2,3,4,5)              0.0            estimate D2E/DX2                !
 ! D16   D(2,3,4,8)           -180.0            estimate D2E/DX2                !
 ! D17   D(11,3,4,5)          -180.0            estimate D2E/DX2                !
 ! D18   D(11,3,4,8)             0.0            estimate D2E/DX2                !
 ! D19   D(2,3,11,23)            0.0003         estimate D2E/DX2                !
 ! D20   D(4,3,11,23)         -179.9997         estimate D2E/DX2                !
 ! D21   D(3,4,5,6)              0.0            estimate D2E/DX2                !
 ! D22   D(3,4,5,9)           -180.0            estimate D2E/DX2                !
 ! D23   D(8,4,5,6)            180.0            estimate D2E/DX2                !
 ! D24   D(8,4,5,9)              0.0            estimate D2E/DX2                !
 ! D25   D(4,5,6,1)              0.0            estimate D2E/DX2                !
 ! D26   D(4,5,6,10)          -180.0            estimate D2E/DX2                !
 ! D27   D(9,5,6,1)           -180.0            estimate D2E/DX2                !
 ! D28   D(9,5,6,10)             0.0            estimate D2E/DX2                !
 ! D29   D(3,11,23,12)          -0.0004         estimate D2E/DX2                !
 ! D30   D(3,11,23,13)         179.9992         estimate D2E/DX2                !
 ! D31   D(2,12,23,11)           0.0003         estimate D2E/DX2                !
 ! D32   D(2,12,23,13)        -179.9992         estimate D2E/DX2                !
 ! D33   D(15,13,14,16)         -0.0001         estimate D2E/DX2                !
 ! D34   D(15,13,14,17)        179.9999         estimate D2E/DX2                !
 ! D35   D(23,13,14,16)        179.9998         estimate D2E/DX2                !
 ! D36   D(23,13,14,17)         -0.0002         estimate D2E/DX2                !
 ! D37   D(14,13,15,18)          0.0001         estimate D2E/DX2                !
 ! D38   D(14,13,15,24)        179.9999         estimate D2E/DX2                !
 ! D39   D(23,13,15,18)       -179.9998         estimate D2E/DX2                !
 ! D40   D(23,13,15,24)          0.0001         estimate D2E/DX2                !
 ! D41   D(14,13,23,11)        179.9995         estimate D2E/DX2                !
 ! D42   D(14,13,23,12)         -0.0011         estimate D2E/DX2                !
 ! D43   D(15,13,23,11)         -0.0007         estimate D2E/DX2                !
 ! D44   D(15,13,23,12)        179.9988         estimate D2E/DX2                !
 ! D45   D(13,14,16,19)          0.0            estimate D2E/DX2                !
 ! D46   D(13,14,16,20)       -180.0            estimate D2E/DX2                !
 ! D47   D(17,14,16,19)        180.0            estimate D2E/DX2                !
 ! D48   D(17,14,16,20)          0.0            estimate D2E/DX2                !
 ! D49   D(13,15,18,19)          0.0            estimate D2E/DX2                !
 ! D50   D(13,15,18,21)        179.9999         estimate D2E/DX2                !
 ! D51   D(24,15,18,19)       -179.9998         estimate D2E/DX2                !
 ! D52   D(24,15,18,21)          0.0001         estimate D2E/DX2                !
 ! D53   D(13,15,24,25)          0.0001         estimate D2E/DX2                !
 ! D54   D(18,15,24,25)        179.9999         estimate D2E/DX2                !
 ! D55   D(14,16,19,18)          0.0001         estimate D2E/DX2                !
 ! D56   D(14,16,19,22)       -179.9999         estimate D2E/DX2                !
 ! D57   D(20,16,19,18)       -179.9999         estimate D2E/DX2                !
 ! D58   D(20,16,19,22)          0.0001         estimate D2E/DX2                !
 ! D59   D(15,18,19,16)         -0.0001         estimate D2E/DX2                !
 ! D60   D(15,18,19,22)        179.9999         estimate D2E/DX2                !
 ! D61   D(21,18,19,16)        180.0            estimate D2E/DX2                !
 ! D62   D(21,18,19,22)          0.0            estimate D2E/DX2                !
 ! Qtot  GIC-1                 -50.0            Frozen                          !
 ! Ptot  GIC-2                 -20.0            Frozen                          !
 --------------------------------------------------------------------------------
 NOTE: GIC-type coordinates are in arbitrary units.
 Trust Radius=3.00D-01 FncErr=5.00D-06 GrdErr=5.00D-06 EigMax=2.50D+02 EigMin=1.00D-04
 Number of steps in this run=    143 maximum allowed number of steps=    150.
 GradGradGradGradGradGradGradGradGradGradGradGradGradGradGradGradGradGrad

 Leave Link  103 at Mon Jul 13 19:49:59 2020, MaxMem=  7784628224 cpu:               0.1 elap:               0.0
 (Enter /gpfs/loomis/apps/avx/software/Gaussian/16-C.01_AVX/g16/l202.exe)
                          Input orientation:                          
 ---------------------------------------------------------------------
 Center     Atomic      Atomic             Coordinates (Angstroms)
 Number     Number       Type             X           Y           Z
 ---------------------------------------------------------------------
      1          6           0        1.674679   -3.272280   -0.000022
      2          6           0        0.991210   -2.062077   -0.000021
      3          6           0        1.688181   -0.810370   -0.000022
      4          6           0        3.117944   -0.819434   -0.000022
      5          6           0        3.777704   -2.028618   -0.000022
      6          6           0        3.069383   -3.252646   -0.000022
      7          1           0        1.133760   -4.219434   -0.000021
      8          1           0        3.652701    0.131351   -0.000023
      9          1           0        4.869403   -2.048609   -0.000023
     10          1           0        3.619494   -4.194924   -0.000022
     11          7           0        0.929910    0.266270   -0.000022
     12         16           0       -0.735968   -1.764855   -0.000020
     13          6           0       -1.368955    1.013562    0.000003
     14          6           0       -2.789829    0.837510   -0.000000
     15          6           0       -0.904593    2.411528    0.000032
     16          6           0       -3.641771    1.919866    0.000025
     17          1           0       -3.188511   -0.177137   -0.000023
     18          6           0       -1.789174    3.491993    0.000056
     19          6           0       -3.157779    3.259462    0.000054
     20          1           0       -4.720089    1.749851    0.000022
     21          1           0       -1.374843    4.500308    0.000079
     22          1           0       -3.858937    4.094155    0.000075
     23          6           0       -0.402353   -0.006724   -0.000016
     24          8           0        0.403534    2.656968    0.000037
     25          1           0        0.738731    2.166970    0.000027
 ---------------------------------------------------------------------
                    Distance matrix (angstroms):
                    1          2          3          4          5
     1  C    0.000000
     2  C    1.389864   0.000000
     3  C    2.461948   1.432669   0.000000
     4  C    2.845956   2.463160   1.429792   0.000000
     5  C    2.443238   2.786695   2.418726   1.377465   0.000000
     6  C    1.394842   2.395048   2.805786   2.433696   1.414200
     7  H    1.090731   2.162062   3.453854   3.936621   3.433674
     8  H    3.936658   3.448863   2.178572   1.090851   2.163583
     9  H    3.421057   3.878216   3.413709   2.139738   1.091882
    10  H    2.152574   3.384806   3.896816   3.412548   2.172075
    11  N    3.616078   2.329154   1.316863   2.442591   3.657382
    12  S    2.843158   1.752565   2.605290   3.968180   4.521372
    13  C    5.256630   3.876847   3.559889   4.846869   5.978542
    14  C    6.068131   4.764857   4.771591   6.135735   7.165695
    15  C    6.241661   4.858726   4.135590   5.159450   6.452814
    16  C    7.431220   6.109042   5.988537   7.293663   8.404710
    17  H    5.764592   4.585092   4.917632   6.339079   7.208060
    18  C    7.599583   6.211137   5.531936   6.532091   7.840107
    19  C    8.125042   6.747806   6.328258   7.484791   8.721508
    20  H    8.131104   6.866566   6.900772   8.248393   9.299963
    21  H    8.349414   6.975895   6.130694   6.963102   8.317188
    22  H    9.213320   7.837290   7.404382   8.533477   9.788086
    23  C    3.870132   2.483243   2.239682   3.612892   4.643375
    24  O    6.063975   4.755497   3.697668   4.410600   5.774057
    25  H    5.519189   4.236577   3.125061   3.818281   5.180571
                    6          7          8          9         10
     6  C    0.000000
     7  H    2.163635   0.000000
     8  H    3.433903   5.027364   0.000000
     9  H    2.165589   4.320592   2.496515   0.000000
    10  H    1.091105   2.485854   4.326402   2.483735   0.000000
    11  N    4.118266   4.490334   2.726132   4.569274   5.209233
    12  S    4.085856   3.085586   4.780795   5.612548   4.987512
    13  C    6.156247   5.800676   5.098561   6.949389   7.212001
    14  C    7.145610   6.400566   6.481115   8.184957   8.148915
    15  C    6.919202   6.937186   5.095894   7.296016   8.007033
    16  C    8.473162   7.777963   7.510533   9.390893   9.492978
    17  H    6.972804   5.917955   6.848163   8.272386   7.905159
    18  C    8.312384   8.246797   6.395929   8.662269   9.399062
    19  C    9.010277   8.622714   7.494512   9.623474  10.074685
    20  H    9.257475   8.360617   8.527786  10.314390  10.241532
    21  H    8.936411   9.073423   6.660629   9.048697  10.027485
    22  H   10.098371   9.697566   8.492850  10.673212  11.164038
    23  C    4.752784   4.484035   4.057403   5.653379   5.806571
    24  O    6.483077   6.915066   4.115316   6.487406   7.569070
    25  H    5.899507   6.398610   3.554570   5.901996   6.983730
                   11         12         13         14         15
    11  N    0.000000
    12  S    2.626902   0.000000
    13  C    2.417277   2.849610   0.000000
    14  C    3.763346   3.315215   1.431739   0.000000
    15  C    2.822682   4.179786   1.473072   2.455941   0.000000
    16  C    4.861548   4.692639   2.446851   1.377425   2.780984
    17  H    4.142221   2.921612   2.174522   1.090164   3.452169
    18  C    4.218851   5.361314   2.513802   2.836827   1.396383
    19  C    5.066398   5.577537   2.871228   2.449742   2.407454
    20  H    5.841532   5.312850   3.431066   2.135010   3.872444
    21  H    4.820681   6.297653   3.486751   3.926611   2.141060
    22  H    6.130722   6.639347   3.961068   3.427642   3.399908
    23  C    1.359944   1.789504   1.405455   2.532346   2.469856
    24  O    2.447960   4.566287   2.417127   3.675323   1.330954
    25  H    1.910291   4.199284   2.402643   3.770703   1.661422
                   16         17         18         19         20
    16  C    0.000000
    17  H    2.145430   0.000000
    18  C    2.429753   3.926915   0.000000
    19  C    1.424347   3.436736   1.388218   0.000000
    20  H    1.091638   2.461506   3.409592   2.172495   0.000000
    21  H    3.434770   5.016761   1.090124   2.172225   4.330783
    22  H    2.185107   4.323587   2.155578   1.090108   2.497468
    23  C    3.769029   2.791365   3.763548   4.273212   4.661373
    24  O    4.111912   4.575472   2.346324   3.611918   5.203304
    25  H    4.387466   4.573627   2.854118   4.046767   5.474733
                   21         22         23         24         25
    21  H    0.000000
    22  H    2.517078   0.000000
    23  C    4.610757   5.363318   0.000000
    24  O    2.561353   4.498240   2.782932   0.000000
    25  H    3.148279   4.985237   2.454999   0.593679   0.000000
 Symmetry turned off by external request.
 Stoichiometry    C13H9NOS
 Framework group  C1[X(C13H9NOS)]
 Deg. of freedom    69
 Full point group                 C1      NOp   1
 Rotational constants (GHZ):           1.3623292           0.2859292           0.2363280
 Leave Link  202 at Mon Jul 13 19:50:00 2020, MaxMem=  7784628224 cpu:               0.1 elap:               0.0
 (Enter /gpfs/loomis/apps/avx/software/Gaussian/16-C.01_AVX/g16/l301.exe)
 Standard basis: CC-pVDZ (5D, 7F)
 Ernie: Thresh=  0.10000D-02 Tol=  0.10000D-05 Strict=F.
 Ernie:  40 primitive shells out of 425 were deleted.
   273 basis functions,   629 primitive gaussians,   289 cartesian basis functions
    59 alpha electrons       59 beta electrons
       nuclear repulsion energy      1098.9308571539 Hartrees.
 IExCor= 4639 DFT=T Ex+Corr=wB97XD ExCW=0 ScaHFX=  1.000000
 ScaDFX=  1.000000  1.000000  1.000000  1.000000 ScalE2=  1.000000  1.000000
 IRadAn=      5 IRanWt=     -1 IRanGd=            0 ICorTp=0 IEmpDi=121
 HFx  wShort=  0.000000 wLong=  0.200000 cFull=  0.222036 cShort=  0.000000 cLong=  0.777964
 DFx  wShort=  0.000000 wLong=  0.200000 cFull=  0.000000 cShort=  0.000000 cLong=  1.000000
 NAtoms=   25 NActive=   25 NUniq=   25 SFac= 1.00D+00 NAtFMM=   60 NAOKFM=F Big=F
 Integral buffers will be    131072 words long.
 Raffenetti 1 integral format.
 Two-electron integral symmetry is turned off.
 R6Disp:  Grimme-D2 Dispersion energy=       -0.0139657621 Hartrees.
 Nuclear repulsion after empirical dispersion term =     1098.9168913918 Hartrees.
 ------------------------------------------------------------------------------
 Polarizable Continuum Model (PCM)
 =================================
 Model                : PCM.
 Atomic radii         : UFF (Universal Force Field).
 Polarization charges : Total charges.
 Charge compensation  : None.
 Solution method      : On-the-fly selection.
 Cavity type          : Scaled VdW (van der Waals Surface) (Alpha=1.100).
 Cavity algorithm     : GePol (No added spheres)
                        Default sphere list used, NSphG=   25.
                        Lebedev-Laikov grids with approx.  5.0 points / Ang**2.
                        Smoothing algorithm: York/Karplus (Gamma=1.0000).
                        Polarization charges: spherical gaussians, with
                                              point-specific exponents (IZeta= 3).
                        Self-potential: point-specific (ISelfS= 7).
                        Self-field    : sphere-specific E.n sum rule (ISelfD= 2).
 1st derivatives      : Analytical E(r).r(x)/FMM algorithm (CHGder, D1EAlg=3).
                        Cavity 1st derivative terms included.
 Solvent              : CarbonTetraChloride, Eps=   2.228000 Eps(inf)=   2.131892
 ------------------------------------------------------------------------------
 GePol: Number of generator spheres                  =      25
 GePol: Total number of spheres                      =      25
 GePol: Number of exposed spheres                    =      25 (100.00%)
 GePol: Number of points                             =    2186
 GePol: Average weight of points                     =       0.13
 GePol: Minimum weight of points                     =   0.95D-10
 GePol: Maximum weight of points                     =    0.20577
 GePol: Number of points with low weight             =     138
 GePol: Fraction of low-weight points (<1% of avg)   =       6.31%
 GePol: Cavity surface area                          =    274.619 Ang**2
 GePol: Cavity volume                                =    293.507 Ang**3
 Leave Link  301 at Mon Jul 13 19:50:00 2020, MaxMem=  7784628224 cpu:               0.8 elap:               0.1
 (Enter /gpfs/loomis/apps/avx/software/Gaussian/16-C.01_AVX/g16/l302.exe)
 NPDir=0 NMtPBC=     1 NCelOv=     1 NCel=       1 NClECP=     1 NCelD=      1
         NCelK=      1 NCelE2=     1 NClLst=     1 CellRange=     0.0.
 One-electron integrals computed using PRISM.
 NBasis=   273 RedAO= T EigKep=  3.18D-04  NBF=   273
 NBsUse=   273 1.00D-06 EigRej= -1.00D+00 NBFU=   273
 Precomputing XC quadrature grid using
 IXCGrd= 4 IRadAn=           5 IRanWt=          -1 IRanGd=           0 AccXCQ= 0.00D+00.
 Generated NRdTot=       0 NPtTot=           0 NUsed=           0 NTot=          32
 NSgBfM=   288   288   288   288   288 MxSgAt=    25 MxSgA2=    25.
 Leave Link  302 at Mon Jul 13 19:50:00 2020, MaxMem=  7784628224 cpu:               2.5 elap:               0.3
 (Enter /gpfs/loomis/apps/avx/software/Gaussian/16-C.01_AVX/g16/l303.exe)
 DipDrv:  MaxL=1.
 Leave Link  303 at Mon Jul 13 19:50:02 2020, MaxMem=  7784628224 cpu:               0.7 elap:               0.2
 (Enter /gpfs/loomis/apps/avx/software/Gaussian/16-C.01_AVX/g16/l308.exe)
 Leave Link  308 at Mon Jul 13 19:50:02 2020, MaxMem=  7784628224 cpu:               0.5 elap:               0.1
 (Enter /gpfs/loomis/apps/avx/software/Gaussian/16-C.01_AVX/g16/l401.exe)
 ExpMin= 1.22D-01 ExpMax= 1.11D+05 ExpMxC= 1.07D+03 IAcc=3 IRadAn=         5 AccDes= 0.00D+00
 Harris functional with IExCor= 4639 and IRadAn=       5 diagonalized for initial guess.
 HarFok:  IExCor= 4639 AccDes= 0.00D+00 IRadAn=         5 IDoV= 1 UseB2=F ITyADJ=14
 ICtDFT=  3500011 ScaDFX=  1.000000  1.000000  1.000000  1.000000
 FoFCou: FMM=F IPFlag=           0 FMFlag=      100000 FMFlg1=           0
         NFxFlg=           0 DoJE=T BraDBF=F KetDBF=T FulRan=T
         wScrn=  0.000000 ICntrl=       500 IOpCl=  0 I1Cent=   200000004 NGrid=           0
         NMat0=    1 NMatS0=      1 NMatT0=    0 NMatD0=    1 NMtDS0=    0 NMtDT0=    0
 Symmetry not used in FoFCou.
 Harris En= -994.057138437188    
 JPrj=0 DoOrth=F DoCkMO=F.
 Leave Link  401 at Mon Jul 13 19:50:04 2020, MaxMem=  7784628224 cpu:              13.6 elap:               1.4
 (Enter /gpfs/loomis/apps/avx/software/Gaussian/16-C.01_AVX/g16/l502.exe)
 Two-electron integral symmetry not used.
 Closed shell SCF:
 Using DIIS extrapolation, IDIIS=  1040.
 NGot=  7784628224 LenX=  7784455381 LenY=  7784371419
 Requested convergence on RMS density matrix=1.00D-08 within 128 cycles.
 Requested convergence on MAX density matrix=1.00D-06.
 Requested convergence on             energy=1.00D-06.
 No special actions if energy rises.
 Fock matrices will be formed incrementally for  20 cycles.

 Cycle   1  Pass 1  IDiag  1:
 FoFJK:  IHMeth= 1 ICntrl=       0 DoSepK=T KAlg= 0 I1Cent=           0 FoldK=F
 IRaf=         1 NMat=       1 IRICut=       1 DoRegI=T DoRafI=F ISym2E= 0 IDoP0=0 IntGTp=1.
 FoFCou: FMM=F IPFlag=           0 FMFlag=      100000 FMFlg1=           0
         NFxFlg=           0 DoJE=T BraDBF=F KetDBF=F FulRan=T
         wScrn=  0.000000 ICntrl=       500 IOpCl=  0 I1Cent=           0 NGrid=           0
         NMat0=    1 NMatS0=      1 NMatT0=    0 NMatD0=    1 NMtDS0=    0 NMtDT0=    0
 Symmetry not used in FoFCou.
 Inv3:  Mode=1 IEnd=    14335788.
 Iteration    1 A*A^-1 deviation from unit magnitude is 4.22D-15 for   2170.
 Iteration    1 A*A^-1 deviation from orthogonality  is 1.34D-15 for   1823    310.
 Iteration    1 A^-1*A deviation from unit magnitude is 4.33D-15 for   2170.
 Iteration    1 A^-1*A deviation from orthogonality  is 2.04D-15 for   1824    357.
 E= -1028.21463591988    
 DIIS: error= 3.23D-02 at cycle   1 NSaved=   1.
 NSaved= 1 IEnMin= 1 EnMin= -1028.21463591988     IErMin= 1 ErrMin= 3.23D-02
 ErrMax= 3.23D-02  0.00D+00 EMaxC= 1.00D-01 BMatC= 3.85D-01 BMatP= 3.85D-01
 IDIUse=3 WtCom= 6.77D-01 WtEn= 3.23D-01
 Coeff-Com:  0.100D+01
 Coeff-En:   0.100D+01
 Coeff:      0.100D+01
 Gap=     0.367 Goal=   None    Shift=    0.000
 GapD=    0.367 DampG=1.000 DampE=0.500 DampFc=0.5000 IDamp=-1.
 Damping current iteration by 5.00D-01
 RMSDP=3.50D-03 MaxDP=2.29D-01              OVMax= 1.73D-01

 Cycle   2  Pass 1  IDiag  1:
 RMSU=  1.75D-03    CP:  9.94D-01
 E= -1028.32886295518     Delta-E=       -0.114227035296 Rises=F Damp=T
 DIIS: error= 1.17D-02 at cycle   2 NSaved=   2.
 NSaved= 2 IEnMin= 2 EnMin= -1028.32886295518     IErMin= 2 ErrMin= 1.17D-02
 ErrMax= 1.17D-02  0.00D+00 EMaxC= 1.00D-01 BMatC= 5.74D-02 BMatP= 3.85D-01
 IDIUse=3 WtCom= 8.83D-01 WtEn= 1.17D-01
 Coeff-Com: -0.306D+00 0.131D+01
 Coeff-En:   0.000D+00 0.100D+01
 Coeff:     -0.270D+00 0.127D+01
 Gap=     0.296 Goal=   None    Shift=    0.000
 RMSDP=1.16D-03 MaxDP=2.28D-02 DE=-1.14D-01 OVMax= 1.35D-01

 Cycle   3  Pass 1  IDiag  1:
 RMSU=  1.11D-03    CP:  9.89D-01  1.20D+00
 E= -1028.42905973680     Delta-E=       -0.100196781623 Rises=F Damp=F
 DIIS: error= 6.39D-03 at cycle   3 NSaved=   3.
 NSaved= 3 IEnMin= 3 EnMin= -1028.42905973680     IErMin= 3 ErrMin= 6.39D-03
 ErrMax= 6.39D-03  0.00D+00 EMaxC= 1.00D-01 BMatC= 1.32D-02 BMatP= 5.74D-02
 IDIUse=3 WtCom= 9.36D-01 WtEn= 6.39D-02
 Coeff-Com: -0.203D+00 0.486D+00 0.716D+00
 Coeff-En:   0.000D+00 0.000D+00 0.100D+01
 Coeff:     -0.190D+00 0.455D+00 0.734D+00
 Gap=     0.261 Goal=   None    Shift=    0.000
 RMSDP=5.13D-04 MaxDP=2.18D-02 DE=-1.00D-01 OVMax= 4.18D-02

 Cycle   4  Pass 1  IDiag  1:
 RMSU=  3.81D-04    CP:  9.88D-01  1.36D+00  8.32D-01
 E= -1028.44103441837     Delta-E=       -0.011974681569 Rises=F Damp=F
 DIIS: error= 2.58D-03 at cycle   4 NSaved=   4.
 NSaved= 4 IEnMin= 4 EnMin= -1028.44103441837     IErMin= 4 ErrMin= 2.58D-03
 ErrMax= 2.58D-03  0.00D+00 EMaxC= 1.00D-01 BMatC= 2.14D-03 BMatP= 1.32D-02
 IDIUse=3 WtCom= 9.74D-01 WtEn= 2.58D-02
 Coeff-Com: -0.799D-01 0.161D+00 0.375D+00 0.544D+00
 Coeff-En:   0.000D+00 0.000D+00 0.194D-01 0.981D+00
 Coeff:     -0.778D-01 0.157D+00 0.366D+00 0.555D+00
 Gap=     0.260 Goal=   None    Shift=    0.000
 RMSDP=1.73D-04 MaxDP=1.01D-02 DE=-1.20D-02 OVMax= 1.33D-02

 Cycle   5  Pass 1  IDiag  1:
 RMSU=  1.08D-04    CP:  9.88D-01  1.37D+00  9.11D-01  7.31D-01
 E= -1028.44319345906     Delta-E=       -0.002159040695 Rises=F Damp=F
 DIIS: error= 5.18D-04 at cycle   5 NSaved=   5.
 NSaved= 5 IEnMin= 5 EnMin= -1028.44319345906     IErMin= 5 ErrMin= 5.18D-04
 ErrMax= 5.18D-04  0.00D+00 EMaxC= 1.00D-01 BMatC= 8.11D-05 BMatP= 2.14D-03
 IDIUse=3 WtCom= 9.95D-01 WtEn= 5.18D-03
 Coeff-Com: -0.824D-02 0.107D-01 0.626D-01 0.198D+00 0.737D+00
 Coeff-En:   0.000D+00 0.000D+00 0.000D+00 0.000D+00 0.100D+01
 Coeff:     -0.819D-02 0.106D-01 0.622D-01 0.197D+00 0.738D+00
 Gap=     0.261 Goal=   None    Shift=    0.000
 RMSDP=4.94D-05 MaxDP=1.60D-03 DE=-2.16D-03 OVMax= 5.08D-03

 Cycle   6  Pass 1  IDiag  1:
 RMSU=  3.48D-05    CP:  9.87D-01  1.37D+00  9.24D-01  8.09D-01  1.04D+00
 E= -1028.44332179260     Delta-E=       -0.000128333535 Rises=F Damp=F
 DIIS: error= 1.69D-04 at cycle   6 NSaved=   6.
 NSaved= 6 IEnMin= 6 EnMin= -1028.44332179260     IErMin= 6 ErrMin= 1.69D-04
 ErrMax= 1.69D-04  0.00D+00 EMaxC= 1.00D-01 BMatC= 1.06D-05 BMatP= 8.11D-05
 IDIUse=3 WtCom= 9.98D-01 WtEn= 1.69D-03
 Coeff-Com:  0.144D-01-0.302D-01-0.551D-01-0.422D-01 0.209D+00 0.904D+00
 Coeff-En:   0.000D+00 0.000D+00 0.000D+00 0.000D+00 0.000D+00 0.100D+01
 Coeff:      0.143D-01-0.301D-01-0.550D-01-0.422D-01 0.209D+00 0.904D+00
 Gap=     0.262 Goal=   None    Shift=    0.000
 RMSDP=3.35D-05 MaxDP=1.58D-03 DE=-1.28D-04 OVMax= 3.09D-03

 Cycle   7  Pass 1  IDiag  1:
 RMSU=  1.80D-05    CP:  9.87D-01  1.38D+00  9.37D-01  8.49D-01  1.20D+00
                    CP:  1.19D+00
 E= -1028.44335268096     Delta-E=       -0.000030888360 Rises=F Damp=F
 DIIS: error= 1.27D-04 at cycle   7 NSaved=   7.
 NSaved= 7 IEnMin= 7 EnMin= -1028.44335268096     IErMin= 7 ErrMin= 1.27D-04
 ErrMax= 1.27D-04  0.00D+00 EMaxC= 1.00D-01 BMatC= 2.17D-06 BMatP= 1.06D-05
 IDIUse=3 WtCom= 9.99D-01 WtEn= 1.27D-03
 Coeff-Com:  0.689D-02-0.133D-01-0.304D-01-0.461D-01-0.355D-01 0.363D+00
 Coeff-Com:  0.756D+00
 Coeff-En:   0.000D+00 0.000D+00 0.000D+00 0.000D+00 0.000D+00 0.000D+00
 Coeff-En:   0.100D+01
 Coeff:      0.689D-02-0.133D-01-0.304D-01-0.460D-01-0.354D-01 0.362D+00
 Coeff:      0.756D+00
 Gap=     0.262 Goal=   None    Shift=    0.000
 RMSDP=1.16D-05 MaxDP=6.14D-04 DE=-3.09D-05 OVMax= 1.43D-03

 Cycle   8  Pass 1  IDiag  1:
 RMSU=  7.35D-06    CP:  9.87D-01  1.38D+00  9.39D-01  8.55D-01  1.24D+00
                    CP:  1.39D+00  1.07D+00
 E= -1028.44335775800     Delta-E=       -0.000005077040 Rises=F Damp=F
 DIIS: error= 3.62D-05 at cycle   8 NSaved=   8.
 NSaved= 8 IEnMin= 8 EnMin= -1028.44335775800     IErMin= 8 ErrMin= 3.62D-05
 ErrMax= 3.62D-05  0.00D+00 EMaxC= 1.00D-01 BMatC= 2.55D-07 BMatP= 2.17D-06
 IDIUse=1 WtCom= 1.00D+00 WtEn= 0.00D+00
 Coeff-Com: -0.588D-03 0.151D-02 0.119D-02-0.451D-02-0.402D-01-0.412D-01
 Coeff-Com:  0.221D+00 0.862D+00
 Coeff:     -0.588D-03 0.151D-02 0.119D-02-0.451D-02-0.402D-01-0.412D-01
 Coeff:      0.221D+00 0.862D+00
 Gap=     0.262 Goal=   None    Shift=    0.000
 RMSDP=4.77D-06 MaxDP=1.45D-04 DE=-5.08D-06 OVMax= 6.40D-04

 Cycle   9  Pass 1  IDiag  1:
 RMSU=  2.33D-06    CP:  9.87D-01  1.38D+00  9.39D-01  8.56D-01  1.25D+00
                    CP:  1.46D+00  1.25D+00  1.10D+00
 E= -1028.44335848374     Delta-E=       -0.000000725742 Rises=F Damp=F
 DIIS: error= 1.78D-05 at cycle   9 NSaved=   9.
 NSaved= 9 IEnMin= 9 EnMin= -1028.44335848374     IErMin= 9 ErrMin= 1.78D-05
 ErrMax= 1.78D-05  0.00D+00 EMaxC= 1.00D-01 BMatC= 4.79D-08 BMatP= 2.55D-07
 IDIUse=1 WtCom= 1.00D+00 WtEn= 0.00D+00
 Coeff-Com: -0.109D-02 0.220D-02 0.438D-02 0.492D-02-0.908D-02-0.649D-01
 Coeff-Com: -0.247D-01 0.311D+00 0.777D+00
 Coeff:     -0.109D-02 0.220D-02 0.438D-02 0.492D-02-0.908D-02-0.649D-01
 Coeff:     -0.247D-01 0.311D+00 0.777D+00
 Gap=     0.262 Goal=   None    Shift=    0.000
 RMSDP=1.94D-06 MaxDP=6.09D-05 DE=-7.26D-07 OVMax= 1.91D-04

 Cycle  10  Pass 1  IDiag  1:
 RMSU=  9.83D-07    CP:  9.87D-01  1.38D+00  9.39D-01  8.56D-01  1.25D+00
                    CP:  1.48D+00  1.30D+00  1.26D+00  1.07D+00
 E= -1028.44335860543     Delta-E=       -0.000000121688 Rises=F Damp=F
 DIIS: error= 6.99D-06 at cycle  10 NSaved=  10.
 NSaved=10 IEnMin=10 EnMin= -1028.44335860543     IErMin=10 ErrMin= 6.99D-06
 ErrMax= 6.99D-06  0.00D+00 EMaxC= 1.00D-01 BMatC= 7.46D-09 BMatP= 4.79D-08
 IDIUse=1 WtCom= 1.00D+00 WtEn= 0.00D+00
 Coeff-Com: -0.302D-03 0.564D-03 0.143D-02 0.271D-02 0.285D-02-0.201D-01
 Coeff-Com: -0.468D-01-0.214D-01 0.257D+00 0.824D+00
 Coeff:     -0.302D-03 0.564D-03 0.143D-02 0.271D-02 0.285D-02-0.201D-01
 Coeff:     -0.468D-01-0.214D-01 0.257D+00 0.824D+00
 Gap=     0.262 Goal=   None    Shift=    0.000
 RMSDP=9.04D-07 MaxDP=2.86D-05 DE=-1.22D-07 OVMax= 1.28D-04

 Cycle  11  Pass 1  IDiag  1:
 RMSU=  4.31D-07    CP:  9.87D-01  1.38D+00  9.39D-01  8.56D-01  1.25D+00
                    CP:  1.49D+00  1.32D+00  1.31D+00  1.26D+00  1.13D+00
 E= -1028.44335863121     Delta-E=       -0.000000025777 Rises=F Damp=F
 DIIS: error= 2.82D-06 at cycle  11 NSaved=  11.
 NSaved=11 IEnMin=11 EnMin= -1028.44335863121     IErMin=11 ErrMin= 2.82D-06
 ErrMax= 2.82D-06  0.00D+00 EMaxC= 1.00D-01 BMatC= 1.54D-09 BMatP= 7.46D-09
 IDIUse=1 WtCom= 1.00D+00 WtEn= 0.00D+00
 Coeff-Com:  0.122D-03-0.256D-03-0.411D-03-0.231D-04 0.245D-02 0.438D-02
 Coeff-Com: -0.885D-02-0.495D-01-0.613D-01 0.274D+00 0.840D+00
 Coeff:      0.122D-03-0.256D-03-0.411D-03-0.231D-04 0.245D-02 0.438D-02
 Coeff:     -0.885D-02-0.495D-01-0.613D-01 0.274D+00 0.840D+00
 Gap=     0.262 Goal=   None    Shift=    0.000
 RMSDP=3.80D-07 MaxDP=8.53D-06 DE=-2.58D-08 OVMax= 5.67D-05

 Cycle  12  Pass 1  IDiag  1:
 RMSU=  1.70D-07    CP:  9.87D-01  1.38D+00  9.39D-01  8.56D-01  1.25D+00
                    CP:  1.49D+00  1.32D+00  1.33D+00  1.34D+00  1.37D+00
                    CP:  1.13D+00
 E= -1028.44335863656     Delta-E=       -0.000000005350 Rises=F Damp=F
 DIIS: error= 1.09D-06 at cycle  12 NSaved=  12.
 NSaved=12 IEnMin=12 EnMin= -1028.44335863656     IErMin=12 ErrMin= 1.09D-06
 ErrMax= 1.09D-06  0.00D+00 EMaxC= 1.00D-01 BMatC= 2.85D-10 BMatP= 1.54D-09
 IDIUse=1 WtCom= 1.00D+00 WtEn= 0.00D+00
 Coeff-Com:  0.107D-03-0.210D-03-0.460D-03-0.590D-03 0.255D-03 0.587D-02
 Coeff-Com:  0.730D-02-0.989D-02-0.901D-01-0.985D-01 0.235D+00 0.951D+00
 Coeff:      0.107D-03-0.210D-03-0.460D-03-0.590D-03 0.255D-03 0.587D-02
 Coeff:      0.730D-02-0.989D-02-0.901D-01-0.985D-01 0.235D+00 0.951D+00
 Gap=     0.262 Goal=   None    Shift=    0.000
 RMSDP=2.22D-07 MaxDP=4.75D-06 DE=-5.35D-09 OVMax= 3.38D-05

 Cycle  13  Pass 1  IDiag  1:
 RMSU=  7.08D-08    CP:  9.87D-01  1.38D+00  9.39D-01  8.56D-01  1.25D+00
                    CP:  1.49D+00  1.32D+00  1.34D+00  1.37D+00  1.48D+00
                    CP:  1.42D+00  1.25D+00
 E= -1028.44335863791     Delta-E=       -0.000000001354 Rises=F Damp=F
 DIIS: error= 4.97D-07 at cycle  13 NSaved=  13.
 NSaved=13 IEnMin=13 EnMin= -1028.44335863791     IErMin=13 ErrMin= 4.97D-07
 ErrMax= 4.97D-07  0.00D+00 EMaxC= 1.00D-01 BMatC= 3.79D-11 BMatP= 2.85D-10
 IDIUse=1 WtCom= 1.00D+00 WtEn= 0.00D+00
 Coeff-Com:  0.712D-05-0.118D-04-0.504D-04-0.134D-03-0.230D-03 0.986D-03
 Coeff-Com:  0.331D-02 0.634D-02-0.155D-01-0.658D-01-0.852D-01 0.241D+00
 Coeff-Com:  0.916D+00
 Coeff:      0.712D-05-0.118D-04-0.504D-04-0.134D-03-0.230D-03 0.986D-03
 Coeff:      0.331D-02 0.634D-02-0.155D-01-0.658D-01-0.852D-01 0.241D+00
 Coeff:      0.916D+00
 Gap=     0.262 Goal=   None    Shift=    0.000
 RMSDP=7.39D-08 MaxDP=1.89D-06 DE=-1.35D-09 OVMax= 1.00D-05

 Cycle  14  Pass 1  IDiag  1:
 RMSU=  2.66D-08    CP:  9.87D-01  1.38D+00  9.39D-01  8.56D-01  1.25D+00
                    CP:  1.49D+00  1.32D+00  1.34D+00  1.38D+00  1.52D+00
                    CP:  1.49D+00  1.47D+00  1.21D+00
 E= -1028.44335863806     Delta-E=       -0.000000000148 Rises=F Damp=F
 DIIS: error= 1.31D-07 at cycle  14 NSaved=  14.
 NSaved=14 IEnMin=14 EnMin= -1028.44335863806     IErMin=14 ErrMin= 1.31D-07
 ErrMax= 1.31D-07  0.00D+00 EMaxC= 1.00D-01 BMatC= 6.75D-12 BMatP= 3.79D-11
 IDIUse=1 WtCom= 1.00D+00 WtEn= 0.00D+00
 Coeff-Com: -0.108D-04 0.220D-04 0.390D-04 0.241D-04-0.116D-03-0.379D-03
 Coeff-Com:  0.186D-03 0.361D-02 0.542D-02-0.931D-02-0.609D-01-0.270D-01
 Coeff-Com:  0.365D+00 0.724D+00
 Coeff:     -0.108D-04 0.220D-04 0.390D-04 0.241D-04-0.116D-03-0.379D-03
 Coeff:      0.186D-03 0.361D-02 0.542D-02-0.931D-02-0.609D-01-0.270D-01
 Coeff:      0.365D+00 0.724D+00
 Gap=     0.262 Goal=   None    Shift=    0.000
 RMSDP=1.72D-08 MaxDP=4.37D-07 DE=-1.48D-10 OVMax= 2.25D-06

 Cycle  15  Pass 1  IDiag  1:
 RMSU=  9.36D-09    CP:  9.87D-01  1.38D+00  9.39D-01  8.56D-01  1.25D+00
                    CP:  1.49D+00  1.32D+00  1.34D+00  1.38D+00  1.52D+00
                    CP:  1.51D+00  1.52D+00  1.35D+00  1.05D+00
 E= -1028.44335863806     Delta-E=       -0.000000000005 Rises=F Damp=F
 DIIS: error= 5.15D-08 at cycle  15 NSaved=  15.
 NSaved=15 IEnMin=15 EnMin= -1028.44335863806     IErMin=15 ErrMin= 5.15D-08
 ErrMax= 5.15D-08  0.00D+00 EMaxC= 1.00D-01 BMatC= 4.77D-13 BMatP= 6.75D-12
 IDIUse=1 WtCom= 1.00D+00 WtEn= 0.00D+00
 Coeff-Com: -0.297D-05 0.562D-05 0.152D-04 0.259D-04 0.473D-05-0.235D-03
 Coeff-Com: -0.480D-03-0.207D-03 0.317D-02 0.827D-02-0.158D-03-0.437D-01
 Coeff-Com: -0.627D-01 0.923D-01 0.100D+01
 Coeff:     -0.297D-05 0.562D-05 0.152D-04 0.259D-04 0.473D-05-0.235D-03
 Coeff:     -0.480D-03-0.207D-03 0.317D-02 0.827D-02-0.158D-03-0.437D-01
 Coeff:     -0.627D-01 0.923D-01 0.100D+01
 Gap=     0.262 Goal=   None    Shift=    0.000
 RMSDP=8.53D-09 MaxDP=2.09D-07 DE=-4.77D-12 OVMax= 9.21D-07

 Error on total polarization charges =  0.00799
 SCF Done:  E(RwB97XD) =  -1028.44335864     A.U. after   15 cycles
            NFock= 15  Conv=0.85D-08     -V/T= 2.0032
 KE= 1.025177118867D+03 PE=-4.610251802116D+03 EE= 1.457714433219D+03
 Leave Link  502 at Mon Jul 13 19:51:27 2020, MaxMem=  7784628224 cpu:             821.8 elap:              82.9
 (Enter /gpfs/loomis/apps/avx/software/Gaussian/16-C.01_AVX/g16/l801.exe)
 DoSCS=F DFT=T ScalE2(SS,OS)=  1.000000  1.000000
 ExpMin= 1.22D-01 ExpMax= 1.11D+05 ExpMxC= 1.07D+03 IAcc=3 IRadAn=         5 AccDes= 0.00D+00
 HarFok:  IExCor=  205 AccDes= 0.00D+00 IRadAn=         5 IDoV=-2 UseB2=F ITyADJ=14
 ICtDFT= 12500011 ScaDFX=  1.000000  1.000000  1.000000  1.000000
 Largest valence mixing into a core orbital is  9.53D-05
 Largest core mixing into a valence orbital is  3.20D-05
 Range of M.O.s used for correlation:    21   273
 NBasis=   273 NAE=    59 NBE=    59 NFC=    20 NFV=     0
 NROrb=    253 NOA=    39 NOB=    39 NVA=   214 NVB=   214

 **** Warning!!: The largest alpha MO coefficient is  0.11510213D+02

 Leave Link  801 at Mon Jul 13 19:51:27 2020, MaxMem=  7784628224 cpu:               1.1 elap:               0.2
 (Enter /gpfs/loomis/apps/avx/software/Gaussian/16-C.01_AVX/g16/l914.exe)
 RHF ground state
 Keep R1, R2, and R3 ints in memory in canonical form, NReq=4262515490.
 FoFCou: FMM=F IPFlag=           0 FMFlag=           0 FMFlg1=           0
         NFxFlg=           0 DoJE=F BraDBF=F KetDBF=F FulRan=T
         wScrn=  0.000000 ICntrl=       600 IOpCl=  0 I1Cent=           0 NGrid=           0
         NMat0=    1 NMatS0=  37401 NMatT0=    0 NMatD0=    1 NMtDS0=    0 NMtDT0=    0
 Symmetry not used in FoFCou.
 Two-electron integral symmetry not used.
 MDV=  7784628224 DFT=T DoStab=F Mixed=T DoRPA=T DoScal=F NonHer=T
 NEqPCM:  Using equilibrium solvation (IEInf=0, Eps=   2.2280, EpsInf=   2.1319)
 Making orbital integer symmetry assigments:
    12 initial guesses have been made.
 Convergence on wavefunction:    0.000001000000000
 Davidson Disk Diagonalization:  ConvIn= 1.00D-06 SkipCon=T Conv= 1.00D-06.
 Max sub-space:  2000 roots to seek:    12 dimension of matrix:        16692
 Iteration     1 Dimension    12 NMult     0 NNew     12
 CISAX will form    12 AO SS matrices at one time.
 NMat=    12 NSing=    12 JSym2X= 0.
 Excitation Energies [eV] at current iteration:
 Root      1 :     4.124897397370908
 Root      2 :     4.930838172671671
 Root      3 :     5.039266814004823
 Root      4 :     5.168921192413681
 Root      5 :     5.951575221943656
 Root      6 :     6.191917572510994
 Root      7 :     6.280415711326440
 Root      8 :     6.581295011831680
 Root      9 :     6.857556084066751
 Root     10 :     7.139967159152959
 Root     11 :     7.541343757404758
 Root     12 :     7.882694262131430
 Iteration     2 Dimension    18 NMult    12 NNew      6
 CISAX will form     6 AO SS matrices at one time.
 NMat=     6 NSing=     6 JSym2X= 0.
 Root      1 not converged, maximum delta is    0.050484647380386
 Root      2 not converged, maximum delta is    0.387927442879027
 Root      3 not converged, maximum delta is    0.361713286171924
 Excitation Energies [eV] at current iteration:
 Root      1 :     3.620359013077709   Change is   -0.504538384293199
 Root      2 :     4.531271361961944   Change is   -0.399566810709727
 Root      3 :     4.561106952056512   Change is   -0.478159861948310
 Iteration     3 Dimension    24 NMult    18 NNew      6
 CISAX will form     6 AO SS matrices at one time.
 NMat=     6 NSing=     6 JSym2X= 0.
 Root      1 not converged, maximum delta is    0.018712737846259
 Root      2 not converged, maximum delta is    0.080684428884360
 Root      3 not converged, maximum delta is    0.078377752594291
 Excitation Energies [eV] at current iteration:
 Root      1 :     3.588179894167991   Change is   -0.032179118909719
 Root      2 :     4.486017300116775   Change is   -0.045254061845169
 Root      3 :     4.513089135117022   Change is   -0.048017816939491
 Iteration     4 Dimension    30 NMult    24 NNew      6
 CISAX will form     6 AO SS matrices at one time.
 NMat=     6 NSing=     6 JSym2X= 0.
 Root      1 not converged, maximum delta is    0.006886447392067
 Root      2 not converged, maximum delta is    0.017729118570768
 Root      3 not converged, maximum delta is    0.017467275894139
 Excitation Energies [eV] at current iteration:
 Root      1 :     3.584570459141086   Change is   -0.003609435026904
 Root      2 :     4.481413806509046   Change is   -0.004603493607729
 Root      3 :     4.507334359207792   Change is   -0.005754775909230
 Iteration     5 Dimension    36 NMult    30 NNew      6
 CISAX will form     6 AO SS matrices at one time.
 NMat=     6 NSing=     6 JSym2X= 0.
 Root      1 not converged, maximum delta is    0.002219825615038
 Root      2 not converged, maximum delta is    0.002052945645163
 Root      3 not converged, maximum delta is    0.002079821776728
 Excitation Energies [eV] at current iteration:
 Root      1 :     3.584232873821769   Change is   -0.000337585319318
 Root      2 :     4.480801901801175   Change is   -0.000611904707872
 Root      3 :     4.506892914923579   Change is   -0.000441444284212
 Iteration     6 Dimension    42 NMult    36 NNew      6
 CISAX will form     6 AO SS matrices at one time.
 NMat=     6 NSing=     6 JSym2X= 0.
 Root      1 not converged, maximum delta is    0.000499930431934
 Root      2 not converged, maximum delta is    0.000569733557468
 Root      3 not converged, maximum delta is    0.000735385167778
 Excitation Energies [eV] at current iteration:
 Root      1 :     3.584203947421178   Change is   -0.000028926400590
 Root      2 :     4.480760796300091   Change is   -0.000041105501083
 Root      3 :     4.506848518711324   Change is   -0.000044396212255
 Iteration     7 Dimension    48 NMult    42 NNew      6
 CISAX will form     6 AO SS matrices at one time.
 NMat=     6 NSing=     6 JSym2X= 0.
 Root      1 not converged, maximum delta is    0.000083892544924
 Root      2 not converged, maximum delta is    0.000125807419744
 Root      3 not converged, maximum delta is    0.000181010200902
 Excitation Energies [eV] at current iteration:
 Root      1 :     3.584202442836515   Change is   -0.000001504584664
 Root      2 :     4.480757559733809   Change is   -0.000003236566282
 Root      3 :     4.506844120085997   Change is   -0.000004398625327
 Iteration     8 Dimension    54 NMult    48 NNew      6
 CISAX will form     6 AO SS matrices at one time.
 NMat=     6 NSing=     6 JSym2X= 0.
 Root      1 not converged, maximum delta is    0.000015414602710
 Root      2 not converged, maximum delta is    0.000056470123506
 Root      3 not converged, maximum delta is    0.000066762835681
 Excitation Energies [eV] at current iteration:
 Root      1 :     3.584202370998909   Change is   -0.000000071837605
 Root      2 :     4.480757265580807   Change is   -0.000000294153003
 Root      3 :     4.506843741385704   Change is   -0.000000378700293
 Iteration     9 Dimension    60 NMult    54 NNew      6
 CISAX will form     6 AO SS matrices at one time.
 NMat=     6 NSing=     6 JSym2X= 0.
 Root      1 not converged, maximum delta is    0.000004014626769
 Root      2 not converged, maximum delta is    0.000011642852487
 Root      3 not converged, maximum delta is    0.000021111855483
 Excitation Energies [eV] at current iteration:
 Root      1 :     3.584202366362773   Change is   -0.000000004636136
 Root      2 :     4.480757246732744   Change is   -0.000000018848062
 Root      3 :     4.506843700808586   Change is   -0.000000040577118
 Iteration    10 Dimension    66 NMult    60 NNew      6
 CISAX will form     6 AO SS matrices at one time.
 NMat=     6 NSing=     6 JSym2X= 0.
 Root      1 has converged.
 Root      2 not converged, maximum delta is    0.000002150612264
 Root      3 not converged, maximum delta is    0.000003261587342
 Excitation Energies [eV] at current iteration:
 Root      1 :     3.584202366150247   Change is   -0.000000000212526
 Root      2 :     4.480757245699049   Change is   -0.000000001033695
 Root      3 :     4.506843699043443   Change is   -0.000000001765143
 Iteration    11 Dimension    70 NMult    66 NNew      4
 CISAX will form     4 AO SS matrices at one time.
 NMat=     4 NSing=     4 JSym2X= 0.
 Root      1 has converged.
 Root      2 has converged.
 Root      3 not converged, maximum delta is    0.000001206223419
 Excitation Energies [eV] at current iteration:
 Root      1 :     3.584202366147059   Change is   -0.000000000003188
 Root      2 :     4.480757245641093   Change is   -0.000000000057957
 Root      3 :     4.506843698936079   Change is   -0.000000000107364
 Iteration    12 Dimension    72 NMult    70 NNew      2
 CISAX will form     2 AO SS matrices at one time.
 NMat=     2 NSing=     2 JSym2X= 0.
 Root      1 has converged.
 Root      2 has converged.
 Root      3 has converged.
 Excitation Energies [eV] at current iteration:
 Root      1 :     3.584202366146898   Change is   -0.000000000000161
 Root      2 :     4.480757245640689   Change is   -0.000000000000404
 Root      3 :     4.506843698930954   Change is   -0.000000000005125
 Convergence achieved on expansion vectors.
 ***********************************************************************
 Excited states from <AA,BB:AA,BB> singles matrix:
 ***********************************************************************
 
 1PDM for each excited state written to RWF  633
 Ground to excited state transition densities written to RWF  633
 Ground to excited state transition electric dipole moments (Au):
       state          X           Y           Z        Dip. S.      Osc.
         1        -2.0829      2.3585      0.0000      9.9009      0.8694
         2        -1.2009     -0.1019     -0.0000      1.4525      0.1594
         3         0.3883     -0.2183      0.0000      0.1984      0.0219
 Ground to excited state transition velocity dipole moments (Au):
       state          X           Y           Z        Dip. S.      Osc.
         1         0.2671     -0.3066     -0.0000      0.1653      0.8368
         2         0.1958      0.0204      0.0000      0.0388      0.1569
         3        -0.0618      0.0301     -0.0000      0.0047      0.0190
 Ground to excited state transition magnetic dipole moments (Au):
       state          X           Y           Z
         1        -0.0000     -0.0000      0.3519
         2         0.0000      0.0000     -0.4327
         3         0.0000     -0.0000      1.0313
 Ground to excited state transition velocity quadrupole moments (Au):
       state          XX          YY          ZZ          XY          XZ          YZ
         1         0.0779     -0.3740      0.0072      0.1752      0.0000     -0.0000
         2         0.2746      0.3701     -0.0258     -0.3663     -0.0000      0.0000
         3         0.4992     -0.6305     -0.0090     -0.0456      0.0000     -0.0000
 <0|del|b> * <b|rxdel|0> + <0|del|b> * <b|delr+rdel|0>
 Rotatory Strengths (R) in cgs (10**-40 erg-esu-cm/Gauss)
       state          XX          YY          ZZ    R(velocity)    E-M Angle
         1         0.0181     -0.0144      0.0186      0.0075       90.00
         2        -0.0005      0.0044      0.0008      0.0016       90.00
         3        -0.0025     -0.0012     -0.0026     -0.0021       90.00
 1/2[<0|r|b>*<b|rxdel|0> + (<0|rxdel|b>*<b|r|0>)*]
 Rotatory Strengths (R) in cgs (10**-40 erg-esu-cm/Gauss)
       state          XX          YY          ZZ     R(length)
         1        -0.0082      0.0383     -0.0078      0.0074
         2         0.0054      0.0002     -0.0008      0.0016
         3        -0.0013     -0.0023     -0.0029     -0.0022
  1/2[<0|del|b>*<b|r|0> + (<0|r|b>*<b|del|0>)*] (Au)
       state          X           Y           Z        Dip. S.   Osc.(frdel)
         1        -0.5563     -0.7230     -0.0000      1.2794      0.8529
         2        -0.2351     -0.0021     -0.0000      0.2372      0.1582
         3        -0.0240     -0.0066     -0.0000      0.0306      0.0204

 Excitation energies and oscillator strengths:
 
 Excited state symmetry could not be determined.
 Excited State   1:      Singlet-?Sym    3.5842 eV  345.92 nm  f=0.8694  <S**2>=0.000
      59 -> 60         0.68856
 This state for optimization and/or second-order correction.
 Total Energy, E(TD-HF/TD-DFT) =  -1028.31164162    
 Copying the excited state density for this state as the 1-particle RhoCI density.
 
 Excited state symmetry could not be determined.
 Excited State   2:      Singlet-?Sym    4.4808 eV  276.70 nm  f=0.1594  <S**2>=0.000
      57 -> 60        -0.22809
      58 -> 60         0.59698
      59 -> 61         0.11629
      59 -> 62        -0.15772
 
 Excited state symmetry could not be determined.
 Excited State   3:      Singlet-?Sym    4.5068 eV  275.10 nm  f=0.0219  <S**2>=0.000
      57 -> 60         0.59883
      58 -> 60         0.21334
      58 -> 63        -0.14128
      59 -> 61         0.20064
      59 -> 62         0.10694
 SavETr:  write IOETrn=   770 NScale= 10 NData=  16 NLR=1 NState=    3 LETran=      64.
 The selected state is a singlet.
 CISGrd: IGrad=2 NXY=2 DFT=T
 CISAX will form     1 AO SS matrices at one time.
 NMat=     1 NSing=     1 JSym2X= 0.
 GePol: Maximum number of non-zero 1st derivatives   =     266
 Leave Link  914 at Mon Jul 13 19:54:17 2020, MaxMem=  7784628224 cpu:            1666.5 elap:             169.5
 (Enter /gpfs/loomis/apps/avx/software/Gaussian/16-C.01_AVX/g16/l1002.exe)
 Minotr:  Closed shell wavefunction.
          Computing CIS/TDA/TD derivatives.
          Using Z-Vector for PSCF gradient.
          Skipping F1 and S1 gradient terms here.
          IDoAtm=1111111111111111111111111
 NEqPCM:  Using equilibrium solvation (IEInf=0, Eps=   2.2280, EpsInf=   2.1319)
          Frozen-core window.
          Direct CPHF calculation.
          Differentiating once with respect to electric field.
                with respect to dipole field.
          Differentiating once with respect to nuclear coordinates.
          Requested convergence is 1.0D-10 RMS, and 1.0D-09 maximum.
          NewPWx=F KeepS1=T KeepF1=T KeepIn=T MapXYZ=F SortEE=F KeepMc=T.
 Keep R1 ints in memory in canonical form, NReq=1421450821.
 FoFCou: FMM=F IPFlag=           0 FMFlag=           0 FMFlg1=           0
         NFxFlg=           0 DoJE=F BraDBF=F KetDBF=F FulRan=T
         wScrn=  0.000000 ICntrl=       600 IOpCl=  0 I1Cent=           0 NGrid=           0
         NMat0=    1 NMatS0=  37401 NMatT0=    0 NMatD0=    1 NMtDS0=    0 NMtDT0=    0
 Symmetry not used in FoFCou.
 Two-electron integral symmetry not used.
          MDV=    7784628224 using IRadAn=       5.
          Solving linear equations separately, MaxMat=       0.
          There are     1 degrees of freedom in the 1st order CPHF.  IDoFFX=0 NUNeed=     1.
 LinEq1:  Iter=  0 NonCon=     1 RMS=3.07D-03 Max=1.49D-01 NDo=     1
 AX will form     1 AO Fock derivatives at one time.
 LinEq1:  Iter=  1 NonCon=     1 RMS=1.31D-03 Max=6.42D-02 NDo=     1
 LinEq1:  Iter=  2 NonCon=     1 RMS=7.27D-04 Max=2.58D-02 NDo=     1
 LinEq1:  Iter=  3 NonCon=     1 RMS=2.86D-04 Max=9.19D-03 NDo=     1
 LinEq1:  Iter=  4 NonCon=     1 RMS=1.51D-04 Max=6.57D-03 NDo=     1
 LinEq1:  Iter=  5 NonCon=     1 RMS=8.35D-05 Max=3.46D-03 NDo=     1
 LinEq1:  Iter=  6 NonCon=     1 RMS=3.73D-05 Max=1.35D-03 NDo=     1
 LinEq1:  Iter=  7 NonCon=     1 RMS=2.25D-05 Max=9.19D-04 NDo=     1
 LinEq1:  Iter=  8 NonCon=     1 RMS=7.78D-06 Max=2.72D-04 NDo=     1
 LinEq1:  Iter=  9 NonCon=     1 RMS=3.90D-06 Max=1.24D-04 NDo=     1
 LinEq1:  Iter= 10 NonCon=     1 RMS=1.38D-06 Max=5.51D-05 NDo=     1
 LinEq1:  Iter= 11 NonCon=     1 RMS=6.60D-07 Max=2.86D-05 NDo=     1
 LinEq1:  Iter= 12 NonCon=     1 RMS=3.03D-07 Max=9.78D-06 NDo=     1
 LinEq1:  Iter= 13 NonCon=     1 RMS=1.22D-07 Max=3.11D-06 NDo=     1
 LinEq1:  Iter= 14 NonCon=     1 RMS=6.45D-08 Max=2.03D-06 NDo=     1
 LinEq1:  Iter= 15 NonCon=     1 RMS=2.34D-08 Max=7.52D-07 NDo=     1
 LinEq1:  Iter= 16 NonCon=     1 RMS=1.06D-08 Max=2.67D-07 NDo=     1
 LinEq1:  Iter= 17 NonCon=     1 RMS=4.21D-09 Max=8.72D-08 NDo=     1
 LinEq1:  Iter= 18 NonCon=     1 RMS=1.47D-09 Max=3.73D-08 NDo=     1
 LinEq1:  Iter= 19 NonCon=     1 RMS=5.92D-10 Max=1.29D-08 NDo=     1
 LinEq1:  Iter= 20 NonCon=     1 RMS=3.08D-10 Max=9.65D-09 NDo=     1
 LinEq1:  Iter= 21 NonCon=     1 RMS=1.10D-10 Max=3.38D-09 NDo=     1
 LinEq1:  Iter= 22 NonCon=     0 RMS=4.08D-11 Max=7.15D-10 NDo=     1
 Linear equations converged to 1.000D-10 1.000D-09 after    22 iterations.
 End of Minotr F.D. properties file   721 does not exist.
 End of Minotr F.D. properties file   722 does not exist.
 End of Minotr F.D. properties file   788 does not exist.
 Leave Link 1002 at Mon Jul 13 19:55:55 2020, MaxMem=  7784628224 cpu:             700.4 elap:              97.8
 (Enter /gpfs/loomis/apps/avx/software/Gaussian/16-C.01_AVX/g16/l601.exe)
 Copying SCF densities to generalized density rwf, IOpCl= 0 IROHF=0.

 **********************************************************************

            Population analysis using the SCF Density.

 **********************************************************************

 Alpha  occ. eigenvalues --  -89.08660 -19.26875 -14.45700 -10.39095 -10.38859
 Alpha  occ. eigenvalues --  -10.34344 -10.34277 -10.33284 -10.32577 -10.32379
 Alpha  occ. eigenvalues --  -10.31875 -10.31224 -10.31155 -10.31117 -10.31038
 Alpha  occ. eigenvalues --  -10.31031  -8.10592  -6.05435  -6.05099  -6.04664
 Alpha  occ. eigenvalues --   -1.28849  -1.07953  -0.97568  -0.95589  -0.91448
 Alpha  occ. eigenvalues --   -0.88863  -0.87754  -0.84245  -0.82863  -0.77855
 Alpha  occ. eigenvalues --   -0.73724  -0.70314  -0.69642  -0.68564  -0.64987
 Alpha  occ. eigenvalues --   -0.60244  -0.59558  -0.58355  -0.56319  -0.54869
 Alpha  occ. eigenvalues --   -0.53920  -0.53648  -0.52604  -0.51133  -0.50964
 Alpha  occ. eigenvalues --   -0.49318  -0.48404  -0.46208  -0.45633  -0.45108
 Alpha  occ. eigenvalues --   -0.43603  -0.43341  -0.42086  -0.39576  -0.36887
 Alpha  occ. eigenvalues --   -0.36499  -0.32478  -0.31641  -0.28145
 Alpha virt. eigenvalues --   -0.01936   0.05499   0.06503   0.07147   0.07914
 Alpha virt. eigenvalues --    0.11565   0.13695   0.15269   0.16201   0.18129
 Alpha virt. eigenvalues --    0.18579   0.21362   0.21807   0.22343   0.23036
 Alpha virt. eigenvalues --    0.23511   0.23794   0.25090   0.28108   0.30818
 Alpha virt. eigenvalues --    0.32113   0.33637   0.34989   0.36194   0.37009
 Alpha virt. eigenvalues --    0.38044   0.38571   0.40757   0.43958   0.46238
 Alpha virt. eigenvalues --    0.46663   0.48893   0.50855   0.51346   0.51772
 Alpha virt. eigenvalues --    0.52477   0.53595   0.54642   0.54856   0.55829
 Alpha virt. eigenvalues --    0.56062   0.56379   0.57251   0.58119   0.58262
 Alpha virt. eigenvalues --    0.58826   0.59077   0.59705   0.59931   0.59951
 Alpha virt. eigenvalues --    0.60624   0.60988   0.62231   0.62778   0.64074
 Alpha virt. eigenvalues --    0.65463   0.66168   0.66472   0.68687   0.69095
 Alpha virt. eigenvalues --    0.70533   0.72155   0.72560   0.73002   0.73321
 Alpha virt. eigenvalues --    0.74001   0.75545   0.76142   0.77880   0.78837
 Alpha virt. eigenvalues --    0.79292   0.79686   0.81615   0.82390   0.82858
 Alpha virt. eigenvalues --    0.84950   0.89327   0.92037   0.93552   0.94196
 Alpha virt. eigenvalues --    0.94990   0.95132   0.96471   0.96895   0.98144
 Alpha virt. eigenvalues --    0.98672   0.99229   1.00563   1.01107   1.02454
 Alpha virt. eigenvalues --    1.03489   1.05038   1.06227   1.06656   1.07575
 Alpha virt. eigenvalues --    1.08332   1.09062   1.09901   1.10748   1.10862
 Alpha virt. eigenvalues --    1.11857   1.13293   1.13814   1.15634   1.15993
 Alpha virt. eigenvalues --    1.17112   1.19069   1.20224   1.22084   1.24062
 Alpha virt. eigenvalues --    1.25208   1.29223   1.33523   1.34848   1.35446
 Alpha virt. eigenvalues --    1.35524   1.36615   1.38614   1.43067   1.44406
 Alpha virt. eigenvalues --    1.48118   1.48879   1.52072   1.53964   1.54885
 Alpha virt. eigenvalues --    1.55524   1.56278   1.57193   1.57607   1.58189
 Alpha virt. eigenvalues --    1.60132   1.62478   1.63596   1.66317   1.66649
 Alpha virt. eigenvalues --    1.67986   1.68527   1.70141   1.70877   1.71578
 Alpha virt. eigenvalues --    1.72202   1.72658   1.72989   1.74431   1.75765
 Alpha virt. eigenvalues --    1.76711   1.77603   1.79986   1.81533   1.82519
 Alpha virt. eigenvalues --    1.83581   1.83667   1.84963   1.86300   1.86313
 Alpha virt. eigenvalues --    1.86885   1.88373   1.89617   1.90759   1.92466
 Alpha virt. eigenvalues --    1.92982   1.93083   1.94003   1.94870   1.95227
 Alpha virt. eigenvalues --    2.00634   2.00895   2.02613   2.03745   2.04941
 Alpha virt. eigenvalues --    2.07974   2.08793   2.10141   2.11193   2.12393
 Alpha virt. eigenvalues --    2.17698   2.18151   2.20801   2.25013   2.26495
 Alpha virt. eigenvalues --    2.27657   2.28608   2.36888   2.38769   2.42383
 Alpha virt. eigenvalues --    2.42512   2.45277   2.47610   2.47884   2.48723
 Alpha virt. eigenvalues --    2.50430   2.51298   2.54876   2.61887   2.63126
 Alpha virt. eigenvalues --    2.66978   2.72641   2.75380   2.79300   2.81623
 Alpha virt. eigenvalues --    2.82954   2.84563   2.90179   2.91917   2.97885
 Alpha virt. eigenvalues --    3.05436   3.10961   3.28782   3.44317   3.44402
 Alpha virt. eigenvalues --    3.57228   3.58629   3.77803   5.21494
          Condensed to atoms (all electrons):
               1          2          3          4          5          6
     1  C    4.764786   0.433914   0.016560  -0.055506  -0.012188   0.524517
     2  C    0.433914   5.349442   0.332675  -0.032142  -0.066178  -0.004709
     3  C    0.016560   0.332675   4.747235   0.484313  -0.004427  -0.066168
     4  C   -0.055506  -0.032142   0.484313   4.782046   0.526866  -0.012523
     5  C   -0.012188  -0.066178  -0.004427   0.526866   4.735779   0.485364
     6  C    0.524517  -0.004709  -0.066168  -0.012523   0.485364   4.750635
     7  H    0.400751  -0.038293   0.008127  -0.000461   0.008071  -0.039246
     8  H   -0.001228   0.012796  -0.032035   0.391645  -0.045341   0.008233
     9  H    0.009025  -0.000864   0.008878  -0.039791   0.404995  -0.045970
    10  H   -0.042168   0.009863  -0.000649   0.008739  -0.044029   0.405450
    11  N    0.009736  -0.067872   0.531991  -0.043656   0.003241  -0.000154
    12  S   -0.066699   0.348143  -0.098268   0.007598   0.000180   0.003601
    13  C   -0.000162   0.004181   0.007097  -0.000757   0.000009   0.000002
    14  C   -0.000009  -0.000049   0.000441   0.000008  -0.000000  -0.000000
    15  C    0.000008   0.000073  -0.001705  -0.000012  -0.000000  -0.000000
    16  C    0.000000  -0.000002   0.000005  -0.000000   0.000000   0.000000
    17  H   -0.000002   0.000062  -0.000011  -0.000000   0.000000  -0.000000
    18  C    0.000000   0.000007  -0.000042  -0.000000  -0.000000   0.000000
    19  C   -0.000000   0.000000   0.000003  -0.000000   0.000000   0.000000
    20  H   -0.000000  -0.000000  -0.000000   0.000000   0.000000  -0.000000
    21  H   -0.000000  -0.000000   0.000000   0.000000   0.000000  -0.000000
    22  H   -0.000000  -0.000000   0.000000  -0.000000   0.000000   0.000000
    23  C    0.005247  -0.059258  -0.135400  -0.000121   0.000295  -0.000207
    24  O    0.000000  -0.000066  -0.000473   0.000016  -0.000000  -0.000000
    25  H   -0.000049   0.001304  -0.001515  -0.000583   0.000004   0.000007
               7          8          9         10         11         12
     1  C    0.400751  -0.001228   0.009025  -0.042168   0.009736  -0.066699
     2  C   -0.038293   0.012796  -0.000864   0.009863  -0.067872   0.348143
     3  C    0.008127  -0.032035   0.008878  -0.000649   0.531991  -0.098268
     4  C   -0.000461   0.391645  -0.039791   0.008739  -0.043656   0.007598
     5  C    0.008071  -0.045341   0.404995  -0.044029   0.003241   0.000180
     6  C   -0.039246   0.008233  -0.045970   0.405450  -0.000154   0.003601
     7  H    0.663979   0.000037  -0.000151  -0.012114  -0.000121  -0.006749
     8  H    0.000037   0.664861  -0.012773  -0.000123  -0.000468  -0.000078
     9  H   -0.000151  -0.012773   0.672011  -0.012372  -0.000108   0.000021
    10  H   -0.012114  -0.000123  -0.012372   0.668198  -0.000003  -0.000149
    11  N   -0.000121  -0.000468  -0.000108  -0.000003   6.407618  -0.083314
    12  S   -0.006749  -0.000078   0.000021  -0.000149  -0.083314  15.504763
    13  C    0.000006   0.000042  -0.000000  -0.000000  -0.017649  -0.062468
    14  C    0.000000   0.000001   0.000000  -0.000000   0.003624  -0.006343
    15  C   -0.000000  -0.000057   0.000000   0.000000  -0.025548   0.005215
    16  C   -0.000000  -0.000000  -0.000000   0.000000  -0.000090  -0.000072
    17  H    0.000001   0.000000  -0.000000  -0.000000   0.000183   0.006856
    18  C   -0.000000   0.000000  -0.000000  -0.000000  -0.000205  -0.000084
    19  C    0.000000   0.000000  -0.000000  -0.000000   0.000049   0.000014
    20  H   -0.000000  -0.000000   0.000000   0.000000   0.000001  -0.000001
    21  H   -0.000000  -0.000000   0.000000   0.000000  -0.000013   0.000002
    22  H    0.000000   0.000000  -0.000000  -0.000000   0.000000  -0.000000
    23  C    0.000044  -0.001075   0.000009   0.000003   0.558595   0.301545
    24  O   -0.000000  -0.000110   0.000000  -0.000000  -0.020249  -0.000072
    25  H    0.000000   0.001069  -0.000002   0.000000   0.050645   0.002165
              13         14         15         16         17         18
     1  C   -0.000162  -0.000009   0.000008   0.000000  -0.000002   0.000000
     2  C    0.004181  -0.000049   0.000073  -0.000002   0.000062   0.000007
     3  C    0.007097   0.000441  -0.001705   0.000005  -0.000011  -0.000042
     4  C   -0.000757   0.000008  -0.000012  -0.000000  -0.000000  -0.000000
     5  C    0.000009  -0.000000  -0.000000   0.000000   0.000000  -0.000000
     6  C    0.000002  -0.000000  -0.000000   0.000000  -0.000000   0.000000
     7  H    0.000006   0.000000  -0.000000  -0.000000   0.000001  -0.000000
     8  H    0.000042   0.000001  -0.000057  -0.000000   0.000000   0.000000
     9  H   -0.000000   0.000000   0.000000  -0.000000  -0.000000  -0.000000
    10  H   -0.000000  -0.000000   0.000000   0.000000  -0.000000  -0.000000
    11  N   -0.017649   0.003624  -0.025548  -0.000090   0.000183  -0.000205
    12  S   -0.062468  -0.006343   0.005215  -0.000072   0.006856  -0.000084
    13  C    5.365350   0.507205   0.245043  -0.012215  -0.036816  -0.098057
    14  C    0.507205   4.789784  -0.028354   0.530856   0.402436  -0.053808
    15  C    0.245043  -0.028354   4.959168  -0.065450   0.008490   0.474937
    16  C   -0.012215   0.530856  -0.065450   4.740561  -0.037162  -0.012824
    17  H   -0.036816   0.402436   0.008490  -0.037162   0.668531  -0.000783
    18  C   -0.098057  -0.053808   0.474937  -0.012824  -0.000783   4.856548
    19  C   -0.042387  -0.017399  -0.005679   0.486511   0.008428   0.496999
    20  H    0.008706  -0.035082  -0.000353   0.402264  -0.012993   0.008500
    21  H    0.010801  -0.000357  -0.024478   0.007067   0.000038   0.384629
    22  H   -0.000800   0.008869   0.009167  -0.042716  -0.000146  -0.041980
    23  C    0.292272  -0.087744  -0.063741   0.007771  -0.021139   0.007800
    24  O   -0.053844   0.003592   0.473543   0.000025  -0.000054  -0.063570
    25  H   -0.066879  -0.001603   0.021075  -0.000018   0.000044   0.016052
              19         20         21         22         23         24
     1  C   -0.000000  -0.000000  -0.000000  -0.000000   0.005247   0.000000
     2  C    0.000000  -0.000000  -0.000000  -0.000000  -0.059258  -0.000066
     3  C    0.000003  -0.000000   0.000000   0.000000  -0.135400  -0.000473
     4  C   -0.000000   0.000000   0.000000  -0.000000  -0.000121   0.000016
     5  C    0.000000   0.000000   0.000000   0.000000   0.000295  -0.000000
     6  C    0.000000  -0.000000  -0.000000   0.000000  -0.000207  -0.000000
     7  H    0.000000  -0.000000  -0.000000   0.000000   0.000044  -0.000000
     8  H    0.000000  -0.000000  -0.000000   0.000000  -0.001075  -0.000110
     9  H   -0.000000   0.000000   0.000000  -0.000000   0.000009   0.000000
    10  H   -0.000000   0.000000   0.000000  -0.000000   0.000003  -0.000000
    11  N    0.000049   0.000001  -0.000013   0.000000   0.558595  -0.020249
    12  S    0.000014  -0.000001   0.000002  -0.000000   0.301545  -0.000072
    13  C   -0.042387   0.008706   0.010801  -0.000800   0.292272  -0.053844
    14  C   -0.017399  -0.035082  -0.000357   0.008869  -0.087744   0.003592
    15  C   -0.005679  -0.000353  -0.024478   0.009167  -0.063741   0.473543
    16  C    0.486511   0.402264   0.007067  -0.042716   0.007771   0.000025
    17  H    0.008428  -0.012993   0.000038  -0.000146  -0.021139  -0.000054
    18  C    0.496999   0.008500   0.384629  -0.041980   0.007800  -0.063570
    19  C    4.738239  -0.047013  -0.042728   0.407507   0.000475   0.002701
    20  H   -0.047013   0.672228  -0.000147  -0.011650  -0.000325   0.000003
    21  H   -0.042728  -0.000147   0.650147  -0.011767  -0.000397   0.001199
    22  H    0.407507  -0.011650  -0.011767   0.657505   0.000000  -0.000051
    23  C    0.000475  -0.000325  -0.000397   0.000000   5.132798  -0.005434
    24  O    0.002701   0.000003   0.001199  -0.000051  -0.005434   7.035438
    25  H   -0.000094  -0.000000   0.000389   0.000001   0.007477   0.418103
              25
     1  C   -0.000049
     2  C    0.001304
     3  C   -0.001515
     4  C   -0.000583
     5  C    0.000004
     6  C    0.000007
     7  H    0.000000
     8  H    0.001069
     9  H   -0.000002
    10  H    0.000000
    11  N    0.050645
    12  S    0.002165
    13  C   -0.066879
    14  C   -0.001603
    15  C    0.021075
    16  C   -0.000018
    17  H    0.000044
    18  C    0.016052
    19  C   -0.000094
    20  H   -0.000000
    21  H    0.000389
    22  H    0.000001
    23  C    0.007477
    24  O    0.418103
    25  H    0.775240
 Mulliken charges:
               1
     1  C    0.013467
     2  C   -0.223027
     3  C    0.203366
     4  C   -0.015677
     5  C    0.007357
     6  C   -0.008831
     7  H    0.016119
     8  H    0.014605
     9  H    0.017094
    10  H    0.019353
    11  N   -0.306233
    12  S    0.144194
    13  C   -0.048681
    14  C   -0.016067
    15  C    0.018662
    16  C   -0.004510
    17  H    0.014039
    18  C    0.025880
    19  C    0.014373
    20  H    0.015863
    21  H    0.025615
    22  H    0.026062
    23  C    0.060508
    24  O    0.209302
    25  H   -0.222833
 Sum of Mulliken charges =  -0.00000
 Mulliken charges with hydrogens summed into heavy atoms:
               1
     1  C    0.029586
     2  C   -0.223027
     3  C    0.203366
     4  C   -0.001072
     5  C    0.024451
     6  C    0.010522
    11  N   -0.306233
    12  S    0.144194
    13  C   -0.048681
    14  C   -0.002028
    15  C    0.018662
    16  C    0.011354
    18  C    0.051495
    19  C    0.040435
    23  C    0.060508
    24  O   -0.013532
 Electronic spatial extent (au):  <R**2>=           4350.4448
 Charge=             -0.0000 electrons
 Dipole moment (field-independent basis, Debye):
    X=             -1.1418    Y=             -1.0579    Z=              0.0000  Tot=              1.5566
 Quadrupole moment (field-independent basis, Debye-Ang):
   XX=            -82.6137   YY=            -86.4899   ZZ=           -104.0021
   XY=             -7.8816   XZ=             -0.0001   YZ=              0.0002
 Traceless Quadrupole moment (field-independent basis, Debye-Ang):
[...]
 237263,0.01985003,0.00000076,-0.22661606,0.15837510,0.00000535,0.00394
 413,0.00666395,0.,0.75005654,-0.00135523,0.00010767,-0.00000004,-0.001
 69838,-0.00160292,0.00000002,-0.00552304,0.00671598,0.00000008,0.00402
 387,-0.00063475,-0.00000004,-0.00009337,0.00193248,0.00000002,0.000120
 47,0.00008068,0.,-0.00002645,0.00006132,0.,0.00000640,-0.00000020,0.,-
 0.00005176,0.00005429,0.,0.00001153,-0.00003007,0.,0.00763574,-0.00485
 258,0.00000003,0.00039507,-0.00170324,-0.00000008,0.04813785,0.0315986
 8,0.00000066,0.09437055,-0.27031985,-0.00000665,0.00224011,-0.02724510
 ,-0.00000106,-0.01386175,0.65509257,-0.00000008,0.00000002,-0.00010304
 ,-0.00000004,-0.00000011,-0.00016381,-0.00000022,0.00000030,-0.0001280
 5,0.00000016,-0.00000003,-0.00005756,0.,0.00000008,-0.00006673,0.00000
 003,-0.00000001,0.00003201,0.,0.,-0.00004066,0.,0.,-0.00004517,0.,0.,-
 0.00001604,0.,0.,0.00008499,0.00000029,-0.00000018,0.00175580,0.000000
 01,-0.00000009,0.00013389,0.00000115,0.00000090,0.00295072,0.00000396,
 -0.00000763,-0.05316847,0.00000011,-0.00000076,-0.00325567,-0.00000201
 ,0.00001865,0.13066504,0.00017997,-0.00003547,0.,-0.00107594,-0.000276
 48,0.00000004,-0.00001667,0.00068643,0.,0.00042846,-0.00002092,0.,0.00
 008859,0.00039707,0.,-0.00017951,-0.00021327,0.,-0.00001108,0.00001330
 ,0.,0.00001377,-0.00000972,0.,-0.00000490,0.00000150,0.,0.00002494,-0.
 00000177,0.,0.00082026,0.00005056,0.00000001,-0.00088033,0.00147098,-0
 .00000010,-0.00581491,-0.02773272,-0.00000083,-0.09536290,-0.09822900,
 -0.00000307,-0.00621171,0.00191738,-0.00000001,0.01051193,0.01986131,0
 .00000060,0.09844232,0.00003765,-0.00008255,0.,-0.00045808,-0.00002898
 ,0.,-0.00026227,0.00074810,-0.00000001,0.00047510,-0.00008814,0.,0.000
 03761,0.00051473,0.,-0.00028221,-0.00023940,0.,-0.00000318,0.00001761,
 0.,0.00000109,-0.00001253,0.,-0.00001325,0.00000452,0.,-0.00000447,0.0
 0000329,0.,0.00082072,-0.00008056,0.00000006,0.00038120,-0.00054160,-0
 .00000005,0.00263493,-0.00072611,-0.00000008,-0.09729663,-0.30511657,-
 0.00000842,-0.00020838,0.00142350,-0.00000014,-0.01183862,-0.01818292,
 -0.00000065,0.10179761,0.32325436,0.00000005,-0.00000003,-0.00005082,-
 0.00000006,0.00000007,-0.00028014,0.00000003,-0.00000006,0.00015835,-0
 .00000001,0.,0.00007462,0.,0.00000001,0.00000724,-0.00000005,0.,0.0000
 2272,0.,0.,0.00001153,0.,0.,0.00003767,0.,0.,0.00000570,0.,0.,-0.00002
 563,-0.00000005,0.00000002,-0.00110550,-0.00000008,-0.00000002,0.00043
 461,0.00000053,-0.00000009,0.00217728,-0.00000348,-0.00000839,-0.03108
 787,0.,-0.00000011,0.00511464,-0.00000026,-0.00000098,0.00323301,0.000
 00320,0.00000939,0.02098482,-0.00231155,0.00191350,-0.00000001,0.00293
 279,-0.00061880,-0.00000002,-0.00030174,0.00217607,0.00000004,0.000436
 53,0.00019786,0.00000001,-0.00040323,-0.00197778,-0.00000001,0.0034245
 0,0.00047241,0.,-0.00012685,-0.00006183,0.,0.00018587,0.00010199,0.,0.
 00017205,-0.00004291,0.,0.00011360,-0.00003819,0.00000001,0.00553429,0
 .00529997,-0.00000008,-0.00201109,-0.00089850,0.00000003,0.01782026,0.
 02095966,0.00000080,-0.01615112,0.02406461,0.00000086,-0.18236013,0.08
 192172,0.00000364,-0.01116191,-0.06029567,-0.00000178,-0.00022899,0.00
 043269,-0.00000010,0.77312527,0.00000599,-0.00049444,-0.00000002,-0.00
 385904,-0.00375259,-0.00000003,-0.00322978,0.00650083,-0.00000001,0.00
 341921,-0.00082544,-0.00000002,0.00039550,0.00338587,0.00000002,-0.001
 69858,-0.00138759,0.,0.00001790,0.00011721,0.,-0.00012444,-0.00010462,
 0.,-0.00009944,0.00002797,0.,-0.00000833,0.00000020,0.,0.00781102,-0.0
 0425905,0.00000016,0.00152258,-0.00418621,0.00000004,0.02151823,-0.033
 34438,-0.00000164,-0.00457438,-0.00084868,0.00000028,0.13267652,-0.271
 08600,-0.00000861,-0.03517490,-0.00709948,-0.00000024,-0.00044510,0.00
 027206,0.00000012,0.03898854,0.72613940,0.,-0.00000003,0.00048102,-0.0
 0000016,-0.00000016,0.00051407,-0.00000015,0.00000023,0.00067597,0.000
 00014,-0.00000003,-0.00034199,0.00000001,0.00000014,0.00002235,-0.0000
 0006,-0.00000006,-0.00003407,0.,0.,0.00000355,0.,0.,0.00000041,0.,0.,0
 .00003164,0.,0.,-0.00011499,0.00000024,-0.00000026,-0.00183599,0.00000
 007,-0.00000008,-0.00021239,0.00000040,-0.00000098,0.00939484,0.000000
 15,-0.00000026,-0.00121705,0.00000540,-0.00000840,-0.06652067,-0.00000
 110,-0.00000007,0.00600079,0.,0.00000004,-0.00065613,-0.00000766,0.000
 01938,0.11194682,0.00279647,-0.00158835,0.00000003,-0.00065458,0.00289
 921,0.00000001,0.00487788,-0.00854440,-0.00000006,-0.00402667,0.000673
 47,0.,0.00048283,-0.00077537,0.,-0.00252696,0.00062028,0.00000001,0.00
 010317,0.00003891,0.,-0.00007757,-0.00005323,0.,-0.00013746,0.00000530
 ,0.,-0.00008334,0.00006386,0.,-0.01188715,0.00208968,0.00000003,0.0027
 4858,0.00205125,0.00000004,-0.01404422,-0.02261374,-0.00000070,0.04196
 563,-0.00721530,-0.00000041,-0.04678021,0.04100083,0.00000217,-0.14180
 034,-0.02620526,-0.00000065,-0.00234037,0.00432240,0.00000028,-0.39260
 606,-0.07065776,0.00000173,0.74552818,-0.00059801,-0.00048191,0.000000
 01,-0.00554631,-0.00559595,0.,-0.00524209,0.01228434,0.00000004,0.0065
 9834,-0.00166527,-0.00000002,0.00023734,0.00596050,0.00000004,-0.00205
 042,-0.00310013,-0.00000002,0.00001682,0.00016183,0.,-0.00012895,-0.00
 018793,0.,-0.00010297,0.00004669,0.,-0.00004653,0.00001239,-0.00000001
 ,0.01324069,-0.00561755,-0.00000009,-0.00081980,-0.00429779,-0.0000000
 1,-0.01101423,-0.01079772,-0.00000030,0.02061491,-0.05826278,-0.000002
 51,0.01104081,0.03612292,0.00000096,-0.08732251,-0.28654288,-0.0000082
 6,0.00306706,-0.00156646,-0.00000018,-0.02112002,-0.13084638,-0.000002
 08,-0.04136979,0.67610708,-0.00000006,0.,0.00009654,-0.00000024,-0.000
 00028,-0.00031089,-0.00000029,0.00000067,-0.00080485,0.00000034,-0.000
 00008,0.00007779,0.,0.00000027,0.00007656,-0.00000005,-0.00000015,-0.0
 0000837,0.,0.,-0.00001546,0.,0.,-0.00009576,0.,0.,-0.00000499,0.,0.,0.
 00001516,0.00000077,-0.00000024,0.00117197,-0.00000010,-0.00000023,0.0
 0033182,-0.00000022,0.00000008,-0.00442506,0.00000037,-0.00000220,0.00
 842684,0.00000109,0.00000054,0.00214533,-0.00000257,-0.00000853,-0.061
 01279,0.00000014,-0.00000032,0.00670887,0.00000267,-0.00000182,-0.0499
 1583,-0.00000749,0.00002087,0.11791794,0.00003676,-0.00006968,0.,-0.00
 010643,0.00005390,0.,0.00000220,-0.00007676,0.,-0.00000304,0.00002602,
 0.,0.00002282,0.00008517,0.,-0.00013385,0.00001036,0.,0.00000536,0.000
 01185,0.,-0.00000375,-0.00000791,0.,-0.00001507,0.00000487,0.,-0.00000
 830,0.00000548,0.,-0.00022940,0.00039472,-0.00000001,0.00007005,-0.000
 04526,0.,0.00022032,0.00322814,0.00000012,-0.01437875,-0.00715765,-0.0
 0000022,0.00060302,0.00019312,0.,-0.33766220,-0.05017383,-0.00000103,0
 .00080455,0.00009607,-0.00000001,0.00143195,-0.00187214,-0.00000009,-0
 .00580135,0.00198931,0.00000013,0.35557502,-0.00003260,0.00001444,0.,-
 0.00005095,-0.00012799,0.,-0.00002574,0.00023222,-0.00000002,0.0001018
 8,-0.00005864,0.,0.00001639,0.00006273,0.,0.00000221,-0.00001710,0.,0.
 00000019,-0.00000017,0.,-0.00000108,-0.00000023,0.,0.00000103,-0.00000
 275,0.,0.00000186,-0.00000098,0.,0.00051842,-0.00045587,0.00000006,0.0
 0002853,-0.00003147,0.,0.00323966,-0.00362915,-0.00000038,0.02412429,0
 .00780670,0.00000002,0.00041310,-0.00132786,-0.00000001,-0.05105325,-0
 .06783108,-0.00000110,-0.00001973,0.00086813,0.00000019,-0.00092355,-0
 .00559059,-0.00000039,-0.02973649,-0.00013165,-0.00000005,0.05397199,0
 .06788331,-0.00000002,0.,-0.00005090,-0.00000002,-0.00000003,0.0000466
 3,-0.00000003,0.00000006,0.00056327,0.00000004,-0.00000001,0.00013844,
 0.,0.00000002,-0.00007769,0.,0.,0.00002137,0.,0.,0.00000327,0.,0.,0.00
 003976,0.,0.,-0.00002538,0.,0.,0.00000053,0.00000009,-0.00000007,-0.00
 117311,0.,-0.00000002,-0.00007201,0.00000018,-0.00000037,0.00787858,0.
 00000073,0.00000031,0.00582767,0.00000001,-0.00000008,-0.00091931,-0.0
 0000098,-0.00000130,-0.03795661,0.,0.00000018,-0.00470422,-0.00000003,
 -0.00000044,0.00471331,-0.00000103,-0.00000003,0.00469403,0.00000110,0
 .00000148,0.02433180,-0.00008640,0.00004166,0.,0.00009498,0.00008678,0
 .,-0.00002869,0.00006160,0.,0.00001317,0.00000627,0.,-0.00002549,-0.00
 005684,0.,0.00009465,0.00001607,0.,-0.00000050,-0.00000421,0.,-0.00000
 360,0.00000303,0.,0.00000457,0.00000028,0.,-0.00000119,-0.00000238,0.,
 0.00007835,-0.00004219,-0.00000001,-0.00027258,0.00010679,0.,-0.003335
 22,0.00253285,0.00000020,-0.00004827,0.00027293,0.,0.00827809,0.020351
 37,0.00000054,-0.00564522,0.00054092,0.00000018,0.00011651,-0.00009710
 ,-0.00000002,-0.09662315,-0.10260125,-0.00000197,-0.00370726,-0.028544
 21,-0.00000079,-0.00037247,-0.00141166,-0.00000007,0.09852882,0.000137
 35,-0.00000180,0.00000001,-0.00002016,0.00008959,0.,0.00021300,-0.0002
 3166,-0.00000002,-0.00013892,0.00001737,0.,-0.00001152,-0.00009952,0.,
 0.00000911,-0.00000782,0.,-0.00000579,-0.00000434,0.,0.00001170,0.0000
 0537,0.,0.00000988,-0.00000237,0.,0.00000738,-0.00000126,0.,-0.0004057
 8,0.00036110,0.00000001,0.00023812,-0.00003743,0.,0.00374201,-0.001008
 53,-0.00000024,0.00044269,0.00021416,0.00000003,-0.01239141,-0.0187492
 8,-0.00000043,-0.00035969,0.00173852,-0.00000014,-0.00005517,-0.000060
 99,0.00000002,-0.09813342,-0.30860048,-0.00000707,0.00161624,0.0006833
 6,-0.00000007,0.00008522,-0.00006707,0.,0.10743170,0.32383012,0.000000
 04,-0.00000001,-0.00028343,0.00000002,0.00000005,0.00002402,0.00000007
 ,-0.00000014,0.00041585,-0.00000006,0.00000001,-0.00003388,0.,-0.00000
 003,-0.00004581,-0.00000001,0.00000002,0.00001785,0.,0.,0.00000125,0.,
 0.,0.00005100,0.,0.,0.00000283,0.,0.,0.00004882,-0.00000020,0.00000004
 ,-0.00046233,0.00000005,0.00000004,-0.00010847,0.00000013,-0.00000022,
 0.00445002,0.00000019,-0.00000009,-0.00075252,-0.00000058,-0.00000078,
 0.00434937,0.00000010,0.,0.00703024,0.,0.00000003,-0.00066444,-0.00000
 155,-0.00000679,-0.03393343,-0.00000025,0.00000011,0.00324758,0.,0.000
 00003,-0.00004956,0.00000218,0.00000762,0.02381095,-0.00002020,-0.0000
 3866,0.,-0.00026285,-0.00018692,0.,-0.00018666,0.00049329,0.,0.0002786
 2,-0.00006926,0.,0.00002174,0.00027517,0.,-0.00013063,-0.00010248,0.,0
 .00000173,0.00001133,0.,-0.00000333,-0.00001071,0.,-0.00001099,0.00000
 385,0.,-0.00000432,0.00000227,0.,0.00062405,-0.00009826,0.,-0.00001398
 ,-0.00010978,0.,0.00028122,-0.00047251,-0.00000002,-0.00084613,-0.0023
 7832,-0.00000005,-0.00405311,-0.00278956,0.00000003,0.01014258,-0.0106
 3691,-0.00000042,0.00033361,-0.00049922,0.,-0.01257438,0.02519591,0.00
 000104,-0.18227183,0.14316031,0.00000642,0.00062268,0.00044754,-0.0000
 0002,0.00111104,-0.00022021,-0.00000007,0.18901656,0.00011293,0.000007
 98,0.,0.00019203,0.00031007,0.,0.00042522,-0.00072035,0.,-0.00038921,0
 .00009067,0.,-0.00000563,-0.00029238,0.,0.00007111,0.00009417,0.,-0.00
 000275,-0.00001061,0.,0.00000769,0.00000956,0.,0.00000976,-0.00000424,
 0.,0.00000552,-0.00000089,0.,-0.00082941,0.00032588,0.,0.00000440,0.00
 026574,0.,-0.00140196,0.00004313,0.00000005,-0.00276975,-0.00401474,-0
 .00000032,-0.00166822,0.00030878,-0.00000023,0.02125899,-0.01460576,-0
 .00000076,0.00096865,-0.00097956,-0.00000004,-0.00698724,0.00822115,0.
 00000020,0.14419886,-0.22519701,-0.00000828,-0.00009827,0.00098305,0.0
 0000015,0.00028828,0.00058987,0.00000016,-0.15361128,0.23449044,0.,0.,
 0.00001498,0.00000002,0.00000003,0.00003125,0.00000003,-0.00000006,-0.
 00002871,-0.00000003,0.,0.00001419,0.,-0.00000002,0.00000732,0.,0.0000
 0001,-0.00000641,0.,0.,0.00001246,0.,0.,0.00002358,0.,0.,0.00000360,0.
 ,0.,-0.00002309,-0.00000006,0.00000003,0.00008039,0.,0.00000001,-0.000
 11248,-0.00000008,0.00000006,-0.00134695,-0.00000012,-0.00000036,0.004
 16555,0.00000010,-0.00000018,0.00743105,0.00000077,-0.00000052,0.00285
 788,0.00000004,-0.00000005,0.00061690,0.00000004,-0.00000007,0.0045440
 0,0.00000632,-0.00000822,-0.03314869,0.,0.00000014,-0.00276994,-0.0000
 0006,0.00000013,-0.00406730,-0.00000698,0.00000904,0.02219082,-0.01295
 328,-0.00064453,0.00000002,0.00128700,0.00796701,-0.00000005,-0.099745
 14,0.05169673,0.00000003,0.02097673,-0.00277255,-0.00000011,-0.0011478
 5,0.00896017,0.00000007,-0.00021100,0.00131651,0.00000001,0.00040956,-
 0.00053739,0.,-0.00039737,-0.00006457,-0.00000001,-0.00026227,0.000218
 22,0.,-0.00049026,-0.00015028,0.,-0.29070651,-0.04387166,0.00000029,-0
 .05351542,-0.01906509,0.00000015,-0.18526022,0.13524661,0.00000038,-0.
 04876079,0.04181270,0.00000108,0.00650837,-0.00295915,-0.00000020,0.00
 181845,-0.01623238,-0.00000059,-0.00014820,-0.00033488,0.00000001,-0.0
 0280435,-0.01409404,-0.00000033,0.00657583,-0.00599424,-0.00000039,-0.
 00062078,0.00047611,0.,0.00066804,-0.00057896,0.00000011,-0.00044341,0
 .00080079,0.00000005,0.64993201,-0.01130081,0.00743361,0.00000010,0.05
 016435,-0.01947247,-0.00000013,0.02673874,-0.01353022,-0.00000025,-0.0
 0026441,-0.00495420,-0.00000008,-0.00065313,-0.00747769,-0.00000003,0.
 01126501,0.00410229,-0.00000002,0.00009433,-0.00098947,0.,0.00011286,0
 .00059287,0.,0.00046182,-0.00049104,0.,-0.00000904,-0.00002046,0.,-0.0
 4998954,-0.08770765,0.00000013,-0.01258572,-0.06671931,0.00000011,0.10
 659476,-0.23728660,-0.00000055,0.01872797,0.01110916,-0.00000014,0.031
 64559,-0.04187149,-0.00000033,-0.00633159,-0.00259015,-0.00000020,-0.0
 0133987,0.00065695,0.00000007,-0.01605854,0.00654277,0.00000019,0.0086
 8726,0.00731428,0.00000017,-0.00065126,0.00107852,0.00000010,0.0003004
 1,-0.00056645,-0.00000005,0.00040148,-0.00008202,0.,-0.14373784,0.4458
 4762,-0.00000013,0.00000008,0.00276120,0.00000014,-0.00000038,-0.00416
 049,0.,0.00000034,0.00391297,0.00000019,-0.00000010,0.00641875,0.,0.00
 000011,0.00083044,0.00000006,-0.00000006,0.00084490,0.,0.,-0.00024234,
 0.,0.,-0.00097236,0.,0.,-0.00092972,0.,0.,-0.00036073,0.,-0.00000031,-
 0.03802796,0.,0.00000038,-0.02163969,0.00000014,-0.00000062,-0.0404204
 8,0.00000005,0.00000039,0.00646482,0.,-0.00000063,0.00550764,-0.000000
 01,-0.00000018,0.00186637,0.00000001,0.00000004,-0.00052769,-0.0000001
 1,-0.00000006,0.00017273,0.00000003,0.00000012,-0.00081944,0.,0.000000
 02,-0.00036306,0.00000001,-0.00000006,0.00107971,0.,0.,0.00013494,-0.0
 0000048,0.00000085,0.07906982,0.00308478,0.00113091,0.00000009,0.00767
 460,0.01160203,0.00000004,0.01571088,-0.01847808,-0.00000024,-0.011177
 20,0.00229054,0.00000007,-0.00109042,-0.00972493,-0.00000005,0.0034748
 9,0.00327201,0.,-0.00020288,-0.00018967,0.,0.00055779,0.00028404,-0.00
 000002,0.00030113,-0.00006612,0.,0.00009369,0.00002650,-0.00000001,-0.
 01705274,0.02637443,0.00000004,0.00044105,0.00872729,-0.00000005,-0.03
 724648,-0.01383760,0.00000034,0.02304794,-0.01012272,-0.00000063,-0.33
 572956,-0.09754170,0.00000454,-0.00896342,0.01026679,0.00000038,0.0001
 8515,0.00021732,0.,-0.08511684,0.01319354,0.00000257,0.00482750,0.0099
 2515,0.00000020,-0.00010843,-0.00005878,0.00000005,0.00124550,-0.00180
 338,-0.00000013,-0.00128118,-0.00055028,-0.00000006,0.01046285,-0.0085
 4913,0.00000008,0.60629980,-0.00017119,-0.00064612,0.,-0.00087052,-0.0
 0258549,-0.00000001,-0.00739533,0.00065850,0.00000004,0.00096137,-0.00
 053639,0.,0.00002581,0.00089724,0.,-0.00026628,-0.00074021,0.,0.000099
 03,-0.00018969,0.,0.00003678,0.00005935,0.,0.00013543,-0.00005771,0.,0
 .00004521,-0.00005865,0.,0.00736668,-0.02745877,0.,0.00061111,-0.00160
 974,-0.00000003,-0.03466099,-0.00395334,0.00000050,0.00062813,-0.00828
 903,-0.00000019,-0.06201865,-0.14100235,0.00000003,-0.00135824,0.00227
 307,0.00000009,-0.00187632,-0.00012096,-0.00000001,0.04407103,0.016787
 71,-0.00000078,-0.00131378,-0.00826353,-0.00000043,-0.00004258,0.00041
 512,0.00000003,0.00052789,0.00200611,0.,0.00143950,0.00039141,0.000000
 03,0.00739773,0.00625041,0.00000002,-0.12320675,0.47545694,0.00000003,
 -0.00000003,0.00036546,-0.00000001,0.,-0.00031896,-0.00000003,-0.00000
 010,-0.00027874,-0.00000004,0.,0.00008307,0.00000002,0.,0.00019637,-0.
 00000006,0.00000003,0.00000120,0.,0.,-0.00001260,0.,0.,-0.00016139,0.,
 0.,-0.00001495,0.,0.,-0.00010024,-0.00000004,-0.00000006,0.00678248,0.
 00000003,-0.00000004,-0.00078673,0.00000008,-0.00000067,0.01048448,-0.
 00000027,0.,0.00223843,0.00000445,0.00000121,-0.04427562,0.00000013,-0
 .00000018,-0.00060109,-0.00000003,-0.00000001,-0.00057334,0.00000311,-
 0.00000034,0.01038409,-0.00000013,-0.00000030,0.00402355,0.,0.00000001
 ,-0.00012630,-0.00000017,0.00000014,-0.00335772,0.00000004,0.00000001,
 0.00013369,-0.00000022,0.00000018,-0.00208739,-0.00000923,0.00000338,0
 .03151307,-0.00092007,-0.00023630,-0.00000002,-0.00229933,-0.00286840,
 0.00000001,-0.00393947,0.00679540,0.00000008,0.00355225,-0.00042990,-0
 .00000003,0.00011308,0.00263435,0.00000001,-0.00080981,-0.00093833,0.,
 0.00004100,0.00005448,0.,-0.00043363,-0.00010448,0.,-0.00005720,0.0000
 2208,0.,-0.00002926,-0.00004540,0.,-0.00484925,-0.00504140,-0.00000005
 ,-0.00095143,-0.00270399,0.00000001,0.00622611,0.00079736,-0.00000004,
 -0.00430803,0.00257351,0.00000014,-0.04716476,0.03354077,0.00000093,0.
 00101087,-0.00145656,-0.00000006,0.00032545,0.00004391,0.,-0.00039574,
 -0.00630576,-0.00000021,-0.00116072,0.00000936,0.00000009,0.00004909,-
 0.00002939,0.,-0.00008366,0.00018001,-0.00000002,-0.00033083,-0.000030
 21,0.,-0.00117198,-0.00372371,0.,-0.17943841,0.16983494,0.00000235,0.2
 3702572,0.00292592,0.00020649,0.00000004,0.00321044,0.00884387,0.00000
 002,0.01613807,-0.01232890,-0.00000019,-0.00702254,0.00212118,0.000000
 04,-0.00063181,-0.00506810,-0.00000003,0.00062644,0.00188810,0.0000000
 1,-0.00017182,0.00014326,0.,0.00036644,0.00002972,-0.00000001,-0.00005
 638,0.00006760,0.,-0.00005077,0.00009754,0.,-0.01242103,0.01511137,0.0
 0000002,0.00155473,0.00634910,0.,-0.01187746,-0.00148285,-0.00000003,0
 .00981752,-0.00388920,-0.00000025,0.01179535,0.01938424,-0.00000012,-0
 .00200397,0.00358571,0.00000012,0.00002369,0.00006409,0.00000001,-0.01
 344361,0.00443075,0.00000048,0.00180592,0.00386155,0.00000008,0.000039
 10,-0.00007161,0.00000001,0.00019104,-0.00009658,0.00000001,-0.0002065
 5,-0.00022433,-0.00000003,-0.00485500,-0.00716926,0.00000005,0.1968185
 9,-0.30968390,-0.00000323,-0.19257233,0.27383017,0.00000003,0.,-0.0000
 9076,0.00000009,0.00000011,0.00043134,0.00000011,-0.00000024,-0.000774
 20,-0.00000012,0.00000002,-0.00028264,0.,-0.00000010,-0.00010047,0.000
 00003,0.00000005,-0.00000600,0.,0.,-0.00001565,0.,0.,0.00015177,0.,0.,
 0.00003081,0.,0.,0.00006074,-0.00000015,0.00000020,-0.00727398,-0.0000
 0002,0.00000007,0.00063436,-0.00000034,0.00000019,-0.00350219,0.000000
 20,-0.00000009,0.00009179,0.00000099,-0.00000063,-0.00199327,-0.000000
 07,0.00000014,0.00000498,0.,0.,0.00008784,0.00000018,0.00000010,0.0058
 9695,0.00000007,-0.00000012,0.00162814,0.,0.,0.00002944,-0.00000001,0.
 00000005,-0.00077060,0.00000002,0.00000003,-0.00075903,0.00000020,-0.0
 0000012,0.00148706,0.00000200,-0.00000268,-0.01351080,-0.00000320,0.00
 000302,0.01854440\\0.00153771,-0.00241722,-0.00000004,-0.00299360,-0.0
 0608063,0.,-0.00717643,-0.00058065,-0.00000002,-0.00090600,0.00112287,
 0.00000006,0.00086481,0.00487173,0.00000002,0.00166535,0.00146445,-0.0
 0000009,0.00045014,-0.00041361,0.00000004,-0.00044209,0.00030034,0.,0.
 00005937,0.00041365,0.,0.00031474,0.00019631,0.,0.00568100,-0.00711403
 ,0.00000003,-0.00349323,-0.01250018,0.00000028,0.00362669,-0.00362082,
 -0.00000031,-0.00622306,0.00229560,-0.00000026,-0.00789384,-0.00295583
 ,-0.00000028,0.00174188,-0.00107490,-0.00000027,-0.00040423,0.00018920
 ,0.,0.00416726,0.00008521,0.00000028,0.00510236,0.00327964,0.00000032,
 0.00008539,0.00036209,0.,0.00052372,-0.00002828,-0.00000002,0.00056518
 ,0.00039540,0.00000002,0.00265222,0.00101764,0.00000011,0.00544344,0.0
 0453875,-0.00000023,-0.00494881,0.01625327,0.00000036\\\@
 The archive entry for this job was punched.


 A great many people think they are thinking when they
 are merely rearranging their prejudices.
                               -- William James
 Job cpu time:       0 days  2 hours 50 minutes  2.2 seconds.
 Elapsed time:       0 days  0 hours 17 minutes 48.5 seconds.
 File lengths (MBytes):  RWF=   1380 Int=      0 D2E=      0 Chk=     48 Scr=      8
 Normal termination of Gaussian 16 at Mon Jul 13 20:51:10 2020.
