 Entering Gaussian System, Link 0=g16
 Initial command:
 /gpfs/loomis/apps/avx/software/Gaussian/16-C.01_AVX/g16/l1.exe "/home/fas/batista/pev4/scratch60/gauss-scratch/Gau-177161.inp" -scrdir="/home/fas/batista/pev4/scratch60/gauss-scratch/"
 Entering Link 1 = /gpfs/loomis/apps/avx/software/Gaussian/16-C.01_AVX/g16/l1.exe PID=    177162.
  
 Copyright (c) 1988-2019, Gaussian, Inc.  All Rights Reserved.
  
 This is part of the Gaussian(R) 16 program.  It is based on
 the Gaussian(R) 09 system (copyright 2009, Gaussian, Inc.),
 the Gaussian(R) 03 system (copyright 2003, Gaussian, Inc.),
 the Gaussian(R) 98 system (copyright 1998, Gaussian, Inc.),
 the Gaussian(R) 94 system (copyright 1995, Gaussian, Inc.),
 the Gaussian 92(TM) system (copyright 1992, Gaussian, Inc.),
 the Gaussian 90(TM) system (copyright 1990, Gaussian, Inc.),
 the Gaussian 88(TM) system (copyright 1988, Gaussian, Inc.),
 the Gaussian 86(TM) system (copyright 1986, Carnegie Mellon
 University), and the Gaussian 82(TM) system (copyright 1983,
 Carnegie Mellon University). Gaussian is a federally registered
 trademark of Gaussian, Inc.
  
 This software contains proprietary and confidential information,
 including trade secrets, belonging to Gaussian, Inc.
  
 This software is provided under written license and may be
 used, copied, transmitted, or stored only in accord with that
 written license.
  
 The following legend is applicable only to US Government
 contracts under FAR:
  
                    RESTRICTED RIGHTS LEGEND
  
 Use, reproduction and disclosure by the US Government is
 subject to restrictions as set forth in subparagraphs (a)
 and (c) of the Commercial Computer Software - Restricted
 Rights clause in FAR 52.227-19.
  
 Gaussian, Inc.
 340 Quinnipiac St., Bldg. 40, Wallingford CT 06492
  
  
 ---------------------------------------------------------------
 Warning -- This program may not be used in any manner that
 competes with the business of Gaussian, Inc. or will provide
 assistance to any competitor of Gaussian, Inc.  The licensee
 of this program is prohibited from giving any competitor of
 Gaussian, Inc. access to this program.  By using this program,
 the user acknowledges that Gaussian, Inc. is engaged in the
 business of creating and licensing software in the field of
 computational chemistry and represents and warrants to the
 licensee that it is not a competitor of Gaussian, Inc. and that
 it will not use this program in any manner prohibited above.
 ---------------------------------------------------------------
  

 Cite this work as:
 Gaussian 16, Revision C.01,
 M. J. Frisch, G. W. Trucks, H. B. Schlegel, G. E. Scuseria, 
 M. A. Robb, J. R. Cheeseman, G. Scalmani, V. Barone, 
 G. A. Petersson, H. Nakatsuji, X. Li, M. Caricato, A. V. Marenich, 
 J. Bloino, B. G. Janesko, R. Gomperts, B. Mennucci, H. P. Hratchian, 
 J. V. Ortiz, A. F. Izmaylov, J. L. Sonnenberg, D. Williams-Young, 
 F. Ding, F. Lipparini, F. Egidi, J. Goings, B. Peng, A. Petrone, 
 T. Henderson, D. Ranasinghe, V. G. Zakrzewski, J. Gao, N. Rega, 
 G. Zheng, W. Liang, M. Hada, M. Ehara, K. Toyota, R. Fukuda, 
 J. Hasegawa, M. Ishida, T. Nakajima, Y. Honda, O. Kitao, H. Nakai, 
 T. Vreven, K. Throssell, J. A. Montgomery, Jr., J. E. Peralta, 
 F. Ogliaro, M. J. Bearpark, J. J. Heyd, E. N. Brothers, K. N. Kudin, 
 V. N. Staroverov, T. A. Keith, R. Kobayashi, J. Normand, 
 K. Raghavachari, A. P. Rendell, J. C. Burant, S. S. Iyengar, 
 J. Tomasi, M. Cossi, J. M. Millam, M. Klene, C. Adamo, R. Cammi, 
 J. W. Ochterski, R. L. Martin, K. Morokuma, O. Farkas, 
 J. B. Foresman, and D. J. Fox, Gaussian, Inc., Wallingford CT, 2019.
 
 ******************************************
 Gaussian 16:  ES64L-G16RevC.01  3-Jul-2019
                13-Jul-2020 
 ******************************************
 %chk=config_4_4.chk
 %mem=58GB
 %nprocshared=10
 Will use up to   10 processors via shared memory.
 ----------------------------------------------------------------------
 #p opt=addgic freq td wb97xd/cc-pvdz nosymm int=ultrafine scrf=(solven
 t=CarbonTetraChloride)
 ----------------------------------------------------------------------
 1/18=20,19=15,26=6,38=1,145=903/1,3;
 2/9=110,12=2,15=1,17=6,18=5,40=1/2;
 3/5=16,11=9,25=1,30=1,70=2201,71=1,72=11,74=-58,75=-5/1,2,3,8;
 4//1;
 5/5=2,38=5,53=11/2;
 8/6=1,10=1/1;
 9/15=2,42=1,70=2/14;
 10/5=4,31=1/2;
 6/7=2,8=2,9=2,10=2/1;
 7/12=6,13=5,30=1/1,2,3,16;
 1/18=20,19=15,26=6,145=903/3(2);
 2/9=110,15=1/2;
 99//99;
 2/9=110,15=1/2;
 3/5=16,11=9,25=1,30=1,70=2205,71=1,72=11,74=-58,75=-5/1,2,3,8;
 4/5=5,16=3,69=1/1;
 5/5=2,38=5,53=11/2;
 8/6=1,10=1/1;
 9/15=2,42=1,49=4,70=2/14;
 10/5=4,31=1/2;
 7/12=6,13=5,30=1/1,2,3,16;
 1/18=20,19=15,26=6,145=903/3(-8);
 2/9=110,15=1/2;
 6/7=2,8=2,9=2,10=2/1;
 99/9=10/99;
 Leave Link    1 at Mon Jul 13 13:35:05 2020, MaxMem=  7784628224 cpu:               3.8 elap:               0.4
 (Enter /gpfs/loomis/apps/avx/software/Gaussian/16-C.01_AVX/g16/l101.exe)
 ------------------------------------------------
 NM 2D-scan of HBT TD-WB97XD pVDZ in CTC Relaxed.
 ------------------------------------------------
 Symbolic Z-matrix:
 Charge =  0 Multiplicity = 1
 C                     1.71879  -3.27275  -0.00002 
 C                     0.99682  -2.08041  -0.00002 
 C                     1.67077  -0.82167  -0.00002 
 C                     3.0904   -0.77961  -0.00002 
 C                     3.78991  -1.96994  -0.00002 
 C                     3.11556  -3.20965  -0.00002 
 H                     1.20909  -4.23863  -0.00002 
 H                     3.5937    0.1896   -0.00002 
 H                     4.88214  -1.95583  -0.00002 
 H                     3.69218  -4.13681  -0.00003 
 N                     0.87677   0.24457  -0.00002 
 S                    -0.74531  -1.81354  -0.00002 
 C                    -1.39851   1.00398   0. 
 C                    -2.81189   0.87067  -0.00001 
 C                    -0.88066   2.39465   0.00003 
 C                    -3.64233   1.98855   0.00002 
 H                    -3.24885  -0.12994  -0.00004 
 C                    -1.75066   3.49878   0.00006 
 C                    -3.12667   3.3082    0.00006 
 H                    -4.72472   1.84184   0.00002 
 H                    -1.30035   4.493     0.00009 
 H                    -3.80448   4.16283   0.00009 
 C                    -0.44934  -0.04812  -0.00001 
 O                     0.41013   2.6196    0.00003 
 H                     0.81781   1.82363   0.00001 
 
 Initializing the GIC definitions file.
 Number of initial coordinates =   131
 Number of input entries/lines =    52
 Number of additional coordinates =     2
 Number of removed coordinates =     0
 Number of frozen coordinates =     2
 Number of final active and frozen coordinates =   133
 ITRead=  0  0  0  0  0  0  0  0  0  0  0  0  0  0  0  0  0  0  0  0
 ITRead=  0  0  0  0  0
 MicOpt= -1 -1 -1 -1 -1 -1 -1 -1 -1 -1 -1 -1 -1 -1 -1 -1 -1 -1 -1 -1
 MicOpt= -1 -1 -1 -1 -1
 NAtoms=     25 NQM=       25 NQMF=       0 NMMI=      0 NMMIF=      0
                NMic=       0 NMicF=      0.
                    Isotopes and Nuclear Properties:
 (Nuclear quadrupole moments (NQMom) in fm**2, nuclear magnetic moments (NMagM)
  in nuclear magnetons)

  Atom         1           2           3           4           5           6           7           8           9          10
 IAtWgt=          12          12          12          12          12          12           1           1           1           1
 AtmWgt=  12.0000000  12.0000000  12.0000000  12.0000000  12.0000000  12.0000000   1.0078250   1.0078250   1.0078250   1.0078250
 NucSpn=           0           0           0           0           0           0           1           1           1           1
 AtZEff=  -0.0000000  -0.0000000  -0.0000000  -0.0000000  -0.0000000  -0.0000000  -0.0000000  -0.0000000  -0.0000000  -0.0000000
 NQMom=    0.0000000   0.0000000   0.0000000   0.0000000   0.0000000   0.0000000   0.0000000   0.0000000   0.0000000   0.0000000
 NMagM=    0.0000000   0.0000000   0.0000000   0.0000000   0.0000000   0.0000000   2.7928460   2.7928460   2.7928460   2.7928460
 AtZNuc=   6.0000000   6.0000000   6.0000000   6.0000000   6.0000000   6.0000000   1.0000000   1.0000000   1.0000000   1.0000000

  Atom        11          12          13          14          15          16          17          18          19          20
 IAtWgt=          14          32          12          12          12          12           1          12          12           1
 AtmWgt=  14.0030740  31.9720718  12.0000000  12.0000000  12.0000000  12.0000000   1.0078250  12.0000000  12.0000000   1.0078250
 NucSpn=           2           0           0           0           0           0           1           0           0           1
 AtZEff=  -0.0000000  -0.0000000  -0.0000000  -0.0000000  -0.0000000  -0.0000000  -0.0000000  -0.0000000  -0.0000000  -0.0000000
 NQMom=    2.0440000   0.0000000   0.0000000   0.0000000   0.0000000   0.0000000   0.0000000   0.0000000   0.0000000   0.0000000
 NMagM=    0.4037610   0.0000000   0.0000000   0.0000000   0.0000000   0.0000000   2.7928460   0.0000000   0.0000000   2.7928460
 AtZNuc=   7.0000000  16.0000000   6.0000000   6.0000000   6.0000000   6.0000000   1.0000000   6.0000000   6.0000000   1.0000000

  Atom        21          22          23          24          25
 IAtWgt=           1           1          12          16           1
 AtmWgt=   1.0078250   1.0078250  12.0000000  15.9949146   1.0078250
 NucSpn=           1           1           0           0           1
 AtZEff=  -0.0000000  -0.0000000  -0.0000000  -0.0000000  -0.0000000
 NQMom=    0.0000000   0.0000000   0.0000000   0.0000000   0.0000000
 NMagM=    2.7928460   2.7928460   0.0000000   0.0000000   2.7928460
 AtZNuc=   1.0000000   1.0000000   6.0000000   8.0000000   1.0000000
 Leave Link  101 at Mon Jul 13 13:35:08 2020, MaxMem=  7784628224 cpu:              34.6 elap:               3.5
 (Enter /gpfs/loomis/apps/avx/software/Gaussian/16-C.01_AVX/g16/l103.exe)

 GradGradGradGradGradGradGradGradGradGradGradGradGradGradGradGradGradGrad
 Berny optimization.
 Initialization pass.
                           ----------------------------
                           !    Initial Parameters    !
                           ! (Angstroms and Degrees)  !
 --------------------------                            --------------------------
 ! Name  Definition              Value          Derivative Info.                !
 --------------------------------------------------------------------------------
 ! R1    R(1,2)                  1.3939         estimate D2E/DX2                !
 ! R2    R(1,6)                  1.3982         estimate D2E/DX2                !
 ! R3    R(1,7)                  1.0921         estimate D2E/DX2                !
 ! R4    R(2,3)                  1.4278         estimate D2E/DX2                !
 ! R5    R(2,12)                 1.7624         estimate D2E/DX2                !
 ! R6    R(3,4)                  1.4203         estimate D2E/DX2                !
 ! R7    R(3,11)                 1.3294         estimate D2E/DX2                !
 ! R8    R(4,5)                  1.3807         estimate D2E/DX2                !
 ! R9    R(4,8)                  1.0921         estimate D2E/DX2                !
 ! R10   R(5,6)                  1.4112         estimate D2E/DX2                !
 ! R11   R(5,9)                  1.0923         estimate D2E/DX2                !
 ! R12   R(6,10)                 1.0918         estimate D2E/DX2                !
 ! R13   R(11,23)                1.358          estimate D2E/DX2                !
 ! R14   R(12,23)                1.7901         estimate D2E/DX2                !
 ! R15   R(13,14)                1.4197         estimate D2E/DX2                !
 ! R16   R(13,15)                1.484          estimate D2E/DX2                !
 ! R17   R(13,23)                1.417          estimate D2E/DX2                !
 ! R18   R(14,16)                1.3926         estimate D2E/DX2                !
 ! R19   R(14,17)                1.0919         estimate D2E/DX2                !
 ! R20   R(15,18)                1.4057         estimate D2E/DX2                !
 ! R21   R(15,24)                1.3102         estimate D2E/DX2                !
 ! R22   R(16,19)                1.4168         estimate D2E/DX2                !
 ! R23   R(16,20)                1.0923         estimate D2E/DX2                !
 ! R24   R(18,19)                1.3891         estimate D2E/DX2                !
 ! R25   R(18,21)                1.0914         estimate D2E/DX2                !
 ! R26   R(19,22)                1.0908         estimate D2E/DX2                !
 ! R27   R(24,25)                0.8943         estimate D2E/DX2                !
 ! A1    A(2,1,6)              118.6084         estimate D2E/DX2                !
 ! A2    A(2,1,7)              120.9839         estimate D2E/DX2                !
 ! A3    A(6,1,7)              120.4077         estimate D2E/DX2                !
 ! A4    A(1,2,3)              120.6396         estimate D2E/DX2                !
 ! A5    A(1,2,12)             129.9044         estimate D2E/DX2                !
 ! A6    A(3,2,12)             109.456          estimate D2E/DX2                !
 ! A7    A(2,3,4)              119.8621         estimate D2E/DX2                !
 ! A8    A(2,3,11)             115.1609         estimate D2E/DX2                !
 ! A9    A(4,3,11)             124.977          estimate D2E/DX2                !
 ! A10   A(3,4,5)              118.7442         estimate D2E/DX2                !
 ! A11   A(3,4,8)              119.1392         estimate D2E/DX2                !
 ! A12   A(5,4,8)              122.1166         estimate D2E/DX2                !
 ! A13   A(4,5,6)              121.0147         estimate D2E/DX2                !
 ! A14   A(4,5,9)              119.7007         estimate D2E/DX2                !
 ! A15   A(6,5,9)              119.2846         estimate D2E/DX2                !
 ! A16   A(1,6,5)              121.131          estimate D2E/DX2                !
 ! A17   A(1,6,10)             119.2912         estimate D2E/DX2                !
 ! A18   A(5,6,10)             119.5778         estimate D2E/DX2                !
 ! A19   A(3,11,23)            114.2277         estimate D2E/DX2                !
 ! A20   A(2,12,23)             89.1923         estimate D2E/DX2                !
 ! A21   A(14,13,15)           115.8121         estimate D2E/DX2                !
 ! A22   A(14,13,23)           126.6678         estimate D2E/DX2                !
 ! A23   A(15,13,23)           117.5202         estimate D2E/DX2                !
 ! A24   A(13,14,16)           121.2195         estimate D2E/DX2                !
 ! A25   A(13,14,17)           118.9784         estimate D2E/DX2                !
 ! A26   A(16,14,17)           119.8021         estimate D2E/DX2                !
 ! A27   A(13,15,18)           121.3394         estimate D2E/DX2                !
 ! A28   A(13,15,24)           120.3098         estimate D2E/DX2                !
 ! A29   A(18,15,24)           118.3508         estimate D2E/DX2                !
 ! A30   A(14,16,19)           122.0491         estimate D2E/DX2                !
 ! A31   A(14,16,20)           118.8885         estimate D2E/DX2                !
 ! A32   A(19,16,20)           119.0624         estimate D2E/DX2                !
 ! A33   A(15,18,19)           120.3512         estimate D2E/DX2                !
 ! A34   A(15,18,21)           117.3964         estimate D2E/DX2                !
 ! A35   A(19,18,21)           122.2524         estimate D2E/DX2                !
 ! A36   A(16,19,18)           119.2287         estimate D2E/DX2                !
 ! A37   A(16,19,22)           120.2387         estimate D2E/DX2                !
 ! A38   A(18,19,22)           120.5326         estimate D2E/DX2                !
 ! A39   A(11,23,12)           111.9631         estimate D2E/DX2                !
 ! A40   A(11,23,13)           119.6096         estimate D2E/DX2                !
 ! A41   A(12,23,13)           128.4273         estimate D2E/DX2                !
 ! A42   A(15,24,25)           107.2351         estimate D2E/DX2                !
 ! D1    D(6,1,2,3)              0.0            estimate D2E/DX2                !
 ! D2    D(6,1,2,12)          -179.9999         estimate D2E/DX2                !
 ! D3    D(7,1,2,3)            180.0            estimate D2E/DX2                !
 ! D4    D(7,1,2,12)             0.0            estimate D2E/DX2                !
 ! D5    D(2,1,6,5)              0.0            estimate D2E/DX2                !
 ! D6    D(2,1,6,10)           180.0            estimate D2E/DX2                !
 ! D7    D(7,1,6,5)           -179.9999         estimate D2E/DX2                !
 ! D8    D(7,1,6,10)             0.0001         estimate D2E/DX2                !
 ! D9    D(1,2,3,4)             -0.0001         estimate D2E/DX2                !
 ! D10   D(1,2,3,11)           179.9999         estimate D2E/DX2                !
 ! D11   D(12,2,3,4)           179.9999         estimate D2E/DX2                !
 ! D12   D(12,2,3,11)           -0.0001         estimate D2E/DX2                !
 ! D13   D(1,2,12,23)          179.9999         estimate D2E/DX2                !
 ! D14   D(3,2,12,23)            0.0            estimate D2E/DX2                !
 ! D15   D(2,3,4,5)              0.0            estimate D2E/DX2                !
 ! D16   D(2,3,4,8)           -180.0            estimate D2E/DX2                !
 ! D17   D(11,3,4,5)          -180.0            estimate D2E/DX2                !
 ! D18   D(11,3,4,8)             0.0            estimate D2E/DX2                !
 ! D19   D(2,3,11,23)            0.0002         estimate D2E/DX2                !
 ! D20   D(4,3,11,23)         -179.9998         estimate D2E/DX2                !
 ! D21   D(3,4,5,6)              0.0            estimate D2E/DX2                !
 ! D22   D(3,4,5,9)           -180.0            estimate D2E/DX2                !
 ! D23   D(8,4,5,6)           -180.0            estimate D2E/DX2                !
 ! D24   D(8,4,5,9)              0.0            estimate D2E/DX2                !
 ! D25   D(4,5,6,1)              0.0            estimate D2E/DX2                !
 ! D26   D(4,5,6,10)           180.0            estimate D2E/DX2                !
 ! D27   D(9,5,6,1)            180.0            estimate D2E/DX2                !
 ! D28   D(9,5,6,10)             0.0            estimate D2E/DX2                !
 ! D29   D(3,11,23,12)          -0.0002         estimate D2E/DX2                !
 ! D30   D(3,11,23,13)         179.9994         estimate D2E/DX2                !
 ! D31   D(2,12,23,11)           0.0002         estimate D2E/DX2                !
 ! D32   D(2,12,23,13)        -179.9994         estimate D2E/DX2                !
 ! D33   D(15,13,14,16)         -0.0005         estimate D2E/DX2                !
 ! D34   D(15,13,14,17)        179.9996         estimate D2E/DX2                !
 ! D35   D(23,13,14,16)        179.9993         estimate D2E/DX2                !
 ! D36   D(23,13,14,17)         -0.0005         estimate D2E/DX2                !
 ! D37   D(14,13,15,18)          0.0006         estimate D2E/DX2                !
 ! D38   D(14,13,15,24)       -179.9995         estimate D2E/DX2                !
 ! D39   D(23,13,15,18)       -179.9993         estimate D2E/DX2                !
 ! D40   D(23,13,15,24)          0.0006         estimate D2E/DX2                !
 ! D41   D(14,13,23,11)        179.9993         estimate D2E/DX2                !
 ! D42   D(14,13,23,12)         -0.0012         estimate D2E/DX2                !
 ! D43   D(15,13,23,11)         -0.0009         estimate D2E/DX2                !
 ! D44   D(15,13,23,12)        179.9987         estimate D2E/DX2                !
 ! D45   D(13,14,16,19)          0.0001         estimate D2E/DX2                !
 ! D46   D(13,14,16,20)       -179.9998         estimate D2E/DX2                !
 ! D47   D(17,14,16,19)        180.0            estimate D2E/DX2                !
 ! D48   D(17,14,16,20)          0.0            estimate D2E/DX2                !
 ! D49   D(13,15,18,19)         -0.0002         estimate D2E/DX2                !
 ! D50   D(13,15,18,21)        179.9998         estimate D2E/DX2                !
 ! D51   D(24,15,18,19)        179.9999         estimate D2E/DX2                !
 ! D52   D(24,15,18,21)         -0.0001         estimate D2E/DX2                !
 ! D53   D(13,15,24,25)         -0.0002         estimate D2E/DX2                !
 ! D54   D(18,15,24,25)        179.9997         estimate D2E/DX2                !
 ! D55   D(14,16,19,18)          0.0003         estimate D2E/DX2                !
 ! D56   D(14,16,19,22)       -179.9998         estimate D2E/DX2                !
 ! D57   D(20,16,19,18)       -179.9998         estimate D2E/DX2                !
 ! D58   D(20,16,19,22)          0.0002         estimate D2E/DX2                !
 ! D59   D(15,18,19,16)         -0.0002         estimate D2E/DX2                !
 ! D60   D(15,18,19,22)        179.9999         estimate D2E/DX2                !
 ! D61   D(21,18,19,16)        179.9998         estimate D2E/DX2                !
 ! D62   D(21,18,19,22)         -0.0002         estimate D2E/DX2                !
 ! Qtot  GIC-1                 -20.0            Frozen                          !
 ! Ptot  GIC-2                 -80.0            Frozen                          !
 --------------------------------------------------------------------------------
 NOTE: GIC-type coordinates are in arbitrary units.
 Trust Radius=3.00D-01 FncErr=5.00D-06 GrdErr=5.00D-06 EigMax=2.50D+02 EigMin=1.00D-04
 Number of steps in this run=    143 maximum allowed number of steps=    150.
 GradGradGradGradGradGradGradGradGradGradGradGradGradGradGradGradGradGrad

 Leave Link  103 at Mon Jul 13 13:35:08 2020, MaxMem=  7784628224 cpu:               0.4 elap:               0.1
 (Enter /gpfs/loomis/apps/avx/software/Gaussian/16-C.01_AVX/g16/l202.exe)
                          Input orientation:                          
 ---------------------------------------------------------------------
 Center     Atomic      Atomic             Coordinates (Angstroms)
 Number     Number       Type             X           Y           Z
 ---------------------------------------------------------------------
      1          6           0        1.718793   -3.272752   -0.000024
      2          6           0        0.996821   -2.080410   -0.000021
      3          6           0        1.670766   -0.821671   -0.000020
      4          6           0        3.090399   -0.779614   -0.000020
      5          6           0        3.789908   -1.969943   -0.000022
      6          6           0        3.115565   -3.209647   -0.000024
      7          1           0        1.209092   -4.238633   -0.000024
      8          1           0        3.593697    0.189595   -0.000018
      9          1           0        4.882141   -1.955829   -0.000022
     10          1           0        3.692178   -4.136808   -0.000026
     11          7           0        0.876769    0.244570   -0.000018
     12         16           0       -0.745307   -1.813541   -0.000018
     13          6           0       -1.398507    1.003976    0.000000
     14          6           0       -2.811891    0.870670   -0.000008
     15          6           0       -0.880657    2.394648    0.000030
     16          6           0       -3.642332    1.988551    0.000022
     17          1           0       -3.248847   -0.129940   -0.000036
     18          6           0       -1.750661    3.498776    0.000062
     19          6           0       -3.126674    3.308197    0.000060
     20          1           0       -4.724717    1.841840    0.000017
     21          1           0       -1.300351    4.492999    0.000086
     22          1           0       -3.804480    4.162826    0.000087
     23          6           0       -0.449341   -0.048116   -0.000014
     24          8           0        0.410131    2.619596    0.000031
     25          1           0        0.817812    1.823632    0.000014
 ---------------------------------------------------------------------
                    Distance matrix (angstroms):
                    1          2          3          4          5
     1  C    0.000000
     2  C    1.393887   0.000000
     3  C    2.451552   1.427805   0.000000
     4  C    2.845530   2.464779   1.420255   0.000000
     5  C    2.446799   2.795271   2.410247   1.380651   0.000000
     6  C    1.398196   2.400885   2.791034   2.430163   1.411242
     7  H    1.092118   2.168637   3.448011   3.937528   3.436214
     8  H    3.937399   3.449157   2.172630   1.092097   2.168434
     9  H    3.426522   3.887316   3.405766   2.143320   1.092324
    10  H    2.154261   3.390239   3.882813   3.410702   2.169068
    11  N    3.616706   2.328078   1.329399   2.439080   3.659296
    12  S    2.863754   1.762450   2.611746   3.972611   4.537911
    13  C    5.292255   3.905257   3.571193   4.830265   5.980288
    14  C    6.139629   4.818212   4.791475   6.128659   7.186991
    15  C    6.235107   4.852944   4.105419   5.083819   6.392482
    16  C    7.511523   6.170753   6.010521   7.279588   8.420681
    17  H    5.878326   4.672262   4.968006   6.372449   7.275279
    18  C    7.608594   6.219002   5.511119   6.460687   7.784909
    19  C    8.172359   6.785301   6.330185   7.440577   8.700452
    20  H    8.226656   6.936861   6.927950   8.243061   9.328908
    21  H    8.331994   6.963240   6.088781   6.861423   8.226807
    22  H    9.262525   7.875944   7.404291   8.483340   9.761434
    23  C    3.885754   2.494315   2.256821   3.614533   4.654531
    24  O    6.035923   4.736482   3.664904   4.328795   5.699716
    25  H    5.175413   3.908144   2.779417   3.455653   4.819188
                    6          7          8          9         10
     6  C    0.000000
     7  H    2.166437   0.000000
     8  H    3.432704   5.029468   0.000000
     9  H    2.166299   4.324637   2.502585   0.000000
    10  H    1.091838   2.485173   4.327524   2.484488   0.000000
    11  N    4.116287   4.495504   2.717484   4.569985   5.207975
    12  S    4.105537   3.114602   4.779069   5.629246   5.008876
    13  C    6.175067   5.855299   5.058192   6.943125   7.234828
    14  C    7.196090   6.501791   6.441694   8.196782   8.208395
    15  C    6.883161   6.954672   4.988196   7.220560   7.973125
    16  C    8.525868   7.893931   7.456296   9.392804   9.555891
    17  H    7.070384   6.062556   6.850000   8.333477   8.014538
    18  C    8.287526   8.284180   6.285924   8.587595   9.376921
    19  C    9.024845   8.703650   7.408715   9.583897  10.095783
    20  H    9.326711   8.496014   8.480915  10.330247  10.324163
    21  H    8.878686   9.085082   6.516977   8.933677   9.969900
    22  H   10.111398   9.783682   8.397594  10.625221  11.184087
    23  C    4.764854   4.506755   4.050020   5.662514   5.819758
    24  O    6.426465   6.904611   4.004997   6.397921   7.511380
    25  H    5.532953   6.074880   3.221120   5.550054   6.617312
                   11         12         13         14         15
    11  N    0.000000
    12  S    2.620487   0.000000
    13  C    2.398661   2.892244   0.000000
    14  C    3.741419   3.387589   1.419657   0.000000
    15  C    2.776937   4.210365   1.483959   2.460117   0.000000
    16  C    4.843939   4.780027   2.450335   1.392584   2.791373
    17  H    4.142579   3.016990   2.170144   1.091856   3.461483
    18  C    4.182493   5.406612   2.519532   2.834282   1.405705
    19  C    5.041167   5.648284   2.880277   2.457769   2.424699
    20  H    5.824767   5.403473   3.430115   2.145244   3.883606
    21  H    4.773783   6.330918   3.490404   3.925051   2.139912
    22  H    6.104656   6.713829   3.970773   3.438535   3.416899
    23  C    1.358025   1.790062   1.416973   2.534918   2.480550
    24  O    2.420434   4.581238   2.425159   3.666084   1.310242
    25  H    1.580162   3.958834   2.363029   3.752717   1.791886
                   16         17         18         19         20
    16  C    0.000000
    17  H    2.154724   0.000000
    18  C    2.420578   3.925830   0.000000
    19  C    1.416817   3.440308   1.389147   0.000000
    20  H    1.092283   2.462947   3.404474   2.168858   0.000000
    21  H    3.428868   5.016793   1.091448   2.176973   4.330696
    22  H    2.180312   4.328576   2.158503   1.090785   2.496760
    23  C    3.787242   2.800701   3.778079   4.293361   4.674481
    24  O    4.101301   4.576906   2.332805   3.603215   5.193415
    25  H    4.463192   4.511558   3.066458   4.214606   5.542559
                   21         22         23         24         25
    21  H    0.000000
    22  H    2.525803   0.000000
    23  C    4.620167   5.384142   0.000000
    24  O    2.536806   4.488263   2.802745   0.000000
    25  H    3.407658   5.180484   2.260336   0.894295   0.000000
 Symmetry turned off by external request.
 Stoichiometry    C13H9NOS
 Framework group  C1[X(C13H9NOS)]
 Deg. of freedom    69
 Full point group                 C1      NOp   1
 Rotational constants (GHZ):           1.3539111           0.2856308           0.2358700
 Leave Link  202 at Mon Jul 13 13:35:08 2020, MaxMem=  7784628224 cpu:               0.1 elap:               0.0
 (Enter /gpfs/loomis/apps/avx/software/Gaussian/16-C.01_AVX/g16/l301.exe)
 Standard basis: CC-pVDZ (5D, 7F)
 Ernie: Thresh=  0.10000D-02 Tol=  0.10000D-05 Strict=F.
 Ernie:  40 primitive shells out of 425 were deleted.
   273 basis functions,   629 primitive gaussians,   289 cartesian basis functions
    59 alpha electrons       59 beta electrons
       nuclear repulsion energy      1095.9610199451 Hartrees.
 IExCor= 4639 DFT=T Ex+Corr=wB97XD ExCW=0 ScaHFX=  1.000000
 ScaDFX=  1.000000  1.000000  1.000000  1.000000 ScalE2=  1.000000  1.000000
 IRadAn=      5 IRanWt=     -1 IRanGd=            0 ICorTp=0 IEmpDi=121
 HFx  wShort=  0.000000 wLong=  0.200000 cFull=  0.222036 cShort=  0.000000 cLong=  0.777964
 DFx  wShort=  0.000000 wLong=  0.200000 cFull=  0.000000 cShort=  0.000000 cLong=  1.000000
 NAtoms=   25 NActive=   25 NUniq=   25 SFac= 1.00D+00 NAtFMM=   60 NAOKFM=F Big=F
 Integral buffers will be    131072 words long.
 Raffenetti 1 integral format.
 Two-electron integral symmetry is turned off.
 R6Disp:  Grimme-D2 Dispersion energy=       -0.0140009686 Hartrees.
 Nuclear repulsion after empirical dispersion term =     1095.9470189765 Hartrees.
 ------------------------------------------------------------------------------
 Polarizable Continuum Model (PCM)
 =================================
 Model                : PCM.
 Atomic radii         : UFF (Universal Force Field).
 Polarization charges : Total charges.
 Charge compensation  : None.
 Solution method      : On-the-fly selection.
 Cavity type          : Scaled VdW (van der Waals Surface) (Alpha=1.100).
 Cavity algorithm     : GePol (No added spheres)
                        Default sphere list used, NSphG=   25.
                        Lebedev-Laikov grids with approx.  5.0 points / Ang**2.
                        Smoothing algorithm: York/Karplus (Gamma=1.0000).
                        Polarization charges: spherical gaussians, with
                                              point-specific exponents (IZeta= 3).
                        Self-potential: point-specific (ISelfS= 7).
                        Self-field    : sphere-specific E.n sum rule (ISelfD= 2).
 1st derivatives      : Analytical E(r).r(x)/FMM algorithm (CHGder, D1EAlg=3).
                        Cavity 1st derivative terms included.
 Solvent              : CarbonTetraChloride, Eps=   2.228000 Eps(inf)=   2.131892
 ------------------------------------------------------------------------------
 GePol: Number of generator spheres                  =      25
 GePol: Total number of spheres                      =      25
 GePol: Number of exposed spheres                    =      25 (100.00%)
 GePol: Number of points                             =    2201
 GePol: Average weight of points                     =       0.13
 GePol: Minimum weight of points                     =   0.67D-09
 GePol: Maximum weight of points                     =    0.20577
 GePol: Number of points with low weight             =     146
 GePol: Fraction of low-weight points (<1% of avg)   =       6.63%
 GePol: Cavity surface area                          =    275.201 Ang**2
 GePol: Cavity volume                                =    294.210 Ang**3
 Leave Link  301 at Mon Jul 13 13:35:09 2020, MaxMem=  7784628224 cpu:               3.0 elap:               0.5
 (Enter /gpfs/loomis/apps/avx/software/Gaussian/16-C.01_AVX/g16/l302.exe)
 NPDir=0 NMtPBC=     1 NCelOv=     1 NCel=       1 NClECP=     1 NCelD=      1
         NCelK=      1 NCelE2=     1 NClLst=     1 CellRange=     0.0.
 One-electron integrals computed using PRISM.
 NBasis=   273 RedAO= T EigKep=  3.17D-04  NBF=   273
 NBsUse=   273 1.00D-06 EigRej= -1.00D+00 NBFU=   273
 Precomputing XC quadrature grid using
 IXCGrd= 4 IRadAn=           5 IRanWt=          -1 IRanGd=           0 AccXCQ= 0.00D+00.
 Generated NRdTot=       0 NPtTot=           0 NUsed=           0 NTot=          32
 NSgBfM=   288   288   288   288   288 MxSgAt=    25 MxSgA2=    25.
 Leave Link  302 at Mon Jul 13 13:35:09 2020, MaxMem=  7784628224 cpu:               2.6 elap:               0.3
 (Enter /gpfs/loomis/apps/avx/software/Gaussian/16-C.01_AVX/g16/l303.exe)
 DipDrv:  MaxL=1.
 Leave Link  303 at Mon Jul 13 13:35:09 2020, MaxMem=  7784628224 cpu:               0.4 elap:               0.1
 (Enter /gpfs/loomis/apps/avx/software/Gaussian/16-C.01_AVX/g16/l308.exe)
 Leave Link  308 at Mon Jul 13 13:35:09 2020, MaxMem=  7784628224 cpu:               0.5 elap:               0.1
 (Enter /gpfs/loomis/apps/avx/software/Gaussian/16-C.01_AVX/g16/l401.exe)
 ExpMin= 1.22D-01 ExpMax= 1.11D+05 ExpMxC= 1.07D+03 IAcc=3 IRadAn=         5 AccDes= 0.00D+00
 Harris functional with IExCor= 4639 and IRadAn=       5 diagonalized for initial guess.
 HarFok:  IExCor= 4639 AccDes= 0.00D+00 IRadAn=         5 IDoV= 1 UseB2=F ITyADJ=14
 ICtDFT=  3500011 ScaDFX=  1.000000  1.000000  1.000000  1.000000
 FoFCou: FMM=F IPFlag=           0 FMFlag=      100000 FMFlg1=           0
         NFxFlg=           0 DoJE=T BraDBF=F KetDBF=T FulRan=T
         wScrn=  0.000000 ICntrl=       500 IOpCl=  0 I1Cent=   200000004 NGrid=           0
         NMat0=    1 NMatS0=      1 NMatT0=    0 NMatD0=    1 NMtDS0=    0 NMtDT0=    0
 Symmetry not used in FoFCou.
 Harris En= -994.433008079572    
 JPrj=0 DoOrth=F DoCkMO=F.
 Leave Link  401 at Mon Jul 13 13:35:11 2020, MaxMem=  7784628224 cpu:              13.9 elap:               1.5
 (Enter /gpfs/loomis/apps/avx/software/Gaussian/16-C.01_AVX/g16/l502.exe)
 Two-electron integral symmetry not used.
 Closed shell SCF:
 Using DIIS extrapolation, IDIIS=  1040.
 NGot=  7784628224 LenX=  7784455381 LenY=  7784371419
 Requested convergence on RMS density matrix=1.00D-08 within 128 cycles.
 Requested convergence on MAX density matrix=1.00D-06.
 Requested convergence on             energy=1.00D-06.
 No special actions if energy rises.
 Fock matrices will be formed incrementally for  20 cycles.

 Cycle   1  Pass 1  IDiag  1:
 FoFJK:  IHMeth= 1 ICntrl=       0 DoSepK=T KAlg= 0 I1Cent=           0 FoldK=F
 IRaf=         1 NMat=       1 IRICut=       1 DoRegI=T DoRafI=F ISym2E= 0 IDoP0=0 IntGTp=1.
 FoFCou: FMM=F IPFlag=           0 FMFlag=      100000 FMFlg1=           0
         NFxFlg=           0 DoJE=T BraDBF=F KetDBF=F FulRan=T
         wScrn=  0.000000 ICntrl=       500 IOpCl=  0 I1Cent=           0 NGrid=           0
         NMat0=    1 NMatS0=      1 NMatT0=    0 NMatD0=    1 NMtDS0=    0 NMtDT0=    0
 Symmetry not used in FoFCou.
 Inv3:  Mode=1 IEnd=    14533203.
 Iteration    1 A*A^-1 deviation from unit magnitude is 4.44D-15 for   2198.
 Iteration    1 A*A^-1 deviation from orthogonality  is 2.34D-15 for    712    468.
 Iteration    1 A^-1*A deviation from unit magnitude is 4.44D-15 for   2198.
 Iteration    1 A^-1*A deviation from orthogonality  is 2.01D-15 for   2187   2096.
 E= -1028.57970012936    
 DIIS: error= 2.89D-02 at cycle   1 NSaved=   1.
 NSaved= 1 IEnMin= 1 EnMin= -1028.57970012936     IErMin= 1 ErrMin= 2.89D-02
 ErrMax= 2.89D-02  0.00D+00 EMaxC= 1.00D-01 BMatC= 3.79D-01 BMatP= 3.79D-01
 IDIUse=3 WtCom= 7.11D-01 WtEn= 2.89D-01
 Coeff-Com:  0.100D+01
 Coeff-En:   0.100D+01
 Coeff:      0.100D+01
 Gap=     0.362 Goal=   None    Shift=    0.000
 GapD=    0.362 DampG=1.000 DampE=0.500 DampFc=0.5000 IDamp=-1.
 Damping current iteration by 5.00D-01
 RMSDP=3.44D-03 MaxDP=2.25D-01              OVMax= 1.77D-01

 Cycle   2  Pass 1  IDiag  1:
 RMSU=  1.72D-03    CP:  9.94D-01
 E= -1028.69261993598     Delta-E=       -0.112919806626 Rises=F Damp=T
 DIIS: error= 1.12D-02 at cycle   2 NSaved=   2.
 NSaved= 2 IEnMin= 2 EnMin= -1028.69261993598     IErMin= 2 ErrMin= 1.12D-02
 ErrMax= 1.12D-02  0.00D+00 EMaxC= 1.00D-01 BMatC= 5.71D-02 BMatP= 3.79D-01
 IDIUse=3 WtCom= 8.88D-01 WtEn= 1.12D-01
 Coeff-Com: -0.315D+00 0.131D+01
 Coeff-En:   0.000D+00 0.100D+01
 Coeff:     -0.279D+00 0.128D+01
 Gap=     0.303 Goal=   None    Shift=    0.000
 RMSDP=1.13D-03 MaxDP=2.13D-02 DE=-1.13D-01 OVMax= 1.06D-01

 Cycle   3  Pass 1  IDiag  1:
 RMSU=  1.07D-03    CP:  9.91D-01  1.21D+00
 E= -1028.79195320358     Delta-E=       -0.099333267591 Rises=F Damp=F
 DIIS: error= 5.89D-03 at cycle   3 NSaved=   3.
 NSaved= 3 IEnMin= 3 EnMin= -1028.79195320358     IErMin= 3 ErrMin= 5.89D-03
 ErrMax= 5.89D-03  0.00D+00 EMaxC= 1.00D-01 BMatC= 1.19D-02 BMatP= 5.71D-02
 IDIUse=3 WtCom= 9.41D-01 WtEn= 5.89D-02
 Coeff-Com: -0.203D+00 0.475D+00 0.728D+00
 Coeff-En:   0.000D+00 0.000D+00 0.100D+01
 Coeff:     -0.191D+00 0.447D+00 0.744D+00
 Gap=     0.264 Goal=   None    Shift=    0.000
 RMSDP=4.83D-04 MaxDP=1.75D-02 DE=-9.93D-02 OVMax= 3.84D-02

 Cycle   4  Pass 1  IDiag  1:
 RMSU=  3.61D-04    CP:  9.90D-01  1.37D+00  8.58D-01
 E= -1028.80362944354     Delta-E=       -0.011676239962 Rises=F Damp=F
 DIIS: error= 1.90D-03 at cycle   4 NSaved=   4.
 NSaved= 4 IEnMin= 4 EnMin= -1028.80362944354     IErMin= 4 ErrMin= 1.90D-03
 ErrMax= 1.90D-03  0.00D+00 EMaxC= 1.00D-01 BMatC= 1.48D-03 BMatP= 1.19D-02
 IDIUse=3 WtCom= 9.81D-01 WtEn= 1.90D-02
 Coeff-Com: -0.755D-01 0.150D+00 0.358D+00 0.567D+00
 Coeff-En:   0.000D+00 0.000D+00 0.000D+00 0.100D+01
 Coeff:     -0.741D-01 0.147D+00 0.351D+00 0.576D+00
 Gap=     0.262 Goal=   None    Shift=    0.000
 RMSDP=1.48D-04 MaxDP=8.32D-03 DE=-1.17D-02 OVMax= 1.06D-02

 Cycle   5  Pass 1  IDiag  1:
 RMSU=  1.00D-04    CP:  9.89D-01  1.38D+00  9.22D-01  7.67D-01
 E= -1028.80518868368     Delta-E=       -0.001559240142 Rises=F Damp=F
 DIIS: error= 4.33D-04 at cycle   5 NSaved=   5.
 NSaved= 5 IEnMin= 5 EnMin= -1028.80518868368     IErMin= 5 ErrMin= 4.33D-04
 ErrMax= 4.33D-04  0.00D+00 EMaxC= 1.00D-01 BMatC= 6.53D-05 BMatP= 1.48D-03
 IDIUse=3 WtCom= 9.96D-01 WtEn= 4.33D-03
 Coeff-Com: -0.557D-02 0.525D-02 0.551D-01 0.198D+00 0.747D+00
 Coeff-En:   0.000D+00 0.000D+00 0.000D+00 0.000D+00 0.100D+01
 Coeff:     -0.554D-02 0.522D-02 0.548D-01 0.198D+00 0.748D+00
 Gap=     0.262 Goal=   None    Shift=    0.000
 RMSDP=4.91D-05 MaxDP=1.65D-03 DE=-1.56D-03 OVMax= 4.31D-03

 Cycle   6  Pass 1  IDiag  1:
 RMSU=  3.48D-05    CP:  9.89D-01  1.38D+00  9.37D-01  8.47D-01  1.03D+00
 E= -1028.80529952272     Delta-E=       -0.000110839038 Rises=F Damp=F
 DIIS: error= 1.71D-04 at cycle   6 NSaved=   6.
 NSaved= 6 IEnMin= 6 EnMin= -1028.80529952272     IErMin= 6 ErrMin= 1.71D-04
 ErrMax= 1.71D-04  0.00D+00 EMaxC= 1.00D-01 BMatC= 1.05D-05 BMatP= 6.53D-05
 IDIUse=3 WtCom= 9.98D-01 WtEn= 1.71D-03
 Coeff-Com:  0.147D-01-0.308D-01-0.544D-01-0.419D-01 0.245D+00 0.867D+00
 Coeff-En:   0.000D+00 0.000D+00 0.000D+00 0.000D+00 0.000D+00 0.100D+01
 Coeff:      0.147D-01-0.307D-01-0.543D-01-0.418D-01 0.244D+00 0.868D+00
 Gap=     0.263 Goal=   None    Shift=    0.000
 RMSDP=3.03D-05 MaxDP=1.47D-03 DE=-1.11D-04 OVMax= 2.53D-03

 Cycle   7  Pass 1  IDiag  1:
 RMSU=  1.68D-05    CP:  9.89D-01  1.38D+00  9.50D-01  8.84D-01  1.19D+00
                    CP:  1.14D+00
 E= -1028.80532739290     Delta-E=       -0.000027870181 Rises=F Damp=F
 DIIS: error= 9.02D-05 at cycle   7 NSaved=   7.
 NSaved= 7 IEnMin= 7 EnMin= -1028.80532739290     IErMin= 7 ErrMin= 9.02D-05
 ErrMax= 9.02D-05  0.00D+00 EMaxC= 1.00D-01 BMatC= 2.19D-06 BMatP= 1.05D-05
 IDIUse=1 WtCom= 1.00D+00 WtEn= 0.00D+00
 Coeff-Com:  0.721D-02-0.139D-01-0.317D-01-0.481D-01-0.182D-01 0.366D+00
 Coeff-Com:  0.738D+00
 Coeff:      0.721D-02-0.139D-01-0.317D-01-0.481D-01-0.182D-01 0.366D+00
 Coeff:      0.738D+00
 Gap=     0.263 Goal=   None    Shift=    0.000
 RMSDP=1.09D-05 MaxDP=5.45D-04 DE=-2.79D-05 OVMax= 1.25D-03

 Cycle   8  Pass 1  IDiag  1:
 RMSU=  6.45D-06    CP:  9.89D-01  1.38D+00  9.52D-01  8.92D-01  1.23D+00
                    CP:  1.33D+00  1.10D+00
 E= -1028.80533191076     Delta-E=       -0.000004517857 Rises=F Damp=F
 DIIS: error= 2.92D-05 at cycle   8 NSaved=   8.
 NSaved= 8 IEnMin= 8 EnMin= -1028.80533191076     IErMin= 8 ErrMin= 2.92D-05
 ErrMax= 2.92D-05  0.00D+00 EMaxC= 1.00D-01 BMatC= 1.99D-07 BMatP= 2.19D-06
 IDIUse=1 WtCom= 1.00D+00 WtEn= 0.00D+00
 Coeff-Com: -0.104D-02 0.236D-02 0.275D-02-0.121D-02-0.375D-01-0.534D-01
 Coeff-Com:  0.175D+00 0.913D+00
 Coeff:     -0.104D-02 0.236D-02 0.275D-02-0.121D-02-0.375D-01-0.534D-01
 Coeff:      0.175D+00 0.913D+00
 Gap=     0.263 Goal=   None    Shift=    0.000
 RMSDP=4.39D-06 MaxDP=1.27D-04 DE=-4.52D-06 OVMax= 5.88D-04

 Cycle   9  Pass 1  IDiag  1:
 RMSU=  2.10D-06    CP:  9.89D-01  1.38D+00  9.52D-01  8.92D-01  1.24D+00
                    CP:  1.39D+00  1.28D+00  1.14D+00
 E= -1028.80533251215     Delta-E=       -0.000000601397 Rises=F Damp=F
 DIIS: error= 1.42D-05 at cycle   9 NSaved=   9.
 NSaved= 9 IEnMin= 9 EnMin= -1028.80533251215     IErMin= 9 ErrMin= 1.42D-05
 ErrMax= 1.42D-05  0.00D+00 EMaxC= 1.00D-01 BMatC= 4.40D-08 BMatP= 1.99D-07
 IDIUse=1 WtCom= 1.00D+00 WtEn= 0.00D+00
 Coeff-Com: -0.122D-02 0.246D-02 0.467D-02 0.562D-02-0.123D-01-0.674D-01
 Coeff-Com: -0.172D-01 0.350D+00 0.736D+00
 Coeff:     -0.122D-02 0.246D-02 0.467D-02 0.562D-02-0.123D-01-0.674D-01
 Coeff:     -0.172D-01 0.350D+00 0.736D+00
 Gap=     0.263 Goal=   None    Shift=    0.000
 RMSDP=1.66D-06 MaxDP=5.20D-05 DE=-6.01D-07 OVMax= 1.55D-04

 Cycle  10  Pass 1  IDiag  1:
 RMSU=  9.16D-07    CP:  9.89D-01  1.38D+00  9.51D-01  8.91D-01  1.24D+00
                    CP:  1.40D+00  1.32D+00  1.28D+00  1.09D+00
 E= -1028.80533261587     Delta-E=       -0.000000103720 Rises=F Damp=F
 DIIS: error= 7.77D-06 at cycle  10 NSaved=  10.
 NSaved=10 IEnMin=10 EnMin= -1028.80533261587     IErMin=10 ErrMin= 7.77D-06
 ErrMax= 7.77D-06  0.00D+00 EMaxC= 1.00D-01 BMatC= 7.44D-09 BMatP= 4.40D-08
 IDIUse=1 WtCom= 1.00D+00 WtEn= 0.00D+00
 Coeff-Com: -0.249D-03 0.459D-03 0.116D-02 0.250D-02 0.224D-02-0.194D-01
 Coeff-Com: -0.387D-01-0.360D-01 0.258D+00 0.830D+00
 Coeff:     -0.249D-03 0.459D-03 0.116D-02 0.250D-02 0.224D-02-0.194D-01
 Coeff:     -0.387D-01-0.360D-01 0.258D+00 0.830D+00
 Gap=     0.263 Goal=   None    Shift=    0.000
 RMSDP=9.09D-07 MaxDP=2.66D-05 DE=-1.04D-07 OVMax= 1.41D-04

 Cycle  11  Pass 1  IDiag  1:
 RMSU=  4.32D-07    CP:  9.89D-01  1.38D+00  9.51D-01  8.92D-01  1.25D+00
                    CP:  1.41D+00  1.35D+00  1.33D+00  1.31D+00  1.15D+00
 E= -1028.80533264327     Delta-E=       -0.000000027396 Rises=F Damp=F
 DIIS: error= 3.29D-06 at cycle  11 NSaved=  11.
 NSaved=11 IEnMin=11 EnMin= -1028.80533264327     IErMin=11 ErrMin= 3.29D-06
 ErrMax= 3.29D-06  0.00D+00 EMaxC= 1.00D-01 BMatC= 1.84D-09 BMatP= 7.44D-09
 IDIUse=1 WtCom= 1.00D+00 WtEn= 0.00D+00
 Coeff-Com:  0.142D-03-0.299D-03-0.489D-03-0.777D-04 0.309D-02 0.409D-02
 Coeff-Com: -0.676D-02-0.646D-01-0.688D-01 0.304D+00 0.830D+00
 Coeff:      0.142D-03-0.299D-03-0.489D-03-0.777D-04 0.309D-02 0.409D-02
 Coeff:     -0.676D-02-0.646D-01-0.688D-01 0.304D+00 0.830D+00
 Gap=     0.263 Goal=   None    Shift=    0.000
 RMSDP=3.97D-07 MaxDP=9.30D-06 DE=-2.74D-08 OVMax= 6.28D-05

 Cycle  12  Pass 1  IDiag  1:
 RMSU=  1.65D-07    CP:  9.89D-01  1.38D+00  9.51D-01  8.92D-01  1.25D+00
                    CP:  1.41D+00  1.35D+00  1.35D+00  1.41D+00  1.41D+00
                    CP:  1.16D+00
 E= -1028.80533264926     Delta-E=       -0.000000005988 Rises=F Damp=F
 DIIS: error= 1.14D-06 at cycle  12 NSaved=  12.
 NSaved=12 IEnMin=12 EnMin= -1028.80533264926     IErMin=12 ErrMin= 1.14D-06
 ErrMax= 1.14D-06  0.00D+00 EMaxC= 1.00D-01 BMatC= 2.82D-10 BMatP= 1.84D-09
 IDIUse=1 WtCom= 1.00D+00 WtEn= 0.00D+00
 Coeff-Com:  0.107D-03-0.209D-03-0.457D-03-0.634D-03 0.657D-03 0.575D-02
 Coeff-Com:  0.760D-02-0.101D-01-0.101D+00-0.961D-01 0.194D+00 0.100D+01
 Coeff:      0.107D-03-0.209D-03-0.457D-03-0.634D-03 0.657D-03 0.575D-02
 Coeff:      0.760D-02-0.101D-01-0.101D+00-0.961D-01 0.194D+00 0.100D+01
 Gap=     0.263 Goal=   None    Shift=    0.000
 RMSDP=2.44D-07 MaxDP=5.86D-06 DE=-5.99D-09 OVMax= 3.83D-05

 Cycle  13  Pass 1  IDiag  1:
 RMSU=  6.97D-08    CP:  9.89D-01  1.38D+00  9.51D-01  8.92D-01  1.25D+00
                    CP:  1.41D+00  1.36D+00  1.36D+00  1.46D+00  1.56D+00
                    CP:  1.44D+00  1.31D+00
 E= -1028.80533265072     Delta-E=       -0.000000001464 Rises=F Damp=F
 DIIS: error= 4.12D-07 at cycle  13 NSaved=  13.
 NSaved=13 IEnMin=13 EnMin= -1028.80533265072     IErMin=13 ErrMin= 4.12D-07
 ErrMax= 4.12D-07  0.00D+00 EMaxC= 1.00D-01 BMatC= 3.16D-11 BMatP= 2.82D-10
 IDIUse=1 WtCom= 1.00D+00 WtEn= 0.00D+00
 Coeff-Com: -0.387D-05 0.101D-04-0.647D-05-0.930D-04-0.195D-03 0.447D-03
 Coeff-Com:  0.259D-02 0.845D-02-0.113D-01-0.529D-01-0.997D-01 0.201D+00
 Coeff-Com:  0.951D+00
 Coeff:     -0.387D-05 0.101D-04-0.647D-05-0.930D-04-0.195D-03 0.447D-03
 Coeff:      0.259D-02 0.845D-02-0.113D-01-0.529D-01-0.997D-01 0.201D+00
 Coeff:      0.951D+00
 Gap=     0.263 Goal=   None    Shift=    0.000
 RMSDP=6.97D-08 MaxDP=1.55D-06 DE=-1.46D-09 OVMax= 1.01D-05

 Cycle  14  Pass 1  IDiag  1:
 RMSU=  2.58D-08    CP:  9.89D-01  1.38D+00  9.51D-01  8.92D-01  1.25D+00
                    CP:  1.41D+00  1.36D+00  1.36D+00  1.47D+00  1.59D+00
                    CP:  1.51D+00  1.52D+00  1.23D+00
 E= -1028.80533265086     Delta-E=       -0.000000000137 Rises=F Damp=F
 DIIS: error= 1.22D-07 at cycle  14 NSaved=  14.
 NSaved=14 IEnMin=14 EnMin= -1028.80533265086     IErMin=14 ErrMin= 1.22D-07
 ErrMax= 1.22D-07  0.00D+00 EMaxC= 1.00D-01 BMatC= 4.52D-12 BMatP= 3.16D-11
 IDIUse=1 WtCom= 1.00D+00 WtEn= 0.00D+00
 Coeff-Com: -0.113D-04 0.229D-04 0.413D-04 0.274D-04-0.121D-03-0.416D-03
 Coeff-Com:  0.948D-04 0.364D-02 0.475D-02-0.631D-02-0.519D-01-0.273D-01
 Coeff-Com:  0.322D+00 0.756D+00
 Coeff:     -0.113D-04 0.229D-04 0.413D-04 0.274D-04-0.121D-03-0.416D-03
 Coeff:      0.948D-04 0.364D-02 0.475D-02-0.631D-02-0.519D-01-0.273D-01
 Coeff:      0.322D+00 0.756D+00
 Gap=     0.263 Goal=   None    Shift=    0.000
 RMSDP=1.66D-08 MaxDP=4.00D-07 DE=-1.37D-10 OVMax= 2.30D-06

 Cycle  15  Pass 1  IDiag  1:
 RMSU=  9.01D-09    CP:  9.89D-01  1.38D+00  9.51D-01  8.92D-01  1.25D+00
                    CP:  1.41D+00  1.36D+00  1.36D+00  1.47D+00  1.60D+00
                    CP:  1.53D+00  1.57D+00  1.36D+00  1.08D+00
 E= -1028.80533265086     Delta-E=       -0.000000000005 Rises=F Damp=F
 DIIS: error= 4.48D-08 at cycle  15 NSaved=  15.
 NSaved=15 IEnMin=15 EnMin= -1028.80533265086     IErMin=15 ErrMin= 4.48D-08
 ErrMax= 4.48D-08  0.00D+00 EMaxC= 1.00D-01 BMatC= 5.98D-13 BMatP= 4.52D-12
 IDIUse=1 WtCom= 1.00D+00 WtEn= 0.00D+00
 Coeff-Com: -0.242D-05 0.446D-05 0.136D-04 0.252D-04-0.554D-05-0.229D-03
 Coeff-Com: -0.501D-03-0.329D-03 0.353D-02 0.867D-02 0.192D-02-0.485D-01
 Coeff-Com: -0.766D-01 0.204D+00 0.908D+00
 Coeff:     -0.242D-05 0.446D-05 0.136D-04 0.252D-04-0.554D-05-0.229D-03
 Coeff:     -0.501D-03-0.329D-03 0.353D-02 0.867D-02 0.192D-02-0.485D-01
 Coeff:     -0.766D-01 0.204D+00 0.908D+00
 Gap=     0.263 Goal=   None    Shift=    0.000
 RMSDP=8.05D-09 MaxDP=1.73D-07 DE=-4.55D-12 OVMax= 9.16D-07

 Error on total polarization charges =  0.00819
 SCF Done:  E(RwB97XD) =  -1028.80533265     A.U. after   15 cycles
            NFock= 15  Conv=0.80D-08     -V/T= 2.0048
 KE= 1.023907547896D+03 PE=-4.604171046161D+03 EE= 1.455511146637D+03
 Leave Link  502 at Mon Jul 13 13:36:34 2020, MaxMem=  7784628224 cpu:             825.8 elap:              83.3
 (Enter /gpfs/loomis/apps/avx/software/Gaussian/16-C.01_AVX/g16/l801.exe)
 DoSCS=F DFT=T ScalE2(SS,OS)=  1.000000  1.000000
 ExpMin= 1.22D-01 ExpMax= 1.11D+05 ExpMxC= 1.07D+03 IAcc=3 IRadAn=         5 AccDes= 0.00D+00
 HarFok:  IExCor=  205 AccDes= 0.00D+00 IRadAn=         5 IDoV=-2 UseB2=F ITyADJ=14
 ICtDFT= 12500011 ScaDFX=  1.000000  1.000000  1.000000  1.000000
 Largest valence mixing into a core orbital is  9.57D-05
 Largest core mixing into a valence orbital is  3.28D-05
 Range of M.O.s used for correlation:    21   273
 NBasis=   273 NAE=    59 NBE=    59 NFC=    20 NFV=     0
 NROrb=    253 NOA=    39 NOB=    39 NVA=   214 NVB=   214
 Leave Link  801 at Mon Jul 13 13:36:35 2020, MaxMem=  7784628224 cpu:               2.3 elap:               0.3
 (Enter /gpfs/loomis/apps/avx/software/Gaussian/16-C.01_AVX/g16/l914.exe)
 RHF ground state
 Keep R1, R2, and R3 ints in memory in canonical form, NReq=4262515490.
 FoFCou: FMM=F IPFlag=           0 FMFlag=           0 FMFlg1=           0
         NFxFlg=           0 DoJE=F BraDBF=F KetDBF=F FulRan=T
         wScrn=  0.000000 ICntrl=       600 IOpCl=  0 I1Cent=           0 NGrid=           0
         NMat0=    1 NMatS0=  37401 NMatT0=    0 NMatD0=    1 NMtDS0=    0 NMtDT0=    0
 Symmetry not used in FoFCou.
 Two-electron integral symmetry not used.
 MDV=  7784628224 DFT=T DoStab=F Mixed=T DoRPA=T DoScal=F NonHer=T
 NEqPCM:  Using equilibrium solvation (IEInf=0, Eps=   2.2280, EpsInf=   2.1319)
 Making orbital integer symmetry assigments:
    12 initial guesses have been made.
 Convergence on wavefunction:    0.000001000000000
 Davidson Disk Diagonalization:  ConvIn= 1.00D-06 SkipCon=T Conv= 1.00D-06.
 Max sub-space:  2000 roots to seek:    12 dimension of matrix:        16692
 Iteration     1 Dimension    12 NMult     0 NNew     12
 CISAX will form    12 AO SS matrices at one time.
 NMat=    12 NSing=    12 JSym2X= 0.
 New state      2 was old state      3
 New state      3 was old state      2
 Excitation Energies [eV] at current iteration:
 Root      1 :     4.064950884690463
 Root      2 :     4.999743628570664
 Root      3 :     5.031615953684281
 Root      4 :     5.238003381277239
 Root      5 :     5.962739573879236
 Root      6 :     6.182879225387778
 Root      7 :     6.313736519680123
 Root      8 :     6.562863566008875
 Root      9 :     6.914930561399721
 Root     10 :     7.200437027207000
 Root     11 :     7.457926128739024
 Root     12 :     7.584641804603154
 Iteration     2 Dimension    18 NMult    12 NNew      6
 CISAX will form     6 AO SS matrices at one time.
 NMat=     6 NSing=     6 JSym2X= 0.
 Root      1 not converged, maximum delta is    0.054798027306493
 Root      2 not converged, maximum delta is    0.226056433507600
 Root      3 not converged, maximum delta is    0.220224285234797
 Excitation Energies [eV] at current iteration:
 Root      1 :     3.572373105302430   Change is   -0.492577779388033
 Root      2 :     4.473909956572841   Change is   -0.525833671997823
 Root      3 :     4.639803729615734   Change is   -0.391812224068548
 Iteration     3 Dimension    24 NMult    18 NNew      6
 CISAX will form     6 AO SS matrices at one time.
 NMat=     6 NSing=     6 JSym2X= 0.
 Root      1 not converged, maximum delta is    0.025341756772457
 Root      2 not converged, maximum delta is    0.034019828642608
 Root      3 not converged, maximum delta is    0.028683005731319
 Excitation Energies [eV] at current iteration:
 Root      1 :     3.537157106430783   Change is   -0.035215998871647
 Root      2 :     4.429556127461317   Change is   -0.044353829111525
 Root      3 :     4.594579523347543   Change is   -0.045224206268190
 Iteration     4 Dimension    30 NMult    24 NNew      6
 CISAX will form     6 AO SS matrices at one time.
 NMat=     6 NSing=     6 JSym2X= 0.
 Root      1 not converged, maximum delta is    0.007176100162436
 Root      2 not converged, maximum delta is    0.008609364526370
 Root      3 not converged, maximum delta is    0.008608742553143
 Excitation Energies [eV] at current iteration:
 Root      1 :     3.533598828228138   Change is   -0.003558278202645
 Root      2 :     4.423448683364632   Change is   -0.006107444096684
 Root      3 :     4.589640333437557   Change is   -0.004939189909986
 Iteration     5 Dimension    36 NMult    30 NNew      6
 CISAX will form     6 AO SS matrices at one time.
 NMat=     6 NSing=     6 JSym2X= 0.
 Root      1 not converged, maximum delta is    0.002775264437013
 Root      2 not converged, maximum delta is    0.002825953277778
 Root      3 not converged, maximum delta is    0.003364748922992
 Excitation Energies [eV] at current iteration:
 Root      1 :     3.533214155087386   Change is   -0.000384673140752
 Root      2 :     4.422825317194389   Change is   -0.000623366170242
 Root      3 :     4.589017289756106   Change is   -0.000623043681451
 Iteration     6 Dimension    42 NMult    36 NNew      6
 CISAX will form     6 AO SS matrices at one time.
 NMat=     6 NSing=     6 JSym2X= 0.
 Root      1 not converged, maximum delta is    0.000560699779275
 Root      2 not converged, maximum delta is    0.000430465187197
 Root      3 not converged, maximum delta is    0.000922918305015
 Excitation Energies [eV] at current iteration:
 Root      1 :     3.533180720939315   Change is   -0.000033434148070
 Root      2 :     4.422786218538847   Change is   -0.000039098655543
 Root      3 :     4.588952390278580   Change is   -0.000064899477526
 Iteration     7 Dimension    48 NMult    42 NNew      6
 CISAX will form     6 AO SS matrices at one time.
 NMat=     6 NSing=     6 JSym2X= 0.
 Root      1 not converged, maximum delta is    0.000092809894701
 Root      2 not converged, maximum delta is    0.000190607865939
 Root      3 not converged, maximum delta is    0.000271382463313
 Excitation Energies [eV] at current iteration:
 Root      1 :     3.533178400487297   Change is   -0.000002320452018
 Root      2 :     4.422782300259605   Change is   -0.000003918279241
 Root      3 :     4.588947090111183   Change is   -0.000005300167397
 Iteration     8 Dimension    54 NMult    48 NNew      6
 CISAX will form     6 AO SS matrices at one time.
 NMat=     6 NSing=     6 JSym2X= 0.
 Root      1 not converged, maximum delta is    0.000022614728831
 Root      2 not converged, maximum delta is    0.000059168510352
 Root      3 not converged, maximum delta is    0.000075966684733
 Excitation Energies [eV] at current iteration:
 Root      1 :     3.533178278102237   Change is   -0.000000122385060
 Root      2 :     4.422782020982570   Change is   -0.000000279277035
 Root      3 :     4.588946629492570   Change is   -0.000000460618613
 Iteration     9 Dimension    60 NMult    54 NNew      6
 CISAX will form     6 AO SS matrices at one time.
 NMat=     6 NSing=     6 JSym2X= 0.
 Root      1 not converged, maximum delta is    0.000005299483072
 Root      2 not converged, maximum delta is    0.000018529784561
 Root      3 not converged, maximum delta is    0.000017699842070
 Excitation Energies [eV] at current iteration:
 Root      1 :     3.533178270461605   Change is   -0.000000007640632
 Root      2 :     4.422781997411698   Change is   -0.000000023570873
 Root      3 :     4.588946587189961   Change is   -0.000000042302609
 Iteration    10 Dimension    66 NMult    60 NNew      6
 CISAX will form     6 AO SS matrices at one time.
 NMat=     6 NSing=     6 JSym2X= 0.
 Root      1 has converged.
 Root      2 not converged, maximum delta is    0.000002414784288
 Root      3 not converged, maximum delta is    0.000004425198749
 Excitation Energies [eV] at current iteration:
 Root      1 :     3.533178270218136   Change is   -0.000000000243469
 Root      2 :     4.422781996428579   Change is   -0.000000000983118
 Root      3 :     4.588946584759427   Change is   -0.000000002430534
 Iteration    11 Dimension    70 NMult    66 NNew      4
 CISAX will form     4 AO SS matrices at one time.
 NMat=     4 NSing=     4 JSym2X= 0.
 Root      1 has converged.
 Root      2 has converged.
 Root      3 has converged.
 Excitation Energies [eV] at current iteration:
 Root      1 :     3.533178270215344   Change is   -0.000000000002792
 Root      2 :     4.422781996378617   Change is   -0.000000000049962
 Root      3 :     4.588946584662081   Change is   -0.000000000097346
 Convergence achieved on expansion vectors.
 ***********************************************************************
 Excited states from <AA,BB:AA,BB> singles matrix:
 ***********************************************************************
 
 1PDM for each excited state written to RWF  633
 Ground to excited state transition densities written to RWF  633
 Ground to excited state transition electric dipole moments (Au):
       state          X           Y           Z        Dip. S.      Osc.
         1        -1.7577      2.2699      0.0000      8.2423      0.7135
         2         1.4905     -0.4282      0.0000      2.4050      0.2606
         3        -0.5137     -0.2169      0.0000      0.3109      0.0350
 Ground to excited state transition velocity dipole moments (Au):
       state          X           Y           Z        Dip. S.      Osc.
         1         0.2212     -0.2921     -0.0000      0.1342      0.6891
         2        -0.2381      0.0614     -0.0000      0.0605      0.2480
         3         0.0867      0.0347     -0.0000      0.0087      0.0345
 Ground to excited state transition magnetic dipole moments (Au):
       state          X           Y           Z
         1        -0.0000     -0.0000      0.6852
         2         0.0000     -0.0000      1.0692
         3         0.0000     -0.0000      0.3079
 Ground to excited state transition velocity quadrupole moments (Au):
       state          XX          YY          ZZ          XY          XZ          YZ
         1         0.1276     -0.5011      0.0105      0.1973      0.0000     -0.0000
         2         0.1813     -0.6560      0.0110      0.1703      0.0000     -0.0000
         3         0.4790     -0.1901     -0.0234     -0.2681     -0.0000     -0.0000
 <0|del|b> * <b|rxdel|0> + <0|del|b> * <b|delr+rdel|0>
 Rotatory Strengths (R) in cgs (10**-40 erg-esu-cm/Gauss)
       state          XX          YY          ZZ    R(velocity)    E-M Angle
         1         0.0177     -0.0184      0.0204      0.0066       90.00
         2        -0.0038      0.0027     -0.0050     -0.0020       90.00
         3        -0.0004      0.0002      0.0006      0.0001       90.00
 1/2[<0|r|b>*<b|rxdel|0> + (<0|rxdel|b>*<b|r|0>)*]
 Rotatory Strengths (R) in cgs (10**-40 erg-esu-cm/Gauss)
       state          XX          YY          ZZ     R(length)
         1        -0.0101      0.0452     -0.0157      0.0065
         2        -0.0001     -0.0046     -0.0015     -0.0021
         3         0.0018     -0.0011     -0.0003      0.0001
  1/2[<0|del|b>*<b|r|0> + (<0|r|b>*<b|del|0>)*] (Au)
       state          X           Y           Z        Dip. S.   Osc.(frdel)
         1        -0.3887     -0.6630     -0.0000      1.0517      0.7011
         2        -0.3549     -0.0263     -0.0000      0.3812      0.2541
         3        -0.0445     -0.0075     -0.0000      0.0521      0.0347

 Excitation energies and oscillator strengths:
 
 Excited state symmetry could not be determined.
 Excited State   1:      Singlet-?Sym    3.5332 eV  350.91 nm  f=0.7135  <S**2>=0.000
      59 -> 60         0.68829
 This state for optimization and/or second-order correction.
 Total Energy, E(TD-HF/TD-DFT) =  -1028.67549074    
 Copying the excited state density for this state as the 1-particle RhoCI density.
 
 Excited state symmetry could not be determined.
 Excited State   2:      Singlet-?Sym    4.4228 eV  280.33 nm  f=0.2606  <S**2>=0.000
      57 -> 60         0.25334
      58 -> 60         0.60801
      59 -> 62        -0.17581
 
 Excited state symmetry could not be determined.
 Excited State   3:      Singlet-?Sym    4.5889 eV  270.18 nm  f=0.0350  <S**2>=0.000
      57 -> 60         0.56665
      57 -> 63        -0.11405
      58 -> 60        -0.24067
      58 -> 61        -0.12008
      59 -> 61         0.23951
 SavETr:  write IOETrn=   770 NScale= 10 NData=  16 NLR=1 NState=    3 LETran=      64.
 The selected state is a singlet.
 CISGrd: IGrad=2 NXY=2 DFT=T
 CISAX will form     1 AO SS matrices at one time.
 NMat=     1 NSing=     1 JSym2X= 0.
 GePol: Maximum number of non-zero 1st derivatives   =     273
 Leave Link  914 at Mon Jul 13 13:39:19 2020, MaxMem=  7784628224 cpu:            1610.7 elap:             163.8
 (Enter /gpfs/loomis/apps/avx/software/Gaussian/16-C.01_AVX/g16/l1002.exe)
 Minotr:  Closed shell wavefunction.
          Computing CIS/TDA/TD derivatives.
          Using Z-Vector for PSCF gradient.
          Skipping F1 and S1 gradient terms here.
          IDoAtm=1111111111111111111111111
 NEqPCM:  Using equilibrium solvation (IEInf=0, Eps=   2.2280, EpsInf=   2.1319)
          Frozen-core window.
          Direct CPHF calculation.
          Differentiating once with respect to electric field.
                with respect to dipole field.
          Differentiating once with respect to nuclear coordinates.
          Requested convergence is 1.0D-10 RMS, and 1.0D-09 maximum.
          NewPWx=F KeepS1=T KeepF1=T KeepIn=T MapXYZ=F SortEE=F KeepMc=T.
 Keep R1 ints in memory in canonical form, NReq=1421590984.
 FoFCou: FMM=F IPFlag=           0 FMFlag=           0 FMFlg1=           0
         NFxFlg=           0 DoJE=F BraDBF=F KetDBF=F FulRan=T
         wScrn=  0.000000 ICntrl=       600 IOpCl=  0 I1Cent=           0 NGrid=           0
         NMat0=    1 NMatS0=  37401 NMatT0=    0 NMatD0=    1 NMtDS0=    0 NMtDT0=    0
 Symmetry not used in FoFCou.
 Two-electron integral symmetry not used.
          MDV=    7784628224 using IRadAn=       5.
          Solving linear equations separately, MaxMat=       0.
          There are     1 degrees of freedom in the 1st order CPHF.  IDoFFX=0 NUNeed=     1.
 LinEq1:  Iter=  0 NonCon=     1 RMS=3.87D-03 Max=1.98D-01 NDo=     1
 AX will form     1 AO Fock derivatives at one time.
 LinEq1:  Iter=  1 NonCon=     1 RMS=1.55D-03 Max=7.34D-02 NDo=     1
 LinEq1:  Iter=  2 NonCon=     1 RMS=8.92D-04 Max=3.85D-02 NDo=     1
 LinEq1:  Iter=  3 NonCon=     1 RMS=3.43D-04 Max=1.11D-02 NDo=     1
 LinEq1:  Iter=  4 NonCon=     1 RMS=1.86D-04 Max=8.45D-03 NDo=     1
 LinEq1:  Iter=  5 NonCon=     1 RMS=9.89D-05 Max=3.71D-03 NDo=     1
 LinEq1:  Iter=  6 NonCon=     1 RMS=4.22D-05 Max=1.37D-03 NDo=     1
 LinEq1:  Iter=  7 NonCon=     1 RMS=2.87D-05 Max=9.99D-04 NDo=     1
 LinEq1:  Iter=  8 NonCon=     1 RMS=1.03D-05 Max=2.93D-04 NDo=     1
 LinEq1:  Iter=  9 NonCon=     1 RMS=5.61D-06 Max=1.57D-04 NDo=     1
 LinEq1:  Iter= 10 NonCon=     1 RMS=2.04D-06 Max=7.24D-05 NDo=     1
 LinEq1:  Iter= 11 NonCon=     1 RMS=1.07D-06 Max=4.04D-05 NDo=     1
 LinEq1:  Iter= 12 NonCon=     1 RMS=5.26D-07 Max=1.40D-05 NDo=     1
 LinEq1:  Iter= 13 NonCon=     1 RMS=2.22D-07 Max=6.86D-06 NDo=     1
 LinEq1:  Iter= 14 NonCon=     1 RMS=9.22D-08 Max=3.34D-06 NDo=     1
 LinEq1:  Iter= 15 NonCon=     1 RMS=3.85D-08 Max=9.82D-07 NDo=     1
 LinEq1:  Iter= 16 NonCon=     1 RMS=1.48D-08 Max=4.27D-07 NDo=     1
 LinEq1:  Iter= 17 NonCon=     1 RMS=7.27D-09 Max=1.84D-07 NDo=     1
 LinEq1:  Iter= 18 NonCon=     1 RMS=2.72D-09 Max=1.05D-07 NDo=     1
 LinEq1:  Iter= 19 NonCon=     1 RMS=1.03D-09 Max=3.40D-08 NDo=     1
 LinEq1:  Iter= 20 NonCon=     1 RMS=6.19D-10 Max=1.50D-08 NDo=     1
 LinEq1:  Iter= 21 NonCon=     1 RMS=2.05D-10 Max=4.84D-09 NDo=     1
 LinEq1:  Iter= 22 NonCon=     1 RMS=9.08D-11 Max=2.24D-09 NDo=     1
 LinEq1:  Iter= 23 NonCon=     0 RMS=3.81D-11 Max=7.35D-10 NDo=     1
 Linear equations converged to 1.000D-10 1.000D-09 after    23 iterations.
 End of Minotr F.D. properties file   721 does not exist.
 End of Minotr F.D. properties file   722 does not exist.
 End of Minotr F.D. properties file   788 does not exist.
 Leave Link 1002 at Mon Jul 13 13:40:59 2020, MaxMem=  7784628224 cpu:             742.7 elap:             100.2
 (Enter /gpfs/loomis/apps/avx/software/Gaussian/16-C.01_AVX/g16/l601.exe)
 Copying SCF densities to generalized density rwf, IOpCl= 0 IROHF=0.

 **********************************************************************

            Population analysis using the SCF Density.

 **********************************************************************

 Alpha  occ. eigenvalues --  -89.09099 -19.27827 -14.46252 -10.39722 -10.38264
 Alpha  occ. eigenvalues --  -10.34777 -10.34708 -10.32905 -10.32375 -10.32252
 Alpha  occ. eigenvalues --  -10.32009 -10.31464 -10.31434 -10.31321 -10.30571
 Alpha  occ. eigenvalues --  -10.30454  -8.10997  -6.05853  -6.05508  -6.05055
 Alpha  occ. eigenvalues --   -1.19635  -1.08300  -0.96680  -0.95599  -0.91488
 Alpha  occ. eigenvalues --   -0.88817  -0.85007  -0.84498  -0.82606  -0.76297
 Alpha  occ. eigenvalues --   -0.71347  -0.70261  -0.69491  -0.68526  -0.64040
 Alpha  occ. eigenvalues --   -0.60342  -0.59096  -0.58523  -0.55949  -0.54545
 Alpha  occ. eigenvalues --   -0.53873  -0.53119  -0.52811  -0.51096  -0.50634
 Alpha  occ. eigenvalues --   -0.49340  -0.48154  -0.45870  -0.45608  -0.44778
 Alpha  occ. eigenvalues --   -0.43628  -0.43030  -0.42343  -0.39830  -0.36911
 Alpha  occ. eigenvalues --   -0.36456  -0.32200  -0.31406  -0.28086
 Alpha virt. eigenvalues --   -0.01744   0.05141   0.06970   0.07125   0.07529
 Alpha virt. eigenvalues --    0.11194   0.13349   0.15156   0.15983   0.18043
 Alpha virt. eigenvalues --    0.18623   0.21092   0.21836   0.22277   0.22786
 Alpha virt. eigenvalues --    0.23402   0.23927   0.24854   0.28376   0.30773
 Alpha virt. eigenvalues --    0.32065   0.33316   0.35239   0.36373   0.36946
 Alpha virt. eigenvalues --    0.37737   0.38538   0.40783   0.43933   0.45496
 Alpha virt. eigenvalues --    0.47268   0.48029   0.50450   0.51518   0.51809
 Alpha virt. eigenvalues --    0.52187   0.53517   0.54427   0.55080   0.55815
 Alpha virt. eigenvalues --    0.55904   0.56374   0.57338   0.57861   0.58008
 Alpha virt. eigenvalues --    0.58596   0.58904   0.59427   0.59870   0.60316
 Alpha virt. eigenvalues --    0.60419   0.60777   0.62099   0.62605   0.63611
 Alpha virt. eigenvalues --    0.64325   0.65789   0.66584   0.68046   0.69076
 Alpha virt. eigenvalues --    0.70245   0.71165   0.72253   0.72747   0.73029
 Alpha virt. eigenvalues --    0.73592   0.74269   0.75457   0.76243   0.77465
 Alpha virt. eigenvalues --    0.78934   0.79491   0.79951   0.82091   0.82528
 Alpha virt. eigenvalues --    0.83028   0.88391   0.90556   0.92304   0.93324
 Alpha virt. eigenvalues --    0.94936   0.95187   0.95810   0.96681   0.97003
 Alpha virt. eigenvalues --    0.98506   0.98928   1.00212   1.00431   1.01850
 Alpha virt. eigenvalues --    1.02698   1.04790   1.05976   1.07523   1.08074
 Alpha virt. eigenvalues --    1.08392   1.08711   1.09298   1.10555   1.11475
 Alpha virt. eigenvalues --    1.12184   1.12513   1.13203   1.14921   1.15629
 Alpha virt. eigenvalues --    1.16385   1.18892   1.20629   1.22170   1.23889
 Alpha virt. eigenvalues --    1.25467   1.28421   1.33311   1.33869   1.34869
 Alpha virt. eigenvalues --    1.35490   1.35993   1.38536   1.42427   1.45585
 Alpha virt. eigenvalues --    1.47655   1.48909   1.51149   1.53651   1.53942
 Alpha virt. eigenvalues --    1.54763   1.55998   1.56727   1.57079   1.57649
 Alpha virt. eigenvalues --    1.58749   1.59238   1.62172   1.66140   1.66233
 Alpha virt. eigenvalues --    1.68412   1.68834   1.70072   1.70267   1.71079
 Alpha virt. eigenvalues --    1.72132   1.72363   1.72625   1.73593   1.73788
 Alpha virt. eigenvalues --    1.76267   1.77254   1.80110   1.80922   1.82068
 Alpha virt. eigenvalues --    1.82327   1.83464   1.84820   1.85503   1.85533
 Alpha virt. eigenvalues --    1.86632   1.88287   1.88453   1.89929   1.92106
 Alpha virt. eigenvalues --    1.92183   1.93006   1.93457   1.94334   1.94924
 Alpha virt. eigenvalues --    2.00083   2.00490   2.02079   2.03771   2.04135
 Alpha virt. eigenvalues --    2.07046   2.07851   2.08444   2.11320   2.12178
 Alpha virt. eigenvalues --    2.14215   2.17485   2.20700   2.23773   2.24441
 Alpha virt. eigenvalues --    2.26435   2.28456   2.37146   2.37884   2.41028
 Alpha virt. eigenvalues --    2.41266   2.41498   2.47129   2.47259   2.47869
 Alpha virt. eigenvalues --    2.48329   2.50757   2.53222   2.56473   2.62224
 Alpha virt. eigenvalues --    2.63399   2.72985   2.73579   2.74746   2.80655
 Alpha virt. eigenvalues --    2.81667   2.83834   2.86519   2.90540   2.94941
 Alpha virt. eigenvalues --    3.02831   3.05594   3.13207   3.21522   3.33503
 Alpha virt. eigenvalues --    3.50772   3.56518   3.65024   4.06731
          Condensed to atoms (all electrons):
               1          2          3          4          5          6
     1  C    4.749211   0.456331   0.006996  -0.052020  -0.013192   0.526113
     2  C    0.456331   5.328088   0.344416  -0.041995  -0.063343  -0.010356
     3  C    0.006996   0.344416   4.738472   0.496975  -0.007249  -0.063389
     4  C   -0.052020  -0.041995   0.496975   4.777587   0.525393  -0.015547
     5  C   -0.013192  -0.063343  -0.007249   0.525393   4.732310   0.489524
     6  C    0.526113  -0.010356  -0.063389  -0.015547   0.489524   4.748211
     7  H    0.401632  -0.039243   0.008152  -0.000447   0.008048  -0.038715
     8  H   -0.000939   0.011757  -0.028992   0.391910  -0.044380   0.007845
     9  H    0.008705  -0.000634   0.008583  -0.039436   0.404976  -0.045080
    10  H   -0.041920   0.009684  -0.000622   0.008749  -0.043920   0.405640
    11  N    0.008006  -0.060902   0.486513  -0.039470   0.003051   0.000112
    12  S   -0.062058   0.344952  -0.103840   0.006654   0.000208   0.003397
    13  C   -0.000150   0.003758   0.008410  -0.000825   0.000010   0.000001
    14  C   -0.000005   0.000013   0.000206   0.000006  -0.000000  -0.000000
    15  C    0.000004  -0.000159  -0.000300   0.000056  -0.000000   0.000000
    16  C    0.000000  -0.000001   0.000004  -0.000000   0.000000   0.000000
    17  H   -0.000002   0.000040  -0.000001  -0.000000   0.000000  -0.000000
    18  C    0.000000   0.000006  -0.000032  -0.000000  -0.000000   0.000000
    19  C   -0.000000   0.000000   0.000002  -0.000000   0.000000   0.000000
    20  H   -0.000000  -0.000000  -0.000000   0.000000   0.000000  -0.000000
    21  H   -0.000000  -0.000000   0.000001   0.000000   0.000000  -0.000000
    22  H    0.000000  -0.000000  -0.000000  -0.000000   0.000000  -0.000000
    23  C    0.004360  -0.054970  -0.128416   0.000766   0.000204  -0.000159
    24  O    0.000001  -0.000015  -0.001925  -0.000087  -0.000001  -0.000000
    25  H   -0.000075   0.002536  -0.005447  -0.001200   0.000010   0.000012
               7          8          9         10         11         12
     1  C    0.401632  -0.000939   0.008705  -0.041920   0.008006  -0.062058
     2  C   -0.039243   0.011757  -0.000634   0.009684  -0.060902   0.344952
     3  C    0.008152  -0.028992   0.008583  -0.000622   0.486513  -0.103840
     4  C   -0.000447   0.391910  -0.039436   0.008749  -0.039470   0.006654
     5  C    0.008048  -0.044380   0.404976  -0.043920   0.003051   0.000208
     6  C   -0.038715   0.007845  -0.045080   0.405640   0.000112   0.003397
     7  H    0.660076   0.000035  -0.000144  -0.012098  -0.000129  -0.006339
     8  H    0.000035   0.658069  -0.012172  -0.000130  -0.001393  -0.000139
     9  H   -0.000144  -0.012172   0.668263  -0.012278  -0.000114   0.000021
    10  H   -0.012098  -0.000130  -0.012278   0.665902  -0.000001  -0.000137
    11  N   -0.000129  -0.001393  -0.000114  -0.000001   6.491221  -0.075195
    12  S   -0.006339  -0.000139   0.000021  -0.000137  -0.075195  15.478246
    13  C    0.000006   0.000052  -0.000000  -0.000000  -0.016828  -0.060840
    14  C    0.000000   0.000001   0.000000  -0.000000   0.003306  -0.004604
    15  C   -0.000000  -0.000042   0.000000   0.000000  -0.019176   0.003798
    16  C   -0.000000  -0.000000  -0.000000   0.000000  -0.000098  -0.000089
    17  H    0.000001   0.000000  -0.000000  -0.000000   0.000202   0.005679
    18  C   -0.000000   0.000000  -0.000000  -0.000000  -0.000406  -0.000088
    19  C    0.000000   0.000000  -0.000000  -0.000000   0.000056   0.000018
    20  H   -0.000000  -0.000000   0.000000   0.000000   0.000001  -0.000001
    21  H   -0.000000   0.000000  -0.000000   0.000000   0.000013   0.000003
    22  H    0.000000  -0.000000  -0.000000  -0.000000  -0.000000  -0.000000
    23  C    0.000048  -0.000960   0.000008   0.000003   0.538209   0.313326
    24  O   -0.000000  -0.000224   0.000000  -0.000000  -0.063006  -0.000224
    25  H    0.000001   0.001513  -0.000005   0.000000   0.086192   0.002725
              13         14         15         16         17         18
     1  C   -0.000150  -0.000005   0.000004   0.000000  -0.000002   0.000000
     2  C    0.003758   0.000013  -0.000159  -0.000001   0.000040   0.000006
     3  C    0.008410   0.000206  -0.000300   0.000004  -0.000001  -0.000032
     4  C   -0.000825   0.000006   0.000056  -0.000000  -0.000000  -0.000000
     5  C    0.000010  -0.000000  -0.000000   0.000000   0.000000  -0.000000
     6  C    0.000001  -0.000000   0.000000   0.000000  -0.000000   0.000000
     7  H    0.000006   0.000000  -0.000000  -0.000000   0.000001  -0.000000
     8  H    0.000052   0.000001  -0.000042  -0.000000   0.000000   0.000000
     9  H   -0.000000   0.000000   0.000000  -0.000000  -0.000000  -0.000000
    10  H   -0.000000  -0.000000   0.000000   0.000000  -0.000000  -0.000000
    11  N   -0.016828   0.003306  -0.019176  -0.000098   0.000202  -0.000406
    12  S   -0.060840  -0.004604   0.003798  -0.000089   0.005679  -0.000088
    13  C    5.314301   0.492789   0.285782  -0.008601  -0.038557  -0.055730
    14  C    0.492789   4.787662  -0.005999   0.527058   0.402767  -0.053018
    15  C    0.285782  -0.005999   4.814977  -0.063371   0.007879   0.503354
    16  C   -0.008601   0.527058  -0.063371   4.752065  -0.036493  -0.017843
    17  H   -0.038557   0.402767   0.007879  -0.036493   0.672213  -0.000753
    18  C   -0.055730  -0.053018   0.503354  -0.017843  -0.000753   4.803639
    19  C   -0.047405  -0.017284  -0.009418   0.490527   0.008417   0.511933
    20  H    0.008713  -0.035775  -0.000293   0.401732  -0.012826   0.008422
    21  H    0.011908  -0.000436  -0.023638   0.007185   0.000040   0.380752
    22  H   -0.000987   0.008898   0.009035  -0.043484  -0.000147  -0.041740
    23  C    0.309091  -0.090787  -0.073804   0.007456  -0.019565   0.007101
    24  O   -0.082057   0.003573   0.514066   0.000025  -0.000055  -0.059408
    25  H   -0.035367  -0.000847  -0.014357  -0.000045   0.000022   0.006360
              19         20         21         22         23         24
     1  C   -0.000000  -0.000000  -0.000000   0.000000   0.004360   0.000001
     2  C    0.000000  -0.000000  -0.000000  -0.000000  -0.054970  -0.000015
     3  C    0.000002  -0.000000   0.000001  -0.000000  -0.128416  -0.001925
     4  C   -0.000000   0.000000   0.000000  -0.000000   0.000766  -0.000087
     5  C    0.000000   0.000000   0.000000   0.000000   0.000204  -0.000001
     6  C    0.000000  -0.000000  -0.000000  -0.000000  -0.000159  -0.000000
     7  H    0.000000  -0.000000  -0.000000   0.000000   0.000048  -0.000000
     8  H    0.000000  -0.000000   0.000000  -0.000000  -0.000960  -0.000224
     9  H   -0.000000   0.000000  -0.000000  -0.000000   0.000008   0.000000
    10  H   -0.000000   0.000000   0.000000  -0.000000   0.000003  -0.000000
    11  N    0.000056   0.000001   0.000013  -0.000000   0.538209  -0.063006
    12  S    0.000018  -0.000001   0.000003  -0.000000   0.313326  -0.000224
    13  C   -0.047405   0.008713   0.011908  -0.000987   0.309091  -0.082057
    14  C   -0.017284  -0.035775  -0.000436   0.008898  -0.090787   0.003573
    15  C   -0.009418  -0.000293  -0.023638   0.009035  -0.073804   0.514066
    16  C    0.490527   0.401732   0.007185  -0.043484   0.007456   0.000025
    17  H    0.008417  -0.012826   0.000040  -0.000147  -0.019565  -0.000055
    18  C    0.511933   0.008422   0.380752  -0.041740   0.007101  -0.059408
    19  C    4.722820  -0.046912  -0.043896   0.406935   0.000416   0.002926
    20  H   -0.046912   0.676394  -0.000161  -0.011839  -0.000324   0.000003
    21  H   -0.043896  -0.000161   0.657422  -0.011779  -0.000414   0.002612
    22  H    0.406935  -0.011839  -0.011779   0.661581   0.000004  -0.000063
    23  C    0.000416  -0.000324  -0.000414   0.000004   5.111187   0.000369
    24  O    0.002926   0.000003   0.002612  -0.000063   0.000369   7.377372
    25  H   -0.000146  -0.000001   0.000099   0.000009   0.002006   0.395289
              25
     1  C   -0.000075
     2  C    0.002536
     3  C   -0.005447
     4  C   -0.001200
     5  C    0.000010
     6  C    0.000012
     7  H    0.000001
     8  H    0.001513
     9  H   -0.000005
    10  H    0.000000
    11  N    0.086192
    12  S    0.002725
    13  C   -0.035367
    14  C   -0.000847
    15  C   -0.014357
    16  C   -0.000045
    17  H    0.000022
    18  C    0.006360
    19  C   -0.000146
    20  H   -0.000001
    21  H    0.000099
    22  H    0.000009
    23  C    0.002006
    24  O    0.395289
    25  H    0.489606
 Mulliken charges:
               1
     1  C    0.009002
     2  C   -0.229962
     3  C    0.241481
     4  C   -0.017070
     5  C    0.008351
     6  C   -0.007608
     7  H    0.019117
     8  H    0.018189
     9  H    0.019309
    10  H    0.021129
    11  N   -0.340164
    12  S    0.154528
    13  C   -0.087473
    14  C   -0.017524
    15  C    0.071608
    16  C   -0.016028
    17  H    0.011138
    18  C    0.007451
    19  C    0.021010
    20  H    0.012867
    21  H    0.020289
    22  H    0.023575
    23  C    0.074846
    24  O   -0.089170
    25  H    0.071108
 Sum of Mulliken charges =  -0.00000
 Mulliken charges with hydrogens summed into heavy atoms:
               1
     1  C    0.028119
     2  C   -0.229962
     3  C    0.241481
     4  C    0.001119
     5  C    0.027660
     6  C    0.013521
    11  N   -0.340164
    12  S    0.154528
    13  C   -0.087473
    14  C   -0.006386
    15  C    0.071608
    16  C   -0.003161
    18  C    0.027740
    19  C    0.044586
    23  C    0.074846
    24  O   -0.018062
 Electronic spatial extent (au):  <R**2>=           4358.3509
 Charge=             -0.0000 electrons
 Dipole moment (field-independent basis, Debye):
    X=             -0.4107    Y=             -1.7609    Z=              0.0000  Tot=              1.8082
 Quadrupole moment (field-independent basis, Debye-Ang):
   XX=            -83.2560   YY=            -88.2510   ZZ=           -104.3554
   XY=             -7.1439   XZ=             -0.0001   YZ=              0.0002
 Traceless Quadrupole moment (field-independent basis, Debye-Ang):
   XX=              8.6981   YY=              3.7031   ZZ=            -12.4012
   XY=             -7.1439   XZ=             -0.0001   YZ=              0.0002
 Octapole moment (field-independent basis, Debye-Ang**2):
  XXX=              9.3824  YYY=            -12.0742  ZZZ=             -0.0000  XYY=             -6.6642
  XXY=              3.1684  XXZ=              0.0001  XZZ=              0.9537  YZZ=              2.8910
  YYZ=              0.0008  XYZ=             -0.0007
 Hexadecapole moment (field-independent basis, Debye-Ang**3):
[...]
 00000005,-0.01173562,0.01687525,0.00000004,0.01036125,-0.00179819,-0.0
 0000016,-0.00002318,0.00706899,0.00000009,-0.00159812,-0.00203705,0.,-
 0.00001058,0.00021481,0.,-0.00007945,-0.00012002,-0.00000001,-0.000156
 54,0.00010518,0.,-0.00002277,-0.00003877,0.,0.01755403,-0.01284565,-0.
 00000027,0.00086087,-0.00489928,0.,0.05780539,0.02790608,0.00000052,0.
 06661121,-0.26171379,-0.00000163,-0.00400949,-0.01625403,-0.00000008,-
 0.00194835,0.63588851,-0.00000003,0.,-0.00006303,-0.00000004,-0.000000
 08,-0.00011987,-0.00000016,0.00000020,-0.00009899,0.00000012,-0.000000
 02,-0.00015064,0.,0.00000009,-0.00004829,0.,-0.00000003,0.00002225,0.,
 0.,-0.00003421,0.,0.,-0.00002558,0.,0.,-0.00000027,0.,0.,0.00005845,0.
 00000017,-0.00000006,0.00182335,-0.00000002,-0.00000003,0.00007866,-0.
 00000006,0.00000068,0.00228506,-0.00000108,-0.00000083,-0.05284335,0.0
 0000012,-0.00000003,-0.00384115,0.00000774,0.00000685,0.13125361,0.000
 16513,-0.00002363,0.,-0.00092742,-0.00009649,0.00000006,0.00007307,0.0
 0044542,0.,0.00030716,0.00001636,0.,0.00007499,0.00028749,0.,-0.000130
 92,-0.00016169,0.,-0.00001228,0.00000860,0.,0.00001914,-0.00000428,0.,
 -0.00000123,0.00000064,0.,0.00002456,-0.00000217,0.,0.00067739,0.00016
 689,0.00000005,-0.00035348,0.00111171,-0.00000012,-0.00683067,-0.02842
 381,-0.00000046,-0.10420798,-0.10654698,-0.00000261,-0.00574300,0.0026
 2364,-0.00000025,0.01084990,0.01856696,0.00000036,0.10708606,-0.000048
 28,-0.00006262,0.,-0.00028420,0.00000746,0.,-0.00022586,0.00063253,0.,
 0.00035344,-0.00006139,0.,0.00001861,0.00035927,0.,-0.00017512,-0.0001
 4878,0.,-0.00000156,0.00001888,0.,-0.00000140,-0.00001254,0.,-0.000011
 83,0.00000302,0.,-0.00000936,0.00000326,0.,0.00067705,0.00001088,0.000
 00004,-0.00025994,-0.00038445,0.,0.00256910,0.00026680,-0.00000001,-0.
 10571827,-0.29713151,-0.00000524,0.00050027,0.00144941,-0.00000007,-0.
 01290085,-0.01846453,-0.00000048,0.11170651,0.31418634,0.00000004,-0.0
 0000001,-0.00004633,-0.00000002,0.00000008,-0.00024594,0.00000008,-0.0
 0000012,0.00011154,-0.00000005,0.00000001,0.00008570,0.,-0.00000003,0.
 00001053,0.,0.,0.00001884,0.,0.,0.00000816,0.,0.,0.00002306,0.,0.,0.00
 000127,0.,0.,-0.00001333,-0.00000012,0.00000006,-0.00107951,-0.0000000
 7,0.00000005,0.00035959,-0.00000002,-0.00000047,0.00282730,-0.00000263
 ,-0.00000542,-0.03143862,-0.00000009,-0.00000002,0.00618602,-0.0000000
 5,0.,0.00270705,0.00000294,0.00000574,0.02104637,-0.00229749,0.0015962
 1,0.00000003,0.00079535,-0.00193299,-0.00000014,-0.00239310,0.00603624
 ,-0.00000016,0.00254899,-0.00019627,0.00000004,-0.00038826,-0.00030498
 ,0.,0.00271256,-0.00018479,-0.00000005,-0.00013178,-0.00000320,0.,0.00
 014666,0.00005876,-0.00000001,0.00013854,-0.00001562,0.,0.00010258,-0.
 00003907,0.00000001,0.00969986,0.00578481,0.00000039,-0.00157088,-0.00
 227935,0.00000003,0.02040921,0.01972848,0.00000023,-0.01642389,0.02405
 786,-0.00000007,-0.17048540,0.07429317,0.00000005,-0.01630075,-0.05791
 054,-0.00000092,-0.00041462,0.00022136,-0.00000006,0.75748533,-0.00003
 327,-0.00033216,0.,-0.00305336,-0.00327728,0.,-0.00286963,0.00533061,0
 .00000006,0.00268785,-0.00057062,-0.00000008,0.00032034,0.00263806,0.0
 0000003,-0.00127808,-0.00109962,0.,0.00001158,0.00009612,0.,-0.0001041
 2,-0.00007966,0.,-0.00007682,0.00001535,0.,0.00000346,-0.00000138,0.,0
 .00723638,-0.00416755,-0.00000004,0.00145769,-0.00355821,0.,0.01953682
 ,-0.03686564,-0.00000053,-0.00502676,-0.00016703,0.00000010,0.11776772
 ,-0.27227358,-0.00000087,-0.03380263,-0.00843959,-0.00000055,-0.000330
 74,0.00045457,0.00000009,0.03971622,0.71791577,0.00000003,0.00000001,0
 .00030468,0.00000015,0.00000016,0.00079899,0.00000016,-0.00000031,0.00
 135151,-0.00000018,0.00000003,-0.00049178,0.,-0.00000014,0.00000716,0.
 00000004,0.00000008,-0.00005645,0.,0.,0.00002289,0.,0.,0.00004567,0.,0
 .,0.00004921,0.,0.,-0.00009864,-0.00000017,0.00000057,-0.00401130,-0.0
 0000005,0.00000012,0.00002449,-0.00000030,0.00000005,0.01008228,0.0000
 0022,0.00000005,-0.00133805,0.00000107,-0.00000202,-0.06653191,-0.0000
 0075,-0.00000049,0.00558376,0.00000003,0.00000003,-0.00070354,0.000005
 85,0.00000767,0.11075193,0.00324463,-0.00112410,-0.00000004,0.00246312
 ,0.00542286,0.00000011,0.00904000,-0.01477620,0.,-0.00774441,0.0012411
 1,0.00000008,0.00046400,-0.00356150,-0.00000006,-0.00162696,0.00166715
 ,0.00000005,0.00010107,-0.00005283,0.,-0.00002582,0.00001556,0.0000000
 1,-0.00008208,-0.00002545,0.,-0.00007010,0.00006857,-0.00000001,-0.018
 68571,0.00598162,0.00000022,0.00226415,0.00409335,0.,-0.01928329,-0.02
 309989,-0.00000007,0.05026741,-0.01247714,0.00000051,-0.03988163,0.035
 82504,0.00000003,-0.14686070,-0.02679947,-0.00000131,-0.00196892,0.004
 52303,-0.00000003,-0.38861164,-0.05401423,-0.00000336,0.72890215,-0.00
 062324,-0.00004800,0.,-0.00311731,-0.00370578,0.00000005,-0.00319157,0
 .00767578,0.00000016,0.00379664,-0.00080434,-0.00000010,0.00010123,0.0
 0322679,0.00000004,-0.00079790,-0.00186382,-0.00000001,-0.00000306,0.0
 0009837,0.,-0.00006926,-0.00012066,0.,-0.00004178,0.00000987,0.,-0.000
 01155,0.00001005,0.,0.00979688,-0.00245473,-0.00000024,-0.00089112,-0.
 00268719,-0.00000008,-0.01371025,-0.01190919,-0.00000029,0.01948656,-0
 .05801070,-0.00000065,0.01978154,0.02993338,0.00000045,-0.09352789,-0.
 28533659,-0.00000436,0.00330060,-0.00157402,0.,-0.01357607,-0.12268246
 ,-0.00000129,-0.04377546,0.68325084,0.00000001,-0.00000002,0.00014965,
 -0.00000010,-0.00000008,-0.00032997,-0.00000008,0.00000018,-0.00094750
 ,0.00000008,-0.00000002,0.00009520,0.,0.00000009,0.00008601,-0.0000000
 5,-0.00000005,-0.00000460,0.,0.,-0.00002109,0.,0.,-0.00010387,0.,0.,-0
 .00000556,0.,0.,0.00000357,0.00000020,-0.00000013,0.00146225,-0.000000
 02,-0.00000007,0.00025737,-0.00000017,-0.00000042,-0.00359625,0.000000
 51,-0.00000087,0.00833862,0.00000007,0.00000093,0.00211577,-0.00000215
 ,-0.00000376,-0.05985589,-0.00000006,-0.00000010,0.00593019,-0.0000029
 6,-0.00000151,-0.04874948,0.00000480,0.00000781,0.11399191,0.00004682,
 -0.00007236,0.,-0.00010892,0.00005625,0.,-0.00000232,-0.00005475,-0.00
 000001,0.00000553,0.00001886,0.,0.00001935,0.00009440,0.,-0.00013842,0
 .00000071,0.,0.00000516,0.00001125,0.,-0.00000333,-0.00000771,0.,-0.00
 001450,0.00000470,0.,-0.00000825,0.00000518,0.,-0.00017997,0.00037781,
 0.00000001,0.00005604,-0.00004867,0.,0.00047184,0.00311193,-0.00000003
 ,-0.01358835,-0.00623905,-0.00000038,0.00060932,0.00011499,0.00000002,
 -0.34089379,-0.03995562,-0.00000452,0.00081297,0.00007962,0.00000006,0
 .00135035,-0.00210803,-0.00000010,-0.00679660,0.00224341,-0.00000012,0
 .35875708,-0.00003437,0.00001419,0.,-0.00006851,-0.00014863,0.,-0.0000
 5066,0.00028962,0.,0.00013298,-0.00006318,0.,0.00001345,0.00008401,0.,
 0.00000183,-0.00003323,0.,-0.00000050,0.00000006,0.,-0.00000043,-0.000
 00014,0.,0.00000194,-0.00000283,0.,0.00000243,-0.00000147,0.,0.0005801
 3,-0.00045154,0.00000003,0.00002412,-0.00003280,0.,0.00326622,-0.00402
 270,-0.00000011,0.02464711,0.00724213,0.00000038,0.00034204,-0.0012687
 5,0.,-0.04054233,-0.06468545,-0.00000105,-0.00008344,0.00086759,0.0000
 0007,-0.00122008,-0.00544917,-0.00000015,-0.02929889,0.00111837,-0.000
 00043,0.04290034,0.06420806,-0.00000001,0.,-0.00003986,-0.00000003,-0.
 00000003,0.00003783,-0.00000002,0.00000006,0.00059950,0.00000004,0.,0.
 00013416,0.,0.00000003,-0.00007992,0.,0.,0.00002006,0.,0.,0.00000438,0
 .,0.,0.00003975,0.,0.,-0.00002566,0.,0.,-0.00000054,0.00000005,-0.0000
 0006,-0.00107957,0.00000002,-0.00000001,-0.00007589,-0.00000002,-0.000
 00011,0.00714245,-0.00000002,0.00000002,0.00652431,-0.00000004,-0.0000
 0006,-0.00105641,-0.00000451,-0.00000117,-0.03814208,0.00000007,0.0000
 0009,-0.00417387,0.,-0.00000020,0.00470345,-0.00000055,0.00000006,0.00
 575194,0.00000500,0.00000120,0.02338842,-0.00008415,0.00003055,0.,0.00
 008177,0.00008625,0.,-0.00005017,0.00005165,0.,0.00001849,0.00000749,0
 .,-0.00002526,-0.00005104,0.,0.00008652,0.00001483,0.,0.00000016,-0.00
 000455,0.,-0.00000394,0.00000242,0.,0.00000437,0.00000023,0.,-0.000001
 61,-0.00000231,0.,0.00008261,-0.00016555,-0.00000004,-0.00026978,0.000
 09423,0.,-0.00326057,0.00273391,-0.00000002,0.00016446,0.00016553,0.,0
 .00882095,0.01951011,0.00000023,-0.00573464,0.00093551,-0.00000009,0.0
 0011275,-0.00010261,0.,-0.10455961,-0.11008434,-0.00000175,-0.00454874
 ,-0.02825691,-0.00000041,-0.00041832,-0.00139986,-0.00000003,0.1060263
 8,0.00011481,0.00001129,0.,-0.00005993,0.00003486,0.,0.00019523,-0.000
 13112,-0.00000002,-0.00009142,0.00000471,0.,-0.00000311,-0.00006684,0.
 ,0.00000867,-0.00001222,0.,-0.00000609,-0.00000151,0.,0.00001069,0.000
 00407,0.,0.00000812,-0.00000198,0.,0.00000770,-0.00000096,0.,-0.000382
 54,0.00049607,0.00000005,0.00026060,-0.00007315,0.,0.00387227,-0.00124
 893,-0.00000003,0.00030524,0.00021360,0.00000002,-0.01359456,-0.018860
 51,-0.00000030,-0.00002636,0.00153863,-0.00000008,-0.00007568,-0.00005
 315,0.,-0.10637548,-0.30104717,-0.00000408,0.00196365,0.00180224,0.,0.
 00010378,-0.00001564,0.00000001,0.11596105,0.31546748,0.00000001,0.,-0
 .00033785,0.,0.00000001,-0.00001668,0.00000003,-0.00000004,0.00044951,
 -0.00000001,0.,-0.00001829,0.,0.,-0.00005936,0.,0.,0.00002582,0.,0.,-0
 .00000011,0.,0.,0.00005596,0.,0.,-0.00000049,0.,0.,0.00006198,-0.00000
 006,0.00000002,-0.00040010,0.00000003,0.00000002,-0.00011015,-0.000000
 08,0.00000010,0.00410194,0.00000007,-0.00000004,-0.00063783,-0.0000002
 6,-0.00000028,0.00389335,-0.00000010,0.,0.00694610,0.,0.00000001,-0.00
 062463,-0.00000163,-0.00000397,-0.03306653,-0.00000019,-0.00000030,0.0
 0371878,0.,0.,-0.00027765,0.00000196,0.00000438,0.02299235,-0.00001562
 ,-0.00003075,0.,-0.00020763,-0.00012944,0.,-0.00011616,0.00038133,0.,0
 .00021575,-0.00004707,0.,0.00001587,0.00021687,0.,-0.00010412,-0.00007
 968,0.,0.00000070,0.00001062,0.,-0.00000140,-0.00000912,0.,-0.00000981
 ,0.00000309,0.,-0.00000368,0.00000238,0.,0.00057409,0.00011555,0.00000
 003,-0.00002300,-0.00005655,0.,0.00021027,-0.00057886,-0.00000001,-0.0
 0111164,-0.00245941,-0.00000008,-0.00396559,-0.00275915,-0.00000012,0.
 01057491,-0.01196597,-0.00000009,0.00035885,-0.00053905,0.,-0.01207402
 ,0.02582045,0.00000029,-0.17179677,0.14181333,0.00000068,0.00068715,0.
 00040271,0.00000004,0.00111590,-0.00024630,0.00000005,0.17781987,0.000
 12331,0.00002462,0.,0.00029120,0.00038324,0.,0.00056385,-0.00090925,0.
 ,-0.00050767,0.00010028,0.,-0.00000281,-0.00037934,0.,0.00009607,0.000
 13218,0.,-0.00000233,-0.00001348,0.,0.00000833,0.00001159,0.,0.0000110
 0,-0.00000465,0.,0.00000517,-0.00000061,0.,-0.00107778,0.00044773,0.00
 000002,-0.00001055,0.00032276,0.,-0.00153012,0.00023250,0.00000002,-0.
 00256514,-0.00382276,-0.00000016,-0.00160371,0.00021746,-0.00000009,0.
 02020881,-0.01506523,-0.00000005,0.00091816,-0.00098992,0.,-0.00611636
 ,0.00756565,0.00000002,0.14199084,-0.23537208,-0.00000163,-0.00008885,
 0.00096515,0.00000007,0.00027491,0.00058967,0.00000006,-0.15142697,0.2
 4555321,0.,0.,0.00002297,0.,0.,-0.00000332,0.00000001,0.,-0.00013583,0
 .,0.,0.00004491,0.,0.,0.00000797,0.,0.,-0.00000418,0.,0.,0.00000893,0.
 ,0.,0.00001201,0.,0.,-0.00000090,0.,0.,-0.00001731,-0.00000001,-0.0000
 0003,0.00034359,0.,-0.00000001,-0.00010889,-0.00000002,-0.00000002,-0.
 00137052,-0.00000006,-0.00000021,0.00409779,-0.00000010,-0.00000010,0.
 00734155,0.00000041,-0.00000025,0.00252665,0.,-0.00000002,0.00079141,-
 0.00000025,0.00000023,0.00430496,0.00000061,-0.00000155,-0.03239555,0.
 00000006,0.00000006,-0.00283742,0.00000004,0.00000006,-0.00401810,-0.0
 0000072,0.00000178,0.02206662,-0.00988163,-0.00355738,0.00000003,-0.00
 761344,0.00810947,-0.00000004,-0.09803417,0.05383390,0.00000159,0.0238
 3309,-0.00320737,-0.00000038,-0.00128548,0.01339044,0.00000019,-0.0039
 3102,-0.00213595,0.00000006,0.00038609,-0.00037901,-0.00000002,-0.0004
 5865,-0.00023247,0.,-0.00026970,0.00022012,0.00000001,-0.00055517,-0.0
 0014949,0.00000001,-0.29569214,-0.05687798,0.00000280,-0.05054552,-0.0
 2910240,0.00000017,-0.18071184,0.12536682,-0.00000137,-0.04924071,0.04
 503472,-0.00000024,0.01103875,0.00174087,0.00000001,0.00186241,-0.0212
 7130,-0.00000030,0.00001970,-0.00030926,0.00000008,-0.00609546,-0.0139
 6353,0.00000010,0.01040205,-0.00431119,-0.00000013,-0.00063294,0.00049
 213,-0.00000003,0.00074529,-0.00073388,0.00000005,-0.00042427,0.000947
 25,0.,0.65056409,-0.00675530,0.00492207,0.00000008,0.04529259,-0.01733
 848,-0.00000079,0.02640312,-0.01050948,-0.00000041,-0.00170938,-0.0047
 5626,-0.00000008,-0.00096702,-0.00712158,-0.00000010,0.00832162,0.0027
 7148,-0.00000010,0.00006919,-0.00092743,-0.00000002,0.00001608,0.00046
 537,0.00000003,0.00050722,-0.00046910,-0.00000002,-0.00007945,-0.00000
 943,0.00000003,-0.06168264,-0.09433128,0.00000012,-0.01196502,-0.10026
 392,-0.00000025,0.09742607,-0.22904100,0.00000068,0.02025287,0.0091439
 2,-0.00000005,0.02913264,-0.04726432,0.00000028,-0.00609115,-0.0001605
 4,-0.00000022,-0.00120448,0.00076960,0.00000002,-0.01562559,0.00632739
 ,-0.00000035,0.00790012,0.00595250,0.00000026,-0.00055433,0.00109328,0
 .00000007,0.00028482,-0.00059027,-0.00000007,0.00038204,-0.00011080,0.
 00000004,-0.11447078,0.48462840,0.00000002,0.00000004,0.00214185,0.000
 00049,-0.00000038,-0.00289668,0.00000131,-0.00000064,0.00431085,-0.000
 00013,-0.00000011,0.00542683,0.00000005,-0.00000005,0.00093056,0.00000
 005,0.00000002,0.00083244,0.,0.,-0.00029933,-0.00000001,0.,-0.00087689
 ,-0.00000002,0.,-0.00080625,0.,0.,-0.00030715,0.00000142,-0.00000015,-
 0.03805628,0.00000011,0.00000044,-0.02059147,0.00000043,-0.00000095,-0
 .03997653,-0.00000064,0.00000018,0.00718059,-0.00000035,0.00000066,0.0
 0566796,-0.00000011,0.00000006,0.00230403,-0.00000002,0.00000004,-0.00
 093379,0.00000077,-0.00000022,0.00003121,-0.00000079,0.00000014,-0.000
 87407,0.,0.00000002,-0.00065815,0.00000002,-0.00000004,0.00131994,0.,-
 0.00000002,0.00012001,-0.00000248,0.00000112,0.07614463,0.00317745,0.0
 0125021,0.00000003,0.00643317,0.01178034,-0.00000007,0.01911782,-0.016
 99878,-0.00000048,-0.01056585,0.00188570,0.00000034,-0.00085441,-0.008
 72324,-0.00000008,0.00281546,0.00298679,0.,-0.00023162,-0.00006168,0.,
 0.00052241,0.00021429,-0.00000001,0.00019621,-0.00001644,-0.00000002,0
 .00004925,0.00006048,-0.00000001,-0.01430216,0.04632505,0.00000258,0.0
 0070105,0.00852594,0.00000005,-0.04644266,-0.01126007,-0.00000063,0.02
 738768,-0.01374392,-0.00000005,-0.38786756,-0.08608013,-0.00000393,-0.
 01071349,0.01707712,0.00000013,-0.00041463,-0.00017853,-0.00000004,-0.
 07354106,0.01742799,-0.00000116,0.00073243,0.00454847,-0.00000008,-0.0
 0009227,-0.00009191,0.00000007,0.00181340,-0.00148232,0.00000013,-0.00
 152508,-0.00052967,-0.00000002,0.00753241,-0.00752708,0.00000044,0.563
 51160,-0.00143051,-0.00115386,0.,-0.00206627,-0.00711658,0.00000012,-0
 .01659354,0.00379163,0.00000021,0.00408650,-0.00126324,-0.00000017,0.0
 0023940,0.00340571,0.00000003,-0.00081057,-0.00170838,-0.00000002,0.00
 021869,-0.00028226,0.,-0.00003038,0.00008785,0.,0.00014714,-0.00008390
 ,0.,0.00005590,-0.00009349,0.,0.02206940,-0.06767667,-0.00000309,0.000
 54703,-0.00406943,-0.00000011,-0.03022212,-0.00476088,0.00000010,-0.00
 729338,-0.00571480,-0.00000015,-0.06025464,-0.12895851,0.00000132,0.00
 045967,-0.00330024,-0.00000008,-0.00189915,-0.00002556,-0.00000003,0.0
 5078369,0.01379290,-0.00000004,-0.00011745,-0.00786792,-0.00000036,-0.
 00000678,0.00043224,0.00000002,-0.00054367,0.00247349,0.00000015,0.001
 68358,0.00051387,0.00000009,0.00803596,0.01029767,-0.00000013,-0.03750
 304,0.41717050,0.00000010,-0.00000001,0.00040764,-0.00000002,0.0000001
 7,-0.00079228,0.00000057,-0.00000021,-0.00049897,-0.00000016,0.0000000
 6,0.00034934,-0.00000002,-0.00000012,0.00019221,0.00000002,0.,0.000018
 06,0.,0.,-0.00001793,0.,0.,-0.00017877,0.,0.,-0.00004343,0.,0.,-0.0001
 0323,-0.00000033,0.00000018,0.01369282,0.00000011,0.00000006,-0.000906
 29,-0.00000073,-0.00000076,0.01344324,0.00000020,-0.00000018,0.0019193
 5,-0.00000575,0.00000110,-0.04713781,-0.00000008,0.00000006,-0.0003120
 0,-0.00000001,-0.00000002,-0.00113435,-0.00000107,-0.00000032,0.010379
 41,-0.00000017,0.00000021,0.00384791,0.,0.,0.00003870,0.00000007,-0.00
 000002,-0.00334682,-0.00000008,-0.00000001,-0.00001078,-0.00000020,0.0
 0000033,-0.00254530,0.00001346,-0.00001263,0.04080568,-0.00101816,-0.0
 0027830,0.,-0.00280732,-0.00330700,0.00000006,-0.00537532,0.00933699,0
 .00000032,0.00400406,-0.00047239,-0.00000014,0.00010300,0.00271172,0.0
 0000002,-0.00069838,-0.00097854,0.,0.00005024,0.00003639,0.,-0.0005163
 0,-0.00014052,0.00000002,-0.00001591,-0.00000442,0.,-0.00001250,-0.000
 06937,0.,-0.01531292,-0.01348619,-0.00000137,-0.00164866,-0.00403327,0
 .00000002,0.00605456,-0.00140937,0.00000019,-0.00610041,0.00332281,0.,
 -0.04944737,0.03638730,-0.00000254,0.00135461,-0.00355797,-0.00000002,
 0.00042347,0.00011712,0.,-0.00010148,-0.00524095,-0.00000015,0.0001023
 4,0.00103588,-0.00000003,0.00005637,-0.00001645,0.,-0.00011626,0.00026
 589,0.,-0.00019455,0.00002309,0.00000002,-0.00101173,-0.00735616,-0.00
 000056,-0.08743954,0.07044454,-0.00000589,0.15966819,0.00450466,0.0005
 6460,-0.00000008,0.00425516,0.01390164,-0.00000017,0.02793902,-0.01723
 537,-0.00000014,-0.01059549,0.00315464,0.00000035,-0.00083682,-0.00755
 785,-0.00000005,0.00076501,0.00281164,0.00000004,-0.00028964,0.0002865
 6,0.00000002,0.00041795,-0.00006101,-0.00000001,-0.00014176,0.00013545
 ,-0.00000001,-0.00009986,0.00016411,0.,-0.02475811,0.02666380,0.000004
 17,0.00247799,0.01035271,-0.00000006,-0.02122588,0.00389426,-0.0000002
 5,0.01992132,-0.00874303,0.,0.03780145,0.01613610,-0.00000016,-0.00404
 839,0.01218226,0.00000013,-0.00030045,-0.00012114,-0.00000004,-0.01649
 640,0.00587469,0.00000007,-0.00157029,0.00135927,0.00000018,0.00001291
 ,-0.00013917,0.00000003,0.00045732,-0.00053267,-0.00000005,-0.00050364
 ,-0.00039177,-0.00000005,-0.00646966,-0.01347779,-0.00000008,0.0721144
 3,-0.21789015,0.00001212,-0.08333082,0.16866823,0.00000002,0.00000009,
 0.00005950,0.00000003,0.00000020,0.00091979,0.00000026,0.00000031,-0.0
 0156520,0.00000002,0.00000003,-0.00053920,-0.00000004,0.,-0.00012518,0
 .00000004,0.,-0.00001591,-0.00000002,0.00000002,-0.00004085,0.00000006
 ,-0.00000001,0.00015236,0.,0.,0.00004668,0.,0.,0.00006198,-0.00000077,
 -0.00000049,-0.01391858,0.00000010,0.00000042,0.00090854,-0.00000021,0
 .00000027,-0.00464870,0.00000038,-0.00000009,0.00013883,0.00000074,0.0
 0000079,0.00016125,-0.00000018,0.00000024,-0.00005360,0.00000003,0.,0.
 00028688,-0.00000009,0.00000009,0.00660607,0.00000014,-0.00000007,0.00
 113468,0.,0.,0.00006206,0.,0.00000003,-0.00065113,0.00000002,0.,-0.000
 78657,0.00000009,-0.00000061,0.00241100,-0.00001064,0.00001475,-0.0280
 6640,0.00001002,-0.00001596,0.03746171\\0.00139862,-0.00088289,0.,-0.0
 0092748,-0.00267931,0.00000029,-0.00309785,-0.00024929,-0.00000044,-0.
 00085326,0.00117036,0.00000004,0.00053688,0.00298442,0.00000003,0.0015
 6030,0.00138773,-0.00000012,0.00029664,-0.00018052,-0.00000002,-0.0002
 4750,0.00021385,0.00000002,0.00005184,0.00031949,-0.00000001,0.0002472
 1,0.00018209,0.,0.00101592,-0.00329823,-0.00000212,-0.00177356,-0.0071
 7020,0.00000024,0.00079986,-0.00152111,-0.00000010,-0.00279958,0.00151
 644,-0.00000032,-0.00246648,-0.00138148,-0.00000124,0.00064816,0.00092
 882,0.,-0.00024117,0.00014566,-0.00000009,0.00234740,0.00015331,0.0000
 0117,0.00249186,0.00214047,0.00000023,0.00001738,0.00027720,-0.0000000
 1,0.00027813,-0.00001558,-0.00000007,0.00030380,0.00026273,-0.00000006
 ,-0.00003950,-0.00047785,0.00000099,0.00215082,0.00073613,-0.00000325,
 -0.00169844,0.00543774,0.00000484\\\@
 The archive entry for this job was punched.


 IN NATURE THERE ARE NEITHER REWARDS OR
 PUNISHMENTS -- THERE ARE CONSEQUENCES.

                            -- ROBERT GREEN INGERSOLL
 Job cpu time:       0 days  2 hours 54 minutes 27.8 seconds.
 Elapsed time:       0 days  0 hours 17 minutes 57.7 seconds.
 File lengths (MBytes):  RWF=   1380 Int=      0 D2E=      0 Chk=     48 Scr=      8
 Normal termination of Gaussian 16 at Mon Jul 13 14:28:53 2020.
