 Entering Gaussian System, Link 0=g16
 Initial command:
 /gpfs/loomis/apps/avx/software/Gaussian/16-C.01_AVX/g16/l1.exe "/home/fas/batista/pev4/scratch60/gauss-scratch/Gau-233026.inp" -scrdir="/home/fas/batista/pev4/scratch60/gauss-scratch/"
 Entering Link 1 = /gpfs/loomis/apps/avx/software/Gaussian/16-C.01_AVX/g16/l1.exe PID=    233027.
  
 Copyright (c) 1988-2019, Gaussian, Inc.  All Rights Reserved.
  
 This is part of the Gaussian(R) 16 program.  It is based on
 the Gaussian(R) 09 system (copyright 2009, Gaussian, Inc.),
 the Gaussian(R) 03 system (copyright 2003, Gaussian, Inc.),
 the Gaussian(R) 98 system (copyright 1998, Gaussian, Inc.),
 the Gaussian(R) 94 system (copyright 1995, Gaussian, Inc.),
 the Gaussian 92(TM) system (copyright 1992, Gaussian, Inc.),
 the Gaussian 90(TM) system (copyright 1990, Gaussian, Inc.),
 the Gaussian 88(TM) system (copyright 1988, Gaussian, Inc.),
 the Gaussian 86(TM) system (copyright 1986, Carnegie Mellon
 University), and the Gaussian 82(TM) system (copyright 1983,
 Carnegie Mellon University). Gaussian is a federally registered
 trademark of Gaussian, Inc.
  
 This software contains proprietary and confidential information,
 including trade secrets, belonging to Gaussian, Inc.
  
 This software is provided under written license and may be
 used, copied, transmitted, or stored only in accord with that
 written license.
  
 The following legend is applicable only to US Government
 contracts under FAR:
  
                    RESTRICTED RIGHTS LEGEND
  
 Use, reproduction and disclosure by the US Government is
 subject to restrictions as set forth in subparagraphs (a)
 and (c) of the Commercial Computer Software - Restricted
 Rights clause in FAR 52.227-19.
  
 Gaussian, Inc.
 340 Quinnipiac St., Bldg. 40, Wallingford CT 06492
  
  
 ---------------------------------------------------------------
 Warning -- This program may not be used in any manner that
 competes with the business of Gaussian, Inc. or will provide
 assistance to any competitor of Gaussian, Inc.  The licensee
 of this program is prohibited from giving any competitor of
 Gaussian, Inc. access to this program.  By using this program,
 the user acknowledges that Gaussian, Inc. is engaged in the
 business of creating and licensing software in the field of
 computational chemistry and represents and warrants to the
 licensee that it is not a competitor of Gaussian, Inc. and that
 it will not use this program in any manner prohibited above.
 ---------------------------------------------------------------
  

 Cite this work as:
 Gaussian 16, Revision C.01,
 M. J. Frisch, G. W. Trucks, H. B. Schlegel, G. E. Scuseria, 
 M. A. Robb, J. R. Cheeseman, G. Scalmani, V. Barone, 
 G. A. Petersson, H. Nakatsuji, X. Li, M. Caricato, A. V. Marenich, 
 J. Bloino, B. G. Janesko, R. Gomperts, B. Mennucci, H. P. Hratchian, 
 J. V. Ortiz, A. F. Izmaylov, J. L. Sonnenberg, D. Williams-Young, 
 F. Ding, F. Lipparini, F. Egidi, J. Goings, B. Peng, A. Petrone, 
 T. Henderson, D. Ranasinghe, V. G. Zakrzewski, J. Gao, N. Rega, 
 G. Zheng, W. Liang, M. Hada, M. Ehara, K. Toyota, R. Fukuda, 
 J. Hasegawa, M. Ishida, T. Nakajima, Y. Honda, O. Kitao, H. Nakai, 
 T. Vreven, K. Throssell, J. A. Montgomery, Jr., J. E. Peralta, 
 F. Ogliaro, M. J. Bearpark, J. J. Heyd, E. N. Brothers, K. N. Kudin, 
 V. N. Staroverov, T. A. Keith, R. Kobayashi, J. Normand, 
 K. Raghavachari, A. P. Rendell, J. C. Burant, S. S. Iyengar, 
 J. Tomasi, M. Cossi, J. M. Millam, M. Klene, C. Adamo, R. Cammi, 
 J. W. Ochterski, R. L. Martin, K. Morokuma, O. Farkas, 
 J. B. Foresman, and D. J. Fox, Gaussian, Inc., Wallingford CT, 2019.
 
 ******************************************
 Gaussian 16:  ES64L-G16RevC.01  3-Jul-2019
                13-Jul-2020 
 ******************************************
 %chk=config_11_3.chk
 %mem=58GB
 %nprocshared=10
 Will use up to   10 processors via shared memory.
 ----------------------------------------------------------------------
 #p opt=addgic freq td wb97xd/cc-pvdz nosymm int=ultrafine scrf=(solven
 t=CarbonTetraChloride)
 ----------------------------------------------------------------------
 1/18=20,19=15,26=6,38=1,145=903/1,3;
 2/9=110,12=2,15=1,17=6,18=5,40=1/2;
 3/5=16,11=9,25=1,30=1,70=2201,71=1,72=11,74=-58,75=-5/1,2,3,8;
 4//1;
 5/5=2,38=5,53=11/2;
 8/6=1,10=1/1;
 9/15=2,42=1,70=2/14;
 10/5=4,31=1/2;
 6/7=2,8=2,9=2,10=2/1;
 7/12=6,13=5,30=1/1,2,3,16;
 1/18=20,19=15,26=6,145=903/3(2);
 2/9=110,15=1/2;
 99//99;
 2/9=110,15=1/2;
 3/5=16,11=9,25=1,30=1,70=2205,71=1,72=11,74=-58,75=-5/1,2,3,8;
 4/5=5,16=3,69=1/1;
 5/5=2,38=5,53=11/2;
 8/6=1,10=1/1;
 9/15=2,42=1,49=4,70=2/14;
 10/5=4,31=1/2;
 7/12=6,13=5,30=1/1,2,3,16;
 1/18=20,19=15,26=6,145=903/3(-8);
 2/9=110,15=1/2;
 6/7=2,8=2,9=2,10=2/1;
 99/9=10/99;
 Leave Link    1 at Mon Jul 13 18:46:55 2020, MaxMem=  7784628224 cpu:               5.2 elap:               0.6
 (Enter /gpfs/loomis/apps/avx/software/Gaussian/16-C.01_AVX/g16/l101.exe)
 ------------------------------------------------
 NM 2D-scan of HBT TD-WB97XD pVDZ in CTC Relaxed.
 ------------------------------------------------
 Symbolic Z-matrix:
 Charge =  0 Multiplicity = 1
 C                     1.73566  -3.26522  -0.00002 
 C                     1.00939  -2.07067  -0.00002 
 C                     1.6848   -0.82579  -0.00002 
 C                     3.07932  -0.76322  -0.00002 
 C                     3.79331  -1.9563   -0.00002 
 C                     3.13333  -3.19277  -0.00002 
 H                     1.22905  -4.23311  -0.00003 
 H                     3.58079   0.20677  -0.00002 
 H                     4.88535  -1.92585  -0.00002 
 H                     3.71564  -4.11632  -0.00003 
 N                     0.83541   0.25356  -0.00002 
 S                    -0.74591  -1.8228   -0.00002 
 C                    -1.42472   1.0111    0. 
 C                    -2.80293   0.87997  -0.00001 
 C                    -0.84378   2.39519   0.00003 
 C                    -3.64825   2.02636   0.00002 
 H                    -3.264    -0.11323  -0.00004 
 C                    -1.74485   3.5017    0.00006 
 C                    -3.12712   3.32218   0.00006 
 H                    -4.72948   1.8746    0.00002 
 H                    -1.28089   4.49113   0.00009 
 H                    -3.79745   4.18329   0.00009 
 C                    -0.48182  -0.07292  -0.00001 
 O                     0.40065   2.59041   0.00003 
 H                     1.04347   1.04108  -0.00001 
 
 Initializing the GIC definitions file.
 Number of initial coordinates =   134
 Number of input entries/lines =    52
 Number of additional coordinates =     2
 Number of removed coordinates =     0
 Number of frozen coordinates =     2
 Number of final active and frozen coordinates =   136
 ITRead=  0  0  0  0  0  0  0  0  0  0  0  0  0  0  0  0  0  0  0  0
 ITRead=  0  0  0  0  0
 MicOpt= -1 -1 -1 -1 -1 -1 -1 -1 -1 -1 -1 -1 -1 -1 -1 -1 -1 -1 -1 -1
 MicOpt= -1 -1 -1 -1 -1
 NAtoms=     25 NQM=       25 NQMF=       0 NMMI=      0 NMMIF=      0
                NMic=       0 NMicF=      0.
                    Isotopes and Nuclear Properties:
 (Nuclear quadrupole moments (NQMom) in fm**2, nuclear magnetic moments (NMagM)
  in nuclear magnetons)

  Atom         1           2           3           4           5           6           7           8           9          10
 IAtWgt=          12          12          12          12          12          12           1           1           1           1
 AtmWgt=  12.0000000  12.0000000  12.0000000  12.0000000  12.0000000  12.0000000   1.0078250   1.0078250   1.0078250   1.0078250
 NucSpn=           0           0           0           0           0           0           1           1           1           1
 AtZEff=  -0.0000000  -0.0000000  -0.0000000  -0.0000000  -0.0000000  -0.0000000  -0.0000000  -0.0000000  -0.0000000  -0.0000000
 NQMom=    0.0000000   0.0000000   0.0000000   0.0000000   0.0000000   0.0000000   0.0000000   0.0000000   0.0000000   0.0000000
 NMagM=    0.0000000   0.0000000   0.0000000   0.0000000   0.0000000   0.0000000   2.7928460   2.7928460   2.7928460   2.7928460
 AtZNuc=   6.0000000   6.0000000   6.0000000   6.0000000   6.0000000   6.0000000   1.0000000   1.0000000   1.0000000   1.0000000

  Atom        11          12          13          14          15          16          17          18          19          20
 IAtWgt=          14          32          12          12          12          12           1          12          12           1
 AtmWgt=  14.0030740  31.9720718  12.0000000  12.0000000  12.0000000  12.0000000   1.0078250  12.0000000  12.0000000   1.0078250
 NucSpn=           2           0           0           0           0           0           1           0           0           1
 AtZEff=  -0.0000000  -0.0000000  -0.0000000  -0.0000000  -0.0000000  -0.0000000  -0.0000000  -0.0000000  -0.0000000  -0.0000000
 NQMom=    2.0440000   0.0000000   0.0000000   0.0000000   0.0000000   0.0000000   0.0000000   0.0000000   0.0000000   0.0000000
 NMagM=    0.4037610   0.0000000   0.0000000   0.0000000   0.0000000   0.0000000   2.7928460   0.0000000   0.0000000   2.7928460
 AtZNuc=   7.0000000  16.0000000   6.0000000   6.0000000   6.0000000   6.0000000   1.0000000   6.0000000   6.0000000   1.0000000

  Atom        21          22          23          24          25
 IAtWgt=           1           1          12          16           1
 AtmWgt=   1.0078250   1.0078250  12.0000000  15.9949146   1.0078250
 NucSpn=           1           1           0           0           1
 AtZEff=  -0.0000000  -0.0000000  -0.0000000  -0.0000000  -0.0000000
 NQMom=    0.0000000   0.0000000   0.0000000   0.0000000   0.0000000
 NMagM=    2.7928460   2.7928460   0.0000000   0.0000000   2.7928460
 AtZNuc=   1.0000000   1.0000000   6.0000000   8.0000000   1.0000000
 Leave Link  101 at Mon Jul 13 18:46:58 2020, MaxMem=  7784628224 cpu:              31.5 elap:               3.2
 (Enter /gpfs/loomis/apps/avx/software/Gaussian/16-C.01_AVX/g16/l103.exe)

 GradGradGradGradGradGradGradGradGradGradGradGradGradGradGradGradGradGrad
 Berny optimization.
 Initialization pass.
                           ----------------------------
                           !    Initial Parameters    !
                           ! (Angstroms and Degrees)  !
 --------------------------                            --------------------------
 ! Name  Definition              Value          Derivative Info.                !
 --------------------------------------------------------------------------------
 ! R1    R(1,2)                  1.398          estimate D2E/DX2                !
 ! R2    R(1,6)                  1.3995         estimate D2E/DX2                !
 ! R3    R(1,7)                  1.0925         estimate D2E/DX2                !
 ! R4    R(2,3)                  1.4163         estimate D2E/DX2                !
 ! R5    R(2,12)                 1.7727         estimate D2E/DX2                !
 ! R6    R(3,4)                  1.3959         estimate D2E/DX2                !
 ! R7    R(3,11)                 1.3735         estimate D2E/DX2                !
 ! R8    R(4,5)                  1.3904         estimate D2E/DX2                !
 ! R9    R(4,8)                  1.0919         estimate D2E/DX2                !
 ! R10   R(5,6)                  1.4016         estimate D2E/DX2                !
 ! R11   R(5,9)                  1.0925         estimate D2E/DX2                !
 ! R12   R(6,10)                 1.0918         estimate D2E/DX2                !
 ! R13   R(11,23)                1.3571         estimate D2E/DX2                !
 ! R14   R(11,25)                0.8145         estimate D2E/DX2                !
 ! R15   R(12,23)                1.7697         estimate D2E/DX2                !
 ! R16   R(13,14)                1.3844         estimate D2E/DX2                !
 ! R17   R(13,15)                1.5011         estimate D2E/DX2                !
 ! R18   R(13,23)                1.4367         estimate D2E/DX2                !
 ! R19   R(14,16)                1.4244         estimate D2E/DX2                !
 ! R20   R(14,17)                1.095          estimate D2E/DX2                !
 ! R21   R(15,18)                1.427          estimate D2E/DX2                !
 ! R22   R(15,24)                1.2596         estimate D2E/DX2                !
 ! R23   R(16,19)                1.3967         estimate D2E/DX2                !
 ! R24   R(16,20)                1.0918         estimate D2E/DX2                !
 ! R25   R(18,19)                1.3939         estimate D2E/DX2                !
 ! R26   R(18,21)                1.0928         estimate D2E/DX2                !
 ! R27   R(19,22)                1.0913         estimate D2E/DX2                !
 ! A1    A(2,1,6)              118.3317         estimate D2E/DX2                !
 ! A2    A(2,1,7)              121.0721         estimate D2E/DX2                !
 ! A3    A(6,1,7)              120.5962         estimate D2E/DX2                !
 ! A4    A(1,2,3)              120.2188         estimate D2E/DX2                !
 ! A5    A(1,2,12)             129.3368         estimate D2E/DX2                !
 ! A6    A(3,2,12)             110.4445         estimate D2E/DX2                !
 ! A7    A(2,3,4)              121.0514         estimate D2E/DX2                !
 ! A8    A(2,3,11)             113.3169         estimate D2E/DX2                !
 ! A9    A(4,3,11)             125.6317         estimate D2E/DX2                !
 ! A10   A(3,4,5)              118.3286         estimate D2E/DX2                !
 ! A11   A(3,4,8)              119.9072         estimate D2E/DX2                !
 ! A12   A(5,4,8)              121.7642         estimate D2E/DX2                !
 ! A13   A(4,5,6)              121.0108         estimate D2E/DX2                !
 ! A14   A(4,5,9)              119.3003         estimate D2E/DX2                !
 ! A15   A(6,5,9)              119.6889         estimate D2E/DX2                !
 ! A16   A(1,6,5)              121.0588         estimate D2E/DX2                !
 ! A17   A(1,6,10)             119.2647         estimate D2E/DX2                !
 ! A18   A(5,6,10)             119.6765         estimate D2E/DX2                !
 ! A19   A(3,11,23)            114.2803         estimate D2E/DX2                !
 ! A20   A(3,11,25)            126.9996         estimate D2E/DX2                !
 ! A21   A(23,11,25)           118.7202         estimate D2E/DX2                !
 ! A22   A(2,12,23)             89.4556         estimate D2E/DX2                !
 ! A23   A(14,13,15)           118.2041         estimate D2E/DX2                !
 ! A24   A(14,13,23)           125.5822         estimate D2E/DX2                !
 ! A25   A(15,13,23)           116.2137         estimate D2E/DX2                !
 ! A26   A(13,14,16)           120.9692         estimate D2E/DX2                !
 ! A27   A(13,14,17)           120.337          estimate D2E/DX2                !
 ! A28   A(16,14,17)           118.6938         estimate D2E/DX2                !
 ! A29   A(13,15,18)           118.0738         estimate D2E/DX2                !
 ! A30   A(13,15,24)           121.685          estimate D2E/DX2                !
 ! A31   A(18,15,24)           120.2412         estimate D2E/DX2                !
 ! A32   A(14,16,19)           121.6878         estimate D2E/DX2                !
 ! A33   A(14,16,20)           118.4142         estimate D2E/DX2                !
 ! A34   A(19,16,20)           119.898          estimate D2E/DX2                !
 ! A35   A(15,18,19)           121.7576         estimate D2E/DX2                !
 ! A36   A(15,18,21)           115.7203         estimate D2E/DX2                !
 ! A37   A(19,18,21)           122.5222         estimate D2E/DX2                !
 ! A38   A(16,19,18)           119.3075         estimate D2E/DX2                !
 ! A39   A(16,19,22)           120.1931         estimate D2E/DX2                !
 ! A40   A(18,19,22)           120.4994         estimate D2E/DX2                !
 ! A41   A(11,23,12)           112.5028         estimate D2E/DX2                !
 ! A42   A(11,23,13)           117.0966         estimate D2E/DX2                !
 ! A43   A(12,23,13)           130.4006         estimate D2E/DX2                !
 ! D1    D(6,1,2,3)              0.0            estimate D2E/DX2                !
 ! D2    D(6,1,2,12)          -179.9999         estimate D2E/DX2                !
 ! D3    D(7,1,2,3)            179.9999         estimate D2E/DX2                !
 ! D4    D(7,1,2,12)             0.0            estimate D2E/DX2                !
 ! D5    D(2,1,6,5)              0.0            estimate D2E/DX2                !
 ! D6    D(2,1,6,10)           180.0            estimate D2E/DX2                !
 ! D7    D(7,1,6,5)           -179.9999         estimate D2E/DX2                !
 ! D8    D(7,1,6,10)             0.0001         estimate D2E/DX2                !
 ! D9    D(1,2,3,4)              0.0            estimate D2E/DX2                !
 ! D10   D(1,2,3,11)           179.9999         estimate D2E/DX2                !
 ! D11   D(12,2,3,4)           179.9999         estimate D2E/DX2                !
 ! D12   D(12,2,3,11)           -0.0001         estimate D2E/DX2                !
 ! D13   D(1,2,12,23)          180.0            estimate D2E/DX2                !
 ! D14   D(3,2,12,23)            0.0            estimate D2E/DX2                !
 ! D15   D(2,3,4,5)              0.0            estimate D2E/DX2                !
 ! D16   D(2,3,4,8)           -180.0            estimate D2E/DX2                !
 ! D17   D(11,3,4,5)          -179.9999         estimate D2E/DX2                !
 ! D18   D(11,3,4,8)             0.0001         estimate D2E/DX2                !
 ! D19   D(2,3,11,23)            0.0002         estimate D2E/DX2                !
 ! D20   D(2,3,11,25)          179.9995         estimate D2E/DX2                !
 ! D21   D(4,3,11,23)         -179.9999         estimate D2E/DX2                !
 ! D22   D(4,3,11,25)           -0.0005         estimate D2E/DX2                !
 ! D23   D(3,4,5,6)              0.0            estimate D2E/DX2                !
 ! D24   D(3,4,5,9)           -180.0            estimate D2E/DX2                !
 ! D25   D(8,4,5,6)           -180.0            estimate D2E/DX2                !
 ! D26   D(8,4,5,9)              0.0            estimate D2E/DX2                !
 ! D27   D(4,5,6,1)              0.0            estimate D2E/DX2                !
 ! D28   D(4,5,6,10)          -180.0            estimate D2E/DX2                !
 ! D29   D(9,5,6,1)            180.0            estimate D2E/DX2                !
 ! D30   D(9,5,6,10)             0.0            estimate D2E/DX2                !
 ! D31   D(3,11,23,12)          -0.0002         estimate D2E/DX2                !
 ! D32   D(3,11,23,13)         179.9995         estimate D2E/DX2                !
 ! D33   D(25,11,23,12)       -179.9995         estimate D2E/DX2                !
 ! D34   D(25,11,23,13)          0.0001         estimate D2E/DX2                !
 ! D35   D(2,12,23,11)           0.0001         estimate D2E/DX2                !
 ! D36   D(2,12,23,13)        -179.9995         estimate D2E/DX2                !
 ! D37   D(15,13,14,16)         -0.0007         estimate D2E/DX2                !
 ! D38   D(15,13,14,17)        179.9995         estimate D2E/DX2                !
 ! D39   D(23,13,14,16)        179.9992         estimate D2E/DX2                !
 ! D40   D(23,13,14,17)         -0.0006         estimate D2E/DX2                !
 ! D41   D(14,13,15,18)          0.0007         estimate D2E/DX2                !
 ! D42   D(14,13,15,24)       -179.9993         estimate D2E/DX2                !
 ! D43   D(23,13,15,18)       -179.9992         estimate D2E/DX2                !
 ! D44   D(23,13,15,24)          0.0008         estimate D2E/DX2                !
 ! D45   D(14,13,23,11)        179.9992         estimate D2E/DX2                !
 ! D46   D(14,13,23,12)         -0.0013         estimate D2E/DX2                !
 ! D47   D(15,13,23,11)         -0.0009         estimate D2E/DX2                !
 ! D48   D(15,13,23,12)        179.9987         estimate D2E/DX2                !
 ! D49   D(13,14,16,19)          0.0002         estimate D2E/DX2                !
 ! D50   D(13,14,16,20)       -179.9997         estimate D2E/DX2                !
 ! D51   D(17,14,16,19)        180.0            estimate D2E/DX2                !
 ! D52   D(17,14,16,20)          0.0001         estimate D2E/DX2                !
 ! D53   D(13,15,18,19)         -0.0002         estimate D2E/DX2                !
 ! D54   D(13,15,18,21)        179.9997         estimate D2E/DX2                !
 ! D55   D(24,15,18,19)        179.9998         estimate D2E/DX2                !
 ! D56   D(24,15,18,21)         -0.0003         estimate D2E/DX2                !
 ! D57   D(14,16,19,18)          0.0004         estimate D2E/DX2                !
 ! D58   D(14,16,19,22)       -179.9998         estimate D2E/DX2                !
 ! D59   D(20,16,19,18)       -179.9997         estimate D2E/DX2                !
 ! D60   D(20,16,19,22)          0.0001         estimate D2E/DX2                !
 ! D61   D(15,18,19,16)         -0.0003         estimate D2E/DX2                !
 ! D62   D(15,18,19,22)        179.9998         estimate D2E/DX2                !
 ! D63   D(21,18,19,16)        179.9997         estimate D2E/DX2                !
 ! D64   D(21,18,19,22)         -0.0001         estimate D2E/DX2                !
 ! Qtot  GIC-1                  50.0            Frozen                          !
 ! Ptot  GIC-2                 -100.0           Frozen                          !
 --------------------------------------------------------------------------------
 NOTE: GIC-type coordinates are in arbitrary units.
 Trust Radius=3.00D-01 FncErr=5.00D-06 GrdErr=5.00D-06 EigMax=2.50D+02 EigMin=1.00D-04
 Number of steps in this run=    146 maximum allowed number of steps=    150.
 GradGradGradGradGradGradGradGradGradGradGradGradGradGradGradGradGradGrad

 Leave Link  103 at Mon Jul 13 18:46:58 2020, MaxMem=  7784628224 cpu:               0.3 elap:               0.0
 (Enter /gpfs/loomis/apps/avx/software/Gaussian/16-C.01_AVX/g16/l202.exe)
                          Input orientation:                          
 ---------------------------------------------------------------------
 Center     Atomic      Atomic             Coordinates (Angstroms)
 Number     Number       Type             X           Y           Z
 ---------------------------------------------------------------------
      1          6           0        1.735665   -3.265225   -0.000024
      2          6           0        1.009390   -2.070670   -0.000021
      3          6           0        1.684803   -0.825791   -0.000018
      4          6           0        3.079323   -0.763218   -0.000019
      5          6           0        3.793306   -1.956301   -0.000022
      6          6           0        3.133328   -3.192774   -0.000025
      7          1           0        1.229046   -4.233112   -0.000025
      8          1           0        3.580789    0.206775   -0.000017
      9          1           0        4.885350   -1.925845   -0.000022
     10          1           0        3.715637   -4.116317   -0.000027
     11          7           0        0.835409    0.253562   -0.000017
     12         16           0       -0.745906   -1.822800   -0.000018
     13          6           0       -1.424718    1.011102    0.000000
     14          6           0       -2.802926    0.879973   -0.000011
     15          6           0       -0.843781    2.395185    0.000031
     16          6           0       -3.648248    2.026365    0.000022
     17          1           0       -3.263996   -0.113228   -0.000042
     18          6           0       -1.744850    3.501696    0.000063
     19          6           0       -3.127122    3.322182    0.000062
     20          1           0       -4.729479    1.874600    0.000016
     21          1           0       -1.280887    4.491131    0.000089
     22          1           0       -3.797447    4.183286    0.000090
     23          6           0       -0.481819   -0.072922   -0.000014
     24          8           0        0.400648    2.590412    0.000028
     25          1           0        1.043473    1.041080   -0.000009
 ---------------------------------------------------------------------
                    Distance matrix (angstroms):
                    1          2          3          4          5
     1  C    0.000000
     2  C    1.398012   0.000000
     3  C    2.439964   1.416300   0.000000
     4  C    2.839975   2.448275   1.395922   0.000000
     5  C    2.438682   2.786264   2.392454   1.390403   0.000000
     6  C    1.399540   2.402130   2.775037   2.430156   1.401584
     7  H    1.092460   2.173570   3.437667   3.932390   3.429183
     8  H    3.931827   3.434945   2.158924   1.091950   2.173490
     9  H    3.422639   3.878665   3.384320   2.147892   1.092469
    10  H    2.155144   3.392409   3.866762   3.412942   2.161412
    11  N    3.632124   2.330734   1.373490   2.463532   3.692242
    12  S    2.870328   1.772711   2.627237   3.969268   4.541175
    13  C    5.317423   3.927111   3.611551   4.840929   6.002770
    14  C    6.146663   4.820793   4.800973   6.107448   7.180161
    15  C    6.220433   4.835091   4.094927   5.036492   6.359089
    16  C    7.549002   6.203167   6.047828   7.282992   8.440281
    17  H    5.910304   4.700363   4.999836   6.376533   7.293999
    18  C    7.609547   6.215875   5.521745   6.439109   7.775661
    19  C    8.187834   6.796587   6.352977   7.430374   8.703718
    20  H    8.259291   6.964178   6.959536   8.242298   9.344178
    21  H    8.322298   6.950007   6.088101   6.827855   8.204682
    22  H    9.278774   7.887816   7.426030   8.471001   9.762892
    23  C    3.886905   2.492930   2.293701   3.627428   4.671596
    24  O    6.005893   4.700664   3.649588   4.292100   5.672981
    25  H    4.361581   3.111936   1.973958   2.720326   4.067662
                    6          7          8          9         10
     6  C    0.000000
     7  H    2.169929   0.000000
     8  H    3.428871   5.024270   0.000000
     9  H    2.162103   4.323429   2.499990   0.000000
    10  H    1.091795   2.489332   4.325195   2.483223   0.000000
    11  N    4.142181   4.503909   2.745779   4.599113   5.233694
    12  S    4.114035   3.116094   4.779065   5.632199   5.016531
    13  C    6.200673   5.877435   5.069718   6.960073   7.260418
    14  C    7.199053   6.511561   6.419113   8.184266   8.213073
    15  C    6.858767   6.944850   4.936189   7.175950   7.949085
    16  C    8.557405   7.935303   7.454521   9.404374   9.589543
    17  H    7.099955   6.095972   6.852261   8.348498   8.046117
    18  C    8.283269   8.286816   6.262502   8.568416   9.372889
    19  C    9.035369   8.721162   7.396069   9.578179  10.107157
    20  H    9.354251   8.532770   8.475978  10.338681  10.354278
    21  H    8.861585   9.078115   6.480093   8.899442   9.952558
    22  H   10.121359   9.803132   8.381587  10.616612  11.195081
    23  C    4.775224   4.498248   4.072225   5.678013   5.828179
    24  O    6.396309   6.873625   3.974295   6.364678   7.481267
    25  H    4.721547   5.277455   2.670962   4.854139   5.808546
                   11         12         13         14         15
    11  N    0.000000
    12  S    2.609949   0.000000
    13  C    2.383703   2.914066   0.000000
    14  C    3.691865   3.396514   1.384432   0.000000
    15  C    2.721439   4.219121   1.501058   2.476715   0.000000
    16  C    4.821411   4.820752   2.444349   1.424354   2.828615
    17  H    4.115781   3.043585   2.155704   1.095004   3.485625
    18  C    4.148266   5.417393   2.511085   2.827182   1.426987
    19  C    5.011794   5.669306   2.870414   2.463634   2.464340
    20  H    5.796183   5.435037   3.415710   2.168154   3.920416
    21  H    4.736634   6.336555   3.483000   3.918809   2.141039
    22  H    6.075038   6.736837   3.961388   3.449776   3.452745
    23  C    1.357085   1.769693   1.436721   2.509093   2.494508
    24  O    2.376948   4.559717   2.413749   3.631596   1.259650
    25  H    0.814540   3.376934   2.468373   3.849771   2.322785
                   16         17         18         19         20
    16  C    0.000000
    17  H    2.173823   0.000000
    18  C    2.408221   3.921158   0.000000
    19  C    1.396680   3.438136   1.393880   0.000000
    20  H    1.091831   2.469636   3.399331   2.159408   0.000000
    21  H    3.417523   5.013266   1.092814   2.185183   4.328859
    22  H    2.162076   4.329504   2.162804   1.091254   2.489722
    23  C    3.799115   2.782469   3.791193   4.303994   4.672843
    24  O    4.087996   4.554041   2.331009   3.602867   5.179826
    25  H    4.794062   4.459452   3.718787   4.753661   5.832815
                   21         22         23         24         25
    21  H    0.000000
    22  H    2.535318   0.000000
    23  C    4.633475   5.395248   0.000000
    24  O    2.537774   4.490128   2.805725   0.000000
    25  H    4.159988   5.771305   1.888786   1.677395   0.000000
 Symmetry turned off by external request.
 Stoichiometry    C13H9NOS
 Framework group  C1[X(C13H9NOS)]
 Deg. of freedom    69
 Full point group                 C1      NOp   1
 Rotational constants (GHZ):           1.3637360           0.2853760           0.2359922
 Leave Link  202 at Mon Jul 13 18:46:58 2020, MaxMem=  7784628224 cpu:               0.1 elap:               0.0
 (Enter /gpfs/loomis/apps/avx/software/Gaussian/16-C.01_AVX/g16/l301.exe)
 Standard basis: CC-pVDZ (5D, 7F)
 Ernie: Thresh=  0.10000D-02 Tol=  0.10000D-05 Strict=F.
 Ernie:  40 primitive shells out of 425 were deleted.
   273 basis functions,   629 primitive gaussians,   289 cartesian basis functions
    59 alpha electrons       59 beta electrons
       nuclear repulsion energy      1097.5268964413 Hartrees.
 IExCor= 4639 DFT=T Ex+Corr=wB97XD ExCW=0 ScaHFX=  1.000000
 ScaDFX=  1.000000  1.000000  1.000000  1.000000 ScalE2=  1.000000  1.000000
 IRadAn=      5 IRanWt=     -1 IRanGd=            0 ICorTp=0 IEmpDi=121
 HFx  wShort=  0.000000 wLong=  0.200000 cFull=  0.222036 cShort=  0.000000 cLong=  0.777964
 DFx  wShort=  0.000000 wLong=  0.200000 cFull=  0.000000 cShort=  0.000000 cLong=  1.000000
 NAtoms=   25 NActive=   25 NUniq=   25 SFac= 1.00D+00 NAtFMM=   60 NAOKFM=F Big=F
 Integral buffers will be    131072 words long.
 Raffenetti 1 integral format.
 Two-electron integral symmetry is turned off.
 R6Disp:  Grimme-D2 Dispersion energy=       -0.0141389495 Hartrees.
 Nuclear repulsion after empirical dispersion term =     1097.5127574918 Hartrees.
 ------------------------------------------------------------------------------
 Polarizable Continuum Model (PCM)
 =================================
 Model                : PCM.
 Atomic radii         : UFF (Universal Force Field).
 Polarization charges : Total charges.
 Charge compensation  : None.
 Solution method      : On-the-fly selection.
 Cavity type          : Scaled VdW (van der Waals Surface) (Alpha=1.100).
 Cavity algorithm     : GePol (No added spheres)
                        Default sphere list used, NSphG=   25.
                        Lebedev-Laikov grids with approx.  5.0 points / Ang**2.
                        Smoothing algorithm: York/Karplus (Gamma=1.0000).
                        Polarization charges: spherical gaussians, with
                                              point-specific exponents (IZeta= 3).
                        Self-potential: point-specific (ISelfS= 7).
                        Self-field    : sphere-specific E.n sum rule (ISelfD= 2).
 1st derivatives      : Analytical E(r).r(x)/FMM algorithm (CHGder, D1EAlg=3).
                        Cavity 1st derivative terms included.
 Solvent              : CarbonTetraChloride, Eps=   2.228000 Eps(inf)=   2.131892
 ------------------------------------------------------------------------------
 GePol: Number of generator spheres                  =      25
 GePol: Total number of spheres                      =      25
 GePol: Number of exposed spheres                    =      25 (100.00%)
 GePol: Number of points                             =    2190
 GePol: Average weight of points                     =       0.13
 GePol: Minimum weight of points                     =   0.87D-11
 GePol: Maximum weight of points                     =    0.20577
 GePol: Number of points with low weight             =     131
 GePol: Fraction of low-weight points (<1% of avg)   =       5.98%
 GePol: Cavity surface area                          =    275.318 Ang**2
 GePol: Cavity volume                                =    294.174 Ang**3
 Leave Link  301 at Mon Jul 13 18:46:58 2020, MaxMem=  7784628224 cpu:               0.8 elap:               0.1
 (Enter /gpfs/loomis/apps/avx/software/Gaussian/16-C.01_AVX/g16/l302.exe)
 NPDir=0 NMtPBC=     1 NCelOv=     1 NCel=       1 NClECP=     1 NCelD=      1
         NCelK=      1 NCelE2=     1 NClLst=     1 CellRange=     0.0.
 One-electron integrals computed using PRISM.
 NBasis=   273 RedAO= T EigKep=  3.05D-04  NBF=   273
 NBsUse=   273 1.00D-06 EigRej= -1.00D+00 NBFU=   273
 Precomputing XC quadrature grid using
 IXCGrd= 4 IRadAn=           5 IRanWt=          -1 IRanGd=           0 AccXCQ= 0.00D+00.
 Generated NRdTot=       0 NPtTot=           0 NUsed=           0 NTot=          32
 NSgBfM=   288   288   288   288   288 MxSgAt=    25 MxSgA2=    25.
 Leave Link  302 at Mon Jul 13 18:46:58 2020, MaxMem=  7784628224 cpu:               4.4 elap:               0.5
 (Enter /gpfs/loomis/apps/avx/software/Gaussian/16-C.01_AVX/g16/l303.exe)
 DipDrv:  MaxL=1.
 Leave Link  303 at Mon Jul 13 18:46:59 2020, MaxMem=  7784628224 cpu:               0.4 elap:               0.1
 (Enter /gpfs/loomis/apps/avx/software/Gaussian/16-C.01_AVX/g16/l308.exe)
 Leave Link  308 at Mon Jul 13 18:46:59 2020, MaxMem=  7784628224 cpu:               0.5 elap:               0.1
 (Enter /gpfs/loomis/apps/avx/software/Gaussian/16-C.01_AVX/g16/l401.exe)
 ExpMin= 1.22D-01 ExpMax= 1.11D+05 ExpMxC= 1.07D+03 IAcc=3 IRadAn=         5 AccDes= 0.00D+00
 Harris functional with IExCor= 4639 and IRadAn=       5 diagonalized for initial guess.
 HarFok:  IExCor= 4639 AccDes= 0.00D+00 IRadAn=         5 IDoV= 1 UseB2=F ITyADJ=14
 ICtDFT=  3500011 ScaDFX=  1.000000  1.000000  1.000000  1.000000
 FoFCou: FMM=F IPFlag=           0 FMFlag=      100000 FMFlg1=           0
         NFxFlg=           0 DoJE=T BraDBF=F KetDBF=T FulRan=T
         wScrn=  0.000000 ICntrl=       500 IOpCl=  0 I1Cent=   200000004 NGrid=           0
         NMat0=    1 NMatS0=      1 NMatT0=    0 NMatD0=    1 NMtDS0=    0 NMtDT0=    0
 Symmetry not used in FoFCou.
 Harris En= -994.385863817788    
 JPrj=0 DoOrth=F DoCkMO=F.
 Leave Link  401 at Mon Jul 13 18:47:00 2020, MaxMem=  7784628224 cpu:              13.3 elap:               1.4
 (Enter /gpfs/loomis/apps/avx/software/Gaussian/16-C.01_AVX/g16/l502.exe)
 Two-electron integral symmetry not used.
 Closed shell SCF:
 Using DIIS extrapolation, IDIIS=  1040.
 NGot=  7784628224 LenX=  7784455381 LenY=  7784371419
 Requested convergence on RMS density matrix=1.00D-08 within 128 cycles.
 Requested convergence on MAX density matrix=1.00D-06.
 Requested convergence on             energy=1.00D-06.
 No special actions if energy rises.
 Fock matrices will be formed incrementally for  20 cycles.

 Cycle   1  Pass 1  IDiag  1:
 FoFJK:  IHMeth= 1 ICntrl=       0 DoSepK=T KAlg= 0 I1Cent=           0 FoldK=F
 IRaf=         1 NMat=       1 IRICut=       1 DoRegI=T DoRafI=F ISym2E= 0 IDoP0=0 IntGTp=1.
 FoFCou: FMM=F IPFlag=           0 FMFlag=      100000 FMFlg1=           0
         NFxFlg=           0 DoJE=T BraDBF=F KetDBF=F FulRan=T
         wScrn=  0.000000 ICntrl=       500 IOpCl=  0 I1Cent=           0 NGrid=           0
         NMat0=    1 NMatS0=      1 NMatT0=    0 NMatD0=    1 NMtDS0=    0 NMtDT0=    0
 Symmetry not used in FoFCou.
 Inv3:  Mode=1 IEnd=    14388300.
 Iteration    1 A*A^-1 deviation from unit magnitude is 6.00D-15 for   2188.
 Iteration    1 A*A^-1 deviation from orthogonality  is 1.89D-15 for   2187   2074.
 Iteration    1 A^-1*A deviation from unit magnitude is 5.77D-15 for   2188.
 Iteration    1 A^-1*A deviation from orthogonality  is 1.44D-15 for   1628     78.
 E= -1028.48726611672    
 DIIS: error= 3.77D-02 at cycle   1 NSaved=   1.
 NSaved= 1 IEnMin= 1 EnMin= -1028.48726611672     IErMin= 1 ErrMin= 3.77D-02
 ErrMax= 3.77D-02  0.00D+00 EMaxC= 1.00D-01 BMatC= 3.95D-01 BMatP= 3.95D-01
 IDIUse=3 WtCom= 6.23D-01 WtEn= 3.77D-01
 Coeff-Com:  0.100D+01
 Coeff-En:   0.100D+01
 Coeff:      0.100D+01
 Gap=     0.304 Goal=   None    Shift=    0.000
 GapD=    0.304 DampG=1.000 DampE=0.500 DampFc=0.5000 IDamp=-1.
 Damping current iteration by 5.00D-01
 RMSDP=3.70D-03 MaxDP=2.51D-01              OVMax= 2.19D-01

 Cycle   2  Pass 1  IDiag  1:
 RMSU=  1.85D-03    CP:  9.95D-01
 E= -1028.61010922148     Delta-E=       -0.122843104761 Rises=F Damp=T
 DIIS: error= 1.26D-02 at cycle   2 NSaved=   2.
 NSaved= 2 IEnMin= 2 EnMin= -1028.61010922148     IErMin= 2 ErrMin= 1.26D-02
 ErrMax= 1.26D-02  0.00D+00 EMaxC= 1.00D-01 BMatC= 5.83D-02 BMatP= 3.95D-01
 IDIUse=3 WtCom= 8.74D-01 WtEn= 1.26D-01
 Coeff-Com: -0.281D+00 0.128D+01
 Coeff-En:   0.000D+00 0.100D+01
 Coeff:     -0.246D+00 0.125D+01
 Gap=     0.367 Goal=   None    Shift=    0.000
 RMSDP=1.18D-03 MaxDP=3.03D-02 DE=-1.23D-01 OVMax= 1.54D-01

 Cycle   3  Pass 1  IDiag  1:
 RMSU=  1.14D-03    CP:  9.92D-01  1.15D+00
 E= -1028.72190136916     Delta-E=       -0.111792147675 Rises=F Damp=F
 DIIS: error= 6.87D-03 at cycle   3 NSaved=   3.
 NSaved= 3 IEnMin= 3 EnMin= -1028.72190136916     IErMin= 3 ErrMin= 6.87D-03
 ErrMax= 6.87D-03  0.00D+00 EMaxC= 1.00D-01 BMatC= 1.55D-02 BMatP= 5.83D-02
 IDIUse=3 WtCom= 9.31D-01 WtEn= 6.87D-02
 Coeff-Com: -0.202D+00 0.497D+00 0.705D+00
 Coeff-En:   0.000D+00 0.000D+00 0.100D+01
 Coeff:     -0.188D+00 0.463D+00 0.725D+00
 Gap=     0.232 Goal=   None    Shift=    0.000
 RMSDP=5.56D-04 MaxDP=2.22D-02 DE=-1.12D-01 OVMax= 4.95D-02

 Cycle   4  Pass 1  IDiag  1:
 RMSU=  4.39D-04    CP:  9.91D-01  1.31D+00  8.52D-01
 E= -1028.73735703970     Delta-E=       -0.015455670544 Rises=F Damp=F
 DIIS: error= 2.29D-03 at cycle   4 NSaved=   4.
 NSaved= 4 IEnMin= 4 EnMin= -1028.73735703970     IErMin= 4 ErrMin= 2.29D-03
 ErrMax= 2.29D-03  0.00D+00 EMaxC= 1.00D-01 BMatC= 1.90D-03 BMatP= 1.55D-02
 IDIUse=3 WtCom= 9.77D-01 WtEn= 2.29D-02
 Coeff-Com: -0.710D-01 0.140D+00 0.340D+00 0.591D+00
 Coeff-En:   0.000D+00 0.000D+00 0.000D+00 0.100D+01
 Coeff:     -0.694D-01 0.137D+00 0.332D+00 0.601D+00
 Gap=     0.235 Goal=   None    Shift=    0.000
 RMSDP=1.75D-04 MaxDP=9.75D-03 DE=-1.55D-02 OVMax= 1.39D-02

 Cycle   5  Pass 1  IDiag  1:
 RMSU=  1.15D-04    CP:  9.91D-01  1.32D+00  9.25D-01  7.73D-01
 E= -1028.73947958542     Delta-E=       -0.002122545720 Rises=F Damp=F
 DIIS: error= 5.77D-04 at cycle   5 NSaved=   5.
 NSaved= 5 IEnMin= 5 EnMin= -1028.73947958542     IErMin= 5 ErrMin= 5.77D-04
 ErrMax= 5.77D-04  0.00D+00 EMaxC= 1.00D-01 BMatC= 6.22D-05 BMatP= 1.90D-03
 IDIUse=3 WtCom= 9.94D-01 WtEn= 5.77D-03
 Coeff-Com:  0.535D-03-0.756D-02 0.200D-01 0.149D+00 0.838D+00
 Coeff-En:   0.000D+00 0.000D+00 0.000D+00 0.000D+00 0.100D+01
 Coeff:      0.532D-03-0.751D-02 0.199D-01 0.148D+00 0.839D+00
 Gap=     0.236 Goal=   None    Shift=    0.000
 RMSDP=6.26D-05 MaxDP=2.01D-03 DE=-2.12D-03 OVMax= 7.18D-03

 Cycle   6  Pass 1  IDiag  1:
 RMSU=  3.95D-05    CP:  9.90D-01  1.33D+00  9.43D-01  8.65D-01  1.13D+00
 E= -1028.73963603113     Delta-E=       -0.000156445705 Rises=F Damp=F
 DIIS: error= 2.41D-04 at cycle   6 NSaved=   6.
 NSaved= 6 IEnMin= 6 EnMin= -1028.73963603113     IErMin= 6 ErrMin= 2.41D-04
 ErrMax= 2.41D-04  0.00D+00 EMaxC= 1.00D-01 BMatC= 1.14D-05 BMatP= 6.22D-05
 IDIUse=3 WtCom= 9.98D-01 WtEn= 2.41D-03
 Coeff-Com:  0.177D-01-0.360D-01-0.710D-01-0.914D-01 0.196D+00 0.985D+00
 Coeff-En:   0.000D+00 0.000D+00 0.000D+00 0.000D+00 0.000D+00 0.100D+01
 Coeff:      0.177D-01-0.359D-01-0.709D-01-0.912D-01 0.195D+00 0.985D+00
 Gap=     0.237 Goal=   None    Shift=    0.000
 RMSDP=4.19D-05 MaxDP=1.90D-03 DE=-1.56D-04 OVMax= 4.73D-03

 Cycle   7  Pass 1  IDiag  1:
 RMSU=  1.91D-05    CP:  9.90D-01  1.33D+00  9.57D-01  9.03D-01  1.36D+00
                    CP:  1.38D+00
 E= -1028.73968044724     Delta-E=       -0.000044416118 Rises=F Damp=F
 DIIS: error= 8.29D-05 at cycle   7 NSaved=   7.
 NSaved= 7 IEnMin= 7 EnMin= -1028.73968044724     IErMin= 7 ErrMin= 8.29D-05
 ErrMax= 8.29D-05  0.00D+00 EMaxC= 1.00D-01 BMatC= 1.96D-06 BMatP= 1.14D-05
 IDIUse=1 WtCom= 1.00D+00 WtEn= 0.00D+00
 Coeff-Com:  0.583D-02-0.109D-01-0.239D-01-0.481D-01-0.232D-01 0.336D+00
 Coeff-Com:  0.764D+00
 Coeff:      0.583D-02-0.109D-01-0.239D-01-0.481D-01-0.232D-01 0.336D+00
 Coeff:      0.764D+00
 Gap=     0.237 Goal=   None    Shift=    0.000
 RMSDP=1.28D-05 MaxDP=4.52D-04 DE=-4.44D-05 OVMax= 1.78D-03

 Cycle   8  Pass 1  IDiag  1:
 RMSU=  7.09D-06    CP:  9.90D-01  1.33D+00  9.58D-01  9.08D-01  1.40D+00
                    CP:  1.59D+00  1.20D+00
 E= -1028.73968627034     Delta-E=       -0.000005823095 Rises=F Damp=F
 DIIS: error= 4.76D-05 at cycle   8 NSaved=   8.
 NSaved= 8 IEnMin= 8 EnMin= -1028.73968627034     IErMin= 8 ErrMin= 4.76D-05
 ErrMax= 4.76D-05  0.00D+00 EMaxC= 1.00D-01 BMatC= 4.67D-07 BMatP= 1.96D-06
 IDIUse=1 WtCom= 1.00D+00 WtEn= 0.00D+00
 Coeff-Com: -0.212D-02 0.445D-02 0.964D-02 0.596D-02-0.415D-01-0.134D+00
 Coeff-Com:  0.236D+00 0.922D+00
 Coeff:     -0.212D-02 0.445D-02 0.964D-02 0.596D-02-0.415D-01-0.134D+00
 Coeff:      0.236D+00 0.922D+00
 Gap=     0.237 Goal=   None    Shift=    0.000
 RMSDP=8.10D-06 MaxDP=1.81D-04 DE=-5.82D-06 OVMax= 1.20D-03

 Cycle   9  Pass 1  IDiag  1:
 RMSU=  3.09D-06    CP:  9.90D-01  1.33D+00  9.58D-01  9.07D-01  1.42D+00
                    CP:  1.71D+00  1.48D+00  1.24D+00
 E= -1028.73968805396     Delta-E=       -0.000001783621 Rises=F Damp=F
 DIIS: error= 2.33D-05 at cycle   9 NSaved=   9.
 NSaved= 9 IEnMin= 9 EnMin= -1028.73968805396     IErMin= 9 ErrMin= 2.33D-05
 ErrMax= 2.33D-05  0.00D+00 EMaxC= 1.00D-01 BMatC= 6.02D-08 BMatP= 4.67D-07
 IDIUse=1 WtCom= 1.00D+00 WtEn= 0.00D+00
 Coeff-Com: -0.900D-03 0.172D-02 0.439D-02 0.599D-02-0.314D-02-0.760D-01
 Coeff-Com: -0.623D-01 0.166D+00 0.965D+00
 Coeff:     -0.900D-03 0.172D-02 0.439D-02 0.599D-02-0.314D-02-0.760D-01
 Coeff:     -0.623D-01 0.166D+00 0.965D+00
 Gap=     0.237 Goal=   None    Shift=    0.000
 RMSDP=3.84D-06 MaxDP=9.80D-05 DE=-1.78D-06 OVMax= 6.63D-04

 Cycle  10  Pass 1  IDiag  1:
 RMSU=  1.36D-06    CP:  9.90D-01  1.33D+00  9.58D-01  9.07D-01  1.43D+00
                    CP:  1.76D+00  1.58D+00  1.48D+00  1.33D+00
 E= -1028.73968839835     Delta-E=       -0.000000344389 Rises=F Damp=F
 DIIS: error= 6.85D-06 at cycle  10 NSaved=  10.
 NSaved=10 IEnMin=10 EnMin= -1028.73968839835     IErMin=10 ErrMin= 6.85D-06
 ErrMax= 6.85D-06  0.00D+00 EMaxC= 1.00D-01 BMatC= 2.63D-08 BMatP= 6.02D-08
 IDIUse=1 WtCom= 1.00D+00 WtEn= 0.00D+00
 Coeff-Com:  0.814D-04-0.236D-03-0.195D-04 0.122D-02 0.807D-02-0.667D-02
 Coeff-Com: -0.757D-01-0.134D+00 0.462D+00 0.745D+00
 Coeff:      0.814D-04-0.236D-03-0.195D-04 0.122D-02 0.807D-02-0.667D-02
 Coeff:     -0.757D-01-0.134D+00 0.462D+00 0.745D+00
 Gap=     0.237 Goal=   None    Shift=    0.000
 RMSDP=1.71D-06 MaxDP=4.74D-05 DE=-3.44D-07 OVMax= 2.57D-04

 Cycle  11  Pass 1  IDiag  1:
 RMSU=  6.31D-07    CP:  9.90D-01  1.33D+00  9.58D-01  9.07D-01  1.43D+00
                    CP:  1.77D+00  1.62D+00  1.57D+00  1.65D+00  1.07D+00
 E= -1028.73968846849     Delta-E=       -0.000000070138 Rises=F Damp=F
 DIIS: error= 4.42D-06 at cycle  11 NSaved=  11.
 NSaved=11 IEnMin=11 EnMin= -1028.73968846849     IErMin=11 ErrMin= 4.42D-06
 ErrMax= 4.42D-06  0.00D+00 EMaxC= 1.00D-01 BMatC= 2.91D-09 BMatP= 2.63D-08
 IDIUse=1 WtCom= 1.00D+00 WtEn= 0.00D+00
 Coeff-Com:  0.292D-03-0.596D-03-0.112D-02-0.120D-02 0.493D-02 0.140D-01
 Coeff-Com: -0.158D-01-0.883D-01 0.174D-01 0.204D+00 0.866D+00
 Coeff:      0.292D-03-0.596D-03-0.112D-02-0.120D-02 0.493D-02 0.140D-01
 Coeff:     -0.158D-01-0.883D-01 0.174D-01 0.204D+00 0.866D+00
 Gap=     0.237 Goal=   None    Shift=    0.000
 RMSDP=6.31D-07 MaxDP=2.31D-05 DE=-7.01D-08 OVMax= 1.15D-04

 Cycle  12  Pass 1  IDiag  1:
 RMSU=  2.55D-07    CP:  9.90D-01  1.33D+00  9.58D-01  9.07D-01  1.43D+00
                    CP:  1.77D+00  1.63D+00  1.60D+00  1.77D+00  1.29D+00
                    CP:  1.08D+00
 E= -1028.73968847906     Delta-E=       -0.000000010579 Rises=F Damp=F
 DIIS: error= 1.95D-06 at cycle  12 NSaved=  12.
 NSaved=12 IEnMin=12 EnMin= -1028.73968847906     IErMin=12 ErrMin= 1.95D-06
 ErrMax= 1.95D-06  0.00D+00 EMaxC= 1.00D-01 BMatC= 1.23D-09 BMatP= 2.91D-09
 IDIUse=1 WtCom= 1.00D+00 WtEn= 0.00D+00
 Coeff-Com:  0.124D-03-0.241D-03-0.515D-03-0.879D-03 0.973D-03 0.813D-02
 Coeff-Com:  0.646D-02-0.208D-01-0.799D-01-0.862D-01 0.448D+00 0.725D+00
 Coeff:      0.124D-03-0.241D-03-0.515D-03-0.879D-03 0.973D-03 0.813D-02
 Coeff:      0.646D-02-0.208D-01-0.799D-01-0.862D-01 0.448D+00 0.725D+00
 Gap=     0.237 Goal=   None    Shift=    0.000
 RMSDP=3.48D-07 MaxDP=1.15D-05 DE=-1.06D-08 OVMax= 4.84D-05

 Cycle  13  Pass 1  IDiag  1:
 RMSU=  9.70D-08    CP:  9.90D-01  1.33D+00  9.58D-01  9.07D-01  1.43D+00
                    CP:  1.78D+00  1.64D+00  1.62D+00  1.83D+00  1.36D+00
                    CP:  1.34D+00  9.56D-01
 E= -1028.73968848150     Delta-E=       -0.000000002439 Rises=F Damp=F
 DIIS: error= 4.59D-07 at cycle  13 NSaved=  13.
 NSaved=13 IEnMin=13 EnMin= -1028.73968848150     IErMin=13 ErrMin= 4.59D-07
 ErrMax= 4.59D-07  0.00D+00 EMaxC= 1.00D-01 BMatC= 6.19D-11 BMatP= 1.23D-09
 IDIUse=1 WtCom= 1.00D+00 WtEn= 0.00D+00
 Coeff-Com: -0.142D-04 0.309D-04 0.558D-04-0.361D-04-0.269D-03-0.396D-04
 Coeff-Com:  0.340D-02 0.749D-02-0.146D-01-0.578D-01-0.189D-01 0.146D+00
 Coeff-Com:  0.935D+00
 Coeff:     -0.142D-04 0.309D-04 0.558D-04-0.361D-04-0.269D-03-0.396D-04
 Coeff:      0.340D-02 0.749D-02-0.146D-01-0.578D-01-0.189D-01 0.146D+00
 Coeff:      0.935D+00
 Gap=     0.237 Goal=   None    Shift=    0.000
 RMSDP=8.94D-08 MaxDP=2.03D-06 DE=-2.44D-09 OVMax= 1.14D-05

 Cycle  14  Pass 1  IDiag  1:
 RMSU=  3.58D-08    CP:  9.90D-01  1.33D+00  9.58D-01  9.07D-01  1.43D+00
                    CP:  1.78D+00  1.64D+00  1.62D+00  1.85D+00  1.38D+00
                    CP:  1.40D+00  1.10D+00  1.18D+00
 E= -1028.73968848169     Delta-E=       -0.000000000189 Rises=F Damp=F
 DIIS: error= 1.60D-07 at cycle  14 NSaved=  14.
 NSaved=14 IEnMin=14 EnMin= -1028.73968848169     IErMin=14 ErrMin= 1.60D-07
 ErrMax= 1.60D-07  0.00D+00 EMaxC= 1.00D-01 BMatC= 8.53D-12 BMatP= 6.19D-11
 IDIUse=1 WtCom= 1.00D+00 WtEn= 0.00D+00
 Coeff-Com: -0.138D-04 0.278D-04 0.581D-04 0.534D-04-0.169D-03-0.687D-03
 Coeff-Com:  0.511D-03 0.400D-02 0.272D-02-0.110D-01-0.414D-01-0.195D-01
 Coeff-Com:  0.325D+00 0.741D+00
 Coeff:     -0.138D-04 0.278D-04 0.581D-04 0.534D-04-0.169D-03-0.687D-03
 Coeff:      0.511D-03 0.400D-02 0.272D-02-0.110D-01-0.414D-01-0.195D-01
 Coeff:      0.325D+00 0.741D+00
 Gap=     0.237 Goal=   None    Shift=    0.000
 RMSDP=2.00D-08 MaxDP=5.60D-07 DE=-1.89D-10 OVMax= 2.23D-06

 Cycle  15  Pass 1  IDiag  1:
 RMSU=  1.17D-08    CP:  9.90D-01  1.33D+00  9.58D-01  9.07D-01  1.43D+00
                    CP:  1.78D+00  1.64D+00  1.62D+00  1.85D+00  1.38D+00
                    CP:  1.41D+00  1.12D+00  1.30D+00  1.10D+00
 E= -1028.73968848171     Delta-E=       -0.000000000018 Rises=F Damp=F
 DIIS: error= 7.11D-08 at cycle  15 NSaved=  15.
 NSaved=15 IEnMin=15 EnMin= -1028.73968848171     IErMin=15 ErrMin= 7.11D-08
 ErrMax= 7.11D-08  0.00D+00 EMaxC= 1.00D-01 BMatC= 1.25D-12 BMatP= 8.53D-12
 IDIUse=1 WtCom= 1.00D+00 WtEn= 0.00D+00
 Coeff-Com: -0.238D-05 0.426D-05 0.118D-04 0.319D-04-0.115D-04-0.289D-03
 Coeff-Com: -0.580D-03-0.795D-04 0.440D-02 0.937D-02-0.122D-01-0.450D-01
 Coeff-Com: -0.823D-01 0.208D+00 0.918D+00
 Coeff:     -0.238D-05 0.426D-05 0.118D-04 0.319D-04-0.115D-04-0.289D-03
 Coeff:     -0.580D-03-0.795D-04 0.440D-02 0.937D-02-0.122D-01-0.450D-01
 Coeff:     -0.823D-01 0.208D+00 0.918D+00
 Gap=     0.237 Goal=   None    Shift=    0.000
 RMSDP=1.21D-08 MaxDP=3.12D-07 DE=-1.77D-11 OVMax= 1.46D-06

 Cycle  16  Pass 1  IDiag  1:
 RMSU=  5.10D-09    CP:  9.90D-01  1.33D+00  9.58D-01  9.07D-01  1.43D+00
                    CP:  1.78D+00  1.64D+00  1.62D+00  1.85D+00  1.38D+00
                    CP:  1.41D+00  1.14D+00  1.36D+00  1.29D+00  1.19D+00
 E= -1028.73968848172     Delta-E=       -0.000000000010 Rises=F Damp=F
 DIIS: error= 2.59D-08 at cycle  16 NSaved=  16.
 NSaved=16 IEnMin=16 EnMin= -1028.73968848172     IErMin=16 ErrMin= 2.59D-08
 ErrMax= 2.59D-08  0.00D+00 EMaxC= 1.00D-01 BMatC= 1.56D-13 BMatP= 1.25D-12
 IDIUse=1 WtCom= 1.00D+00 WtEn= 0.00D+00
 Coeff-Com:  0.510D-06-0.114D-05-0.149D-05 0.391D-05 0.747D-05-0.224D-04
 Coeff-Com: -0.197D-03-0.347D-03 0.741D-03 0.329D-02 0.413D-03-0.102D-01
 Coeff-Com: -0.453D-01-0.287D-01 0.257D+00 0.824D+00
 Coeff:      0.510D-06-0.114D-05-0.149D-05 0.391D-05 0.747D-05-0.224D-04
 Coeff:     -0.197D-03-0.347D-03 0.741D-03 0.329D-02 0.413D-03-0.102D-01
 Coeff:     -0.453D-01-0.287D-01 0.257D+00 0.824D+00
 Gap=     0.237 Goal=   None    Shift=    0.000
 RMSDP=3.68D-09 MaxDP=1.15D-07 DE=-9.78D-12 OVMax= 5.06D-07

 Error on total polarization charges =  0.00861
 SCF Done:  E(RwB97XD) =  -1028.73968848     A.U. after   16 cycles
            NFock= 16  Conv=0.37D-08     -V/T= 2.0045
 KE= 1.024167768526D+03 PE=-4.607005846314D+03 EE= 1.456585631814D+03
 Leave Link  502 at Mon Jul 13 18:48:27 2020, MaxMem=  7784628224 cpu:             863.1 elap:              87.0
 (Enter /gpfs/loomis/apps/avx/software/Gaussian/16-C.01_AVX/g16/l801.exe)
 DoSCS=F DFT=T ScalE2(SS,OS)=  1.000000  1.000000
 ExpMin= 1.22D-01 ExpMax= 1.11D+05 ExpMxC= 1.07D+03 IAcc=3 IRadAn=         5 AccDes= 0.00D+00
 HarFok:  IExCor=  205 AccDes= 0.00D+00 IRadAn=         5 IDoV=-2 UseB2=F ITyADJ=14
 ICtDFT= 12500011 ScaDFX=  1.000000  1.000000  1.000000  1.000000
 Largest valence mixing into a core orbital is  9.58D-05
 Largest core mixing into a valence orbital is  3.15D-05
 Range of M.O.s used for correlation:    21   273
 NBasis=   273 NAE=    59 NBE=    59 NFC=    20 NFV=     0
 NROrb=    253 NOA=    39 NOB=    39 NVA=   214 NVB=   214
 Leave Link  801 at Mon Jul 13 18:48:27 2020, MaxMem=  7784628224 cpu:               0.9 elap:               0.1
 (Enter /gpfs/loomis/apps/avx/software/Gaussian/16-C.01_AVX/g16/l914.exe)
 RHF ground state
 Keep R1, R2, and R3 ints in memory in canonical form, NReq=4262515490.
 FoFCou: FMM=F IPFlag=           0 FMFlag=           0 FMFlg1=           0
         NFxFlg=           0 DoJE=F BraDBF=F KetDBF=F FulRan=T
         wScrn=  0.000000 ICntrl=       600 IOpCl=  0 I1Cent=           0 NGrid=           0
         NMat0=    1 NMatS0=  37401 NMatT0=    0 NMatD0=    1 NMtDS0=    0 NMtDT0=    0
 Symmetry not used in FoFCou.
 Two-electron integral symmetry not used.
 MDV=  7784628224 DFT=T DoStab=F Mixed=T DoRPA=T DoScal=F NonHer=T
 NEqPCM:  Using equilibrium solvation (IEInf=0, Eps=   2.2280, EpsInf=   2.1319)
 Making orbital integer symmetry assigments:
    12 initial guesses have been made.
 Convergence on wavefunction:    0.000001000000000
 Davidson Disk Diagonalization:  ConvIn= 1.00D-06 SkipCon=T Conv= 1.00D-06.
 Max sub-space:  2000 roots to seek:    12 dimension of matrix:        16692
 Iteration     1 Dimension    12 NMult     0 NNew     12
 CISAX will form    12 AO SS matrices at one time.
 NMat=    12 NSing=    12 JSym2X= 0.
 New state      2 was old state      3
 New state      3 was old state      4
 Excitation Energies [eV] at current iteration:
 Root      1 :     3.437194343261872
 Root      2 :     3.737964422279817
 Root      3 :     4.856326223742939
 Root      4 :     5.166693107278395
 Root      5 :     5.177904472973400
 Root      6 :     5.710438323156992
 Root      7 :     5.896821301096884
 Root      8 :     6.320316805385645
 Root      9 :     6.467805904607503
 Root     10 :     6.710713307144386
 Root     11 :     6.943638470283907
 Root     12 :     7.182202360203155
 Iteration     2 Dimension    18 NMult    12 NNew      6
 CISAX will form     6 AO SS matrices at one time.
 NMat=     6 NSing=     6 JSym2X= 0.
 Root      1 not converged, maximum delta is    0.045368395911049
 Root      2 not converged, maximum delta is    0.110837002303121
 Root      3 not converged, maximum delta is    0.081708868088741
 Excitation Energies [eV] at current iteration:
 Root      1 :     2.919181913312303   Change is   -0.518012429949568
 Root      2 :     3.523155325215851   Change is   -0.214809097063966
 Root      3 :     4.402092142352687   Change is   -0.454234081390252
 Iteration     3 Dimension    24 NMult    18 NNew      6
 CISAX will form     6 AO SS matrices at one time.
 NMat=     6 NSing=     6 JSym2X= 0.
 Root      1 not converged, maximum delta is    0.016269945517373
 Root      2 not converged, maximum delta is    0.029915155563244
 Root      3 not converged, maximum delta is    0.028889999952557
 Excitation Energies [eV] at current iteration:
 Root      1 :     2.888508130007778   Change is   -0.030673783304526
 Root      2 :     3.502055462776032   Change is   -0.021099862439818
 Root      3 :     4.372600109302721   Change is   -0.029492033049966
 Iteration     4 Dimension    30 NMult    24 NNew      6
 CISAX will form     6 AO SS matrices at one time.
 NMat=     6 NSing=     6 JSym2X= 0.
 Root      1 not converged, maximum delta is    0.008603358213944
 Root      2 not converged, maximum delta is    0.009699814710240
 Root      3 not converged, maximum delta is    0.016281786599434
 Excitation Energies [eV] at current iteration:
 Root      1 :     2.883712276268246   Change is   -0.004795853739532
 Root      2 :     3.500124012661534   Change is   -0.001931450114498
 Root      3 :     4.366438368970045   Change is   -0.006161740332675
 Iteration     5 Dimension    36 NMult    30 NNew      6
 CISAX will form     6 AO SS matrices at one time.
 NMat=     6 NSing=     6 JSym2X= 0.
 Root      1 not converged, maximum delta is    0.001765706368618
 Root      2 not converged, maximum delta is    0.001386362006487
 Root      3 not converged, maximum delta is    0.008792096734700
 Excitation Energies [eV] at current iteration:
 Root      1 :     2.883073958530691   Change is   -0.000638317737555
 Root      2 :     3.500010315789387   Change is   -0.000113696872147
 Root      3 :     4.365071916249747   Change is   -0.001366452720299
 Iteration     6 Dimension    42 NMult    36 NNew      6
 CISAX will form     6 AO SS matrices at one time.
 NMat=     6 NSing=     6 JSym2X= 0.
 Root      1 not converged, maximum delta is    0.000378564769161
 Root      2 not converged, maximum delta is    0.000314071070100
 Root      3 not converged, maximum delta is    0.002238830705937
 Excitation Energies [eV] at current iteration:
 Root      1 :     2.883029412041660   Change is   -0.000044546489030
 Root      2 :     3.500004958669129   Change is   -0.000005357120258
 Root      3 :     4.364890368971298   Change is   -0.000181547278449
 Iteration     7 Dimension    48 NMult    42 NNew      6
 CISAX will form     6 AO SS matrices at one time.
 NMat=     6 NSing=     6 JSym2X= 0.
 Root      1 not converged, maximum delta is    0.000100427085916
 Root      2 not converged, maximum delta is    0.000126743630879
 Root      3 not converged, maximum delta is    0.000575405271305
 Excitation Energies [eV] at current iteration:
 Root      1 :     2.883025966022406   Change is   -0.000003446019254
 Root      2 :     3.500004488548092   Change is   -0.000000470121037
 Root      3 :     4.364868391800950   Change is   -0.000021977170347
 Iteration     8 Dimension    54 NMult    48 NNew      6
 CISAX will form     6 AO SS matrices at one time.
 NMat=     6 NSing=     6 JSym2X= 0.
 Root      1 not converged, maximum delta is    0.000026384206624
 Root      2 not converged, maximum delta is    0.000014703505888
 Root      3 not converged, maximum delta is    0.000241505318605
 Excitation Energies [eV] at current iteration:
 Root      1 :     2.883025821444437   Change is   -0.000000144577969
 Root      2 :     3.500004467263866   Change is   -0.000000021284226
 Root      3 :     4.364865990901772   Change is   -0.000002400899178
 Iteration     9 Dimension    60 NMult    54 NNew      6
 CISAX will form     6 AO SS matrices at one time.
 NMat=     6 NSing=     6 JSym2X= 0.
 Root      1 not converged, maximum delta is    0.000009529316637
 Root      2 not converged, maximum delta is    0.000003042556649
 Root      3 not converged, maximum delta is    0.000069619838853
 Excitation Energies [eV] at current iteration:
 Root      1 :     2.883025808372647   Change is   -0.000000013071790
 Root      2 :     3.500004466349766   Change is   -0.000000000914100
 Root      3 :     4.364865746994917   Change is   -0.000000243906855
 Iteration    10 Dimension    66 NMult    60 NNew      6
 CISAX will form     6 AO SS matrices at one time.
 NMat=     6 NSing=     6 JSym2X= 0.
 Root      1 not converged, maximum delta is    0.000002398372987
 Root      2 not converged, maximum delta is    0.000001764580377
 Root      3 not converged, maximum delta is    0.000033123393783
 Excitation Energies [eV] at current iteration:
 Root      1 :     2.883025807642053   Change is   -0.000000000730594
 Root      2 :     3.500004466266878   Change is   -0.000000000082888
 Root      3 :     4.364865704933716   Change is   -0.000000042061201
 Iteration    11 Dimension    72 NMult    66 NNew      6
 CISAX will form     6 AO SS matrices at one time.
 NMat=     6 NSing=     6 JSym2X= 0.
 Root      1 has converged.
 Root      2 has converged.
 Root      3 not converged, maximum delta is    0.000009578966051
 Excitation Energies [eV] at current iteration:
 Root      1 :     2.883025807593977   Change is   -0.000000000048075
 Root      2 :     3.500004466255909   Change is   -0.000000000010969
 Root      3 :     4.364865700648661   Change is   -0.000000004285056
 Iteration    12 Dimension    74 NMult    72 NNew      2
 CISAX will form     2 AO SS matrices at one time.
 NMat=     2 NSing=     2 JSym2X= 0.
 Root      1 has converged.
 Root      2 has converged.
 Root      3 not converged, maximum delta is    0.000002170836993
 Excitation Energies [eV] at current iteration:
 Root      1 :     2.883025807593065   Change is   -0.000000000000913
 Root      2 :     3.500004466255932   Change is    0.000000000000023
 Root      3 :     4.364865700261078   Change is   -0.000000000387583
 Iteration    13 Dimension    76 NMult    74 NNew      2
 CISAX will form     2 AO SS matrices at one time.
 NMat=     2 NSing=     2 JSym2X= 0.
 Root      1 has converged.
 Root      2 has converged.
 Root      3 has converged.
 Excitation Energies [eV] at current iteration:
 Root      1 :     2.883025807593151   Change is    0.000000000000086
 Root      2 :     3.500004466255838   Change is   -0.000000000000094
 Root      3 :     4.364865700226009   Change is   -0.000000000035069
 Convergence achieved on expansion vectors.
 ***********************************************************************
 Excited states from <AA,BB:AA,BB> singles matrix:
 ***********************************************************************
 
 1PDM for each excited state written to RWF  633
 Ground to excited state transition densities written to RWF  633
 Ground to excited state transition electric dipole moments (Au):
       state          X           Y           Z        Dip. S.      Osc.
         1         1.1371     -2.2579     -0.0000      6.3909      0.4514
         2        -0.0000      0.0001     -0.0039      0.0000      0.0000
         3        -1.7024      1.0524      0.0000      4.0056      0.4283
 Ground to excited state transition velocity dipole moments (Au):
       state          X           Y           Z        Dip. S.      Osc.
         1        -0.1157      0.2414      0.0000      0.0717      0.4511
         2         0.0000     -0.0000      0.0005      0.0000      0.0000
         3         0.2678     -0.1582     -0.0000      0.0968      0.4021
 Ground to excited state transition magnetic dipole moments (Au):
       state          X           Y           Z
         1         0.0000      0.0000     -1.1980
         2         0.3938     -0.0093      0.0000
         3        -0.0000      0.0000     -0.9059
 Ground to excited state transition velocity quadrupole moments (Au):
       state          XX          YY          ZZ          XY          XZ          YZ
         1        -0.0247      0.6399     -0.0118     -0.2589     -0.0000      0.0000
         2         0.0000     -0.0000      0.0000      0.0000     -0.0058      0.0191
         3        -0.4007      0.4541      0.0019      0.1004     -0.0000      0.0000
 <0|del|b> * <b|rxdel|0> + <0|del|b> * <b|delr+rdel|0>
 Rotatory Strengths (R) in cgs (10**-40 erg-esu-cm/Gauss)
       state          XX          YY          ZZ    R(velocity)    E-M Angle
         1         0.0150     -0.0233      0.0223      0.0047       90.00
         2         0.0001      0.0037      0.0036      0.0025       90.00
         3        -0.0024      0.0013     -0.0073     -0.0028       90.00
 1/2[<0|r|b>*<b|rxdel|0> + (<0|rxdel|b>*<b|r|0>)*]
 Rotatory Strengths (R) in cgs (10**-40 erg-esu-cm/Gauss)
       state          XX          YY          ZZ     R(length)
         1        -0.0119      0.0561     -0.0301      0.0047
         2         0.0069      0.0004      0.0000      0.0025
         3        -0.0045     -0.0075      0.0042     -0.0026
  1/2[<0|del|b>*<b|r|0> + (<0|r|b>*<b|del|0>)*] (Au)
       state          X           Y           Z        Dip. S.   Osc.(frdel)
         1        -0.1316     -0.5451     -0.0000      0.6767      0.4512
         2        -0.0000     -0.0000     -0.0000      0.0000      0.0000
         3        -0.4560     -0.1665     -0.0000      0.6224      0.4150

 Excitation energies and oscillator strengths:
 
 Excited state symmetry could not be determined.
 Excited State   1:      Singlet-?Sym    2.8830 eV  430.05 nm  f=0.4514  <S**2>=0.000
      59 -> 60         0.69858
 This state for optimization and/or second-order correction.
 Total Energy, E(TD-HF/TD-DFT) =  -1028.63373923    
 Copying the excited state density for this state as the 1-particle RhoCI density.
 
 Excited state symmetry could not be determined.
 Excited State   2:      Singlet-?Sym    3.5000 eV  354.24 nm  f=0.0000  <S**2>=0.000
      58 -> 60         0.68350
      58 -> 62         0.11588
      58 -> 64         0.11583
 
 Excited state symmetry could not be determined.
 Excited State   3:      Singlet-?Sym    4.3649 eV  284.05 nm  f=0.4283  <S**2>=0.000
      57 -> 60         0.68252
 SavETr:  write IOETrn=   770 NScale= 10 NData=  16 NLR=1 NState=    3 LETran=      64.
 The selected state is a singlet.
 CISGrd: IGrad=2 NXY=2 DFT=T
 CISAX will form     1 AO SS matrices at one time.
 NMat=     1 NSing=     1 JSym2X= 0.
 GePol: Maximum number of non-zero 1st derivatives   =     269
 Leave Link  914 at Mon Jul 13 18:51:25 2020, MaxMem=  7784628224 cpu:            1757.8 elap:             178.3
 (Enter /gpfs/loomis/apps/avx/software/Gaussian/16-C.01_AVX/g16/l1002.exe)
 Minotr:  Closed shell wavefunction.
          Computing CIS/TDA/TD derivatives.
          Using Z-Vector for PSCF gradient.
          Skipping F1 and S1 gradient terms here.
          IDoAtm=1111111111111111111111111
 NEqPCM:  Using equilibrium solvation (IEInf=0, Eps=   2.2280, EpsInf=   2.1319)
          Frozen-core window.
          Direct CPHF calculation.
          Differentiating once with respect to electric field.
                with respect to dipole field.
          Differentiating once with respect to nuclear coordinates.
          Requested convergence is 1.0D-10 RMS, and 1.0D-09 maximum.
          NewPWx=F KeepS1=T KeepF1=T KeepIn=T MapXYZ=F SortEE=F KeepMc=T.
 Keep R1 ints in memory in canonical form, NReq=1421489586.
 FoFCou: FMM=F IPFlag=           0 FMFlag=           0 FMFlg1=           0
         NFxFlg=           0 DoJE=F BraDBF=F KetDBF=F FulRan=T
         wScrn=  0.000000 ICntrl=       600 IOpCl=  0 I1Cent=           0 NGrid=           0
         NMat0=    1 NMatS0=  37401 NMatT0=    0 NMatD0=    1 NMtDS0=    0 NMtDT0=    0
 Symmetry not used in FoFCou.
 Two-electron integral symmetry not used.
          MDV=    7784628224 using IRadAn=       5.
          Solving linear equations separately, MaxMat=       0.
          There are     1 degrees of freedom in the 1st order CPHF.  IDoFFX=0 NUNeed=     1.
 LinEq1:  Iter=  0 NonCon=     1 RMS=6.78D-03 Max=5.40D-01 NDo=     1
 AX will form     1 AO Fock derivatives at one time.
 LinEq1:  Iter=  1 NonCon=     1 RMS=3.14D-03 Max=1.74D-01 NDo=     1
 LinEq1:  Iter=  2 NonCon=     1 RMS=1.64D-03 Max=4.08D-02 NDo=     1
 LinEq1:  Iter=  3 NonCon=     1 RMS=7.52D-04 Max=2.08D-02 NDo=     1
 LinEq1:  Iter=  4 NonCon=     1 RMS=4.56D-04 Max=1.36D-02 NDo=     1
 LinEq1:  Iter=  5 NonCon=     1 RMS=2.21D-04 Max=7.21D-03 NDo=     1
 LinEq1:  Iter=  6 NonCon=     1 RMS=9.07D-05 Max=4.22D-03 NDo=     1
 LinEq1:  Iter=  7 NonCon=     1 RMS=4.78D-05 Max=1.63D-03 NDo=     1
 LinEq1:  Iter=  8 NonCon=     1 RMS=1.81D-05 Max=5.83D-04 NDo=     1
 LinEq1:  Iter=  9 NonCon=     1 RMS=8.50D-06 Max=2.16D-04 NDo=     1
 LinEq1:  Iter= 10 NonCon=     1 RMS=3.19D-06 Max=7.92D-05 NDo=     1
 LinEq1:  Iter= 11 NonCon=     1 RMS=1.60D-06 Max=6.23D-05 NDo=     1
 LinEq1:  Iter= 12 NonCon=     1 RMS=6.84D-07 Max=1.82D-05 NDo=     1
 LinEq1:  Iter= 13 NonCon=     1 RMS=3.54D-07 Max=1.20D-05 NDo=     1
 LinEq1:  Iter= 14 NonCon=     1 RMS=1.14D-07 Max=3.10D-06 NDo=     1
 LinEq1:  Iter= 15 NonCon=     1 RMS=5.86D-08 Max=1.57D-06 NDo=     1
 LinEq1:  Iter= 16 NonCon=     1 RMS=2.55D-08 Max=7.90D-07 NDo=     1
 LinEq1:  Iter= 17 NonCon=     1 RMS=1.28D-08 Max=3.81D-07 NDo=     1
 LinEq1:  Iter= 18 NonCon=     1 RMS=5.58D-09 Max=1.28D-07 NDo=     1
 LinEq1:  Iter= 19 NonCon=     1 RMS=2.37D-09 Max=6.73D-08 NDo=     1
 LinEq1:  Iter= 20 NonCon=     1 RMS=1.22D-09 Max=2.74D-08 NDo=     1
 LinEq1:  Iter= 21 NonCon=     1 RMS=3.93D-10 Max=1.24D-08 NDo=     1
 LinEq1:  Iter= 22 NonCon=     1 RMS=1.76D-10 Max=5.24D-09 NDo=     1
 LinEq1:  Iter= 23 NonCon=     1 RMS=7.38D-11 Max=1.94D-09 NDo=     1
 LinEq1:  Iter= 24 NonCon=     0 RMS=1.98D-11 Max=4.69D-10 NDo=     1
 Linear equations converged to 1.000D-10 1.000D-09 after    24 iterations.
 End of Minotr F.D. properties file   721 does not exist.
 End of Minotr F.D. properties file   722 does not exist.
 End of Minotr F.D. properties file   788 does not exist.
 Leave Link 1002 at Mon Jul 13 18:53:04 2020, MaxMem=  7784628224 cpu:             742.9 elap:              98.5
 (Enter /gpfs/loomis/apps/avx/software/Gaussian/16-C.01_AVX/g16/l601.exe)
 Copying SCF densities to generalized density rwf, IOpCl= 0 IROHF=0.

 **********************************************************************

            Population analysis using the SCF Density.

 **********************************************************************

 Alpha  occ. eigenvalues --  -89.11013 -19.20649 -14.50692 -10.42150 -10.37469
 Alpha  occ. eigenvalues --  -10.36613 -10.35781 -10.33649 -10.32927 -10.32651
 Alpha  occ. eigenvalues --  -10.32509 -10.31491 -10.31191 -10.30670 -10.29242
 Alpha  occ. eigenvalues --  -10.28282  -8.12914  -6.07805  -6.07433  -6.06917
 Alpha  occ. eigenvalues --   -1.14655  -1.09319  -0.98789  -0.95577  -0.93427
 Alpha  occ. eigenvalues --   -0.89189  -0.86890  -0.83964  -0.81067  -0.76851
 Alpha  occ. eigenvalues --   -0.75541  -0.72112  -0.69458  -0.67606  -0.65510
 Alpha  occ. eigenvalues --   -0.60772  -0.59740  -0.56707  -0.56238  -0.56057
 Alpha  occ. eigenvalues --   -0.54951  -0.53576  -0.53151  -0.50768  -0.49300
 Alpha  occ. eigenvalues --   -0.48744  -0.48533  -0.46916  -0.45443  -0.44845
 Alpha  occ. eigenvalues --   -0.44333  -0.42901  -0.42346  -0.40115  -0.36805
 Alpha  occ. eigenvalues --   -0.33789  -0.31596  -0.31388  -0.25769
 Alpha virt. eigenvalues --   -0.02029   0.03550   0.05675   0.05814   0.09400
 Alpha virt. eigenvalues --    0.10444   0.12534   0.14545   0.16201   0.17394
 Alpha virt. eigenvalues --    0.19026   0.20150   0.21158   0.21197   0.23006
 Alpha virt. eigenvalues --    0.23584   0.23890   0.25490   0.28741   0.30185
 Alpha virt. eigenvalues --    0.30611   0.33531   0.35629   0.35837   0.36563
 Alpha virt. eigenvalues --    0.38427   0.38895   0.39981   0.42112   0.44811
 Alpha virt. eigenvalues --    0.46476   0.48886   0.50219   0.51023   0.51294
 Alpha virt. eigenvalues --    0.52681   0.52827   0.53049   0.53954   0.55564
 Alpha virt. eigenvalues --    0.56213   0.56251   0.56406   0.56770   0.57574
 Alpha virt. eigenvalues --    0.57792   0.59174   0.59521   0.59616   0.60452
 Alpha virt. eigenvalues --    0.61275   0.61517   0.61647   0.62249   0.63209
 Alpha virt. eigenvalues --    0.64524   0.66507   0.67145   0.68615   0.69228
 Alpha virt. eigenvalues --    0.69992   0.70514   0.71942   0.71975   0.72790
 Alpha virt. eigenvalues --    0.74206   0.75051   0.75824   0.76255   0.78693
 Alpha virt. eigenvalues --    0.79092   0.79159   0.81027   0.81988   0.82841
 Alpha virt. eigenvalues --    0.84617   0.87374   0.89648   0.91362   0.92135
 Alpha virt. eigenvalues --    0.93366   0.94513   0.96008   0.96716   0.97331
 Alpha virt. eigenvalues --    0.98902   0.99503   1.00138   1.00400   1.01036
 Alpha virt. eigenvalues --    1.02473   1.04881   1.05586   1.06152   1.07163
 Alpha virt. eigenvalues --    1.08051   1.08576   1.10219   1.11087   1.11361
 Alpha virt. eigenvalues --    1.11656   1.12618   1.13494   1.14446   1.15863
 Alpha virt. eigenvalues --    1.17172   1.18214   1.20260   1.23977   1.24049
 Alpha virt. eigenvalues --    1.26468   1.27517   1.31572   1.32008   1.33867
 Alpha virt. eigenvalues --    1.34864   1.35793   1.38460   1.41157   1.44606
 Alpha virt. eigenvalues --    1.49211   1.49262   1.53039   1.54855   1.54927
 Alpha virt. eigenvalues --    1.56068   1.57078   1.57368   1.57506   1.59834
 Alpha virt. eigenvalues --    1.59870   1.62490   1.62495   1.64708   1.67652
 Alpha virt. eigenvalues --    1.68216   1.69840   1.70457   1.71488   1.71902
 Alpha virt. eigenvalues --    1.72123   1.73090   1.73708   1.74913   1.75245
 Alpha virt. eigenvalues --    1.77924   1.78918   1.80153   1.81526   1.82231
 Alpha virt. eigenvalues --    1.83014   1.84150   1.84458   1.85399   1.86043
 Alpha virt. eigenvalues --    1.86811   1.89765   1.91006   1.92019   1.92486
 Alpha virt. eigenvalues --    1.92681   1.93730   1.95019   1.96565   1.98255
 Alpha virt. eigenvalues --    2.00253   2.01049   2.02041   2.04793   2.06113
 Alpha virt. eigenvalues --    2.06604   2.07053   2.09621   2.10111   2.12592
 Alpha virt. eigenvalues --    2.17714   2.19096   2.22246   2.23840   2.27132
 Alpha virt. eigenvalues --    2.27631   2.29834   2.35178   2.37607   2.39816
 Alpha virt. eigenvalues --    2.40440   2.42604   2.46345   2.48582   2.50097
 Alpha virt. eigenvalues --    2.52313   2.53295   2.58843   2.60942   2.63817
 Alpha virt. eigenvalues --    2.66791   2.69584   2.73154   2.77563   2.80038
 Alpha virt. eigenvalues --    2.81186   2.82104   2.83718   2.87719   2.90955
 Alpha virt. eigenvalues --    2.93383   3.01577   3.16687   3.33690   3.47927
 Alpha virt. eigenvalues --    3.52153   3.57259   3.67431   3.88163
          Condensed to atoms (all electrons):
               1          2          3          4          5          6
     1  C    4.732824   0.479594   0.007985  -0.049725  -0.012064   0.514768
     2  C    0.479594   5.392768   0.275793  -0.071232  -0.067522  -0.007492
     3  C    0.007985   0.275793   4.860191   0.522864  -0.004393  -0.066729
     4  C   -0.049725  -0.071232   0.522864   4.805336   0.519672  -0.017733
     5  C   -0.012064  -0.067522  -0.004393   0.519672   4.717180   0.501094
     6  C    0.514768  -0.007492  -0.066729  -0.017733   0.501094   4.737242
     7  H    0.405109  -0.041784   0.008884  -0.000479   0.008036  -0.037233
     8  H   -0.000580   0.010391  -0.022673   0.393157  -0.040391   0.007178
     9  H    0.008305  -0.000237   0.008011  -0.038401   0.405594  -0.042878
    10  H   -0.042215   0.009576  -0.000636   0.008797  -0.042875   0.407431
    11  N    0.003772  -0.039997   0.428925  -0.053580   0.002616   0.000409
    12  S   -0.061485   0.338593  -0.133523   0.003144   0.000182   0.003728
    13  C   -0.000190   0.000666   0.014391  -0.000309   0.000014  -0.000002
    14  C   -0.000003  -0.000008   0.000275   0.000007  -0.000000  -0.000000
    15  C    0.000001  -0.000163   0.000751   0.000018  -0.000001   0.000000
    16  C    0.000000  -0.000001   0.000004   0.000000   0.000000   0.000000
    17  H   -0.000002   0.000050  -0.000006  -0.000000   0.000000  -0.000000
    18  C    0.000000   0.000010  -0.000054  -0.000001  -0.000000   0.000000
    19  C   -0.000000  -0.000000   0.000002  -0.000000   0.000000   0.000000
    20  H   -0.000000  -0.000000  -0.000000   0.000000  -0.000000  -0.000000
    21  H   -0.000000   0.000000  -0.000001  -0.000000  -0.000000  -0.000000
    22  H    0.000000  -0.000000  -0.000000  -0.000000   0.000000  -0.000000
    23  C    0.003365  -0.054374  -0.094694   0.005842   0.000282  -0.000320
    24  O    0.000002  -0.000246  -0.001434   0.000126  -0.000000  -0.000000
    25  H    0.000227   0.015644  -0.019980  -0.019413  -0.000394  -0.000022
               7          8          9         10         11         12
     1  C    0.405109  -0.000580   0.008305  -0.042215   0.003772  -0.061485
     2  C   -0.041784   0.010391  -0.000237   0.009576  -0.039997   0.338593
     3  C    0.008884  -0.022673   0.008011  -0.000636   0.428925  -0.133523
     4  C   -0.000479   0.393157  -0.038401   0.008797  -0.053580   0.003144
     5  C    0.008036  -0.040391   0.405594  -0.042875   0.002616   0.000182
     6  C   -0.037233   0.007178  -0.042878   0.407431   0.000409   0.003728
     7  H    0.646836   0.000027  -0.000133  -0.011813  -0.000106  -0.006219
     8  H    0.000027   0.634316  -0.011128  -0.000122  -0.006089  -0.000249
     9  H   -0.000133  -0.011128   0.654149  -0.012088  -0.000103   0.000022
    10  H   -0.011813  -0.000122  -0.012088   0.656100   0.000004  -0.000120
    11  N   -0.000106  -0.006089  -0.000103   0.000004   5.773624  -0.043083
    12  S   -0.006219  -0.000249   0.000022  -0.000120  -0.043083  15.431775
    13  C    0.000006   0.000068  -0.000000  -0.000000  -0.030081  -0.064051
    14  C    0.000000   0.000001   0.000000  -0.000000   0.003267  -0.004677
    15  C   -0.000000  -0.000009   0.000000   0.000000  -0.001667   0.003519
    16  C   -0.000000  -0.000000  -0.000000  -0.000000  -0.000090  -0.000048
    17  H    0.000000   0.000000  -0.000000  -0.000000   0.000249   0.004975
    18  C   -0.000000  -0.000000  -0.000000  -0.000000  -0.000660  -0.000066
    19  C    0.000000   0.000000  -0.000000   0.000000   0.000040   0.000013
    20  H   -0.000000  -0.000000   0.000000   0.000000   0.000001  -0.000001
    21  H   -0.000000   0.000000  -0.000000   0.000000   0.000009   0.000003
    22  H    0.000000  -0.000000  -0.000000  -0.000000  -0.000000  -0.000000
    23  C    0.000139  -0.000640   0.000007   0.000003   0.500427   0.309962
    24  O    0.000000  -0.000248  -0.000000  -0.000000  -0.038114  -0.000193
    25  H    0.000008   0.001155  -0.000020  -0.000000   0.380452   0.005760
              13         14         15         16         17         18
     1  C   -0.000190  -0.000003   0.000001   0.000000  -0.000002   0.000000
     2  C    0.000666  -0.000008  -0.000163  -0.000001   0.000050   0.000010
     3  C    0.014391   0.000275   0.000751   0.000004  -0.000006  -0.000054
     4  C   -0.000309   0.000007   0.000018   0.000000  -0.000000  -0.000001
     5  C    0.000014  -0.000000  -0.000001   0.000000   0.000000  -0.000000
     6  C   -0.000002  -0.000000   0.000000   0.000000  -0.000000   0.000000
     7  H    0.000006   0.000000  -0.000000  -0.000000   0.000000  -0.000000
     8  H    0.000068   0.000001  -0.000009  -0.000000   0.000000  -0.000000
     9  H   -0.000000   0.000000   0.000000  -0.000000  -0.000000  -0.000000
    10  H   -0.000000  -0.000000   0.000000  -0.000000  -0.000000  -0.000000
    11  N   -0.030081   0.003267  -0.001667  -0.000090   0.000249  -0.000660
    12  S   -0.064051  -0.004677   0.003519  -0.000048   0.004975  -0.000066
    13  C    5.503435   0.427365   0.178968  -0.004912  -0.043440  -0.039554
    14  C    0.427365   4.849748   0.015501   0.536317   0.401637  -0.063705
    15  C    0.178968   0.015501   4.721902  -0.057653   0.006709   0.467581
    16  C   -0.004912   0.536317  -0.057653   4.780966  -0.034087  -0.017721
    17  H   -0.043440   0.401637   0.006709  -0.034087   0.686460  -0.001022
    18  C   -0.039554  -0.063705   0.467581  -0.017721  -0.001022   4.901653
    19  C   -0.049802  -0.015726  -0.008672   0.470305   0.008567   0.490416
    20  H    0.009150  -0.036695  -0.000204   0.400099  -0.012440   0.008382
    21  H    0.015406  -0.000677  -0.022646   0.007691   0.000053   0.370936
    22  H   -0.001510   0.009292   0.008664  -0.046911  -0.000190  -0.038336
    23  C    0.336053  -0.100404  -0.074695   0.006775  -0.019456   0.011181
    24  O   -0.090109   0.006113   0.656330  -0.000178  -0.000072  -0.068967
    25  H   -0.047263  -0.000630  -0.008485   0.000064  -0.000074   0.004286
              19         20         21         22         23         24
     1  C   -0.000000  -0.000000  -0.000000   0.000000   0.003365   0.000002
     2  C   -0.000000  -0.000000   0.000000  -0.000000  -0.054374  -0.000246
     3  C    0.000002  -0.000000  -0.000001  -0.000000  -0.094694  -0.001434
     4  C   -0.000000   0.000000  -0.000000  -0.000000   0.005842   0.000126
     5  C    0.000000  -0.000000  -0.000000   0.000000   0.000282  -0.000000
     6  C    0.000000  -0.000000  -0.000000  -0.000000  -0.000320  -0.000000
     7  H    0.000000  -0.000000  -0.000000   0.000000   0.000139   0.000000
     8  H    0.000000  -0.000000   0.000000  -0.000000  -0.000640  -0.000248
     9  H   -0.000000   0.000000  -0.000000  -0.000000   0.000007  -0.000000
    10  H    0.000000   0.000000   0.000000  -0.000000   0.000003  -0.000000
    11  N    0.000040   0.000001   0.000009  -0.000000   0.500427  -0.038114
    12  S    0.000013  -0.000001   0.000003  -0.000000   0.309962  -0.000193
    13  C   -0.049802   0.009150   0.015406  -0.001510   0.336053  -0.090109
    14  C   -0.015726  -0.036695  -0.000677   0.009292  -0.100404   0.006113
    15  C   -0.008672  -0.000204  -0.022646   0.008664  -0.074695   0.656330
    16  C    0.470305   0.400099   0.007691  -0.046911   0.006775  -0.000178
    17  H    0.008567  -0.012440   0.000053  -0.000190  -0.019456  -0.000072
    18  C    0.490416   0.008382   0.370936  -0.038336   0.011181  -0.068967
    19  C    4.760208  -0.047733  -0.048092   0.402431   0.000022   0.005322
    20  H   -0.047733   0.689838  -0.000181  -0.012516  -0.000352   0.000000
    21  H   -0.048092  -0.000181   0.682506  -0.012617  -0.000456   0.006392
    22  H    0.402431  -0.012516  -0.012617   0.677930   0.000013  -0.000092
    23  C    0.000022  -0.000352  -0.000456   0.000013   5.141218  -0.018427
    24  O    0.005322   0.000000   0.006392  -0.000092  -0.018427   7.854435
    25  H   -0.000405  -0.000000   0.000007   0.000006   0.010213   0.083214
              25
     1  C    0.000227
     2  C    0.015644
     3  C   -0.019980
     4  C   -0.019413
     5  C   -0.000394
     6  C   -0.000022
     7  H    0.000008
     8  H    0.001155
     9  H   -0.000020
    10  H   -0.000000
    11  N    0.380452
    12  S    0.005760
    13  C   -0.047263
    14  C   -0.000630
    15  C   -0.008485
    16  C    0.000064
    17  H   -0.000074
[...]
 482,0.,0.,0.00003203,0.00000053,-0.00000130,0.00227034,0.00000034,-0.0
 0000031,-0.00048434,0.00000234,0.00000314,0.00149755,-0.00000128,-0.00
 001039,-0.05452974,0.00000265,-0.00000125,-0.00515371,0.00002026,0.000
 04286,0.12392904,0.00016339,0.00007248,-0.00000002,-0.00048152,0.00021
 771,0.00000006,0.00036938,-0.00014753,-0.00000005,-0.00008723,0.000075
 65,-0.00000001,0.00005362,-0.00007072,0.,0.00003280,-0.00002422,0.,-0.
 00001449,-0.00000574,0.,0.00002917,0.00000450,0.,0.00001012,-0.0000030
 8,0.,0.00002752,-0.00000271,0.,0.00063842,0.00059235,0.00000023,-0.000
 93234,0.00132430,-0.00000062,-0.00780612,-0.02997346,-0.00000296,-0.10
 593088,-0.10627194,-0.00001097,-0.00427614,0.00376100,-0.00000051,0.01
 094385,0.01859381,0.00000172,0.11033944,-0.00001044,-0.00004091,-0.000
 00002,-0.00009994,0.00034895,-0.00000006,0.00016392,0.00005401,-0.0000
 0007,-0.00003223,0.00001048,0.,0.00001029,0.00003068,0.,-0.00006916,0.
 00000986,0.,-0.00000222,0.00001276,0.,0.00000553,-0.00000395,0.,-0.000
 00554,0.00000072,0.,-0.00000913,0.00000324,0.,0.00006529,0.00029668,0.
 00000023,-0.00043159,-0.00008224,0.00000006,0.00131954,0.00007968,-0.0
 0000053,-0.10473188,-0.29112824,-0.00002493,0.00061032,0.00193663,-0.0
 0000070,-0.01363596,-0.01746400,-0.00000212,0.11237899,0.30766839,0.00
 000003,0.00000012,0.00003934,0.00000025,0.00000025,-0.00017287,0.00000
 059,-0.00000053,0.00057953,-0.00000035,0.00000005,0.00003944,0.0000000
 4,-0.00000025,-0.00000396,0.00000011,0.00000009,-0.00001659,0.,0.,0.00
 003116,0.00000001,0.,0.00003129,0.,0.,0.00000139,0.,0.,-0.00001469,0.0
 0000033,0.00000142,-0.00201438,-0.00000079,0.00000025,0.00111575,0.000
 00083,-0.00000336,0.00781818,-0.00001189,-0.00002448,-0.03647218,-0.00
 000100,0.00000054,0.00956355,-0.00000059,-0.00000146,0.00354180,0.0000
 1274,0.00002764,0.02137894,-0.00164806,0.00036907,0.00000041,-0.004164
 92,-0.00405548,0.00000048,-0.00566282,0.01074239,-0.00000135,0.0054628
 3,-0.00043214,-0.00000011,-0.00034356,0.00216333,-0.00000005,0.0011295
 3,-0.00121090,0.00000002,-0.00012822,0.00008826,0.,0.00007265,0.000006
 89,-0.00000003,0.00010746,0.00001079,0.00000001,0.00010217,-0.00006053
 ,-0.00000009,0.01117936,0.00041557,0.00000195,0.00111577,-0.00336936,-
 0.00000013,0.02658850,0.00918382,0.00000155,-0.03564385,0.02318691,0.0
 0000037,-0.12039298,0.05991693,0.00000636,-0.02013514,-0.08527241,-0.0
 0000805,-0.00063235,0.00055201,0.00000040,0.67848446,0.00079607,-0.000
 01467,-0.00000013,0.00042001,0.00035758,-0.00000009,0.00135689,-0.0021
 3189,0.00000032,-0.00145868,0.00011842,0.00000002,0.00018231,-0.000542
 08,0.00000001,-0.00041155,0.00021764,0.00000001,0.00001618,-0.00000276
 ,0.,-0.00001476,-0.00000619,0.00000001,-0.00002697,-0.00000350,0.,0.00
 000268,0.00001761,0.00000003,-0.00120778,0.00029408,-0.00000070,0.0010
 9651,-0.00037599,-0.00000007,0.00863123,-0.02997037,-0.00000217,0.0099
 5287,-0.00689967,-0.00000016,0.06622057,-0.23246703,-0.00001377,-0.036
 10030,0.00591194,-0.00000075,-0.00010703,0.00078049,0.00000002,0.06230
 477,0.67022658,0.00000022,0.00000010,0.00024486,0.00000021,0.00000040,
 0.00058781,0.00000110,-0.00000083,0.00130191,-0.00000049,0.,-0.0002235
 2,0.00000009,-0.00000021,-0.00004885,-0.00000008,0.00000013,-0.0001501
 5,0.,0.00000001,0.00013465,0.00000001,0.,0.00010142,-0.00000001,0.,0.0
 0002375,0.,0.,-0.00007697,-0.00000069,0.00000272,-0.00435466,0.0000000
 3,-0.00000036,0.00214340,0.00000115,-0.00000338,0.01322587,-0.00000105
 ,0.00000166,-0.00499394,0.00000566,-0.00001412,-0.06810481,-0.00000325
 ,-0.00000299,0.00765776,0.00000017,0.00000029,-0.00223665,0.00001767,0
 .00005171,0.10832080,0.00180969,0.00028918,-0.00000040,0.00567121,0.00
 460346,-0.00000081,0.00838277,-0.01361843,0.00000085,-0.00741292,0.000
 55367,0.00000026,0.00050424,-0.00356121,0.00000016,-0.00048151,0.00174
 333,-0.00000003,0.00009962,-0.00009689,-0.00000005,-0.00000748,0.00001
 954,-0.00000003,-0.00008793,-0.00002932,-0.00000003,-0.00006004,0.0000
 7066,0.00000010,-0.01182383,0.00784761,0.,-0.00062572,0.00214006,-0.00
 000015,-0.01772231,-0.01315760,-0.00000177,0.06080235,-0.00574557,0.00
 000173,-0.05311563,0.02386092,-0.00000202,-0.15549646,-0.02719390,-0.0
 0000379,-0.00231705,0.00447555,0.00000006,-0.32667360,-0.05183295,-0.0
 0000906,0.66013280,0.00003098,0.00091792,-0.00000016,0.00271334,0.0011
 7226,-0.00000007,0.00321079,-0.00395118,0.00000057,-0.00324131,0.00040
 531,0.00000009,0.00019462,-0.00239994,0.00000011,0.00099638,0.00083188
 ,-0.00000007,0.00000190,-0.00005049,0.00000001,0.00001805,0.,0.,0.0000
 2015,-0.00004709,-0.00000001,0.00001824,0.00003399,0.00000002,0.000497
 58,0.00459287,-0.00000158,-0.00170879,0.00039278,0.00000010,-0.0305872
 2,-0.00291657,-0.00000093,0.04636382,-0.05939919,-0.00000403,0.0011746
 6,0.02270667,-0.00000034,-0.12056146,-0.31546801,-0.00002446,0.0034779
 0,-0.00221567,-0.00000054,0.01673831,-0.12359597,-0.00000654,-0.051809
 19,0.72017541,0.00000001,0.00000005,0.00013079,0.00000028,0.00000002,-
 0.00028423,0.00000003,-0.00000034,-0.00103765,-0.00000027,0.00000004,0
 .00010322,-0.00000001,-0.00000019,0.00009030,0.00000007,0.00000004,0.0
 0002648,0.,-0.00000001,-0.00006037,0.,0.,-0.00011912,0.,0.,-0.00000586
 ,0.,0.,0.00000182,0.00000008,-0.00000035,0.00133526,-0.00000011,0.0000
 0024,-0.00000907,-0.00000352,-0.00000067,-0.00117242,0.00000547,-0.000
 00577,0.00757747,0.00000019,0.00000399,0.00126532,-0.00001211,-0.00002
 284,-0.05709167,0.00000008,-0.00000037,0.00377674,-0.00000480,-0.00000
 813,-0.04938776,0.00000629,0.00005223,0.11358805,0.00007730,-0.0000943
 9,0.,-0.00011517,0.00011212,0.,-0.00001253,-0.00006474,0.,0.00001954,0
 .00001040,0.,0.00000321,0.00010217,0.,-0.00014729,-0.00001301,0.,0.000
 00452,0.00000774,0.,0.00000033,-0.00000441,0.,-0.00001081,0.00000564,0
 .,-0.00000842,0.00000364,0.,-0.00015327,0.00036835,-0.00000002,0.00003
 153,0.00000751,0.,0.00049093,0.00299030,0.00000020,-0.01351316,-0.0063
 7152,-0.00000105,0.00062300,0.00034862,0.00000010,-0.34056976,-0.04577
 540,-0.00001123,0.00070712,0.00012752,0.00000006,0.00124989,-0.0021335
 8,-0.00000036,-0.00631046,0.00269313,-0.00000005,0.35803772,-0.0000039
 4,0.00001186,0.,-0.00003240,-0.00009160,0.,0.00001555,0.00018549,-0.00
 000005,0.00005601,-0.00004900,0.,0.00001035,0.00003348,0.,0.00000703,-
 0.00002507,0.,-0.00000086,-0.00000194,0.,0.00000079,0.00000153,0.,0.00
 000417,-0.00000375,0.,0.00000308,-0.00000175,0.,0.00041054,-0.00041180
 ,0.00000005,0.00002395,0.00002867,-0.00000002,0.00275515,-0.00439186,-
 0.00000058,0.02441587,0.00669771,0.00000082,0.00048164,-0.00090854,0.0
 0000011,-0.04527976,-0.06636946,-0.00000402,-0.00023447,0.00088247,0.0
 0000026,-0.00140332,-0.00523623,-0.00000108,-0.02880966,0.00234876,-0.
 00000102,0.04835722,0.06515996,0.,0.,0.00000358,-0.00000005,-0.0000000
 2,0.00007181,0.00000002,0.00000010,0.00047111,0.00000004,0.,0.00005154
 ,0.,0.00000002,-0.00005703,0.,0.,0.00000208,0.,0.,0.00001390,0.,0.,0.0
 0003559,0.,0.,-0.00001455,0.,0.,-0.00000916,0.00000002,0.00000003,0.00
 000377,0.,-0.00000003,-0.00010744,-0.00000018,-0.00000049,0.00404890,0
 .00000145,0.,0.00483730,-0.00000002,-0.00000022,-0.00152910,-0.0000108
 7,-0.00000417,-0.03470405,0.00000003,0.00000028,-0.00224061,0.00000011
 ,-0.00000091,0.00657201,-0.00000279,-0.00000042,0.00667799,0.00001220,
 0.00000495,0.02145659,-0.00011132,0.00002626,0.,0.00008746,0.00004656,
 0.00000001,-0.00009845,0.00007496,0.00000001,0.00004343,0.00001181,0.,
 -0.00002025,-0.00003804,0.,0.00008690,0.00001473,0.,0.00000033,-0.0000
 0406,0.,-0.00000484,0.00000051,0.,0.00000335,-0.00000055,0.,-0.0000022
 5,-0.00000203,0.,0.00018047,-0.00019775,-0.00000009,-0.00027417,0.0001
 1219,0.00000005,-0.00290494,0.00287048,0.00000010,0.00001239,0.0003151
 3,0.,0.00904878,0.01910627,0.00000203,-0.00596245,0.00081364,-0.000000
 16,0.00007760,-0.00010881,-0.00000003,-0.10231976,-0.10747143,-0.00001
 128,-0.00507796,-0.02832058,-0.00000283,-0.00045245,-0.00142597,-0.000
 00011,0.10438019,0.00004591,0.00005415,0.00000004,-0.00011647,-0.00013
 278,0.00000003,0.00006931,0.00005827,0.,-0.00000813,-0.00000477,0.,0.0
 0001218,-0.00003201,0.,0.00004446,-0.00001661,0.,-0.00000647,0.0000020
 1,0.,0.00000745,0.00000336,0.,0.00000722,-0.00000319,0.,0.00001108,-0.
 00000123,0.,-0.00018871,0.00022448,-0.00000006,0.00031553,-0.00022653,
 0.00000008,0.00397065,-0.00266537,-0.00000026,0.00050679,0.00029464,0.
 00000007,-0.01497647,-0.01815044,-0.00000253,-0.00002931,0.00141898,-0
 .00000045,-0.00007826,-0.00004608,-0.00000005,-0.10567323,-0.29951750,
 -0.00002699,0.00280947,0.00173972,-0.00000040,0.00010273,-0.00003671,0
 .00000011,0.11463645,0.31441183,0.,-0.00000009,-0.00036656,-0.00000028
 ,-0.00000010,-0.00030820,-0.00000028,0.00000034,0.00009246,0.00000023,
 -0.00000002,0.00002768,0.,0.00000015,-0.00005652,-0.00000007,-0.000000
 05,0.00007854,0.,0.,-0.00003130,0.,0.,0.00003550,0.,0.,-0.00000806,0.,
 0.,0.00007727,-0.00000011,-0.00000070,0.00072922,0.00000016,0.00000002
 ,-0.00084007,0.00000046,0.00000041,0.00223719,0.00000017,-0.00000032,-
 0.00003025,-0.00000311,-0.00000254,0.00432345,-0.00000027,-0.00000051,
 0.00548800,-0.00000007,-0.00000003,0.00019329,-0.00001062,-0.00002757,
 -0.03138701,0.00000041,-0.00000020,0.00453940,0.,0.00000001,-0.0004832
 5,0.00001217,0.00002971,0.02077908,0.00004292,-0.00001697,0.,0.0000192
 9,0.00011128,-0.00000002,0.00018698,-0.00013676,-0.00000004,-0.0000861
 7,0.00000341,0.,0.00001363,-0.00000852,0.,-0.00005083,0.00001398,0.,0.
 00000121,0.00000338,0.,0.00000527,-0.00000297,0.,-0.00000601,0.0000011
 9,0.,-0.00000380,0.00000355,0.,0.00017045,0.00047204,0.00000011,-0.000
 07504,0.00011697,-0.00000006,-0.00047950,-0.00042858,-0.00000015,0.000
 14309,-0.00270557,-0.00000033,-0.00274979,-0.00391562,-0.00000038,0.01
 039423,-0.01126036,-0.00000090,0.00039590,-0.00052040,0.00000002,-0.01
 216570,0.02633915,0.00000206,-0.16668157,0.14018382,0.00000922,0.00072
 016,0.00039261,0.00000017,0.00106260,-0.00035392,0.00000003,0.17140186
 ,0.00000102,0.00006015,-0.00000001,0.00016348,0.00008728,-0.00000004,0
 .00019958,-0.00031356,-0.00000002,-0.00018244,0.00002089,0.,0.00000779
 ,-0.00014648,0.,0.00007747,0.00004960,0.,-0.00000208,-0.00000679,0.,0.
 00000175,0.00000469,0.,0.00000554,-0.00000299,0.,0.00000512,-0.0000015
 1,0.,-0.00029692,0.00005943,0.00000008,-0.00008479,0.00005484,0.,-0.00
 052647,0.00036906,0.00000004,-0.00327193,-0.00354506,-0.00000092,-0.00
 215095,0.00045137,-0.00000050,0.02051297,-0.01604822,-0.00000121,0.000
 91594,-0.00109274,-0.00000010,-0.00508578,0.00661875,0.00000030,0.1386
 5695,-0.23806858,-0.00001537,-0.00012456,0.00098633,0.00000050,0.00027
 739,0.00061203,0.00000032,-0.14929177,0.24916755,-0.00000002,0.0000000
 5,0.00000605,0.00000014,0.00000004,0.00008242,0.00000014,-0.00000017,0
 .00013661,-0.00000012,0.00000002,0.00000292,0.,-0.00000010,-0.00000027
 ,0.00000006,0.00000004,-0.00000582,0.,0.,0.00000748,0.,0.,0.00001257,0
 .,0.,0.00000055,0.,0.,-0.00000960,0.00000009,0.00000027,-0.00019466,-0
 .00000009,0.,-0.00009697,0.00000020,-0.00000018,-0.00077911,-0.0000004
 0,-0.00000085,0.00619593,-0.00000077,-0.00000064,0.00649899,0.00000205
 ,-0.00000160,0.00324314,0.00000008,-0.00000017,0.00051678,0.,0.0000008
 4,0.00327751,0.00000847,-0.00001557,-0.03366303,0.00000014,0.00000047,
 -0.00413845,0.00000011,0.00000041,-0.00339898,-0.00000982,0.00001681,0
 .02345271,-0.00124418,-0.00749860,0.00000025,-0.00538459,0.02168616,-0
 .00000010,-0.05784778,0.02900935,0.00000132,0.00721086,-0.00231992,-0.
 00000027,-0.00126743,0.00549901,-0.00000020,-0.00591149,-0.00233116,0.
 00000013,0.00034022,-0.00064367,0.00000008,-0.00061816,-0.00009227,-0.
 00000003,0.00016113,-0.00007133,0.00000002,-0.00063275,-0.00022301,0.0
 0000006,-0.36470014,-0.04800520,0.00001374,-0.04743059,-0.04009193,0.0
 0000276,-0.15152489,0.06810333,0.00000402,-0.03549781,0.03417086,0.000
 00095,0.04162605,0.00889780,0.00000094,-0.00466658,-0.00947896,-0.0000
 0022,0.00015882,0.00059955,-0.00000122,-0.00678708,-0.00332052,-0.0000
 0174,0.00087661,0.00354125,0.00000101,-0.00051520,0.00070655,-0.000000
 09,0.00055879,-0.00111478,0.00000034,0.00002318,0.00001988,-0.00000033
 ,0.65765092,-0.00057387,-0.00054310,-0.00000014,0.02352912,-0.01636687
 ,0.00000078,0.01695820,0.01183638,-0.00000198,0.00176961,-0.00595736,0
 .00000052,-0.00046298,-0.00116755,0.00000018,0.00152505,-0.00075575,-0
 .00000002,0.00014759,-0.00047635,0.00000005,-0.00041119,0.00005578,-0.
 00000005,0.00031702,-0.00045249,-0.00000003,-0.00022979,0.00002723,0.0
 0000002,-0.03512390,-0.12720053,0.00000305,-0.00354464,-0.16190206,0.0
 0000542,0.04426988,-0.17209905,-0.00000249,0.02411582,0.00755618,0.000
 00046,0.01511379,-0.04855553,-0.00000149,-0.00380907,0.00146683,-0.000
 00157,-0.00146814,0.00046505,0.00000142,-0.01400815,-0.00152355,0.0000
 0009,0.00902864,-0.00061474,0.00000008,-0.00057579,0.00094449,0.000000
 07,0.00062940,-0.00062563,-0.00000073,0.00006765,0.00035847,0.00000038
 ,-0.05466409,0.50383239,-0.00000014,0.00000035,0.00079500,-0.00000120,
 -0.00000006,-0.00105509,0.00000032,-0.00000025,0.00444528,0.00000002,0
 .00000049,0.00178020,0.00000004,-0.00000021,0.00123216,0.00000046,0.00
 000017,0.00063517,-0.00000002,0.00000003,-0.00028851,0.00000003,-0.000
 00002,-0.00065116,-0.00000002,0.,-0.00043506,0.00000003,0.,-0.00020069
 ,0.00001640,0.00000608,-0.02705084,0.00000153,0.00000436,-0.01630364,0
 .00000053,-0.00000159,-0.03292980,-0.00000107,0.00000199,0.00675491,0.
 00000265,-0.00000255,0.00320846,0.00000037,-0.00000214,0.00503686,0.00
 000021,0.00000037,-0.00357208,-0.00000154,0.00000029,-0.00096897,0.000
 00101,0.00000069,-0.00048107,0.00000006,0.00000013,-0.00099935,-0.0000
 0002,-0.00000033,0.00223491,0.00000012,0.00000006,-0.00046416,-0.00002
 080,-0.00000773,0.06296713,-0.00036563,0.00125686,0.00000021,-0.000426
 20,0.00093263,-0.00000030,0.00641127,0.00023138,-0.00000091,-0.0004061
 5,-0.00016063,0.00000015,0.00003105,-0.00088636,0.00000011,0.00145252,
 0.00018931,-0.00000002,-0.00016949,0.00014223,-0.00000004,0.00029568,0
 .00008370,-0.00000013,0.00005077,0.00000273,-0.00000003,0.00009369,0.0
 0001885,-0.00000005,0.00698938,0.03076157,0.00000482,0.00060228,-0.000
 69066,-0.00000047,-0.03720047,-0.04569897,-0.00000465,0.00442628,-0.00
 510906,-0.00000041,-0.53156560,-0.07170321,-0.00002102,-0.01049443,-0.
 00582544,-0.00000086,-0.00172447,-0.00079178,0.00000008,-0.09015769,0.
 02719791,-0.00000103,0.01598536,0.01379226,0.00000113,-0.00022780,-0.0
 0045047,0.00000002,0.00170693,-0.00000672,0.00000095,-0.00243049,0.000
 24087,0.00000005,-0.01865478,0.00706632,-0.00000031,0.65331051,-0.0005
 9995,-0.00035358,0.,0.00065232,-0.00283439,0.00000054,-0.00785659,-0.0
 0084920,0.00000023,0.00087524,-0.00032262,-0.00000008,-0.00000981,0.00
 063380,-0.00000005,0.00004019,-0.00049313,0.00000002,0.00010149,-0.000
 20725,0.00000004,0.00007308,0.00003087,0.,0.00010405,-0.00006549,0.,0.
 00002781,-0.00004110,0.,0.01653690,-0.03687233,-0.00000646,0.00030663,
 0.00050984,0.00000020,-0.04394639,-0.01059680,-0.00000167,-0.00241949,
 -0.01005833,-0.00000158,-0.07148674,-0.09868613,-0.00000529,0.00084201
 ,-0.00259479,0.00000004,-0.00234806,-0.00018711,-0.00000044,0.03873746
 ,0.01800265,-0.00000003,0.00224274,-0.00239990,-0.00000095,-0.00006420
 ,0.00037589,0.00000022,-0.00160035,0.00279791,0.00000142,0.00154129,0.
 00029214,0.00000019,0.00355580,0.01021371,0.00000066,0.07067998,0.1443
 9639,-0.00000030,-0.00000005,0.00023616,0.00000021,-0.00000094,-0.0004
 0177,-0.00000206,0.00000024,-0.00059663,0.00000036,0.00000002,0.000194
 90,-0.00000007,0.00000010,0.00021650,0.00000017,-0.00000016,0.00006590
 ,0.00000002,-0.00000005,-0.00010667,0.,0.,-0.00025894,0.00000003,-0.00
 000001,-0.00003600,0.,0.,-0.00007221,0.00000344,-0.00000763,0.01156834
 ,0.,0.00000015,-0.00161379,-0.00000349,-0.00000444,0.01653734,-0.00000
 026,-0.00000097,0.00253313,-0.00002038,-0.00000495,-0.05567481,-0.0000
 0059,-0.00000083,0.00003169,-0.00000004,0.00000014,-0.00180588,-0.0000
 0161,0.00000134,0.01781311,0.00000138,0.00000089,0.00376025,-0.0000000
 1,-0.00000001,0.00013977,0.,0.00000062,-0.00390297,0.00000006,0.000000
 03,-0.00057786,0.00000063,0.00000132,-0.00254417,0.00002451,0.00001471
 ,0.02112168,0.00134781,0.00059548,-0.00000006,-0.00363063,0.00501129,-
 0.00000029,0.01422010,0.02429608,-0.00000133,0.00104045,0.00101476,-0.
 00000010,-0.00015425,-0.00019160,0.00000003,-0.00032577,-0.00005548,0.
 00000003,-0.00021302,0.00031046,-0.00000003,-0.00104060,-0.00063912,0.
 00000002,0.00000584,-0.00001749,0.,-0.00004615,-0.00007458,0.,-0.12532
 589,-0.15421652,0.00000772,-0.00423586,-0.00241792,0.00000010,0.002161
 65,-0.00041952,-0.00000071,-0.00024657,-0.00001773,0.00000005,-0.01056
 476,0.00277007,0.00000054,0.00045031,-0.00005826,-0.00000015,0.0002554
 4,0.00014057,0.00000030,0.00136310,-0.00043159,0.00000067,-0.00037016,
 0.00056136,-0.00000017,0.00007107,0.00000035,0.00000004,-0.00002038,0.
 00001323,-0.00000011,0.00014812,-0.00006807,0.00000002,-0.00592311,-0.
 02966650,0.00000135,0.00246748,-0.00598540,-0.00000199,0.12856577,0.00
 023746,-0.00033390,0.00000016,0.00305225,0.00232169,-0.00000007,0.0024
 2088,-0.02050142,0.00000095,-0.00288250,0.00259177,0.00000005,-0.00030
 415,-0.00161432,0.00000009,-0.00020209,0.00098661,-0.00000007,0.000060
 50,0.00007840,0.,0.00070858,-0.00049169,-0.00000005,-0.00020511,0.0001
 6918,-0.00000002,-0.00004375,0.00008782,-0.00000003,-0.14735190,-0.395
 58185,0.00002200,0.00292285,0.00774355,-0.00000044,-0.00713659,0.00452
 938,0.00000179,0.00570640,-0.00321082,-0.00000039,0.02165427,0.0063490
 1,0.00000205,-0.00357371,0.00622864,0.00000085,-0.00067928,-0.00031912
 ,-0.00000083,-0.00384521,-0.00025833,-0.00000090,-0.00248705,-0.004190
 24,-0.00000029,-0.00001547,-0.00012892,-0.00000002,0.00023380,-0.00015
 853,0.00000046,-0.00060889,0.00003335,-0.00000023,-0.00593411,0.001484
 01,-0.00000078,-0.02127330,-0.01069104,0.00000051,0.15954612,0.4048767
 9,-0.00000005,0.00000031,0.00060378,0.00000006,0.00000048,0.00345229,0
 .00000143,0.00000108,0.00111308,-0.00000004,-0.00000009,-0.00160952,-0
 .00000003,-0.00000018,-0.00056918,0.00000022,0.00000005,-0.00003042,-0
 .00000005,0.00000003,-0.00007262,-0.00000003,-0.00000002,0.00026803,0.
 ,0.00000001,0.00011813,0.,0.,0.00002096,0.00000682,0.00002150,-0.01508
 004,0.00000013,0.00000036,0.00376532,0.00000022,-0.00000067,-0.0019518
 4,-0.00000083,0.00000009,-0.00018774,0.00000183,0.00000163,0.00091502,
 0.00000015,-0.00000050,0.00011551,-0.00000008,0.,-0.00007731,-0.000000
 93,-0.00000015,0.00052842,0.00000023,0.00000020,0.00043915,-0.00000002
 ,0.,-0.00010295,0.00000003,-0.00000001,-0.00002283,-0.00000007,0.00000
 003,-0.00010475,-0.00000127,0.00000236,-0.00114549,-0.00000181,-0.0000
 0174,-0.00662709,-0.00000592,-0.00002479,0.01624210\\0.00249969,0.0034
 5323,-0.00000012,0.00486111,0.00659419,0.,0.00832534,-0.00061542,-0.00
 000055,-0.00158833,0.00260753,0.00000017,0.00012027,-0.00074029,0.0000
 0001,0.00240291,0.00243470,-0.00000011,0.00005687,0.00040273,-0.000000
 19,0.00008856,0.00012624,0.00000003,0.00001883,0.00024703,0.,0.0002016
 1,0.00022407,-0.00000006,-0.01427712,0.00780633,0.00000525,0.00229218,
 0.00443079,-0.00000176,-0.00803020,0.00413488,-0.00000018,0.00642168,0
 .00030456,0.00000041,0.01352061,0.00219897,-0.00000432,-0.00252324,0.0
 0846024,-0.00000007,0.00004748,0.00009447,0.00000019,-0.00217119,0.000
 50258,0.00000221,-0.00380300,0.00057256,0.00000011,-0.00016240,0.00026
 766,0.00000008,-0.00002172,-0.00002634,-0.00000020,-0.00036488,0.00000
 083,0.00000004,-0.00891947,-0.00599305,0.00000071,-0.00668343,-0.01147
 794,0.00000052,0.00768783,-0.02601054,-0.00000217\\\@
 The archive entry for this job was punched.


 GROWING OLD ISN'T SO BAD -- WHEN YOU CONSIDER THE ALTERNATIVE.

                     -- MAURICE CHEVALIER
 Job cpu time:       0 days  2 hours 53 minutes 35.2 seconds.
 Elapsed time:       0 days  0 hours 17 minutes 52.4 seconds.
 File lengths (MBytes):  RWF=   1380 Int=      0 D2E=      0 Chk=     48 Scr=      8
 Normal termination of Gaussian 16 at Mon Jul 13 19:43:16 2020.
