 Entering Gaussian System, Link 0=g16
 Initial command:
 /gpfs/loomis/apps/avx/software/Gaussian/16-C.01_AVX/g16/l1.exe "/home/fas/batista/pev4/scratch60/gauss-scratch/Gau-88541.inp" -scrdir="/home/fas/batista/pev4/scratch60/gauss-scratch/"
 Entering Link 1 = /gpfs/loomis/apps/avx/software/Gaussian/16-C.01_AVX/g16/l1.exe PID=     88542.
  
 Copyright (c) 1988-2019, Gaussian, Inc.  All Rights Reserved.
  
 This is part of the Gaussian(R) 16 program.  It is based on
 the Gaussian(R) 09 system (copyright 2009, Gaussian, Inc.),
 the Gaussian(R) 03 system (copyright 2003, Gaussian, Inc.),
 the Gaussian(R) 98 system (copyright 1998, Gaussian, Inc.),
 the Gaussian(R) 94 system (copyright 1995, Gaussian, Inc.),
 the Gaussian 92(TM) system (copyright 1992, Gaussian, Inc.),
 the Gaussian 90(TM) system (copyright 1990, Gaussian, Inc.),
 the Gaussian 88(TM) system (copyright 1988, Gaussian, Inc.),
 the Gaussian 86(TM) system (copyright 1986, Carnegie Mellon
 University), and the Gaussian 82(TM) system (copyright 1983,
 Carnegie Mellon University). Gaussian is a federally registered
 trademark of Gaussian, Inc.
  
 This software contains proprietary and confidential information,
 including trade secrets, belonging to Gaussian, Inc.
  
 This software is provided under written license and may be
 used, copied, transmitted, or stored only in accord with that
 written license.
  
 The following legend is applicable only to US Government
 contracts under FAR:
  
                    RESTRICTED RIGHTS LEGEND
  
 Use, reproduction and disclosure by the US Government is
 subject to restrictions as set forth in subparagraphs (a)
 and (c) of the Commercial Computer Software - Restricted
 Rights clause in FAR 52.227-19.
  
 Gaussian, Inc.
 340 Quinnipiac St., Bldg. 40, Wallingford CT 06492
  
  
 ---------------------------------------------------------------
 Warning -- This program may not be used in any manner that
 competes with the business of Gaussian, Inc. or will provide
 assistance to any competitor of Gaussian, Inc.  The licensee
 of this program is prohibited from giving any competitor of
 Gaussian, Inc. access to this program.  By using this program,
 the user acknowledges that Gaussian, Inc. is engaged in the
 business of creating and licensing software in the field of
 computational chemistry and represents and warrants to the
 licensee that it is not a competitor of Gaussian, Inc. and that
 it will not use this program in any manner prohibited above.
 ---------------------------------------------------------------
  

 Cite this work as:
 Gaussian 16, Revision C.01,
 M. J. Frisch, G. W. Trucks, H. B. Schlegel, G. E. Scuseria, 
 M. A. Robb, J. R. Cheeseman, G. Scalmani, V. Barone, 
 G. A. Petersson, H. Nakatsuji, X. Li, M. Caricato, A. V. Marenich, 
 J. Bloino, B. G. Janesko, R. Gomperts, B. Mennucci, H. P. Hratchian, 
 J. V. Ortiz, A. F. Izmaylov, J. L. Sonnenberg, D. Williams-Young, 
 F. Ding, F. Lipparini, F. Egidi, J. Goings, B. Peng, A. Petrone, 
 T. Henderson, D. Ranasinghe, V. G. Zakrzewski, J. Gao, N. Rega, 
 G. Zheng, W. Liang, M. Hada, M. Ehara, K. Toyota, R. Fukuda, 
 J. Hasegawa, M. Ishida, T. Nakajima, Y. Honda, O. Kitao, H. Nakai, 
 T. Vreven, K. Throssell, J. A. Montgomery, Jr., J. E. Peralta, 
 F. Ogliaro, M. J. Bearpark, J. J. Heyd, E. N. Brothers, K. N. Kudin, 
 V. N. Staroverov, T. A. Keith, R. Kobayashi, J. Normand, 
 K. Raghavachari, A. P. Rendell, J. C. Burant, S. S. Iyengar, 
 J. Tomasi, M. Cossi, J. M. Millam, M. Klene, C. Adamo, R. Cammi, 
 J. W. Ochterski, R. L. Martin, K. Morokuma, O. Farkas, 
 J. B. Foresman, and D. J. Fox, Gaussian, Inc., Wallingford CT, 2019.
 
 ******************************************
 Gaussian 16:  ES64L-G16RevC.01  3-Jul-2019
                13-Jul-2020 
 ******************************************
 %chk=config_12_14.chk
 %mem=58GB
 %nprocshared=10
 Will use up to   10 processors via shared memory.
 ----------------------------------------------------------------------
 #p opt=addgic freq td wb97xd/cc-pvdz nosymm int=ultrafine scrf=(solven
 t=CarbonTetraChloride)
 ----------------------------------------------------------------------
 1/18=20,19=15,26=6,38=1,145=903/1,3;
 2/9=110,12=2,15=1,17=6,18=5,40=1/2;
 3/5=16,11=9,25=1,30=1,70=2201,71=1,72=11,74=-58,75=-5/1,2,3,8;
 4//1;
 5/5=2,38=5,53=11/2;
 8/6=1,10=1/1;
 9/15=2,42=1,70=2/14;
 10/5=4,31=1/2;
 6/7=2,8=2,9=2,10=2/1;
 7/12=6,13=5,30=1/1,2,3,16;
 1/18=20,19=15,26=6,145=903/3(2);
 2/9=110,15=1/2;
 99//99;
 2/9=110,15=1/2;
 3/5=16,11=9,25=1,30=1,70=2205,71=1,72=11,74=-58,75=-5/1,2,3,8;
 4/5=5,16=3,69=1/1;
 5/5=2,38=5,53=11/2;
 8/6=1,10=1/1;
 9/15=2,42=1,49=4,70=2/14;
 10/5=4,31=1/2;
 7/12=6,13=5,30=1/1,2,3,16;
 1/18=20,19=15,26=6,145=903/3(-8);
 2/9=110,15=1/2;
 6/7=2,8=2,9=2,10=2/1;
 99/9=10/99;
 Leave Link    1 at Mon Jul 13 20:36:58 2020, MaxMem=  7784628224 cpu:               4.9 elap:               0.5
 (Enter /gpfs/loomis/apps/avx/software/Gaussian/16-C.01_AVX/g16/l101.exe)
 ------------------------------------------------
 NM 2D-scan of HBT TD-WB97XD pVDZ in CTC Relaxed.
 ------------------------------------------------
 Symbolic Z-matrix:
 Charge =  0 Multiplicity = 1
 C                     1.57824  -3.24813  -0.00002 
 C                     1.01021  -1.97174  -0.00002 
 C                     1.78834  -0.78506  -0.00002 
 C                     3.17654  -0.90298  -0.00003 
 C                     3.74722  -2.18328  -0.00002 
 C                     2.96874  -3.34536  -0.00002 
 H                     0.94251  -4.13887  -0.00001 
 H                     3.81066  -0.01126  -0.00003 
 H                     4.83657  -2.26792  -0.00002 
 H                     3.44759  -4.32717  -0.00001 
 N                     0.98297   0.36558  -0.00003 
 S                    -0.70664  -1.63034  -0.00002 
 C                    -1.34908   1.06689   0.00001 
 C                    -2.68939   0.75489   0.00002 
 C                    -0.87375   2.46941   0.00004 
 C                    -3.65765   1.80436   0.00003 
 H                    -3.03284  -0.28432   0.00001 
 C                    -1.90011   3.47814   0.00004 
 C                    -3.26281   3.13896   0.00004 
 H                    -4.71895   1.5415    0.00003 
 H                    -1.56476   4.51907   0.00006 
 H                    -4.01936   3.92664   0.00005 
 C                    -0.34316   0.05683  -0.00002 
 O                     0.3531    2.69399   0.00005 
 H                     1.15211   0.96377  0. 
 
 Initializing the GIC definitions file.
 Number of initial coordinates =   134
 Number of input entries/lines =    52
 Number of additional coordinates =     2
 Number of removed coordinates =     0
 Number of frozen coordinates =     2
 Number of final active and frozen coordinates =   136
 ITRead=  0  0  0  0  0  0  0  0  0  0  0  0  0  0  0  0  0  0  0  0
 ITRead=  0  0  0  0  0
 MicOpt= -1 -1 -1 -1 -1 -1 -1 -1 -1 -1 -1 -1 -1 -1 -1 -1 -1 -1 -1 -1
 MicOpt= -1 -1 -1 -1 -1
 NAtoms=     25 NQM=       25 NQMF=       0 NMMI=      0 NMMIF=      0
                NMic=       0 NMicF=      0.
                    Isotopes and Nuclear Properties:
 (Nuclear quadrupole moments (NQMom) in fm**2, nuclear magnetic moments (NMagM)
  in nuclear magnetons)

  Atom         1           2           3           4           5           6           7           8           9          10
 IAtWgt=          12          12          12          12          12          12           1           1           1           1
 AtmWgt=  12.0000000  12.0000000  12.0000000  12.0000000  12.0000000  12.0000000   1.0078250   1.0078250   1.0078250   1.0078250
 NucSpn=           0           0           0           0           0           0           1           1           1           1
 AtZEff=  -0.0000000  -0.0000000  -0.0000000  -0.0000000  -0.0000000  -0.0000000  -0.0000000  -0.0000000  -0.0000000  -0.0000000
 NQMom=    0.0000000   0.0000000   0.0000000   0.0000000   0.0000000   0.0000000   0.0000000   0.0000000   0.0000000   0.0000000
 NMagM=    0.0000000   0.0000000   0.0000000   0.0000000   0.0000000   0.0000000   2.7928460   2.7928460   2.7928460   2.7928460
 AtZNuc=   6.0000000   6.0000000   6.0000000   6.0000000   6.0000000   6.0000000   1.0000000   1.0000000   1.0000000   1.0000000

  Atom        11          12          13          14          15          16          17          18          19          20
 IAtWgt=          14          32          12          12          12          12           1          12          12           1
 AtmWgt=  14.0030740  31.9720718  12.0000000  12.0000000  12.0000000  12.0000000   1.0078250  12.0000000  12.0000000   1.0078250
 NucSpn=           2           0           0           0           0           0           1           0           0           1
 AtZEff=  -0.0000000  -0.0000000  -0.0000000  -0.0000000  -0.0000000  -0.0000000  -0.0000000  -0.0000000  -0.0000000  -0.0000000
 NQMom=    2.0440000   0.0000000   0.0000000   0.0000000   0.0000000   0.0000000   0.0000000   0.0000000   0.0000000   0.0000000
 NMagM=    0.4037610   0.0000000   0.0000000   0.0000000   0.0000000   0.0000000   2.7928460   0.0000000   0.0000000   2.7928460
 AtZNuc=   7.0000000  16.0000000   6.0000000   6.0000000   6.0000000   6.0000000   1.0000000   6.0000000   6.0000000   1.0000000

  Atom        21          22          23          24          25
 IAtWgt=           1           1          12          16           1
 AtmWgt=   1.0078250   1.0078250  12.0000000  15.9949146   1.0078250
 NucSpn=           1           1           0           0           1
 AtZEff=  -0.0000000  -0.0000000  -0.0000000  -0.0000000  -0.0000000
 NQMom=    0.0000000   0.0000000   0.0000000   0.0000000   0.0000000
 NMagM=    2.7928460   2.7928460   0.0000000   0.0000000   2.7928460
 AtZNuc=   1.0000000   1.0000000   6.0000000   8.0000000   1.0000000
 Leave Link  101 at Mon Jul 13 20:37:01 2020, MaxMem=  7784628224 cpu:              31.4 elap:               3.2
 (Enter /gpfs/loomis/apps/avx/software/Gaussian/16-C.01_AVX/g16/l103.exe)

 GradGradGradGradGradGradGradGradGradGradGradGradGradGradGradGradGradGrad
 Berny optimization.
 Initialization pass.
                           ----------------------------
                           !    Initial Parameters    !
                           ! (Angstroms and Degrees)  !
 --------------------------                            --------------------------
 ! Name  Definition              Value          Derivative Info.                !
 --------------------------------------------------------------------------------
 ! R1    R(1,2)                  1.3971         estimate D2E/DX2                !
 ! R2    R(1,6)                  1.3939         estimate D2E/DX2                !
 ! R3    R(1,7)                  1.0943         estimate D2E/DX2                !
 ! R4    R(2,3)                  1.419          estimate D2E/DX2                !
 ! R5    R(2,12)                 1.7505         estimate D2E/DX2                !
 ! R6    R(3,4)                  1.3932         estimate D2E/DX2                !
 ! R7    R(3,11)                 1.4045         estimate D2E/DX2                !
 ! R8    R(4,5)                  1.4017         estimate D2E/DX2                !
 ! R9    R(4,8)                  1.0942         estimate D2E/DX2                !
 ! R10   R(5,6)                  1.3987         estimate D2E/DX2                !
 ! R11   R(5,9)                  1.0926         estimate D2E/DX2                !
 ! R12   R(6,10)                 1.0924         estimate D2E/DX2                !
 ! R13   R(11,23)                1.3616         estimate D2E/DX2                !
 ! R14   R(11,25)                0.6216         estimate D2E/DX2                !
 ! R15   R(12,23)                1.7259         estimate D2E/DX2                !
 ! R16   R(13,14)                1.3761         estimate D2E/DX2                !
 ! R17   R(13,15)                1.4809         estimate D2E/DX2                !
 ! R18   R(13,23)                1.4255         estimate D2E/DX2                !
 ! R19   R(14,16)                1.4279         estimate D2E/DX2                !
 ! R20   R(14,17)                1.0945         estimate D2E/DX2                !
 ! R21   R(15,18)                1.4391         estimate D2E/DX2                !
 ! R22   R(15,24)                1.2472         estimate D2E/DX2                !
 ! R23   R(16,19)                1.3918         estimate D2E/DX2                !
 ! R24   R(16,20)                1.0934         estimate D2E/DX2                !
 ! R25   R(18,19)                1.4043         estimate D2E/DX2                !
 ! R26   R(18,21)                1.0936         estimate D2E/DX2                !
 ! R27   R(19,22)                1.0922         estimate D2E/DX2                !
 ! A1    A(2,1,6)              117.9904         estimate D2E/DX2                !
 ! A2    A(2,1,7)              120.4938         estimate D2E/DX2                !
 ! A3    A(6,1,7)              121.5158         estimate D2E/DX2                !
 ! A4    A(1,2,3)              122.756          estimate D2E/DX2                !
 ! A5    A(1,2,12)             125.2373         estimate D2E/DX2                !
 ! A6    A(3,2,12)             112.0067         estimate D2E/DX2                !
 ! A7    A(2,3,4)              118.3981         estimate D2E/DX2                !
 ! A8    A(2,3,11)             111.7569         estimate D2E/DX2                !
 ! A9    A(4,3,11)             129.845          estimate D2E/DX2                !
 ! A10   A(3,4,5)              118.8799         estimate D2E/DX2                !
 ! A11   A(3,4,8)              120.5621         estimate D2E/DX2                !
 ! A12   A(5,4,8)              120.558          estimate D2E/DX2                !
 ! A13   A(4,5,6)              122.1573         estimate D2E/DX2                !
 ! A14   A(4,5,9)              118.4678         estimate D2E/DX2                !
 ! A15   A(6,5,9)              119.3749         estimate D2E/DX2                !
 ! A16   A(1,6,5)              119.8183         estimate D2E/DX2                !
 ! A17   A(1,6,10)             119.9994         estimate D2E/DX2                !
 ! A18   A(5,6,10)             120.1823         estimate D2E/DX2                !
 ! A19   A(3,11,23)            111.8836         estimate D2E/DX2                !
 ! A20   A(3,11,25)            129.2215         estimate D2E/DX2                !
 ! A21   A(23,11,25)           118.8949         estimate D2E/DX2                !
 ! A22   A(2,12,23)             89.0889         estimate D2E/DX2                !
 ! A23   A(14,13,15)           121.8265         estimate D2E/DX2                !
 ! A24   A(14,13,23)           121.7783         estimate D2E/DX2                !
 ! A25   A(15,13,23)           116.3953         estimate D2E/DX2                !
 ! A26   A(13,14,16)           119.5909         estimate D2E/DX2                !
 ! A27   A(13,14,17)           121.3925         estimate D2E/DX2                !
 ! A28   A(16,14,17)           119.0167         estimate D2E/DX2                !
 ! A29   A(13,15,18)           115.7815         estimate D2E/DX2                !
 ! A30   A(13,15,24)           119.0953         estimate D2E/DX2                !
 ! A31   A(18,15,24)           125.1231         estimate D2E/DX2                !
 ! A32   A(14,16,19)           120.8241         estimate D2E/DX2                !
 ! A33   A(14,16,20)           118.7845         estimate D2E/DX2                !
 ! A34   A(19,16,20)           120.3914         estimate D2E/DX2                !
 ! A35   A(15,18,19)           121.5192         estimate D2E/DX2                !
 ! A36   A(15,18,21)           116.6463         estimate D2E/DX2                !
 ! A37   A(19,18,21)           121.8344         estimate D2E/DX2                !
 ! A38   A(16,19,18)           120.4578         estimate D2E/DX2                !
 ! A39   A(16,19,22)           119.6738         estimate D2E/DX2                !
 ! A40   A(18,19,22)           119.8684         estimate D2E/DX2                !
 ! A41   A(11,23,12)           115.2639         estimate D2E/DX2                !
 ! A42   A(11,23,13)           121.7765         estimate D2E/DX2                !
 ! A43   A(12,23,13)           122.9596         estimate D2E/DX2                !
 ! D1    D(6,1,2,3)              0.0            estimate D2E/DX2                !
 ! D2    D(6,1,2,12)           180.0            estimate D2E/DX2                !
 ! D3    D(7,1,2,3)            179.9999         estimate D2E/DX2                !
 ! D4    D(7,1,2,12)            -0.0001         estimate D2E/DX2                !
 ! D5    D(2,1,6,5)             -0.0001         estimate D2E/DX2                !
 ! D6    D(2,1,6,10)           179.9999         estimate D2E/DX2                !
 ! D7    D(7,1,6,5)            180.0            estimate D2E/DX2                !
 ! D8    D(7,1,6,10)             0.0            estimate D2E/DX2                !
 ! D9    D(1,2,3,4)              0.0002         estimate D2E/DX2                !
 ! D10   D(1,2,3,11)          -180.0            estimate D2E/DX2                !
 ! D11   D(12,2,3,4)          -179.9998         estimate D2E/DX2                !
 ! D12   D(12,2,3,11)            0.0            estimate D2E/DX2                !
 ! D13   D(1,2,12,23)          179.9997         estimate D2E/DX2                !
 ! D14   D(3,2,12,23)           -0.0002         estimate D2E/DX2                !
 ! D15   D(2,3,4,5)             -0.0002         estimate D2E/DX2                !
 ! D16   D(2,3,4,8)            179.9999         estimate D2E/DX2                !
 ! D17   D(11,3,4,5)           180.0            estimate D2E/DX2                !
 ! D18   D(11,3,4,8)             0.0001         estimate D2E/DX2                !
 ! D19   D(2,3,11,23)            0.0003         estimate D2E/DX2                !
 ! D20   D(2,3,11,25)          179.9968         estimate D2E/DX2                !
 ! D21   D(4,3,11,23)         -179.9999         estimate D2E/DX2                !
 ! D22   D(4,3,11,25)           -0.0034         estimate D2E/DX2                !
 ! D23   D(3,4,5,6)              0.0001         estimate D2E/DX2                !
 ! D24   D(3,4,5,9)           -179.9999         estimate D2E/DX2                !
 ! D25   D(8,4,5,6)            180.0            estimate D2E/DX2                !
 ! D26   D(8,4,5,9)              0.0            estimate D2E/DX2                !
 ! D27   D(4,5,6,1)              0.0001         estimate D2E/DX2                !
 ! D28   D(4,5,6,10)          -179.9999         estimate D2E/DX2                !
 ! D29   D(9,5,6,1)           -179.9999         estimate D2E/DX2                !
 ! D30   D(9,5,6,10)             0.0            estimate D2E/DX2                !
 ! D31   D(3,11,23,12)          -0.0005         estimate D2E/DX2                !
 ! D32   D(3,11,23,13)         179.9985         estimate D2E/DX2                !
 ! D33   D(25,11,23,12)       -179.9974         estimate D2E/DX2                !
 ! D34   D(25,11,23,13)          0.0016         estimate D2E/DX2                !
 ! D35   D(2,12,23,11)           0.0005         estimate D2E/DX2                !
 ! D36   D(2,12,23,13)        -179.9986         estimate D2E/DX2                !
 ! D37   D(15,13,14,16)          0.0009         estimate D2E/DX2                !
 ! D38   D(15,13,14,17)       -179.9995         estimate D2E/DX2                !
 ! D39   D(23,13,14,16)       -179.9992         estimate D2E/DX2                !
 ! D40   D(23,13,14,17)          0.0004         estimate D2E/DX2                !
 ! D41   D(14,13,15,18)         -0.0011         estimate D2E/DX2                !
 ! D42   D(14,13,15,24)        179.9987         estimate D2E/DX2                !
 ! D43   D(23,13,15,18)        179.999          estimate D2E/DX2                !
 ! D44   D(23,13,15,24)         -0.0012         estimate D2E/DX2                !
 ! D45   D(14,13,23,11)        180.0            estimate D2E/DX2                !
 ! D46   D(14,13,23,12)         -0.0011         estimate D2E/DX2                !
 ! D47   D(15,13,23,11)         -0.0001         estimate D2E/DX2                !
 ! D48   D(15,13,23,12)        179.9989         estimate D2E/DX2                !
 ! D49   D(13,14,16,19)         -0.0002         estimate D2E/DX2                !
 ! D50   D(13,14,16,20)        179.9998         estimate D2E/DX2                !
 ! D51   D(17,14,16,19)       -179.9998         estimate D2E/DX2                !
 ! D52   D(17,14,16,20)          0.0001         estimate D2E/DX2                !
 ! D53   D(13,15,18,19)          0.0006         estimate D2E/DX2                !
 ! D54   D(13,15,18,21)        180.0            estimate D2E/DX2                !
 ! D55   D(24,15,18,19)       -179.9992         estimate D2E/DX2                !
 ! D56   D(24,15,18,21)          0.0002         estimate D2E/DX2                !
 ! D57   D(14,16,19,18)         -0.0003         estimate D2E/DX2                !
 ! D58   D(14,16,19,22)        179.9999         estimate D2E/DX2                !
 ! D59   D(20,16,19,18)        179.9997         estimate D2E/DX2                !
 ! D60   D(20,16,19,22)         -0.0001         estimate D2E/DX2                !
 ! D61   D(15,18,19,16)          0.0001         estimate D2E/DX2                !
 ! D62   D(15,18,19,22)        179.9999         estimate D2E/DX2                !
 ! D63   D(21,18,19,16)       -179.9993         estimate D2E/DX2                !
 ! D64   D(21,18,19,22)          0.0005         estimate D2E/DX2                !
 ! Qtot  GIC-1                  60.0            Frozen                          !
 ! Ptot  GIC-2                 120.0            Frozen                          !
 --------------------------------------------------------------------------------
 NOTE: GIC-type coordinates are in arbitrary units.
 Trust Radius=3.00D-01 FncErr=5.00D-06 GrdErr=5.00D-06 EigMax=2.50D+02 EigMin=1.00D-04
 Number of steps in this run=    146 maximum allowed number of steps=    150.
 GradGradGradGradGradGradGradGradGradGradGradGradGradGradGradGradGradGrad

 Leave Link  103 at Mon Jul 13 20:37:01 2020, MaxMem=  7784628224 cpu:               0.1 elap:               0.0
 (Enter /gpfs/loomis/apps/avx/software/Gaussian/16-C.01_AVX/g16/l202.exe)
                          Input orientation:                          
 ---------------------------------------------------------------------
 Center     Atomic      Atomic             Coordinates (Angstroms)
 Number     Number       Type             X           Y           Z
 ---------------------------------------------------------------------
      1          6           0        1.578245   -3.248128   -0.000018
      2          6           0        1.010214   -1.971745   -0.000022
      3          6           0        1.788341   -0.785061   -0.000025
      4          6           0        3.176535   -0.902981   -0.000028
      5          6           0        3.747216   -2.183275   -0.000024
      6          6           0        2.968736   -3.345357   -0.000018
      7          1           0        0.942513   -4.138875   -0.000015
      8          1           0        3.810658   -0.011259   -0.000032
      9          1           0        4.836571   -2.267924   -0.000024
     10          1           0        3.447588   -4.327172   -0.000013
     11          7           0        0.982965    0.365578   -0.000028
     12         16           0       -0.706636   -1.630342   -0.000024
     13          6           0       -1.349084    1.066893    0.000010
     14          6           0       -2.689389    0.754888    0.000017
     15          6           0       -0.873753    2.469411    0.000035
     16          6           0       -3.657648    1.804358    0.000031
     17          1           0       -3.032838   -0.284323    0.000006
     18          6           0       -1.900113    3.478143    0.000044
     19          6           0       -3.262807    3.138964    0.000041
     20          1           0       -4.718947    1.541503    0.000033
     21          1           0       -1.564759    4.519065    0.000063
     22          1           0       -4.019356    3.926635    0.000049
     23          6           0       -0.343156    0.056831   -0.000021
     24          8           0        0.353101    2.693987    0.000052
     25          1           0        1.152111    0.963774   -0.000003
 ---------------------------------------------------------------------
                    Distance matrix (angstroms):
                    1          2          3          4          5
     1  C    0.000000
     2  C    1.397073   0.000000
     3  C    2.472011   1.419049   0.000000
     4  C    2.838000   2.415616   1.393193   0.000000
     5  C    2.416268   2.745164   2.406698   1.401724   0.000000
     6  C    1.393887   2.392200   2.819300   2.451200   1.398737
     7  H    1.094342   2.168187   3.458828   3.932157   3.419171
     8  H    3.932046   3.418477   2.165302   1.094203   2.172943
     9  H    3.402571   3.837802   3.389777   2.149137   1.092639
    10  H    2.158421   3.389518   3.911477   3.434902   2.164733
    11  N    3.662407   2.337481   1.404493   2.533967   3.760018
    12  S    2.799627   1.750466   2.634277   3.950706   4.488044
    13  C    5.214274   3.847026   3.643237   4.935751   6.044491
    14  C    5.851225   4.595823   4.735136   6.095703   7.075500
    15  C    6.221137   4.824230   4.204561   5.270471   6.557503
    16  C    7.276138   6.003989   6.030248   7.350901   8.410305
    17  H    5.481443   4.381057   4.847113   6.240116   7.040962
    18  C    7.572429   6.178291   5.637340   6.705714   7.996498
    19  C    8.014407   6.661686   6.396255   7.602792   8.801515
    20  H    7.911712   6.720580   6.910695   8.265237   9.249319
    21  H    8.379007   6.982915   6.275112   7.202670   8.552102
    22  H    9.100020   7.751611   7.478598   8.666374   9.881835
    23  C    3.822896   2.438592   2.291738   3.648214   4.663606
    24  O    6.067100   4.711778   3.763468   4.572741   5.942029
    25  H    4.233403   2.938946   1.860970   2.753736   4.079030
                    6          7          8          9         10
     6  C    0.000000
     7  H    2.176063   0.000000
     8  H    3.438756   5.026277   0.000000
     9  H    2.156309   4.320202   2.478918   0.000000
    10  H    1.092364   2.512142   4.331158   2.483904   0.000000
    11  N    4.208839   4.504634   2.852692   4.667506   5.300591
    12  S    4.055816   3.002071   4.798685   5.579755   4.952825
    13  C    6.173453   5.687832   5.271181   7.027328   7.218310
    14  C    6.987589   6.094229   6.545043   8.110331   7.968050
    15  C    6.969667   6.853340   5.300701   7.419578   8.054039
    16  C    8.392171   7.515550   7.685834   9.419938   9.385097
    17  H    6.737123   5.537236   6.848941   8.115557   7.638099
    18  C    8.382472   8.130158   6.692445   8.854388   9.461546
    19  C    8.993251   8.405454   7.743243   9.738294  10.038556
    20  H    9.109439   8.019902   8.669788  10.286868  10.056523
    21  H    9.077539   9.013675   7.029860   9.329536  10.167573
    22  H   10.085401   9.469562   8.764481  10.807405  11.130166
    23  C    4.748001   4.388268   4.154372   5.677505   5.795621
    24  O    6.581431   6.858236   4.390109   6.687456   7.672844
    25  H    4.676402   5.106951   2.831705   4.900930   5.767436
                   11         12         13         14         15
    11  N    0.000000
    12  S    2.615043   0.000000
    13  C    2.435220   2.772691   0.000000
    14  C    3.692932   3.101714   1.376141   0.000000
    15  C    2.805979   4.103158   1.480877   2.497223   0.000000
    16  C    4.858537   4.528314   2.423493   1.427905   2.862231
    17  H    4.068052   2.687560   2.158891   1.094494   3.499242
    18  C    4.242664   5.246046   2.473411   2.835326   1.439081
    19  C    5.071317   5.411127   2.820606   2.452066   2.481104
    20  H    5.821907   5.114610   3.403120   2.176664   3.955569
    21  H    4.872613   6.208992   3.458903   3.928590   2.163000
    22  H    6.140387   6.469475   3.912605   3.439301   3.466745
    23  C    1.361588   1.725883   1.425523   2.447875   2.470238
    24  O    2.412098   4.452288   2.354755   3.607887   1.247239
    25  H    0.621650   3.191297   2.503321   3.847176   2.524098
                   16         17         18         19         20
    16  C    0.000000
    17  H    2.180132   0.000000
    18  C    2.427032   3.929277   0.000000
    19  C    1.391788   3.431003   1.404271   0.000000
    20  H    1.093365   2.485278   3.420000   2.161533   0.000000
    21  H    3.427801   5.022728   1.093609   2.188160   4.337600
    22  H    2.152881   4.324973   2.166180   1.092150   2.485615
    23  C    3.746959   2.711231   3.758921   4.245457   4.620800
    24  O    4.108229   4.509425   2.385764   3.643184   5.201335
    25  H    4.882660   4.367098   3.954507   4.921683   5.899415
                   21         22         23         24         25
    21  H    0.000000
    22  H    2.525078   0.000000
    23  C    4.626429   5.337587   0.000000
    24  O    2.647469   4.542885   2.727520   0.000000
    25  H    4.474537   5.960086   1.748819   1.905796   0.000000
 Symmetry turned off by external request.
 Stoichiometry    C13H9NOS
 Framework group  C1[X(C13H9NOS)]
 Deg. of freedom    69
 Full point group                 C1      NOp   1
 Rotational constants (GHZ):           1.4159361           0.2861637           0.2380528
 Leave Link  202 at Mon Jul 13 20:37:01 2020, MaxMem=  7784628224 cpu:               0.1 elap:               0.0
 (Enter /gpfs/loomis/apps/avx/software/Gaussian/16-C.01_AVX/g16/l301.exe)
 Standard basis: CC-pVDZ (5D, 7F)
 Ernie: Thresh=  0.10000D-02 Tol=  0.10000D-05 Strict=F.
 Ernie:  40 primitive shells out of 425 were deleted.
   273 basis functions,   629 primitive gaussians,   289 cartesian basis functions
    59 alpha electrons       59 beta electrons
       nuclear repulsion energy      1104.2879844016 Hartrees.
 IExCor= 4639 DFT=T Ex+Corr=wB97XD ExCW=0 ScaHFX=  1.000000
 ScaDFX=  1.000000  1.000000  1.000000  1.000000 ScalE2=  1.000000  1.000000
 IRadAn=      5 IRanWt=     -1 IRanGd=            0 ICorTp=0 IEmpDi=121
 HFx  wShort=  0.000000 wLong=  0.200000 cFull=  0.222036 cShort=  0.000000 cLong=  0.777964
 DFx  wShort=  0.000000 wLong=  0.200000 cFull=  0.000000 cShort=  0.000000 cLong=  1.000000
 NAtoms=   25 NActive=   25 NUniq=   25 SFac= 1.00D+00 NAtFMM=   60 NAOKFM=F Big=F
 Integral buffers will be    131072 words long.
 Raffenetti 1 integral format.
 Two-electron integral symmetry is turned off.
 R6Disp:  Grimme-D2 Dispersion energy=       -0.0140864371 Hartrees.
 Nuclear repulsion after empirical dispersion term =     1104.2738979645 Hartrees.
 ------------------------------------------------------------------------------
 Polarizable Continuum Model (PCM)
 =================================
 Model                : PCM.
 Atomic radii         : UFF (Universal Force Field).
 Polarization charges : Total charges.
 Charge compensation  : None.
 Solution method      : On-the-fly selection.
 Cavity type          : Scaled VdW (van der Waals Surface) (Alpha=1.100).
 Cavity algorithm     : GePol (No added spheres)
                        Default sphere list used, NSphG=   25.
                        Lebedev-Laikov grids with approx.  5.0 points / Ang**2.
                        Smoothing algorithm: York/Karplus (Gamma=1.0000).
                        Polarization charges: spherical gaussians, with
                                              point-specific exponents (IZeta= 3).
                        Self-potential: point-specific (ISelfS= 7).
                        Self-field    : sphere-specific E.n sum rule (ISelfD= 2).
 1st derivatives      : Analytical E(r).r(x)/FMM algorithm (CHGder, D1EAlg=3).
                        Cavity 1st derivative terms included.
 Solvent              : CarbonTetraChloride, Eps=   2.228000 Eps(inf)=   2.131892
 ------------------------------------------------------------------------------
 GePol: Number of generator spheres                  =      25
 GePol: Total number of spheres                      =      25
 GePol: Number of exposed spheres                    =      25 (100.00%)
 GePol: Number of points                             =    2192
 GePol: Average weight of points                     =       0.12
 GePol: Minimum weight of points                     =   0.23D-11
 GePol: Maximum weight of points                     =    0.20577
 GePol: Number of points with low weight             =     142
 GePol: Fraction of low-weight points (<1% of avg)   =       6.48%
 GePol: Cavity surface area                          =    271.535 Ang**2
 GePol: Cavity volume                                =    291.235 Ang**3
 Leave Link  301 at Mon Jul 13 20:37:01 2020, MaxMem=  7784628224 cpu:               0.8 elap:               0.1
 (Enter /gpfs/loomis/apps/avx/software/Gaussian/16-C.01_AVX/g16/l302.exe)
 NPDir=0 NMtPBC=     1 NCelOv=     1 NCel=       1 NClECP=     1 NCelD=      1
         NCelK=      1 NCelE2=     1 NClLst=     1 CellRange=     0.0.
 One-electron integrals computed using PRISM.
 NBasis=   273 RedAO= T EigKep=  3.03D-04  NBF=   273
 NBsUse=   273 1.00D-06 EigRej= -1.00D+00 NBFU=   273
 Precomputing XC quadrature grid using
 IXCGrd= 4 IRadAn=           5 IRanWt=          -1 IRanGd=           0 AccXCQ= 0.00D+00.
 Generated NRdTot=       0 NPtTot=           0 NUsed=           0 NTot=          32
 NSgBfM=   288   288   288   288   288 MxSgAt=    25 MxSgA2=    25.
 Leave Link  302 at Mon Jul 13 20:37:01 2020, MaxMem=  7784628224 cpu:               2.6 elap:               0.4
 (Enter /gpfs/loomis/apps/avx/software/Gaussian/16-C.01_AVX/g16/l303.exe)
 DipDrv:  MaxL=1.
 Leave Link  303 at Mon Jul 13 20:37:02 2020, MaxMem=  7784628224 cpu:               0.6 elap:               0.1
 (Enter /gpfs/loomis/apps/avx/software/Gaussian/16-C.01_AVX/g16/l308.exe)
 Leave Link  308 at Mon Jul 13 20:37:02 2020, MaxMem=  7784628224 cpu:               0.8 elap:               0.1
 (Enter /gpfs/loomis/apps/avx/software/Gaussian/16-C.01_AVX/g16/l401.exe)
 ExpMin= 1.22D-01 ExpMax= 1.11D+05 ExpMxC= 1.07D+03 IAcc=3 IRadAn=         5 AccDes= 0.00D+00
 Harris functional with IExCor= 4639 and IRadAn=       5 diagonalized for initial guess.
 HarFok:  IExCor= 4639 AccDes= 0.00D+00 IRadAn=         5 IDoV= 1 UseB2=F ITyADJ=14
 ICtDFT=  3500011 ScaDFX=  1.000000  1.000000  1.000000  1.000000
 FoFCou: FMM=F IPFlag=           0 FMFlag=      100000 FMFlg1=           0
         NFxFlg=           0 DoJE=T BraDBF=F KetDBF=T FulRan=T
         wScrn=  0.000000 ICntrl=       500 IOpCl=  0 I1Cent=   200000004 NGrid=           0
         NMat0=    1 NMatS0=      1 NMatT0=    0 NMatD0=    1 NMtDS0=    0 NMtDT0=    0
 Symmetry not used in FoFCou.
 Harris En= -994.087177334557    
 JPrj=0 DoOrth=F DoCkMO=F.
 Leave Link  401 at Mon Jul 13 20:37:03 2020, MaxMem=  7784628224 cpu:              13.5 elap:               1.4
 (Enter /gpfs/loomis/apps/avx/software/Gaussian/16-C.01_AVX/g16/l502.exe)
 Two-electron integral symmetry not used.
 Closed shell SCF:
 Using DIIS extrapolation, IDIIS=  1040.
 NGot=  7784628224 LenX=  7784455381 LenY=  7784371419
 Requested convergence on RMS density matrix=1.00D-08 within 128 cycles.
 Requested convergence on MAX density matrix=1.00D-06.
 Requested convergence on             energy=1.00D-06.
 No special actions if energy rises.
 Fock matrices will be formed incrementally for  20 cycles.

 Cycle   1  Pass 1  IDiag  1:
 FoFJK:  IHMeth= 1 ICntrl=       0 DoSepK=T KAlg= 0 I1Cent=           0 FoldK=F
 IRaf=         1 NMat=       1 IRICut=       1 DoRegI=T DoRafI=F ISym2E= 0 IDoP0=0 IntGTp=1.
 FoFCou: FMM=F IPFlag=           0 FMFlag=      100000 FMFlg1=           0
         NFxFlg=           0 DoJE=T BraDBF=F KetDBF=F FulRan=T
         wScrn=  0.000000 ICntrl=       500 IOpCl=  0 I1Cent=           0 NGrid=           0
         NMat0=    1 NMatS0=      1 NMatT0=    0 NMatD0=    1 NMtDS0=    0 NMtDT0=    0
 Symmetry not used in FoFCou.
 Inv3:  Mode=1 IEnd=    14414592.
 Iteration    1 A*A^-1 deviation from unit magnitude is 6.44D-15 for   2190.
 Iteration    1 A*A^-1 deviation from orthogonality  is 2.36D-15 for   1138    591.
 Iteration    1 A^-1*A deviation from unit magnitude is 6.44D-15 for   2190.
 Iteration    1 A^-1*A deviation from orthogonality  is 1.49D-15 for   2177   2009.
 E= -1028.18449322710    
 DIIS: error= 3.97D-02 at cycle   1 NSaved=   1.
 NSaved= 1 IEnMin= 1 EnMin= -1028.18449322710     IErMin= 1 ErrMin= 3.97D-02
 ErrMax= 3.97D-02  0.00D+00 EMaxC= 1.00D-01 BMatC= 4.07D-01 BMatP= 4.07D-01
 IDIUse=3 WtCom= 6.03D-01 WtEn= 3.97D-01
 Coeff-Com:  0.100D+01
 Coeff-En:   0.100D+01
 Coeff:      0.100D+01
 Gap=     0.291 Goal=   None    Shift=    0.000
 GapD=    0.291 DampG=1.000 DampE=0.500 DampFc=0.5000 IDamp=-1.
 Damping current iteration by 5.00D-01
 RMSDP=3.77D-03 MaxDP=2.63D-01              OVMax= 2.19D-01

 Cycle   2  Pass 1  IDiag  1:
 RMSU=  1.88D-03    CP:  9.93D-01
 E= -1028.31311498163     Delta-E=       -0.128621754530 Rises=F Damp=T
 DIIS: error= 1.04D-02 at cycle   2 NSaved=   2.
 NSaved= 2 IEnMin= 2 EnMin= -1028.31311498163     IErMin= 2 ErrMin= 1.04D-02
 ErrMax= 1.04D-02  0.00D+00 EMaxC= 1.00D-01 BMatC= 5.82D-02 BMatP= 4.07D-01
 IDIUse=3 WtCom= 8.96D-01 WtEn= 1.04D-01
 Coeff-Com: -0.268D+00 0.127D+01
 Coeff-En:   0.000D+00 0.100D+01
 Coeff:     -0.240D+00 0.124D+01
 Gap=     0.366 Goal=   None    Shift=    0.000
 RMSDP=1.17D-03 MaxDP=2.94D-02 DE=-1.29D-01 OVMax= 1.41D-01

 Cycle   3  Pass 1  IDiag  1:
 RMSU=  1.13D-03    CP:  9.91D-01  1.16D+00
 E= -1028.43098439827     Delta-E=       -0.117869416645 Rises=F Damp=F
 DIIS: error= 5.22D-03 at cycle   3 NSaved=   3.
 NSaved= 3 IEnMin= 3 EnMin= -1028.43098439827     IErMin= 3 ErrMin= 5.22D-03
 ErrMax= 5.22D-03  0.00D+00 EMaxC= 1.00D-01 BMatC= 1.45D-02 BMatP= 5.82D-02
 IDIUse=3 WtCom= 9.48D-01 WtEn= 5.22D-02
 Coeff-Com: -0.193D+00 0.473D+00 0.720D+00
 Coeff-En:   0.000D+00 0.000D+00 0.100D+01
 Coeff:     -0.183D+00 0.448D+00 0.735D+00
 Gap=     0.231 Goal=   None    Shift=    0.000
 RMSDP=5.06D-04 MaxDP=2.11D-02 DE=-1.18D-01 OVMax= 4.52D-02

 Cycle   4  Pass 1  IDiag  1:
 RMSU=  4.02D-04    CP:  9.89D-01  1.31D+00  8.89D-01
 E= -1028.44497981723     Delta-E=       -0.013995418957 Rises=F Damp=F
 DIIS: error= 1.87D-03 at cycle   4 NSaved=   4.
 NSaved= 4 IEnMin= 4 EnMin= -1028.44497981723     IErMin= 4 ErrMin= 1.87D-03
 ErrMax= 1.87D-03  0.00D+00 EMaxC= 1.00D-01 BMatC= 1.64D-03 BMatP= 1.45D-02
 IDIUse=3 WtCom= 9.81D-01 WtEn= 1.87D-02
 Coeff-Com: -0.683D-01 0.135D+00 0.336D+00 0.597D+00
 Coeff-En:   0.000D+00 0.000D+00 0.000D+00 0.100D+01
 Coeff:     -0.670D-01 0.132D+00 0.330D+00 0.605D+00
 Gap=     0.234 Goal=   None    Shift=    0.000
 RMSDP=1.59D-04 MaxDP=8.36D-03 DE=-1.40D-02 OVMax= 1.17D-02

 Cycle   5  Pass 1  IDiag  1:
 RMSU=  1.13D-04    CP:  9.89D-01  1.32D+00  9.50D-01  7.89D-01
 E= -1028.44675908663     Delta-E=       -0.001779269394 Rises=F Damp=F
 DIIS: error= 6.45D-04 at cycle   5 NSaved=   5.
 NSaved= 5 IEnMin= 5 EnMin= -1028.44675908663     IErMin= 5 ErrMin= 6.45D-04
 ErrMax= 6.45D-04  0.00D+00 EMaxC= 1.00D-01 BMatC= 6.43D-05 BMatP= 1.64D-03
 IDIUse=3 WtCom= 9.94D-01 WtEn= 6.45D-03
 Coeff-Com:  0.195D-04-0.640D-02 0.240D-01 0.161D+00 0.821D+00
 Coeff-En:   0.000D+00 0.000D+00 0.000D+00 0.000D+00 0.100D+01
 Coeff:      0.194D-04-0.636D-02 0.238D-01 0.160D+00 0.822D+00
 Gap=     0.235 Goal=   None    Shift=    0.000
 RMSDP=6.50D-05 MaxDP=2.22D-03 DE=-1.78D-03 OVMax= 7.72D-03

 Cycle   6  Pass 1  IDiag  1:
 RMSU=  4.23D-05    CP:  9.88D-01  1.32D+00  9.68D-01  8.91D-01  1.14D+00
 E= -1028.44691613093     Delta-E=       -0.000157044302 Rises=F Damp=F
 DIIS: error= 2.84D-04 at cycle   6 NSaved=   6.
 NSaved= 6 IEnMin= 6 EnMin= -1028.44691613093     IErMin= 6 ErrMin= 2.84D-04
 ErrMax= 2.84D-04  0.00D+00 EMaxC= 1.00D-01 BMatC= 1.30D-05 BMatP= 6.43D-05
 IDIUse=3 WtCom= 9.97D-01 WtEn= 2.84D-03
 Coeff-Com:  0.174D-01-0.357D-01-0.702D-01-0.849D-01 0.224D+00 0.950D+00
 Coeff-En:   0.000D+00 0.000D+00 0.000D+00 0.000D+00 0.000D+00 0.100D+01
 Coeff:      0.174D-01-0.356D-01-0.700D-01-0.847D-01 0.223D+00 0.950D+00
 Gap=     0.236 Goal=   None    Shift=    0.000
 RMSDP=4.34D-05 MaxDP=2.22D-03 DE=-1.57D-04 OVMax= 5.13D-03

 Cycle   7  Pass 1  IDiag  1:
 RMSU=  2.04D-05    CP:  9.88D-01  1.32D+00  9.83D-01  9.32D-01  1.38D+00
                    CP:  1.34D+00
 E= -1028.44696486964     Delta-E=       -0.000048738715 Rises=F Damp=F
 DIIS: error= 9.49D-05 at cycle   7 NSaved=   7.
 NSaved= 7 IEnMin= 7 EnMin= -1028.44696486964     IErMin= 7 ErrMin= 9.49D-05
 ErrMax= 9.49D-05  0.00D+00 EMaxC= 1.00D-01 BMatC= 2.64D-06 BMatP= 1.30D-05
 IDIUse=1 WtCom= 1.00D+00 WtEn= 0.00D+00
 Coeff-Com:  0.661D-02-0.124D-01-0.282D-01-0.559D-01-0.315D-01 0.364D+00
 Coeff-Com:  0.758D+00
 Coeff:      0.661D-02-0.124D-01-0.282D-01-0.559D-01-0.315D-01 0.364D+00
 Coeff:      0.758D+00
 Gap=     0.236 Goal=   None    Shift=    0.000
 RMSDP=1.67D-05 MaxDP=6.36D-04 DE=-4.87D-05 OVMax= 2.14D-03

 Cycle   8  Pass 1  IDiag  1:
 RMSU=  8.59D-06    CP:  9.88D-01  1.32D+00  9.85D-01  9.43D-01  1.44D+00
                    CP:  1.60D+00  1.18D+00
 E= -1028.44697271270     Delta-E=       -0.000007843052 Rises=F Damp=F
 DIIS: error= 6.64D-05 at cycle   8 NSaved=   8.
 NSaved= 8 IEnMin= 8 EnMin= -1028.44697271270     IErMin= 8 ErrMin= 6.64D-05
 ErrMax= 6.64D-05  0.00D+00 EMaxC= 1.00D-01 BMatC= 4.83D-07 BMatP= 2.64D-06
 IDIUse=1 WtCom= 1.00D+00 WtEn= 0.00D+00
 Coeff-Com: -0.158D-02 0.346D-02 0.708D-02 0.199D-02-0.385D-01-0.107D+00
 Coeff-Com:  0.218D+00 0.917D+00
 Coeff:     -0.158D-02 0.346D-02 0.708D-02 0.199D-02-0.385D-01-0.107D+00
 Coeff:      0.218D+00 0.917D+00
 Gap=     0.237 Goal=   None    Shift=    0.000
 RMSDP=8.51D-06 MaxDP=2.35D-04 DE=-7.84D-06 OVMax= 1.43D-03

 Cycle   9  Pass 1  IDiag  1:
 RMSU=  3.45D-06    CP:  9.88D-01  1.32D+00  9.85D-01  9.43D-01  1.46D+00
                    CP:  1.71D+00  1.44D+00  1.16D+00
 E= -1028.44697470555     Delta-E=       -0.000001992850 Rises=F Damp=F
 DIIS: error= 2.00D-05 at cycle   9 NSaved=   9.
 NSaved= 9 IEnMin= 9 EnMin= -1028.44697470555     IErMin= 9 ErrMin= 2.00D-05
 ErrMax= 2.00D-05  0.00D+00 EMaxC= 1.00D-01 BMatC= 1.54D-07 BMatP= 4.83D-07
 IDIUse=1 WtCom= 1.00D+00 WtEn= 0.00D+00
 Coeff-Com: -0.166D-02 0.327D-02 0.749D-02 0.918D-02-0.103D-01-0.117D+00
 Coeff-Com: -0.442D-01 0.396D+00 0.757D+00
 Coeff:     -0.166D-02 0.327D-02 0.749D-02 0.918D-02-0.103D-01-0.117D+00
 Coeff:     -0.442D-01 0.396D+00 0.757D+00
 Gap=     0.237 Goal=   None    Shift=    0.000
 RMSDP=4.55D-06 MaxDP=1.70D-04 DE=-1.99D-06 OVMax= 6.08D-04

 Cycle  10  Pass 1  IDiag  1:
 RMSU=  1.74D-06    CP:  9.88D-01  1.32D+00  9.85D-01  9.43D-01  1.48D+00
                    CP:  1.77D+00  1.54D+00  1.43D+00  1.12D+00
 E= -1028.44697516443     Delta-E=       -0.000000458881 Rises=F Damp=F
 DIIS: error= 1.39D-05 at cycle  10 NSaved=  10.
 NSaved=10 IEnMin=10 EnMin= -1028.44697516443     IErMin=10 ErrMin= 1.39D-05
 ErrMax= 1.39D-05  0.00D+00 EMaxC= 1.00D-01 BMatC= 2.21D-08 BMatP= 1.54D-07
 IDIUse=1 WtCom= 1.00D+00 WtEn= 0.00D+00
 Coeff-Com:  0.302D-04-0.135D-03 0.167D-03 0.161D-02 0.935D-02-0.125D-01
 Coeff-Com: -0.724D-01-0.827D-01 0.264D+00 0.892D+00
 Coeff:      0.302D-04-0.135D-03 0.167D-03 0.161D-02 0.935D-02-0.125D-01
 Coeff:     -0.724D-01-0.827D-01 0.264D+00 0.892D+00
 Gap=     0.237 Goal=   None    Shift=    0.000
 RMSDP=2.09D-06 MaxDP=5.72D-05 DE=-4.59D-07 OVMax= 3.84D-04

 Cycle  11  Pass 1  IDiag  1:
 RMSU=  6.46D-07    CP:  9.88D-01  1.32D+00  9.85D-01  9.44D-01  1.48D+00
                    CP:  1.79D+00  1.59D+00  1.53D+00  1.43D+00  1.17D+00
 E= -1028.44697526452     Delta-E=       -0.000000100094 Rises=F Damp=F
 DIIS: error= 4.29D-06 at cycle  11 NSaved=  11.
 NSaved=11 IEnMin=11 EnMin= -1028.44697526452     IErMin=11 ErrMin= 4.29D-06
 ErrMax= 4.29D-06  0.00D+00 EMaxC= 1.00D-01 BMatC= 4.76D-09 BMatP= 2.21D-08
 IDIUse=1 WtCom= 1.00D+00 WtEn= 0.00D+00
 Coeff-Com:  0.254D-03-0.524D-03-0.998D-03-0.885D-03 0.523D-02 0.120D-01
 Coeff-Com: -0.172D-01-0.802D-01-0.520D-01 0.293D+00 0.841D+00
 Coeff:      0.254D-03-0.524D-03-0.998D-03-0.885D-03 0.523D-02 0.120D-01
 Coeff:     -0.172D-01-0.802D-01-0.520D-01 0.293D+00 0.841D+00
 Gap=     0.237 Goal=   None    Shift=    0.000
 RMSDP=7.99D-07 MaxDP=2.57D-05 DE=-1.00D-07 OVMax= 1.21D-04

 Cycle  12  Pass 1  IDiag  1:
 RMSU=  2.58D-07    CP:  9.88D-01  1.32D+00  9.85D-01  9.44D-01  1.48D+00
                    CP:  1.80D+00  1.60D+00  1.57D+00  1.53D+00  1.41D+00
                    CP:  1.17D+00
 E= -1028.44697527881     Delta-E=       -0.000000014294 Rises=F Damp=F
 DIIS: error= 1.65D-06 at cycle  12 NSaved=  12.
 NSaved=12 IEnMin=12 EnMin= -1028.44697527881     IErMin=12 ErrMin= 1.65D-06
 ErrMax= 1.65D-06  0.00D+00 EMaxC= 1.00D-01 BMatC= 6.88D-10 BMatP= 4.76D-09
 IDIUse=1 WtCom= 1.00D+00 WtEn= 0.00D+00
 Coeff-Com:  0.118D-03-0.227D-03-0.520D-03-0.926D-03 0.479D-03 0.823D-02
 Coeff-Com:  0.905D-02-0.143D-01-0.851D-01-0.620D-01 0.296D+00 0.849D+00
 Coeff:      0.118D-03-0.227D-03-0.520D-03-0.926D-03 0.479D-03 0.823D-02
 Coeff:      0.905D-02-0.143D-01-0.851D-01-0.620D-01 0.296D+00 0.849D+00
 Gap=     0.237 Goal=   None    Shift=    0.000
 RMSDP=3.27D-07 MaxDP=9.26D-06 DE=-1.43D-08 OVMax= 5.05D-05

 Cycle  13  Pass 1  IDiag  1:
 RMSU=  9.87D-08    CP:  9.88D-01  1.32D+00  9.85D-01  9.44D-01  1.48D+00
                    CP:  1.80D+00  1.60D+00  1.58D+00  1.57D+00  1.50D+00
                    CP:  1.40D+00  1.07D+00
 E= -1028.44697528116     Delta-E=       -0.000000002348 Rises=F Damp=F
 DIIS: error= 6.54D-07 at cycle  13 NSaved=  13.
 NSaved=13 IEnMin=13 EnMin= -1028.44697528116     IErMin=13 ErrMin= 6.54D-07
 ErrMax= 6.54D-07  0.00D+00 EMaxC= 1.00D-01 BMatC= 6.73D-11 BMatP= 6.88D-10
 IDIUse=1 WtCom= 1.00D+00 WtEn= 0.00D+00
 Coeff-Com: -0.917D-05 0.208D-04 0.334D-04-0.733D-04-0.253D-03 0.250D-03
 Coeff-Com:  0.305D-02 0.576D-02-0.112D-01-0.369D-01-0.541D-01 0.175D+00
 Coeff-Com:  0.918D+00
 Coeff:     -0.917D-05 0.208D-04 0.334D-04-0.733D-04-0.253D-03 0.250D-03
 Coeff:      0.305D-02 0.576D-02-0.112D-01-0.369D-01-0.541D-01 0.175D+00
 Coeff:      0.918D+00
 Gap=     0.237 Goal=   None    Shift=    0.000
 RMSDP=8.89D-08 MaxDP=2.26D-06 DE=-2.35D-09 OVMax= 1.06D-05

 Cycle  14  Pass 1  IDiag  1:
 RMSU=  3.54D-08    CP:  9.88D-01  1.32D+00  9.85D-01  9.44D-01  1.48D+00
                    CP:  1.80D+00  1.60D+00  1.59D+00  1.58D+00  1.53D+00
                    CP:  1.45D+00  1.23D+00  1.18D+00
 E= -1028.44697528137     Delta-E=       -0.000000000208 Rises=F Damp=F
 DIIS: error= 1.87D-07 at cycle  14 NSaved=  14.
 NSaved=14 IEnMin=14 EnMin= -1028.44697528137     IErMin=14 ErrMin= 1.87D-07
 ErrMax= 1.87D-07  0.00D+00 EMaxC= 1.00D-01 BMatC= 1.03D-11 BMatP= 6.73D-11
 IDIUse=1 WtCom= 1.00D+00 WtEn= 0.00D+00
 Coeff-Com: -0.149D-04 0.297D-04 0.655D-04 0.648D-04-0.123D-03-0.774D-03
 Coeff-Com:  0.608D-04 0.369D-02 0.456D-02-0.517D-02-0.504D-01-0.338D-01
 Coeff-Com:  0.330D+00 0.751D+00
 Coeff:     -0.149D-04 0.297D-04 0.655D-04 0.648D-04-0.123D-03-0.774D-03
 Coeff:      0.608D-04 0.369D-02 0.456D-02-0.517D-02-0.504D-01-0.338D-01
 Coeff:      0.330D+00 0.751D+00
 Gap=     0.237 Goal=   None    Shift=    0.000
 RMSDP=2.39D-08 MaxDP=5.78D-07 DE=-2.08D-10 OVMax= 2.93D-06

 Cycle  15  Pass 1  IDiag  1:
 RMSU=  1.23D-08    CP:  9.88D-01  1.32D+00  9.85D-01  9.44D-01  1.48D+00
                    CP:  1.80D+00  1.60D+00  1.59D+00  1.58D+00  1.53D+00
                    CP:  1.46D+00  1.26D+00  1.31D+00  1.10D+00
 E= -1028.44697528140     Delta-E=       -0.000000000030 Rises=F Damp=F
 DIIS: error= 7.21D-08 at cycle  15 NSaved=  15.
 NSaved=15 IEnMin=15 EnMin= -1028.44697528140     IErMin=15 ErrMin= 7.21D-08
 ErrMax= 7.21D-08  0.00D+00 EMaxC= 1.00D-01 BMatC= 1.31D-12 BMatP= 1.03D-11
 IDIUse=1 WtCom= 1.00D+00 WtEn= 0.00D+00
 Coeff-Com: -0.227D-05 0.401D-05 0.129D-04 0.339D-04 0.736D-05-0.317D-03
 Coeff-Com: -0.654D-03 0.312D-04 0.358D-02 0.694D-02-0.186D-02-0.518D-01
 Coeff-Com: -0.876D-01 0.174D+00 0.957D+00
 Coeff:     -0.227D-05 0.401D-05 0.129D-04 0.339D-04 0.736D-05-0.317D-03
 Coeff:     -0.654D-03 0.312D-04 0.358D-02 0.694D-02-0.186D-02-0.518D-01
 Coeff:     -0.876D-01 0.174D+00 0.957D+00
 Gap=     0.237 Goal=   None    Shift=    0.000
 RMSDP=1.26D-08 MaxDP=2.92D-07 DE=-2.96D-11 OVMax= 1.44D-06

 Cycle  16  Pass 1  IDiag  1:
 RMSU=  5.14D-09    CP:  9.88D-01  1.32D+00  9.85D-01  9.44D-01  1.48D+00
                    CP:  1.80D+00  1.60D+00  1.59D+00  1.58D+00  1.53D+00
                    CP:  1.47D+00  1.27D+00  1.38D+00  1.29D+00  1.21D+00
 E= -1028.44697528140     Delta-E=       -0.000000000003 Rises=F Damp=F
 DIIS: error= 2.56D-08 at cycle  16 NSaved=  16.
 NSaved=16 IEnMin=16 EnMin= -1028.44697528140     IErMin=16 ErrMin= 2.56D-08
 ErrMax= 2.56D-08  0.00D+00 EMaxC= 1.00D-01 BMatC= 1.33D-13 BMatP= 1.31D-12
 IDIUse=1 WtCom= 1.00D+00 WtEn= 0.00D+00
 Coeff-Com:  0.848D-06-0.182D-05-0.272D-05 0.170D-05 0.102D-04-0.749D-05
 Coeff-Com: -0.170D-03-0.328D-03 0.317D-03 0.203D-02 0.451D-02-0.102D-01
 Coeff-Com: -0.468D-01-0.330D-01 0.235D+00 0.849D+00
 Coeff:      0.848D-06-0.182D-05-0.272D-05 0.170D-05 0.102D-04-0.749D-05
 Coeff:     -0.170D-03-0.328D-03 0.317D-03 0.203D-02 0.451D-02-0.102D-01
 Coeff:     -0.468D-01-0.330D-01 0.235D+00 0.849D+00
 Gap=     0.237 Goal=   None    Shift=    0.000
 RMSDP=3.71D-09 MaxDP=1.19D-07 DE=-2.50D-12 OVMax= 5.06D-07

 Error on total polarization charges =  0.00867
 SCF Done:  E(RwB97XD) =  -1028.44697528     A.U. after   16 cycles
            NFock= 16  Conv=0.37D-08     -V/T= 2.0033
 KE= 1.025070782186D+03 PE=-4.620526920682D+03 EE= 1.462735265251D+03
 Leave Link  502 at Mon Jul 13 20:38:31 2020, MaxMem=  7784628224 cpu:             874.2 elap:              88.3
 (Enter /gpfs/loomis/apps/avx/software/Gaussian/16-C.01_AVX/g16/l801.exe)
 DoSCS=F DFT=T ScalE2(SS,OS)=  1.000000  1.000000
 ExpMin= 1.22D-01 ExpMax= 1.11D+05 ExpMxC= 1.07D+03 IAcc=3 IRadAn=         5 AccDes= 0.00D+00
 HarFok:  IExCor=  205 AccDes= 0.00D+00 IRadAn=         5 IDoV=-2 UseB2=F ITyADJ=14
 ICtDFT= 12500011 ScaDFX=  1.000000  1.000000  1.000000  1.000000
 Largest valence mixing into a core orbital is  9.45D-05
 Largest core mixing into a valence orbital is  3.29D-05
 Range of M.O.s used for correlation:    21   273
 NBasis=   273 NAE=    59 NBE=    59 NFC=    20 NFV=     0
 NROrb=    253 NOA=    39 NOB=    39 NVA=   214 NVB=   214
 Leave Link  801 at Mon Jul 13 20:38:32 2020, MaxMem=  7784628224 cpu:               0.9 elap:               0.2
 (Enter /gpfs/loomis/apps/avx/software/Gaussian/16-C.01_AVX/g16/l914.exe)
 RHF ground state
 Keep R1, R2, and R3 ints in memory in canonical form, NReq=4262515490.
 FoFCou: FMM=F IPFlag=           0 FMFlag=           0 FMFlg1=           0
         NFxFlg=           0 DoJE=F BraDBF=F KetDBF=F FulRan=T
         wScrn=  0.000000 ICntrl=       600 IOpCl=  0 I1Cent=           0 NGrid=           0
         NMat0=    1 NMatS0=  37401 NMatT0=    0 NMatD0=    1 NMtDS0=    0 NMtDT0=    0
 Symmetry not used in FoFCou.
 Two-electron integral symmetry not used.
 MDV=  7784628224 DFT=T DoStab=F Mixed=T DoRPA=T DoScal=F NonHer=T
 NEqPCM:  Using equilibrium solvation (IEInf=0, Eps=   2.2280, EpsInf=   2.1319)
 Making orbital integer symmetry assigments:
    12 initial guesses have been made.
 Convergence on wavefunction:    0.000001000000000
 Davidson Disk Diagonalization:  ConvIn= 1.00D-06 SkipCon=T Conv= 1.00D-06.
 Max sub-space:  2000 roots to seek:    12 dimension of matrix:        16692
 Iteration     1 Dimension    12 NMult     0 NNew     12
 CISAX will form    12 AO SS matrices at one time.
 NMat=    12 NSing=    12 JSym2X= 0.
 New state      2 was old state      3
 New state      3 was old state      4
 Excitation Energies [eV] at current iteration:
 Root      1 :     3.392173997258582
 Root      2 :     3.540739442738409
 Root      3 :     4.922047881488744
 Root      4 :     5.190481579593896
 Root      5 :     5.197387773124127
 Root      6 :     5.661965637545661
 Root      7 :     5.847349325055382
 Root      8 :     6.486210976568756
 Root      9 :     6.654592443459729
 Root     10 :     6.754768632285638
 Root     11 :     6.915598524253921
 Root     12 :     6.936645342354508
 Iteration     2 Dimension    18 NMult    12 NNew      6
 CISAX will form     6 AO SS matrices at one time.
 NMat=     6 NSing=     6 JSym2X= 0.
 Root      1 not converged, maximum delta is    0.042779069825994
 Root      2 not converged, maximum delta is    0.059404175892395
 Root      3 not converged, maximum delta is    0.057799499543451
 Excitation Energies [eV] at current iteration:
 Root      1 :     2.868472476629280   Change is   -0.523701520629302
 Root      2 :     3.418794338303930   Change is   -0.121945104434479
 Root      3 :     4.375985640318581   Change is   -0.546062241170163
 Iteration     3 Dimension    24 NMult    18 NNew      6
 CISAX will form     6 AO SS matrices at one time.
 NMat=     6 NSing=     6 JSym2X= 0.
 Root      1 not converged, maximum delta is    0.014069404761031
 Root      2 not converged, maximum delta is    0.034946263767328
 Root      3 not converged, maximum delta is    0.013497401458242
 Excitation Energies [eV] at current iteration:
 Root      1 :     2.841628617228503   Change is   -0.026843859400777
 Root      2 :     3.399823854831253   Change is   -0.018970483472677
 Root      3 :     4.345402978481144   Change is   -0.030582661837437
 Iteration     4 Dimension    30 NMult    24 NNew      6
 CISAX will form     6 AO SS matrices at one time.
 NMat=     6 NSing=     6 JSym2X= 0.
 Root      1 not converged, maximum delta is    0.008132544059539
 Root      2 not converged, maximum delta is    0.005998916801129
 Root      3 not converged, maximum delta is    0.014056045331921
 Excitation Energies [eV] at current iteration:
 Root      1 :     2.836772021779029   Change is   -0.004856595449474
 Root      2 :     3.398623488613806   Change is   -0.001200366217447
 Root      3 :     4.339363087753239   Change is   -0.006039890727905
 Iteration     5 Dimension    36 NMult    30 NNew      6
 CISAX will form     6 AO SS matrices at one time.
 NMat=     6 NSing=     6 JSym2X= 0.
 Root      1 not converged, maximum delta is    0.001855135476543
 Root      2 not converged, maximum delta is    0.000892819421753
 Root      3 not converged, maximum delta is    0.008904005362334
 Excitation Energies [eV] at current iteration:
 Root      1 :     2.836284893650572   Change is   -0.000487128128457
 Root      2 :     3.398556592999258   Change is   -0.000066895614548
 Root      3 :     4.337990577774333   Change is   -0.001372509978906
 Iteration     6 Dimension    42 NMult    36 NNew      6
 CISAX will form     6 AO SS matrices at one time.
 NMat=     6 NSing=     6 JSym2X= 0.
 Root      1 not converged, maximum delta is    0.000516443523078
 Root      2 not converged, maximum delta is    0.000272991628515
 Root      3 not converged, maximum delta is    0.003304391649772
 Excitation Energies [eV] at current iteration:
 Root      1 :     2.836243345037955   Change is   -0.000041548612617
 Root      2 :     3.398552093306995   Change is   -0.000004499692263
 Root      3 :     4.337712650354481   Change is   -0.000277927419851
 Iteration     7 Dimension    48 NMult    42 NNew      6
 CISAX will form     6 AO SS matrices at one time.
 NMat=     6 NSing=     6 JSym2X= 0.
 Root      1 not converged, maximum delta is    0.000081042291113
 Root      2 not converged, maximum delta is    0.000055562867690
 Root      3 not converged, maximum delta is    0.000984629318899
 Excitation Energies [eV] at current iteration:
 Root      1 :     2.836240891057646   Change is   -0.000002453980310
 Root      2 :     3.398551810583064   Change is   -0.000000282723931
 Root      3 :     4.337669162541752   Change is   -0.000043487812730
 Iteration     8 Dimension    54 NMult    48 NNew      6
 CISAX will form     6 AO SS matrices at one time.
 NMat=     6 NSing=     6 JSym2X= 0.
 Root      1 not converged, maximum delta is    0.000015057982160
 Root      2 not converged, maximum delta is    0.000007392445663
 Root      3 not converged, maximum delta is    0.000528158380596
 Excitation Energies [eV] at current iteration:
 Root      1 :     2.836240782129386   Change is   -0.000000108928260
 Root      2 :     3.398551798073683   Change is   -0.000000012509381
 Root      3 :     4.337662485571891   Change is   -0.000006676969861
 Iteration     9 Dimension    60 NMult    54 NNew      6
 CISAX will form     6 AO SS matrices at one time.
 NMat=     6 NSing=     6 JSym2X= 0.
 Root      1 not converged, maximum delta is    0.000005540053673
 Root      2 not converged, maximum delta is    0.000001974941729
 Root      3 not converged, maximum delta is    0.000159835665211
 Excitation Energies [eV] at current iteration:
 Root      1 :     2.836240773368682   Change is   -0.000000008760705
 Root      2 :     3.398551797538356   Change is   -0.000000000535327
 Root      3 :     4.337661854949271   Change is   -0.000000630622619
 Iteration    10 Dimension    66 NMult    60 NNew      6
 CISAX will form     6 AO SS matrices at one time.
 NMat=     6 NSing=     6 JSym2X= 0.
 Root      1 not converged, maximum delta is    0.000001085191700
 Root      2 has converged.
 Root      3 not converged, maximum delta is    0.000032938034685
 Excitation Energies [eV] at current iteration:
 Root      1 :     2.836240772974895   Change is   -0.000000000393786
 Root      2 :     3.398551797504298   Change is   -0.000000000034058
 Root      3 :     4.337661790987161   Change is   -0.000000063962111
 Iteration    11 Dimension    70 NMult    66 NNew      4
 CISAX will form     4 AO SS matrices at one time.
 NMat=     4 NSing=     4 JSym2X= 0.
 Root      1 has converged.
 Root      2 has converged.
 Root      3 not converged, maximum delta is    0.000008123549806
 Excitation Energies [eV] at current iteration:
 Root      1 :     2.836240772948838   Change is   -0.000000000026057
 Root      2 :     3.398551797504298   Change is    0.000000000000000
 Root      3 :     4.337661785493723   Change is   -0.000000005493437
 Iteration    12 Dimension    72 NMult    70 NNew      2
 CISAX will form     2 AO SS matrices at one time.
 NMat=     2 NSing=     2 JSym2X= 0.
 Root      1 has converged.
 Root      2 has converged.
 Root      3 not converged, maximum delta is    0.000002163945507
 Excitation Energies [eV] at current iteration:
 Root      1 :     2.836240772948838   Change is    0.000000000000000
 Root      2 :     3.398551797504322   Change is    0.000000000000024
 Root      3 :     4.337661785016341   Change is   -0.000000000477383
 Iteration    13 Dimension    74 NMult    72 NNew      2
 CISAX will form     2 AO SS matrices at one time.
 NMat=     2 NSing=     2 JSym2X= 0.
 Root      1 has converged.
 Root      2 has converged.
 Root      3 has converged.
 Excitation Energies [eV] at current iteration:
 Root      1 :     2.836240772948693   Change is   -0.000000000000145
 Root      2 :     3.398551797504298   Change is   -0.000000000000024
 Root      3 :     4.337661784979593   Change is   -0.000000000036748
 Convergence achieved on expansion vectors.
 ***********************************************************************
 Excited states from <AA,BB:AA,BB> singles matrix:
 ***********************************************************************
 
 1PDM for each excited state written to RWF  633
 Ground to excited state transition densities written to RWF  633
 Ground to excited state transition electric dipole moments (Au):
       state          X           Y           Z        Dip. S.      Osc.
         1         1.1553     -2.2440     -0.0000      6.3702      0.4426
         2        -0.0000      0.0000     -0.0061      0.0000      0.0000
         3        -1.5375      1.0139      0.0000      3.3919      0.3605
 Ground to excited state transition velocity dipole moments (Au):
       state          X           Y           Z        Dip. S.      Osc.
         1        -0.1167      0.2383      0.0000      0.0704      0.4503
         2         0.0000     -0.0000      0.0011      0.0000      0.0000
         3         0.2404     -0.1524     -0.0000      0.0810      0.3388
 Ground to excited state transition magnetic dipole moments (Au):
       state          X           Y           Z
         1         0.0000      0.0000     -1.1148
         2         0.4278     -0.0103      0.0000
         3        -0.0000      0.0000     -1.0723
 Ground to excited state transition velocity quadrupole moments (Au):
       state          XX          YY          ZZ          XY          XZ          YZ
         1         0.0743      0.6613     -0.0123     -0.3004     -0.0000      0.0000
         2        -0.0000     -0.0000      0.0000      0.0000     -0.0056      0.0204
         3        -0.5358      0.5367      0.0078      0.1129      0.0000      0.0000
 <0|del|b> * <b|rxdel|0> + <0|del|b> * <b|delr+rdel|0>
 Rotatory Strengths (R) in cgs (10**-40 erg-esu-cm/Gauss)
       state          XX          YY          ZZ    R(velocity)    E-M Angle
         1         0.0004     -0.0179      0.0156     -0.0006       90.00
         2         0.0001      0.0002      0.0002      0.0001       90.00
         3         0.0055      0.0046     -0.0068      0.0011       90.00
 1/2[<0|r|b>*<b|rxdel|0> + (<0|rxdel|b>*<b|r|0>)*]
 Rotatory Strengths (R) in cgs (10**-40 erg-esu-cm/Gauss)
       state          XX          YY          ZZ     R(length)
         1        -0.0048      0.0313     -0.0291     -0.0009
         2         0.0003      0.0000      0.0001      0.0001
         3        -0.0060     -0.0018      0.0116      0.0013
  1/2[<0|del|b>*<b|r|0> + (<0|r|b>*<b|del|0>)*] (Au)
       state          X           Y           Z        Dip. S.   Osc.(frdel)
         1        -0.1349     -0.5347     -0.0000      0.6696      0.4464
         2        -0.0000     -0.0000     -0.0000      0.0000      0.0000
         3        -0.3696     -0.1545     -0.0000      0.5241      0.3494

 Excitation energies and oscillator strengths:
 
 Excited state symmetry could not be determined.
 Excited State   1:      Singlet-?Sym    2.8362 eV  437.14 nm  f=0.4426  <S**2>=0.000
      59 -> 60         0.70002
 This state for optimization and/or second-order correction.
 Total Energy, E(TD-HF/TD-DFT) =  -1028.34274535    
 Copying the excited state density for this state as the 1-particle RhoCI density.
 
 Excited state symmetry could not be determined.
 Excited State   2:      Singlet-?Sym    3.3986 eV  364.81 nm  f=0.0000  <S**2>=0.000
      58 -> 60         0.68535
      58 -> 62         0.10848
      58 -> 64         0.10751
 
 Excited state symmetry could not be determined.
 Excited State   3:      Singlet-?Sym    4.3377 eV  285.83 nm  f=0.3605  <S**2>=0.000
      57 -> 60         0.68572
 SavETr:  write IOETrn=   770 NScale= 10 NData=  16 NLR=1 NState=    3 LETran=      64.
 The selected state is a singlet.
 CISGrd: IGrad=2 NXY=2 DFT=T
 CISAX will form     1 AO SS matrices at one time.
 NMat=     1 NSing=     1 JSym2X= 0.
 GePol: Maximum number of non-zero 1st derivatives   =     259
 Leave Link  914 at Mon Jul 13 20:41:29 2020, MaxMem=  7784628224 cpu:            1744.5 elap:             177.2
 (Enter /gpfs/loomis/apps/avx/software/Gaussian/16-C.01_AVX/g16/l1002.exe)
 Minotr:  Closed shell wavefunction.
          Computing CIS/TDA/TD derivatives.
          Using Z-Vector for PSCF gradient.
          Skipping F1 and S1 gradient terms here.
          IDoAtm=1111111111111111111111111
 NEqPCM:  Using equilibrium solvation (IEInf=0, Eps=   2.2280, EpsInf=   2.1319)
          Frozen-core window.
          Direct CPHF calculation.
          Differentiating once with respect to electric field.
                with respect to dipole field.
          Differentiating once with respect to nuclear coordinates.
          Requested convergence is 1.0D-10 RMS, and 1.0D-09 maximum.
          NewPWx=F KeepS1=T KeepF1=T KeepIn=T MapXYZ=F SortEE=F KeepMc=T.
 Keep R1 ints in memory in canonical form, NReq=1421508664.
 FoFCou: FMM=F IPFlag=           0 FMFlag=           0 FMFlg1=           0
         NFxFlg=           0 DoJE=F BraDBF=F KetDBF=F FulRan=T
         wScrn=  0.000000 ICntrl=       600 IOpCl=  0 I1Cent=           0 NGrid=           0
         NMat0=    1 NMatS0=  37401 NMatT0=    0 NMatD0=    1 NMtDS0=    0 NMtDT0=    0
 Symmetry not used in FoFCou.
 Two-electron integral symmetry not used.
          MDV=    7784628224 using IRadAn=       5.
          Solving linear equations separately, MaxMat=       0.
          There are     1 degrees of freedom in the 1st order CPHF.  IDoFFX=0 NUNeed=     1.
 LinEq1:  Iter=  0 NonCon=     1 RMS=6.98D-03 Max=5.72D-01 NDo=     1
 AX will form     1 AO Fock derivatives at one time.
 LinEq1:  Iter=  1 NonCon=     1 RMS=3.20D-03 Max=1.76D-01 NDo=     1
 LinEq1:  Iter=  2 NonCon=     1 RMS=1.58D-03 Max=3.76D-02 NDo=     1
 LinEq1:  Iter=  3 NonCon=     1 RMS=7.63D-04 Max=2.12D-02 NDo=     1
 LinEq1:  Iter=  4 NonCon=     1 RMS=4.46D-04 Max=1.36D-02 NDo=     1
 LinEq1:  Iter=  5 NonCon=     1 RMS=2.21D-04 Max=8.31D-03 NDo=     1
 LinEq1:  Iter=  6 NonCon=     1 RMS=9.10D-05 Max=4.61D-03 NDo=     1
 LinEq1:  Iter=  7 NonCon=     1 RMS=4.62D-05 Max=1.41D-03 NDo=     1
 LinEq1:  Iter=  8 NonCon=     1 RMS=1.75D-05 Max=6.08D-04 NDo=     1
 LinEq1:  Iter=  9 NonCon=     1 RMS=7.91D-06 Max=1.86D-04 NDo=     1
 LinEq1:  Iter= 10 NonCon=     1 RMS=3.11D-06 Max=8.11D-05 NDo=     1
 LinEq1:  Iter= 11 NonCon=     1 RMS=1.51D-06 Max=5.32D-05 NDo=     1
 LinEq1:  Iter= 12 NonCon=     1 RMS=6.83D-07 Max=2.18D-05 NDo=     1
 LinEq1:  Iter= 13 NonCon=     1 RMS=3.52D-07 Max=1.16D-05 NDo=     1
 LinEq1:  Iter= 14 NonCon=     1 RMS=1.12D-07 Max=2.49D-06 NDo=     1
 LinEq1:  Iter= 15 NonCon=     1 RMS=5.96D-08 Max=1.81D-06 NDo=     1
 LinEq1:  Iter= 16 NonCon=     1 RMS=2.52D-08 Max=7.54D-07 NDo=     1
 LinEq1:  Iter= 17 NonCon=     1 RMS=1.13D-08 Max=2.94D-07 NDo=     1
 LinEq1:  Iter= 18 NonCon=     1 RMS=4.94D-09 Max=1.19D-07 NDo=     1
 LinEq1:  Iter= 19 NonCon=     1 RMS=1.89D-09 Max=4.80D-08 NDo=     1
 LinEq1:  Iter= 20 NonCon=     1 RMS=9.40D-10 Max=2.55D-08 NDo=     1
 LinEq1:  Iter= 21 NonCon=     1 RMS=3.53D-10 Max=9.57D-09 NDo=     1
 LinEq1:  Iter= 22 NonCon=     1 RMS=1.48D-10 Max=4.24D-09 NDo=     1
 LinEq1:  Iter= 23 NonCon=     1 RMS=6.54D-11 Max=1.54D-09 NDo=     1
 LinEq1:  Iter= 24 NonCon=     0 RMS=1.88D-11 Max=4.92D-10 NDo=     1
 Linear equations converged to 1.000D-10 1.000D-09 after    24 iterations.
 End of Minotr F.D. properties file   721 does not exist.
 End of Minotr F.D. properties file   722 does not exist.
 End of Minotr F.D. properties file   788 does not exist.
 Leave Link 1002 at Mon Jul 13 20:43:07 2020, MaxMem=  7784628224 cpu:             739.8 elap:              98.4
 (Enter /gpfs/loomis/apps/avx/software/Gaussian/16-C.01_AVX/g16/l601.exe)
 Copying SCF densities to generalized density rwf, IOpCl= 0 IROHF=0.

 **********************************************************************

            Population analysis using the SCF Density.

 **********************************************************************

 Alpha  occ. eigenvalues --  -89.10659 -19.20347 -14.50877 -10.41823 -10.38203
 Alpha  occ. eigenvalues --  -10.36530 -10.35417 -10.33597 -10.33353 -10.32822
 Alpha  occ. eigenvalues --  -10.32633 -10.31430 -10.30738 -10.30373 -10.29256
 Alpha  occ. eigenvalues --  -10.28376  -8.12740  -6.07608  -6.07242  -6.06750
 Alpha  occ. eigenvalues --   -1.16908  -1.09410  -1.00361  -0.96864  -0.93660
 Alpha  occ. eigenvalues --   -0.89369  -0.87784  -0.83736  -0.81500  -0.79798
 Alpha  occ. eigenvalues --   -0.75570  -0.72375  -0.69693  -0.67844  -0.65866
 Alpha  occ. eigenvalues --   -0.60926  -0.59749  -0.57297  -0.56416  -0.56291
 Alpha  occ. eigenvalues --   -0.55145  -0.53735  -0.53136  -0.50394  -0.49487
 Alpha  occ. eigenvalues --   -0.48843  -0.48589  -0.47061  -0.45628  -0.44993
 Alpha  occ. eigenvalues --   -0.43973  -0.43146  -0.42767  -0.40059  -0.36827
 Alpha  occ. eigenvalues --   -0.34008  -0.31653  -0.31040  -0.25652
 Alpha virt. eigenvalues --   -0.01988   0.03393   0.05122   0.06184   0.09558
 Alpha virt. eigenvalues --    0.10713   0.14115   0.14821   0.16686   0.17331
 Alpha virt. eigenvalues --    0.18781   0.19936   0.20912   0.21315   0.23163
 Alpha virt. eigenvalues --    0.23507   0.24450   0.25906   0.27801   0.30034
 Alpha virt. eigenvalues --    0.30591   0.34186   0.35435   0.35615   0.36676
 Alpha virt. eigenvalues --    0.37715   0.39429   0.40012   0.41637   0.45074
 Alpha virt. eigenvalues --    0.46959   0.48675   0.50682   0.51277   0.51705
 Alpha virt. eigenvalues --    0.52585   0.52785   0.53046   0.53986   0.55403
 Alpha virt. eigenvalues --    0.56178   0.56510   0.56534   0.57261   0.57628
 Alpha virt. eigenvalues --    0.57978   0.58918   0.59392   0.59694   0.60883
 Alpha virt. eigenvalues --    0.61415   0.61592   0.62850   0.63037   0.63500
 Alpha virt. eigenvalues --    0.64684   0.66891   0.66978   0.68685   0.70204
 Alpha virt. eigenvalues --    0.70352   0.70690   0.71931   0.72512   0.73023
 Alpha virt. eigenvalues --    0.74314   0.75481   0.75756   0.77439   0.78405
 Alpha virt. eigenvalues --    0.78687   0.79988   0.80912   0.81806   0.83856
 Alpha virt. eigenvalues --    0.86024   0.89648   0.91117   0.91909   0.93366
 Alpha virt. eigenvalues --    0.94503   0.94766   0.96420   0.97364   0.98492
 Alpha virt. eigenvalues --    0.99460   1.00595   1.00695   1.01179   1.01215
 Alpha virt. eigenvalues --    1.02758   1.05250   1.06188   1.06218   1.07238
 Alpha virt. eigenvalues --    1.09245   1.09768   1.10038   1.10846   1.11275
 Alpha virt. eigenvalues --    1.12781   1.13600   1.13723   1.14272   1.15622
 Alpha virt. eigenvalues --    1.17400   1.19167   1.20047   1.22534   1.24235
 Alpha virt. eigenvalues --    1.26305   1.27616   1.31364   1.33748   1.34253
 Alpha virt. eigenvalues --    1.35020   1.36556   1.38392   1.41774   1.45496
 Alpha virt. eigenvalues --    1.49290   1.49620   1.53102   1.54588   1.55442
 Alpha virt. eigenvalues --    1.55858   1.57053   1.57369   1.57982   1.59801
 Alpha virt. eigenvalues --    1.60568   1.61564   1.63183   1.65302   1.68074
 Alpha virt. eigenvalues --    1.68530   1.69996   1.70850   1.71773   1.71864
 Alpha virt. eigenvalues --    1.72887   1.73645   1.73750   1.75042   1.76470
 Alpha virt. eigenvalues --    1.77791   1.79325   1.80430   1.81829   1.82111
 Alpha virt. eigenvalues --    1.84300   1.84740   1.85045   1.85378   1.86127
 Alpha virt. eigenvalues --    1.87595   1.90454   1.91432   1.91978   1.92267
 Alpha virt. eigenvalues --    1.94679   1.95688   1.95895   1.96708   1.98766
 Alpha virt. eigenvalues --    2.00782   2.00784   2.03128   2.05238   2.06457
 Alpha virt. eigenvalues --    2.07437   2.08489   2.09721   2.12521   2.15703
 Alpha virt. eigenvalues --    2.17525   2.22861   2.24396   2.24426   2.26852
 Alpha virt. eigenvalues --    2.28047   2.30020   2.35535   2.36977   2.38435
 Alpha virt. eigenvalues --    2.41379   2.42875   2.46137   2.48426   2.49837
 Alpha virt. eigenvalues --    2.51501   2.55459   2.61516   2.68037   2.68389
 Alpha virt. eigenvalues --    2.73325   2.74028   2.75418   2.78795   2.81245
 Alpha virt. eigenvalues --    2.81581   2.82373   2.82886   2.89099   2.94540
 Alpha virt. eigenvalues --    2.95929   3.11798   3.18945   3.34917   3.50855
 Alpha virt. eigenvalues --    3.53562   3.60557   3.69811   5.42624
          Condensed to atoms (all electrons):
               1          2          3          4          5          6
     1  C    4.750672   0.478816   0.016340  -0.055795  -0.010363   0.500485
     2  C    0.478816   5.386436   0.260877  -0.063542  -0.079821   0.000879
     3  C    0.016340   0.260877   4.935411   0.512153  -0.000600  -0.071117
     4  C   -0.055795  -0.063542   0.512153   4.822050   0.507049  -0.010599
     5  C   -0.010363  -0.079821  -0.000600   0.507049   4.741519   0.501120
     6  C    0.500485   0.000879  -0.071117  -0.010599   0.501120   4.735192
     7  H    0.404585  -0.039423   0.009464  -0.000668   0.008056  -0.039285
     8  H   -0.000559   0.010432  -0.026451   0.395608  -0.040919   0.007311
     9  H    0.008752  -0.000443   0.008202  -0.037922   0.405536  -0.043673
    10  H   -0.042987   0.009389  -0.000518   0.008408  -0.041788   0.408012
    11  N    0.003604  -0.043653   0.420732  -0.044637   0.002694   0.000290
    12  S   -0.071950   0.336582  -0.142445   0.003279  -0.000018   0.004926
    13  C   -0.000277  -0.001192   0.015564   0.000082   0.000018  -0.000001
    14  C   -0.000011   0.000059   0.000462   0.000009  -0.000000   0.000000
    15  C    0.000006  -0.000266   0.000358   0.000012  -0.000000   0.000000
    16  C    0.000000  -0.000006   0.000002  -0.000000   0.000000   0.000000
    17  H   -0.000010   0.000201   0.000004   0.000001   0.000000   0.000000
    18  C    0.000000   0.000011  -0.000040  -0.000000  -0.000000  -0.000000
    19  C   -0.000000  -0.000000   0.000003   0.000000  -0.000000   0.000000
    20  H   -0.000000  -0.000000  -0.000000   0.000000   0.000000  -0.000000
    21  H   -0.000000   0.000000  -0.000002  -0.000000  -0.000000   0.000000
    22  H    0.000000  -0.000000  -0.000000  -0.000000   0.000000  -0.000000
    23  C    0.003572  -0.058720  -0.086474   0.005580   0.000550  -0.000523
    24  O    0.000001  -0.000156  -0.000979   0.000081   0.000001  -0.000000
    25  H    0.000242   0.031455  -0.038429  -0.031327  -0.001134   0.000028
               7          8          9         10         11         12
     1  C    0.404585  -0.000559   0.008752  -0.042987   0.003604  -0.071950
     2  C   -0.039423   0.010432  -0.000443   0.009389  -0.043653   0.336582
     3  C    0.009464  -0.026451   0.008202  -0.000518   0.420732  -0.142445
     4  C   -0.000668   0.395608  -0.037922   0.008408  -0.044637   0.003279
     5  C    0.008056  -0.040919   0.405536  -0.041788   0.002694  -0.000018
     6  C   -0.039285   0.007311  -0.043673   0.408012   0.000290   0.004926
     7  H    0.646902   0.000027  -0.000148  -0.011003  -0.000096  -0.008002
     8  H    0.000027   0.635720  -0.011856  -0.000105  -0.006153  -0.000252
     9  H   -0.000148  -0.011856   0.653622  -0.012044  -0.000081   0.000020
    10  H   -0.011003  -0.000105  -0.012044   0.653621   0.000006  -0.000146
    11  N   -0.000096  -0.006153  -0.000081   0.000006   5.620111  -0.043575
    12  S   -0.008002  -0.000252   0.000020  -0.000146  -0.043575  15.469419
    13  C    0.000001   0.000045  -0.000000  -0.000000  -0.008908  -0.079986
    14  C    0.000001   0.000001   0.000000  -0.000000   0.004219  -0.009741
    15  C   -0.000000  -0.000013   0.000000   0.000000  -0.010308   0.004850
    16  C    0.000000  -0.000000  -0.000000  -0.000000  -0.000074   0.000338
    17  H    0.000001   0.000000   0.000000  -0.000000   0.000255   0.007866
    18  C    0.000000  -0.000000   0.000000  -0.000000  -0.000554  -0.000148
    19  C   -0.000000   0.000000  -0.000000   0.000000   0.000009   0.000013
    20  H    0.000000  -0.000000   0.000000   0.000000   0.000001   0.000008
    21  H   -0.000000   0.000000  -0.000000   0.000000  -0.000002   0.000003
    22  H    0.000000  -0.000000  -0.000000  -0.000000  -0.000000  -0.000000
    23  C    0.000296  -0.000611   0.000006   0.000004   0.483681   0.294639
    24  O    0.000000  -0.000116   0.000000  -0.000000  -0.008947   0.000124
    25  H    0.000011   0.000902  -0.000018   0.000000   0.290987   0.015152
              13         14         15         16         17         18
     1  C   -0.000277  -0.000011   0.000006   0.000000  -0.000010   0.000000
     2  C   -0.001192   0.000059  -0.000266  -0.000006   0.000201   0.000011
     3  C    0.015564   0.000462   0.000358   0.000002   0.000004  -0.000040
     4  C    0.000082   0.000009   0.000012  -0.000000   0.000001  -0.000000
     5  C    0.000018  -0.000000  -0.000000   0.000000   0.000000  -0.000000
     6  C   -0.000001   0.000000   0.000000   0.000000   0.000000  -0.000000
     7  H    0.000001   0.000001  -0.000000   0.000000   0.000001   0.000000
     8  H    0.000045   0.000001  -0.000013  -0.000000   0.000000  -0.000000
     9  H   -0.000000   0.000000   0.000000  -0.000000   0.000000   0.000000
    10  H   -0.000000  -0.000000   0.000000  -0.000000  -0.000000  -0.000000
    11  N   -0.008908   0.004219  -0.010308  -0.000074   0.000255  -0.000554
    12  S   -0.079986  -0.009741   0.004850   0.000338   0.007866  -0.000148
    13  C    5.548838   0.414983   0.148421  -0.003883  -0.042119  -0.043185
    14  C    0.414983   4.895496   0.010286   0.536801   0.399378  -0.067083
    15  C    0.148421   0.010286   4.720827  -0.053127   0.005493   0.430577
    16  C   -0.003883   0.536801  -0.053127   4.765979  -0.030064  -0.015898
    17  H   -0.042119   0.399378   0.005493  -0.030064   0.673663  -0.001022
    18  C   -0.043185  -0.067083   0.430577  -0.015898  -0.001022   4.973925
    19  C   -0.054087  -0.017457   0.002000   0.473666   0.008176   0.486328
    20  H    0.009156  -0.036896  -0.000144   0.399820  -0.011596   0.008332
    21  H    0.016205  -0.000562  -0.025990   0.007674   0.000056   0.370857
    22  H   -0.001912   0.009975   0.008261  -0.046433  -0.000209  -0.039551
    23  C    0.341595  -0.100636  -0.067194   0.006045  -0.022068   0.012941
    24  O   -0.113472   0.006629   0.718693  -0.000250  -0.000078  -0.071186
    25  H   -0.072501  -0.001086  -0.003592   0.000080  -0.000128   0.003340
              19         20         21         22         23         24
     1  C   -0.000000  -0.000000  -0.000000   0.000000   0.003572   0.000001
     2  C   -0.000000  -0.000000   0.000000  -0.000000  -0.058720  -0.000156
     3  C    0.000003  -0.000000  -0.000002  -0.000000  -0.086474  -0.000979
     4  C    0.000000   0.000000  -0.000000  -0.000000   0.005580   0.000081
     5  C   -0.000000   0.000000  -0.000000   0.000000   0.000550   0.000001
     6  C    0.000000  -0.000000   0.000000  -0.000000  -0.000523  -0.000000
     7  H   -0.000000   0.000000  -0.000000   0.000000   0.000296   0.000000
     8  H    0.000000  -0.000000   0.000000  -0.000000  -0.000611  -0.000116
     9  H   -0.000000   0.000000  -0.000000  -0.000000   0.000006   0.000000
    10  H    0.000000   0.000000   0.000000  -0.000000   0.000004  -0.000000
    11  N    0.000009   0.000001  -0.000002  -0.000000   0.483681  -0.008947
    12  S    0.000013   0.000008   0.000003  -0.000000   0.294639   0.000124
    13  C   -0.054087   0.009156   0.016205  -0.001912   0.341595  -0.113472
    14  C   -0.017457  -0.036896  -0.000562   0.009975  -0.100636   0.006629
    15  C    0.002000  -0.000144  -0.025990   0.008261  -0.067194   0.718693
    16  C    0.473666   0.399820   0.007674  -0.046433   0.006045  -0.000250
    17  H    0.008176  -0.011596   0.000056  -0.000209  -0.022068  -0.000078
    18  C    0.486328   0.008332   0.370857  -0.039551   0.012941  -0.071186
    19  C    4.753116  -0.046734  -0.046829   0.402695   0.000099   0.004691
    20  H   -0.046734   0.689530  -0.000159  -0.012677  -0.000409   0.000000
    21  H   -0.046829  -0.000159   0.685873  -0.012929  -0.000524   0.005367
    22  H    0.402695  -0.012677  -0.012929   0.678441   0.000008  -0.000071
    23  C    0.000099  -0.000409  -0.000524   0.000008   5.152941  -0.015948
    24  O    0.004691   0.000000   0.005367  -0.000071  -0.015948   7.791324
    25  H   -0.000284  -0.000000  -0.000007   0.000003   0.032653   0.060490
              25
     1  C    0.000242
     2  C    0.031455
     3  C   -0.038429
     4  C   -0.031327
     5  C   -0.001134
     6  C    0.000028
     7  H    0.000011
     8  H    0.000902
     9  H   -0.000018
    10  H    0.000000
    11  N    0.290987
    12  S    0.015152
    13  C   -0.072501
    14  C   -0.001086
    15  C   -0.003592
    16  C    0.000080
    17  H   -0.000128
    18  C    0.003340
    19  C   -0.000284
[...]
 7,-0.08458303,-0.08313167,-0.00002422,-0.00415810,0.00361233,-0.000001
 46,0.01018816,0.02154103,0.00000573,0.08721110,0.00005438,-0.00001345,
 -0.00000008,-0.00018355,0.00065500,-0.00000009,0.00033631,-0.00000059,
 -0.00000037,-0.00000917,0.00006531,-0.00000005,0.00001949,0.00005327,0
 .,-0.00009855,-0.00001961,0.00000003,-0.00001206,0.00001134,-0.0000000
 3,0.00002436,-0.00000486,-0.00000005,-0.00000164,0.00000141,0.,0.00000
 225,0.00000219,0.00000003,0.00008163,0.00014856,0.00000057,0.00019015,
 -0.00069935,-0.00000017,0.00051283,-0.00384329,-0.00000279,-0.08191180
 ,-0.31198755,-0.00007768,-0.00002443,0.00264026,-0.00000185,-0.0105031
 7,-0.01637344,-0.00000611,0.08736220,0.33113447,0.00000017,0.00000040,
 0.00002773,0.00000096,0.00000075,-0.00042726,0.00000187,-0.00000204,0.
 00082285,-0.00000117,0.00000032,0.00012018,0.00000009,-0.00000080,-0.0
 0002601,0.00000033,0.00000027,-0.00000508,-0.00000003,-0.00000001,0.00
 003495,0.00000007,0.00000001,0.00002547,0.,-0.00000002,-0.00001171,0.0
 0000003,0.,-0.00001221,0.00000091,0.00000471,-0.00137132,-0.00000261,-
 0.00000020,0.00170169,0.00000483,-0.00001396,0.00884037,-0.00002869,-0
 .00007545,-0.03649832,-0.00000411,0.00000355,0.01009937,-0.00000080,-0
 .00000344,0.00395027,0.00002936,0.00008663,0.02017948,-0.00137160,0.00
 028962,0.00000137,-0.00465074,-0.00349637,0.00000192,-0.00461716,0.011
 24505,-0.00000420,0.00485140,-0.00068955,-0.00000060,-0.00021099,0.001
 60274,-0.00000011,0.00111227,-0.00124871,0.,-0.00010752,0.00008743,0.,
 0.00005005,-0.00000742,-0.00000005,0.00012164,-0.00000647,0.00000003,0
 .00008839,-0.00006683,-0.00000026,0.01036218,-0.00248660,0.00000312,0.
 00066826,-0.00266746,0.00000011,0.02509285,0.01242157,0.00000305,-0.03
 991110,0.01841694,-0.00000076,-0.12395421,0.05912625,0.00001973,-0.006
 69305,-0.08708275,-0.00002267,-0.00053023,0.00028551,0.00000181,0.6232
 9952,0.00062310,-0.00005176,-0.00000019,0.00005586,-0.00008511,0.00000
 003,0.00070094,-0.00124934,0.00000083,-0.00080546,0.00010538,0.0000000
 5,0.00011698,-0.00022464,0.,-0.00031020,0.00010541,0.00000002,0.000002
 92,0.00000733,0.,-0.00000563,-0.00000461,0.00000001,-0.00001692,-0.000
 00122,0.00000002,0.00001436,0.00000777,0.00000003,-0.00029749,0.000470
 48,-0.00000155,0.00142024,-0.00074904,0.00000037,0.01391815,-0.0277356
 1,-0.00000244,0.00778372,-0.00328572,-0.00000060,0.06009702,-0.2122484
 0,-0.00002902,-0.03696866,-0.00526765,-0.00000615,-0.00030776,0.000758
 39,-0.00000056,0.06143333,0.68197704,0.00000058,0.00000014,0.00018346,
 0.00000023,0.00000093,0.00059468,0.00000246,-0.00000203,0.00151446,-0.
 00000097,0.00000009,-0.00011001,0.00000024,-0.00000034,-0.00007891,-0.
 00000025,0.00000032,-0.00011297,0.,0.00000005,0.00012270,0.00000007,0.
 00000001,0.00008877,-0.00000003,0.,-0.00000764,0.00000002,-0.00000001,
 -0.00007312,-0.00000260,0.00000738,-0.00159275,-0.00000027,-0.00000148
 ,0.00116129,0.00000723,-0.00001343,0.01487427,-0.00000660,0.00000735,-
 0.00593277,0.00001931,-0.00002744,-0.06712258,-0.00000834,-0.00001473,
 0.00814621,0.00000065,0.00000078,-0.00260568,0.00006773,0.00015515,0.1
 0982306,0.00121499,0.00034627,-0.00000127,0.00556955,0.00310489,-0.000
 00287,0.00585943,-0.01250526,0.00000227,-0.00581098,0.00087828,0.00000
 083,0.00024194,-0.00256514,0.00000042,-0.00033867,0.00158541,-0.000000
 06,0.00007756,-0.00007721,-0.00000016,0.00000307,0.00002753,-0.0000001
 3,-0.00010064,-0.00001200,-0.00000004,-0.00004645,0.00005960,0.0000002
 9,-0.01079109,0.00668968,0.00000067,0.00005286,0.00090113,0.00000024,-
 0.01329453,-0.01206179,-0.00000506,0.05438499,0.00888686,0.00000868,-0
 .05695019,0.01794112,-0.00001094,-0.14244285,-0.01403348,-0.00000909,-
 0.00332376,0.00449441,0.00000017,-0.29784981,-0.07088394,-0.00003912,0
 .65085053,0.00022307,0.00096162,-0.00000076,0.00336998,0.00125195,-0.0
 0000069,0.00322117,-0.00566313,0.00000218,-0.00351432,0.00066740,0.000
 00050,0.00007708,-0.00228033,0.00000036,0.00081415,0.00092374,-0.00000
 024,0.00000330,-0.00005085,0.00000002,0.00001927,0.00001561,0.,-0.0000
 1151,-0.00004743,-0.00000003,0.00001626,0.00003064,0.00000009,-0.00117
 432,0.00396084,-0.00000328,-0.00156658,0.00036528,0.00000060,-0.032779
 84,-0.00656054,-0.00000294,0.06045532,-0.05287241,-0.00000716,-0.01162
 117,0.02705707,-0.00000388,-0.10661821,-0.33846261,-0.00007288,0.00332
 435,-0.00133260,-0.00000212,0.00199154,-0.13023827,-0.00002062,-0.0579
 1726,0.71685414,0.00000015,0.00000017,0.00013107,0.00000118,0.00000022
 ,-0.00038242,0.00000037,-0.00000185,-0.00097796,-0.00000105,0.00000014
 ,0.00006149,-0.00000006,-0.00000052,0.00009094,0.00000007,0.00000018,0
 .00001044,0.00000001,-0.00000004,-0.00005380,-0.00000003,-0.00000002,-
 0.00010861,0.,0.,0.00000515,-0.00000001,0.00000002,0.00000984,-0.00000
 052,-0.00000075,0.00033251,-0.00000022,0.00000103,0.00057112,-0.000010
 46,-0.00000335,-0.00167241,0.00001912,-0.00001278,0.00806205,-0.000006
 17,0.00001450,0.00071976,-0.00003117,-0.00006678,-0.05722446,-0.000000
 05,-0.00000086,0.00354237,-0.00002435,-0.00002942,-0.05109682,0.000036
 55,0.00013730,0.11680965,0.00006831,-0.00011509,0.00000002,-0.00010299
 ,0.00014012,-0.00000002,-0.00003713,-0.00008366,-0.00000003,0.00002978
 ,0.00001229,-0.00000002,0.00000554,0.00011014,-0.00000001,-0.00015739,
 -0.00000448,0.00000002,0.00000674,0.00000613,0.,0.00000078,-0.00000414
 ,0.,-0.00001006,0.00000827,0.,-0.00000922,0.00000480,0.,-0.00021590,0.
 00037846,-0.00000010,0.00005201,0.00000898,0.00000004,-0.00025420,0.00
 351548,0.00000044,-0.01512239,-0.00881823,-0.00000406,0.00052815,0.000
 45477,0.00000041,-0.32701710,-0.07476194,-0.00004705,0.00070801,0.0001
 2781,0.00000020,0.00150012,-0.00132367,-0.00000094,-0.00338681,0.00227
 359,-0.00000041,0.34368393,0.00001087,-0.00000204,0.,-0.00005603,-0.00
 007558,0.,0.00002816,0.00018326,-0.00000015,0.00004220,-0.00005291,-0.
 00000002,0.00001339,0.00003671,0.,-0.00001208,-0.00002594,0.,0.0000001
 4,-0.00000196,0.,0.00000015,0.00000085,0.,0.00000268,-0.00000348,0.,0.
 00000190,-0.00000136,0.,0.00034664,-0.00041315,0.00000009,0.00001145,0
 .00003890,-0.00000005,0.00313635,-0.00371649,-0.00000130,0.02190435,0.
 00845261,0.00000313,0.00064560,-0.00083242,0.00000039,-0.07411494,-0.0
 7923539,-0.00001779,-0.00025524,0.00082845,0.00000065,-0.00060161,-0.0
 0533179,-0.00000291,-0.02924153,-0.00051363,-0.00000414,0.07911131,0.0
 7865439,-0.00000001,-0.00000003,-0.00001161,-0.00000014,-0.00000002,0.
 00008586,0.00000008,0.00000023,0.00043403,0.00000010,0.,0.00005798,0.0
 0000002,0.00000005,-0.00005755,-0.00000002,0.,0.00000546,0.,0.,0.00001
 252,0.,0.,0.00003554,0.,0.,-0.00001688,0.,0.,-0.00000645,-0.00000006,0
 .00000015,0.00026141,0.00000007,-0.00000009,-0.00021977,-0.00000114,-0
 .00000141,0.00382989,0.00000372,-0.00000078,0.00441244,0.00000031,-0.0
 0000057,-0.00154914,-0.00004665,-0.00001723,-0.03392007,0.00000011,0.0
 0000085,-0.00200366,0.00000054,-0.00000190,0.00682610,-0.00000789,-0.0
 0000239,0.00616762,0.00005092,0.00002078,0.02148477,-0.00012230,0.0000
 3630,0.,0.00012065,0.00005982,0.,-0.00009495,0.00007527,-0.00000003,0.
 00003502,0.00000847,0.,-0.00002093,-0.00004004,0.00000001,0.00008727,0
 .00001475,-0.00000002,-0.00000044,-0.00000422,0.,-0.00000475,-0.000000
 06,0.,0.00000237,-0.00000110,0.,-0.00000376,-0.00000106,0.,0.00025288,
 -0.00013167,-0.00000013,-0.00032824,0.00015234,0.00000011,-0.00376153,
 0.00315572,-0.00000031,-0.00016433,0.00032269,-0.00000004,0.00989040,0
 .02172186,0.00000767,-0.00598475,-0.00003781,-0.00000120,0.00009786,-0
 .00008030,0.,-0.07921393,-0.07815025,-0.00002768,-0.00233725,-0.029195
 76,-0.00000878,-0.00032507,-0.00147068,-0.00000021,0.07856032,0.000028
 38,0.00006408,0.00000012,-0.00009418,-0.00015085,0.00000020,0.00003199
 ,0.00005655,0.00000025,-0.00000054,0.00000089,-0.00000001,0.00000425,-
 0.00005018,0.,0.00007314,-0.00001853,-0.00000004,-0.00000646,0.0000007
 8,0.00000003,0.00000592,0.00000386,0.,0.00000836,-0.00000454,0.,0.0000
 1163,-0.00000376,-0.00000003,-0.00007773,0.00001357,-0.00000019,0.0002
 8752,-0.00014581,0.00000033,0.00387558,-0.00210772,0.00000019,0.000491
 69,0.00034440,-0.00000004,-0.01271980,-0.01641064,-0.00000762,-0.00096
 170,0.00144567,-0.00000115,-0.00007155,-0.00008832,-0.00000048,-0.0779
 8580,-0.32297426,-0.00009046,0.00244381,-0.00173964,-0.00000205,0.0000
 5184,-0.00022405,0.00000026,0.08459361,0.33941840,-0.00000002,-0.00000
 037,-0.00033327,-0.00000113,-0.00000050,-0.00040991,-0.00000127,0.0000
 0172,-0.00032818,0.00000099,-0.00000017,0.00001708,-0.00000004,0.00000
 062,-0.00002645,-0.00000024,-0.00000027,0.00009258,0.,0.,-0.00005091,-
 0.00000002,0.,0.00001419,0.,0.,-0.00000055,0.,0.,0.00007526,0.00000032
 ,-0.00000295,0.00048948,0.00000098,0.00000040,-0.00086400,-0.00000059,
 0.00000403,0.00204687,0.00000128,-0.00000226,0.00027414,-0.00000729,-0
 .00000753,0.00373205,-0.00000188,-0.00000152,0.00502813,-0.00000040,-0
 .00000016,0.00058745,-0.00002752,-0.00009181,-0.03050447,0.00000220,-0
 .00000129,0.00408436,-0.00000006,-0.00000021,-0.00036554,0.00003012,0.
 00009910,0.02006853,0.00004630,-0.00003536,-0.00000001,-0.00000777,0.0
 0010665,-0.00000006,0.00012428,-0.00010309,-0.00000018,-0.00005503,0.0
 0000743,0.,0.00001212,0.00001907,0.,-0.00006895,0.00000896,0.00000001,
 0.00000250,0.00000283,-0.00000001,0.00000583,-0.00000339,-0.00000001,-
 0.00000608,0.00000240,0.,-0.00000392,0.00000381,0.,0.00007994,0.000239
 00,0.00000014,-0.00007436,0.00005351,-0.00000014,-0.00034863,-0.000500
 18,-0.00000060,0.00088634,-0.00219183,-0.00000086,-0.00231313,-0.00441
 270,-0.00000154,0.00894525,-0.00837645,-0.00000155,0.00033977,-0.00034
 980,0.00000020,-0.01423713,0.02354994,0.00000398,-0.19705343,0.1450049
 1,0.00001835,0.00071414,0.00031422,0.00000052,0.00105647,-0.00029479,0
 .00000019,0.20392937,-0.00000155,0.00007100,-0.00000005,0.00013914,0.0
 0007901,-0.00000012,0.00017770,-0.00028715,-0.00000010,-0.00015439,0.0
 0003666,0.00000002,0.00000232,-0.00012871,0.00000003,0.00008055,0.0000
 4168,0.,-0.00000469,-0.00000462,0.,0.00000384,0.00000351,-0.00000001,0
 .00000443,-0.00000383,0.,0.00000603,-0.00000232,0.00000001,-0.00020435
 ,0.00009371,0.00000018,-0.00009687,-0.00000470,-0.00000002,-0.00061893
 ,0.00025632,-0.00000013,-0.00283032,-0.00428373,-0.00000255,-0.0024237
 9,-0.00021370,-0.00000159,0.02343648,-0.01511616,-0.00000211,0.0010823
 6,-0.00104143,-0.00000018,-0.00741865,0.00850412,0.00000085,0.14303718
 ,-0.20727135,-0.00002800,-0.00017792,0.00102275,0.00000133,0.00035334,
 0.00065948,0.00000082,-0.15419141,0.21677318,-0.00000010,0.00000023,0.
 00000840,0.00000047,0.00000007,0.00009017,0.00000050,-0.00000058,0.000
 20304,-0.00000042,0.00000013,0.00001320,0.00000002,-0.00000040,-0.0000
 0550,0.00000027,0.00000013,-0.00000973,0.,0.,0.00001243,0.00000001,0.,
 0.00001623,0.,-0.00000001,-0.00000169,0.00000001,0.,-0.00001091,0.0000
 0039,0.00000092,-0.00019025,-0.00000042,-0.00000034,-0.00002449,0.0000
 0120,-0.00000093,-0.00056266,-0.00000120,-0.00000197,0.00634122,-0.000
 00307,-0.00000249,0.00624497,0.00000613,-0.00000424,0.00375715,0.00000
 029,-0.00000030,0.00036289,-0.00000141,0.00000380,0.00308586,0.0000164
 5,-0.00002917,-0.03395751,0.00000057,0.00000125,-0.00433053,0.00000051
 ,0.00000116,-0.00322969,-0.00001901,0.00003109,0.02357186,-0.00298480,
 -0.00659924,0.00000116,-0.00176647,0.02175901,-0.00000173,-0.05177495,
 0.03311872,0.00000063,0.00507438,-0.00304950,0.00000002,-0.00082581,0.
 00420996,-0.00000046,-0.00507360,-0.00158706,0.00000074,0.00019678,-0.
 00073672,0.00000020,-0.00074269,-0.00003165,-0.00000019,0.00020959,-0.
 00015639,-0.00000006,-0.00066970,-0.00014184,0.00000021,-0.34671842,-0
 .02603088,0.00004729,-0.05090314,-0.05547588,0.00001328,-0.15323273,0.
 06214781,0.00000912,-0.04451491,0.03042135,0.00000048,0.04418182,0.015
 47571,0.00000528,-0.00357165,-0.01026151,0.00000092,0.00026109,0.00066
 140,-0.00000520,-0.00538998,-0.00209847,-0.00000621,-0.00107145,0.0043
 7586,0.00000309,-0.00053777,0.00066597,-0.00000028,0.00065813,-0.00100
 187,0.00000239,0.00011212,-0.00009071,-0.00000160,0.64519255,-0.000203
 39,-0.00038454,-0.00000002,0.02109726,-0.02031923,0.00000323,0.0192737
 5,0.01156171,-0.00000705,0.00088794,-0.00651509,0.00000160,-0.00036056
 ,-0.00083632,0.00000069,0.00123305,-0.00088605,-0.00000010,0.00008550,
 -0.00041635,0.00000015,-0.00042574,0.00012591,-0.00000017,0.00023917,-
 0.00050881,-0.00000002,-0.00020830,0.00006320,-0.00000004,-0.02072155,
 -0.12374509,0.00001416,-0.01725715,-0.18493245,0.00003737,0.04782336,-
 0.16948770,-0.00000550,0.02293984,0.01203360,0.00000147,0.01991471,-0.
 04539728,-0.00000304,-0.00464079,0.00222563,-0.00000477,-0.00186224,-0
 .00008867,0.00000467,-0.01225374,-0.00444112,-0.00000273,0.00693090,-0
 .00052486,0.00000118,-0.00079960,0.00093497,0.00000002,0.00089450,-0.0
 0062489,-0.00000255,-0.00004115,0.00034915,0.00000148,-0.06732359,0.51
 690034,-0.00000026,0.00000118,0.00081114,-0.00000372,0.00000022,-0.001
 10766,0.00000179,-0.00000376,0.00448246,-0.00000021,0.00000201,0.00123
 891,0.00000019,-0.00000075,0.00117196,0.00000142,0.00000067,0.00078547
 ,-0.00000006,0.00000012,-0.00037187,0.00000010,-0.00000010,-0.00053915
 ,-0.00000011,0.00000004,-0.00040371,0.00000009,-0.00000003,-0.00020898
 ,0.00004672,0.00002306,-0.01943772,0.00000735,0.00003510,-0.01682413,-
 0.00000017,-0.00000444,-0.03261123,-0.00000778,0.00000724,0.00769125,0
 .00001389,-0.00000520,0.00369409,0.00000163,-0.00000652,0.00496328,0.0
 0000081,0.00000109,-0.00391065,-0.00000509,-0.00000056,-0.00066638,0.0
 0000207,0.00000243,-0.00037609,0.00000018,0.00000031,-0.00107188,0.000
 00014,-0.00000125,0.00240214,0.00000039,0.00000023,-0.00061307,-0.0000
 6211,-0.00005074,0.06102570,-0.00064351,0.00135949,0.00000056,-0.00069
 926,-0.00026772,-0.00000082,0.00407772,0.00163105,-0.00000319,-0.00005
 790,0.00010811,0.00000009,0.00001056,-0.00107479,0.00000043,0.00174529
 ,0.00007052,-0.00000012,-0.00013456,0.00011901,-0.00000019,0.00026474,
 0.00006605,-0.00000028,0.00007544,-0.00001725,-0.00000003,0.00010841,-
 0.00001915,-0.00000012,0.00267847,0.01542089,0.00001145,-0.00030659,-0
 .00208320,-0.00000056,-0.03520074,-0.05895985,-0.00002277,0.00258113,-
 0.00486714,0.00000053,-0.54703016,-0.09652268,-0.00009556,-0.00877491,
 -0.01056605,-0.00000357,-0.00177655,-0.00106904,0.00000095,-0.08998933
 ,0.02136475,-0.00001097,0.01711282,0.01933828,0.00000479,-0.00017627,-
 0.00049486,-0.00000009,0.00164297,0.00132158,0.00000230,-0.00222156,-0
 .00007370,0.00000033,-0.02192126,0.00788448,-0.00000170,0.67366809,-0.
 00018728,-0.00013561,-0.00000003,0.00057439,-0.00113514,0.00000082,-0.
 00320321,-0.00070085,0.00000009,0.00012877,-0.00029088,0.00000010,0.00
 003507,0.00023570,-0.00000006,-0.00002360,-0.00026829,0.00000008,0.000
 01708,-0.00012393,0.00000008,0.00007480,0.00002850,0.,0.00006275,-0.00
 005638,-0.00000003,0.00001356,-0.00002647,0.00000001,0.01011914,-0.013
 84875,-0.00000719,0.00006260,0.00154763,-0.00000150,-0.05475949,-0.017
 53836,-0.00001078,0.00022998,-0.01104549,-0.00000501,-0.09521966,-0.10
 313589,-0.00002073,0.00036381,-0.00147025,0.00000014,-0.00261522,-0.00
 066737,-0.00000131,0.03052771,0.02233346,0.00000381,0.00229462,-0.0029
 4664,-0.00000390,-0.00013254,0.00032750,0.00000081,-0.00231560,0.00255
 512,0.00000415,0.00139395,0.00048207,0.00000063,0.00116654,0.00867179,
 0.00000365,0.11371246,0.12550470,-0.00000084,0.00000046,0.00022447,0.0
 0000128,-0.00000162,-0.00012534,-0.00000212,0.00000002,-0.00003947,-0.
 00000007,0.00000010,0.00004829,-0.00000015,-0.00000055,0.00015776,0.00
 000089,-0.00000013,0.00000788,0.,-0.00000009,-0.00006280,-0.00000001,0
 .00000002,-0.00017263,0.00000005,-0.00000004,-0.00000981,0.,-0.0000000
 1,-0.00005957,0.00001056,-0.00000747,0.00454203,-0.00000075,0.00000049
 ,-0.00025065,-0.00001345,-0.00002137,0.02097474,-0.00000399,-0.0000013
 5,0.00221395,-0.00009886,-0.00001829,-0.05475593,0.00000012,-0.0000054
 7,0.00043483,-0.00000016,0.00000039,-0.00264237,-0.00001171,0.00000473
 ,0.01447814,0.00000479,0.00000409,0.00468028,-0.00000005,-0.00000004,0
 .00004748,-0.00000023,0.00000198,-0.00330592,0.00000018,0.00000015,-0.
 00060026,-0.00000327,0.00000823,-0.00387100,0.00012183,0.00004197,0.02
 069441,0.00141578,0.00025621,-0.00000010,-0.00209140,0.00607911,-0.000
 00107,0.01612323,0.02145645,-0.00000605,0.00074141,0.00143640,-0.00000
 002,-0.00035977,-0.00032614,0.00000009,-0.00045613,0.00005993,0.000000
 04,-0.00015964,0.00030789,-0.00000008,-0.00111087,-0.00062346,0.000000
 34,-0.00000190,-0.00001154,0.00000001,-0.00006747,-0.00008314,0.000000
 04,-0.20953968,-0.23403378,0.00007196,-0.00377221,-0.00071600,0.000000
 91,0.00155571,0.00050076,-0.00000156,0.00014378,-0.00012994,0.00000021
 ,-0.00637817,-0.00096634,-0.00000060,0.00012173,0.00041567,-0.00000032
 ,0.00015386,0.00009076,0.00000067,0.00158009,0.00008714,0.00000144,-0.
 00056981,-0.00010914,-0.00000040,0.00005481,0.00001161,0.00000010,-0.0
 0004210,-0.00001488,-0.00000031,0.00013555,-0.00003608,0.00000007,-0.0
 0418710,-0.02310664,0.00000442,0.00496697,-0.00232063,-0.00000409,0.20
 174332,-0.00073294,-0.00062973,0.00000046,0.00283034,-0.00258676,0.000
 00113,-0.01109705,-0.03061885,0.00000847,-0.00158180,0.00239201,-0.000
 00016,-0.00034422,-0.00094951,0.00000009,-0.00004148,0.00066056,-0.000
 00009,0.00021356,-0.00017052,-0.00000006,0.00092974,-0.00003768,0.,-0.
 00011772,0.00015803,-0.00000006,0.00001487,0.00005897,-0.00000006,-0.2
 2256086,-0.37617308,0.00011396,0.00266371,0.00391636,-0.00000207,-0.00
 253624,0.00090341,0.00000244,0.00206671,-0.00068575,-0.00000048,0.0082
 1420,0.00245027,0.00000299,-0.00169054,0.00176022,0.00000109,-0.000318
 63,-0.00013809,-0.00000137,-0.00141571,-0.00038084,-0.00000069,-0.0003
 2407,-0.00158399,-0.00000028,0.00001729,-0.00005023,-0.00000006,0.0000
 3987,-0.00001959,0.00000074,-0.00020652,-0.00001491,-0.00000046,0.0005
 8297,0.00624214,-0.00000399,-0.00638124,-0.00829617,-0.00000621,0.2317
 7577,0.40379373,0.00000020,0.00000069,0.00055007,0.00000035,0.00000161
 ,0.00340323,0.00000481,0.00000425,0.00505083,-0.00000029,-0.00000083,-
 0.00168357,0.00000018,-0.00000054,-0.00061414,0.00000038,0.00000020,-0
 .00000975,-0.00000011,0.00000006,-0.00006291,0.00000011,0.00000039,0.0
 0036162,0.00000002,0.,0.00010114,0.00000002,0.,-0.00001324,0.00006714,
 0.00011435,-0.00404718,-0.00000101,-0.00000056,0.00392627,0.00000213,-
 0.00000401,0.00057156,-0.00000400,0.00000213,-0.00056656,0.00000084,0.
 00000431,0.00039859,0.00000143,-0.00000246,0.00056145,0.00000020,0.000
 00020,-0.00078080,-0.00000069,-0.00000086,-0.00099489,0.00000098,-0.00
 000010,0.00057143,-0.00000005,0.,-0.00010801,0.00000007,-0.00000029,0.
 00050666,0.,0.00000016,-0.00017113,-0.00000373,0.00000246,-0.00625288,
 -0.00000328,-0.00000579,-0.00260852,-0.00006570,-0.00011536,0.00191073
 \\0.00129757,0.00565812,-0.00000079,0.00790130,0.01145310,-0.00000221,
 0.01451813,0.00012592,-0.00000161,-0.00103056,0.00212313,0.00000030,-0
 .00046751,-0.00457664,0.00000063,0.00152499,0.00160213,-0.00000044,-0.
 00013939,0.00078421,-0.00000059,0.00048568,0.00000977,-0.00000010,0.00
 004606,0.00014166,-0.00000001,0.00010931,0.00019961,-0.00000025,-0.019
 61249,0.01426026,0.00000636,0.00502687,0.01449001,-0.00000538,-0.01153
 157,0.00766775,-0.00000217,0.01203553,-0.00165180,0.00000419,0.0205212
 0,0.00433921,-0.00000222,-0.00436396,0.01005150,-0.00000064,0.00035348
 ,-0.00013453,0.00000226,-0.00561375,0.00026426,0.00000273,-0.00824005,
 -0.00221904,-0.00000074,-0.00025122,-0.00020845,-0.00000045,-0.0006315
 1,-0.00004860,-0.00000127,-0.00089596,-0.00037526,0.00000025,-0.011927
 26,-0.00778775,0.00000095,-0.01134098,-0.01582346,-0.00000104,0.012226
 06,-0.04034506,0.00000224\\\@
 The archive entry for this job was punched.


 REALITY IS FOR PEOPLE WHO CAN'T FACE SCIENCE FICTION.
 Job cpu time:       0 days  2 hours 48 minutes 56.8 seconds.
 Elapsed time:       0 days  0 hours 17 minutes 24.4 seconds.
 File lengths (MBytes):  RWF=   1376 Int=      0 D2E=      0 Chk=     48 Scr=      8
 Normal termination of Gaussian 16 at Mon Jul 13 21:39:50 2020.
