 Entering Gaussian System, Link 0=g16
 Initial command:
 /gpfs/loomis/apps/avx/software/Gaussian/16-C.01_AVX/g16/l1.exe "/home/fas/batista/pev4/scratch60/gauss-scratch/Gau-72100.inp" -scrdir="/home/fas/batista/pev4/scratch60/gauss-scratch/"
 Entering Link 1 = /gpfs/loomis/apps/avx/software/Gaussian/16-C.01_AVX/g16/l1.exe PID=     72101.
  
 Copyright (c) 1988-2019, Gaussian, Inc.  All Rights Reserved.
  
 This is part of the Gaussian(R) 16 program.  It is based on
 the Gaussian(R) 09 system (copyright 2009, Gaussian, Inc.),
 the Gaussian(R) 03 system (copyright 2003, Gaussian, Inc.),
 the Gaussian(R) 98 system (copyright 1998, Gaussian, Inc.),
 the Gaussian(R) 94 system (copyright 1995, Gaussian, Inc.),
 the Gaussian 92(TM) system (copyright 1992, Gaussian, Inc.),
 the Gaussian 90(TM) system (copyright 1990, Gaussian, Inc.),
 the Gaussian 88(TM) system (copyright 1988, Gaussian, Inc.),
 the Gaussian 86(TM) system (copyright 1986, Carnegie Mellon
 University), and the Gaussian 82(TM) system (copyright 1983,
 Carnegie Mellon University). Gaussian is a federally registered
 trademark of Gaussian, Inc.
  
 This software contains proprietary and confidential information,
 including trade secrets, belonging to Gaussian, Inc.
  
 This software is provided under written license and may be
 used, copied, transmitted, or stored only in accord with that
 written license.
  
 The following legend is applicable only to US Government
 contracts under FAR:
  
                    RESTRICTED RIGHTS LEGEND
  
 Use, reproduction and disclosure by the US Government is
 subject to restrictions as set forth in subparagraphs (a)
 and (c) of the Commercial Computer Software - Restricted
 Rights clause in FAR 52.227-19.
  
 Gaussian, Inc.
 340 Quinnipiac St., Bldg. 40, Wallingford CT 06492
  
  
 ---------------------------------------------------------------
 Warning -- This program may not be used in any manner that
 competes with the business of Gaussian, Inc. or will provide
 assistance to any competitor of Gaussian, Inc.  The licensee
 of this program is prohibited from giving any competitor of
 Gaussian, Inc. access to this program.  By using this program,
 the user acknowledges that Gaussian, Inc. is engaged in the
 business of creating and licensing software in the field of
 computational chemistry and represents and warrants to the
 licensee that it is not a competitor of Gaussian, Inc. and that
 it will not use this program in any manner prohibited above.
 ---------------------------------------------------------------
  

 Cite this work as:
 Gaussian 16, Revision C.01,
 M. J. Frisch, G. W. Trucks, H. B. Schlegel, G. E. Scuseria, 
 M. A. Robb, J. R. Cheeseman, G. Scalmani, V. Barone, 
 G. A. Petersson, H. Nakatsuji, X. Li, M. Caricato, A. V. Marenich, 
 J. Bloino, B. G. Janesko, R. Gomperts, B. Mennucci, H. P. Hratchian, 
 J. V. Ortiz, A. F. Izmaylov, J. L. Sonnenberg, D. Williams-Young, 
 F. Ding, F. Lipparini, F. Egidi, J. Goings, B. Peng, A. Petrone, 
 T. Henderson, D. Ranasinghe, V. G. Zakrzewski, J. Gao, N. Rega, 
 G. Zheng, W. Liang, M. Hada, M. Ehara, K. Toyota, R. Fukuda, 
 J. Hasegawa, M. Ishida, T. Nakajima, Y. Honda, O. Kitao, H. Nakai, 
 T. Vreven, K. Throssell, J. A. Montgomery, Jr., J. E. Peralta, 
 F. Ogliaro, M. J. Bearpark, J. J. Heyd, E. N. Brothers, K. N. Kudin, 
 V. N. Staroverov, T. A. Keith, R. Kobayashi, J. Normand, 
 K. Raghavachari, A. P. Rendell, J. C. Burant, S. S. Iyengar, 
 J. Tomasi, M. Cossi, J. M. Millam, M. Klene, C. Adamo, R. Cammi, 
 J. W. Ochterski, R. L. Martin, K. Morokuma, O. Farkas, 
 J. B. Foresman, and D. J. Fox, Gaussian, Inc., Wallingford CT, 2019.
 
 ******************************************
 Gaussian 16:  ES64L-G16RevC.01  3-Jul-2019
                13-Jul-2020 
 ******************************************
 %chk=config_8_12.chk
 %mem=58GB
 %nprocshared=10
 Will use up to   10 processors via shared memory.
 ----------------------------------------------------------------------
 #p opt=addgic freq td wb97xd/cc-pvdz nosymm int=ultrafine scrf=(solven
 t=CarbonTetraChloride)
 ----------------------------------------------------------------------
 1/18=20,19=15,26=6,38=1,145=903/1,3;
 2/9=110,12=2,15=1,17=6,18=5,40=1/2;
 3/5=16,11=9,25=1,30=1,70=2201,71=1,72=11,74=-58,75=-5/1,2,3,8;
 4//1;
 5/5=2,38=5,53=11/2;
 8/6=1,10=1/1;
 9/15=2,42=1,70=2/14;
 10/5=4,31=1/2;
 6/7=2,8=2,9=2,10=2/1;
 7/12=6,13=5,30=1/1,2,3,16;
 1/18=20,19=15,26=6,145=903/3(2);
 2/9=110,15=1/2;
 99//99;
 2/9=110,15=1/2;
 3/5=16,11=9,25=1,30=1,70=2205,71=1,72=11,74=-58,75=-5/1,2,3,8;
 4/5=5,16=3,69=1/1;
 5/5=2,38=5,53=11/2;
 8/6=1,10=1/1;
 9/15=2,42=1,49=4,70=2/14;
 10/5=4,31=1/2;
 7/12=6,13=5,30=1/1,2,3,16;
 1/18=20,19=15,26=6,145=903/3(-8);
 2/9=110,15=1/2;
 6/7=2,8=2,9=2,10=2/1;
 99/9=10/99;
 Leave Link    1 at Mon Jul 13 15:15:24 2020, MaxMem=  7784628224 cpu:               4.9 elap:               0.6
 (Enter /gpfs/loomis/apps/avx/software/Gaussian/16-C.01_AVX/g16/l101.exe)
 ------------------------------------------------
 NM 2D-scan of HBT TD-WB97XD pVDZ in CTC Relaxed.
 ------------------------------------------------
 Symbolic Z-matrix:
 Charge =  0 Multiplicity = 1
 C                     1.60549  -3.25613  -0.00002 
 C                     1.00326  -1.99982  -0.00002 
 C                     1.75689  -0.79224  -0.00002 
 C                     3.16007  -0.87956  -0.00003 
 C                     3.75602  -2.13824  -0.00002 
 C                     2.99715  -3.31923  -0.00002 
 H                     0.99789  -4.16359  -0.00002 
 H                     3.76456   0.02981  -0.00003 
 H                     4.8461   -2.20513  -0.00002 
 H                     3.49681  -4.28955  -0.00002 
 N                     0.97118   0.33489  -0.00003 
 S                    -0.71538  -1.66977  -0.00002 
 C                    -1.35242   1.05018   0.00001 
 C                    -2.72042   0.77874   0.00001 
 C                    -0.88669   2.45199   0.00003 
 C                    -3.65229   1.83523   0.00003 
 H                    -3.07802  -0.25384  0. 
 C                    -1.86741   3.48201   0.00005 
 C                    -3.23125   3.17372   0.00004 
 H                    -4.71881   1.60073   0.00003 
 H                    -1.50973   4.51362   0.00007 
 H                    -3.97193   3.97485   0.00006 
 C                    -0.35767   0.04025  -0.00002 
 O                     0.36918   2.6858    0.00005 
 H                     1.00553   1.40299   0.00001 
 
 Initializing the GIC definitions file.
 Number of initial coordinates =   134
 Number of input entries/lines =    52
 Number of additional coordinates =     2
 Number of removed coordinates =     0
 Number of frozen coordinates =     2
 Number of final active and frozen coordinates =   136
 ITRead=  0  0  0  0  0  0  0  0  0  0  0  0  0  0  0  0  0  0  0  0
 ITRead=  0  0  0  0  0
 MicOpt= -1 -1 -1 -1 -1 -1 -1 -1 -1 -1 -1 -1 -1 -1 -1 -1 -1 -1 -1 -1
 MicOpt= -1 -1 -1 -1 -1
 NAtoms=     25 NQM=       25 NQMF=       0 NMMI=      0 NMMIF=      0
                NMic=       0 NMicF=      0.
                    Isotopes and Nuclear Properties:
 (Nuclear quadrupole moments (NQMom) in fm**2, nuclear magnetic moments (NMagM)
  in nuclear magnetons)

  Atom         1           2           3           4           5           6           7           8           9          10
 IAtWgt=          12          12          12          12          12          12           1           1           1           1
 AtmWgt=  12.0000000  12.0000000  12.0000000  12.0000000  12.0000000  12.0000000   1.0078250   1.0078250   1.0078250   1.0078250
 NucSpn=           0           0           0           0           0           0           1           1           1           1
 AtZEff=  -0.0000000  -0.0000000  -0.0000000  -0.0000000  -0.0000000  -0.0000000  -0.0000000  -0.0000000  -0.0000000  -0.0000000
 NQMom=    0.0000000   0.0000000   0.0000000   0.0000000   0.0000000   0.0000000   0.0000000   0.0000000   0.0000000   0.0000000
 NMagM=    0.0000000   0.0000000   0.0000000   0.0000000   0.0000000   0.0000000   2.7928460   2.7928460   2.7928460   2.7928460
 AtZNuc=   6.0000000   6.0000000   6.0000000   6.0000000   6.0000000   6.0000000   1.0000000   1.0000000   1.0000000   1.0000000

  Atom        11          12          13          14          15          16          17          18          19          20
 IAtWgt=          14          32          12          12          12          12           1          12          12           1
 AtmWgt=  14.0030740  31.9720718  12.0000000  12.0000000  12.0000000  12.0000000   1.0078250  12.0000000  12.0000000   1.0078250
 NucSpn=           2           0           0           0           0           0           1           0           0           1
 AtZEff=  -0.0000000  -0.0000000  -0.0000000  -0.0000000  -0.0000000  -0.0000000  -0.0000000  -0.0000000  -0.0000000  -0.0000000
 NQMom=    2.0440000   0.0000000   0.0000000   0.0000000   0.0000000   0.0000000   0.0000000   0.0000000   0.0000000   0.0000000
 NMagM=    0.4037610   0.0000000   0.0000000   0.0000000   0.0000000   0.0000000   2.7928460   0.0000000   0.0000000   2.7928460
 AtZNuc=   7.0000000  16.0000000   6.0000000   6.0000000   6.0000000   6.0000000   1.0000000   6.0000000   6.0000000   1.0000000

  Atom        21          22          23          24          25
 IAtWgt=           1           1          12          16           1
 AtmWgt=   1.0078250   1.0078250  12.0000000  15.9949146   1.0078250
 NucSpn=           1           1           0           0           1
 AtZEff=  -0.0000000  -0.0000000  -0.0000000  -0.0000000  -0.0000000
 NQMom=    0.0000000   0.0000000   0.0000000   0.0000000   0.0000000
 NMagM=    2.7928460   2.7928460   0.0000000   0.0000000   2.7928460
 AtZNuc=   1.0000000   1.0000000   6.0000000   8.0000000   1.0000000
 Leave Link  101 at Mon Jul 13 15:15:28 2020, MaxMem=  7784628224 cpu:              28.6 elap:               3.3
 (Enter /gpfs/loomis/apps/avx/software/Gaussian/16-C.01_AVX/g16/l103.exe)

 GradGradGradGradGradGradGradGradGradGradGradGradGradGradGradGradGradGrad
 Berny optimization.
 Initialization pass.
                           ----------------------------
                           !    Initial Parameters    !
                           ! (Angstroms and Degrees)  !
 --------------------------                            --------------------------
 ! Name  Definition              Value          Derivative Info.                !
 --------------------------------------------------------------------------------
 ! R1    R(1,2)                  1.3932         estimate D2E/DX2                !
 ! R2    R(1,6)                  1.3931         estimate D2E/DX2                !
 ! R3    R(1,7)                  1.0921         estimate D2E/DX2                !
 ! R4    R(2,3)                  1.4234         estimate D2E/DX2                !
 ! R5    R(2,12)                 1.75           estimate D2E/DX2                !
 ! R6    R(3,4)                  1.4059         estimate D2E/DX2                !
 ! R7    R(3,11)                 1.374          estimate D2E/DX2                !
 ! R8    R(4,5)                  1.3926         estimate D2E/DX2                !
 ! R9    R(4,8)                  1.092          estimate D2E/DX2                !
 ! R10   R(5,6)                  1.4038         estimate D2E/DX2                !
 ! R11   R(5,9)                  1.0921         estimate D2E/DX2                !
 ! R12   R(6,10)                 1.0914         estimate D2E/DX2                !
 ! R13   R(11,23)                1.3611         estimate D2E/DX2                !
 ! R14   R(11,25)                1.0687         estimate D2E/DX2                !
 ! R15   R(12,23)                1.747          estimate D2E/DX2                !
 ! R16   R(13,14)                1.3947         estimate D2E/DX2                !
 ! R17   R(13,15)                1.4772         estimate D2E/DX2                !
 ! R18   R(13,23)                1.4176         estimate D2E/DX2                !
 ! R19   R(14,16)                1.4087         estimate D2E/DX2                !
 ! R20   R(14,17)                1.0928         estimate D2E/DX2                !
 ! R21   R(15,18)                1.4222         estimate D2E/DX2                !
 ! R22   R(15,24)                1.2775         estimate D2E/DX2                !
 ! R23   R(16,19)                1.4031         estimate D2E/DX2                !
 ! R24   R(16,20)                1.092          estimate D2E/DX2                !
 ! R25   R(18,19)                1.3983         estimate D2E/DX2                !
 ! R26   R(18,21)                1.0919         estimate D2E/DX2                !
 ! R27   R(19,22)                1.0911         estimate D2E/DX2                !
 ! A1    A(2,1,6)              118.2078         estimate D2E/DX2                !
 ! A2    A(2,1,7)              120.5842         estimate D2E/DX2                !
 ! A3    A(6,1,7)              121.208          estimate D2E/DX2                !
 ! A4    A(1,2,3)              122.4208         estimate D2E/DX2                !
 ! A5    A(1,2,12)             126.4823         estimate D2E/DX2                !
 ! A6    A(3,2,12)             111.0969         estimate D2E/DX2                !
 ! A7    A(2,3,4)              118.407          estimate D2E/DX2                !
 ! A8    A(2,3,11)             113.1524         estimate D2E/DX2                !
 ! A9    A(4,3,11)             128.4406         estimate D2E/DX2                !
 ! A10   A(3,4,5)              118.8972         estimate D2E/DX2                !
 ! A11   A(3,4,8)              120.0531         estimate D2E/DX2                !
 ! A12   A(5,4,8)              121.0497         estimate D2E/DX2                !
 ! A13   A(4,5,6)              121.94           estimate D2E/DX2                !
 ! A14   A(4,5,9)              118.8476         estimate D2E/DX2                !
 ! A15   A(6,5,9)              119.2125         estimate D2E/DX2                !
 ! A16   A(1,6,5)              120.1273         estimate D2E/DX2                !
 ! A17   A(1,6,10)             119.8423         estimate D2E/DX2                !
 ! A18   A(5,6,10)             120.0304         estimate D2E/DX2                !
 ! A19   A(3,11,23)            112.3781         estimate D2E/DX2                !
 ! A20   A(3,11,25)            143.2784         estimate D2E/DX2                !
 ! A21   A(23,11,25)           104.3435         estimate D2E/DX2                !
 ! A22   A(2,12,23)             89.0558         estimate D2E/DX2                !
 ! A23   A(14,13,15)           119.6012         estimate D2E/DX2                !
 ! A24   A(14,13,23)           123.3434         estimate D2E/DX2                !
 ! A25   A(15,13,23)           117.0555         estimate D2E/DX2                !
 ! A26   A(13,14,16)           120.1912         estimate D2E/DX2                !
 ! A27   A(13,14,17)           120.325          estimate D2E/DX2                !
 ! A28   A(16,14,17)           119.4839         estimate D2E/DX2                !
 ! A29   A(13,15,18)           118.026          estimate D2E/DX2                !
 ! A30   A(13,15,24)           118.9244         estimate D2E/DX2                !
 ! A31   A(18,15,24)           123.0496         estimate D2E/DX2                !
 ! A32   A(14,16,19)           121.1243         estimate D2E/DX2                !
 ! A33   A(14,16,20)           119.0136         estimate D2E/DX2                !
 ! A34   A(19,16,20)           119.8621         estimate D2E/DX2                !
 ! A35   A(15,18,19)           120.8583         estimate D2E/DX2                !
 ! A36   A(15,18,21)           117.2819         estimate D2E/DX2                !
 ! A37   A(19,18,21)           121.8598         estimate D2E/DX2                !
 ! A38   A(16,19,18)           120.1991         estimate D2E/DX2                !
 ! A39   A(16,19,22)           119.7836         estimate D2E/DX2                !
 ! A40   A(18,19,22)           120.0173         estimate D2E/DX2                !
 ! A41   A(11,23,12)           114.3167         estimate D2E/DX2                !
 ! A42   A(11,23,13)           122.0645         estimate D2E/DX2                !
 ! A43   A(12,23,13)           123.6188         estimate D2E/DX2                !
 ! D1    D(6,1,2,3)              0.0            estimate D2E/DX2                !
 ! D2    D(6,1,2,12)          -180.0            estimate D2E/DX2                !
 ! D3    D(7,1,2,3)            179.9999         estimate D2E/DX2                !
 ! D4    D(7,1,2,12)            -0.0001         estimate D2E/DX2                !
 ! D5    D(2,1,6,5)             -0.0001         estimate D2E/DX2                !
 ! D6    D(2,1,6,10)           179.9999         estimate D2E/DX2                !
 ! D7    D(7,1,6,5)            180.0            estimate D2E/DX2                !
 ! D8    D(7,1,6,10)             0.0            estimate D2E/DX2                !
 ! D9    D(1,2,3,4)              0.0001         estimate D2E/DX2                !
 ! D10   D(1,2,3,11)          -180.0            estimate D2E/DX2                !
 ! D11   D(12,2,3,4)          -179.9999         estimate D2E/DX2                !
 ! D12   D(12,2,3,11)            0.0            estimate D2E/DX2                !
 ! D13   D(1,2,12,23)          179.9998         estimate D2E/DX2                !
 ! D14   D(3,2,12,23)           -0.0002         estimate D2E/DX2                !
 ! D15   D(2,3,4,5)             -0.0001         estimate D2E/DX2                !
 ! D16   D(2,3,4,8)            179.9999         estimate D2E/DX2                !
 ! D17   D(11,3,4,5)           180.0            estimate D2E/DX2                !
 ! D18   D(11,3,4,8)             0.0            estimate D2E/DX2                !
 ! D19   D(2,3,11,23)            0.0003         estimate D2E/DX2                !
 ! D20   D(2,3,11,25)          179.9967         estimate D2E/DX2                !
 ! D21   D(4,3,11,23)         -179.9998         estimate D2E/DX2                !
 ! D22   D(4,3,11,25)           -0.0034         estimate D2E/DX2                !
 ! D23   D(3,4,5,6)              0.0            estimate D2E/DX2                !
 ! D24   D(3,4,5,9)           -179.9999         estimate D2E/DX2                !
 ! D25   D(8,4,5,6)            180.0            estimate D2E/DX2                !
 ! D26   D(8,4,5,9)              0.0            estimate D2E/DX2                !
 ! D27   D(4,5,6,1)              0.0001         estimate D2E/DX2                !
 ! D28   D(4,5,6,10)          -180.0            estimate D2E/DX2                !
 ! D29   D(9,5,6,1)           -179.9999         estimate D2E/DX2                !
 ! D30   D(9,5,6,10)             0.0            estimate D2E/DX2                !
 ! D31   D(3,11,23,12)          -0.0005         estimate D2E/DX2                !
 ! D32   D(3,11,23,13)         179.9987         estimate D2E/DX2                !
 ! D33   D(25,11,23,12)       -179.9983         estimate D2E/DX2                !
 ! D34   D(25,11,23,13)          0.0009         estimate D2E/DX2                !
 ! D35   D(2,12,23,11)           0.0004         estimate D2E/DX2                !
 ! D36   D(2,12,23,13)        -179.9988         estimate D2E/DX2                !
 ! D37   D(15,13,14,16)          0.0006         estimate D2E/DX2                !
 ! D38   D(15,13,14,17)       -179.9997         estimate D2E/DX2                !
 ! D39   D(23,13,14,16)       -179.9995         estimate D2E/DX2                !
 ! D40   D(23,13,14,17)          0.0002         estimate D2E/DX2                !
 ! D41   D(14,13,15,18)         -0.0007         estimate D2E/DX2                !
 ! D42   D(14,13,15,24)        179.9991         estimate D2E/DX2                !
 ! D43   D(23,13,15,18)        179.9994         estimate D2E/DX2                !
 ! D44   D(23,13,15,24)         -0.0008         estimate D2E/DX2                !
 ! D45   D(14,13,23,11)        179.9998         estimate D2E/DX2                !
 ! D46   D(14,13,23,12)         -0.0011         estimate D2E/DX2                !
 ! D47   D(15,13,23,11)         -0.0003         estimate D2E/DX2                !
 ! D48   D(15,13,23,12)        179.9988         estimate D2E/DX2                !
 ! D49   D(13,14,16,19)         -0.0001         estimate D2E/DX2                !
 ! D50   D(13,14,16,20)        179.9998         estimate D2E/DX2                !
 ! D51   D(17,14,16,19)       -179.9999         estimate D2E/DX2                !
 ! D52   D(17,14,16,20)          0.0001         estimate D2E/DX2                !
 ! D53   D(13,15,18,19)          0.0004         estimate D2E/DX2                !
 ! D54   D(13,15,18,21)        180.0            estimate D2E/DX2                !
 ! D55   D(24,15,18,19)       -179.9994         estimate D2E/DX2                !
 ! D56   D(24,15,18,21)          0.0002         estimate D2E/DX2                !
 ! D57   D(14,16,19,18)         -0.0002         estimate D2E/DX2                !
 ! D58   D(14,16,19,22)        179.9999         estimate D2E/DX2                !
 ! D59   D(20,16,19,18)        179.9998         estimate D2E/DX2                !
 ! D60   D(20,16,19,22)          0.0            estimate D2E/DX2                !
 ! D61   D(15,18,19,16)          0.0            estimate D2E/DX2                !
 ! D62   D(15,18,19,22)        179.9999         estimate D2E/DX2                !
 ! D63   D(21,18,19,16)       -179.9995         estimate D2E/DX2                !
 ! D64   D(21,18,19,22)          0.0004         estimate D2E/DX2                !
 ! Qtot  GIC-1                  20.0            Frozen                          !
 ! Ptot  GIC-2                  80.0            Frozen                          !
 --------------------------------------------------------------------------------
 NOTE: GIC-type coordinates are in arbitrary units.
 Trust Radius=3.00D-01 FncErr=5.00D-06 GrdErr=5.00D-06 EigMax=2.50D+02 EigMin=1.00D-04
 Number of steps in this run=    146 maximum allowed number of steps=    150.
 GradGradGradGradGradGradGradGradGradGradGradGradGradGradGradGradGradGrad

 Leave Link  103 at Mon Jul 13 15:15:28 2020, MaxMem=  7784628224 cpu:               0.2 elap:               0.0
 (Enter /gpfs/loomis/apps/avx/software/Gaussian/16-C.01_AVX/g16/l202.exe)
                          Input orientation:                          
 ---------------------------------------------------------------------
 Center     Atomic      Atomic             Coordinates (Angstroms)
 Number     Number       Type             X           Y           Z
 ---------------------------------------------------------------------
      1          6           0        1.605488   -3.256126   -0.000019
      2          6           0        1.003256   -1.999818   -0.000022
      3          6           0        1.756890   -0.792241   -0.000024
      4          6           0        3.160065   -0.879557   -0.000026
      5          6           0        3.756023   -2.138242   -0.000023
      6          6           0        2.997154   -3.319231   -0.000019
      7          1           0        0.997892   -4.163595   -0.000017
      8          1           0        3.764561    0.029806   -0.000029
      9          1           0        4.846100   -2.205128   -0.000024
     10          1           0        3.496814   -4.289547   -0.000016
     11          7           0        0.971185    0.334886   -0.000026
     12         16           0       -0.715376   -1.669770   -0.000023
     13          6           0       -1.352425    1.050181    0.000008
     14          6           0       -2.720418    0.778744    0.000012
     15          6           0       -0.886693    2.451992    0.000034
     16          6           0       -3.652293    1.835229    0.000029
     17          1           0       -3.078025   -0.253839   -0.000002
     18          6           0       -1.867412    3.482006    0.000047
     19          6           0       -3.231254    3.173715    0.000044
     20          1           0       -4.718813    1.600732    0.000030
     21          1           0       -1.509730    4.513625    0.000068
     22          1           0       -3.971934    3.974845    0.000056
     23          6           0       -0.357667    0.040245   -0.000019
     24          8           0        0.369179    2.685800    0.000048
     25          1           0        1.005531    1.402988    0.000009
 ---------------------------------------------------------------------
                    Distance matrix (angstroms):
                    1          2          3          4          5
     1  C    0.000000
     2  C    1.393195   0.000000
     3  C    2.468532   1.423448   0.000000
     4  C    2.839858   2.430393   1.405890   0.000000
     5  C    2.423730   2.756245   2.410032   1.392643   0.000000
     6  C    1.393096   2.390916   2.814948   2.445108   1.403786
     7  H    1.092095   2.163783   3.455734   3.931908   3.421891
     8  H    3.931787   3.426978   2.169449   1.091950   2.168065
     9  H    3.406782   3.848324   3.396979   2.144726   1.092127
    10  H    2.155243   3.385364   3.906211   3.426577   2.166864
    11  N    3.646603   2.334925   1.373954   2.503212   3.724472
    12  S    2.811216   1.750037   2.623386   3.955184   4.495873
    13  C    5.224321   3.853794   3.614188   4.907795   6.021817
    14  C    5.915542   4.646091   4.744921   6.109832   7.103034
    15  C    6.228449   4.836375   4.184923   5.241705   6.528788
    16  C    7.318891   6.031727   6.013556   7.333368   8.406642
    17  H    5.563184   4.439065   4.864799   6.269393   7.089089
    18  C    7.580465   6.187983   5.603994   6.655731   7.950485
    19  C    8.045926   6.685546   6.372628   7.568221   8.777182
    20  H    7.974074   6.760624   6.903698   8.260058   9.262979
    21  H    8.370998   6.981407   6.230812   7.133961   8.483837
    22  H    9.132063   7.774903   7.452820   8.627319   9.853484
    23  C    3.836671   2.452340   2.272528   3.635998   4.654917
    24  O    6.069180   4.728327   3.744664   4.527782   5.894243
    25  H    4.697583   3.402807   2.320252   3.138794   4.483918
                    6          7          8          9         10
     6  C    0.000000
     7  H    2.170253   0.000000
     8  H    3.435835   5.023850   0.000000
     9  H    2.158663   4.317904   2.482872   0.000000
    10  H    1.091408   2.502094   4.327643   2.483017   0.000000
    11  N    4.178173   4.498560   2.809987   4.633210   5.269173
    12  S    4.062462   3.025632   4.791492   5.587183   4.960421
    13  C    6.165273   5.719042   5.217730   7.001338   7.213030
    14  C    7.034489   6.184864   6.528082   8.133614   8.021318
    15  C    6.956385   6.878783   5.244154   7.386046   8.041361
    16  C    8.413300   7.590132   7.633432   9.409950   9.413958
    17  H    6.804736   5.647946   6.848462   8.160838   7.714625
    18  C    8.361868   8.164874   6.605816   8.798564   9.443090
    19  C    8.997300   8.468872   7.669784   9.704411  10.048242
    20  H    9.151076   8.118385   8.627598  10.294276  10.109001
    21  H    9.036904   9.032293   6.922628   9.248687  10.127256
    22  H   10.088198   9.535899   8.684278  10.767998  11.139226
    23  C    4.747727   4.416991   4.122242   5.667529   5.796906
    24  O    6.554895   6.878189   4.310791   6.630535   7.644446
    25  H    5.125028   5.566588   3.081862   5.269579   6.213810
                   11         12         13         14         15
    11  N    0.000000
    12  S    2.619758   0.000000
    13  C    2.431215   2.793558   0.000000
    14  C    3.718190   3.164714   1.394662   0.000000
    15  C    2.816709   4.125321   1.477153   2.482399   0.000000
    16  C    4.860820   4.572800   2.430164   1.408741   2.833539
    17  H    4.091784   2.754446   2.162906   1.092753   3.481875
    18  C    4.238159   5.279013   2.485756   2.834650   1.422230
    19  C    5.071433   5.457929   2.835383   2.448844   2.453130
    20  H    5.829103   5.169496   3.411111   2.160844   3.925531
    21  H    4.859711   6.234210   3.467014   3.926206   2.153719
    22  H    6.138707   6.516659   3.926256   3.432398   3.440609
    23  C    1.361125   1.747028   1.417573   2.475474   2.469087
    24  O    2.426768   4.488569   2.374693   3.630767   1.277451
    25  H    1.068654   3.521841   2.384204   3.777880   2.163544
                   16         17         18         19         20
    16  C    0.000000
    17  H    2.166561   0.000000
    18  C    2.428513   3.927100   0.000000
    19  C    1.403146   3.430977   1.398251   0.000000
    20  H    1.091995   2.476210   3.416091   2.164974   0.000000
    21  H    3.429924   5.018790   1.091867   2.181513   4.333954
    22  H    2.163360   4.322134   2.161458   1.091062   2.488824
    23  C    3.751870   2.736207   3.758330   4.251603   4.631923
    24  O    4.110439   4.530418   2.374086   3.633342   5.202407
    25  H    4.677837   4.406870   3.546283   4.591930   5.727759
                   21         22         23         24         25
    21  H    0.000000
    22  H    2.520462   0.000000
    23  C    4.619348   5.342658   0.000000
    24  O    2.621306   4.528454   2.743586   0.000000
    25  H    4.000325   5.602643   1.927531   1.431974   0.000000
 Symmetry turned off by external request.
 Stoichiometry    C13H9NOS
 Framework group  C1[X(C13H9NOS)]
 Deg. of freedom    69
 Full point group                 C1      NOp   1
 Rotational constants (GHZ):           1.4000040           0.2862015           0.2376242
 Leave Link  202 at Mon Jul 13 15:15:28 2020, MaxMem=  7784628224 cpu:               0.2 elap:               0.1
 (Enter /gpfs/loomis/apps/avx/software/Gaussian/16-C.01_AVX/g16/l301.exe)
 Standard basis: CC-pVDZ (5D, 7F)
 Ernie: Thresh=  0.10000D-02 Tol=  0.10000D-05 Strict=F.
 Ernie:  40 primitive shells out of 425 were deleted.
   273 basis functions,   629 primitive gaussians,   289 cartesian basis functions
    59 alpha electrons       59 beta electrons
       nuclear repulsion energy      1100.4859684199 Hartrees.
 IExCor= 4639 DFT=T Ex+Corr=wB97XD ExCW=0 ScaHFX=  1.000000
 ScaDFX=  1.000000  1.000000  1.000000  1.000000 ScalE2=  1.000000  1.000000
 IRadAn=      5 IRanWt=     -1 IRanGd=            0 ICorTp=0 IEmpDi=121
 HFx  wShort=  0.000000 wLong=  0.200000 cFull=  0.222036 cShort=  0.000000 cLong=  0.777964
 DFx  wShort=  0.000000 wLong=  0.200000 cFull=  0.000000 cShort=  0.000000 cLong=  1.000000
 NAtoms=   25 NActive=   25 NUniq=   25 SFac= 1.00D+00 NAtFMM=   60 NAOKFM=F Big=F
 Integral buffers will be    131072 words long.
 Raffenetti 1 integral format.
 Two-electron integral symmetry is turned off.
 R6Disp:  Grimme-D2 Dispersion energy=       -0.0139342471 Hartrees.
 Nuclear repulsion after empirical dispersion term =     1100.4720341728 Hartrees.
 ------------------------------------------------------------------------------
 Polarizable Continuum Model (PCM)
 =================================
 Model                : PCM.
 Atomic radii         : UFF (Universal Force Field).
 Polarization charges : Total charges.
 Charge compensation  : None.
 Solution method      : On-the-fly selection.
 Cavity type          : Scaled VdW (van der Waals Surface) (Alpha=1.100).
 Cavity algorithm     : GePol (No added spheres)
                        Default sphere list used, NSphG=   25.
                        Lebedev-Laikov grids with approx.  5.0 points / Ang**2.
                        Smoothing algorithm: York/Karplus (Gamma=1.0000).
                        Polarization charges: spherical gaussians, with
                                              point-specific exponents (IZeta= 3).
                        Self-potential: point-specific (ISelfS= 7).
                        Self-field    : sphere-specific E.n sum rule (ISelfD= 2).
 1st derivatives      : Analytical E(r).r(x)/FMM algorithm (CHGder, D1EAlg=3).
                        Cavity 1st derivative terms included.
 Solvent              : CarbonTetraChloride, Eps=   2.228000 Eps(inf)=   2.131892
 ------------------------------------------------------------------------------
 GePol: Number of generator spheres                  =      25
 GePol: Total number of spheres                      =      25
 GePol: Number of exposed spheres                    =      25 (100.00%)
 GePol: Number of points                             =    2190
 GePol: Average weight of points                     =       0.12
 GePol: Minimum weight of points                     =   0.25D-09
 GePol: Maximum weight of points                     =    0.20577
 GePol: Number of points with low weight             =     150
 GePol: Fraction of low-weight points (<1% of avg)   =       6.85%
 GePol: Cavity surface area                          =    271.627 Ang**2
 GePol: Cavity volume                                =    291.619 Ang**3
 Leave Link  301 at Mon Jul 13 15:15:28 2020, MaxMem=  7784628224 cpu:               0.6 elap:               0.1
 (Enter /gpfs/loomis/apps/avx/software/Gaussian/16-C.01_AVX/g16/l302.exe)
 NPDir=0 NMtPBC=     1 NCelOv=     1 NCel=       1 NClECP=     1 NCelD=      1
         NCelK=      1 NCelE2=     1 NClLst=     1 CellRange=     0.0.
 One-electron integrals computed using PRISM.
 NBasis=   273 RedAO= T EigKep=  3.10D-04  NBF=   273
 NBsUse=   273 1.00D-06 EigRej= -1.00D+00 NBFU=   273
 Precomputing XC quadrature grid using
 IXCGrd= 4 IRadAn=           5 IRanWt=          -1 IRanGd=           0 AccXCQ= 0.00D+00.
 Generated NRdTot=       0 NPtTot=           0 NUsed=           0 NTot=          32
 NSgBfM=   288   288   288   288   288 MxSgAt=    25 MxSgA2=    25.
 Leave Link  302 at Mon Jul 13 15:15:28 2020, MaxMem=  7784628224 cpu:               4.7 elap:               0.6
 (Enter /gpfs/loomis/apps/avx/software/Gaussian/16-C.01_AVX/g16/l303.exe)
 DipDrv:  MaxL=1.
 Leave Link  303 at Mon Jul 13 15:15:29 2020, MaxMem=  7784628224 cpu:               0.9 elap:               0.2
 (Enter /gpfs/loomis/apps/avx/software/Gaussian/16-C.01_AVX/g16/l308.exe)
 Leave Link  308 at Mon Jul 13 15:15:29 2020, MaxMem=  7784628224 cpu:               0.7 elap:               0.1
 (Enter /gpfs/loomis/apps/avx/software/Gaussian/16-C.01_AVX/g16/l401.exe)
 ExpMin= 1.22D-01 ExpMax= 1.11D+05 ExpMxC= 1.07D+03 IAcc=3 IRadAn=         5 AccDes= 0.00D+00
 Harris functional with IExCor= 4639 and IRadAn=       5 diagonalized for initial guess.
 HarFok:  IExCor= 4639 AccDes= 0.00D+00 IRadAn=         5 IDoV= 1 UseB2=F ITyADJ=14
 ICtDFT=  3500011 ScaDFX=  1.000000  1.000000  1.000000  1.000000
 FoFCou: FMM=F IPFlag=           0 FMFlag=      100000 FMFlg1=           0
         NFxFlg=           0 DoJE=T BraDBF=F KetDBF=T FulRan=T
         wScrn=  0.000000 ICntrl=       500 IOpCl=  0 I1Cent=   200000004 NGrid=           0
         NMat0=    1 NMatS0=      1 NMatT0=    0 NMatD0=    1 NMtDS0=    0 NMtDT0=    0
 Symmetry not used in FoFCou.
 Harris En= -994.454568555722    
 JPrj=0 DoOrth=F DoCkMO=F.
 Leave Link  401 at Mon Jul 13 15:15:30 2020, MaxMem=  7784628224 cpu:              14.1 elap:               1.6
 (Enter /gpfs/loomis/apps/avx/software/Gaussian/16-C.01_AVX/g16/l502.exe)
 Two-electron integral symmetry not used.
 Closed shell SCF:
 Using DIIS extrapolation, IDIIS=  1040.
 NGot=  7784628224 LenX=  7784455381 LenY=  7784371419
 Requested convergence on RMS density matrix=1.00D-08 within 128 cycles.
 Requested convergence on MAX density matrix=1.00D-06.
 Requested convergence on             energy=1.00D-06.
 No special actions if energy rises.
 Fock matrices will be formed incrementally for  20 cycles.

 Cycle   1  Pass 1  IDiag  1:
 FoFJK:  IHMeth= 1 ICntrl=       0 DoSepK=T KAlg= 0 I1Cent=           0 FoldK=F
 IRaf=         1 NMat=       1 IRICut=       1 DoRegI=T DoRafI=F ISym2E= 0 IDoP0=0 IntGTp=1.
 FoFCou: FMM=F IPFlag=           0 FMFlag=      100000 FMFlg1=           0
         NFxFlg=           0 DoJE=T BraDBF=F KetDBF=F FulRan=T
         wScrn=  0.000000 ICntrl=       500 IOpCl=  0 I1Cent=           0 NGrid=           0
         NMat0=    1 NMatS0=      1 NMatT0=    0 NMatD0=    1 NMtDS0=    0 NMtDT0=    0
 Symmetry not used in FoFCou.
 Inv3:  Mode=1 IEnd=    14388300.
 Iteration    1 A*A^-1 deviation from unit magnitude is 4.66D-15 for   2165.
 Iteration    1 A*A^-1 deviation from orthogonality  is 1.38D-15 for   2179   2037.
 Iteration    1 A^-1*A deviation from unit magnitude is 4.66D-15 for   2165.
 Iteration    1 A^-1*A deviation from orthogonality  is 1.44D-15 for   1836    348.
 E= -1028.56105167048    
 DIIS: error= 3.99D-02 at cycle   1 NSaved=   1.
 NSaved= 1 IEnMin= 1 EnMin= -1028.56105167048     IErMin= 1 ErrMin= 3.99D-02
 ErrMax= 3.99D-02  0.00D+00 EMaxC= 1.00D-01 BMatC= 3.95D-01 BMatP= 3.95D-01
 IDIUse=3 WtCom= 6.01D-01 WtEn= 3.99D-01
 Coeff-Com:  0.100D+01
 Coeff-En:   0.100D+01
 Coeff:      0.100D+01
 Gap=     0.325 Goal=   None    Shift=    0.000
 GapD=    0.325 DampG=1.000 DampE=0.500 DampFc=0.5000 IDamp=-1.
 Damping current iteration by 5.00D-01
 RMSDP=3.59D-03 MaxDP=2.32D-01              OVMax= 1.82D-01

 Cycle   2  Pass 1  IDiag  1:
 RMSU=  1.79D-03    CP:  9.94D-01
 E= -1028.68093461002     Delta-E=       -0.119882939546 Rises=F Damp=T
 DIIS: error= 1.21D-02 at cycle   2 NSaved=   2.
 NSaved= 2 IEnMin= 2 EnMin= -1028.68093461002     IErMin= 2 ErrMin= 1.21D-02
 ErrMax= 1.21D-02  0.00D+00 EMaxC= 1.00D-01 BMatC= 5.85D-02 BMatP= 3.95D-01
 IDIUse=3 WtCom= 8.79D-01 WtEn= 1.21D-01
 Coeff-Com: -0.277D+00 0.128D+01
 Coeff-En:   0.000D+00 0.100D+01
 Coeff:     -0.244D+00 0.124D+01
 Gap=     0.292 Goal=   None    Shift=    0.000
 RMSDP=1.16D-03 MaxDP=2.56D-02 DE=-1.20D-01 OVMax= 1.27D-01

 Cycle   3  Pass 1  IDiag  1:
 RMSU=  1.12D-03    CP:  9.93D-01  1.17D+00
 E= -1028.78854454744     Delta-E=       -0.107609937419 Rises=F Damp=F
 DIIS: error= 7.62D-03 at cycle   3 NSaved=   3.
 NSaved= 3 IEnMin= 3 EnMin= -1028.78854454744     IErMin= 3 ErrMin= 7.62D-03
 ErrMax= 7.62D-03  0.00D+00 EMaxC= 1.00D-01 BMatC= 1.58D-02 BMatP= 5.85D-02
 IDIUse=3 WtCom= 9.24D-01 WtEn= 7.62D-02
 Coeff-Com: -0.204D+00 0.499D+00 0.705D+00
 Coeff-En:   0.000D+00 0.000D+00 0.100D+01
 Coeff:     -0.188D+00 0.461D+00 0.727D+00
 Gap=     0.246 Goal=   None    Shift=    0.000
 RMSDP=5.64D-04 MaxDP=2.30D-02 DE=-1.08D-01 OVMax= 4.16D-02

 Cycle   4  Pass 1  IDiag  1:
 RMSU=  4.48D-04    CP:  9.90D-01  1.33D+00  8.27D-01
 E= -1028.80339780850     Delta-E=       -0.014853261057 Rises=F Damp=F
 DIIS: error= 2.29D-03 at cycle   4 NSaved=   4.
 NSaved= 4 IEnMin= 4 EnMin= -1028.80339780850     IErMin= 4 ErrMin= 2.29D-03
 ErrMax= 2.29D-03  0.00D+00 EMaxC= 1.00D-01 BMatC= 2.08D-03 BMatP= 1.58D-02
 IDIUse=3 WtCom= 9.77D-01 WtEn= 2.29D-02
 Coeff-Com: -0.709D-01 0.141D+00 0.350D+00 0.581D+00
 Coeff-En:   0.000D+00 0.000D+00 0.000D+00 0.100D+01
 Coeff:     -0.693D-01 0.137D+00 0.342D+00 0.590D+00
 Gap=     0.246 Goal=   None    Shift=    0.000
 RMSDP=1.82D-04 MaxDP=1.05D-02 DE=-1.49D-02 OVMax= 1.32D-02

 Cycle   5  Pass 1  IDiag  1:
 RMSU=  1.10D-04    CP:  9.90D-01  1.34D+00  9.06D-01  7.47D-01
 E= -1028.80561303944     Delta-E=       -0.002215230945 Rises=F Damp=F
 DIIS: error= 4.76D-04 at cycle   5 NSaved=   5.
 NSaved= 5 IEnMin= 5 EnMin= -1028.80561303944     IErMin= 5 ErrMin= 4.76D-04
 ErrMax= 4.76D-04  0.00D+00 EMaxC= 1.00D-01 BMatC= 5.75D-05 BMatP= 2.08D-03
 IDIUse=3 WtCom= 9.95D-01 WtEn= 4.76D-03
 Coeff-Com: -0.138D-02-0.352D-02 0.330D-01 0.155D+00 0.817D+00
 Coeff-En:   0.000D+00 0.000D+00 0.000D+00 0.000D+00 0.100D+01
 Coeff:     -0.137D-02-0.351D-02 0.328D-01 0.154D+00 0.818D+00
 Gap=     0.247 Goal=   None    Shift=    0.000
 RMSDP=5.50D-05 MaxDP=1.81D-03 DE=-2.22D-03 OVMax= 5.37D-03

 Cycle   6  Pass 1  IDiag  1:
 RMSU=  3.50D-05    CP:  9.90D-01  1.34D+00  9.23D-01  8.27D-01  1.10D+00
 E= -1028.80573974456     Delta-E=       -0.000126705112 Rises=F Damp=F
 DIIS: error= 2.38D-04 at cycle   6 NSaved=   6.
 NSaved= 6 IEnMin= 6 EnMin= -1028.80573974456     IErMin= 6 ErrMin= 2.38D-04
 ErrMax= 2.38D-04  0.00D+00 EMaxC= 1.00D-01 BMatC= 1.08D-05 BMatP= 5.75D-05
 IDIUse=3 WtCom= 9.98D-01 WtEn= 2.38D-03
 Coeff-Com:  0.157D-01-0.323D-01-0.620D-01-0.704D-01 0.217D+00 0.932D+00
 Coeff-En:   0.000D+00 0.000D+00 0.000D+00 0.000D+00 0.000D+00 0.100D+01
 Coeff:      0.156D-01-0.322D-01-0.619D-01-0.702D-01 0.217D+00 0.932D+00
 Gap=     0.247 Goal=   None    Shift=    0.000
 RMSDP=3.40D-05 MaxDP=1.62D-03 DE=-1.27D-04 OVMax= 4.11D-03

 Cycle   7  Pass 1  IDiag  1:
 RMSU=  1.66D-05    CP:  9.90D-01  1.35D+00  9.33D-01  8.59D-01  1.28D+00
                    CP:  1.33D+00
 E= -1028.80577380875     Delta-E=       -0.000034064198 Rises=F Damp=F
 DIIS: error= 1.21D-04 at cycle   7 NSaved=   7.
 NSaved= 7 IEnMin= 7 EnMin= -1028.80577380875     IErMin= 7 ErrMin= 1.21D-04
 ErrMax= 1.21D-04  0.00D+00 EMaxC= 1.00D-01 BMatC= 2.20D-06 BMatP= 1.08D-05
 IDIUse=3 WtCom= 9.99D-01 WtEn= 1.21D-03
 Coeff-Com:  0.638D-02-0.121D-01-0.277D-01-0.479D-01-0.165D-01 0.380D+00
 Coeff-Com:  0.717D+00
 Coeff-En:   0.000D+00 0.000D+00 0.000D+00 0.000D+00 0.000D+00 0.000D+00
 Coeff-En:   0.100D+01
 Coeff:      0.637D-02-0.121D-01-0.277D-01-0.478D-01-0.164D-01 0.380D+00
 Coeff:      0.718D+00
 Gap=     0.248 Goal=   None    Shift=    0.000
 RMSDP=1.17D-05 MaxDP=4.93D-04 DE=-3.41D-05 OVMax= 1.43D-03

 Cycle   8  Pass 1  IDiag  1:
 RMSU=  7.00D-06    CP:  9.90D-01  1.35D+00  9.35D-01  8.65D-01  1.32D+00
                    CP:  1.53D+00  1.18D+00
 E= -1028.80577935734     Delta-E=       -0.000005548583 Rises=F Damp=F
 DIIS: error= 5.72D-05 at cycle   8 NSaved=   8.
 NSaved= 8 IEnMin= 8 EnMin= -1028.80577935734     IErMin= 8 ErrMin= 5.72D-05
 ErrMax= 5.72D-05  0.00D+00 EMaxC= 1.00D-01 BMatC= 3.53D-07 BMatP= 2.20D-06
 IDIUse=1 WtCom= 1.00D+00 WtEn= 0.00D+00
 Coeff-Com: -0.165D-02 0.356D-02 0.695D-02 0.386D-02-0.425D-01-0.110D+00
 Coeff-Com:  0.184D+00 0.956D+00
 Coeff:     -0.165D-02 0.356D-02 0.695D-02 0.386D-02-0.425D-01-0.110D+00
 Coeff:      0.184D+00 0.956D+00
 Gap=     0.248 Goal=   None    Shift=    0.000
 RMSDP=7.15D-06 MaxDP=1.92D-04 DE=-5.55D-06 OVMax= 1.19D-03

 Cycle   9  Pass 1  IDiag  1:
 RMSU=  2.79D-06    CP:  9.90D-01  1.35D+00  9.35D-01  8.65D-01  1.33D+00
                    CP:  1.64D+00  1.45D+00  1.26D+00
 E= -1028.80578089474     Delta-E=       -0.000001537402 Rises=F Damp=F
 DIIS: error= 2.02D-05 at cycle   9 NSaved=   9.
 NSaved= 9 IEnMin= 9 EnMin= -1028.80578089474     IErMin= 9 ErrMin= 2.02D-05
 ErrMax= 2.02D-05  0.00D+00 EMaxC= 1.00D-01 BMatC= 5.73D-08 BMatP= 3.53D-07
 IDIUse=1 WtCom= 1.00D+00 WtEn= 0.00D+00
 Coeff-Com: -0.108D-02 0.210D-02 0.504D-02 0.696D-02-0.657D-02-0.809D-01
 Coeff-Com: -0.705D-01 0.209D+00 0.936D+00
 Coeff:     -0.108D-02 0.210D-02 0.504D-02 0.696D-02-0.657D-02-0.809D-01
 Coeff:     -0.705D-01 0.209D+00 0.936D+00
 Gap=     0.248 Goal=   None    Shift=    0.000
 RMSDP=3.45D-06 MaxDP=8.90D-05 DE=-1.54D-06 OVMax= 5.88D-04

 Cycle  10  Pass 1  IDiag  1:
 RMSU=  1.23D-06    CP:  9.90D-01  1.35D+00  9.35D-01  8.65D-01  1.34D+00
                    CP:  1.69D+00  1.56D+00  1.49D+00  1.36D+00
 E= -1028.80578121023     Delta-E=       -0.000000315485 Rises=F Damp=F
 DIIS: error= 9.18D-06 at cycle  10 NSaved=  10.
 NSaved=10 IEnMin=10 EnMin= -1028.80578121023     IErMin=10 ErrMin= 9.18D-06
 ErrMax= 9.18D-06  0.00D+00 EMaxC= 1.00D-01 BMatC= 1.75D-08 BMatP= 5.73D-08
 IDIUse=1 WtCom= 1.00D+00 WtEn= 0.00D+00
 Coeff-Com:  0.486D-04-0.166D-03 0.180D-03 0.144D-02 0.730D-02-0.506D-02
 Coeff-Com: -0.684D-01-0.138D+00 0.360D+00 0.842D+00
 Coeff:      0.486D-04-0.166D-03 0.180D-03 0.144D-02 0.730D-02-0.506D-02
 Coeff:     -0.684D-01-0.138D+00 0.360D+00 0.842D+00
 Gap=     0.248 Goal=   None    Shift=    0.000
 RMSDP=1.68D-06 MaxDP=4.11D-05 DE=-3.15D-07 OVMax= 2.87D-04

 Cycle  11  Pass 1  IDiag  1:
 RMSU=  5.60D-07    CP:  9.90D-01  1.35D+00  9.35D-01  8.65D-01  1.34D+00
                    CP:  1.71D+00  1.60D+00  1.60D+00  1.70D+00  1.19D+00
 E= -1028.80578127938     Delta-E=       -0.000000069159 Rises=F Damp=F
 DIIS: error= 3.79D-06 at cycle  11 NSaved=  11.
 NSaved=11 IEnMin=11 EnMin= -1028.80578127938     IErMin=11 ErrMin= 3.79D-06
 ErrMax= 3.79D-06  0.00D+00 EMaxC= 1.00D-01 BMatC= 2.36D-09 BMatP= 1.75D-08
 IDIUse=1 WtCom= 1.00D+00 WtEn= 0.00D+00
 Coeff-Com:  0.284D-03-0.578D-03-0.108D-02-0.120D-02 0.445D-02 0.156D-01
 Coeff-Com: -0.768D-02-0.816D-01-0.554D-01 0.222D+00 0.906D+00
 Coeff:      0.284D-03-0.578D-03-0.108D-02-0.120D-02 0.445D-02 0.156D-01
 Coeff:     -0.768D-02-0.816D-01-0.554D-01 0.222D+00 0.906D+00
 Gap=     0.248 Goal=   None    Shift=    0.000
 RMSDP=6.31D-07 MaxDP=1.99D-05 DE=-6.92D-08 OVMax= 1.15D-04

 Cycle  12  Pass 1  IDiag  1:
 RMSU=  2.28D-07    CP:  9.90D-01  1.35D+00  9.35D-01  8.65D-01  1.34D+00
                    CP:  1.71D+00  1.61D+00  1.63D+00  1.84D+00  1.44D+00
                    CP:  1.11D+00
 E= -1028.80578128971     Delta-E=       -0.000000010326 Rises=F Damp=F
 DIIS: error= 1.51D-06 at cycle  12 NSaved=  12.
 NSaved=12 IEnMin=12 EnMin= -1028.80578128971     IErMin=12 ErrMin= 1.51D-06
 ErrMax= 1.51D-06  0.00D+00 EMaxC= 1.00D-01 BMatC= 7.16D-10 BMatP= 2.36D-09
 IDIUse=1 WtCom= 1.00D+00 WtEn= 0.00D+00
 Coeff-Com:  0.111D-03-0.215D-03-0.478D-03-0.795D-03 0.814D-03 0.787D-02
 Coeff-Com:  0.743D-02-0.150D-01-0.922D-01-0.694D-01 0.402D+00 0.760D+00
 Coeff:      0.111D-03-0.215D-03-0.478D-03-0.795D-03 0.814D-03 0.787D-02
 Coeff:      0.743D-02-0.150D-01-0.922D-01-0.694D-01 0.402D+00 0.760D+00
 Gap=     0.248 Goal=   None    Shift=    0.000
 RMSDP=3.07D-07 MaxDP=7.81D-06 DE=-1.03D-08 OVMax= 4.53D-05

 Cycle  13  Pass 1  IDiag  1:
 RMSU=  8.92D-08    CP:  9.90D-01  1.35D+00  9.35D-01  8.65D-01  1.34D+00
                    CP:  1.71D+00  1.62D+00  1.64D+00  1.90D+00  1.53D+00
                    CP:  1.36D+00  9.89D-01
 E= -1028.80578129154     Delta-E=       -0.000000001829 Rises=F Damp=F
 DIIS: error= 5.14D-07 at cycle  13 NSaved=  13.
 NSaved=13 IEnMin=13 EnMin= -1028.80578129154     IErMin=13 ErrMin= 5.14D-07
 ErrMax= 5.14D-07  0.00D+00 EMaxC= 1.00D-01 BMatC= 6.10D-11 BMatP= 7.16D-10
 IDIUse=1 WtCom= 1.00D+00 WtEn= 0.00D+00
 Coeff-Com: -0.411D-05 0.115D-04 0.128D-05-0.102D-03-0.270D-03 0.518D-03
 Coeff-Com:  0.315D-02 0.774D-02-0.184D-01-0.533D-01-0.614D-02 0.247D+00
 Coeff-Com:  0.820D+00
 Coeff:     -0.411D-05 0.115D-04 0.128D-05-0.102D-03-0.270D-03 0.518D-03
 Coeff:      0.315D-02 0.774D-02-0.184D-01-0.533D-01-0.614D-02 0.247D+00
 Coeff:      0.820D+00
 Gap=     0.248 Goal=   None    Shift=    0.000
 RMSDP=6.55D-08 MaxDP=2.35D-06 DE=-1.83D-09 OVMax= 7.99D-06

 Cycle  14  Pass 1  IDiag  1:
 RMSU=  3.51D-08    CP:  9.90D-01  1.35D+00  9.35D-01  8.65D-01  1.34D+00
                    CP:  1.71D+00  1.62D+00  1.64D+00  1.91D+00  1.55D+00
                    CP:  1.40D+00  1.13D+00  1.04D+00
 E= -1028.80578129167     Delta-E=       -0.000000000130 Rises=F Damp=F
 DIIS: error= 2.14D-07 at cycle  14 NSaved=  14.
 NSaved=14 IEnMin=14 EnMin= -1028.80578129167     IErMin=14 ErrMin= 2.14D-07
 ErrMax= 2.14D-07  0.00D+00 EMaxC= 1.00D-01 BMatC= 1.21D-11 BMatP= 6.10D-11
 IDIUse=1 WtCom= 1.00D+00 WtEn= 0.00D+00
 Coeff-Com: -0.142D-04 0.292D-04 0.542D-04 0.404D-04-0.215D-03-0.567D-03
 Coeff-Com:  0.605D-03 0.514D-02 0.813D-03-0.167D-01-0.474D-01 0.284D-01
 Coeff-Com:  0.372D+00 0.658D+00
 Coeff:     -0.142D-04 0.292D-04 0.542D-04 0.404D-04-0.215D-03-0.567D-03
 Coeff:      0.605D-03 0.514D-02 0.813D-03-0.167D-01-0.474D-01 0.284D-01
 Coeff:      0.372D+00 0.658D+00
 Gap=     0.248 Goal=   None    Shift=    0.000
 RMSDP=2.30D-08 MaxDP=7.32D-07 DE=-1.30D-10 OVMax= 2.18D-06

 Cycle  15  Pass 1  IDiag  1:
 RMSU=  1.39D-08    CP:  9.90D-01  1.35D+00  9.35D-01  8.65D-01  1.34D+00
                    CP:  1.71D+00  1.62D+00  1.65D+00  1.91D+00  1.55D+00
                    CP:  1.42D+00  1.16D+00  1.16D+00  9.44D-01
 E= -1028.80578129169     Delta-E=       -0.000000000018 Rises=F Damp=F
 DIIS: error= 7.96D-08 at cycle  15 NSaved=  15.
 NSaved=15 IEnMin=15 EnMin= -1028.80578129169     IErMin=15 ErrMin= 7.96D-08
 ErrMax= 7.96D-08  0.00D+00 EMaxC= 1.00D-01 BMatC= 1.29D-12 BMatP= 1.21D-11
 IDIUse=1 WtCom= 1.00D+00 WtEn= 0.00D+00
 Coeff-Com: -0.373D-05 0.695D-05 0.184D-04 0.359D-04-0.204D-04-0.337D-03
 Coeff-Com: -0.608D-03 0.110D-03 0.468D-02 0.771D-02-0.147D-01-0.455D-01
 Coeff-Com: -0.423D-01 0.208D+00 0.883D+00
 Coeff:     -0.373D-05 0.695D-05 0.184D-04 0.359D-04-0.204D-04-0.337D-03
 Coeff:     -0.608D-03 0.110D-03 0.468D-02 0.771D-02-0.147D-01-0.455D-01
 Coeff:     -0.423D-01 0.208D+00 0.883D+00
 Gap=     0.248 Goal=   None    Shift=    0.000
 RMSDP=9.82D-09 MaxDP=2.02D-07 DE=-1.84D-11 OVMax= 1.18D-06

 Error on total polarization charges =  0.00868
 SCF Done:  E(RwB97XD) =  -1028.80578129     A.U. after   15 cycles
            NFock= 15  Conv=0.98D-08     -V/T= 2.0049
 KE= 1.023782098490D+03 PE=-4.612947432450D+03 EE= 1.459887518495D+03
 Leave Link  502 at Mon Jul 13 15:16:54 2020, MaxMem=  7784628224 cpu:             829.3 elap:              83.8
 (Enter /gpfs/loomis/apps/avx/software/Gaussian/16-C.01_AVX/g16/l801.exe)
 DoSCS=F DFT=T ScalE2(SS,OS)=  1.000000  1.000000
 ExpMin= 1.22D-01 ExpMax= 1.11D+05 ExpMxC= 1.07D+03 IAcc=3 IRadAn=         5 AccDes= 0.00D+00
 HarFok:  IExCor=  205 AccDes= 0.00D+00 IRadAn=         5 IDoV=-2 UseB2=F ITyADJ=14
 ICtDFT= 12500011 ScaDFX=  1.000000  1.000000  1.000000  1.000000
 Largest valence mixing into a core orbital is  9.47D-05
 Largest core mixing into a valence orbital is  3.12D-05
 Range of M.O.s used for correlation:    21   273
 NBasis=   273 NAE=    59 NBE=    59 NFC=    20 NFV=     0
 NROrb=    253 NOA=    39 NOB=    39 NVA=   214 NVB=   214

 **** Warning!!: The largest alpha MO coefficient is  0.10946972D+02

 Leave Link  801 at Mon Jul 13 15:16:55 2020, MaxMem=  7784628224 cpu:               2.2 elap:               0.3
 (Enter /gpfs/loomis/apps/avx/software/Gaussian/16-C.01_AVX/g16/l914.exe)
 RHF ground state
 Keep R1, R2, and R3 ints in memory in canonical form, NReq=4262515490.
 FoFCou: FMM=F IPFlag=           0 FMFlag=           0 FMFlg1=           0
         NFxFlg=           0 DoJE=F BraDBF=F KetDBF=F FulRan=T
         wScrn=  0.000000 ICntrl=       600 IOpCl=  0 I1Cent=           0 NGrid=           0
         NMat0=    1 NMatS0=  37401 NMatT0=    0 NMatD0=    1 NMtDS0=    0 NMtDT0=    0
 Symmetry not used in FoFCou.
 Two-electron integral symmetry not used.
 MDV=  7784628224 DFT=T DoStab=F Mixed=T DoRPA=T DoScal=F NonHer=T
 NEqPCM:  Using equilibrium solvation (IEInf=0, Eps=   2.2280, EpsInf=   2.1319)
 Making orbital integer symmetry assigments:
    12 initial guesses have been made.
 Convergence on wavefunction:    0.000001000000000
 Davidson Disk Diagonalization:  ConvIn= 1.00D-06 SkipCon=T Conv= 1.00D-06.
 Max sub-space:  2000 roots to seek:    12 dimension of matrix:        16692
 Iteration     1 Dimension    12 NMult     0 NNew     12
 CISAX will form    12 AO SS matrices at one time.
 NMat=    12 NSing=    12 JSym2X= 0.
 New state      2 was old state      4
 New state      3 was old state      2
 Excitation Energies [eV] at current iteration:
 Root      1 :     3.598580408904249
 Root      2 :     4.264596617757238
 Root      3 :     4.892091942703640
 Root      4 :     5.280693285601670
 Root      5 :     5.573315424089585
 Root      6 :     5.869179360409682
 Root      7 :     6.145100845954545
 Root      8 :     6.498936441886936
 Root      9 :     6.624623486309389
 Root     10 :     7.006151315686344
 Root     11 :     7.216073634291120
 Root     12 :     7.242153494777435
 Iteration     2 Dimension    18 NMult    12 NNew      6
 CISAX will form     6 AO SS matrices at one time.
 NMat=     6 NSing=     6 JSym2X= 0.
 Root      1 not converged, maximum delta is    0.047437533491335
 Root      2 not converged, maximum delta is    0.101621126088564
 Root      3 not converged, maximum delta is    0.073424459893013
 Excitation Energies [eV] at current iteration:
 Root      1 :     3.096234397904093   Change is   -0.502346011000156
 Root      2 :     4.059074836588153   Change is   -0.205521781169086
 Root      3 :     4.385628430722535   Change is   -0.506463511981106
 Iteration     3 Dimension    24 NMult    18 NNew      6
 CISAX will form     6 AO SS matrices at one time.
 NMat=     6 NSing=     6 JSym2X= 0.
 Root      1 not converged, maximum delta is    0.019292231532370
 Root      2 not converged, maximum delta is    0.032262314708540
 Root      3 not converged, maximum delta is    0.022614565655928
 Excitation Energies [eV] at current iteration:
 Root      1 :     3.060637256916881   Change is   -0.035597140987212
 Root      2 :     4.039400793076672   Change is   -0.019674043511481
 Root      3 :     4.356064602479223   Change is   -0.029563828243311
 Iteration     4 Dimension    30 NMult    24 NNew      6
 CISAX will form     6 AO SS matrices at one time.
 NMat=     6 NSing=     6 JSym2X= 0.
 Root      1 not converged, maximum delta is    0.008403346380910
 Root      2 not converged, maximum delta is    0.010656361687099
 Root      3 not converged, maximum delta is    0.017233518379085
 Excitation Energies [eV] at current iteration:
 Root      1 :     3.054927835813683   Change is   -0.005709421103198
 Root      2 :     4.037532716359152   Change is   -0.001868076717519
 Root      3 :     4.349146507346424   Change is   -0.006918095132799
 Iteration     5 Dimension    36 NMult    30 NNew      6
 CISAX will form     6 AO SS matrices at one time.
 NMat=     6 NSing=     6 JSym2X= 0.
 Root      1 not converged, maximum delta is    0.002462848026232
 Root      2 not converged, maximum delta is    0.001849189002064
 Root      3 not converged, maximum delta is    0.008379377495014
 Excitation Energies [eV] at current iteration:
 Root      1 :     3.054224671138405   Change is   -0.000703164675278
 Root      2 :     4.037383930279874   Change is   -0.000148786079278
 Root      3 :     4.347874629627064   Change is   -0.001271877719359
 Iteration     6 Dimension    42 NMult    36 NNew      6
 CISAX will form     6 AO SS matrices at one time.
 NMat=     6 NSing=     6 JSym2X= 0.
 Root      1 not converged, maximum delta is    0.000458658045222
 Root      2 not converged, maximum delta is    0.000249209361232
 Root      3 not converged, maximum delta is    0.002588860048860
 Excitation Energies [eV] at current iteration:
 Root      1 :     3.054177057239093   Change is   -0.000047613899312
 Root      2 :     4.037375898502478   Change is   -0.000008031777396
 Root      3 :     4.347690622739742   Change is   -0.000184006887322
 Iteration     7 Dimension    48 NMult    42 NNew      6
 CISAX will form     6 AO SS matrices at one time.
 NMat=     6 NSing=     6 JSym2X= 0.
 Root      1 not converged, maximum delta is    0.000091075280035
 Root      2 not converged, maximum delta is    0.000115537794636
 Root      3 not converged, maximum delta is    0.000437779700223
 Excitation Energies [eV] at current iteration:
 Root      1 :     3.054173134499241   Change is   -0.000003922739852
 Root      2 :     4.037375266367654   Change is   -0.000000632134824
 Root      3 :     4.347669362776288   Change is   -0.000021259963455
 Iteration     8 Dimension    54 NMult    48 NNew      6
 CISAX will form     6 AO SS matrices at one time.
 NMat=     6 NSing=     6 JSym2X= 0.
 Root      1 not converged, maximum delta is    0.000027362233390
 Root      2 not converged, maximum delta is    0.000025409519594
 Root      3 not converged, maximum delta is    0.000132874288611
 Excitation Energies [eV] at current iteration:
 Root      1 :     3.054172929346800   Change is   -0.000000205152441
 Root      2 :     4.037375220183582   Change is   -0.000000046184073
 Root      3 :     4.347667463412376   Change is   -0.000001899363911
 Iteration     9 Dimension    60 NMult    54 NNew      6
 CISAX will form     6 AO SS matrices at one time.
 NMat=     6 NSing=     6 JSym2X= 0.
 Root      1 not converged, maximum delta is    0.000010061960885
 Root      2 not converged, maximum delta is    0.000005161361479
 Root      3 not converged, maximum delta is    0.000038637952034
 Excitation Energies [eV] at current iteration:
 Root      1 :     3.054172914539680   Change is   -0.000000014807120
 Root      2 :     4.037375217593766   Change is   -0.000000002589815
 Root      3 :     4.347667288305971   Change is   -0.000000175106405
 Iteration    10 Dimension    66 NMult    60 NNew      6
 CISAX will form     6 AO SS matrices at one time.
 NMat=     6 NSing=     6 JSym2X= 0.
 Root      1 not converged, maximum delta is    0.000003651175549
 Root      2 not converged, maximum delta is    0.000002816145889
 Root      3 not converged, maximum delta is    0.000022708115392
 Excitation Energies [eV] at current iteration:
 Root      1 :     3.054172913502831   Change is   -0.000000001036849
 Root      2 :     4.037375217388766   Change is   -0.000000000205001
 Root      3 :     4.347667267850333   Change is   -0.000000020455638
 Iteration    11 Dimension    72 NMult    66 NNew      6
 CISAX will form     6 AO SS matrices at one time.
 NMat=     6 NSing=     6 JSym2X= 0.
 Root      1 has converged.
 Root      2 not converged, maximum delta is    0.000001084578253
 Root      3 not converged, maximum delta is    0.000007595603851
 Excitation Energies [eV] at current iteration:
 Root      1 :     3.054172913433952   Change is   -0.000000000068879
 Root      2 :     4.037375217358264   Change is   -0.000000000030502
 Root      3 :     4.347667266031380   Change is   -0.000000001818953
 Iteration    12 Dimension    76 NMult    72 NNew      4
 CISAX will form     4 AO SS matrices at one time.
 NMat=     4 NSing=     4 JSym2X= 0.
 Root      1 has converged.
 Root      2 has converged.
 Root      3 not converged, maximum delta is    0.000001389319164
 Excitation Energies [eV] at current iteration:
 Root      1 :     3.054172913432956   Change is   -0.000000000000996
 Root      2 :     4.037375217354599   Change is   -0.000000000003665
 Root      3 :     4.347667265881834   Change is   -0.000000000149546
 Iteration    13 Dimension    78 NMult    76 NNew      2
 CISAX will form     2 AO SS matrices at one time.
 NMat=     2 NSing=     2 JSym2X= 0.
 Root      1 has converged.
 Root      2 has converged.
 Root      3 has converged.
 Excitation Energies [eV] at current iteration:
 Root      1 :     3.054172913432768   Change is   -0.000000000000188
 Root      2 :     4.037375217354599   Change is    0.000000000000000
 Root      3 :     4.347667265870905   Change is   -0.000000000010929
 Convergence achieved on expansion vectors.
 ***********************************************************************
 Excited states from <AA,BB:AA,BB> singles matrix:
 ***********************************************************************
 
 1PDM for each excited state written to RWF  633
 Ground to excited state transition densities written to RWF  633
 Ground to excited state transition electric dipole moments (Au):
       state          X           Y           Z        Dip. S.      Osc.
         1         1.1951     -2.1475     -0.0000      6.0400      0.4519
         2         0.0000      0.0000      0.0047      0.0000      0.0000
         3        -1.6009      0.9183      0.0000      3.4063      0.3628
 Ground to excited state transition velocity dipole moments (Au):
       state          X           Y           Z        Dip. S.      Osc.
         1        -0.1298      0.2438      0.0000      0.0763      0.4531
         2        -0.0000     -0.0000     -0.0001      0.0000      0.0000
         3         0.2508     -0.1373     -0.0000      0.0818      0.3412
 Ground to excited state transition magnetic dipole moments (Au):
       state          X           Y           Z
         1         0.0000      0.0000     -1.0336
         2         0.2260      0.0272      0.0000
         3        -0.0000      0.0000     -1.1799
 Ground to excited state transition velocity quadrupole moments (Au):
       state          XX          YY          ZZ          XY          XZ          YZ
         1         0.0185      0.6078     -0.0139     -0.2668     -0.0000      0.0000
         2         0.0000     -0.0000      0.0000      0.0000     -0.0119      0.0078
         3        -0.4503      0.6089      0.0021      0.0362      0.0000      0.0000
 <0|del|b> * <b|rxdel|0> + <0|del|b> * <b|delr+rdel|0>
 Rotatory Strengths (R) in cgs (10**-40 erg-esu-cm/Gauss)
       state          XX          YY          ZZ    R(velocity)    E-M Angle
         1         0.0081     -0.0169      0.0181      0.0031       90.00
         2        -0.0004     -0.0018     -0.0019     -0.0014       90.00
         3         0.0031      0.0054     -0.0055      0.0010       90.00
 1/2[<0|r|b>*<b|rxdel|0> + (<0|rxdel|b>*<b|r|0>)*]
 Rotatory Strengths (R) in cgs (10**-40 erg-esu-cm/Gauss)
       state          XX          YY          ZZ     R(length)
         1        -0.0063      0.0392     -0.0246      0.0028
         2        -0.0036     -0.0005     -0.0001     -0.0014
         3        -0.0019     -0.0032      0.0092      0.0013
  1/2[<0|del|b>*<b|r|0> + (<0|r|b>*<b|del|0>)*] (Au)
       state          X           Y           Z        Dip. S.   Osc.(frdel)
         1        -0.1551     -0.5236     -0.0000      0.6787      0.4524
         2        -0.0000     -0.0000     -0.0000      0.0000      0.0000
         3        -0.4016     -0.1261     -0.0000      0.5277      0.3518

 Excitation energies and oscillator strengths:
 
 Excited state symmetry could not be determined.
 Excited State   1:      Singlet-?Sym    3.0542 eV  405.95 nm  f=0.4519  <S**2>=0.000
      59 -> 60         0.69566
 This state for optimization and/or second-order correction.
 Total Energy, E(TD-HF/TD-DFT) =  -1028.69354250    
 Copying the excited state density for this state as the 1-particle RhoCI density.
 
 Excited state symmetry could not be determined.
 Excited State   2:      Singlet-?Sym    4.0374 eV  307.09 nm  f=0.0000  <S**2>=0.000
      57 -> 60         0.68548
      57 -> 62         0.11076
      57 -> 64         0.11649
 
 Excited state symmetry could not be determined.
 Excited State   3:      Singlet-?Sym    4.3477 eV  285.17 nm  f=0.3628  <S**2>=0.000
      58 -> 60         0.67863
 SavETr:  write IOETrn=   770 NScale= 10 NData=  16 NLR=1 NState=    3 LETran=      64.
 The selected state is a singlet.
 CISGrd: IGrad=2 NXY=2 DFT=T
 CISAX will form     1 AO SS matrices at one time.
 NMat=     1 NSing=     1 JSym2X= 0.
 GePol: Maximum number of non-zero 1st derivatives   =     255
 Leave Link  914 at Mon Jul 13 15:20:03 2020, MaxMem=  7784628224 cpu:            1827.7 elap:             189.0
 (Enter /gpfs/loomis/apps/avx/software/Gaussian/16-C.01_AVX/g16/l1002.exe)
 Minotr:  Closed shell wavefunction.
          Computing CIS/TDA/TD derivatives.
          Using Z-Vector for PSCF gradient.
          Skipping F1 and S1 gradient terms here.
          IDoAtm=1111111111111111111111111
 NEqPCM:  Using equilibrium solvation (IEInf=0, Eps=   2.2280, EpsInf=   2.1319)
          Frozen-core window.
          Direct CPHF calculation.
          Differentiating once with respect to electric field.
                with respect to dipole field.
          Differentiating once with respect to nuclear coordinates.
          Requested convergence is 1.0D-10 RMS, and 1.0D-09 maximum.
          NewPWx=F KeepS1=T KeepF1=T KeepIn=T MapXYZ=F SortEE=F KeepMc=T.
 Keep R1 ints in memory in canonical form, NReq=1421489325.
 FoFCou: FMM=F IPFlag=           0 FMFlag=           0 FMFlg1=           0
         NFxFlg=           0 DoJE=F BraDBF=F KetDBF=F FulRan=T
         wScrn=  0.000000 ICntrl=       600 IOpCl=  0 I1Cent=           0 NGrid=           0
         NMat0=    1 NMatS0=  37401 NMatT0=    0 NMatD0=    1 NMtDS0=    0 NMtDT0=    0
 Symmetry not used in FoFCou.
 Two-electron integral symmetry not used.
          MDV=    7784628224 using IRadAn=       5.
          Solving linear equations separately, MaxMat=       0.
          There are     1 degrees of freedom in the 1st order CPHF.  IDoFFX=0 NUNeed=     1.
 LinEq1:  Iter=  0 NonCon=     1 RMS=6.31D-03 Max=4.35D-01 NDo=     1
 AX will form     1 AO Fock derivatives at one time.
 LinEq1:  Iter=  1 NonCon=     1 RMS=2.84D-03 Max=1.59D-01 NDo=     1
 LinEq1:  Iter=  2 NonCon=     1 RMS=1.68D-03 Max=5.06D-02 NDo=     1
 LinEq1:  Iter=  3 NonCon=     1 RMS=6.76D-04 Max=1.61D-02 NDo=     1
 LinEq1:  Iter=  4 NonCon=     1 RMS=3.84D-04 Max=1.23D-02 NDo=     1
 LinEq1:  Iter=  5 NonCon=     1 RMS=1.91D-04 Max=6.91D-03 NDo=     1
 LinEq1:  Iter=  6 NonCon=     1 RMS=8.07D-05 Max=2.81D-03 NDo=     1
 LinEq1:  Iter=  7 NonCon=     1 RMS=4.28D-05 Max=1.50D-03 NDo=     1
 LinEq1:  Iter=  8 NonCon=     1 RMS=1.60D-05 Max=4.51D-04 NDo=     1
 LinEq1:  Iter=  9 NonCon=     1 RMS=8.68D-06 Max=2.62D-04 NDo=     1
 LinEq1:  Iter= 10 NonCon=     1 RMS=3.28D-06 Max=9.02D-05 NDo=     1
 LinEq1:  Iter= 11 NonCon=     1 RMS=1.91D-06 Max=7.98D-05 NDo=     1
 LinEq1:  Iter= 12 NonCon=     1 RMS=9.67D-07 Max=3.32D-05 NDo=     1
 LinEq1:  Iter= 13 NonCon=     1 RMS=4.19D-07 Max=1.04D-05 NDo=     1
 LinEq1:  Iter= 14 NonCon=     1 RMS=1.76D-07 Max=5.69D-06 NDo=     1
 LinEq1:  Iter= 15 NonCon=     1 RMS=9.23D-08 Max=2.47D-06 NDo=     1
 LinEq1:  Iter= 16 NonCon=     1 RMS=3.70D-08 Max=1.27D-06 NDo=     1
 LinEq1:  Iter= 17 NonCon=     1 RMS=1.67D-08 Max=5.79D-07 NDo=     1
 LinEq1:  Iter= 18 NonCon=     1 RMS=6.61D-09 Max=1.64D-07 NDo=     1
 LinEq1:  Iter= 19 NonCon=     1 RMS=3.17D-09 Max=1.09D-07 NDo=     1
 LinEq1:  Iter= 20 NonCon=     1 RMS=1.47D-09 Max=3.79D-08 NDo=     1
 LinEq1:  Iter= 21 NonCon=     1 RMS=4.14D-10 Max=1.19D-08 NDo=     1
 LinEq1:  Iter= 22 NonCon=     1 RMS=1.74D-10 Max=4.72D-09 NDo=     1
 LinEq1:  Iter= 23 NonCon=     1 RMS=7.55D-11 Max=1.66D-09 NDo=     1
 LinEq1:  Iter= 24 NonCon=     0 RMS=2.26D-11 Max=5.75D-10 NDo=     1
 Linear equations converged to 1.000D-10 1.000D-09 after    24 iterations.
 End of Minotr F.D. properties file   721 does not exist.
 End of Minotr F.D. properties file   722 does not exist.
 End of Minotr F.D. properties file   788 does not exist.
 Leave Link 1002 at Mon Jul 13 15:21:48 2020, MaxMem=  7784628224 cpu:             781.7 elap:             104.6
 (Enter /gpfs/loomis/apps/avx/software/Gaussian/16-C.01_AVX/g16/l601.exe)
 Copying SCF densities to generalized density rwf, IOpCl= 0 IROHF=0.

 **********************************************************************

            Population analysis using the SCF Density.

 **********************************************************************

 Alpha  occ. eigenvalues --  -89.10111 -19.22153 -14.50973 -10.41199 -10.37381
 Alpha  occ. eigenvalues --  -10.36325 -10.35986 -10.33119 -10.32725 -10.32327
 Alpha  occ. eigenvalues --  -10.32206 -10.31741 -10.31203 -10.30994 -10.29551
 Alpha  occ. eigenvalues --  -10.28948  -8.12155  -6.07012  -6.06658  -6.06185
 Alpha  occ. eigenvalues --   -1.12898  -1.09666  -0.97987  -0.95531  -0.93161
 Alpha  occ. eigenvalues --   -0.89082  -0.86428  -0.83698  -0.81738  -0.76033
 Alpha  occ. eigenvalues --   -0.72244  -0.71875  -0.68417  -0.67950  -0.64840
 Alpha  occ. eigenvalues --   -0.60907  -0.59564  -0.57090  -0.55422  -0.55340
 Alpha  occ. eigenvalues --   -0.54712  -0.53766  -0.52988  -0.50622  -0.49632
 Alpha  occ. eigenvalues --   -0.49050  -0.48089  -0.46735  -0.45237  -0.45092
 Alpha  occ. eigenvalues --   -0.44190  -0.43253  -0.42098  -0.40530  -0.36694
 Alpha  occ. eigenvalues --   -0.33260  -0.33059  -0.31352  -0.26639
 Alpha virt. eigenvalues --   -0.01872   0.04000   0.05922   0.06654   0.08780
 Alpha virt. eigenvalues --    0.10569   0.14155   0.14819   0.16507   0.17589
 Alpha virt. eigenvalues --    0.18803   0.20447   0.21336   0.21487   0.22909
 Alpha virt. eigenvalues --    0.23586   0.24092   0.25274   0.28436   0.28877
 Alpha virt. eigenvalues --    0.31661   0.33617   0.35372   0.35710   0.36667
 Alpha virt. eigenvalues --    0.38277   0.39238   0.40159   0.41716   0.43354
 Alpha virt. eigenvalues --    0.46855   0.47892   0.50858   0.51057   0.51479
 Alpha virt. eigenvalues --    0.52654   0.52971   0.53257   0.54564   0.54861
 Alpha virt. eigenvalues --    0.56271   0.56326   0.56660   0.56754   0.57963
 Alpha virt. eigenvalues --    0.58179   0.58428   0.59131   0.59560   0.59888
 Alpha virt. eigenvalues --    0.60877   0.61178   0.61991   0.62769   0.62916
 Alpha virt. eigenvalues --    0.65050   0.66040   0.66935   0.67975   0.68755
 Alpha virt. eigenvalues --    0.70554   0.70908   0.72091   0.72590   0.72995
 Alpha virt. eigenvalues --    0.73509   0.74854   0.75356   0.75986   0.77855
 Alpha virt. eigenvalues --    0.78884   0.79415   0.80325   0.81253   0.82372
 Alpha virt. eigenvalues --    0.83572   0.88138   0.89492   0.90975   0.92943
 Alpha virt. eigenvalues --    0.94327   0.94588   0.95903   0.96633   0.97152
 Alpha virt. eigenvalues --    0.98556   0.98830   1.00233   1.00689   1.01419
 Alpha virt. eigenvalues --    1.02634   1.05320   1.06018   1.06301   1.07398
 Alpha virt. eigenvalues --    1.08129   1.09286   1.10211   1.10827   1.11157
 Alpha virt. eigenvalues --    1.12464   1.13066   1.13598   1.14815   1.15092
 Alpha virt. eigenvalues --    1.16470   1.19579   1.20005   1.22859   1.23609
 Alpha virt. eigenvalues --    1.26142   1.28104   1.32908   1.33458   1.34464
 Alpha virt. eigenvalues --    1.35030   1.37213   1.38460   1.40703   1.46686
 Alpha virt. eigenvalues --    1.49068   1.49687   1.53408   1.53424   1.54791
 Alpha virt. eigenvalues --    1.56755   1.57086   1.57365   1.58782   1.59309
 Alpha virt. eigenvalues --    1.60454   1.60722   1.65400   1.65812   1.67427
 Alpha virt. eigenvalues --    1.68085   1.70113   1.70262   1.71175   1.71375
 Alpha virt. eigenvalues --    1.71750   1.72300   1.73469   1.73664   1.75247
 Alpha virt. eigenvalues --    1.77850   1.80171   1.80417   1.80878   1.82194
 Alpha virt. eigenvalues --    1.82957   1.84735   1.84794   1.85290   1.85674
 Alpha virt. eigenvalues --    1.86630   1.88938   1.89661   1.91521   1.91962
 Alpha virt. eigenvalues --    1.92781   1.93895   1.95205   1.96084   1.96485
 Alpha virt. eigenvalues --    1.97579   1.99928   2.00179   2.02933   2.04168
 Alpha virt. eigenvalues --    2.05978   2.07502   2.09624   2.10478   2.15022
 Alpha virt. eigenvalues --    2.15373   2.17188   2.18048   2.21338   2.23855
 Alpha virt. eigenvalues --    2.26909   2.28587   2.31998   2.37909   2.40182
 Alpha virt. eigenvalues --    2.41388   2.42575   2.46559   2.47426   2.48538
 Alpha virt. eigenvalues --    2.49244   2.51062   2.52578   2.53571   2.61813
 Alpha virt. eigenvalues --    2.62191   2.71076   2.74325   2.74707   2.79498
 Alpha virt. eigenvalues --    2.81593   2.83281   2.85964   2.86707   2.89901
 Alpha virt. eigenvalues --    2.92158   3.02118   3.13970   3.24109   3.42769
 Alpha virt. eigenvalues --    3.47959   3.56933   3.59429   3.77434
          Condensed to atoms (all electrons):
               1          2          3          4          5          6
     1  C    4.725965   0.490057   0.005524  -0.051383  -0.013419   0.516105
     2  C    0.490057   5.319403   0.313487  -0.048224  -0.068759  -0.007863
     3  C    0.005524   0.313487   4.854817   0.510702  -0.002620  -0.064773
     4  C   -0.051383  -0.048224   0.510702   4.775210   0.520620  -0.012638
     5  C   -0.013419  -0.068759  -0.002620   0.520620   4.725492   0.497621
     6  C    0.516105  -0.007863  -0.064773  -0.012638   0.497621   4.734863
     7  H    0.403548  -0.038978   0.008904  -0.000599   0.008102  -0.039067
     8  H   -0.000605   0.010883  -0.029287   0.394764  -0.041279   0.007486
     9  H    0.008843  -0.000523   0.008399  -0.038185   0.405139  -0.044485
    10  H   -0.042399   0.009472  -0.000493   0.008464  -0.042590   0.407221
    11  N    0.004399  -0.041899   0.377393  -0.046937   0.002649   0.000222
    12  S   -0.068512   0.332289  -0.118694   0.005230   0.000248   0.004019
    13  C   -0.000215   0.001369   0.011434  -0.000505   0.000009   0.000002
    14  C   -0.000008   0.000115   0.000338   0.000006  -0.000000  -0.000000
    15  C    0.000003  -0.000320   0.000513   0.000052  -0.000000   0.000000
    16  C    0.000000  -0.000004   0.000004  -0.000000   0.000000   0.000000
    17  H   -0.000008   0.000148   0.000001   0.000000   0.000000   0.000000
    18  C    0.000000   0.000008  -0.000022  -0.000000  -0.000000  -0.000000
    19  C   -0.000000   0.000000   0.000001   0.000000  -0.000000   0.000000
    20  H   -0.000000  -0.000000  -0.000000   0.000000  -0.000000  -0.000000
    21  H   -0.000000   0.000000  -0.000000  -0.000000  -0.000000   0.000000
    22  H    0.000000  -0.000000  -0.000000  -0.000000   0.000000  -0.000000
    23  C    0.003555  -0.047174  -0.112495   0.001503   0.000277  -0.000225
    24  O    0.000002  -0.000161  -0.000642  -0.000011   0.000000  -0.000000
    25  H    0.000101   0.007440  -0.029215  -0.003562  -0.000079  -0.000003
               7          8          9         10         11         12
     1  C    0.403548  -0.000605   0.008843  -0.042399   0.004399  -0.068512
     2  C   -0.038978   0.010883  -0.000523   0.009472  -0.041899   0.332289
     3  C    0.008904  -0.029287   0.008399  -0.000493   0.377393  -0.118694
     4  C   -0.000599   0.394764  -0.038185   0.008464  -0.046937   0.005230
     5  C    0.008102  -0.041279   0.405139  -0.042590   0.002649   0.000248
     6  C   -0.039067   0.007486  -0.044485   0.407221   0.000222   0.004019
     7  H    0.652012   0.000029  -0.000148  -0.011394  -0.000089  -0.007504
     8  H    0.000029   0.643292  -0.012166  -0.000111  -0.003480  -0.000230
     9  H   -0.000148  -0.012166   0.659108  -0.012182  -0.000105   0.000021
    10  H   -0.011394  -0.000111  -0.012182   0.658144   0.000004  -0.000152
    11  N   -0.000089  -0.003480  -0.000105   0.000004   6.197258  -0.054172
    12  S   -0.007504  -0.000230   0.000021  -0.000152  -0.054172  15.446118
    13  C    0.000002   0.000035  -0.000000  -0.000000  -0.028314  -0.065185
    14  C    0.000001   0.000001   0.000000  -0.000000   0.003371  -0.009716
    15  C   -0.000000  -0.000004   0.000000   0.000000  -0.006531   0.004649
    16  C    0.000000  -0.000000  -0.000000  -0.000000  -0.000083   0.000161
    17  H    0.000001   0.000000  -0.000000  -0.000000   0.000244   0.007939
    18  C    0.000000  -0.000000   0.000000  -0.000000  -0.000540  -0.000163
    19  C    0.000000   0.000000  -0.000000  -0.000000   0.000040   0.000024
    20  H    0.000000  -0.000000   0.000000   0.000000   0.000001   0.000005
    21  H   -0.000000   0.000000  -0.000000   0.000000   0.000016   0.000004
    22  H    0.000000  -0.000000   0.000000  -0.000000  -0.000000  -0.000001
    23  C    0.000181  -0.000677   0.000006   0.000005   0.530166   0.321979
    24  O    0.000000  -0.000181   0.000000  -0.000000  -0.068201  -0.000234
    25  H    0.000004   0.000864  -0.000007  -0.000000   0.302637   0.003839
              13         14         15         16         17         18
     1  C   -0.000215  -0.000008   0.000003   0.000000  -0.000008   0.000000
     2  C    0.001369   0.000115  -0.000320  -0.000004   0.000148   0.000008
     3  C    0.011434   0.000338   0.000513   0.000004   0.000001  -0.000022
     4  C   -0.000505   0.000006   0.000052  -0.000000   0.000000  -0.000000
     5  C    0.000009  -0.000000  -0.000000   0.000000   0.000000  -0.000000
     6  C    0.000002  -0.000000   0.000000   0.000000   0.000000  -0.000000
     7  H    0.000002   0.000001  -0.000000   0.000000   0.000001   0.000000
     8  H    0.000035   0.000001  -0.000004  -0.000000   0.000000  -0.000000
     9  H   -0.000000   0.000000   0.000000  -0.000000  -0.000000   0.000000
    10  H   -0.000000  -0.000000   0.000000  -0.000000  -0.000000  -0.000000
    11  N   -0.028314   0.003371  -0.006531  -0.000083   0.000244  -0.000540
    12  S   -0.065185  -0.009716   0.004649   0.000161   0.007939  -0.000163
    13  C    5.414669   0.439518   0.203992  -0.006695  -0.039889  -0.040077
    14  C    0.439518   4.847463   0.006914   0.537976   0.398149  -0.059110
    15  C    0.203992   0.006914   4.742385  -0.056204   0.006420   0.478644
    16  C   -0.006695   0.537976  -0.056204   4.757386  -0.031783  -0.019642
    17  H   -0.039889   0.398149   0.006420  -0.031783   0.673662  -0.000780
    18  C   -0.040077  -0.059110   0.478644  -0.019642  -0.000780   4.864901
    19  C   -0.052991  -0.019045  -0.007664   0.482251   0.008169   0.507986
    20  H    0.009065  -0.036125  -0.000161   0.400468  -0.012145   0.008218
    21  H    0.015061  -0.000643  -0.023794   0.007562   0.000051   0.373461
    22  H   -0.001549   0.009716   0.008808  -0.045869  -0.000190  -0.040154
    23  C    0.361360  -0.092688  -0.076444   0.006399  -0.021324   0.008958
    24  O   -0.092229   0.006051   0.609525  -0.000107  -0.000071  -0.062655
    25  H   -0.031885  -0.000720  -0.018820   0.000044  -0.000063   0.003658
              19         20         21         22         23         24
     1  C   -0.000000  -0.000000  -0.000000   0.000000   0.003555   0.000002
     2  C    0.000000  -0.000000   0.000000  -0.000000  -0.047174  -0.000161
     3  C    0.000001  -0.000000  -0.000000  -0.000000  -0.112495  -0.000642
     4  C    0.000000   0.000000  -0.000000  -0.000000   0.001503  -0.000011
     5  C   -0.000000  -0.000000  -0.000000   0.000000   0.000277   0.000000
     6  C    0.000000  -0.000000   0.000000  -0.000000  -0.000225  -0.000000
     7  H    0.000000   0.000000  -0.000000   0.000000   0.000181   0.000000
     8  H    0.000000  -0.000000   0.000000  -0.000000  -0.000677  -0.000181
     9  H   -0.000000   0.000000  -0.000000   0.000000   0.000006   0.000000
    10  H   -0.000000   0.000000   0.000000  -0.000000   0.000005  -0.000000
    11  N    0.000040   0.000001   0.000016  -0.000000   0.530166  -0.068201
    12  S    0.000024   0.000005   0.000004  -0.000001   0.321979  -0.000234
    13  C   -0.052991   0.009065   0.015061  -0.001549   0.361360  -0.092229
    14  C   -0.019045  -0.036125  -0.000643   0.009716  -0.092688   0.006051
    15  C   -0.007664  -0.000161  -0.023794   0.008808  -0.076444   0.609525
    16  C    0.482251   0.400468   0.007562  -0.045869   0.006399  -0.000107
    17  H    0.008169  -0.012145   0.000051  -0.000190  -0.021324  -0.000071
    18  C    0.507986   0.008218   0.373461  -0.040154   0.008958  -0.062655
    19  C    4.736781  -0.046976  -0.046786   0.403740   0.000562   0.003951
    20  H   -0.046976   0.686451  -0.000156  -0.012423  -0.000393   0.000001
    21  H   -0.046786  -0.000156   0.677125  -0.012663  -0.000458   0.004746
    22  H    0.403740  -0.012423  -0.012663   0.673335   0.000004  -0.000073
    23  C    0.000562  -0.000393  -0.000458   0.000004   5.073187  -0.011263
    24  O    0.003951   0.000001   0.004746  -0.000073  -0.011263   7.870745
    25  H   -0.000362  -0.000001   0.000011   0.000007   0.010249   0.144289
              25
     1  C    0.000101
     2  C    0.007440
     3  C   -0.029215
     4  C   -0.003562
     5  C   -0.000079
     6  C   -0.000003
     7  H    0.000004
     8  H    0.000864
     9  H   -0.000007
    10  H   -0.000000
    11  N    0.302637
    12  S    0.003839
    13  C   -0.031885
    14  C   -0.000720
    15  C   -0.018820
    16  C    0.000044
    17  H   -0.000063
    18  C    0.003658
    19  C   -0.000362
    20  H   -0.000001
    21  H    0.000011
    22  H    0.000007
    23  C    0.010249
    24  O    0.144289
    25  H    0.455468
 Mulliken charges:
               1
     1  C    0.018445
     2  C   -0.230764
     3  C    0.266724
     4  C   -0.014509
     5  C    0.008589
     6  C    0.001516
     7  H    0.024995
     8  H    0.030667
     9  H    0.026285
    10  H    0.026013
    11  N   -0.168047
    12  S    0.198037
    13  C   -0.096983
    14  C   -0.031562
    15  C    0.128038
    16  C   -0.031863
    17  H    0.011468
    18  C   -0.022691
    19  C    0.030320
    20  H    0.004170
    21  H    0.006464
    22  H    0.017311
    23  C    0.044749
    24  O   -0.403481
    25  H    0.156107
 Sum of Mulliken charges =  -0.00000
 Mulliken charges with hydrogens summed into heavy atoms:
               1
[...]
 22,0.56545746,-0.00000002,0.,-0.00011317,0.,-0.00000001,0.00028459,-0.
 00000001,0.00000001,-0.00017567,0.,0.,0.00000819,0.,0.,-0.00005924,0.0
 0000001,0.,-0.00007577,0.,0.,0.00004200,0.,0.,0.00005486,0.,0.,-0.0000
 0518,0.,0.,0.00004671,0.,0.,-0.00121415,0.,0.,0.00183285,-0.00000029,-
 0.00000121,-0.07430905,0.00000006,-0.00000007,0.00291085,-0.00000073,0
 .00000414,0.17348987,-0.00034664,0.00128659,0.,0.00351151,0.00131459,-
 0.00000002,0.00296991,-0.00533729,-0.00000004,-0.00322937,0.00094099,0
 .00000002,-0.00010410,-0.00271872,-0.00000001,0.00160781,0.00091036,0.
 ,-0.00005312,-0.00005230,0.,0.00006143,0.00003655,0.,0.00004650,-0.000
 04414,0.,0.00005179,0.00000086,0.,-0.00196468,0.00950983,0.00000015,-0
 .00215186,0.00038000,0.,-0.04936217,0.01875223,0.00000027,-0.19669982,
 0.12893545,0.00000179,0.00708620,0.00095389,-0.00000012,0.72280384,0.0
 0040231,-0.00251187,0.00000003,-0.01010933,-0.00350917,0.00000003,-0.0
 0928950,0.01637372,0.00000009,0.00946192,-0.00215639,-0.00000005,0.000
 06665,0.00724986,0.00000004,-0.00335845,-0.00295856,-0.00000002,0.0000
 3338,0.00015793,0.,-0.00007646,-0.00011800,0.,-0.00006615,0.00012994,0
 .,-0.00005641,-0.00002778,0.,0.00952553,-0.01616901,-0.00000024,0.0027
 4982,-0.00339355,0.,0.05416996,0.02024667,0.00000018,0.03918960,-0.224
 26830,-0.00000220,0.02052801,-0.00718807,0.00000025,0.04132015,0.62359
 598,0.,-0.00000003,-0.00003062,-0.00000013,-0.00000004,0.00003953,-0.0
 0000011,0.00000019,-0.00038317,0.00000011,-0.00000002,-0.00027113,0.,0
 .00000009,-0.00000390,-0.00000004,-0.00000004,0.00000810,0.,0.,-0.0000
 2934,0.,0.,-0.00001749,0.,0.,0.00002273,0.,0.,0.00003327,0.00000008,-0
 .00000023,0.00256049,0.00000004,-0.00000004,-0.00048031,0.00000072,0.0
 0000025,0.00241578,0.00000065,-0.00000224,-0.05191637,0.00000018,-0.00
 000003,-0.00487567,-0.00000071,0.00000539,0.12628991,0.00025580,0.0000
 3817,0.,-0.00068224,0.00026802,0.00000001,0.00040558,-0.00022633,0.,-0
 .00006067,0.00012516,0.,0.00006448,-0.00006143,0.,0.00000986,-0.000049
 11,0.,-0.00002094,-0.00000785,0.,0.00003624,0.00000339,0.,0.00001210,-
 0.00000400,0.,0.00003719,-0.00000908,0.,0.00051514,0.00081977,0.000000
 02,-0.00121160,0.00166364,0.,-0.00468098,-0.02904852,-0.00000037,-0.08
 791460,-0.08848555,-0.00000094,-0.00466702,0.00296053,0.00000005,0.010
 47671,0.02116398,0.00000025,0.09037549,0.00007900,-0.00002199,0.,-0.00
 020968,0.00055876,0.,0.00029861,0.00002545,0.,0.00001741,0.00005945,0.
 ,0.00001945,0.00008291,0.,-0.00011224,-0.00004470,0.,-0.00001490,0.000
 01429,0.,0.00002242,-0.00000471,0.,-0.00000186,0.00000174,0.,0.0000037
 3,0.00000222,0.,0.00006952,0.00057039,0.00000004,0.00042376,-0.0007181
 6,-0.00000002,0.00093287,-0.00295052,-0.00000009,-0.08681113,-0.310888
 03,-0.00000327,0.00030534,0.00224657,-0.00000007,-0.01100210,-0.017418
 35,-0.00000024,0.09200752,0.32998691,0.,0.,-0.00002139,0.00000002,0.00
 000002,-0.00046094,0.00000002,-0.00000005,0.00046648,-0.00000003,0.,0.
 00010991,0.,-0.00000002,-0.00000831,0.,0.,0.00001398,0.,0.,0.00001665,
 0.,0.,0.00001239,0.,0.,-0.00000332,0.,0.,-0.00000329,0.,0.00000010,-0.
 00228723,-0.00000002,-0.00000002,0.00136487,0.00000003,-0.00000014,0.0
 0580005,-0.00000088,-0.00000325,-0.03407483,0.,-0.00000004,0.00871398,
 -0.00000017,-0.00000023,0.00326145,0.00000100,0.00000365,0.02053861,-0
 .00092973,0.00005572,0.00000003,-0.00548634,-0.00359759,0.,-0.00589825
 ,0.01370995,0.00000002,0.00643918,-0.00150821,-0.00000002,-0.00017798,
 0.00341259,0.00000002,0.00009456,-0.00190402,-0.00000002,-0.00009793,0
 .00011583,0.,0.00004610,-0.00004186,0.,0.00008657,0.00002774,0.,0.0000
 6723,-0.00005856,0.,0.01301046,-0.00098305,0.00000010,0.00034398,-0.00
 383498,0.00000005,0.02270411,0.01618726,0.00000012,-0.03666800,0.02210
 753,0.00000028,-0.14977057,0.08517797,0.00000111,-0.00855210,-0.081367
 60,-0.00000091,-0.00064732,0.00006030,0.00000003,0.69361988,0.00053109
 ,-0.00005407,0.,-0.00008795,-0.00017189,0.,0.00077101,-0.00105779,0.,-
 0.00090797,0.00023277,0.,0.00013520,-0.00042248,0.,-0.00018022,0.00015
 699,0.,-0.00000550,0.00001513,0.,-0.00001067,0.00000100,0.,-0.00000930
 ,-0.00000868,0.,0.00001971,0.00000456,0.,0.00035154,0.00046033,0.,0.00
 137936,-0.00124655,-0.00000005,0.01631197,-0.03002754,-0.00000032,0.00
 479701,-0.00206018,-0.00000002,0.09373344,-0.24086906,-0.00000174,-0.0
 3536679,-0.00725679,-0.00000009,-0.00020389,0.00068023,0.,0.04773835,0
 .70669060,0.00000003,-0.00000001,0.00015463,0.00000002,0.00000005,0.00
 047659,0.00000007,-0.00000016,0.00143841,-0.00000007,0.,-0.00018837,0.
 00000001,-0.00000002,-0.00005866,-0.00000002,0.00000002,-0.00010499,0.
 ,0.,0.00011926,0.,0.,0.00007219,0.,0.,0.00001366,0.,0.,-0.00005669,-0.
 00000015,0.00000017,-0.00493711,0.00000001,-0.00000007,0.00164675,0.00
 000007,-0.00000055,0.01216267,0.00000008,0.00000009,-0.00429112,0.0000
 0106,-0.00000187,-0.06568278,-0.00000033,-0.00000003,0.00636344,0.,0.0
 0000002,-0.00158573,-0.00000008,0.00000640,0.10727978,0.00076476,0.000
 78414,-0.00000003,0.00748848,0.00415669,0.,0.00879179,-0.01699128,-0.0
 0000007,-0.00841932,0.00198734,0.00000004,0.00019451,-0.00516766,-0.00
 000003,0.00099738,0.00262180,0.00000003,0.00005173,-0.00010586,0.,0.00
 002276,0.00007261,0.,-0.00006272,-0.00005253,0.,-0.00002274,0.00005816
 ,0.,-0.01507218,0.01120428,0.00000014,-0.00004516,0.00287584,-0.000000
 04,-0.01541202,-0.01530634,-0.00000014,0.05997854,0.00142614,-0.000000
 05,-0.05795631,0.01729020,0.00000004,-0.14422393,-0.00560646,0.0000001
 7,-0.00287844,0.00459381,0.00000004,-0.33642364,-0.07346875,-0.0000002
 8,0.68822062,0.00002335,0.00106498,-0.00000002,0.00359225,0.00152261,0
 .,0.00418174,-0.00607729,0.00000002,-0.00404297,0.00100348,0.00000002,
 0.00001918,-0.00304131,-0.00000002,0.00133265,0.00107332,0.,-0.0000269
 7,-0.00004523,0.,0.00004273,0.00002872,0.,0.00002758,-0.00006221,0.,0.
 00003314,0.00002288,0.,-0.00143794,0.00826833,-0.00000001,-0.00187090,
 0.00108852,0.,-0.02820483,-0.00915394,-0.00000003,0.05360072,-0.058094
 07,-0.00000077,-0.00165024,0.02393614,-0.00000002,-0.09726008,-0.30064
 271,-0.00000236,0.00340030,-0.00102927,-0.00000009,-0.01257670,-0.1288
 1019,-0.00000086,-0.05499976,0.68934461,0.,0.00000001,0.00014724,0.000
 00002,0.,-0.00041773,0.00000001,0.00000002,-0.00113416,-0.00000002,0.,
 0.00008732,0.,-0.00000002,0.00009070,0.00000002,0.,0.00001465,0.,0.,-0
 .00005644,0.,0.,-0.00011441,0.,0.,-0.00000089,0.,0.,0.00000978,0.00000
 005,0.00000002,0.00173151,-0.00000002,0.,0.00037192,-0.00000031,-0.000
 00010,-0.00140307,0.00000053,-0.00000070,0.00839033,0.00000005,0.00000
 038,0.00230378,-0.00000086,-0.00000262,-0.05907683,0.00000005,-0.00000
 007,0.00398085,0.00000036,-0.00000078,-0.04906168,-0.00000153,0.000006
 25,0.11288820,0.00005896,-0.00010385,0.,-0.00011049,0.00011889,0.,-0.0
 0002998,-0.00007561,0.,0.00002416,0.00002130,0.,0.00000654,0.00009725,
 0.,-0.00014329,-0.00000107,0.,0.00000632,0.00000626,0.,-0.00000140,-0.
 00000470,0.,-0.00001109,0.00000749,0.,-0.00000905,0.00000501,0.,-0.000
 17684,0.00041926,0.,0.00007372,-0.00000330,0.,-0.00009109,0.00349814,0
 .00000005,-0.01505943,-0.00825263,-0.00000006,0.00058076,0.00040252,0.
 ,-0.33273962,-0.06381848,-0.00000016,0.00073985,0.00008458,-0.00000001
 ,0.00149736,-0.00147835,-0.00000001,-0.00424293,0.00206755,0.00000004,
 0.35003891,0.00001371,-0.00001035,0.,-0.00008510,-0.00009120,0.,0.0000
 0542,0.00024270,0.,0.00007871,-0.00006361,0.,0.00001351,0.00006421,0.,
 -0.00002502,-0.00003484,0.,0.00000041,-0.00000079,0.,-0.00000060,-0.00
 000010,0.,0.00000204,-0.00000289,0.,0.00000142,-0.00000120,0.,0.000391
 57,-0.00040349,0.,0.00003252,0.00001996,0.,0.00340368,-0.00382131,-0.0
 0000010,0.02258935,0.00848061,0.,0.00066348,-0.00082841,0.,-0.06394795
 ,-0.07412141,-0.00000030,-0.00023639,0.00084848,0.00000004,-0.00072102
 ,-0.00544055,-0.00000012,-0.02923812,-0.00013600,-0.00000002,0.0679794
 8,0.07317533,0.,0.,-0.00001643,0.,0.,0.00006889,0.,0.,0.00046664,0.,0.
 ,0.00008360,0.,0.,-0.00006003,0.,0.,0.00000888,0.,0.,0.00001061,0.,0.,
 0.00003567,0.,0.,-0.00001947,0.,0.,-0.00000510,0.,-0.00000001,-0.00015
 735,0.,0.,-0.00018884,0.00000002,-0.00000010,0.00471817,0.00000030,0.0
 0000002,0.00581332,0.,0.,-0.00147556,-0.00000017,-0.00000029,-0.036185
 54,0.,0.00000004,-0.00263878,0.00000003,-0.00000010,0.00614704,-0.0000
 0031,-0.00000010,0.00642923,0.00000015,0.00000044,0.02213238,-0.000100
 72,0.00003084,0.,0.00008880,0.00004915,0.,-0.00012118,0.00007489,0.,0.
 00004229,-0.00000295,0.,-0.00001953,-0.00002073,0.,0.00006949,0.000005
 49,0.,0.00000104,-0.00000507,0.,-0.00000456,0.00000071,0.,0.00000281,-
 0.00000084,0.,-0.00000280,-0.00000161,0.,0.00024402,-0.00037218,-0.000
 00002,-0.00028871,0.00014016,0.,-0.00367895,0.00290094,0.00000003,0.00
 002890,0.00022664,0.,0.00873563,0.02138891,0.00000025,-0.00577402,0.00
 029225,0.00000002,0.00010379,-0.00009346,0.,-0.08535409,-0.08885934,-0
 .00000098,-0.00251212,-0.02853946,-0.00000032,-0.00033295,-0.00142359,
 -0.00000001,0.08487433,0.00005173,0.00004564,0.,-0.00011888,-0.0001008
 2,0.,0.00008280,0.00007101,0.,0.00000302,-0.00000686,0.,0.00000436,-0.
 00002550,0.,0.00003842,-0.00002360,0.,-0.00000657,0.00000346,0.,0.0000
 0659,0.00000261,0.,0.00000699,-0.00000262,0.,0.00000990,-0.00000293,0.
 ,-0.00018824,0.00026779,0.,0.00023923,-0.00022412,0.,0.00405265,-0.001
 88912,-0.00000004,0.00020735,0.00034473,0.,-0.01218249,-0.01742171,-0.
 00000027,-0.00056747,0.00127417,-0.00000005,-0.00006448,-0.00008416,0.
 ,-0.08662024,-0.31900527,-0.00000313,0.00240373,-0.00051006,-0.0000000
 9,0.00006707,-0.00015330,0.,0.09443730,0.33440397,0.,0.,-0.00032135,-0
 .00000002,0.,-0.00019064,-0.00000001,0.00000003,0.00017541,0.00000002,
 0.,0.00000664,0.,0.00000001,-0.00004843,0.,0.,0.00006027,0.,0.,-0.0000
 1995,0.,0.,0.00004149,0.,0.,-0.00000447,0.,0.,0.00005989,0.00000001,-0
 .00000004,0.00043634,0.,0.,-0.00066874,0.00000003,0.,0.00320729,0.0000
 0003,-0.00000002,-0.00023036,-0.00000023,-0.00000027,0.00387786,0.0000
 0001,-0.00000005,0.00598390,0.,0.,-0.00008595,-0.00000094,-0.00000328,
 -0.03191182,0.00000009,0.00000004,0.00425867,0.,0.,-0.00047235,0.00000
 102,0.00000346,0.02141043,0.00004525,-0.00003680,0.,-0.00003359,0.0001
 0800,0.,0.00016894,-0.00007391,0.,-0.00003814,0.00001153,0.,0.00001090
 ,0.00002467,0.,-0.00006794,0.00000397,0.,0.00000111,0.00000425,0.,0.00
 000381,-0.00000377,0.,-0.00000671,0.00000271,0.,-0.00000399,0.00000394
 ,0.,0.00013479,0.00063699,0.00000002,-0.00003720,0.00012003,0.,-0.0002
 3202,-0.00059082,-0.00000001,0.00029091,-0.00237349,-0.00000002,-0.002
 76769,-0.00389693,0.,0.00934212,-0.00942438,-0.00000011,0.00033893,-0.
 00040232,0.,-0.01441995,0.02471805,0.00000027,-0.19340991,0.14499508,0
 .00000178,0.00067436,0.00034920,0.,0.00107883,-0.00027449,-0.00000001,
 0.20119287,-0.00000986,0.00009061,0.,0.00024183,0.00012145,0.,0.000277
 06,-0.00048435,0.,-0.00025923,0.00006860,0.,-0.00000015,-0.00022035,0.
 ,0.00012486,0.00007940,0.,-0.00000552,-0.00000615,0.,0.00000589,0.0000
 0593,0.,0.00000641,-0.00000498,0.,0.00000723,-0.00000249,0.,-0.0003998
 5,0.00025010,0.,-0.00011236,0.00007668,0.,-0.00081933,0.00023928,0.000
 00001,-0.00272893,-0.00418409,-0.00000009,-0.00239722,-0.00012271,-0.0
 0000007,0.02260343,-0.01518762,-0.00000022,0.00102951,-0.00102685,-0.0
 0000002,-0.00709502,0.00846963,0.00000006,0.14390607,-0.21228180,-0.00
 000210,-0.00014698,0.00101072,0.00000005,0.00032055,0.00062090,0.00000
 004,-0.15449299,0.22181690,0.,0.,0.00000446,0.00000001,0.,0.00007957,0
 .,0.,0.00007539,0.,0.,0.00001405,0.,0.,-0.00000020,0.,0.,-0.00000270,0
 .,0.,0.00000366,0.,0.,0.00001415,0.,0.,-0.00000032,0.,0.,-0.00001156,0
 .00000002,0.00000001,-0.00009124,0.,0.,-0.00017610,0.,0.00000001,-0.00
 112124,0.,-0.00000009,0.00557555,-0.00000003,-0.00000010,0.00675531,0.
 00000022,-0.00000016,0.00261753,0.,-0.00000002,0.00076078,-0.00000004,
 0.00000002,0.00360676,0.00000175,-0.00000211,-0.03266204,0.,0.00000005
 ,-0.00380122,0.,0.00000005,-0.00361403,-0.00000190,0.00000232,0.022806
 38,-0.00290375,-0.00702982,-0.00000007,-0.00962173,0.02038428,0.000000
 13,-0.06933390,0.04236509,0.00000075,0.00951386,-0.00301053,-0.0000000
 2,-0.00103742,0.00671122,0.00000005,-0.00599235,-0.00230912,0.00000002
 ,0.00035317,-0.00057020,0.,-0.00067338,-0.00014281,0.,0.00008846,-0.00
 001052,0.,-0.00065436,-0.00008919,0.,-0.35515389,-0.05568038,0.0000005
 4,-0.04832736,-0.04761159,-0.00000007,-0.18923260,0.09768642,0.0000015
 9,-0.04221370,0.03305032,0.00000051,0.03662492,0.01521661,0.00000008,-
 0.00329411,-0.01133157,-0.00000004,0.00030460,0.00044521,-0.00000006,-
 0.00542223,-0.00535103,0.,0.00143454,0.00337162,0.00000003,-0.00064912
 ,0.00059873,0.,0.00073129,-0.00102991,0.,-0.00004553,0.00007094,-0.000
 00003,0.70825443,-0.00035088,0.00081776,-0.00000005,0.02923489,-0.0219
 7625,-0.00000020,0.02526896,0.00714594,-0.00000007,0.00009312,-0.00686
 862,-0.00000004,-0.00065947,-0.00188867,-0.00000003,0.00193091,-0.0005
 7239,-0.00000001,0.00003709,-0.00058224,0.,-0.00046109,0.00016944,0.00
 000001,0.00034054,-0.00053483,0.,-0.00017800,0.00002563,0.,-0.04333303
 ,-0.12021602,-0.00000100,-0.01598734,-0.15291802,-0.00000048,0.0799097
 6,-0.19880351,-0.00000186,0.02105289,0.01268144,-0.00000007,0.02034917
 ,-0.05025041,-0.00000065,-0.00511360,0.00090805,-0.00000009,-0.0020358
 9,0.00014559,0.00000007,-0.01436936,-0.00170007,-0.00000002,0.00828303
 ,0.00093719,0.00000003,-0.00077792,0.00108237,0.00000002,0.00060983,-0
 .00046086,-0.00000006,0.00005280,0.00032791,0.00000002,-0.07689005,0.5
 3186458,0.,0.00000003,0.00115053,0.00000015,-0.00000026,-0.00057979,0.
 00000029,-0.00000002,0.00655476,0.,-0.00000005,0.00236060,0.00000001,-
 0.00000004,0.00109597,0.00000004,0.,0.00081244,0.,0.,-0.00041966,0.,0.
 ,-0.00062841,0.,0.,-0.00050091,0.,0.,-0.00020752,0.00000169,-0.0000005
 4,-0.03264947,0.00000009,-0.00000074,-0.01951642,0.00000141,-0.0000018
 3,-0.03497630,0.00000024,0.00000010,0.00859485,0.00000028,-0.00000075,
 0.00424014,0.00000002,-0.00000020,0.00377875,-0.00000002,0.00000002,-0
 .00243250,-0.00000034,0.00000002,-0.00014704,0.00000024,0.00000012,-0.
 00076763,0.,0.00000002,-0.00096111,0.,-0.00000002,0.00183765,0.,0.,-0.
 00015394,-0.00000353,0.00000418,0.06254176,0.00001727,0.00130779,0.000
 00001,-0.00058223,0.00208035,-0.00000002,0.00892281,-0.00012745,-0.000
 00002,-0.00032867,0.00006938,0.,-0.00014434,-0.00092941,0.,0.00131701,
 0.00020279,0.,-0.00018273,0.00020791,0.,0.00025828,0.00002118,0.,0.000
 00858,0.00004297,0.,0.00006203,0.00002158,0.,0.00105483,0.03914987,0.0
 0000090,0.00008521,0.00021137,0.,-0.03257923,-0.04152127,-0.00000049,0
 .00871355,-0.00538382,-0.00000006,-0.43576113,-0.08693265,-0.00000051,
 -0.01095312,-0.00207469,0.00000002,-0.00127994,-0.00101396,-0.00000001
 ,-0.08913678,0.01610461,0.00000028,0.01195729,0.01172421,0.00000012,-0
 .00019019,-0.00045432,0.,0.00228037,-0.00061169,0.00000002,-0.00244874
 ,-0.00009284,0.,-0.01578135,0.00484558,0.00000010,0.55289358,-0.000723
 09,-0.00048442,0.,0.00018071,-0.00365552,0.,-0.01070677,0.00124325,-0.
 00000007,0.00136467,-0.00067970,0.,0.00006743,0.00105708,0.,-0.0001291
 9,-0.00076885,0.,0.00011235,-0.00024936,0.,0.00008159,0.00008207,0.,0.
 00013314,-0.00009542,0.,0.00003703,-0.00006176,0.,0.02058911,-0.045707
 84,-0.00000083,0.00019261,-0.00045691,-0.00000003,-0.04123683,-0.01702
 502,-0.00000021,-0.00395709,-0.00896670,-0.00000016,-0.08888747,-0.117
 06870,-0.00000036,0.00094805,-0.00560804,-0.00000007,-0.00213753,-0.00
 035837,0.00000002,0.03100319,0.02224394,-0.00000005,0.00486282,-0.0003
 1152,-0.00000011,-0.00008589,0.00034463,0.00000002,-0.00165707,0.00316
 376,0.00000013,0.00147436,0.00047253,0.00000003,0.00359619,0.01078204,
 0.00000018,0.10094180,0.15557795,-0.00000003,0.,0.00027511,0.00000004,
 -0.00000008,-0.00036376,-0.00000012,0.00000005,-0.00064981,0.00000002,
 0.,0.00016904,-0.00000001,0.,0.00017117,0.00000003,-0.00000001,0.00004
 680,0.,0.,-0.00011060,0.,0.,-0.00018377,0.,0.,-0.00002506,0.,0.,-0.000
 06202,0.00000036,-0.00000074,0.01201813,0.,0.00000007,-0.00133534,-0.0
 0000032,-0.00000040,0.01584783,-0.00000011,-0.00000013,0.00233034,-0.0
 0000031,-0.00000018,-0.05760472,0.00000004,-0.00000008,0.00014000,-0.0
 0000002,0.00000002,-0.00196379,0.00000024,-0.00000003,0.01621440,0.000
 00004,0.,0.00395951,0.,0.,0.00008701,-0.00000002,0.00000007,-0.0035421
 5,0.,0.,-0.00055510,0.00000001,0.00000025,-0.00279833,0.00000023,0.000
 00134,0.03181533,0.00077486,0.00010508,-0.00000002,-0.00420207,0.00150
 518,0.00000003,0.00714936,0.01321651,0.00000044,0.00150554,-0.00023555
 ,-0.00000002,-0.00003379,0.00041689,0.,-0.00027697,-0.00022261,0.,-0.0
 0008259,0.00020165,0.,-0.00059636,-0.00040863,-0.00000003,0.00000861,-
 0.00001253,0.,-0.00002089,-0.00005061,0.,-0.07399592,-0.04239718,-0.00
 000133,-0.00382248,-0.00462313,-0.00000002,0.00185430,-0.00179246,-0.0
 0000003,-0.00252660,0.00066648,0.00000002,-0.01730674,0.00532263,0.000
 00005,0.00149083,-0.00232408,-0.00000003,0.00036801,0.00029811,0.00000
 002,0.00107547,-0.00066158,0.00000003,0.00077903,0.00219776,0.,0.00008
 654,0.00000888,0.,-0.00009196,0.00005331,0.,0.00022861,-0.00003351,0.,
 -0.00696848,-0.03185196,-0.00000068,0.00179764,-0.01606413,-0.00000007
 ,0.09280606,0.00095976,0.00056070,-0.00000001,0.00279922,0.00699152,-0
 .00000012,0.01623462,-0.00933243,0.00000010,-0.00399624,0.00251079,0.0
 0000006,-0.00044790,-0.00279824,0.,0.00041043,0.00156073,0.00000001,-0
 .00011039,0.00031383,0.,0.00024892,-0.00030343,-0.00000002,-0.00024533
 ,0.00020500,0.,-0.00007287,0.00013934,0.,-0.05707113,-0.21433882,-0.00
 000432,0.00271790,0.00951575,-0.00000007,-0.01320241,0.00808050,0.0000
 0019,0.01320151,-0.00507889,-0.00000012,0.03048124,0.01212192,0.000000
 05,-0.00648251,0.01259929,0.00000018,-0.00090996,-0.00067787,-0.000000
 04,-0.00491821,-0.00082407,0.00000008,-0.00558989,-0.00809514,-0.00000
 010,-0.00002603,-0.00015957,0.00000002,0.00049864,-0.00028711,0.000000
 02,-0.00093567,-0.00012926,-0.00000002,-0.01243990,-0.01011603,-0.0000
 0024,-0.03778928,0.00653089,-0.00000018,0.07668550,0.19101059,0.000000
 02,0.00000009,0.00076984,-0.00000006,0.00000012,0.00251434,0.00000032,
 0.00000070,-0.00707051,0.00000012,0.,-0.00091282,-0.00000004,0.0000000
 2,-0.00022572,0.00000004,-0.00000003,-0.00010575,-0.00000001,0.0000000
 2,-0.00001816,0.,-0.00000003,-0.00002301,0.,0.,0.00008354,0.,0.,0.0000
 4017,-0.00000193,-0.00000622,-0.02699216,0.00000013,0.00000026,0.00233
 990,-0.00000023,0.00000020,-0.00332599,0.00000019,-0.00000011,0.000118
 91,0.00000045,0.00000021,0.00102996,-0.00000009,0.00000018,-0.00024449
 ,-0.00000002,-0.00000001,0.00052604,-0.00000005,-0.00000004,0.00233040
 ,-0.00000008,-0.00000009,0.00003119,0.,0.,-0.00001968,0.,0.,-0.0002456
 2,-0.00000002,0.,-0.00012388,0.00000013,0.00000003,0.00377158,-0.00000
 056,0.00000019,-0.01388021,0.00000167,0.00000452,0.03963209\\-0.000677
 14,-0.00227842,-0.00000001,-0.00316748,-0.00465709,-0.00000007,-0.0058
 4036,0.00011516,-0.00000004,0.00058555,-0.00097441,-0.00000009,0.00017
 737,0.00170161,0.,-0.00075272,-0.00079553,0.00000001,0.00010412,-0.000
 29825,0.00000003,-0.00016760,0.00003729,0.,0.00001474,-0.00000664,0.,-
 0.00000221,-0.00004643,0.00000001,0.00814975,-0.00557668,-0.00000093,-
 0.00196486,-0.00537716,0.00000012,0.00485500,-0.00302971,-0.00000029,-
 0.00479013,0.00051696,-0.00000003,-0.00851716,-0.00180239,0.00000062,0
 .00169077,-0.00442812,-0.00000007,-0.00012077,-0.00001333,0.00000005,0
 .00205708,-0.00019206,-0.00000020,0.00318148,0.00064910,0.00000007,0.0
 0008771,-0.00003664,0.,0.00014726,-0.00000429,0.,0.00029383,0.00007713
 ,-0.00000002,0.00499441,0.00325589,0.,0.00458756,0.00660113,-0.0000004
 9,-0.00492621,0.01656288,0.00000131\\\@
 The archive entry for this job was punched.


 BLACK HOLES SUCK.
 Job cpu time:       0 days  2 hours 52 minutes 47.4 seconds.
 Elapsed time:       0 days  0 hours 17 minutes 55.5 seconds.
 File lengths (MBytes):  RWF=   1396 Int=      0 D2E=      0 Chk=     48 Scr=      8
 Normal termination of Gaussian 16 at Mon Jul 13 16:18:00 2020.
