 Entering Gaussian System, Link 0=g16
 Initial command:
 /gpfs/loomis/apps/avx/software/Gaussian/16-C.01_AVX/g16/l1.exe "/home/fas/batista/pev4/scratch60/gauss-scratch/Gau-181969.inp" -scrdir="/home/fas/batista/pev4/scratch60/gauss-scratch/"
 Entering Link 1 = /gpfs/loomis/apps/avx/software/Gaussian/16-C.01_AVX/g16/l1.exe PID=    181970.
  
 Copyright (c) 1988-2019, Gaussian, Inc.  All Rights Reserved.
  
 This is part of the Gaussian(R) 16 program.  It is based on
 the Gaussian(R) 09 system (copyright 2009, Gaussian, Inc.),
 the Gaussian(R) 03 system (copyright 2003, Gaussian, Inc.),
 the Gaussian(R) 98 system (copyright 1998, Gaussian, Inc.),
 the Gaussian(R) 94 system (copyright 1995, Gaussian, Inc.),
 the Gaussian 92(TM) system (copyright 1992, Gaussian, Inc.),
 the Gaussian 90(TM) system (copyright 1990, Gaussian, Inc.),
 the Gaussian 88(TM) system (copyright 1988, Gaussian, Inc.),
 the Gaussian 86(TM) system (copyright 1986, Carnegie Mellon
 University), and the Gaussian 82(TM) system (copyright 1983,
 Carnegie Mellon University). Gaussian is a federally registered
 trademark of Gaussian, Inc.
  
 This software contains proprietary and confidential information,
 including trade secrets, belonging to Gaussian, Inc.
  
 This software is provided under written license and may be
 used, copied, transmitted, or stored only in accord with that
 written license.
  
 The following legend is applicable only to US Government
 contracts under FAR:
  
                    RESTRICTED RIGHTS LEGEND
  
 Use, reproduction and disclosure by the US Government is
 subject to restrictions as set forth in subparagraphs (a)
 and (c) of the Commercial Computer Software - Restricted
 Rights clause in FAR 52.227-19.
  
 Gaussian, Inc.
 340 Quinnipiac St., Bldg. 40, Wallingford CT 06492
  
  
 ---------------------------------------------------------------
 Warning -- This program may not be used in any manner that
 competes with the business of Gaussian, Inc. or will provide
 assistance to any competitor of Gaussian, Inc.  The licensee
 of this program is prohibited from giving any competitor of
 Gaussian, Inc. access to this program.  By using this program,
 the user acknowledges that Gaussian, Inc. is engaged in the
 business of creating and licensing software in the field of
 computational chemistry and represents and warrants to the
 licensee that it is not a competitor of Gaussian, Inc. and that
 it will not use this program in any manner prohibited above.
 ---------------------------------------------------------------
  

 Cite this work as:
 Gaussian 16, Revision C.01,
 M. J. Frisch, G. W. Trucks, H. B. Schlegel, G. E. Scuseria, 
 M. A. Robb, J. R. Cheeseman, G. Scalmani, V. Barone, 
 G. A. Petersson, H. Nakatsuji, X. Li, M. Caricato, A. V. Marenich, 
 J. Bloino, B. G. Janesko, R. Gomperts, B. Mennucci, H. P. Hratchian, 
 J. V. Ortiz, A. F. Izmaylov, J. L. Sonnenberg, D. Williams-Young, 
 F. Ding, F. Lipparini, F. Egidi, J. Goings, B. Peng, A. Petrone, 
 T. Henderson, D. Ranasinghe, V. G. Zakrzewski, J. Gao, N. Rega, 
 G. Zheng, W. Liang, M. Hada, M. Ehara, K. Toyota, R. Fukuda, 
 J. Hasegawa, M. Ishida, T. Nakajima, Y. Honda, O. Kitao, H. Nakai, 
 T. Vreven, K. Throssell, J. A. Montgomery, Jr., J. E. Peralta, 
 F. Ogliaro, M. J. Bearpark, J. J. Heyd, E. N. Brothers, K. N. Kudin, 
 V. N. Staroverov, T. A. Keith, R. Kobayashi, J. Normand, 
 K. Raghavachari, A. P. Rendell, J. C. Burant, S. S. Iyengar, 
 J. Tomasi, M. Cossi, J. M. Millam, M. Klene, C. Adamo, R. Cammi, 
 J. W. Ochterski, R. L. Martin, K. Morokuma, O. Farkas, 
 J. B. Foresman, and D. J. Fox, Gaussian, Inc., Wallingford CT, 2019.
 
 ******************************************
 Gaussian 16:  ES64L-G16RevC.01  3-Jul-2019
                14-Jul-2020 
 ******************************************
 %chk=config_6_16.chk
 %mem=58GB
 %nprocshared=10
 Will use up to   10 processors via shared memory.
 ----------------------------------------------------------------------
 #p opt=addgic freq td wb97xd/cc-pvdz nosymm int=ultrafine scrf=(solven
 t=CarbonTetraChloride)
 ----------------------------------------------------------------------
 1/18=20,19=15,26=6,38=1,145=903/1,3;
 2/9=110,12=2,15=1,17=6,18=5,40=1/2;
 3/5=16,11=9,25=1,30=1,70=2201,71=1,72=11,74=-58,75=-5/1,2,3,8;
 4//1;
 5/5=2,38=5,53=11/2;
 8/6=1,10=1/1;
 9/15=2,42=1,70=2/14;
 10/5=4,31=1/2;
 6/7=2,8=2,9=2,10=2/1;
 7/12=6,13=5,30=1/1,2,3,16;
 1/18=20,19=15,26=6,145=903/3(2);
 2/9=110,15=1/2;
 99//99;
 2/9=110,15=1/2;
 3/5=16,11=9,25=1,30=1,70=2205,71=1,72=11,74=-58,75=-5/1,2,3,8;
 4/5=5,16=3,69=1/1;
 5/5=2,38=5,53=11/2;
 8/6=1,10=1/1;
 9/15=2,42=1,49=4,70=2/14;
 10/5=4,31=1/2;
 7/12=6,13=5,30=1/1,2,3,16;
 1/18=20,19=15,26=6,145=903/3(-8);
 2/9=110,15=1/2;
 6/7=2,8=2,9=2,10=2/1;
 99/9=10/99;
 Leave Link    1 at Tue Jul 14 10:24:36 2020, MaxMem=  7784628224 cpu:               4.2 elap:               0.5
 (Enter /gpfs/loomis/apps/avx/software/Gaussian/16-C.01_AVX/g16/l101.exe)
 ------------------------------------------------
 NM 2D-scan of HBT TD-WB97XD pVDZ in CTC Relaxed.
 ------------------------------------------------
 Symbolic Z-matrix:
 Charge =  0 Multiplicity = 1
 C                     1.54739  -3.25294  -0.00002 
 C                     0.99934  -1.97009  -0.00002 
 C                     1.78672  -0.77729  -0.00003 
 C                     3.19616  -0.93161  -0.00003 
 C                     3.73953  -2.21845  -0.00002 
 C                     2.93637  -3.37572  -0.00002 
 H                     0.89573  -4.13402  -0.00001 
 H                     3.84549  -0.0486   -0.00004 
 H                     4.82877  -2.32915  -0.00002 
 H                     3.39965  -4.36666  -0.00001 
 N                     1.03416   0.36923  -0.00003 
 S                    -0.70209  -1.60253  -0.00003 
 C                    -1.31848   1.0664    0.00001 
 C                    -2.68556   0.73395   0.00002 
 C                    -0.90898   2.47656   0.00004 
 C                    -3.65345   1.74862   0.00003 
 H                    -2.99592  -0.31644   0.00002 
 C                    -1.9211    3.47318   0.00004 
 C                    -3.27633   3.10798   0.00004 
 H                    -4.71371   1.47878   0.00004 
 H                    -1.61084   4.52356   0.00006 
 H                    -4.04825   3.88247   0.00004 
 C                    -0.30062   0.09177  -0.00002 
 O                     0.35649   2.73005   0.00006 
 H                     0.96652   1.63807   0.00002 
 
 Add virtual bond connecting atoms H25        and N11        Dist= 2.40D+00.
 Add virtual bond connecting atoms H25        and O24        Dist= 2.36D+00.
 Initializing the GIC definitions file.
 Number of initial coordinates =   142
 Number of input entries/lines =    52
 Number of additional coordinates =     2
 Number of removed coordinates =     0
 Number of frozen coordinates =     2
 Number of final active and frozen coordinates =   144
 ITRead=  0  0  0  0  0  0  0  0  0  0  0  0  0  0  0  0  0  0  0  0
 ITRead=  0  0  0  0  0
 MicOpt= -1 -1 -1 -1 -1 -1 -1 -1 -1 -1 -1 -1 -1 -1 -1 -1 -1 -1 -1 -1
 MicOpt= -1 -1 -1 -1 -1
 NAtoms=     25 NQM=       25 NQMF=       0 NMMI=      0 NMMIF=      0
                NMic=       0 NMicF=      0.
                    Isotopes and Nuclear Properties:
 (Nuclear quadrupole moments (NQMom) in fm**2, nuclear magnetic moments (NMagM)
  in nuclear magnetons)

  Atom         1           2           3           4           5           6           7           8           9          10
 IAtWgt=          12          12          12          12          12          12           1           1           1           1
 AtmWgt=  12.0000000  12.0000000  12.0000000  12.0000000  12.0000000  12.0000000   1.0078250   1.0078250   1.0078250   1.0078250
 NucSpn=           0           0           0           0           0           0           1           1           1           1
 AtZEff=  -0.0000000  -0.0000000  -0.0000000  -0.0000000  -0.0000000  -0.0000000  -0.0000000  -0.0000000  -0.0000000  -0.0000000
 NQMom=    0.0000000   0.0000000   0.0000000   0.0000000   0.0000000   0.0000000   0.0000000   0.0000000   0.0000000   0.0000000
 NMagM=    0.0000000   0.0000000   0.0000000   0.0000000   0.0000000   0.0000000   2.7928460   2.7928460   2.7928460   2.7928460
 AtZNuc=   6.0000000   6.0000000   6.0000000   6.0000000   6.0000000   6.0000000   1.0000000   1.0000000   1.0000000   1.0000000

  Atom        11          12          13          14          15          16          17          18          19          20
 IAtWgt=          14          32          12          12          12          12           1          12          12           1
 AtmWgt=  14.0030740  31.9720718  12.0000000  12.0000000  12.0000000  12.0000000   1.0078250  12.0000000  12.0000000   1.0078250
 NucSpn=           2           0           0           0           0           0           1           0           0           1
 AtZEff=  -0.0000000  -0.0000000  -0.0000000  -0.0000000  -0.0000000  -0.0000000  -0.0000000  -0.0000000  -0.0000000  -0.0000000
 NQMom=    2.0440000   0.0000000   0.0000000   0.0000000   0.0000000   0.0000000   0.0000000   0.0000000   0.0000000   0.0000000
 NMagM=    0.4037610   0.0000000   0.0000000   0.0000000   0.0000000   0.0000000   2.7928460   0.0000000   0.0000000   2.7928460
 AtZNuc=   7.0000000  16.0000000   6.0000000   6.0000000   6.0000000   6.0000000   1.0000000   6.0000000   6.0000000   1.0000000

  Atom        21          22          23          24          25
 IAtWgt=           1           1          12          16           1
 AtmWgt=   1.0078250   1.0078250  12.0000000  15.9949146   1.0078250
 NucSpn=           1           1           0           0           1
 AtZEff=  -0.0000000  -0.0000000  -0.0000000  -0.0000000  -0.0000000
 NQMom=    0.0000000   0.0000000   0.0000000   0.0000000   0.0000000
 NMagM=    2.7928460   2.7928460   0.0000000   0.0000000   2.7928460
 AtZNuc=   1.0000000   1.0000000   6.0000000   8.0000000   1.0000000
 Leave Link  101 at Tue Jul 14 10:24:39 2020, MaxMem=  7784628224 cpu:              32.3 elap:               3.3
 (Enter /gpfs/loomis/apps/avx/software/Gaussian/16-C.01_AVX/g16/l103.exe)

 GradGradGradGradGradGradGradGradGradGradGradGradGradGradGradGradGradGrad
 Berny optimization.
 Initialization pass.
                           ----------------------------
                           !    Initial Parameters    !
                           ! (Angstroms and Degrees)  !
 --------------------------                            --------------------------
 ! Name  Definition              Value          Derivative Info.                !
 --------------------------------------------------------------------------------
 ! R1    R(1,2)                  1.395          estimate D2E/DX2                !
 ! R2    R(1,6)                  1.3944         estimate D2E/DX2                !
 ! R3    R(1,7)                  1.0959         estimate D2E/DX2                !
 ! R4    R(2,3)                  1.4292         estimate D2E/DX2                !
 ! R5    R(2,12)                 1.7407         estimate D2E/DX2                !
 ! R6    R(3,4)                  1.4179         estimate D2E/DX2                !
 ! R7    R(3,11)                 1.3714         estimate D2E/DX2                !
 ! R8    R(4,5)                  1.3969         estimate D2E/DX2                !
 ! R9    R(4,8)                  1.0961         estimate D2E/DX2                !
 ! R10   R(5,6)                  1.4087         estimate D2E/DX2                !
 ! R11   R(5,9)                  1.0949         estimate D2E/DX2                !
 ! R12   R(6,10)                 1.0939         estimate D2E/DX2                !
 ! R13   R(11,23)                1.3633         estimate D2E/DX2                !
 ! R14   R(11,25)                1.2706         estimate D2E/DX2                !
 ! R15   R(12,23)                1.7412         estimate D2E/DX2                !
 ! R16   R(13,14)                1.4069         estimate D2E/DX2                !
 ! R17   R(13,15)                1.4684         estimate D2E/DX2                !
 ! R18   R(13,23)                1.4092         estimate D2E/DX2                !
 ! R19   R(14,16)                1.4023         estimate D2E/DX2                !
 ! R20   R(14,17)                1.0953         estimate D2E/DX2                !
 ! R21   R(15,18)                1.4204         estimate D2E/DX2                !
 ! R22   R(15,24)                1.2906         estimate D2E/DX2                !
 ! R23   R(16,19)                1.4107         estimate D2E/DX2                !
 ! R24   R(16,20)                1.0941         estimate D2E/DX2                !
 ! R25   R(18,19)                1.4036         estimate D2E/DX2                !
 ! R26   R(18,21)                1.0952         estimate D2E/DX2                !
 ! R27   R(19,22)                1.0935         estimate D2E/DX2                !
 ! R28   R(24,25)                1.2508         estimate D2E/DX2                !
 ! A1    A(2,1,6)              118.1845         estimate D2E/DX2                !
 ! A2    A(2,1,7)              120.3801         estimate D2E/DX2                !
 ! A3    A(6,1,7)              121.4354         estimate D2E/DX2                !
 ! A4    A(1,2,3)              123.4378         estimate D2E/DX2                !
 ! A5    A(1,2,12)             125.3231         estimate D2E/DX2                !
 ! A6    A(3,2,12)             111.2391         estimate D2E/DX2                !
 ! A7    A(2,3,4)              117.1809         estimate D2E/DX2                !
 ! A8    A(2,3,11)             113.2901         estimate D2E/DX2                !
 ! A9    A(4,3,11)             129.529          estimate D2E/DX2                !
 ! A10   A(3,4,5)              119.1402         estimate D2E/DX2                !
 ! A11   A(3,4,8)              120.0806         estimate D2E/DX2                !
 ! A12   A(5,4,8)              120.7792         estimate D2E/DX2                !
 ! A13   A(4,5,6)              122.3471         estimate D2E/DX2                !
 ! A14   A(4,5,9)              118.6949         estimate D2E/DX2                !
 ! A15   A(6,5,9)              118.958          estimate D2E/DX2                !
 ! A16   A(1,6,5)              119.7095         estimate D2E/DX2                !
 ! A17   A(1,6,10)             120.1081         estimate D2E/DX2                !
 ! A18   A(5,6,10)             120.1824         estimate D2E/DX2                !
 ! A19   A(3,11,23)            111.5377         estimate D2E/DX2                !
 ! A20   A(3,11,25)            149.7706         estimate D2E/DX2                !
 ! A21   A(23,11,25)            98.6918         estimate D2E/DX2                !
 ! A22   A(2,12,23)             88.8598         estimate D2E/DX2                !
 ! A23   A(14,13,15)           119.8612         estimate D2E/DX2                !
 ! A24   A(14,13,23)           122.5744         estimate D2E/DX2                !
 ! A25   A(15,13,23)           117.5644         estimate D2E/DX2                !
 ! A26   A(13,14,16)           119.9802         estimate D2E/DX2                !
 ! A27   A(13,14,17)           120.1291         estimate D2E/DX2                !
 ! A28   A(16,14,17)           119.8907         estimate D2E/DX2                !
 ! A29   A(13,15,18)           118.3648         estimate D2E/DX2                !
 ! A30   A(13,15,24)           117.5206         estimate D2E/DX2                !
 ! A31   A(18,15,24)           124.1146         estimate D2E/DX2                !
 ! A32   A(14,16,19)           120.8462         estimate D2E/DX2                !
 ! A33   A(14,16,20)           119.3693         estimate D2E/DX2                !
 ! A34   A(19,16,20)           119.7844         estimate D2E/DX2                !
 ! A35   A(15,18,19)           120.3606         estimate D2E/DX2                !
 ! A36   A(15,18,21)           118.1017         estimate D2E/DX2                !
 ! A37   A(19,18,21)           121.5377         estimate D2E/DX2                !
 ! A38   A(16,19,18)           120.587          estimate D2E/DX2                !
 ! A39   A(16,19,22)           119.5901         estimate D2E/DX2                !
 ! A40   A(18,19,22)           119.8229         estimate D2E/DX2                !
 ! A41   A(11,23,12)           115.0734         estimate D2E/DX2                !
 ! A42   A(11,23,13)           124.4996         estimate D2E/DX2                !
 ! A43   A(12,23,13)           120.427          estimate D2E/DX2                !
 ! A44   A(15,24,25)           107.8622         estimate D2E/DX2                !
 ! A45   A(11,25,24)           153.8614         estimate D2E/DX2                !
 ! D1    D(6,1,2,3)              0.0            estimate D2E/DX2                !
 ! D2    D(6,1,2,12)           180.0            estimate D2E/DX2                !
 ! D3    D(7,1,2,3)            179.9999         estimate D2E/DX2                !
 ! D4    D(7,1,2,12)            -0.0001         estimate D2E/DX2                !
 ! D5    D(2,1,6,5)             -0.0001         estimate D2E/DX2                !
 ! D6    D(2,1,6,10)           179.9999         estimate D2E/DX2                !
 ! D7    D(7,1,6,5)            179.9999         estimate D2E/DX2                !
 ! D8    D(7,1,6,10)             0.0            estimate D2E/DX2                !
 ! D9    D(1,2,3,4)              0.0002         estimate D2E/DX2                !
 ! D10   D(1,2,3,11)          -180.0            estimate D2E/DX2                !
 ! D11   D(12,2,3,4)          -179.9998         estimate D2E/DX2                !
 ! D12   D(12,2,3,11)            0.0            estimate D2E/DX2                !
 ! D13   D(1,2,12,23)          179.9997         estimate D2E/DX2                !
 ! D14   D(3,2,12,23)           -0.0003         estimate D2E/DX2                !
 ! D15   D(2,3,4,5)             -0.0002         estimate D2E/DX2                !
 ! D16   D(2,3,4,8)            179.9999         estimate D2E/DX2                !
 ! D17   D(11,3,4,5)           180.0            estimate D2E/DX2                !
 ! D18   D(11,3,4,8)             0.0            estimate D2E/DX2                !
 ! D19   D(2,3,11,23)            0.0004         estimate D2E/DX2                !
 ! D20   D(2,3,11,25)          179.9952         estimate D2E/DX2                !
 ! D21   D(4,3,11,23)         -179.9998         estimate D2E/DX2                !
 ! D22   D(4,3,11,25)           -0.005          estimate D2E/DX2                !
 ! D23   D(3,4,5,6)              0.0            estimate D2E/DX2                !
 ! D24   D(3,4,5,9)           -179.9999         estimate D2E/DX2                !
 ! D25   D(8,4,5,6)            180.0            estimate D2E/DX2                !
 ! D26   D(8,4,5,9)              0.0            estimate D2E/DX2                !
 ! D27   D(4,5,6,1)              0.0001         estimate D2E/DX2                !
 ! D28   D(4,5,6,10)          -179.9999         estimate D2E/DX2                !
 ! D29   D(9,5,6,1)           -179.9999         estimate D2E/DX2                !
 ! D30   D(9,5,6,10)             0.0            estimate D2E/DX2                !
 ! D31   D(3,11,23,12)          -0.0006         estimate D2E/DX2                !
 ! D32   D(3,11,23,13)         179.9983         estimate D2E/DX2                !
 ! D33   D(25,11,23,12)       -179.998          estimate D2E/DX2                !
 ! D34   D(25,11,23,13)          0.001          estimate D2E/DX2                !
 ! D35   D(3,11,25,24)        -179.9964         estimate D2E/DX2                !
 ! D36   D(23,11,25,24)         -0.0013         estimate D2E/DX2                !
 ! D37   D(2,12,23,11)           0.0006         estimate D2E/DX2                !
 ! D38   D(2,12,23,13)        -179.9985         estimate D2E/DX2                !
 ! D39   D(15,13,14,16)          0.0012         estimate D2E/DX2                !
 ! D40   D(15,13,14,17)       -179.9993         estimate D2E/DX2                !
 ! D41   D(23,13,14,16)       -179.9989         estimate D2E/DX2                !
 ! D42   D(23,13,14,17)          0.0006         estimate D2E/DX2                !
 ! D43   D(14,13,15,18)         -0.0014         estimate D2E/DX2                !
 ! D44   D(14,13,15,24)        179.9984         estimate D2E/DX2                !
 ! D45   D(23,13,15,18)        179.9987         estimate D2E/DX2                !
 ! D46   D(23,13,15,24)         -0.0016         estimate D2E/DX2                !
 ! D47   D(14,13,23,11)       -179.9999         estimate D2E/DX2                !
 ! D48   D(14,13,23,12)         -0.0009         estimate D2E/DX2                !
 ! D49   D(15,13,23,11)          0.0001         estimate D2E/DX2                !
 ! D50   D(15,13,23,12)        179.999          estimate D2E/DX2                !
 ! D51   D(13,14,16,19)         -0.0003         estimate D2E/DX2                !
 ! D52   D(13,14,16,20)        179.9997         estimate D2E/DX2                !
 ! D53   D(17,14,16,19)       -179.9998         estimate D2E/DX2                !
 ! D54   D(17,14,16,20)          0.0001         estimate D2E/DX2                !
 ! D55   D(13,15,18,19)          0.0007         estimate D2E/DX2                !
 ! D56   D(13,15,18,21)       -179.9999         estimate D2E/DX2                !
 ! D57   D(24,15,18,19)       -179.999          estimate D2E/DX2                !
 ! D58   D(24,15,18,21)          0.0003         estimate D2E/DX2                !
 ! D59   D(13,15,24,25)          0.0015         estimate D2E/DX2                !
 ! D60   D(18,15,24,25)       -179.9987         estimate D2E/DX2                !
 ! D61   D(14,16,19,18)         -0.0004         estimate D2E/DX2                !
 ! D62   D(14,16,19,22)        179.9998         estimate D2E/DX2                !
 ! D63   D(20,16,19,18)        179.9996         estimate D2E/DX2                !
 ! D64   D(20,16,19,22)         -0.0001         estimate D2E/DX2                !
 ! D65   D(15,18,19,16)          0.0002         estimate D2E/DX2                !
 ! D66   D(15,18,19,22)        179.9999         estimate D2E/DX2                !
 ! D67   D(21,18,19,16)       -179.9991         estimate D2E/DX2                !
 ! D68   D(21,18,19,22)          0.0006         estimate D2E/DX2                !
 ! D69   D(15,24,25,11)          0.0            estimate D2E/DX2                !
 ! Qtot  GIC-1                   0.0            Frozen                          !
 ! Ptot  GIC-2                 160.0            Frozen                          !
 --------------------------------------------------------------------------------
 NOTE: GIC-type coordinates are in arbitrary units.
 Trust Radius=3.00D-01 FncErr=5.00D-06 GrdErr=5.00D-06 EigMax=2.50D+02 EigMin=1.00D-04
 Number of steps in this run=    150 maximum allowed number of steps=    150.
 GradGradGradGradGradGradGradGradGradGradGradGradGradGradGradGradGradGrad

 Leave Link  103 at Tue Jul 14 10:24:39 2020, MaxMem=  7784628224 cpu:               0.1 elap:               0.0
 (Enter /gpfs/loomis/apps/avx/software/Gaussian/16-C.01_AVX/g16/l202.exe)
                          Input orientation:                          
 ---------------------------------------------------------------------
 Center     Atomic      Atomic             Coordinates (Angstroms)
 Number     Number       Type             X           Y           Z
 ---------------------------------------------------------------------
      1          6           0        1.547391   -3.252936   -0.000017
      2          6           0        0.999341   -1.970090   -0.000023
      3          6           0        1.786723   -0.777291   -0.000027
      4          6           0        3.196162   -0.931610   -0.000029
      5          6           0        3.739527   -2.218448   -0.000024
      6          6           0        2.936369   -3.375717   -0.000016
      7          1           0        0.895730   -4.134023   -0.000013
      8          1           0        3.845487   -0.048598   -0.000035
      9          1           0        4.828770   -2.329148   -0.000025
     10          1           0        3.399645   -4.366662   -0.000011
     11          7           0        1.034157    0.369228   -0.000031
     12         16           0       -0.702086   -1.602531   -0.000025
     13          6           0       -1.318476    1.066403    0.000011
     14          6           0       -2.685561    0.733948    0.000022
     15          6           0       -0.908976    2.476555    0.000036
     16          6           0       -3.653455    1.748622    0.000032
     17          1           0       -2.995922   -0.316441    0.000016
     18          6           0       -1.921104    3.473181    0.000040
     19          6           0       -3.276332    3.107981    0.000037
     20          1           0       -4.713715    1.478779    0.000036
     21          1           0       -1.610842    4.523559    0.000058
     22          1           0       -4.048248    3.882475    0.000042
     23          6           0       -0.300620    0.091765   -0.000022
     24          8           0        0.356491    2.730053    0.000057
     25          1           0        0.966524    1.638070    0.000019
 ---------------------------------------------------------------------
                    Distance matrix (angstroms):
                    1          2          3          4          5
     1  C    0.000000
     2  C    1.395010   0.000000
     3  C    2.487187   1.429244   0.000000
     4  C    2.847279   2.429910   1.417861   0.000000
     5  C    2.423969   2.751418   2.427010   1.396853   0.000000
     6  C    1.394394   2.393295   2.841391   2.457875   1.408664
     7  H    1.095890   2.166412   3.472969   3.943023   3.428791
     8  H    3.943225   3.434046   2.183918   1.096053   2.172435
     9  H    3.408934   3.846225   3.415012   2.149075   1.094854
    10  H    2.161303   3.391904   3.935111   3.441074   2.174935
    11  N    3.658344   2.339577   1.371445   2.523181   3.743674
    12  S    2.789979   1.740676   2.622059   3.955562   4.484114
    13  C    5.183617   3.820022   3.611298   4.937004   6.031057
    14  C    5.814906   4.570594   4.720717   6.112998   7.070955
    15  C    6.233843   4.838835   4.225436   5.335517   6.606938
    16  C    7.215565   5.956285   5.997981   7.355331   8.390103
    17  H    5.409685   4.323966   4.804798   6.222566   6.998851
    18  C    7.567768   6.177233   5.640434   6.751932   8.027290
    19  C    7.983080   6.638387   6.381996   7.629644   8.808696
    20  H    7.847966   6.673358   6.880810   8.268985   9.226418
    21  H    8.393349   6.998610   6.296226   7.270911   8.607039
    22  H    9.067814   7.728562   7.467282   8.698096   9.892962
    23  C    3.821279   2.437447   2.261031   3.643457   4.654017
    24  O    6.100361   4.743902   3.787747   4.633736   5.994381
    25  H    4.925378   3.608309   2.550823   3.402137   4.749977
                    6          7          8          9         10
     6  C    0.000000
     7  H    2.176979   0.000000
     8  H    3.449088   5.039023   0.000000
     9  H    2.162519   4.327398   2.483496   0.000000
    10  H    1.093891   2.514699   4.341019   2.488747   0.000000
    11  N    4.200359   4.505377   2.842209   4.656213   5.293787
    12  S    4.047535   2.993571   4.805739   5.578382   4.946172
    13  C    6.151108   5.652180   5.282967   7.022706   7.195753
    14  C    6.963867   6.043408   6.577762   8.114661   7.940148
    15  C    7.002554   6.852496   5.383429   7.484418   8.086645
    16  C    8.347732   7.436437   7.711298   9.411501   9.335037
    17  H    6.674672   5.451503   6.846650   8.079406   7.570176
    18  C    8.396573   8.111973   6.756959   8.901001   9.474888
    19  C    8.979754   8.357794   7.790013   9.759870  10.021924
    20  H    9.060348   7.935327   8.694413  10.274207   9.999790
    21  H    9.114586   9.013136   7.118718   9.403627  10.204950
    22  H   10.073044   9.418447   8.818411  10.834469  11.113927
    23  C    4.743578   4.391872   4.148482   5.671990   5.793922
    24  O    6.628439   6.885225   4.460269   6.752541   7.721668
    25  H    5.386868   5.772527   3.336657   5.536765   6.478957
                   11         12         13         14         15
    11  N    0.000000
    12  S    2.627237   0.000000
    13  C    2.453759   2.739187   0.000000
    14  C    3.737555   3.064850   1.406928   0.000000
    15  C    2.866460   4.084329   1.468407   2.488560   0.000000
    16  C    4.886352   4.465513   2.432601   1.402277   2.839375
    17  H    4.087992   2.629774   2.173955   1.095282   3.486570
    18  C    4.285801   5.220044   2.481077   2.843904   1.420446
    19  C    5.106964   5.368022   2.828646   2.446434   2.450118
    20  H    5.853984   5.058423   3.420190   2.160598   3.933395
    21  H    4.924885   6.193127   3.469497   3.939057   2.163988
    22  H    6.178490   6.425114   3.921978   3.430763   3.439715
    23  C    1.363311   1.741211   1.409237   2.469887   2.461162
    24  O    2.456161   4.460030   2.360772   3.638477   1.290607
    25  H    1.270644   3.644963   2.355425   3.762334   2.054399
                   16         17         18         19         20
    16  C    0.000000
    17  H    2.167218   0.000000
    18  C    2.444411   3.939095   0.000000
    19  C    1.410701   3.435883   1.403572   0.000000
    20  H    1.094060   2.484678   3.431664   2.172640   0.000000
    21  H    3.445656   5.034287   1.095243   2.185800   4.347241
    22  H    2.170066   4.328774   2.166163   1.093478   2.494113
    23  C    3.739876   2.726038   3.749659   4.237029   4.625928
    24  O    4.128301   4.529878   2.395762   3.652428   5.222324
    25  H    4.621301   4.418268   3.421407   4.490263   5.682472
                   21         22         23         24         25
    21  H    0.000000
    22  H    2.520305   0.000000
    23  C    4.621415   5.330496   0.000000
    24  O    2.662153   4.552999   2.718889   0.000000
    25  H    3.868961   5.494114   1.999178   1.250827   0.000000
 Symmetry turned off by external request.
 Stoichiometry    C13H9NOS
 Framework group  C1[X(C13H9NOS)]
 Deg. of freedom    69
 Full point group                 C1      NOp   1
 Rotational constants (GHZ):           1.4068627           0.2863916           0.2379522
 Leave Link  202 at Tue Jul 14 10:24:39 2020, MaxMem=  7784628224 cpu:               0.1 elap:               0.0
 (Enter /gpfs/loomis/apps/avx/software/Gaussian/16-C.01_AVX/g16/l301.exe)
 Standard basis: CC-pVDZ (5D, 7F)
 Ernie: Thresh=  0.10000D-02 Tol=  0.10000D-05 Strict=F.
 Ernie:  40 primitive shells out of 425 were deleted.
   273 basis functions,   629 primitive gaussians,   289 cartesian basis functions
    59 alpha electrons       59 beta electrons
       nuclear repulsion energy      1100.4632453046 Hartrees.
 IExCor= 4639 DFT=T Ex+Corr=wB97XD ExCW=0 ScaHFX=  1.000000
 ScaDFX=  1.000000  1.000000  1.000000  1.000000 ScalE2=  1.000000  1.000000
 IRadAn=      5 IRanWt=     -1 IRanGd=            0 ICorTp=0 IEmpDi=121
 HFx  wShort=  0.000000 wLong=  0.200000 cFull=  0.222036 cShort=  0.000000 cLong=  0.777964
 DFx  wShort=  0.000000 wLong=  0.200000 cFull=  0.000000 cShort=  0.000000 cLong=  1.000000
 NAtoms=   25 NActive=   25 NUniq=   25 SFac= 1.00D+00 NAtFMM=   60 NAOKFM=F Big=F
 Integral buffers will be    131072 words long.
 Raffenetti 1 integral format.
 Two-electron integral symmetry is turned off.
 R6Disp:  Grimme-D2 Dispersion energy=       -0.0138367304 Hartrees.
 Nuclear repulsion after empirical dispersion term =     1100.4494085742 Hartrees.
 ------------------------------------------------------------------------------
 Polarizable Continuum Model (PCM)
 =================================
 Model                : PCM.
 Atomic radii         : UFF (Universal Force Field).
 Polarization charges : Total charges.
 Charge compensation  : None.
 Solution method      : On-the-fly selection.
 Cavity type          : Scaled VdW (van der Waals Surface) (Alpha=1.100).
 Cavity algorithm     : GePol (No added spheres)
                        Default sphere list used, NSphG=   25.
                        Lebedev-Laikov grids with approx.  5.0 points / Ang**2.
                        Smoothing algorithm: York/Karplus (Gamma=1.0000).
                        Polarization charges: spherical gaussians, with
                                              point-specific exponents (IZeta= 3).
                        Self-potential: point-specific (ISelfS= 7).
                        Self-field    : sphere-specific E.n sum rule (ISelfD= 2).
 1st derivatives      : Analytical E(r).r(x)/FMM algorithm (CHGder, D1EAlg=3).
                        Cavity 1st derivative terms included.
 Solvent              : CarbonTetraChloride, Eps=   2.228000 Eps(inf)=   2.131892
 ------------------------------------------------------------------------------
 GePol: Number of generator spheres                  =      25
 GePol: Total number of spheres                      =      25
 GePol: Number of exposed spheres                    =      25 (100.00%)
 GePol: Number of points                             =    2191
 GePol: Average weight of points                     =       0.12
 GePol: Minimum weight of points                     =   0.70D-09
 GePol: Maximum weight of points                     =    0.20577
 GePol: Number of points with low weight             =     150
 GePol: Fraction of low-weight points (<1% of avg)   =       6.85%
 GePol: Cavity surface area                          =    271.592 Ang**2
 GePol: Cavity volume                                =    292.117 Ang**3
 Leave Link  301 at Tue Jul 14 10:24:39 2020, MaxMem=  7784628224 cpu:               0.8 elap:               0.1
 (Enter /gpfs/loomis/apps/avx/software/Gaussian/16-C.01_AVX/g16/l302.exe)
 NPDir=0 NMtPBC=     1 NCelOv=     1 NCel=       1 NClECP=     1 NCelD=      1
         NCelK=      1 NCelE2=     1 NClLst=     1 CellRange=     0.0.
 One-electron integrals computed using PRISM.
 NBasis=   273 RedAO= T EigKep=  3.21D-04  NBF=   273
 NBsUse=   273 1.00D-06 EigRej= -1.00D+00 NBFU=   273
 Precomputing XC quadrature grid using
 IXCGrd= 4 IRadAn=           5 IRanWt=          -1 IRanGd=           0 AccXCQ= 0.00D+00.
 Generated NRdTot=       0 NPtTot=           0 NUsed=           0 NTot=          32
 NSgBfM=   288   288   288   288   288 MxSgAt=    25 MxSgA2=    25.
 Leave Link  302 at Tue Jul 14 10:24:40 2020, MaxMem=  7784628224 cpu:               2.5 elap:               0.3
 (Enter /gpfs/loomis/apps/avx/software/Gaussian/16-C.01_AVX/g16/l303.exe)
 DipDrv:  MaxL=1.
 Leave Link  303 at Tue Jul 14 10:24:40 2020, MaxMem=  7784628224 cpu:               0.4 elap:               0.1
 (Enter /gpfs/loomis/apps/avx/software/Gaussian/16-C.01_AVX/g16/l308.exe)
 Leave Link  308 at Tue Jul 14 10:24:40 2020, MaxMem=  7784628224 cpu:               0.5 elap:               0.1
 (Enter /gpfs/loomis/apps/avx/software/Gaussian/16-C.01_AVX/g16/l401.exe)
 ExpMin= 1.22D-01 ExpMax= 1.11D+05 ExpMxC= 1.07D+03 IAcc=3 IRadAn=         5 AccDes= 0.00D+00
 Harris functional with IExCor= 4639 and IRadAn=       5 diagonalized for initial guess.
 HarFok:  IExCor= 4639 AccDes= 0.00D+00 IRadAn=         5 IDoV= 1 UseB2=F ITyADJ=14
 ICtDFT=  3500011 ScaDFX=  1.000000  1.000000  1.000000  1.000000
 FoFCou: FMM=F IPFlag=           0 FMFlag=      100000 FMFlg1=           0
         NFxFlg=           0 DoJE=T BraDBF=F KetDBF=T FulRan=T
         wScrn=  0.000000 ICntrl=       500 IOpCl=  0 I1Cent=   200000004 NGrid=           0
         NMat0=    1 NMatS0=      1 NMatT0=    0 NMatD0=    1 NMtDS0=    0 NMtDT0=    0
 Symmetry not used in FoFCou.
 Harris En= -994.457249831341    
 JPrj=0 DoOrth=F DoCkMO=F.
 Leave Link  401 at Tue Jul 14 10:24:41 2020, MaxMem=  7784628224 cpu:              13.2 elap:               1.3
 (Enter /gpfs/loomis/apps/avx/software/Gaussian/16-C.01_AVX/g16/l502.exe)
 Two-electron integral symmetry not used.
 Closed shell SCF:
 Using DIIS extrapolation, IDIIS=  1040.
 NGot=  7784628224 LenX=  7784455381 LenY=  7784371419
 Requested convergence on RMS density matrix=1.00D-08 within 128 cycles.
 Requested convergence on MAX density matrix=1.00D-06.
 Requested convergence on             energy=1.00D-06.
 No special actions if energy rises.
 Fock matrices will be formed incrementally for  20 cycles.

 Cycle   1  Pass 1  IDiag  1:
 FoFJK:  IHMeth= 1 ICntrl=       0 DoSepK=T KAlg= 0 I1Cent=           0 FoldK=F
 IRaf=         1 NMat=       1 IRICut=       1 DoRegI=T DoRafI=F ISym2E= 0 IDoP0=0 IntGTp=1.
 FoFCou: FMM=F IPFlag=           0 FMFlag=      100000 FMFlg1=           0
         NFxFlg=           0 DoJE=T BraDBF=F KetDBF=F FulRan=T
         wScrn=  0.000000 ICntrl=       500 IOpCl=  0 I1Cent=           0 NGrid=           0
         NMat0=    1 NMatS0=      1 NMatT0=    0 NMatD0=    1 NMtDS0=    0 NMtDT0=    0
 Symmetry not used in FoFCou.
 Inv3:  Mode=1 IEnd=    14401443.
 Iteration    1 A*A^-1 deviation from unit magnitude is 6.22D-15 for   2191.
 Iteration    1 A*A^-1 deviation from orthogonality  is 2.07D-15 for   2188   2096.
 Iteration    1 A^-1*A deviation from unit magnitude is 6.00D-15 for   2191.
 Iteration    1 A^-1*A deviation from orthogonality  is 1.72D-15 for   2188   2096.
 E= -1028.57024478454    
 DIIS: error= 3.10D-02 at cycle   1 NSaved=   1.
 NSaved= 1 IEnMin= 1 EnMin= -1028.57024478454     IErMin= 1 ErrMin= 3.10D-02
 ErrMax= 3.10D-02  0.00D+00 EMaxC= 1.00D-01 BMatC= 3.92D-01 BMatP= 3.92D-01
 IDIUse=3 WtCom= 6.90D-01 WtEn= 3.10D-01
 Coeff-Com:  0.100D+01
 Coeff-En:   0.100D+01
 Coeff:      0.100D+01
 Gap=     0.337 Goal=   None    Shift=    0.000
 GapD=    0.337 DampG=1.000 DampE=0.500 DampFc=0.5000 IDamp=-1.
 Damping current iteration by 5.00D-01
 RMSDP=3.52D-03 MaxDP=2.22D-01              OVMax= 1.74D-01

 Cycle   2  Pass 1  IDiag  1:
 RMSU=  1.75D-03    CP:  9.93D-01
 E= -1028.68700977714     Delta-E=       -0.116764992606 Rises=F Damp=T
 DIIS: error= 1.15D-02 at cycle   2 NSaved=   2.
 NSaved= 2 IEnMin= 2 EnMin= -1028.68700977714     IErMin= 2 ErrMin= 1.15D-02
 ErrMax= 1.15D-02  0.00D+00 EMaxC= 1.00D-01 BMatC= 5.81D-02 BMatP= 3.92D-01
 IDIUse=3 WtCom= 8.85D-01 WtEn= 1.15D-01
 Coeff-Com: -0.288D+00 0.129D+01
 Coeff-En:   0.000D+00 0.100D+01
 Coeff:     -0.255D+00 0.125D+01
 Gap=     0.302 Goal=   None    Shift=    0.000
 RMSDP=1.14D-03 MaxDP=2.47D-02 DE=-1.17D-01 OVMax= 1.15D-01

 Cycle   3  Pass 1  IDiag  1:
 RMSU=  1.09D-03    CP:  9.92D-01  1.19D+00
 E= -1028.79038025500     Delta-E=       -0.103370477859 Rises=F Damp=F
 DIIS: error= 5.37D-03 at cycle   3 NSaved=   3.
 NSaved= 3 IEnMin= 3 EnMin= -1028.79038025500     IErMin= 3 ErrMin= 5.37D-03
 ErrMax= 5.37D-03  0.00D+00 EMaxC= 1.00D-01 BMatC= 1.47D-02 BMatP= 5.81D-02
 IDIUse=3 WtCom= 9.46D-01 WtEn= 5.37D-02
 Coeff-Com: -0.205D+00 0.494D+00 0.710D+00
 Coeff-En:   0.000D+00 0.000D+00 0.100D+01
 Coeff:     -0.194D+00 0.468D+00 0.726D+00
 Gap=     0.258 Goal=   None    Shift=    0.000
 RMSDP=5.45D-04 MaxDP=2.02D-02 DE=-1.03D-01 OVMax= 3.84D-02

 Cycle   4  Pass 1  IDiag  1:
 RMSU=  4.28D-04    CP:  9.89D-01  1.35D+00  8.30D-01
 E= -1028.80394737583     Delta-E=       -0.013567120824 Rises=F Damp=F
 DIIS: error= 1.80D-03 at cycle   4 NSaved=   4.
 NSaved= 4 IEnMin= 4 EnMin= -1028.80394737583     IErMin= 4 ErrMin= 1.80D-03
 ErrMax= 1.80D-03  0.00D+00 EMaxC= 1.00D-01 BMatC= 1.80D-03 BMatP= 1.47D-02
 IDIUse=3 WtCom= 9.82D-01 WtEn= 1.80D-02
 Coeff-Com: -0.733D-01 0.146D+00 0.348D+00 0.579D+00
 Coeff-En:   0.000D+00 0.000D+00 0.000D+00 0.100D+01
 Coeff:     -0.720D-01 0.143D+00 0.342D+00 0.587D+00
 Gap=     0.255 Goal=   None    Shift=    0.000
 RMSDP=1.73D-04 MaxDP=1.04D-02 DE=-1.36D-02 OVMax= 1.41D-02

 Cycle   5  Pass 1  IDiag  1:
 RMSU=  1.05D-04    CP:  9.89D-01  1.36D+00  9.03D-01  7.42D-01
 E= -1028.80581078156     Delta-E=       -0.001863405737 Rises=F Damp=F
 DIIS: error= 4.50D-04 at cycle   5 NSaved=   5.
 NSaved= 5 IEnMin= 5 EnMin= -1028.80581078156     IErMin= 5 ErrMin= 4.50D-04
 ErrMax= 4.50D-04  0.00D+00 EMaxC= 1.00D-01 BMatC= 5.35D-05 BMatP= 1.80D-03
 IDIUse=3 WtCom= 9.96D-01 WtEn= 4.50D-03
 Coeff-Com: -0.336D-02 0.705D-03 0.421D-01 0.165D+00 0.796D+00
 Coeff-En:   0.000D+00 0.000D+00 0.000D+00 0.000D+00 0.100D+01
 Coeff:     -0.334D-02 0.702D-03 0.419D-01 0.164D+00 0.797D+00
 Gap=     0.256 Goal=   None    Shift=    0.000
 RMSDP=5.07D-05 MaxDP=1.67D-03 DE=-1.86D-03 OVMax= 4.55D-03

 Cycle   6  Pass 1  IDiag  1:
 RMSU=  3.31D-05    CP:  9.89D-01  1.36D+00  9.21D-01  8.17D-01  1.07D+00
 E= -1028.80591681386     Delta-E=       -0.000106032298 Rises=F Damp=F
 DIIS: error= 1.82D-04 at cycle   6 NSaved=   6.
 NSaved= 6 IEnMin= 6 EnMin= -1028.80591681386     IErMin= 6 ErrMin= 1.82D-04
 ErrMax= 1.82D-04  0.00D+00 EMaxC= 1.00D-01 BMatC= 1.10D-05 BMatP= 5.35D-05
 IDIUse=3 WtCom= 9.98D-01 WtEn= 1.82D-03
 Coeff-Com:  0.142D-01-0.298D-01-0.520D-01-0.493D-01 0.258D+00 0.859D+00
 Coeff-En:   0.000D+00 0.000D+00 0.000D+00 0.000D+00 0.000D+00 0.100D+01
 Coeff:      0.141D-01-0.297D-01-0.519D-01-0.493D-01 0.258D+00 0.859D+00
 Gap=     0.257 Goal=   None    Shift=    0.000
 RMSDP=2.86D-05 MaxDP=1.44D-03 DE=-1.06D-04 OVMax= 2.97D-03

 Cycle   7  Pass 1  IDiag  1:
 RMSU=  1.56D-05    CP:  9.89D-01  1.36D+00  9.31D-01  8.44D-01  1.23D+00
                    CP:  1.21D+00
 E= -1028.80594400099     Delta-E=       -0.000027187133 Rises=F Damp=F
 DIIS: error= 1.27D-04 at cycle   7 NSaved=   7.
 NSaved= 7 IEnMin= 7 EnMin= -1028.80594400099     IErMin= 7 ErrMin= 1.27D-04
 ErrMax= 1.27D-04  0.00D+00 EMaxC= 1.00D-01 BMatC= 2.58D-06 BMatP= 1.10D-05
 IDIUse=3 WtCom= 9.99D-01 WtEn= 1.27D-03
 Coeff-Com:  0.714D-02-0.138D-01-0.306D-01-0.492D-01-0.763D-02 0.396D+00
 Coeff-Com:  0.698D+00
 Coeff-En:   0.000D+00 0.000D+00 0.000D+00 0.000D+00 0.000D+00 0.000D+00
 Coeff-En:   0.100D+01
 Coeff:      0.713D-02-0.137D-01-0.305D-01-0.492D-01-0.763D-02 0.396D+00
 Coeff:      0.698D+00
 Gap=     0.257 Goal=   None    Shift=    0.000
 RMSDP=1.14D-05 MaxDP=5.30D-04 DE=-2.72D-05 OVMax= 1.32D-03

 Cycle   8  Pass 1  IDiag  1:
 RMSU=  6.83D-06    CP:  9.89D-01  1.36D+00  9.33D-01  8.51D-01  1.27D+00
                    CP:  1.41D+00  1.11D+00
 E= -1028.80594929837     Delta-E=       -0.000005297377 Rises=F Damp=F
 DIIS: error= 4.41D-05 at cycle   8 NSaved=   8.
 NSaved= 8 IEnMin= 8 EnMin= -1028.80594929837     IErMin= 8 ErrMin= 4.41D-05
 ErrMax= 4.41D-05  0.00D+00 EMaxC= 1.00D-01 BMatC= 2.94D-07 BMatP= 2.58D-06
 IDIUse=1 WtCom= 1.00D+00 WtEn= 0.00D+00
 Coeff-Com: -0.111D-02 0.249D-02 0.355D-02 0.409D-03-0.400D-01-0.731D-01
 Coeff-Com:  0.180D+00 0.928D+00
 Coeff:     -0.111D-02 0.249D-02 0.355D-02 0.409D-03-0.400D-01-0.731D-01
 Coeff:      0.180D+00 0.928D+00
 Gap=     0.257 Goal=   None    Shift=    0.000
 RMSDP=5.52D-06 MaxDP=1.80D-04 DE=-5.30D-06 OVMax= 8.32D-04

 Cycle   9  Pass 1  IDiag  1:
 RMSU=  2.47D-06    CP:  9.89D-01  1.36D+00  9.33D-01  8.51D-01  1.28D+00
                    CP:  1.49D+00  1.33D+00  1.23D+00
 E= -1028.80595030900     Delta-E=       -0.000001010630 Rises=F Damp=F
 DIIS: error= 2.01D-05 at cycle   9 NSaved=   9.
 NSaved= 9 IEnMin= 9 EnMin= -1028.80595030900     IErMin= 9 ErrMin= 2.01D-05
 ErrMax= 2.01D-05  0.00D+00 EMaxC= 1.00D-01 BMatC= 4.91D-08 BMatP= 2.94D-07
 IDIUse=1 WtCom= 1.00D+00 WtEn= 0.00D+00
 Coeff-Com: -0.116D-02 0.233D-02 0.480D-02 0.650D-02-0.104D-01-0.801D-01
 Coeff-Com: -0.351D-01 0.272D+00 0.841D+00
 Coeff:     -0.116D-02 0.233D-02 0.480D-02 0.650D-02-0.104D-01-0.801D-01
 Coeff:     -0.351D-01 0.272D+00 0.841D+00
 Gap=     0.257 Goal=   None    Shift=    0.000
 RMSDP=2.49D-06 MaxDP=6.74D-05 DE=-1.01D-06 OVMax= 4.22D-04

 Cycle  10  Pass 1  IDiag  1:
 RMSU=  1.17D-06    CP:  9.89D-01  1.36D+00  9.33D-01  8.51D-01  1.28D+00
                    CP:  1.52D+00  1.42D+00  1.40D+00  1.23D+00
 E= -1028.80595051686     Delta-E=       -0.000000207856 Rises=F Damp=F
 DIIS: error= 8.42D-06 at cycle  10 NSaved=  10.
 NSaved=10 IEnMin=10 EnMin= -1028.80595051686     IErMin=10 ErrMin= 8.42D-06
 ErrMax= 8.42D-06  0.00D+00 EMaxC= 1.00D-01 BMatC= 1.56D-08 BMatP= 4.91D-08
 IDIUse=1 WtCom= 1.00D+00 WtEn= 0.00D+00
 Coeff-Com: -0.176D-03 0.292D-03 0.103D-02 0.251D-02 0.491D-02-0.176D-01
 Coeff-Com: -0.506D-01-0.112D+00 0.342D+00 0.830D+00
 Coeff:     -0.176D-03 0.292D-03 0.103D-02 0.251D-02 0.491D-02-0.176D-01
 Coeff:     -0.506D-01-0.112D+00 0.342D+00 0.830D+00
 Gap=     0.257 Goal=   None    Shift=    0.000
 RMSDP=1.42D-06 MaxDP=3.80D-05 DE=-2.08D-07 OVMax= 2.31D-04

 Cycle  11  Pass 1  IDiag  1:
 RMSU=  5.36D-07    CP:  9.89D-01  1.36D+00  9.33D-01  8.51D-01  1.28D+00
                    CP:  1.54D+00  1.46D+00  1.49D+00  1.57D+00  1.19D+00
 E= -1028.80595057523     Delta-E=       -0.000000058375 Rises=F Damp=F
 DIIS: error= 4.88D-06 at cycle  11 NSaved=  11.
 NSaved=11 IEnMin=11 EnMin= -1028.80595057523     IErMin=11 ErrMin= 4.88D-06
 ErrMax= 4.88D-06  0.00D+00 EMaxC= 1.00D-01 BMatC= 2.15D-09 BMatP= 1.56D-08
 IDIUse=1 WtCom= 1.00D+00 WtEn= 0.00D+00
 Coeff-Com:  0.245D-03-0.506D-03-0.862D-03-0.807D-03 0.442D-02 0.110D-01
 Coeff-Com: -0.448D-02-0.902D-01-0.530D-01 0.210D+00 0.924D+00
 Coeff:      0.245D-03-0.506D-03-0.862D-03-0.807D-03 0.442D-02 0.110D-01
 Coeff:     -0.448D-02-0.902D-01-0.530D-01 0.210D+00 0.924D+00
 Gap=     0.257 Goal=   None    Shift=    0.000
 RMSDP=6.19D-07 MaxDP=1.79D-05 DE=-5.84D-08 OVMax= 1.20D-04

 Cycle  12  Pass 1  IDiag  1:
 RMSU=  2.16D-07    CP:  9.89D-01  1.36D+00  9.33D-01  8.51D-01  1.29D+00
                    CP:  1.54D+00  1.47D+00  1.52D+00  1.71D+00  1.47D+00
                    CP:  1.18D+00
 E= -1028.80595058647     Delta-E=       -0.000000011242 Rises=F Damp=F
 DIIS: error= 1.24D-06 at cycle  12 NSaved=  12.
 NSaved=12 IEnMin=12 EnMin= -1028.80595058647     IErMin=12 ErrMin= 1.24D-06
 ErrMax= 1.24D-06  0.00D+00 EMaxC= 1.00D-01 BMatC= 6.87D-10 BMatP= 2.15D-09
 IDIUse=1 WtCom= 1.00D+00 WtEn= 0.00D+00
 Coeff-Com:  0.129D-03-0.253D-03-0.533D-03-0.848D-03 0.105D-02 0.791D-02
 Coeff-Com:  0.931D-02-0.157D-01-0.957D-01-0.123D+00 0.372D+00 0.845D+00
 Coeff:      0.129D-03-0.253D-03-0.533D-03-0.848D-03 0.105D-02 0.791D-02
 Coeff:      0.931D-02-0.157D-01-0.957D-01-0.123D+00 0.372D+00 0.845D+00
 Gap=     0.257 Goal=   None    Shift=    0.000
 RMSDP=3.27D-07 MaxDP=7.49D-06 DE=-1.12D-08 OVMax= 5.21D-05

 Cycle  13  Pass 1  IDiag  1:
 RMSU=  8.85D-08    CP:  9.89D-01  1.36D+00  9.33D-01  8.51D-01  1.29D+00
                    CP:  1.54D+00  1.47D+00  1.53D+00  1.79D+00  1.59D+00
                    CP:  1.46D+00  1.12D+00
 E= -1028.80595058874     Delta-E=       -0.000000002270 Rises=F Damp=F
 DIIS: error= 5.83D-07 at cycle  13 NSaved=  13.
 NSaved=13 IEnMin=13 EnMin= -1028.80595058874     IErMin=13 ErrMin= 5.83D-07
 ErrMax= 5.83D-07  0.00D+00 EMaxC= 1.00D-01 BMatC= 5.58D-11 BMatP= 6.87D-10
 IDIUse=1 WtCom= 1.00D+00 WtEn= 0.00D+00
 Coeff-Com:  0.477D-05-0.585D-05-0.417D-04-0.168D-03-0.210D-03 0.919D-03
 Coeff-Com:  0.364D-02 0.795D-02-0.192D-01-0.720D-01-0.988D-02 0.257D+00
 Coeff-Com:  0.832D+00
 Coeff:      0.477D-05-0.585D-05-0.417D-04-0.168D-03-0.210D-03 0.919D-03
 Coeff:      0.364D-02 0.795D-02-0.192D-01-0.720D-01-0.988D-02 0.257D+00
 Coeff:      0.832D+00
 Gap=     0.257 Goal=   None    Shift=    0.000
 RMSDP=7.83D-08 MaxDP=2.03D-06 DE=-2.27D-09 OVMax= 1.17D-05

 Cycle  14  Pass 1  IDiag  1:
 RMSU=  3.55D-08    CP:  9.89D-01  1.36D+00  9.33D-01  8.51D-01  1.29D+00
                    CP:  1.54D+00  1.47D+00  1.53D+00  1.80D+00  1.62D+00
                    CP:  1.53D+00  1.28D+00  1.05D+00
 E= -1028.80595058890     Delta-E=       -0.000000000155 Rises=F Damp=F
 DIIS: error= 1.54D-07 at cycle  14 NSaved=  14.
 NSaved=14 IEnMin=14 EnMin= -1028.80595058890     IErMin=14 ErrMin= 1.54D-07
 ErrMax= 1.54D-07  0.00D+00 EMaxC= 1.00D-01 BMatC= 1.24D-11 BMatP= 5.58D-11
 IDIUse=1 WtCom= 1.00D+00 WtEn= 0.00D+00
 Coeff-Com: -0.126D-04 0.262D-04 0.436D-04 0.213D-04-0.196D-03-0.443D-03
 Coeff-Com:  0.605D-03 0.537D-02 0.272D-02-0.184D-01-0.454D-01 0.116D-01
 Coeff-Com:  0.370D+00 0.674D+00
 Coeff:     -0.126D-04 0.262D-04 0.436D-04 0.213D-04-0.196D-03-0.443D-03
 Coeff:      0.605D-03 0.537D-02 0.272D-02-0.184D-01-0.454D-01 0.116D-01
 Coeff:      0.370D+00 0.674D+00
 Gap=     0.257 Goal=   None    Shift=    0.000
 RMSDP=2.21D-08 MaxDP=6.02D-07 DE=-1.55D-10 OVMax= 2.05D-06

 Cycle  15  Pass 1  IDiag  1:
 RMSU=  1.31D-08    CP:  9.89D-01  1.36D+00  9.33D-01  8.51D-01  1.29D+00
                    CP:  1.54D+00  1.47D+00  1.54D+00  1.81D+00  1.63D+00
                    CP:  1.54D+00  1.31D+00  1.19D+00  9.31D-01
 E= -1028.80595058893     Delta-E=       -0.000000000028 Rises=F Damp=F
 DIIS: error= 8.10D-08 at cycle  15 NSaved=  15.
 NSaved=15 IEnMin=15 EnMin= -1028.80595058893     IErMin=15 ErrMin= 8.10D-08
 ErrMax= 8.10D-08  0.00D+00 EMaxC= 1.00D-01 BMatC= 9.42D-13 BMatP= 1.24D-11
 IDIUse=1 WtCom= 1.00D+00 WtEn= 0.00D+00
 Coeff-Com: -0.404D-05 0.764D-05 0.195D-04 0.341D-04-0.192D-04-0.313D-03
 Coeff-Com: -0.572D-03-0.154D-03 0.432D-02 0.835D-02-0.831D-02-0.439D-01
 Coeff-Com: -0.446D-01 0.164D+00 0.921D+00
 Coeff:     -0.404D-05 0.764D-05 0.195D-04 0.341D-04-0.192D-04-0.313D-03
 Coeff:     -0.572D-03-0.154D-03 0.432D-02 0.835D-02-0.831D-02-0.439D-01
 Coeff:     -0.446D-01 0.164D+00 0.921D+00
 Gap=     0.257 Goal=   None    Shift=    0.000
 RMSDP=9.17D-09 MaxDP=2.00D-07 DE=-2.84D-11 OVMax= 1.02D-06

 Error on total polarization charges =  0.00825
 SCF Done:  E(RwB97XD) =  -1028.80595059     A.U. after   15 cycles
            NFock= 15  Conv=0.92D-08     -V/T= 2.0051
 KE= 1.023572418427D+03 PE=-4.612864874256D+03 EE= 1.460037096666D+03
 Leave Link  502 at Tue Jul 14 10:26:04 2020, MaxMem=  7784628224 cpu:             817.8 elap:              82.5
 (Enter /gpfs/loomis/apps/avx/software/Gaussian/16-C.01_AVX/g16/l801.exe)
 DoSCS=F DFT=T ScalE2(SS,OS)=  1.000000  1.000000
 ExpMin= 1.22D-01 ExpMax= 1.11D+05 ExpMxC= 1.07D+03 IAcc=3 IRadAn=         5 AccDes= 0.00D+00
 HarFok:  IExCor=  205 AccDes= 0.00D+00 IRadAn=         5 IDoV=-2 UseB2=F ITyADJ=14
 ICtDFT= 12500011 ScaDFX=  1.000000  1.000000  1.000000  1.000000
 Largest valence mixing into a core orbital is  9.43D-05
 Largest core mixing into a valence orbital is  3.07D-05
 Range of M.O.s used for correlation:    21   273
 NBasis=   273 NAE=    59 NBE=    59 NFC=    20 NFV=     0
 NROrb=    253 NOA=    39 NOB=    39 NVA=   214 NVB=   214

 **** Warning!!: The largest alpha MO coefficient is  0.11482720D+02

 Leave Link  801 at Tue Jul 14 10:26:04 2020, MaxMem=  7784628224 cpu:               2.9 elap:               0.3
 (Enter /gpfs/loomis/apps/avx/software/Gaussian/16-C.01_AVX/g16/l914.exe)
 RHF ground state
 Keep R1, R2, and R3 ints in memory in canonical form, NReq=4262515490.
 FoFCou: FMM=F IPFlag=           0 FMFlag=           0 FMFlg1=           0
         NFxFlg=           0 DoJE=F BraDBF=F KetDBF=F FulRan=T
         wScrn=  0.000000 ICntrl=       600 IOpCl=  0 I1Cent=           0 NGrid=           0
         NMat0=    1 NMatS0=  37401 NMatT0=    0 NMatD0=    1 NMtDS0=    0 NMtDT0=    0
 Symmetry not used in FoFCou.
 Two-electron integral symmetry not used.
 MDV=  7784628224 DFT=T DoStab=F Mixed=T DoRPA=T DoScal=F NonHer=T
 NEqPCM:  Using equilibrium solvation (IEInf=0, Eps=   2.2280, EpsInf=   2.1319)
 Making orbital integer symmetry assigments:
    12 initial guesses have been made.
 Convergence on wavefunction:    0.000001000000000
 Davidson Disk Diagonalization:  ConvIn= 1.00D-06 SkipCon=T Conv= 1.00D-06.
 Max sub-space:  2000 roots to seek:    12 dimension of matrix:        16692
 Iteration     1 Dimension    12 NMult     0 NNew     12
 CISAX will form    12 AO SS matrices at one time.
 NMat=    12 NSing=    12 JSym2X= 0.
 New state      2 was old state      5
 New state      3 was old state      2
 Excitation Energies [eV] at current iteration:
 Root      1 :     3.782345050081030
 Root      2 :     4.873355663914292
 Root      3 :     4.899865826201976
 Root      4 :     5.201870626929798
 Root      5 :     5.890265992291860
 Root      6 :     6.072317078254877
 Root      7 :     6.256468792641827
 Root      8 :     6.362389468507361
 Root      9 :     6.866152199708924
 Root     10 :     7.061212064752186
 Root     11 :     7.168959321656885
 Root     12 :     7.884289278098007
 Iteration     2 Dimension    18 NMult    12 NNew      6
 CISAX will form     6 AO SS matrices at one time.
 NMat=     6 NSing=     6 JSym2X= 0.
 Root      1 not converged, maximum delta is    0.044443472193918
 New state      2 was old state      3
 Root      2 not converged, maximum delta is    0.083124647021004
 New state      3 was old state      2
 Root      3 not converged, maximum delta is    0.076599294659206
 Excitation Energies [eV] at current iteration:
 Root      1 :     3.290797603827718   Change is   -0.491547446253313
 Root      2 :     4.366097783616344   Change is   -0.533768042585632
 Root      3 :     4.667499899120673   Change is   -0.205855764793619
 Iteration     3 Dimension    24 NMult    18 NNew      6
 CISAX will form     6 AO SS matrices at one time.
 NMat=     6 NSing=     6 JSym2X= 0.
 Root      1 not converged, maximum delta is    0.020714728078143
 Root      2 not converged, maximum delta is    0.019849191678415
 Root      3 not converged, maximum delta is    0.028349621349876
 Excitation Energies [eV] at current iteration:
 Root      1 :     3.256038139396396   Change is   -0.034759464431322
 Root      2 :     4.336859424518164   Change is   -0.029238359098180
 Root      3 :     4.651204862773944   Change is   -0.016295036346729
 Iteration     4 Dimension    30 NMult    24 NNew      6
 CISAX will form     6 AO SS matrices at one time.
 NMat=     6 NSing=     6 JSym2X= 0.
 Root      1 not converged, maximum delta is    0.007794950544802
 Root      2 not converged, maximum delta is    0.007964719137479
 Root      3 not converged, maximum delta is    0.009704421739365
 Excitation Energies [eV] at current iteration:
 Root      1 :     3.251075510650695   Change is   -0.004962628745700
 Root      2 :     4.331689369050791   Change is   -0.005170055467373
 Root      3 :     4.649615053743503   Change is   -0.001589809030441
 Iteration     5 Dimension    36 NMult    30 NNew      6
 CISAX will form     6 AO SS matrices at one time.
 NMat=     6 NSing=     6 JSym2X= 0.
 Root      1 not converged, maximum delta is    0.003140013293317
 Root      2 not converged, maximum delta is    0.002748122506421
 Root      3 not converged, maximum delta is    0.002110921906631
 Excitation Energies [eV] at current iteration:
 Root      1 :     3.250562837064790   Change is   -0.000512673585905
 Root      2 :     4.331191411386234   Change is   -0.000497957664557
 Root      3 :     4.649465892804661   Change is   -0.000149160938842
 Iteration     6 Dimension    42 NMult    36 NNew      6
 CISAX will form     6 AO SS matrices at one time.
 NMat=     6 NSing=     6 JSym2X= 0.
 Root      1 not converged, maximum delta is    0.000613867065751
 Root      2 not converged, maximum delta is    0.000950847423944
 Root      3 not converged, maximum delta is    0.000316756406730
 Excitation Energies [eV] at current iteration:
 Root      1 :     3.250507980355835   Change is   -0.000054856708955
 Root      2 :     4.331132853068806   Change is   -0.000058558317428
 Root      3 :     4.649454092893809   Change is   -0.000011799910852
 Iteration     7 Dimension    48 NMult    42 NNew      6
 CISAX will form     6 AO SS matrices at one time.
 NMat=     6 NSing=     6 JSym2X= 0.
 Root      1 not converged, maximum delta is    0.000198050312157
 Root      2 not converged, maximum delta is    0.000393589433652
 Root      3 not converged, maximum delta is    0.000089567635891
 Excitation Energies [eV] at current iteration:
 Root      1 :     3.250504080802857   Change is   -0.000003899552978
 Root      2 :     4.331125327947611   Change is   -0.000007525121195
 Root      3 :     4.649453406091884   Change is   -0.000000686801924
 Iteration     8 Dimension    54 NMult    48 NNew      6
 CISAX will form     6 AO SS matrices at one time.
 NMat=     6 NSing=     6 JSym2X= 0.
 Root      1 not converged, maximum delta is    0.000031122664832
 Root      2 not converged, maximum delta is    0.000091223705465
 Root      3 not converged, maximum delta is    0.000045084911287
 Excitation Energies [eV] at current iteration:
 Root      1 :     3.250503777407086   Change is   -0.000000303395771
 Root      2 :     4.331124667339221   Change is   -0.000000660608389
 Root      3 :     4.649453342356047   Change is   -0.000000063735837
 Iteration     9 Dimension    60 NMult    54 NNew      6
 CISAX will form     6 AO SS matrices at one time.
 NMat=     6 NSing=     6 JSym2X= 0.
 Root      1 not converged, maximum delta is    0.000009085423518
 Root      2 not converged, maximum delta is    0.000045665073599
 Root      3 not converged, maximum delta is    0.000015958401599
 Excitation Energies [eV] at current iteration:
 Root      1 :     3.250503760746281   Change is   -0.000000016660805
 Root      2 :     4.331124599740262   Change is   -0.000000067598960
 Root      3 :     4.649453336536556   Change is   -0.000000005819491
 Iteration    10 Dimension    66 NMult    60 NNew      6
 CISAX will form     6 AO SS matrices at one time.
 NMat=     6 NSing=     6 JSym2X= 0.
 Root      1 not converged, maximum delta is    0.000001700677080
 Root      2 not converged, maximum delta is    0.000025349252371
 Root      3 not converged, maximum delta is    0.000003624083311
 Excitation Energies [eV] at current iteration:
 Root      1 :     3.250503759742898   Change is   -0.000000001003383
 Root      2 :     4.331124590967903   Change is   -0.000000008772358
 Root      3 :     4.649453336039151   Change is   -0.000000000497406
 Iteration    11 Dimension    72 NMult    66 NNew      6
 CISAX will form     6 AO SS matrices at one time.
 NMat=     6 NSing=     6 JSym2X= 0.
 Root      1 has converged.
 Root      2 not converged, maximum delta is    0.000008410958946
 Root      3 not converged, maximum delta is    0.000001515757759
 Excitation Energies [eV] at current iteration:
 Root      1 :     3.250503759691001   Change is   -0.000000000051897
 Root      2 :     4.331124589958817   Change is   -0.000000001009087
 Root      3 :     4.649453335986107   Change is   -0.000000000053043
 Iteration    12 Dimension    76 NMult    72 NNew      4
 CISAX will form     4 AO SS matrices at one time.
 NMat=     4 NSing=     4 JSym2X= 0.
 Root      1 has converged.
 Root      2 not converged, maximum delta is    0.000001465573809
 Root      3 has converged.
 Excitation Energies [eV] at current iteration:
 Root      1 :     3.250503759690926   Change is   -0.000000000000076
 Root      2 :     4.331124589872265   Change is   -0.000000000086551
 Root      3 :     4.649453335978752   Change is   -0.000000000007356
 Iteration    13 Dimension    78 NMult    76 NNew      2
 CISAX will form     2 AO SS matrices at one time.
 NMat=     2 NSing=     2 JSym2X= 0.
 Root      1 has converged.
 Root      2 has converged.
 Root      3 has converged.
 Excitation Energies [eV] at current iteration:
 Root      1 :     3.250503759690850   Change is   -0.000000000000076
 Root      2 :     4.331124589865830   Change is   -0.000000000006435
 Root      3 :     4.649453335978663   Change is   -0.000000000000088
 Convergence achieved on expansion vectors.
 ***********************************************************************
 Excited states from <AA,BB:AA,BB> singles matrix:
 ***********************************************************************
 
 1PDM for each excited state written to RWF  633
 Ground to excited state transition densities written to RWF  633
 Ground to excited state transition electric dipole moments (Au):
       state          X           Y           Z        Dip. S.      Osc.
         1         1.3387     -2.1104     -0.0000      6.2458      0.4974
         2         1.4823     -0.7469     -0.0000      2.7550      0.2923
         3         0.0000      0.0001      0.0140      0.0002      0.0000
 Ground to excited state transition velocity dipole moments (Au):
       state          X           Y           Z        Dip. S.      Osc.
         1        -0.1552      0.2540      0.0000      0.0886      0.4946
         2        -0.2314      0.1102      0.0000      0.0657      0.2752
         3        -0.0000     -0.0000     -0.0025      0.0000      0.0000
 Ground to excited state transition magnetic dipole moments (Au):
       state          X           Y           Z
         1         0.0000      0.0000     -0.8353
         2         0.0000      0.0000      1.3157
         3        -0.0201      0.0676     -0.0001
 Ground to excited state transition velocity quadrupole moments (Au):
       state          XX          YY          ZZ          XY          XZ          YZ
         1         0.0469      0.5539     -0.0145     -0.2744     -0.0000      0.0000
         2         0.4290     -0.7113     -0.0005      0.0384     -0.0000     -0.0000
         3        -0.0001      0.0000      0.0000      0.0000     -0.0227     -0.0201
 <0|del|b> * <b|rxdel|0> + <0|del|b> * <b|delr+rdel|0>
 Rotatory Strengths (R) in cgs (10**-40 erg-esu-cm/Gauss)
       state          XX          YY          ZZ    R(velocity)    E-M Angle
         1         0.0083     -0.0124      0.0176      0.0045       90.00
         2         0.0063      0.0019     -0.0091     -0.0003       90.00
         3        -0.0023      0.0007     -0.0012     -0.0009       90.00
 1/2[<0|r|b>*<b|rxdel|0> + (<0|rxdel|b>*<b|r|0>)*]
 Rotatory Strengths (R) in cgs (10**-40 erg-esu-cm/Gauss)
       state          XX          YY          ZZ     R(length)
         1        -0.0030      0.0338     -0.0185      0.0041
         2        -0.0108      0.0002      0.0095     -0.0004
         3         0.0002     -0.0037      0.0006     -0.0010
  1/2[<0|del|b>*<b|r|0> + (<0|r|b>*<b|del|0>)*] (Au)
       state          X           Y           Z        Dip. S.   Osc.(frdel)
         1        -0.2078     -0.5361     -0.0000      0.7439      0.4959
         2        -0.3430     -0.0823     -0.0000      0.4253      0.2836
         3        -0.0000     -0.0000     -0.0000      0.0000      0.0000

 Excitation energies and oscillator strengths:
 
 Excited state symmetry could not be determined.
 Excited State   1:      Singlet-?Sym    3.2505 eV  381.43 nm  f=0.4974  <S**2>=0.000
      59 -> 60         0.69323
 This state for optimization and/or second-order correction.
 Total Energy, E(TD-HF/TD-DFT) =  -1028.68649677    
 Copying the excited state density for this state as the 1-particle RhoCI density.
 
 Excited state symmetry could not be determined.
 Excited State   2:      Singlet-?Sym    4.3311 eV  286.26 nm  f=0.2923  <S**2>=0.000
      57 -> 60        -0.11404
      58 -> 60         0.66777
 
 Excited state symmetry could not be determined.
 Excited State   3:      Singlet-?Sym    4.6495 eV  266.66 nm  f=0.0000  <S**2>=0.000
      56 -> 60         0.68851
      56 -> 64        -0.10245
 SavETr:  write IOETrn=   770 NScale= 10 NData=  16 NLR=1 NState=    3 LETran=      64.
 The selected state is a singlet.
 CISGrd: IGrad=2 NXY=2 DFT=T
 CISAX will form     1 AO SS matrices at one time.
 NMat=     1 NSing=     1 JSym2X= 0.
 GePol: Maximum number of non-zero 1st derivatives   =     250
 Leave Link  914 at Tue Jul 14 10:29:02 2020, MaxMem=  7784628224 cpu:            1750.9 elap:             177.9
 (Enter /gpfs/loomis/apps/avx/software/Gaussian/16-C.01_AVX/g16/l1002.exe)
 Minotr:  Closed shell wavefunction.
          Computing CIS/TDA/TD derivatives.
          Using Z-Vector for PSCF gradient.
          Skipping F1 and S1 gradient terms here.
          IDoAtm=1111111111111111111111111
 NEqPCM:  Using equilibrium solvation (IEInf=0, Eps=   2.2280, EpsInf=   2.1319)
          Frozen-core window.
          Direct CPHF calculation.
          Differentiating once with respect to electric field.
                with respect to dipole field.
          Differentiating once with respect to nuclear coordinates.
          Requested convergence is 1.0D-10 RMS, and 1.0D-09 maximum.
          NewPWx=F KeepS1=T KeepF1=T KeepIn=T MapXYZ=F SortEE=F KeepMc=T.
 Keep R1 ints in memory in canonical form, NReq=1421498946.
 FoFCou: FMM=F IPFlag=           0 FMFlag=           0 FMFlg1=           0
         NFxFlg=           0 DoJE=F BraDBF=F KetDBF=F FulRan=T
         wScrn=  0.000000 ICntrl=       600 IOpCl=  0 I1Cent=           0 NGrid=           0
         NMat0=    1 NMatS0=  37401 NMatT0=    0 NMatD0=    1 NMtDS0=    0 NMtDT0=    0
 Symmetry not used in FoFCou.
 Two-electron integral symmetry not used.
          MDV=    7784628224 using IRadAn=       5.
          Solving linear equations separately, MaxMat=       0.
          There are     1 degrees of freedom in the 1st order CPHF.  IDoFFX=0 NUNeed=     1.
 LinEq1:  Iter=  0 NonCon=     1 RMS=5.51D-03 Max=2.87D-01 NDo=     1
 AX will form     1 AO Fock derivatives at one time.
 LinEq1:  Iter=  1 NonCon=     1 RMS=2.31D-03 Max=1.10D-01 NDo=     1
 LinEq1:  Iter=  2 NonCon=     1 RMS=1.45D-03 Max=5.00D-02 NDo=     1
 LinEq1:  Iter=  3 NonCon=     1 RMS=5.41D-04 Max=1.27D-02 NDo=     1
 LinEq1:  Iter=  4 NonCon=     1 RMS=2.99D-04 Max=1.02D-02 NDo=     1
 LinEq1:  Iter=  5 NonCon=     1 RMS=1.59D-04 Max=7.64D-03 NDo=     1
 LinEq1:  Iter=  6 NonCon=     1 RMS=7.22D-05 Max=2.98D-03 NDo=     1
 LinEq1:  Iter=  7 NonCon=     1 RMS=3.90D-05 Max=1.01D-03 NDo=     1
 LinEq1:  Iter=  8 NonCon=     1 RMS=1.65D-05 Max=5.09D-04 NDo=     1
 LinEq1:  Iter=  9 NonCon=     1 RMS=9.34D-06 Max=2.89D-04 NDo=     1
 LinEq1:  Iter= 10 NonCon=     1 RMS=3.58D-06 Max=1.03D-04 NDo=     1
 LinEq1:  Iter= 11 NonCon=     1 RMS=2.06D-06 Max=1.01D-04 NDo=     1
 LinEq1:  Iter= 12 NonCon=     1 RMS=9.60D-07 Max=2.75D-05 NDo=     1
 LinEq1:  Iter= 13 NonCon=     1 RMS=3.87D-07 Max=1.09D-05 NDo=     1
 LinEq1:  Iter= 14 NonCon=     1 RMS=1.66D-07 Max=4.57D-06 NDo=     1
 LinEq1:  Iter= 15 NonCon=     1 RMS=8.33D-08 Max=2.76D-06 NDo=     1
 LinEq1:  Iter= 16 NonCon=     1 RMS=3.50D-08 Max=1.13D-06 NDo=     1
 LinEq1:  Iter= 17 NonCon=     1 RMS=1.66D-08 Max=6.11D-07 NDo=     1
 LinEq1:  Iter= 18 NonCon=     1 RMS=6.26D-09 Max=1.70D-07 NDo=     1
 LinEq1:  Iter= 19 NonCon=     1 RMS=3.24D-09 Max=9.52D-08 NDo=     1
 LinEq1:  Iter= 20 NonCon=     1 RMS=1.45D-09 Max=4.80D-08 NDo=     1
 LinEq1:  Iter= 21 NonCon=     1 RMS=3.61D-10 Max=8.71D-09 NDo=     1
 LinEq1:  Iter= 22 NonCon=     1 RMS=1.34D-10 Max=2.64D-09 NDo=     1
 LinEq1:  Iter= 23 NonCon=     1 RMS=6.09D-11 Max=1.15D-09 NDo=     1
 LinEq1:  Iter= 24 NonCon=     0 RMS=2.11D-11 Max=8.26D-10 NDo=     1
 Linear equations converged to 1.000D-10 1.000D-09 after    24 iterations.
 End of Minotr F.D. properties file   721 does not exist.
 End of Minotr F.D. properties file   722 does not exist.
 End of Minotr F.D. properties file   788 does not exist.
 Leave Link 1002 at Tue Jul 14 10:30:40 2020, MaxMem=  7784628224 cpu:             730.6 elap:              97.8
 (Enter /gpfs/loomis/apps/avx/software/Gaussian/16-C.01_AVX/g16/l601.exe)
 Copying SCF densities to generalized density rwf, IOpCl= 0 IROHF=0.

 **********************************************************************

            Population analysis using the SCF Density.

 **********************************************************************

 Alpha  occ. eigenvalues --  -89.09444 -19.24815 -14.49617 -10.40473 -10.37207
 Alpha  occ. eigenvalues --  -10.36686 -10.35367 -10.32746 -10.32477 -10.32139
 Alpha  occ. eigenvalues --  -10.32057 -10.31959 -10.31795 -10.31388 -10.30099
 Alpha  occ. eigenvalues --  -10.29860  -8.11545  -6.06386  -6.06039  -6.05593
 Alpha  occ. eigenvalues --   -1.13696  -1.09415  -0.97151  -0.95683  -0.92756
 Alpha  occ. eigenvalues --   -0.88845  -0.85737  -0.83660  -0.82208  -0.75788
 Alpha  occ. eigenvalues --   -0.71523  -0.71028  -0.68600  -0.67605  -0.63650
 Alpha  occ. eigenvalues --   -0.60820  -0.59224  -0.57857  -0.55417  -0.54681
 Alpha  occ. eigenvalues --   -0.54280  -0.53516  -0.52857  -0.50708  -0.49740
 Alpha  occ. eigenvalues --   -0.49524  -0.47018  -0.46383  -0.45608  -0.44944
 Alpha  occ. eigenvalues --   -0.44298  -0.43006  -0.42187  -0.40639  -0.36532
 Alpha  occ. eigenvalues --   -0.35247  -0.32625  -0.31236  -0.27529
 Alpha virt. eigenvalues --   -0.01833   0.04409   0.06274   0.07274   0.07957
 Alpha virt. eigenvalues --    0.10636   0.14562   0.14907   0.16840   0.17754
 Alpha virt. eigenvalues --    0.18630   0.20742   0.21310   0.21807   0.22493
 Alpha virt. eigenvalues --    0.23360   0.23888   0.24689   0.27743   0.29116
 Alpha virt. eigenvalues --    0.32242   0.33278   0.35013   0.35427   0.36785
 Alpha virt. eigenvalues --    0.38137   0.39165   0.40509   0.41787   0.42954
 Alpha virt. eigenvalues --    0.47182   0.47426   0.50693   0.51175   0.51426
 Alpha virt. eigenvalues --    0.52122   0.53164   0.53650   0.53831   0.55108
 Alpha virt. eigenvalues --    0.56169   0.56355   0.56680   0.57167   0.58183
 Alpha virt. eigenvalues --    0.58209   0.58375   0.58675   0.59275   0.60301
 Alpha virt. eigenvalues --    0.60759   0.61010   0.61912   0.62883   0.62907
 Alpha virt. eigenvalues --    0.65390   0.65477   0.66729   0.67123   0.68929
 Alpha virt. eigenvalues --    0.70398   0.70913   0.72058   0.72232   0.72859
 Alpha virt. eigenvalues --    0.72928   0.74686   0.75046   0.75853   0.78156
 Alpha virt. eigenvalues --    0.78736   0.79099   0.80104   0.81040   0.82311
 Alpha virt. eigenvalues --    0.84411   0.87984   0.90521   0.90830   0.93453
 Alpha virt. eigenvalues --    0.94729   0.94745   0.96023   0.96450   0.97120
 Alpha virt. eigenvalues --    0.98280   0.98466   1.00344   1.00614   1.01632
 Alpha virt. eigenvalues --    1.02443   1.05584   1.06440   1.06521   1.07364
 Alpha virt. eigenvalues --    1.07936   1.09687   1.09839   1.10410   1.11262
 Alpha virt. eigenvalues --    1.12086   1.12797   1.14344   1.14597   1.15285
 Alpha virt. eigenvalues --    1.15803   1.19800   1.20113   1.22134   1.22732
 Alpha virt. eigenvalues --    1.25510   1.29016   1.32901   1.33535   1.34461
 Alpha virt. eigenvalues --    1.36359   1.36947   1.38923   1.40550   1.47550
 Alpha virt. eigenvalues --    1.48951   1.50153   1.51072   1.53719   1.54668
 Alpha virt. eigenvalues --    1.56469   1.56681   1.56823   1.58214   1.58569
 Alpha virt. eigenvalues --    1.59162   1.60764   1.63841   1.66296   1.66366
 Alpha virt. eigenvalues --    1.68439   1.68722   1.69799   1.70029   1.70571
 Alpha virt. eigenvalues --    1.71840   1.72384   1.73371   1.73448   1.75877
 Alpha virt. eigenvalues --    1.76682   1.79531   1.80008   1.81367   1.82417
 Alpha virt. eigenvalues --    1.82764   1.83834   1.84181   1.84444   1.85046
 Alpha virt. eigenvalues --    1.86685   1.87378   1.88167   1.89345   1.91958
 Alpha virt. eigenvalues --    1.92160   1.92466   1.93501   1.94986   1.96433
 Alpha virt. eigenvalues --    1.97649   1.99642   1.99790   2.02713   2.03382
 Alpha virt. eigenvalues --    2.04722   2.07550   2.09108   2.10700   2.13502
 Alpha virt. eigenvalues --    2.16318   2.16902   2.17680   2.20268   2.23554
 Alpha virt. eigenvalues --    2.25646   2.26086   2.30789   2.37062   2.40699
 Alpha virt. eigenvalues --    2.40743   2.41891   2.42876   2.44916   2.46378
 Alpha virt. eigenvalues --    2.47545   2.49504   2.51001   2.52943   2.61374
 Alpha virt. eigenvalues --    2.62210   2.71615   2.73068   2.74943   2.78567
 Alpha virt. eigenvalues --    2.80640   2.83480   2.84784   2.89032   2.90095
 Alpha virt. eigenvalues --    2.91420   3.01995   3.10674   3.16528   3.37557
 Alpha virt. eigenvalues --    3.44912   3.54882   3.64303   3.83752
          Condensed to atoms (all electrons):
               1          2          3          4          5          6
     1  C    4.737236   0.483645   0.005825  -0.051738  -0.015677   0.518111
     2  C    0.483645   5.292128   0.341325  -0.038312  -0.066996  -0.009137
     3  C    0.005825   0.341325   4.816476   0.493522  -0.004535  -0.061937
     4  C   -0.051738  -0.038312   0.493522   4.782461   0.521056  -0.011993
     5  C   -0.015677  -0.066996  -0.004535   0.521056   4.735333   0.494412
     6  C    0.518111  -0.009137  -0.061937  -0.011993   0.494412   4.738621
     7  H    0.401895  -0.037277   0.008480  -0.000597   0.007917  -0.039398
     8  H   -0.000670   0.010949  -0.033477   0.395611  -0.041328   0.007553
     9  H    0.008929  -0.000681   0.008466  -0.038267   0.404624  -0.044986
    10  H   -0.042345   0.009282  -0.000457   0.008201  -0.042222   0.406553
    11  N    0.005618  -0.052008   0.406067  -0.039620   0.002960   0.000026
    12  S   -0.071079   0.331340  -0.108925   0.006271   0.000296   0.004055
    13  C   -0.000211   0.002378   0.008004  -0.000505   0.000008   0.000004
    14  C   -0.000011   0.000179   0.000298   0.000006  -0.000000  -0.000000
    15  C    0.000005  -0.000352   0.000508   0.000034  -0.000000  -0.000000
    16  C    0.000000  -0.000007   0.000005  -0.000000   0.000000  -0.000000
    17  H   -0.000012   0.000216  -0.000003   0.000001   0.000000   0.000000
    18  C    0.000000   0.000007  -0.000012  -0.000000   0.000000  -0.000000
    19  C   -0.000000   0.000000   0.000001   0.000000  -0.000000   0.000000
    20  H   -0.000000  -0.000000  -0.000000   0.000000  -0.000000  -0.000000
    21  H   -0.000000  -0.000000   0.000000  -0.000000  -0.000000   0.000000
    22  H    0.000000  -0.000000  -0.000000  -0.000000   0.000000  -0.000000
    23  C    0.003929  -0.048290  -0.119044   0.000106   0.000263  -0.000187
    24  O    0.000002  -0.000089  -0.001396  -0.000038   0.000000  -0.000000
    25  H   -0.000005   0.004481  -0.015950  -0.001073  -0.000035   0.000007
               7          8          9         10         11         12
     1  C    0.401895  -0.000670   0.008929  -0.042345   0.005618  -0.071079
     2  C   -0.037277   0.010949  -0.000681   0.009282  -0.052008   0.331340
     3  C    0.008480  -0.033477   0.008466  -0.000457   0.406067  -0.108925
     4  C   -0.000597   0.395611  -0.038267   0.008201  -0.039620   0.006271
     5  C    0.007917  -0.041328   0.404624  -0.042222   0.002960   0.000296
     6  C   -0.039398   0.007553  -0.044986   0.406553   0.000026   0.004055
     7  H    0.653714   0.000031  -0.000155  -0.010950  -0.000089  -0.007812
     8  H    0.000031   0.647894  -0.012383  -0.000106  -0.002303  -0.000203
     9  H   -0.000155  -0.012383   0.661145  -0.011980  -0.000092   0.000020
    10  H   -0.010950  -0.000106  -0.011980   0.658731   0.000002  -0.000167
    11  N   -0.000089  -0.002303  -0.000092   0.000002   6.433638  -0.062223
    12  S   -0.007812  -0.000203   0.000020  -0.000167  -0.062223  15.464300
    13  C   -0.000001   0.000030  -0.000000  -0.000000  -0.021795  -0.063799
    14  C    0.000001   0.000001   0.000000  -0.000000   0.003413  -0.012772
    15  C   -0.000000  -0.000009   0.000000   0.000000  -0.012571   0.005070
    16  C    0.000000   0.000000  -0.000000  -0.000000  -0.000073   0.000372
    17  H    0.000001   0.000000  -0.000000  -0.000000   0.000227   0.008985
    18  C    0.000000  -0.000000   0.000000  -0.000000  -0.000586  -0.000217
    19  C    0.000000   0.000000  -0.000000  -0.000000   0.000037   0.000028
    20  H    0.000000   0.000000   0.000000   0.000000   0.000001   0.000013
    21  H   -0.000000   0.000000  -0.000000   0.000000   0.000015   0.000005
    22  H    0.000000  -0.000000   0.000000  -0.000000  -0.000000  -0.000001
    23  C    0.000181  -0.000744   0.000006   0.000005   0.526675   0.320199
    24  O   -0.000000  -0.000127   0.000000  -0.000000  -0.074564  -0.000245
    25  H    0.000002   0.000837  -0.000004  -0.000000   0.202650   0.003360
              13         14         15         16         17         18
     1  C   -0.000211  -0.000011   0.000005   0.000000  -0.000012   0.000000
     2  C    0.002378   0.000179  -0.000352  -0.000007   0.000216   0.000007
     3  C    0.008004   0.000298   0.000508   0.000005  -0.000003  -0.000012
     4  C   -0.000505   0.000006   0.000034  -0.000000   0.000001  -0.000000
     5  C    0.000008  -0.000000  -0.000000   0.000000   0.000000   0.000000
     6  C    0.000004  -0.000000  -0.000000  -0.000000   0.000000  -0.000000
     7  H   -0.000001   0.000001  -0.000000   0.000000   0.000001   0.000000
     8  H    0.000030   0.000001  -0.000009   0.000000   0.000000  -0.000000
     9  H   -0.000000   0.000000   0.000000  -0.000000  -0.000000   0.000000
    10  H   -0.000000  -0.000000   0.000000  -0.000000  -0.000000  -0.000000
    11  N   -0.021795   0.003413  -0.012571  -0.000073   0.000227  -0.000586
    12  S   -0.063799  -0.012772   0.005070   0.000372   0.008985  -0.000217
    13  C    5.339281   0.456676   0.249860  -0.009117  -0.036479  -0.041339
    14  C    0.456676   4.842141  -0.000043   0.534587   0.397209  -0.055982
    15  C    0.249860  -0.000043   4.747755  -0.055249   0.006218   0.484458
    16  C   -0.009117   0.534587  -0.055249   4.745536  -0.031402  -0.019874
    17  H   -0.036479   0.397209   0.006218  -0.031402   0.660711  -0.000652
    18  C   -0.041339  -0.055982   0.484458  -0.019874  -0.000652   4.845962
    19  C   -0.053442  -0.020518  -0.007860   0.489978   0.007817   0.513363
    20  H    0.008824  -0.035584  -0.000169   0.400755  -0.011755   0.008032
    21  H    0.013806  -0.000588  -0.024596   0.007265   0.000045   0.376721
    22  H   -0.001453   0.009674   0.008742  -0.044396  -0.000177  -0.041189
    23  C    0.358812  -0.088062  -0.078168   0.006262  -0.022373   0.008304
    24  O   -0.091216   0.005416   0.567438  -0.000081  -0.000063  -0.058041
    25  H   -0.022189  -0.000746  -0.023702   0.000017  -0.000042   0.003286
              19         20         21         22         23         24
     1  C   -0.000000  -0.000000  -0.000000   0.000000   0.003929   0.000002
     2  C    0.000000  -0.000000  -0.000000  -0.000000  -0.048290  -0.000089
     3  C    0.000001  -0.000000   0.000000  -0.000000  -0.119044  -0.001396
     4  C    0.000000   0.000000  -0.000000  -0.000000   0.000106  -0.000038
     5  C   -0.000000  -0.000000  -0.000000   0.000000   0.000263   0.000000
     6  C    0.000000  -0.000000   0.000000  -0.000000  -0.000187  -0.000000
     7  H    0.000000   0.000000  -0.000000   0.000000   0.000181  -0.000000
     8  H    0.000000   0.000000   0.000000  -0.000000  -0.000744  -0.000127
     9  H   -0.000000   0.000000  -0.000000   0.000000   0.000006   0.000000
    10  H   -0.000000   0.000000   0.000000  -0.000000   0.000005  -0.000000
    11  N    0.000037   0.000001   0.000015  -0.000000   0.526675  -0.074564
    12  S    0.000028   0.000013   0.000005  -0.000001   0.320199  -0.000245
    13  C   -0.053442   0.008824   0.013806  -0.001453   0.358812  -0.091216
    14  C   -0.020518  -0.035584  -0.000588   0.009674  -0.088062   0.005416
    15  C   -0.007860  -0.000169  -0.024596   0.008742  -0.078168   0.567438
    16  C    0.489978   0.400755   0.007265  -0.044396   0.006262  -0.000081
    17  H    0.007817  -0.011755   0.000045  -0.000177  -0.022373  -0.000063
    18  C    0.513363   0.008032   0.376721  -0.041189   0.008304  -0.058041
    19  C    4.727444  -0.045994  -0.044977   0.404743   0.000753   0.003172
    20  H   -0.045994   0.679618  -0.000139  -0.012009  -0.000389   0.000002
    21  H   -0.044977  -0.000139   0.666854  -0.012180  -0.000438   0.003427
    22  H    0.404743  -0.012009  -0.012180   0.665956  -0.000003  -0.000060
    23  C    0.000753  -0.000389  -0.000438  -0.000003   5.063745  -0.005591
    24  O    0.003172   0.000002   0.003427  -0.000060  -0.005591   7.785526
    25  H   -0.000252  -0.000001  -0.000002   0.000008  -0.003404   0.223324
              25
     1  C   -0.000005
     2  C    0.004481
     3  C   -0.015950
     4  C   -0.001073
     5  C   -0.000035
     6  C    0.000007
     7  H    0.000002
     8  H    0.000837
     9  H   -0.000004
    10  H   -0.000000
    11  N    0.202650
    12  S    0.003360
    13  C   -0.022189
    14  C   -0.000746
    15  C   -0.023702
    16  C    0.000017
[...]
 14086151,-0.00000063,0.00896518,0.00094668,0.00000004,0.73499753,0.000
 69410,-0.00337875,-0.00000003,-0.01227339,-0.00384670,-0.00000021,-0.0
 1114316,0.01987557,0.00000024,0.01114278,-0.00335339,0.00000009,0.0006
 5788,0.00915445,0.00000003,-0.00473933,-0.00352936,-0.00000004,0.00009
 194,0.00017430,0.00000001,-0.00017108,-0.00016886,0.,-0.00012842,0.000
 15043,-0.00000001,-0.00009994,-0.00000243,0.,0.01455263,-0.02180387,-0
 .00000040,0.00307035,-0.00519563,0.00000030,0.05077265,0.03017994,-0.0
 0000042,0.05385687,-0.23069135,0.00000154,0.00786134,-0.00537800,0.000
 00080,0.02258568,0.62693411,0.00000003,0.,-0.00003004,0.00000006,0.000
 00011,0.00001103,0.00000018,-0.00000026,-0.00019865,-0.00000013,0.0000
 0005,-0.00025873,0.,-0.00000009,-0.00001711,0.00000001,0.00000005,0.00
 000478,0.,0.,-0.00002380,0.,0.,-0.00003118,0.,0.,0.00001765,0.,0.,0.00
 004688,-0.00000018,0.00000009,0.00234676,-0.00000004,0.00000007,-0.000
 19033,0.00000066,-0.00000058,0.00275180,-0.00000061,0.00000163,-0.0515
 1871,-0.00000021,0.00000006,-0.00458136,-0.00000365,-0.00000727,0.1299
 9796,0.00025736,-0.00007079,0.,-0.00077728,0.00030545,-0.00000006,0.00
 032799,-0.00007600,0.00000001,0.00002147,0.00010882,0.,0.00007881,0.00
 001856,0.,-0.00006527,-0.00006885,0.,-0.00001692,-0.00000372,0.,0.0000
 3066,-0.00000047,0.,0.00000861,-0.00000240,0.,0.00002970,-0.00001058,0
 .,0.00039993,0.00069493,-0.00000005,-0.00323810,0.00311318,0.00000039,
 -0.00336245,-0.02888953,0.00000038,-0.08241864,-0.07995783,0.00000182,
 -0.00483612,0.00275391,0.00000032,0.01020725,0.02206483,-0.00000030,0.
 08620160,0.00017050,-0.00002643,0.,-0.00039021,0.00062098,-0.00000005,
 0.00037388,0.00012496,0.00000003,0.00011773,0.00008845,0.00000001,0.00
 003890,0.00018872,0.,-0.00019085,-0.00013506,0.,-0.00002433,0.00001362
 ,0.,0.00003335,-0.00001016,0.,-0.00000069,0.00000289,0.,0.00001468,0.0
 0000061,0.,0.00012727,0.00058328,-0.00000003,0.00268226,-0.00226027,-0
 .00000025,0.00159459,-0.00403655,0.,-0.07955937,-0.32080397,0.00000505
 ,0.00033087,0.00214221,0.00000018,-0.00962651,-0.01729132,0.00000033,0
 .08089150,0.34181850,-0.00000006,0.00000003,-0.00004820,0.00000005,-0.
 00000013,-0.00055135,-0.00000007,0.00000012,0.00027352,0.00000003,-0.0
 0000002,0.00013251,0.,0.,-0.00000630,0.00000004,0.,0.00002830,0.,0.,0.
 00000525,0.,0.,0.00001044,0.,0.,-0.00000188,0.,0.,-0.00000187,0.000000
 08,-0.00000003,-0.00188838,0.00000026,-0.00000024,0.00139446,-0.000000
 52,0.00000056,0.00393130,0.00000228,0.00000512,-0.03135974,0.00000018,
 -0.00000018,0.00762488,-0.00000007,0.00000014,0.00269933,-0.00000229,-
 0.00000524,0.01961818,-0.00109014,0.00036370,0.00000003,-0.00448992,-0
 .00301066,-0.00000007,-0.00514354,0.01320596,0.00000020,0.00597768,-0.
 00173798,0.00000002,-0.00006854,0.00298017,0.,0.00037333,-0.00170468,0
 .,-0.00008250,0.00012047,0.,0.00003536,-0.00005362,0.,0.00007247,0.000
 01920,0.,0.00005346,-0.00004733,0.,0.01280817,0.00012066,0.00000046,-0
 .00054469,-0.00348842,0.,0.01653885,0.02399227,-0.00000034,-0.02777292
 ,0.02114920,0.00000002,-0.17382606,0.08253228,-0.00000002,-0.00635115,
 -0.06575209,0.00000060,-0.00054631,-0.00020450,0.00000007,0.68704385,0
 .00046054,-0.00018314,0.,-0.00137185,-0.00097450,0.,0.00004852,0.00153
 762,0.00000008,0.00001391,0.00005127,0.00000002,0.00019705,0.00022112,
 0.,-0.00034858,-0.00027834,0.,-0.00001247,0.00004674,0.,-0.00003257,-0
 .00000920,0.,-0.00000019,-0.00000773,0.,0.00002659,-0.00000409,0.,0.00
 370913,0.00040879,-0.00000020,0.00131170,-0.00294938,-0.00000013,0.023
 23450,-0.03455509,0.00000033,-0.00183231,0.00168065,-0.00000024,0.1020
 1954,-0.24042656,0.00000099,-0.03233424,-0.01657355,0.00000040,-0.0002
 8220,0.00055706,-0.00000011,0.04000162,0.72311340,0.00000004,-0.000000
 04,0.00007074,-0.00000016,0.,0.00068401,0.,0.00000014,0.00195756,0.000
 00009,-0.00000004,-0.00025177,0.00000002,0.00000010,-0.00009389,-0.000
 00007,-0.00000002,-0.00011086,0.,0.,0.00012920,0.,0.,0.00009219,0.,0.,
 0.00001419,0.,0.,-0.00004587,0.00000011,0.00000014,-0.00594705,0.,-0.0
 0000016,0.00083139,0.00000012,-0.00000020,0.01252473,-0.00000052,0.000
 00004,-0.00299991,-0.00000053,0.00000119,-0.06448171,0.00000049,0.0000
 0005,0.00519564,-0.00000004,-0.00000003,-0.00104976,0.00000129,-0.0000
 0353,0.10989197,0.00074593,0.00096498,0.,0.00825821,0.00451521,0.00000
 017,0.00976424,-0.01952492,-0.00000030,-0.00923407,0.00283337,-0.00000
 005,-0.00013895,-0.00603239,-0.00000001,0.00149465,0.00305737,0.000000
 02,0.00002355,-0.00011508,0.,0.00006798,0.00009890,0.,-0.00004330,-0.0
 0004869,0.,-0.00000192,0.00004765,0.,-0.01960535,0.01371243,-0.0000000
 3,0.00073177,0.00420669,-0.00000024,-0.01510335,-0.01982375,0.00000009
 ,0.05740053,0.00336612,-0.00000051,-0.05048374,0.01758797,-0.00000090,
 -0.13925204,-0.00476183,0.00000077,-0.00307480,0.00460356,-0.00000005,
 -0.33930123,-0.07707934,0.00000023,0.69565744,0.00026811,0.00069697,0.
 ,0.00206864,0.00093496,0.,0.00362791,-0.00404803,0.,-0.00309584,0.0010
 0225,-0.00000002,-0.00005828,-0.00216966,-0.00000001,0.00083306,0.0004
 9285,0.00000001,-0.00003451,-0.00001581,0.,0.00003719,0.00001144,0.,0.
 00003144,-0.00004855,0.,0.00003165,0.00001628,0.,-0.00085863,0.0084201
 5,0.00000008,-0.00167907,0.00054967,0.00000001,-0.01992227,-0.01721963
 ,0.00000055,0.04567357,-0.05807087,0.00000084,0.00950770,0.02753048,-0
 .00000065,-0.08517390,-0.29824067,0.00000399,0.00333508,-0.00045966,-0
 .00000007,-0.03334415,-0.12992727,0.00000037,-0.04776282,0.68400777,-0
 .00000002,-0.00000001,0.00016965,-0.00000002,-0.00000003,-0.00048452,-
 0.00000006,0.00000007,-0.00105789,0.00000006,-0.00000001,0.00008320,0.
 ,0.00000004,0.00008951,-0.00000001,0.,0.00000891,0.,0.,-0.00004607,0.,
 0.,-0.00011432,0.,0.,0.00000326,0.,0.,0.00000721,-0.00000013,-0.000000
 28,0.00148413,0.00000012,0.,0.00065852,0.00000026,0.00000010,-0.002308
 94,-0.00000066,0.00000092,0.00919772,-0.00000033,0.00000005,0.00232599
 ,0.00000137,0.00000343,-0.05961594,-0.00000004,0.00000017,0.00444564,0
 .00000008,0.00000040,-0.04948806,0.00000092,-0.00000750,0.11266093,0.0
 0005238,-0.00010092,0.,-0.00009644,0.00011901,0.,-0.00000626,-0.000100
 36,0.00000001,0.00000695,0.00002895,0.,0.00001303,0.00008900,0.,-0.000
 14178,0.00000606,0.,0.00000675,0.00000623,0.,-0.00000511,-0.00000529,0
 .,-0.00001156,0.00000765,0.,-0.00000901,0.00000585,0.,-0.00019937,0.00
 045250,0.00000003,0.00007573,-0.00005967,-0.00000001,-0.00035369,0.003
 64340,-0.00000004,-0.01516536,-0.00896189,0.00000031,0.00050074,0.0003
 3103,-0.00000002,-0.32980440,-0.06937385,0.00000254,0.00078359,0.00007
 172,0.,0.00163536,-0.00117133,0.00000007,-0.00357531,0.00188926,0.0000
 0001,0.34664619,0.00001626,-0.00001775,0.,-0.00010871,-0.00009905,0.,0
 .00000630,0.00026653,0.00000001,0.00008633,-0.00007017,0.,0.00001870,0
 .00007655,0.,-0.00003538,-0.00003865,0.,0.00000093,-0.00000013,0.,-0.0
 0000187,-0.00000079,0.,0.00000088,-0.00000267,0.,0.00000085,-0.0000007
 6,0.,0.00039770,-0.00036725,-0.00000004,0.00003690,-0.00000145,0.,0.00
 374085,-0.00342212,0.00000007,0.02165591,0.00932672,-0.00000017,0.0006
 4830,-0.00101249,0.,-0.06982410,-0.07716641,0.00000110,-0.00017541,0.0
 0083275,-0.00000004,-0.00041604,-0.00540710,0.00000016,-0.02920160,-0.
 00126161,0.00000021,0.07407131,0.07624937,0.,0.00000001,-0.00003294,0.
 00000008,0.00000004,0.00005773,0.00000005,-0.00000015,0.00045409,-0.00
 000007,0.00000002,0.00012508,0.,-0.00000005,-0.00006325,0.00000002,0.0
 0000002,0.00001476,0.,0.,0.00000816,0.,0.,0.00003431,0.,0.,-0.00002757
 ,0.,0.,-0.00000053,-0.00000011,0.00000015,-0.00044606,-0.00000004,0.00
 000004,-0.00018124,-0.00000013,0.00000016,0.00570425,0.00000014,-0.000
 00033,0.00681839,0.,0.00000002,-0.00126932,0.00000250,0.00000151,-0.03
 800978,-0.00000003,-0.00000010,-0.00315401,0.00000003,0.00000024,0.005
 41017,0.00000039,-0.00000018,0.00635303,-0.00000283,-0.00000121,0.0228
 4486,-0.00011043,0.00003450,0.,0.00011336,0.00004807,0.,-0.00016236,0.
 00006509,0.,0.00004921,-0.00001025,0.,-0.00001967,-0.00001371,0.,0.000
 06754,0.00000641,0.,0.00000121,-0.00000653,0.,-0.00000329,0.00000148,0
 .,0.00000232,-0.00000078,0.,-0.00000339,-0.00000112,0.,0.00034989,-0.0
 0052557,0.,-0.00030283,0.00019913,0.00000001,-0.00424469,0.00307097,-0
 .00000003,0.00018628,0.00015626,0.,0.00907155,0.02242382,-0.00000008,-
 0.00572991,0.00019989,-0.00000005,0.00012889,-0.00007182,0.,-0.0791377
 0,-0.07839642,0.00000011,-0.00152535,-0.02873304,0.00000017,-0.0002805
 5,-0.00141817,0.00000004,0.07749050,0.00006190,0.00003382,0.,-0.000117
 39,-0.00006159,-0.00000001,0.00008303,0.00004960,0.,0.00000031,-0.0000
 0859,0.,-0.00000284,-0.00002852,0.,0.00003456,-0.00002403,0.,-0.000004
 98,0.00000280,0.,0.00000818,0.00000219,0.,0.00000741,-0.00000260,0.,0.
 00000898,-0.00000342,0.,-0.00023190,0.00028480,0.,0.00021375,-0.000163
 22,0.,0.00387766,-0.00115712,0.00000002,0.00008217,0.00030070,-0.00000
 001,-0.01096025,-0.01674462,0.,-0.00080276,0.00123071,0.,-0.00006272,-
 0.00009319,0.,-0.07673015,-0.32713712,0.00000151,0.00211521,-0.0017064
 8,0.,0.00006109,-0.00019654,0.,0.08358066,0.34326966,-0.00000002,0.000
 00001,-0.00031568,0.00000002,0.,-0.00016921,-0.00000001,0.00000003,0.0
 0015418,0.,0.,0.00000660,0.,-0.00000001,-0.00004362,0.00000002,0.,0.00
 005814,0.,0.,-0.00002002,0.,0.,0.00003922,0.,0.,-0.00000454,0.,0.,0.00
 005776,0.00000015,0.00000003,0.00033950,-0.00000008,-0.00000003,-0.000
 40507,0.00000004,-0.00000010,0.00378860,-0.00000006,0.00000007,-0.0004
 3577,0.00000020,0.00000013,0.00316964,0.,-0.00000009,0.00647591,0.,-0.
 00000003,-0.00036056,-0.00000020,0.00000138,-0.03197751,0.00000030,0.0
 0000023,0.00405622,0.,-0.00000002,-0.00046026,-0.00000025,-0.00000151,
 0.02191742,0.00005681,-0.00006551,0.,-0.00016317,0.00006838,0.,0.00011
 346,0.00014603,0.,0.00005875,-0.00001220,0.,0.00001926,0.00011017,0.,-
 0.00011420,-0.00003730,0.,0.00000080,0.00000729,0.,-0.00000173,-0.0000
 0647,0.,-0.00000766,0.00000404,0.,-0.00000450,0.00000408,0.,0.00021526
 ,0.00061152,0.00000002,-0.00002751,0.00002138,0.,0.00025435,-0.0007570
 2,0.,-0.00019320,-0.00218321,0.00000005,-0.00295684,-0.00354017,0.,0.0
 0911008,-0.00924585,0.00000011,0.00031830,-0.00037717,0.,-0.01503923,0
 .02315157,-0.00000026,-0.20310102,0.14631428,-0.00000192,0.00069557,0.
 00028291,0.,0.00105640,-0.00019676,0.00000002,0.21191232,-0.00000734,0
 .00011711,0.,0.00034531,0.00019726,0.,0.00039543,-0.00071870,-0.000000
 01,-0.00035552,0.00012111,0.,-0.00001954,-0.00031208,0.,0.00017267,0.0
 0011864,0.,-0.00000796,-0.00000686,0.,0.00001233,0.00000761,0.,0.00000
 783,-0.00000554,0.,0.00000871,-0.00000314,0.,-0.00068598,0.00053626,0.
 00000001,-0.00010166,0.00020026,0.,-0.00123416,0.00016934,-0.00000003,
 -0.00229255,-0.00445741,0.00000016,-0.00241251,-0.00053519,0.00000008,
 0.02321613,-0.01478398,0.00000018,0.00108801,-0.00096032,0.,-0.0083631
 5,0.00911922,-0.00000004,0.14519577,-0.20294721,0.00000225,-0.00014564
 ,0.00099123,-0.00000006,0.00029972,0.00066983,-0.00000006,-0.15509660,
 0.21216590,0.,0.,0.00002874,0.00000002,0.,0.00006760,0.,-0.00000001,-0
 .00010842,0.,0.,0.00001933,0.,0.,0.00000960,0.,0.,-0.00000040,0.,0.,-0
 .00000305,0.,0.,0.00001253,0.,0.,0.00000049,0.,0.,-0.00001801,-0.00000
 002,0.,0.00036865,0.,0.00000004,-0.00026240,0.,-0.00000006,-0.00146509
 ,0.00000017,0.00000021,0.00462599,0.,0.00000001,0.00676996,-0.00000033
 ,0.00000029,0.00246626,0.,0.,0.00100405,0.00000002,-0.00000010,0.00380
 357,-0.00000190,0.00000223,-0.03169315,-0.00000004,-0.00000006,-0.0032
 9429,0.00000002,-0.00000002,-0.00387493,0.00000202,-0.00000250,0.02215
 989,-0.00381716,-0.00719860,-0.00000012,-0.01488506,0.01774625,0.00000
 026,-0.07978522,0.05306130,0.00000078,0.01569172,-0.00547668,0.0000001
 6,-0.00021904,0.01182329,0.00000005,-0.00830190,-0.00348752,-0.0000001
 2,0.00033395,-0.00052448,0.00000002,-0.00065104,-0.00018225,0.,-0.0000
 5015,0.00011893,0.,-0.00069408,-0.00001082,0.,-0.33103168,-0.05865500,
 -0.00000143,-0.04644595,-0.05137490,-0.00000109,-0.22043352,0.12285999
 ,0.00000535,-0.04586557,0.03489611,0.00000110,0.02443710,0.01421640,0.
 00000047,-0.00101085,-0.01345016,0.00000028,0.00022017,0.00002713,0.00
 000003,-0.00365277,-0.01032083,-0.00000020,0.00434559,0.00035322,0.000
 00007,-0.00075218,0.00052130,0.00000002,0.00095371,-0.00086594,-0.0000
 0009,-0.00029762,0.00036753,0.00000002,0.72103592,-0.00172088,0.003737
 32,-0.00000006,0.03780982,-0.02607401,-0.00000013,0.02808176,-0.000942
 79,0.00000013,-0.00204653,-0.00632919,-0.00000010,-0.00118234,-0.00458
 802,-0.00000005,0.00482011,0.00050455,0.00000002,-0.00018590,-0.000644
 00,0.,-0.00024783,0.00028412,0.00000002,0.00040628,-0.00058836,0.00000
 001,-0.00007834,-0.00000404,0.,-0.05429059,-0.10415579,-0.00000151,-0.
 02721472,-0.16397104,-0.00000337,0.10577769,-0.21652401,-0.00000544,0.
 01770689,0.01384000,-0.00000004,0.02740471,-0.04948902,-0.00000174,-0.
 00551301,-0.00018579,0.00000028,-0.00188234,0.00017977,-0.00000008,-0.
 01514365,0.00080126,0.00000017,0.00653255,0.00435844,-0.00000003,-0.00
 077321,0.00113145,-0.00000010,0.00050110,-0.00050607,0.00000002,0.0002
 4099,0.00009931,-0.00000002,-0.09723274,0.56355767,-0.00000003,-0.0000
 0005,0.00167591,0.00000035,-0.00000002,-0.00063291,-0.00000004,0.00000
 014,0.00577688,0.00000007,-0.00000012,0.00346866,-0.00000002,-0.000000
 08,0.00102612,0.00000004,0.00000003,0.00095874,0.,-0.00000001,-0.00052
 608,0.,0.,-0.00062644,0.00000001,0.,-0.00061675,0.,0.,-0.00026348,0.00
 000066,-0.00000138,-0.03600255,-0.00000053,-0.00000419,-0.01922640,0.0
 0000404,-0.00000436,-0.03796686,0.00000088,-0.00000049,0.00963845,0.00
 000068,-0.00000145,0.00656025,0.00000013,-0.00000023,0.00261334,-0.000
 00004,-0.00000005,-0.00144139,-0.00000103,0.00000025,-0.00001119,0.000
 00105,0.00000007,-0.00101583,-0.00000004,-0.00000002,-0.00097503,0.,0.
 00000004,0.00173572,0.,0.00000004,0.00011888,-0.00000545,0.00001225,0.
 06397020,0.00054891,0.00199460,0.,0.00230955,0.00603780,0.,0.01579428,
 -0.00566893,0.00000012,-0.00286340,0.00103561,-0.00000003,-0.00067247,
 -0.00325927,-0.00000003,0.00225733,0.00145957,0.00000003,-0.00024109,0
 .00027424,0.,0.00025854,-0.00003072,0.,-0.00003330,0.00007680,0.,0.000
 03354,0.00005395,0.,-0.01239036,0.06278277,0.00000187,0.00017506,0.005
 38918,0.00000003,-0.04853563,-0.02656015,-0.00000049,0.02141118,-0.008
 38306,-0.00000004,-0.41679949,-0.08546665,-0.00000402,-0.01314058,0.01
 042607,-0.00000013,-0.00121427,-0.00107364,0.00000007,-0.06929636,0.01
 059598,-0.00000081,0.00321901,0.00265186,0.00000022,-0.00010827,-0.000
 33081,-0.00000007,0.00232880,-0.00028862,-0.00000009,-0.00217256,-0.00
 047065,0.00000004,-0.00713379,-0.00257514,-0.00000017,0.53113419,-0.00
 116491,-0.00123245,-0.00000003,-0.00045393,-0.00635307,-0.00000006,-0.
 01793100,0.00238499,-0.00000040,0.00242793,-0.00125174,0.00000002,0.00
 031920,0.00225052,0.00000003,-0.00079338,-0.00142193,-0.00000001,0.000
 20150,-0.00042045,0.,0.00007469,0.00017420,-0.00000001,0.00018681,-0.0
 0014731,0.,0.00004180,-0.00009839,0.,0.03662403,-0.07901117,-0.0000020
 3,0.00040073,-0.00198106,0.00000010,-0.03852513,-0.01667812,-0.0000008
 5,-0.00798658,-0.00743147,0.00000011,-0.07715153,-0.12346744,-0.000001
 41,0.00182577,-0.00759130,0.00000003,-0.00195065,-0.00023492,0.0000001
 2,0.03458952,0.02232205,0.00000025,0.00478691,-0.00214573,-0.00000001,
 -0.00005944,0.00039916,-0.00000002,-0.00217618,0.00229219,-0.00000001,
 0.00167284,0.00072787,0.,0.00760424,0.01203909,0.00000039,0.09366606,0
 .20078622,-0.00000006,-0.00000005,0.00037571,-0.00000011,-0.00000025,-
 0.00069131,-0.00000062,0.00000038,-0.00043496,0.00000020,-0.00000006,0
 .00026181,0.,0.00000015,0.00016662,-0.00000003,-0.00000010,0.00005436,
 0.,0.,-0.00011713,0.,0.,-0.00015898,0.,0.,-0.00002673,0.,0.,-0.0000797
 4,0.00000113,-0.00000236,0.01589526,0.00000005,-0.00000002,-0.00105998
 ,-0.00000053,0.00000007,0.01692620,-0.00000024,-0.00000026,0.00200140,
 -0.00000358,-0.00000206,-0.05209776,-0.00000006,-0.00000014,0.00007174
 ,-0.00000008,0.00000002,-0.00193534,-0.00000080,0.00000035,0.01123794,
 0.00000023,0.00000011,0.00388702,0.,0.,0.00007041,0.00000003,-0.000000
 03,-0.00323531,0.,0.,-0.00031044,0.00000031,0.00000034,-0.00332860,0.0
 0000505,0.00000295,0.04236405,-0.00025537,-0.00085751,0.,-0.00437396,-
 0.00284684,-0.00000005,-0.00667753,0.01066265,0.00000021,0.00310360,-0
 .00096019,0.00000002,0.00030547,0.00228748,0.,-0.00104741,-0.00101661,
 -0.00000001,0.00011350,-0.00004212,0.,-0.00038566,-0.00006605,0.,0.000
 05796,-0.00003737,0.,-0.00000350,-0.00007962,0.,-0.03631352,-0.0324820
 5,-0.00000099,-0.00313642,-0.00720121,-0.00000009,0.00670730,-0.004205
 81,-0.00000014,-0.00867332,0.00215906,0.00000008,-0.03359290,0.0137556
 1,0.00000015,0.00295857,-0.00683790,0.00000006,0.00053586,0.00044114,-
 0.00000001,0.00180456,-0.00158831,0.00000005,0.00273152,0.00403954,-0.
 00000011,0.00009300,0.00002666,0.,-0.00027949,0.00012940,0.00000003,0.
 00026786,0.00008380,0.,-0.00199059,-0.01919469,-0.00000055,-0.00486883
 ,-0.03622929,-0.00000090,0.08291929,0.00244800,0.00185152,-0.00000002,
 0.00445731,0.01305338,0.00000004,0.03362655,-0.01443528,0.00000050,-0.
 00764258,0.00406998,-0.00000002,-0.00127236,-0.00631889,-0.00000005,0.
 00198428,0.00308853,0.00000005,-0.00033596,0.00059906,0.,0.00013055,-0
 .00034622,0.00000001,-0.00031302,0.00027115,0.,-0.00009203,0.00021327,
 0.,-0.04960838,-0.00602684,0.00000058,0.00265596,0.01319813,0.00000005
 ,-0.02681542,0.01368738,0.00000066,0.02658521,-0.00716903,-0.00000024,
 0.03964443,0.01734563,0.00000028,-0.00868428,0.02148186,-0.00000017,-0
 .00094077,-0.00084195,0.00000002,-0.00907862,-0.00142611,-0.00000007,-
 0.00927427,-0.00976010,0.00000023,-0.00003145,-0.00020880,-0.00000004,
 0.00076649,-0.00030319,-0.00000005,-0.00111723,-0.00051054,0.,-0.01481
 578,-0.02653084,-0.00000078,-0.06233685,0.00609026,0.00000097,0.080060
 21,-0.02107237,0.00000004,0.00000011,0.00062935,0.00000004,0.00000029,
 0.00176953,0.00000094,0.00000027,-0.00689394,-0.00000008,0.00000006,-0
 .00066108,-0.00000006,-0.00000013,0.00000291,0.00000009,0.00000004,-0.
 00011194,-0.00000001,0.00000002,-0.00001806,0.,-0.00000001,-0.00007256
 ,0.,0.,0.00006435,0.,0.,0.00003328,-0.00000145,-0.00000032,-0.02642750
 ,0.00000003,0.00000029,0.00151474,-0.00000041,0.00000020,-0.00451450,0
 .00000058,-0.00000012,0.00032480,0.00000068,0.00000086,-0.00038928,-0.
 00000015,0.00000039,-0.00022345,0.,-0.00000003,0.00063091,-0.00000035,
 -0.00000016,0.00461428,-0.00000018,-0.00000008,0.00039380,0.,0.,0.0000
 1906,0.00000002,-0.00000001,-0.00049641,-0.00000004,-0.00000002,-0.000
 42534,-0.00000042,-0.00000059,0.00509036,-0.00000155,0.00000086,-0.029
 83623,0.00000225,-0.00000193,0.05498293\\-0.00206968,-0.00077296,0.000
 00008,-0.00129930,-0.00085287,-0.00000004,-0.00127971,0.00051690,0.000
 00007,0.00134893,-0.00197462,-0.00000021,-0.00045970,-0.00188028,0.000
 00005,-0.00217261,-0.00204560,0.00000006,-0.00022019,-0.00003181,0.000
 00002,0.00015046,-0.00018620,0.,-0.00003735,-0.00031730,0.,-0.00025293
 ,-0.00021946,0.00000002,0.00532289,-0.00089731,-0.00000042,0.00035445,
 0.00358218,-0.00000021,0.00290508,-0.00064325,0.00000008,-0.00078187,-
 0.00124679,0.00000046,-0.00383746,0.00008710,0.00000005,0.00063483,-0.
 00437001,-0.00000010,0.00017817,-0.00017004,0.00000009,-0.00092050,-0.
 00030525,-0.00000019,-0.00021615,-0.00185386,-0.00000022,0.00003801,-0
 .00034614,0.00000003,-0.00021686,0.00001377,-0.00000004,-0.00010179,-0
 .00022394,-0.00000005,0.00374194,0.00286801,-0.00000015,0.00109608,0.0
 0432751,0.00000050,-0.00190474,0.00694221,0.00000011\\\@
 The archive entry for this job was punched.


 HICKORY, DICKORY, DOCK
 TWO MICE RAN UP THE CLOCK
 THE CLOCK STRUCK ONE...
 THE OTHER ESCAPED WITH MINOR INJURIES.
 Job cpu time:       0 days  2 hours 57 minutes 15.1 seconds.
 Elapsed time:       0 days  0 hours 18 minutes 34.3 seconds.
 File lengths (MBytes):  RWF=   1380 Int=      0 D2E=      0 Chk=     48 Scr=      8
 Normal termination of Gaussian 16 at Tue Jul 14 11:19:47 2020.
