 Entering Gaussian System, Link 0=g16
 Initial command:
 /gpfs/loomis/apps/avx/software/Gaussian/16-C.01_AVX/g16/l1.exe "/home/fas/batista/pev4/scratch60/gauss-scratch/Gau-119284.inp" -scrdir="/home/fas/batista/pev4/scratch60/gauss-scratch/"
 Entering Link 1 = /gpfs/loomis/apps/avx/software/Gaussian/16-C.01_AVX/g16/l1.exe PID=    119285.
  
 Copyright (c) 1988-2019, Gaussian, Inc.  All Rights Reserved.
  
 This is part of the Gaussian(R) 16 program.  It is based on
 the Gaussian(R) 09 system (copyright 2009, Gaussian, Inc.),
 the Gaussian(R) 03 system (copyright 2003, Gaussian, Inc.),
 the Gaussian(R) 98 system (copyright 1998, Gaussian, Inc.),
 the Gaussian(R) 94 system (copyright 1995, Gaussian, Inc.),
 the Gaussian 92(TM) system (copyright 1992, Gaussian, Inc.),
 the Gaussian 90(TM) system (copyright 1990, Gaussian, Inc.),
 the Gaussian 88(TM) system (copyright 1988, Gaussian, Inc.),
 the Gaussian 86(TM) system (copyright 1986, Carnegie Mellon
 University), and the Gaussian 82(TM) system (copyright 1983,
 Carnegie Mellon University). Gaussian is a federally registered
 trademark of Gaussian, Inc.
  
 This software contains proprietary and confidential information,
 including trade secrets, belonging to Gaussian, Inc.
  
 This software is provided under written license and may be
 used, copied, transmitted, or stored only in accord with that
 written license.
  
 The following legend is applicable only to US Government
 contracts under FAR:
  
                    RESTRICTED RIGHTS LEGEND
  
 Use, reproduction and disclosure by the US Government is
 subject to restrictions as set forth in subparagraphs (a)
 and (c) of the Commercial Computer Software - Restricted
 Rights clause in FAR 52.227-19.
  
 Gaussian, Inc.
 340 Quinnipiac St., Bldg. 40, Wallingford CT 06492
  
  
 ---------------------------------------------------------------
 Warning -- This program may not be used in any manner that
 competes with the business of Gaussian, Inc. or will provide
 assistance to any competitor of Gaussian, Inc.  The licensee
 of this program is prohibited from giving any competitor of
 Gaussian, Inc. access to this program.  By using this program,
 the user acknowledges that Gaussian, Inc. is engaged in the
 business of creating and licensing software in the field of
 computational chemistry and represents and warrants to the
 licensee that it is not a competitor of Gaussian, Inc. and that
 it will not use this program in any manner prohibited above.
 ---------------------------------------------------------------
  

 Cite this work as:
 Gaussian 16, Revision C.01,
 M. J. Frisch, G. W. Trucks, H. B. Schlegel, G. E. Scuseria, 
 M. A. Robb, J. R. Cheeseman, G. Scalmani, V. Barone, 
 G. A. Petersson, H. Nakatsuji, X. Li, M. Caricato, A. V. Marenich, 
 J. Bloino, B. G. Janesko, R. Gomperts, B. Mennucci, H. P. Hratchian, 
 J. V. Ortiz, A. F. Izmaylov, J. L. Sonnenberg, D. Williams-Young, 
 F. Ding, F. Lipparini, F. Egidi, J. Goings, B. Peng, A. Petrone, 
 T. Henderson, D. Ranasinghe, V. G. Zakrzewski, J. Gao, N. Rega, 
 G. Zheng, W. Liang, M. Hada, M. Ehara, K. Toyota, R. Fukuda, 
 J. Hasegawa, M. Ishida, T. Nakajima, Y. Honda, O. Kitao, H. Nakai, 
 T. Vreven, K. Throssell, J. A. Montgomery, Jr., J. E. Peralta, 
 F. Ogliaro, M. J. Bearpark, J. J. Heyd, E. N. Brothers, K. N. Kudin, 
 V. N. Staroverov, T. A. Keith, R. Kobayashi, J. Normand, 
 K. Raghavachari, A. P. Rendell, J. C. Burant, S. S. Iyengar, 
 J. Tomasi, M. Cossi, J. M. Millam, M. Klene, C. Adamo, R. Cammi, 
 J. W. Ochterski, R. L. Martin, K. Morokuma, O. Farkas, 
 J. B. Foresman, and D. J. Fox, Gaussian, Inc., Wallingford CT, 2019.
 
 ******************************************
 Gaussian 16:  ES64L-G16RevC.01  3-Jul-2019
                13-Jul-2020 
 ******************************************
 %chk=config_11_9.chk
 %mem=58GB
 %nprocshared=10
 Will use up to   10 processors via shared memory.
 ----------------------------------------------------------------------
 #p opt=addgic freq td wb97xd/cc-pvdz nosymm int=ultrafine scrf=(solven
 t=CarbonTetraChloride)
 ----------------------------------------------------------------------
 1/18=20,19=15,26=6,38=1,145=903/1,3;
 2/9=110,12=2,15=1,17=6,18=5,40=1/2;
 3/5=16,11=9,25=1,30=1,70=2201,71=1,72=11,74=-58,75=-5/1,2,3,8;
 4//1;
 5/5=2,38=5,53=11/2;
 8/6=1,10=1/1;
 9/15=2,42=1,70=2/14;
 10/5=4,31=1/2;
 6/7=2,8=2,9=2,10=2/1;
 7/12=6,13=5,30=1/1,2,3,16;
 1/18=20,19=15,26=6,145=903/3(2);
 2/9=110,15=1/2;
 99//99;
 2/9=110,15=1/2;
 3/5=16,11=9,25=1,30=1,70=2205,71=1,72=11,74=-58,75=-5/1,2,3,8;
 4/5=5,16=3,69=1/1;
 5/5=2,38=5,53=11/2;
 8/6=1,10=1/1;
 9/15=2,42=1,49=4,70=2/14;
 10/5=4,31=1/2;
 7/12=6,13=5,30=1/1,2,3,16;
 1/18=20,19=15,26=6,145=903/3(-8);
 2/9=110,15=1/2;
 6/7=2,8=2,9=2,10=2/1;
 99/9=10/99;
 Leave Link    1 at Mon Jul 13 19:24:17 2020, MaxMem=  7784628224 cpu:               3.1 elap:               0.3
 (Enter /gpfs/loomis/apps/avx/software/Gaussian/16-C.01_AVX/g16/l101.exe)
 ------------------------------------------------
 NM 2D-scan of HBT TD-WB97XD pVDZ in CTC Relaxed.
 ------------------------------------------------
 Symbolic Z-matrix:
 Charge =  0 Multiplicity = 1
 C                     1.6496   -3.2566   -0.00002 
 C                     1.00887  -2.01815  -0.00002 
 C                     1.73947  -0.80354  -0.00002 
 C                     3.13252  -0.83974  -0.00002 
 C                     3.76823  -2.07957  -0.00002 
 C                     3.04334  -3.27623  -0.00002 
 H                     1.07322  -4.18279  -0.00002 
 H                     3.70556   0.08805  -0.00003 
 H                     4.85884  -2.11235  -0.00002 
 H                     3.5695   -4.23143  -0.00002 
 N                     0.91804   0.31319  -0.00002 
 S                    -0.72471  -1.71846  -0.00002 
 C                    -1.38198   1.04059   0.00001 
 C                    -2.74248   0.8119    0. 
 C                    -0.86276   2.43511   0.00003 
 C                    -3.65285   1.90391   0.00003 
 H                    -3.13836  -0.20664  -0.00002 
 C                    -1.8289    3.48879   0.00005 
 C                    -3.20015   3.22245   0.00005 
 H                    -4.72344   1.69272   0.00003 
 H                    -1.43524   4.50632   0.00007 
 H                    -3.91748   4.04352   0.00007 
 C                    -0.40466  -0.00115  -0.00002 
 O                     0.37578   2.64843   0.00004 
 H                     1.08461   1.05965  0. 
 
 Initializing the GIC definitions file.
 Number of initial coordinates =   134
 Number of input entries/lines =    52
 Number of additional coordinates =     2
 Number of removed coordinates =     0
 Number of frozen coordinates =     2
 Number of final active and frozen coordinates =   136
 ITRead=  0  0  0  0  0  0  0  0  0  0  0  0  0  0  0  0  0  0  0  0
 ITRead=  0  0  0  0  0
 MicOpt= -1 -1 -1 -1 -1 -1 -1 -1 -1 -1 -1 -1 -1 -1 -1 -1 -1 -1 -1 -1
 MicOpt= -1 -1 -1 -1 -1
 NAtoms=     25 NQM=       25 NQMF=       0 NMMI=      0 NMMIF=      0
                NMic=       0 NMicF=      0.
                    Isotopes and Nuclear Properties:
 (Nuclear quadrupole moments (NQMom) in fm**2, nuclear magnetic moments (NMagM)
  in nuclear magnetons)

  Atom         1           2           3           4           5           6           7           8           9          10
 IAtWgt=          12          12          12          12          12          12           1           1           1           1
 AtmWgt=  12.0000000  12.0000000  12.0000000  12.0000000  12.0000000  12.0000000   1.0078250   1.0078250   1.0078250   1.0078250
 NucSpn=           0           0           0           0           0           0           1           1           1           1
 AtZEff=  -0.0000000  -0.0000000  -0.0000000  -0.0000000  -0.0000000  -0.0000000  -0.0000000  -0.0000000  -0.0000000  -0.0000000
 NQMom=    0.0000000   0.0000000   0.0000000   0.0000000   0.0000000   0.0000000   0.0000000   0.0000000   0.0000000   0.0000000
 NMagM=    0.0000000   0.0000000   0.0000000   0.0000000   0.0000000   0.0000000   2.7928460   2.7928460   2.7928460   2.7928460
 AtZNuc=   6.0000000   6.0000000   6.0000000   6.0000000   6.0000000   6.0000000   1.0000000   1.0000000   1.0000000   1.0000000

  Atom        11          12          13          14          15          16          17          18          19          20
 IAtWgt=          14          32          12          12          12          12           1          12          12           1
 AtmWgt=  14.0030740  31.9720718  12.0000000  12.0000000  12.0000000  12.0000000   1.0078250  12.0000000  12.0000000   1.0078250
 NucSpn=           2           0           0           0           0           0           1           0           0           1
 AtZEff=  -0.0000000  -0.0000000  -0.0000000  -0.0000000  -0.0000000  -0.0000000  -0.0000000  -0.0000000  -0.0000000  -0.0000000
 NQMom=    2.0440000   0.0000000   0.0000000   0.0000000   0.0000000   0.0000000   0.0000000   0.0000000   0.0000000   0.0000000
 NMagM=    0.4037610   0.0000000   0.0000000   0.0000000   0.0000000   0.0000000   2.7928460   0.0000000   0.0000000   2.7928460
 AtZNuc=   7.0000000  16.0000000   6.0000000   6.0000000   6.0000000   6.0000000   1.0000000   6.0000000   6.0000000   1.0000000

  Atom        21          22          23          24          25
 IAtWgt=           1           1          12          16           1
 AtmWgt=   1.0078250   1.0078250  12.0000000  15.9949146   1.0078250
 NucSpn=           1           1           0           0           1
 AtZEff=  -0.0000000  -0.0000000  -0.0000000  -0.0000000  -0.0000000
 NQMom=    0.0000000   0.0000000   0.0000000   0.0000000   0.0000000
 NMagM=    2.7928460   2.7928460   0.0000000   0.0000000   2.7928460
 AtZNuc=   1.0000000   1.0000000   6.0000000   8.0000000   1.0000000
 Leave Link  101 at Mon Jul 13 19:24:20 2020, MaxMem=  7784628224 cpu:              32.4 elap:               3.3
 (Enter /gpfs/loomis/apps/avx/software/Gaussian/16-C.01_AVX/g16/l103.exe)

 GradGradGradGradGradGradGradGradGradGradGradGradGradGradGradGradGradGrad
 Berny optimization.
 Initialization pass.
                           ----------------------------
                           !    Initial Parameters    !
                           ! (Angstroms and Degrees)  !
 --------------------------                            --------------------------
 ! Name  Definition              Value          Derivative Info.                !
 --------------------------------------------------------------------------------
 ! R1    R(1,2)                  1.3944         estimate D2E/DX2                !
 ! R2    R(1,6)                  1.3939         estimate D2E/DX2                !
 ! R3    R(1,7)                  1.0909         estimate D2E/DX2                !
 ! R4    R(2,3)                  1.4174         estimate D2E/DX2                !
 ! R5    R(2,12)                 1.7593         estimate D2E/DX2                !
 ! R6    R(3,4)                  1.3935         estimate D2E/DX2                !
 ! R7    R(3,11)                 1.3863         estimate D2E/DX2                !
 ! R8    R(4,5)                  1.3933         estimate D2E/DX2                !
 ! R9    R(4,8)                  1.0905         estimate D2E/DX2                !
 ! R10   R(5,6)                  1.3991         estimate D2E/DX2                !
 ! R11   R(5,9)                  1.0911         estimate D2E/DX2                !
 ! R12   R(6,10)                 1.0905         estimate D2E/DX2                !
 ! R13   R(11,23)                1.3595         estimate D2E/DX2                !
 ! R14   R(11,25)                0.7648         estimate D2E/DX2                !
 ! R15   R(12,23)                1.7469         estimate D2E/DX2                !
 ! R16   R(13,14)                1.3796         estimate D2E/DX2                !
 ! R17   R(13,15)                1.488          estimate D2E/DX2                !
 ! R18   R(13,23)                1.4284         estimate D2E/DX2                !
 ! R19   R(14,16)                1.4217         estimate D2E/DX2                !
 ! R20   R(14,17)                1.0928         estimate D2E/DX2                !
 ! R21   R(15,18)                1.4296         estimate D2E/DX2                !
 ! R22   R(15,24)                1.2568         estimate D2E/DX2                !
 ! R23   R(16,19)                1.3941         estimate D2E/DX2                !
 ! R24   R(16,20)                1.0912         estimate D2E/DX2                !
 ! R25   R(18,19)                1.3969         estimate D2E/DX2                !
 ! R26   R(18,21)                1.091          estimate D2E/DX2                !
 ! R27   R(19,22)                1.0903         estimate D2E/DX2                !
 ! A1    A(2,1,6)              118.1628         estimate D2E/DX2                !
 ! A2    A(2,1,7)              120.75           estimate D2E/DX2                !
 ! A3    A(6,1,7)              121.0872         estimate D2E/DX2                !
 ! A4    A(1,2,3)              121.6167         estimate D2E/DX2                !
 ! A5    A(1,2,12)             127.1638         estimate D2E/DX2                !
 ! A6    A(3,2,12)             111.2195         estimate D2E/DX2                !
 ! A7    A(2,3,4)              119.5393         estimate D2E/DX2                !
 ! A8    A(2,3,11)             112.6353         estimate D2E/DX2                !
 ! A9    A(4,3,11)             127.8254         estimate D2E/DX2                !
 ! A10   A(3,4,5)              118.6342         estimate D2E/DX2                !
 ! A11   A(3,4,8)              120.2128         estimate D2E/DX2                !
 ! A12   A(5,4,8)              121.153          estimate D2E/DX2                !
 ! A13   A(4,5,6)              121.6483         estimate D2E/DX2                !
 ! A14   A(4,5,9)              118.8675         estimate D2E/DX2                !
 ! A15   A(6,5,9)              119.4842         estimate D2E/DX2                !
 ! A16   A(1,6,5)              120.3987         estimate D2E/DX2                !
 ! A17   A(1,6,10)             119.6549         estimate D2E/DX2                !
 ! A18   A(5,6,10)             119.9464         estimate D2E/DX2                !
 ! A19   A(3,11,23)            112.9689         estimate D2E/DX2                !
 ! A20   A(3,11,25)            131.0839         estimate D2E/DX2                !
 ! A21   A(23,11,25)           115.9472         estimate D2E/DX2                !
 ! A22   A(2,12,23)             89.2509         estimate D2E/DX2                !
 ! A23   A(14,13,15)           119.9636         estimate D2E/DX2                !
 ! A24   A(14,13,23)           123.6307         estimate D2E/DX2                !
 ! A25   A(15,13,23)           116.4057         estimate D2E/DX2                !
 ! A26   A(13,14,16)           120.2751         estimate D2E/DX2                !
 ! A27   A(13,14,17)           120.7815         estimate D2E/DX2                !
 ! A28   A(16,14,17)           118.9434         estimate D2E/DX2                !
 ! A29   A(13,15,18)           117.0597         estimate D2E/DX2                !
 ! A30   A(13,15,24)           120.1941         estimate D2E/DX2                !
 ! A31   A(18,15,24)           122.7461         estimate D2E/DX2                !
 ! A32   A(14,16,19)           121.2338         estimate D2E/DX2                !
 ! A33   A(14,16,20)           118.6575         estimate D2E/DX2                !
 ! A34   A(19,16,20)           120.1087         estimate D2E/DX2                !
 ! A35   A(15,18,19)           121.5268         estimate D2E/DX2                !
 ! A36   A(15,18,21)           116.331          estimate D2E/DX2                !
 ! A37   A(19,18,21)           122.1422         estimate D2E/DX2                !
 ! A38   A(16,19,18)           119.9411         estimate D2E/DX2                !
 ! A39   A(16,19,22)           119.9083         estimate D2E/DX2                !
 ! A40   A(18,19,22)           120.1506         estimate D2E/DX2                !
 ! A41   A(11,23,12)           113.9253         estimate D2E/DX2                !
 ! A42   A(11,23,13)           119.8044         estimate D2E/DX2                !
 ! A43   A(12,23,13)           126.2703         estimate D2E/DX2                !
 ! D1    D(6,1,2,3)              0.0            estimate D2E/DX2                !
 ! D2    D(6,1,2,12)          -180.0            estimate D2E/DX2                !
 ! D3    D(7,1,2,3)            179.9999         estimate D2E/DX2                !
 ! D4    D(7,1,2,12)             0.0            estimate D2E/DX2                !
 ! D5    D(2,1,6,5)             -0.0001         estimate D2E/DX2                !
 ! D6    D(2,1,6,10)           180.0            estimate D2E/DX2                !
 ! D7    D(7,1,6,5)           -180.0            estimate D2E/DX2                !
 ! D8    D(7,1,6,10)             0.0            estimate D2E/DX2                !
 ! D9    D(1,2,3,4)              0.0001         estimate D2E/DX2                !
 ! D10   D(1,2,3,11)           180.0            estimate D2E/DX2                !
 ! D11   D(12,2,3,4)          -179.9999         estimate D2E/DX2                !
 ! D12   D(12,2,3,11)           -0.0001         estimate D2E/DX2                !
 ! D13   D(1,2,12,23)          179.9998         estimate D2E/DX2                !
 ! D14   D(3,2,12,23)           -0.0001         estimate D2E/DX2                !
 ! D15   D(2,3,4,5)             -0.0001         estimate D2E/DX2                !
 ! D16   D(2,3,4,8)            179.9999         estimate D2E/DX2                !
 ! D17   D(11,3,4,5)          -180.0            estimate D2E/DX2                !
 ! D18   D(11,3,4,8)             0.0001         estimate D2E/DX2                !
 ! D19   D(2,3,11,23)            0.0003         estimate D2E/DX2                !
 ! D20   D(2,3,11,25)          179.9981         estimate D2E/DX2                !
 ! D21   D(4,3,11,23)         -179.9999         estimate D2E/DX2                !
 ! D22   D(4,3,11,25)           -0.002          estimate D2E/DX2                !
 ! D23   D(3,4,5,6)              0.0            estimate D2E/DX2                !
 ! D24   D(3,4,5,9)           -179.9999         estimate D2E/DX2                !
 ! D25   D(8,4,5,6)            180.0            estimate D2E/DX2                !
 ! D26   D(8,4,5,9)              0.0            estimate D2E/DX2                !
 ! D27   D(4,5,6,1)              0.0001         estimate D2E/DX2                !
 ! D28   D(4,5,6,10)          -180.0            estimate D2E/DX2                !
 ! D29   D(9,5,6,1)           -180.0            estimate D2E/DX2                !
 ! D30   D(9,5,6,10)             0.0            estimate D2E/DX2                !
 ! D31   D(3,11,23,12)          -0.0004         estimate D2E/DX2                !
 ! D32   D(3,11,23,13)         179.9989         estimate D2E/DX2                !
 ! D33   D(25,11,23,12)       -179.9985         estimate D2E/DX2                !
 ! D34   D(25,11,23,13)          0.0008         estimate D2E/DX2                !
 ! D35   D(2,12,23,11)           0.0003         estimate D2E/DX2                !
 ! D36   D(2,12,23,13)        -179.999          estimate D2E/DX2                !
 ! D37   D(15,13,14,16)          0.0001         estimate D2E/DX2                !
 ! D38   D(15,13,14,17)       -180.0            estimate D2E/DX2                !
 ! D39   D(23,13,14,16)       -180.0            estimate D2E/DX2                !
 ! D40   D(23,13,14,17)         -0.0001         estimate D2E/DX2                !
 ! D41   D(14,13,15,18)         -0.0002         estimate D2E/DX2                !
 ! D42   D(14,13,15,24)        179.9996         estimate D2E/DX2                !
 ! D43   D(23,13,15,18)        179.9998         estimate D2E/DX2                !
 ! D44   D(23,13,15,24)         -0.0003         estimate D2E/DX2                !
 ! D45   D(14,13,23,11)        179.9996         estimate D2E/DX2                !
 ! D46   D(14,13,23,12)         -0.0012         estimate D2E/DX2                !
 ! D47   D(15,13,23,11)         -0.0005         estimate D2E/DX2                !
 ! D48   D(15,13,23,12)        179.9987         estimate D2E/DX2                !
 ! D49   D(13,14,16,19)          0.0            estimate D2E/DX2                !
 ! D50   D(13,14,16,20)        180.0            estimate D2E/DX2                !
 ! D51   D(17,14,16,19)       -179.9999         estimate D2E/DX2                !
 ! D52   D(17,14,16,20)          0.0001         estimate D2E/DX2                !
 ! D53   D(13,15,18,19)          0.0002         estimate D2E/DX2                !
 ! D54   D(13,15,18,21)        179.9999         estimate D2E/DX2                !
 ! D55   D(24,15,18,19)       -179.9996         estimate D2E/DX2                !
 ! D56   D(24,15,18,21)          0.0            estimate D2E/DX2                !
 ! D57   D(14,16,19,18)          0.0            estimate D2E/DX2                !
 ! D58   D(14,16,19,22)       -180.0            estimate D2E/DX2                !
 ! D59   D(20,16,19,18)        180.0            estimate D2E/DX2                !
 ! D60   D(20,16,19,22)          0.0            estimate D2E/DX2                !
 ! D61   D(15,18,19,16)         -0.0001         estimate D2E/DX2                !
 ! D62   D(15,18,19,22)        179.9999         estimate D2E/DX2                !
 ! D63   D(21,18,19,16)       -179.9997         estimate D2E/DX2                !
 ! D64   D(21,18,19,22)          0.0002         estimate D2E/DX2                !
 ! Qtot  GIC-1                  50.0            Frozen                          !
 ! Ptot  GIC-2                  20.0            Frozen                          !
 --------------------------------------------------------------------------------
 NOTE: GIC-type coordinates are in arbitrary units.
 Trust Radius=3.00D-01 FncErr=5.00D-06 GrdErr=5.00D-06 EigMax=2.50D+02 EigMin=1.00D-04
 Number of steps in this run=    146 maximum allowed number of steps=    150.
 GradGradGradGradGradGradGradGradGradGradGradGradGradGradGradGradGradGrad

 Leave Link  103 at Mon Jul 13 19:24:20 2020, MaxMem=  7784628224 cpu:               0.1 elap:               0.0
 (Enter /gpfs/loomis/apps/avx/software/Gaussian/16-C.01_AVX/g16/l202.exe)
                          Input orientation:                          
 ---------------------------------------------------------------------
 Center     Atomic      Atomic             Coordinates (Angstroms)
 Number     Number       Type             X           Y           Z
 ---------------------------------------------------------------------
      1          6           0        1.649602   -3.256598   -0.000021
      2          6           0        1.008867   -2.018152   -0.000022
      3          6           0        1.739475   -0.803542   -0.000022
      4          6           0        3.132520   -0.839736   -0.000024
      5          6           0        3.768227   -2.079567   -0.000023
      6          6           0        3.043335   -3.276232   -0.000021
      7          1           0        1.073224   -4.182794   -0.000020
      8          1           0        3.705557    0.088051   -0.000025
      9          1           0        4.858838   -2.112348   -0.000023
     10          1           0        3.569498   -4.231431   -0.000020
     11          7           0        0.918044    0.313187   -0.000023
     12         16           0       -0.724715   -1.718456   -0.000021
     13          6           0       -1.381976    1.040595    0.000005
     14          6           0       -2.742480    0.811904    0.000004
     15          6           0       -0.862757    2.435112    0.000033
     16          6           0       -3.652854    1.903914    0.000027
     17          1           0       -3.138361   -0.206642   -0.000015
     18          6           0       -1.828900    3.488789    0.000053
     19          6           0       -3.200149    3.222451    0.000050
     20          1           0       -4.723442    1.692720    0.000025
     21          1           0       -1.435238    4.506316    0.000075
     22          1           0       -3.917477    4.043516    0.000068
     23          6           0       -0.404656   -0.001147   -0.000017
     24          8           0        0.375775    2.648428    0.000041
     25          1           0        1.084612    1.059650   -0.000004
 ---------------------------------------------------------------------
                    Distance matrix (angstroms):
                    1          2          3          4          5
     1  C    0.000000
     2  C    1.394378   0.000000
     3  C    2.454701   1.417414   0.000000
     4  C    2.835536   2.428696   1.393515   0.000000
     5  C    2.423628   2.760043   2.396680   1.393307   0.000000
     6  C    1.393871   2.392034   2.795397   2.438128   1.399098
     7  H    1.090894   2.165599   3.444304   3.926415   3.418567
     8  H    3.926019   3.421728   2.158800   1.090486   2.168524
     9  H    3.407125   3.851123   3.382809   2.144694   1.091103
    10  H    2.153207   3.384588   3.885795   3.419728   2.161020
    11  N    3.643973   2.333107   1.386302   2.496625   3.721400
    12  S    2.829003   1.759296   2.628554   3.956060   4.507430
    13  C    5.258928   3.882275   3.625507   4.890431   6.021628
    14  C    5.986910   4.699130   4.764199   6.102749   7.123898
    15  C    6.221535   4.830583   4.154574   5.165933   6.467483
    16  C    7.399116   6.092146   6.033865   7.319079   8.422622
    17  H    5.676867   4.525601   4.914221   6.302758   7.156033
    18  C    7.589481   6.195104   5.581882   6.584210   7.895215
    19  C    8.093093   6.721587   6.372480   7.523567   8.756121
    20  H    8.069166   6.828612   6.928248   8.254058   9.291856
    21  H    8.353387   6.967233   6.186550   7.031692   8.393445
    22  H    9.180634   7.811062   7.449502   8.576049   9.826607
    23  C    3.849407   2.462997   2.289353   3.635223   4.661843
    24  O    6.040858   4.709328   3.711573   4.446002   5.819164
    25  H    4.353068   3.078733   1.974925   2.793133   4.129948
                    6          7          8          9         10
     6  C    0.000000
     7  H    2.168684   0.000000
     8  H    3.428839   5.016900   0.000000
     9  H    2.156543   4.314813   2.484312   0.000000
    10  H    1.090528   2.496748   4.321624   2.480506   0.000000
    11  N    4.171425   4.498657   2.796590   4.627426   5.261536
    12  S    4.077360   3.050499   4.784431   5.597429   4.975470
    13  C    6.182101   5.771637   5.175938   6.992053   7.232659
    14  C    7.084385   6.285428   6.488540   8.144402   8.079375
    15  C    6.919321   6.895266   5.135970   7.308627   8.005478
    16  C    8.465983   7.706090   7.579154   9.411655   9.476541
    17  H    6.901866   5.791997   6.850260   8.221125   7.822679
    18  C    8.336917   8.202165   6.495786   8.723449   9.420430
    19  C    9.011879   8.549816   7.583749   9.664747  10.069184
    20  H    9.220266   8.253666   8.580384  10.310122  10.191586
    21  H    8.979180   9.043949   6.778558   9.133570  10.069539
    22  H   10.101070   9.621812   8.588153  10.719998  11.159281
    23  C    4.755505   4.435121   4.111181   5.671114   5.804240
    24  O    6.497497   6.866733   4.200355   6.539330   7.585007
    25  H    4.757780   5.242456   2.795239   4.930147   5.845527
                   11         12         13         14         15
    11  N    0.000000
    12  S    2.612705   0.000000
    13  C    2.412305   2.836257   0.000000
    14  C    3.694341   3.236371   1.379591   0.000000
    15  C    2.770165   4.155861   1.488041   2.483579   0.000000
    16  C    4.839785   4.657850   2.429446   1.421713   2.840214
    17  H    4.089577   2.848029   2.154179   1.092775   3.486723
    18  C    4.198827   5.323028   2.488653   2.828488   1.429569
    19  C    5.042155   5.526331   2.840114   2.453609   2.466436
    20  H    5.807708   5.256039   3.404506   2.167959   3.931416
    21  H    4.808354   6.265192   3.466131   3.918873   2.148865
    22  H    6.107178   6.587417   3.930178   3.438595   3.452287
    23  C    1.359537   1.746880   1.428419   2.475172   2.478954
    24  O    2.397375   4.503416   2.382187   3.618886   1.256768
    25  H    0.764822   3.315349   2.466662   3.835103   2.384144
                   16         17         18         19         20
    16  C    0.000000
    17  H    2.172360   0.000000
    18  C    2.416327   3.920573   0.000000
    19  C    1.394088   3.429649   1.396875   0.000000
    20  H    1.091219   2.473875   3.406499   2.158818   0.000000
    21  H    3.419111   5.011247   1.091023   2.182480   4.327655
    22  H    2.155904   4.320979   2.160990   1.090279   2.485119
    23  C    3.765640   2.741418   3.769366   4.266891   4.639084
    24  O    4.096847   4.527756   2.359407   3.621703   5.188004
    25  H    4.812106   4.408741   3.793319   4.799675   5.842454
                   21         22         23         24         25
    21  H    0.000000
    22  H    2.525014   0.000000
    23  C    4.623778   5.357164   0.000000
    24  O    2.594517   4.514232   2.762122   0.000000
    25  H    4.269561   5.824462   1.828444   1.739732   0.000000
 Symmetry turned off by external request.
 Stoichiometry    C13H9NOS
 Framework group  C1[X(C13H9NOS)]
 Deg. of freedom    69
 Full point group                 C1      NOp   1
 Rotational constants (GHZ):           1.3950331           0.2859300           0.2372936
 Leave Link  202 at Mon Jul 13 19:24:21 2020, MaxMem=  7784628224 cpu:               0.1 elap:               0.0
 (Enter /gpfs/loomis/apps/avx/software/Gaussian/16-C.01_AVX/g16/l301.exe)
 Standard basis: CC-pVDZ (5D, 7F)
 Ernie: Thresh=  0.10000D-02 Tol=  0.10000D-05 Strict=F.
 Ernie:  40 primitive shells out of 425 were deleted.
   273 basis functions,   629 primitive gaussians,   289 cartesian basis functions
    59 alpha electrons       59 beta electrons
       nuclear repulsion energy      1101.3302090018 Hartrees.
 IExCor= 4639 DFT=T Ex+Corr=wB97XD ExCW=0 ScaHFX=  1.000000
 ScaDFX=  1.000000  1.000000  1.000000  1.000000 ScalE2=  1.000000  1.000000
 IRadAn=      5 IRanWt=     -1 IRanGd=            0 ICorTp=0 IEmpDi=121
 HFx  wShort=  0.000000 wLong=  0.200000 cFull=  0.222036 cShort=  0.000000 cLong=  0.777964
 DFx  wShort=  0.000000 wLong=  0.200000 cFull=  0.000000 cShort=  0.000000 cLong=  1.000000
 NAtoms=   25 NActive=   25 NUniq=   25 SFac= 1.00D+00 NAtFMM=   60 NAOKFM=F Big=F
 Integral buffers will be    131072 words long.
 Raffenetti 1 integral format.
 Two-electron integral symmetry is turned off.
 R6Disp:  Grimme-D2 Dispersion energy=       -0.0140941102 Hartrees.
 Nuclear repulsion after empirical dispersion term =     1101.3161148916 Hartrees.
 ------------------------------------------------------------------------------
 Polarizable Continuum Model (PCM)
 =================================
 Model                : PCM.
 Atomic radii         : UFF (Universal Force Field).
 Polarization charges : Total charges.
 Charge compensation  : None.
 Solution method      : On-the-fly selection.
 Cavity type          : Scaled VdW (van der Waals Surface) (Alpha=1.100).
 Cavity algorithm     : GePol (No added spheres)
                        Default sphere list used, NSphG=   25.
                        Lebedev-Laikov grids with approx.  5.0 points / Ang**2.
                        Smoothing algorithm: York/Karplus (Gamma=1.0000).
                        Polarization charges: spherical gaussians, with
                                              point-specific exponents (IZeta= 3).
                        Self-potential: point-specific (ISelfS= 7).
                        Self-field    : sphere-specific E.n sum rule (ISelfD= 2).
 1st derivatives      : Analytical E(r).r(x)/FMM algorithm (CHGder, D1EAlg=3).
                        Cavity 1st derivative terms included.
 Solvent              : CarbonTetraChloride, Eps=   2.228000 Eps(inf)=   2.131892
 ------------------------------------------------------------------------------
 GePol: Number of generator spheres                  =      25
 GePol: Total number of spheres                      =      25
 GePol: Number of exposed spheres                    =      25 (100.00%)
 GePol: Number of points                             =    2183
 GePol: Average weight of points                     =       0.13
 GePol: Minimum weight of points                     =   0.72D-10
 GePol: Maximum weight of points                     =    0.20577
 GePol: Number of points with low weight             =     129
 GePol: Fraction of low-weight points (<1% of avg)   =       5.91%
 GePol: Cavity surface area                          =    273.004 Ang**2
 GePol: Cavity volume                                =    292.226 Ang**3
 Leave Link  301 at Mon Jul 13 19:24:21 2020, MaxMem=  7784628224 cpu:               0.8 elap:               0.1
 (Enter /gpfs/loomis/apps/avx/software/Gaussian/16-C.01_AVX/g16/l302.exe)
 NPDir=0 NMtPBC=     1 NCelOv=     1 NCel=       1 NClECP=     1 NCelD=      1
         NCelK=      1 NCelE2=     1 NClLst=     1 CellRange=     0.0.
 One-electron integrals computed using PRISM.
 NBasis=   273 RedAO= T EigKep=  3.00D-04  NBF=   273
 NBsUse=   273 1.00D-06 EigRej= -1.00D+00 NBFU=   273
 Precomputing XC quadrature grid using
 IXCGrd= 4 IRadAn=           5 IRanWt=          -1 IRanGd=           0 AccXCQ= 0.00D+00.
 Generated NRdTot=       0 NPtTot=           0 NUsed=           0 NTot=          32
 NSgBfM=   288   288   288   288   288 MxSgAt=    25 MxSgA2=    25.
 Leave Link  302 at Mon Jul 13 19:24:21 2020, MaxMem=  7784628224 cpu:               2.6 elap:               0.3
 (Enter /gpfs/loomis/apps/avx/software/Gaussian/16-C.01_AVX/g16/l303.exe)
 DipDrv:  MaxL=1.
 Leave Link  303 at Mon Jul 13 19:24:21 2020, MaxMem=  7784628224 cpu:               0.7 elap:               0.1
 (Enter /gpfs/loomis/apps/avx/software/Gaussian/16-C.01_AVX/g16/l308.exe)
 Leave Link  308 at Mon Jul 13 19:24:21 2020, MaxMem=  7784628224 cpu:               0.6 elap:               0.1
 (Enter /gpfs/loomis/apps/avx/software/Gaussian/16-C.01_AVX/g16/l401.exe)
 ExpMin= 1.22D-01 ExpMax= 1.11D+05 ExpMxC= 1.07D+03 IAcc=3 IRadAn=         5 AccDes= 0.00D+00
 Harris functional with IExCor= 4639 and IRadAn=       5 diagonalized for initial guess.
 HarFok:  IExCor= 4639 AccDes= 0.00D+00 IRadAn=         5 IDoV= 1 UseB2=F ITyADJ=14
 ICtDFT=  3500011 ScaDFX=  1.000000  1.000000  1.000000  1.000000
 FoFCou: FMM=F IPFlag=           0 FMFlag=      100000 FMFlg1=           0
         NFxFlg=           0 DoJE=T BraDBF=F KetDBF=T FulRan=T
         wScrn=  0.000000 ICntrl=       500 IOpCl=  0 I1Cent=   200000004 NGrid=           0
         NMat0=    1 NMatS0=      1 NMatT0=    0 NMatD0=    1 NMtDS0=    0 NMtDT0=    0
 Symmetry not used in FoFCou.
 Harris En= -994.339469888338    
 JPrj=0 DoOrth=F DoCkMO=F.
 Leave Link  401 at Mon Jul 13 19:24:23 2020, MaxMem=  7784628224 cpu:              13.8 elap:               1.4
 (Enter /gpfs/loomis/apps/avx/software/Gaussian/16-C.01_AVX/g16/l502.exe)
 Two-electron integral symmetry not used.
 Closed shell SCF:
 Using DIIS extrapolation, IDIIS=  1040.
 NGot=  7784628224 LenX=  7784455381 LenY=  7784371419
 Requested convergence on RMS density matrix=1.00D-08 within 128 cycles.
 Requested convergence on MAX density matrix=1.00D-06.
 Requested convergence on             energy=1.00D-06.
 No special actions if energy rises.
 Fock matrices will be formed incrementally for  20 cycles.

 Cycle   1  Pass 1  IDiag  1:
 FoFJK:  IHMeth= 1 ICntrl=       0 DoSepK=T KAlg= 0 I1Cent=           0 FoldK=F
 IRaf=         1 NMat=       1 IRICut=       1 DoRegI=T DoRafI=F ISym2E= 0 IDoP0=0 IntGTp=1.
 FoFCou: FMM=F IPFlag=           0 FMFlag=      100000 FMFlg1=           0
         NFxFlg=           0 DoJE=T BraDBF=F KetDBF=F FulRan=T
         wScrn=  0.000000 ICntrl=       500 IOpCl=  0 I1Cent=           0 NGrid=           0
         NMat0=    1 NMatS0=      1 NMatT0=    0 NMatD0=    1 NMtDS0=    0 NMtDT0=    0
 Symmetry not used in FoFCou.
 Inv3:  Mode=1 IEnd=    14296467.
 Iteration    1 A*A^-1 deviation from unit magnitude is 5.33D-15 for   2164.
 Iteration    1 A*A^-1 deviation from orthogonality  is 2.28D-15 for   2141   1396.
 Iteration    1 A^-1*A deviation from unit magnitude is 4.88D-15 for   2164.
 Iteration    1 A^-1*A deviation from orthogonality  is 2.68D-15 for   2169   1912.
 E= -1028.45095888823    
 DIIS: error= 4.13D-02 at cycle   1 NSaved=   1.
 NSaved= 1 IEnMin= 1 EnMin= -1028.45095888823     IErMin= 1 ErrMin= 4.13D-02
 ErrMax= 4.13D-02  0.00D+00 EMaxC= 1.00D-01 BMatC= 3.94D-01 BMatP= 3.94D-01
 IDIUse=3 WtCom= 5.87D-01 WtEn= 4.13D-01
 Coeff-Com:  0.100D+01
 Coeff-En:   0.100D+01
 Coeff:      0.100D+01
 Gap=     0.303 Goal=   None    Shift=    0.000
 GapD=    0.303 DampG=1.000 DampE=0.500 DampFc=0.5000 IDamp=-1.
 Damping current iteration by 5.00D-01
 RMSDP=3.69D-03 MaxDP=2.53D-01              OVMax= 2.15D-01

 Cycle   2  Pass 1  IDiag  1:
 RMSU=  1.84D-03    CP:  9.94D-01
 E= -1028.57334725898     Delta-E=       -0.122388370745 Rises=F Damp=T
 DIIS: error= 1.09D-02 at cycle   2 NSaved=   2.
 NSaved= 2 IEnMin= 2 EnMin= -1028.57334725898     IErMin= 2 ErrMin= 1.09D-02
 ErrMax= 1.09D-02  0.00D+00 EMaxC= 1.00D-01 BMatC= 5.82D-02 BMatP= 3.94D-01
 IDIUse=3 WtCom= 8.91D-01 WtEn= 1.09D-01
 Coeff-Com: -0.286D+00 0.129D+01
 Coeff-En:   0.000D+00 0.100D+01
 Coeff:     -0.255D+00 0.125D+01
 Gap=     0.370 Goal=   None    Shift=    0.000
 RMSDP=1.17D-03 MaxDP=2.93D-02 DE=-1.22D-01 OVMax= 1.50D-01

 Cycle   3  Pass 1  IDiag  1:
 RMSU=  1.14D-03    CP:  9.92D-01  1.16D+00
 E= -1028.68403679866     Delta-E=       -0.110689539682 Rises=F Damp=F
 DIIS: error= 6.42D-03 at cycle   3 NSaved=   3.
 NSaved= 3 IEnMin= 3 EnMin= -1028.68403679866     IErMin= 3 ErrMin= 6.42D-03
 ErrMax= 6.42D-03  0.00D+00 EMaxC= 1.00D-01 BMatC= 1.53D-02 BMatP= 5.82D-02
 IDIUse=3 WtCom= 9.36D-01 WtEn= 6.42D-02
 Coeff-Com: -0.204D+00 0.498D+00 0.706D+00
 Coeff-En:   0.000D+00 0.000D+00 0.100D+01
 Coeff:     -0.191D+00 0.466D+00 0.725D+00
 Gap=     0.233 Goal=   None    Shift=    0.000
 RMSDP=5.50D-04 MaxDP=2.13D-02 DE=-1.11D-01 OVMax= 4.84D-02

 Cycle   4  Pass 1  IDiag  1:
 RMSU=  4.31D-04    CP:  9.91D-01  1.32D+00  8.53D-01
 E= -1028.69924932638     Delta-E=       -0.015212527725 Rises=F Damp=F
 DIIS: error= 2.08D-03 at cycle   4 NSaved=   4.
 NSaved= 4 IEnMin= 4 EnMin= -1028.69924932638     IErMin= 4 ErrMin= 2.08D-03
 ErrMax= 2.08D-03  0.00D+00 EMaxC= 1.00D-01 BMatC= 1.84D-03 BMatP= 1.53D-02
 IDIUse=3 WtCom= 9.79D-01 WtEn= 2.08D-02
 Coeff-Com: -0.721D-01 0.142D+00 0.340D+00 0.590D+00
 Coeff-En:   0.000D+00 0.000D+00 0.000D+00 0.100D+01
 Coeff:     -0.706D-01 0.139D+00 0.333D+00 0.599D+00
 Gap=     0.236 Goal=   None    Shift=    0.000
 RMSDP=1.71D-04 MaxDP=9.24D-03 DE=-1.52D-02 OVMax= 1.33D-02

 Cycle   5  Pass 1  IDiag  1:
 RMSU=  1.13D-04    CP:  9.90D-01  1.33D+00  9.25D-01  7.73D-01
 E= -1028.70127715968     Delta-E=       -0.002027833296 Rises=F Damp=F
 DIIS: error= 5.39D-04 at cycle   5 NSaved=   5.
 NSaved= 5 IEnMin= 5 EnMin= -1028.70127715968     IErMin= 5 ErrMin= 5.39D-04
 ErrMax= 5.39D-04  0.00D+00 EMaxC= 1.00D-01 BMatC= 6.26D-05 BMatP= 1.84D-03
 IDIUse=3 WtCom= 9.95D-01 WtEn= 5.39D-03
 Coeff-Com: -0.211D-03-0.602D-02 0.243D-01 0.155D+00 0.827D+00
 Coeff-En:   0.000D+00 0.000D+00 0.000D+00 0.000D+00 0.100D+01
 Coeff:     -0.210D-03-0.599D-02 0.242D-01 0.154D+00 0.828D+00
 Gap=     0.237 Goal=   None    Shift=    0.000
 RMSDP=6.26D-05 MaxDP=2.02D-03 DE=-2.03D-03 OVMax= 6.82D-03

 Cycle   6  Pass 1  IDiag  1:
 RMSU=  4.03D-05    CP:  9.90D-01  1.33D+00  9.42D-01  8.67D-01  1.13D+00
 E= -1028.70142775192     Delta-E=       -0.000150592237 Rises=F Damp=F
 DIIS: error= 2.74D-04 at cycle   6 NSaved=   6.
 NSaved= 6 IEnMin= 6 EnMin= -1028.70142775192     IErMin= 6 ErrMin= 2.74D-04
 ErrMax= 2.74D-04  0.00D+00 EMaxC= 1.00D-01 BMatC= 1.14D-05 BMatP= 6.26D-05
 IDIUse=3 WtCom= 9.97D-01 WtEn= 2.74D-03
 Coeff-Com:  0.181D-01-0.367D-01-0.705D-01-0.882D-01 0.197D+00 0.981D+00
 Coeff-En:   0.000D+00 0.000D+00 0.000D+00 0.000D+00 0.000D+00 0.100D+01
 Coeff:      0.181D-01-0.366D-01-0.703D-01-0.880D-01 0.196D+00 0.981D+00
 Gap=     0.238 Goal=   None    Shift=    0.000
 RMSDP=4.16D-05 MaxDP=1.98D-03 DE=-1.51D-04 OVMax= 5.11D-03

 Cycle   7  Pass 1  IDiag  1:
 RMSU=  1.98D-05    CP:  9.90D-01  1.33D+00  9.56D-01  9.05D-01  1.36D+00
                    CP:  1.35D+00
 E= -1028.70147159728     Delta-E=       -0.000043845364 Rises=F Damp=F
 DIIS: error= 7.87D-05 at cycle   7 NSaved=   7.
 NSaved= 7 IEnMin= 7 EnMin= -1028.70147159728     IErMin= 7 ErrMin= 7.87D-05
 ErrMax= 7.87D-05  0.00D+00 EMaxC= 1.00D-01 BMatC= 2.65D-06 BMatP= 1.14D-05
 IDIUse=1 WtCom= 1.00D+00 WtEn= 0.00D+00
 Coeff-Com:  0.705D-02-0.133D-01-0.285D-01-0.539D-01-0.252D-01 0.409D+00
 Coeff-Com:  0.705D+00
 Coeff:      0.705D-02-0.133D-01-0.285D-01-0.539D-01-0.252D-01 0.409D+00
 Coeff:      0.705D+00
 Gap=     0.238 Goal=   None    Shift=    0.000
 RMSDP=1.40D-05 MaxDP=4.98D-04 DE=-4.38D-05 OVMax= 1.56D-03

 Cycle   8  Pass 1  IDiag  1:
 RMSU=  8.25D-06    CP:  9.90D-01  1.33D+00  9.57D-01  9.12D-01  1.40D+00
                    CP:  1.57D+00  1.13D+00
 E= -1028.70147786309     Delta-E=       -0.000006265806 Rises=F Damp=F
 DIIS: error= 6.28D-05 at cycle   8 NSaved=   8.
 NSaved= 8 IEnMin= 8 EnMin= -1028.70147786309     IErMin= 8 ErrMin= 6.28D-05
 ErrMax= 6.28D-05  0.00D+00 EMaxC= 1.00D-01 BMatC= 4.22D-07 BMatP= 2.65D-06
 IDIUse=1 WtCom= 1.00D+00 WtEn= 0.00D+00
 Coeff-Com: -0.155D-02 0.338D-02 0.707D-02 0.194D-02-0.417D-01-0.894D-01
 Coeff-Com:  0.202D+00 0.918D+00
 Coeff:     -0.155D-02 0.338D-02 0.707D-02 0.194D-02-0.417D-01-0.894D-01
 Coeff:      0.202D+00 0.918D+00
 Gap=     0.238 Goal=   None    Shift=    0.000
 RMSDP=7.99D-06 MaxDP=2.27D-04 DE=-6.27D-06 OVMax= 1.34D-03

 Cycle   9  Pass 1  IDiag  1:
 RMSU=  3.37D-06    CP:  9.90D-01  1.33D+00  9.57D-01  9.11D-01  1.42D+00
                    CP:  1.68D+00  1.39D+00  1.16D+00
 E= -1028.70147966835     Delta-E=       -0.000001805263 Rises=F Damp=F
 DIIS: error= 1.82D-05 at cycle   9 NSaved=   9.
 NSaved= 9 IEnMin= 9 EnMin= -1028.70147966835     IErMin= 9 ErrMin= 1.82D-05
 ErrMax= 1.82D-05  0.00D+00 EMaxC= 1.00D-01 BMatC= 1.39D-07 BMatP= 4.22D-07
 IDIUse=1 WtCom= 1.00D+00 WtEn= 0.00D+00
 Coeff-Com: -0.157D-02 0.309D-02 0.709D-02 0.839D-02-0.129D-01-0.104D+00
 Coeff-Com: -0.605D-01 0.382D+00 0.779D+00
 Coeff:     -0.157D-02 0.309D-02 0.709D-02 0.839D-02-0.129D-01-0.104D+00
 Coeff:     -0.605D-01 0.382D+00 0.779D+00
 Gap=     0.238 Goal=   None    Shift=    0.000
 RMSDP=4.20D-06 MaxDP=1.40D-04 DE=-1.81D-06 OVMax= 5.86D-04

 Cycle  10  Pass 1  IDiag  1:
 RMSU=  1.64D-06    CP:  9.90D-01  1.33D+00  9.57D-01  9.11D-01  1.43D+00
                    CP:  1.74D+00  1.48D+00  1.43D+00  1.17D+00
 E= -1028.70148009211     Delta-E=       -0.000000423755 Rises=F Damp=F
 DIIS: error= 1.21D-05 at cycle  10 NSaved=  10.
 NSaved=10 IEnMin=10 EnMin= -1028.70148009211     IErMin=10 ErrMin= 1.21D-05
 ErrMax= 1.21D-05  0.00D+00 EMaxC= 1.00D-01 BMatC= 2.19D-08 BMatP= 1.39D-07
 IDIUse=1 WtCom= 1.00D+00 WtEn= 0.00D+00
 Coeff-Com:  0.635D-04-0.201D-03 0.939D-04 0.137D-02 0.808D-02-0.890D-02
 Coeff-Com: -0.834D-01-0.807D-01 0.274D+00 0.890D+00
 Coeff:      0.635D-04-0.201D-03 0.939D-04 0.137D-02 0.808D-02-0.890D-02
 Coeff:     -0.834D-01-0.807D-01 0.274D+00 0.890D+00
 Gap=     0.238 Goal=   None    Shift=    0.000
 RMSDP=2.03D-06 MaxDP=5.13D-05 DE=-4.24D-07 OVMax= 3.64D-04

 Cycle  11  Pass 1  IDiag  1:
 RMSU=  6.30D-07    CP:  9.90D-01  1.33D+00  9.57D-01  9.12D-01  1.43D+00
                    CP:  1.76D+00  1.53D+00  1.54D+00  1.48D+00  1.19D+00
 E= -1028.70148018886     Delta-E=       -0.000000096751 Rises=F Damp=F
 DIIS: error= 3.92D-06 at cycle  11 NSaved=  11.
 NSaved=11 IEnMin=11 EnMin= -1028.70148018886     IErMin=11 ErrMin= 3.92D-06
 ErrMax= 3.92D-06  0.00D+00 EMaxC= 1.00D-01 BMatC= 4.65D-09 BMatP= 2.19D-08
 IDIUse=1 WtCom= 1.00D+00 WtEn= 0.00D+00
 Coeff-Com:  0.288D-03-0.593D-03-0.107D-02-0.968D-03 0.541D-02 0.136D-01
 Coeff-Com: -0.227D-01-0.806D-01-0.496D-01 0.300D+00 0.836D+00
 Coeff:      0.288D-03-0.593D-03-0.107D-02-0.968D-03 0.541D-02 0.136D-01
 Coeff:     -0.227D-01-0.806D-01-0.496D-01 0.300D+00 0.836D+00
 Gap=     0.238 Goal=   None    Shift=    0.000
 RMSDP=7.82D-07 MaxDP=2.20D-05 DE=-9.68D-08 OVMax= 1.22D-04

 Cycle  12  Pass 1  IDiag  1:
 RMSU=  2.50D-07    CP:  9.90D-01  1.33D+00  9.57D-01  9.12D-01  1.43D+00
                    CP:  1.77D+00  1.54D+00  1.59D+00  1.58D+00  1.43D+00
                    CP:  1.17D+00
 E= -1028.70148020295     Delta-E=       -0.000000014093 Rises=F Damp=F
 DIIS: error= 1.48D-06 at cycle  12 NSaved=  12.
 NSaved=12 IEnMin=12 EnMin= -1028.70148020295     IErMin=12 ErrMin= 1.48D-06
 ErrMax= 1.48D-06  0.00D+00 EMaxC= 1.00D-01 BMatC= 6.22D-10 BMatP= 4.65D-09
 IDIUse=1 WtCom= 1.00D+00 WtEn= 0.00D+00
 Coeff-Com:  0.121D-03-0.234D-03-0.498D-03-0.854D-03 0.752D-03 0.800D-02
 Coeff-Com:  0.707D-02-0.132D-01-0.801D-01-0.584D-01 0.273D+00 0.864D+00
 Coeff:      0.121D-03-0.234D-03-0.498D-03-0.854D-03 0.752D-03 0.800D-02
 Coeff:      0.707D-02-0.132D-01-0.801D-01-0.584D-01 0.273D+00 0.864D+00
 Gap=     0.238 Goal=   None    Shift=    0.000
 RMSDP=3.25D-07 MaxDP=8.34D-06 DE=-1.41D-08 OVMax= 5.19D-05

 Cycle  13  Pass 1  IDiag  1:
 RMSU=  9.43D-08    CP:  9.90D-01  1.33D+00  9.57D-01  9.12D-01  1.43D+00
                    CP:  1.77D+00  1.54D+00  1.60D+00  1.63D+00  1.52D+00
                    CP:  1.40D+00  1.09D+00
 E= -1028.70148020520     Delta-E=       -0.000000002253 Rises=F Damp=F
 DIIS: error= 5.30D-07 at cycle  13 NSaved=  13.
 NSaved=13 IEnMin=13 EnMin= -1028.70148020520     IErMin=13 ErrMin= 5.30D-07
 ErrMax= 5.30D-07  0.00D+00 EMaxC= 1.00D-01 BMatC= 6.47D-11 BMatP= 6.22D-10
 IDIUse=1 WtCom= 1.00D+00 WtEn= 0.00D+00
 Coeff-Com: -0.142D-04 0.308D-04 0.523D-04-0.374D-04-0.294D-03 0.560D-04
 Coeff-Com:  0.295D-02 0.681D-02-0.896D-02-0.396D-01-0.693D-01 0.168D+00
 Coeff-Com:  0.940D+00
 Coeff:     -0.142D-04 0.308D-04 0.523D-04-0.374D-04-0.294D-03 0.560D-04
 Coeff:      0.295D-02 0.681D-02-0.896D-02-0.396D-01-0.693D-01 0.168D+00
 Coeff:      0.940D+00
 Gap=     0.238 Goal=   None    Shift=    0.000
 RMSDP=9.34D-08 MaxDP=2.12D-06 DE=-2.25D-09 OVMax= 1.15D-05

 Cycle  14  Pass 1  IDiag  1:
 RMSU=  3.40D-08    CP:  9.90D-01  1.33D+00  9.57D-01  9.12D-01  1.43D+00
                    CP:  1.77D+00  1.54D+00  1.61D+00  1.64D+00  1.55D+00
                    CP:  1.45D+00  1.25D+00  1.19D+00
 E= -1028.70148020540     Delta-E=       -0.000000000194 Rises=F Damp=F
 DIIS: error= 1.58D-07 at cycle  14 NSaved=  14.
 NSaved=14 IEnMin=14 EnMin= -1028.70148020540     IErMin=14 ErrMin= 1.58D-07
 ErrMax= 1.58D-07  0.00D+00 EMaxC= 1.00D-01 BMatC= 7.42D-12 BMatP= 6.47D-11
 IDIUse=1 WtCom= 1.00D+00 WtEn= 0.00D+00
 Coeff-Com: -0.135D-04 0.270D-04 0.555D-04 0.536D-04-0.152D-03-0.646D-03
 Coeff-Com:  0.161D-03 0.341D-02 0.412D-02-0.512D-02-0.444D-01-0.243D-01
 Coeff-Com:  0.306D+00 0.760D+00
 Coeff:     -0.135D-04 0.270D-04 0.555D-04 0.536D-04-0.152D-03-0.646D-03
 Coeff:      0.161D-03 0.341D-02 0.412D-02-0.512D-02-0.444D-01-0.243D-01
 Coeff:      0.306D+00 0.760D+00
 Gap=     0.238 Goal=   None    Shift=    0.000
 RMSDP=1.89D-08 MaxDP=5.30D-07 DE=-1.94D-10 OVMax= 2.34D-06

 Cycle  15  Pass 1  IDiag  1:
 RMSU=  1.13D-08    CP:  9.90D-01  1.33D+00  9.57D-01  9.12D-01  1.43D+00
                    CP:  1.77D+00  1.54D+00  1.61D+00  1.64D+00  1.55D+00
                    CP:  1.46D+00  1.28D+00  1.31D+00  1.11D+00
 E= -1028.70148020541     Delta-E=       -0.000000000014 Rises=F Damp=F
 DIIS: error= 7.20D-08 at cycle  15 NSaved=  15.
 NSaved=15 IEnMin=15 EnMin= -1028.70148020541     IErMin=15 ErrMin= 7.20D-08
 ErrMax= 7.20D-08  0.00D+00 EMaxC= 1.00D-01 BMatC= 1.25D-12 BMatP= 7.42D-12
 IDIUse=1 WtCom= 1.00D+00 WtEn= 0.00D+00
 Coeff-Com: -0.238D-05 0.426D-05 0.118D-04 0.319D-04-0.361D-05-0.293D-03
 Coeff-Com: -0.619D-03-0.105D-03 0.346D-02 0.703D-02-0.151D-02-0.514D-01
 Coeff-Com: -0.884D-01 0.224D+00 0.908D+00
 Coeff:     -0.238D-05 0.426D-05 0.118D-04 0.319D-04-0.361D-05-0.293D-03
 Coeff:     -0.619D-03-0.105D-03 0.346D-02 0.703D-02-0.151D-02-0.514D-01
 Coeff:     -0.884D-01 0.224D+00 0.908D+00
 Gap=     0.238 Goal=   None    Shift=    0.000
 RMSDP=1.19D-08 MaxDP=2.92D-07 DE=-1.43D-11 OVMax= 1.42D-06

 Cycle  16  Pass 1  IDiag  1:
 RMSU=  4.93D-09    CP:  9.90D-01  1.33D+00  9.57D-01  9.12D-01  1.43D+00
                    CP:  1.77D+00  1.54D+00  1.61D+00  1.64D+00  1.55D+00
                    CP:  1.46D+00  1.29D+00  1.37D+00  1.30D+00  1.19D+00
 E= -1028.70148020542     Delta-E=       -0.000000000014 Rises=F Damp=F
 DIIS: error= 2.95D-08 at cycle  16 NSaved=  16.
 NSaved=16 IEnMin=16 EnMin= -1028.70148020542     IErMin=16 ErrMin= 2.95D-08
 ErrMax= 2.95D-08  0.00D+00 EMaxC= 1.00D-01 BMatC= 1.40D-13 BMatP= 1.25D-12
 IDIUse=1 WtCom= 1.00D+00 WtEn= 0.00D+00
 Coeff-Com:  0.567D-06-0.125D-05-0.166D-05 0.334D-05 0.918D-05-0.226D-04
 Coeff-Com: -0.173D-03-0.321D-03 0.406D-03 0.211D-02 0.384D-02-0.113D-01
 Coeff-Com: -0.459D-01-0.262D-01 0.250D+00 0.828D+00
 Coeff:      0.567D-06-0.125D-05-0.166D-05 0.334D-05 0.918D-05-0.226D-04
 Coeff:     -0.173D-03-0.321D-03 0.406D-03 0.211D-02 0.384D-02-0.113D-01
 Coeff:     -0.459D-01-0.262D-01 0.250D+00 0.828D+00
 Gap=     0.238 Goal=   None    Shift=    0.000
 RMSDP=3.46D-09 MaxDP=1.11D-07 DE=-1.39D-11 OVMax= 4.74D-07

 Error on total polarization charges =  0.00865
 SCF Done:  E(RwB97XD) =  -1028.70148021     A.U. after   16 cycles
            NFock= 16  Conv=0.35D-08     -V/T= 2.0041
 KE= 1.024454735864D+03 PE=-4.614731649765D+03 EE= 1.460259318804D+03
 Leave Link  502 at Mon Jul 13 19:25:51 2020, MaxMem=  7784628224 cpu:             876.1 elap:              88.3
 (Enter /gpfs/loomis/apps/avx/software/Gaussian/16-C.01_AVX/g16/l801.exe)
 DoSCS=F DFT=T ScalE2(SS,OS)=  1.000000  1.000000
 ExpMin= 1.22D-01 ExpMax= 1.11D+05 ExpMxC= 1.07D+03 IAcc=3 IRadAn=         5 AccDes= 0.00D+00
 HarFok:  IExCor=  205 AccDes= 0.00D+00 IRadAn=         5 IDoV=-2 UseB2=F ITyADJ=14
 ICtDFT= 12500011 ScaDFX=  1.000000  1.000000  1.000000  1.000000
 Largest valence mixing into a core orbital is  9.51D-05
 Largest core mixing into a valence orbital is  3.21D-05
 Range of M.O.s used for correlation:    21   273
 NBasis=   273 NAE=    59 NBE=    59 NFC=    20 NFV=     0
 NROrb=    253 NOA=    39 NOB=    39 NVA=   214 NVB=   214

 **** Warning!!: The largest alpha MO coefficient is  0.10604213D+02

 Leave Link  801 at Mon Jul 13 19:25:51 2020, MaxMem=  7784628224 cpu:               0.9 elap:               0.1
 (Enter /gpfs/loomis/apps/avx/software/Gaussian/16-C.01_AVX/g16/l914.exe)
 RHF ground state
 Keep R1, R2, and R3 ints in memory in canonical form, NReq=4262515490.
 FoFCou: FMM=F IPFlag=           0 FMFlag=           0 FMFlg1=           0
         NFxFlg=           0 DoJE=F BraDBF=F KetDBF=F FulRan=T
         wScrn=  0.000000 ICntrl=       600 IOpCl=  0 I1Cent=           0 NGrid=           0
         NMat0=    1 NMatS0=  37401 NMatT0=    0 NMatD0=    1 NMtDS0=    0 NMtDT0=    0
 Symmetry not used in FoFCou.
 Two-electron integral symmetry not used.
 MDV=  7784628224 DFT=T DoStab=F Mixed=T DoRPA=T DoScal=F NonHer=T
 NEqPCM:  Using equilibrium solvation (IEInf=0, Eps=   2.2280, EpsInf=   2.1319)
 Making orbital integer symmetry assigments:
    12 initial guesses have been made.
 Convergence on wavefunction:    0.000001000000000
 Davidson Disk Diagonalization:  ConvIn= 1.00D-06 SkipCon=T Conv= 1.00D-06.
 Max sub-space:  2000 roots to seek:    12 dimension of matrix:        16692
 Iteration     1 Dimension    12 NMult     0 NNew     12
 CISAX will form    12 AO SS matrices at one time.
 NMat=    12 NSing=    12 JSym2X= 0.
 New state      3 was old state      4
 Excitation Energies [eV] at current iteration:
 Root      1 :     3.434281445966616
 Root      2 :     3.710907811485959
 Root      3 :     4.857952618882652
 Root      4 :     5.203538270400501
 Root      5 :     5.217423419669396
 Root      6 :     5.715581250653204
 Root      7 :     5.869901681547482
 Root      8 :     6.344295849885984
 Root      9 :     6.496740729053537
 Root     10 :     6.718459486577505
 Root     11 :     6.966694690370992
 Root     12 :     7.196377499507773
 Iteration     2 Dimension    18 NMult    12 NNew      6
 CISAX will form     6 AO SS matrices at one time.
 NMat=     6 NSing=     6 JSym2X= 0.
 Root      1 not converged, maximum delta is    0.043132764767365
 Root      2 not converged, maximum delta is    0.110135829709635
 Root      3 not converged, maximum delta is    0.080570458258238
 Excitation Energies [eV] at current iteration:
 Root      1 :     2.919034495867014   Change is   -0.515246950099602
 Root      2 :     3.501255831783883   Change is   -0.209651979702076
 Root      3 :     4.405498431011894   Change is   -0.452454187870757
 Iteration     3 Dimension    24 NMult    18 NNew      6
 CISAX will form     6 AO SS matrices at one time.
 NMat=     6 NSing=     6 JSym2X= 0.
 Root      1 not converged, maximum delta is    0.015753872090223
 Root      2 not converged, maximum delta is    0.029385314132241
 Root      3 not converged, maximum delta is    0.028519056415998
 Excitation Energies [eV] at current iteration:
 Root      1 :     2.889451280435020   Change is   -0.029583215431994
 Root      2 :     3.480973429159596   Change is   -0.020282402624287
 Root      3 :     4.376495629322581   Change is   -0.029002801689313
 Iteration     4 Dimension    30 NMult    24 NNew      6
 CISAX will form     6 AO SS matrices at one time.
 NMat=     6 NSing=     6 JSym2X= 0.
 Root      1 not converged, maximum delta is    0.008516053759933
 Root      2 not converged, maximum delta is    0.009959184805297
 Root      3 not converged, maximum delta is    0.016408315010897
 Excitation Energies [eV] at current iteration:
 Root      1 :     2.884834326089904   Change is   -0.004616954345116
 Root      2 :     3.479046491719051   Change is   -0.001926937440545
 Root      3 :     4.370534842500327   Change is   -0.005960786822255
 Iteration     5 Dimension    36 NMult    30 NNew      6
 CISAX will form     6 AO SS matrices at one time.
 NMat=     6 NSing=     6 JSym2X= 0.
 Root      1 not converged, maximum delta is    0.001895647285494
 Root      2 not converged, maximum delta is    0.001347622520856
 Root      3 not converged, maximum delta is    0.009388852231642
 Excitation Energies [eV] at current iteration:
 Root      1 :     2.884234598315073   Change is   -0.000599727774831
 Root      2 :     3.478939064618739   Change is   -0.000107427100312
 Root      3 :     4.369164196540997   Change is   -0.001370645959328
 Iteration     6 Dimension    42 NMult    36 NNew      6
 CISAX will form     6 AO SS matrices at one time.
 NMat=     6 NSing=     6 JSym2X= 0.
 Root      1 not converged, maximum delta is    0.000351209706024
 Root      2 not converged, maximum delta is    0.000339097659098
 Root      3 not converged, maximum delta is    0.002417559289820
 Excitation Energies [eV] at current iteration:
 Root      1 :     2.884192400827268   Change is   -0.000042197487805
 Root      2 :     3.478933763384768   Change is   -0.000005301233971
 Root      3 :     4.368978288952461   Change is   -0.000185907588537
 Iteration     7 Dimension    48 NMult    42 NNew      6
 CISAX will form     6 AO SS matrices at one time.
 NMat=     6 NSing=     6 JSym2X= 0.
 Root      1 not converged, maximum delta is    0.000108130256513
 Root      2 not converged, maximum delta is    0.000125868927556
 Root      3 not converged, maximum delta is    0.000491034250559
 Excitation Energies [eV] at current iteration:
 Root      1 :     2.884188920454101   Change is   -0.000003480373167
 Root      2 :     3.478933291136620   Change is   -0.000000472248148
 Root      3 :     4.368958488798751   Change is   -0.000019800153710
 Iteration     8 Dimension    54 NMult    48 NNew      6
 CISAX will form     6 AO SS matrices at one time.
 NMat=     6 NSing=     6 JSym2X= 0.
 Root      1 not converged, maximum delta is    0.000030738333994
 Root      2 not converged, maximum delta is    0.000012304797877
 Root      3 not converged, maximum delta is    0.000184027261775
 Excitation Energies [eV] at current iteration:
 Root      1 :     2.884188750287277   Change is   -0.000000170166825
 Root      2 :     3.478933270453838   Change is   -0.000000020682782
 Root      3 :     4.368956539290178   Change is   -0.000001949508573
 Iteration     9 Dimension    60 NMult    54 NNew      6
 CISAX will form     6 AO SS matrices at one time.
 NMat=     6 NSing=     6 JSym2X= 0.
 Root      1 not converged, maximum delta is    0.000010279099191
 Root      2 not converged, maximum delta is    0.000002018945294
 Root      3 not converged, maximum delta is    0.000039194189952
 Excitation Energies [eV] at current iteration:
 Root      1 :     2.884188736173848   Change is   -0.000000014113428
 Root      2 :     3.478933269600414   Change is   -0.000000000853425
 Root      3 :     4.368956404667133   Change is   -0.000000134623045
 Iteration    10 Dimension    66 NMult    60 NNew      6
 CISAX will form     6 AO SS matrices at one time.
 NMat=     6 NSing=     6 JSym2X= 0.
 Root      1 not converged, maximum delta is    0.000003000686927
 Root      2 not converged, maximum delta is    0.000001159060731
 Root      3 not converged, maximum delta is    0.000020688839307
 Excitation Energies [eV] at current iteration:
 Root      1 :     2.884188735240524   Change is   -0.000000000933325
 Root      2 :     3.478933269543394   Change is   -0.000000000057020
 Root      3 :     4.368956387203742   Change is   -0.000000017463391
 Iteration    11 Dimension    72 NMult    66 NNew      6
 CISAX will form     6 AO SS matrices at one time.
 NMat=     6 NSing=     6 JSym2X= 0.
 Root      1 has converged.
 Root      2 has converged.
 Root      3 not converged, maximum delta is    0.000005409621722
 Excitation Energies [eV] at current iteration:
 Root      1 :     2.884188735175623   Change is   -0.000000000064901
 Root      2 :     3.478933269536399   Change is   -0.000000000006995
 Root      3 :     4.368956385458080   Change is   -0.000000001745662
 Iteration    12 Dimension    74 NMult    72 NNew      2
 CISAX will form     2 AO SS matrices at one time.
 NMat=     2 NSing=     2 JSym2X= 0.
 Root      1 has converged.
 Root      2 has converged.
 Root      3 not converged, maximum delta is    0.000001018366985
 Excitation Energies [eV] at current iteration:
 Root      1 :     2.884188735174027   Change is   -0.000000000001596
 Root      2 :     3.478933269536257   Change is   -0.000000000000142
 Root      3 :     4.368956385333385   Change is   -0.000000000124695
 Iteration    13 Dimension    76 NMult    74 NNew      2
 CISAX will form     2 AO SS matrices at one time.
 NMat=     2 NSing=     2 JSym2X= 0.
 Root      1 has converged.
 Root      2 has converged.
 Root      3 has converged.
 Excitation Energies [eV] at current iteration:
 Root      1 :     2.884188735173827   Change is   -0.000000000000199
 Root      2 :     3.478933269536399   Change is    0.000000000000142
 Root      3 :     4.368956385324146   Change is   -0.000000000009238
 Convergence achieved on expansion vectors.
 ***********************************************************************
 Excited states from <AA,BB:AA,BB> singles matrix:
 ***********************************************************************
 
 1PDM for each excited state written to RWF  633
 Ground to excited state transition densities written to RWF  633
 Ground to excited state transition electric dipole moments (Au):
       state          X           Y           Z        Dip. S.      Osc.
         1         1.1461     -2.2478     -0.0000      6.3663      0.4499
         2        -0.0000      0.0000     -0.0039      0.0000      0.0000
         3        -1.6224      1.0342      0.0000      3.7020      0.3962
 Ground to excited state transition velocity dipole moments (Au):
       state          X           Y           Z        Dip. S.      Osc.
         1        -0.1172      0.2416      0.0000      0.0721      0.4535
         2         0.0000     -0.0000      0.0007      0.0000      0.0000
         3         0.2554     -0.1561     -0.0000      0.0896      0.3720
 Ground to excited state transition magnetic dipole moments (Au):
       state          X           Y           Z
         1         0.0000      0.0000     -1.1458
         2         0.4051     -0.0021      0.0000
         3        -0.0000      0.0000     -1.0145
 Ground to excited state transition velocity quadrupole moments (Au):
       state          XX          YY          ZZ          XY          XZ          YZ
         1         0.0258      0.6499     -0.0124     -0.2789     -0.0000      0.0000
         2        -0.0000     -0.0000      0.0000      0.0000     -0.0063      0.0193
         3        -0.4733      0.5112      0.0045      0.1040      0.0000      0.0000
 <0|del|b> * <b|rxdel|0> + <0|del|b> * <b|delr+rdel|0>
 Rotatory Strengths (R) in cgs (10**-40 erg-esu-cm/Gauss)
       state          XX          YY          ZZ    R(velocity)    E-M Angle
         1         0.0078     -0.0211      0.0186      0.0018       90.00
         2        -0.0000      0.0025      0.0024      0.0016       90.00
         3         0.0017      0.0031     -0.0069     -0.0007       90.00
 1/2[<0|r|b>*<b|rxdel|0> + (<0|rxdel|b>*<b|r|0>)*]
 Rotatory Strengths (R) in cgs (10**-40 erg-esu-cm/Gauss)
       state          XX          YY          ZZ     R(length)
         1        -0.0095      0.0438     -0.0293      0.0017
         2         0.0047      0.0001      0.0000      0.0016
         3        -0.0051     -0.0045      0.0079     -0.0005
  1/2[<0|del|b>*<b|r|0> + (<0|r|b>*<b|del|0>)*] (Au)
       state          X           Y           Z        Dip. S.   Osc.(frdel)
         1        -0.1344     -0.5430     -0.0000      0.6774      0.4516
         2        -0.0000     -0.0000     -0.0000      0.0000      0.0000
         3        -0.4144     -0.1614     -0.0000      0.5758      0.3839

 Excitation energies and oscillator strengths:
 
 Excited state symmetry could not be determined.
 Excited State   1:      Singlet-?Sym    2.8842 eV  429.88 nm  f=0.4499  <S**2>=0.000
      59 -> 60         0.69905
 This state for optimization and/or second-order correction.
 Total Energy, E(TD-HF/TD-DFT) =  -1028.59548822    
 Copying the excited state density for this state as the 1-particle RhoCI density.
 
 Excited state symmetry could not be determined.
 Excited State   2:      Singlet-?Sym    3.4789 eV  356.39 nm  f=0.0000  <S**2>=0.000
      58 -> 60         0.68410
      58 -> 62         0.11393
      58 -> 64         0.11361
 
 Excited state symmetry could not be determined.
 Excited State   3:      Singlet-?Sym    4.3690 eV  283.78 nm  f=0.3962  <S**2>=0.000
      57 -> 60         0.68388
 SavETr:  write IOETrn=   770 NScale= 10 NData=  16 NLR=1 NState=    3 LETran=      64.
 The selected state is a singlet.
 CISGrd: IGrad=2 NXY=2 DFT=T
 CISAX will form     1 AO SS matrices at one time.
 NMat=     1 NSing=     1 JSym2X= 0.
 GePol: Maximum number of non-zero 1st derivatives   =     260
 Leave Link  914 at Mon Jul 13 19:28:51 2020, MaxMem=  7784628224 cpu:            1774.2 elap:             180.1
 (Enter /gpfs/loomis/apps/avx/software/Gaussian/16-C.01_AVX/g16/l1002.exe)
 Minotr:  Closed shell wavefunction.
          Computing CIS/TDA/TD derivatives.
          Using Z-Vector for PSCF gradient.
          Skipping F1 and S1 gradient terms here.
          IDoAtm=1111111111111111111111111
 NEqPCM:  Using equilibrium solvation (IEInf=0, Eps=   2.2280, EpsInf=   2.1319)
          Frozen-core window.
          Direct CPHF calculation.
          Differentiating once with respect to electric field.
                with respect to dipole field.
          Differentiating once with respect to nuclear coordinates.
          Requested convergence is 1.0D-10 RMS, and 1.0D-09 maximum.
          NewPWx=F KeepS1=T KeepF1=T KeepIn=T MapXYZ=F SortEE=F KeepMc=T.
 Keep R1 ints in memory in canonical form, NReq=1421424926.
 FoFCou: FMM=F IPFlag=           0 FMFlag=           0 FMFlg1=           0
         NFxFlg=           0 DoJE=F BraDBF=F KetDBF=F FulRan=T
         wScrn=  0.000000 ICntrl=       600 IOpCl=  0 I1Cent=           0 NGrid=           0
         NMat0=    1 NMatS0=  37401 NMatT0=    0 NMatD0=    1 NMtDS0=    0 NMtDT0=    0
 Symmetry not used in FoFCou.
 Two-electron integral symmetry not used.
          MDV=    7784628224 using IRadAn=       5.
          Solving linear equations separately, MaxMat=       0.
          There are     1 degrees of freedom in the 1st order CPHF.  IDoFFX=0 NUNeed=     1.
 LinEq1:  Iter=  0 NonCon=     1 RMS=6.85D-03 Max=5.50D-01 NDo=     1
 AX will form     1 AO Fock derivatives at one time.
 LinEq1:  Iter=  1 NonCon=     1 RMS=3.16D-03 Max=1.75D-01 NDo=     1
 LinEq1:  Iter=  2 NonCon=     1 RMS=1.62D-03 Max=3.82D-02 NDo=     1
 LinEq1:  Iter=  3 NonCon=     1 RMS=7.55D-04 Max=2.12D-02 NDo=     1
 LinEq1:  Iter=  4 NonCon=     1 RMS=4.50D-04 Max=1.30D-02 NDo=     1
 LinEq1:  Iter=  5 NonCon=     1 RMS=2.19D-04 Max=7.46D-03 NDo=     1
 LinEq1:  Iter=  6 NonCon=     1 RMS=9.02D-05 Max=4.32D-03 NDo=     1
 LinEq1:  Iter=  7 NonCon=     1 RMS=4.65D-05 Max=1.51D-03 NDo=     1
 LinEq1:  Iter=  8 NonCon=     1 RMS=1.75D-05 Max=5.89D-04 NDo=     1
 LinEq1:  Iter=  9 NonCon=     1 RMS=8.12D-06 Max=2.05D-04 NDo=     1
 LinEq1:  Iter= 10 NonCon=     1 RMS=3.07D-06 Max=7.60D-05 NDo=     1
 LinEq1:  Iter= 11 NonCon=     1 RMS=1.51D-06 Max=5.39D-05 NDo=     1
 LinEq1:  Iter= 12 NonCon=     1 RMS=6.48D-07 Max=1.65D-05 NDo=     1
 LinEq1:  Iter= 13 NonCon=     1 RMS=3.42D-07 Max=1.17D-05 NDo=     1
 LinEq1:  Iter= 14 NonCon=     1 RMS=1.10D-07 Max=2.73D-06 NDo=     1
 LinEq1:  Iter= 15 NonCon=     1 RMS=5.76D-08 Max=1.66D-06 NDo=     1
 LinEq1:  Iter= 16 NonCon=     1 RMS=2.52D-08 Max=7.66D-07 NDo=     1
 LinEq1:  Iter= 17 NonCon=     1 RMS=1.20D-08 Max=3.49D-07 NDo=     1
 LinEq1:  Iter= 18 NonCon=     1 RMS=5.26D-09 Max=1.11D-07 NDo=     1
 LinEq1:  Iter= 19 NonCon=     1 RMS=2.20D-09 Max=6.03D-08 NDo=     1
 LinEq1:  Iter= 20 NonCon=     1 RMS=1.12D-09 Max=2.79D-08 NDo=     1
 LinEq1:  Iter= 21 NonCon=     1 RMS=3.77D-10 Max=1.14D-08 NDo=     1
 LinEq1:  Iter= 22 NonCon=     1 RMS=1.60D-10 Max=4.78D-09 NDo=     1
 LinEq1:  Iter= 23 NonCon=     1 RMS=6.86D-11 Max=1.66D-09 NDo=     1
 LinEq1:  Iter= 24 NonCon=     0 RMS=1.92D-11 Max=4.85D-10 NDo=     1
 Linear equations converged to 1.000D-10 1.000D-09 after    24 iterations.
 End of Minotr F.D. properties file   721 does not exist.
 End of Minotr F.D. properties file   722 does not exist.
 End of Minotr F.D. properties file   788 does not exist.
 Leave Link 1002 at Mon Jul 13 19:30:29 2020, MaxMem=  7784628224 cpu:             734.5 elap:              98.0
 (Enter /gpfs/loomis/apps/avx/software/Gaussian/16-C.01_AVX/g16/l601.exe)
 Copying SCF densities to generalized density rwf, IOpCl= 0 IROHF=0.

 **********************************************************************

            Population analysis using the SCF Density.

 **********************************************************************

 Alpha  occ. eigenvalues --  -89.10752 -19.20463 -14.50689 -10.41847 -10.37823
 Alpha  occ. eigenvalues --  -10.36503 -10.35566 -10.33506 -10.33037 -10.32643
 Alpha  occ. eigenvalues --  -10.32480 -10.31399 -10.30713 -10.30676 -10.29193
 Alpha  occ. eigenvalues --  -10.28286  -8.12751  -6.07627  -6.07261  -6.06761
 Alpha  occ. eigenvalues --   -1.15056  -1.09215  -0.99266  -0.96100  -0.93591
 Alpha  occ. eigenvalues --   -0.89301  -0.87299  -0.83890  -0.81197  -0.77737
 Alpha  occ. eigenvalues --   -0.75476  -0.72297  -0.69475  -0.67805  -0.65804
 Alpha  occ. eigenvalues --   -0.60873  -0.59798  -0.56873  -0.56382  -0.56151
 Alpha  occ. eigenvalues --   -0.55086  -0.53744  -0.53148  -0.50587  -0.49306
 Alpha  occ. eigenvalues --   -0.48831  -0.48612  -0.47012  -0.45531  -0.44909
 Alpha  occ. eigenvalues --   -0.44180  -0.43044  -0.42528  -0.40086  -0.36832
 Alpha  occ. eigenvalues --   -0.33859  -0.31631  -0.31258  -0.25767
 Alpha virt. eigenvalues --   -0.01954   0.03556   0.05465   0.06069   0.09492
 Alpha virt. eigenvalues --    0.10618   0.13662   0.14639   0.16431   0.17388
 Alpha virt. eigenvalues --    0.18930   0.20126   0.21151   0.21302   0.23185
 Alpha virt. eigenvalues --    0.23612   0.24194   0.25772   0.28466   0.30162
 Alpha virt. eigenvalues --    0.30625   0.33963   0.35665   0.35819   0.36676
 Alpha virt. eigenvalues --    0.38138   0.39432   0.39889   0.41810   0.44902
 Alpha virt. eigenvalues --    0.46697   0.48739   0.50881   0.51104   0.51390
 Alpha virt. eigenvalues --    0.52798   0.52888   0.52943   0.54164   0.55569
 Alpha virt. eigenvalues --    0.56274   0.56431   0.56484   0.57061   0.57723
 Alpha virt. eigenvalues --    0.57941   0.59031   0.59475   0.59654   0.60755
 Alpha virt. eigenvalues --    0.61231   0.61605   0.62065   0.62658   0.63060
 Alpha virt. eigenvalues --    0.64662   0.66790   0.67093   0.68670   0.69576
 Alpha virt. eigenvalues --    0.70256   0.70759   0.72006   0.72253   0.73001
 Alpha virt. eigenvalues --    0.74384   0.75268   0.76066   0.76792   0.78765
 Alpha virt. eigenvalues --    0.78822   0.79609   0.81434   0.81499   0.83378
 Alpha virt. eigenvalues --    0.85615   0.88427   0.90621   0.91552   0.92487
 Alpha virt. eigenvalues --    0.93871   0.94487   0.96133   0.97445   0.97791
 Alpha virt. eigenvalues --    0.98862   0.99490   1.00442   1.00798   1.01248
 Alpha virt. eigenvalues --    1.02677   1.05156   1.05987   1.06115   1.07263
 Alpha virt. eigenvalues --    1.08590   1.09169   1.10184   1.11209   1.11354
 Alpha virt. eigenvalues --    1.12692   1.12925   1.13545   1.14543   1.15447
 Alpha virt. eigenvalues --    1.17285   1.18972   1.20254   1.23263   1.24195
 Alpha virt. eigenvalues --    1.26866   1.27224   1.31545   1.33647   1.33668
 Alpha virt. eigenvalues --    1.34605   1.36714   1.38178   1.41229   1.45077
 Alpha virt. eigenvalues --    1.49293   1.49352   1.53221   1.54777   1.55257
 Alpha virt. eigenvalues --    1.55879   1.57337   1.57424   1.57745   1.59827
 Alpha virt. eigenvalues --    1.60370   1.62222   1.62589   1.65367   1.67776
 Alpha virt. eigenvalues --    1.68690   1.70094   1.71437   1.71774   1.71979
 Alpha virt. eigenvalues --    1.72412   1.73609   1.73722   1.74988   1.75429
 Alpha virt. eigenvalues --    1.78538   1.78849   1.80516   1.81923   1.82299
 Alpha virt. eigenvalues --    1.83658   1.84676   1.84756   1.85452   1.86568
 Alpha virt. eigenvalues --    1.86961   1.90019   1.91459   1.92135   1.92431
 Alpha virt. eigenvalues --    1.94113   1.94398   1.95745   1.96392   1.98430
 Alpha virt. eigenvalues --    2.00559   2.01209   2.02361   2.05058   2.06005
 Alpha virt. eigenvalues --    2.06993   2.07705   2.09949   2.11057   2.14244
 Alpha virt. eigenvalues --    2.17723   2.20131   2.22705   2.24228   2.27307
 Alpha virt. eigenvalues --    2.27945   2.29965   2.35026   2.37752   2.39529
 Alpha virt. eigenvalues --    2.40903   2.42854   2.46620   2.48868   2.50494
 Alpha virt. eigenvalues --    2.52402   2.54857   2.61772   2.63109   2.65150
 Alpha virt. eigenvalues --    2.68623   2.71970   2.73935   2.78629   2.80290
 Alpha virt. eigenvalues --    2.81860   2.82360   2.83566   2.88804   2.93277
 Alpha virt. eigenvalues --    2.93928   3.03754   3.17544   3.32960   3.49709
 Alpha virt. eigenvalues --    3.52827   3.59061   3.69639   4.10159
          Condensed to atoms (all electrons):
               1          2          3          4          5          6
     1  C    4.733923   0.482784   0.011500  -0.052701  -0.010841   0.508518
     2  C    0.482784   5.389709   0.260449  -0.065201  -0.074214  -0.002758
     3  C    0.011500   0.260449   4.908064   0.521556  -0.001216  -0.069786
     4  C   -0.052701  -0.065201   0.521556   4.799317   0.516503  -0.013354
     5  C   -0.010841  -0.074214  -0.001216   0.516503   4.724751   0.501140
     6  C    0.508518  -0.002758  -0.069786  -0.013354   0.501140   4.734537
     7  H    0.404884  -0.040473   0.009380  -0.000587   0.008164  -0.038773
     8  H   -0.000591   0.010804  -0.024794   0.394052  -0.041133   0.007361
     9  H    0.008657  -0.000356   0.008197  -0.038155   0.405594  -0.043638
    10  H   -0.042667   0.009579  -0.000554   0.008650  -0.042569   0.407828
    11  N    0.003606  -0.036468   0.412293  -0.053629   0.002419   0.000383
    12  S   -0.067197   0.338489  -0.137739   0.003535   0.000109   0.004320
    13  C   -0.000239  -0.000453   0.015706  -0.000159   0.000016  -0.000002
    14  C   -0.000007   0.000031   0.000409   0.000008  -0.000000  -0.000000
    15  C    0.000003  -0.000179   0.000327   0.000004  -0.000001   0.000000
    16  C    0.000000  -0.000003   0.000003  -0.000000   0.000000   0.000000
    17  H   -0.000005   0.000112  -0.000001   0.000000   0.000000   0.000000
    18  C    0.000000   0.000011  -0.000047  -0.000001  -0.000000  -0.000000
    19  C   -0.000000  -0.000000   0.000002  -0.000000  -0.000000   0.000000
    20  H   -0.000000  -0.000000  -0.000000   0.000000   0.000000  -0.000000
    21  H   -0.000000   0.000000  -0.000001  -0.000000  -0.000000   0.000000
    22  H    0.000000  -0.000000  -0.000000  -0.000000   0.000000  -0.000000
    23  C    0.003403  -0.055237  -0.093230   0.004752   0.000397  -0.000403
    24  O    0.000002  -0.000217  -0.000896   0.000100   0.000001  -0.000000
    25  H    0.000276   0.018805  -0.034202  -0.018932  -0.000457  -0.000016
               7          8          9         10         11         12
     1  C    0.404884  -0.000591   0.008657  -0.042667   0.003606  -0.067197
     2  C   -0.040473   0.010804  -0.000356   0.009579  -0.036468   0.338489
     3  C    0.009380  -0.024794   0.008197  -0.000554   0.412293  -0.137739
     4  C   -0.000587   0.394052  -0.038155   0.008650  -0.053629   0.003535
     5  C    0.008164  -0.041133   0.405594  -0.042569   0.002419   0.000109
     6  C   -0.038773   0.007361  -0.043638   0.407828   0.000383   0.004320
     7  H    0.649216   0.000028  -0.000143  -0.011580  -0.000101  -0.007279
     8  H    0.000028   0.637807  -0.011751  -0.000114  -0.005759  -0.000247
     9  H   -0.000143  -0.011751   0.655735  -0.012225  -0.000098   0.000022
    10  H   -0.011580  -0.000114  -0.012225   0.656423   0.000005  -0.000137
    11  N   -0.000101  -0.005759  -0.000098   0.000005   5.727796  -0.043128
    12  S   -0.007279  -0.000247   0.000022  -0.000137  -0.043128  15.447527
    13  C    0.000004   0.000049  -0.000000  -0.000000  -0.022872  -0.071022
    14  C    0.000001   0.000001   0.000000  -0.000000   0.003731  -0.007427
    15  C   -0.000000  -0.000009   0.000000   0.000000  -0.006302   0.004451
    16  C    0.000000  -0.000000  -0.000000  -0.000000  -0.000084   0.000078
    17  H    0.000001   0.000000   0.000000  -0.000000   0.000261   0.006736
    18  C    0.000000  -0.000000  -0.000000  -0.000000  -0.000651  -0.000109
    19  C    0.000000   0.000000  -0.000000   0.000000   0.000025   0.000016
    20  H    0.000000  -0.000000   0.000000   0.000000   0.000001   0.000001
    21  H   -0.000000   0.000000  -0.000000   0.000000   0.000005   0.000003
    22  H    0.000000  -0.000000  -0.000000  -0.000000  -0.000000  -0.000000
    23  C    0.000217  -0.000641   0.000007   0.000004   0.499603   0.307133
    24  O    0.000000  -0.000187   0.000000  -0.000000  -0.028095  -0.000080
    25  H    0.000009   0.000931  -0.000017  -0.000000   0.378924   0.007851
              13         14         15         16         17         18
     1  C   -0.000239  -0.000007   0.000003   0.000000  -0.000005   0.000000
     2  C   -0.000453   0.000031  -0.000179  -0.000003   0.000112   0.000011
     3  C    0.015706   0.000409   0.000327   0.000003  -0.000001  -0.000047
     4  C   -0.000159   0.000008   0.000004  -0.000000   0.000000  -0.000001
     5  C    0.000016  -0.000000  -0.000001   0.000000   0.000000  -0.000000
     6  C   -0.000002  -0.000000   0.000000   0.000000   0.000000  -0.000000
     7  H    0.000004   0.000001  -0.000000   0.000000   0.000001   0.000000
     8  H    0.000049   0.000001  -0.000009  -0.000000   0.000000  -0.000000
     9  H   -0.000000   0.000000   0.000000  -0.000000   0.000000  -0.000000
    10  H   -0.000000  -0.000000   0.000000  -0.000000  -0.000000  -0.000000
    11  N   -0.022872   0.003731  -0.006302  -0.000084   0.000261  -0.000651
    12  S   -0.071022  -0.007427   0.004451   0.000078   0.006736  -0.000109
    13  C    5.522650   0.423228   0.159675  -0.003801  -0.043095  -0.040906
    14  C    0.423228   4.866940   0.012892   0.538000   0.400179  -0.065308
    15  C    0.159675   0.012892   4.727507  -0.056036   0.006253   0.453395
    16  C   -0.003801   0.538000  -0.056036   4.769456  -0.032034  -0.016838
    17  H   -0.043095   0.400179   0.006253  -0.032034   0.682171  -0.001006
    18  C   -0.040906  -0.065308   0.453395  -0.016838  -0.001006   4.925094
    19  C   -0.052800  -0.016770  -0.003585   0.473066   0.008465   0.490867
    20  H    0.009235  -0.036734  -0.000161   0.400071  -0.012199   0.008404
    21  H    0.016030  -0.000628  -0.024056   0.007745   0.000056   0.370734
    22  H   -0.001702   0.009737   0.008595  -0.046901  -0.000203  -0.039072
    23  C    0.337440  -0.101012  -0.068619   0.006485  -0.020805   0.011960
    24  O   -0.099813   0.006468   0.679209  -0.000200  -0.000076  -0.069198
    25  H   -0.056695  -0.000872  -0.004745   0.000071  -0.000093   0.003972
              19         20         21         22         23         24
     1  C   -0.000000  -0.000000  -0.000000   0.000000   0.003403   0.000002
     2  C   -0.000000  -0.000000   0.000000  -0.000000  -0.055237  -0.000217
     3  C    0.000002  -0.000000  -0.000001  -0.000000  -0.093230  -0.000896
     4  C   -0.000000   0.000000  -0.000000  -0.000000   0.004752   0.000100
     5  C   -0.000000   0.000000  -0.000000   0.000000   0.000397   0.000001
     6  C    0.000000  -0.000000   0.000000  -0.000000  -0.000403  -0.000000
     7  H    0.000000   0.000000  -0.000000   0.000000   0.000217   0.000000
     8  H    0.000000  -0.000000   0.000000  -0.000000  -0.000641  -0.000187
     9  H   -0.000000   0.000000  -0.000000  -0.000000   0.000007   0.000000
    10  H    0.000000   0.000000   0.000000  -0.000000   0.000004  -0.000000
    11  N    0.000025   0.000001   0.000005  -0.000000   0.499603  -0.028095
    12  S    0.000016   0.000001   0.000003  -0.000000   0.307133  -0.000080
    13  C   -0.052800   0.009235   0.016030  -0.001702   0.337440  -0.099813
    14  C   -0.016770  -0.036734  -0.000628   0.009737  -0.101012   0.006468
    15  C   -0.003585  -0.000161  -0.024056   0.008595  -0.068619   0.679209
    16  C    0.473066   0.400071   0.007745  -0.046901   0.006485  -0.000200
    17  H    0.008465  -0.012199   0.000056  -0.000203  -0.020805  -0.000076
    18  C    0.490867   0.008404   0.370734  -0.039072   0.011960  -0.069198
    19  C    4.754246  -0.047487  -0.047805   0.402694   0.000170   0.004946
    20  H   -0.047487   0.690859  -0.000170  -0.012718  -0.000392   0.000001
    21  H   -0.047805  -0.000170   0.685458  -0.012969  -0.000496   0.005820
    22  H    0.402694  -0.012718  -0.012969   0.679256   0.000011  -0.000082
    23  C    0.000170  -0.000392  -0.000496   0.000011   5.140507  -0.017855
    24  O    0.004946   0.000001   0.005820  -0.000082  -0.017855   7.836517
    25  H   -0.000361  -0.000000  -0.000000   0.000005   0.026620   0.075191
              25
     1  C    0.000276
     2  C    0.018805
     3  C   -0.034202
     4  C   -0.018932
     5  C   -0.000457
     6  C   -0.000016
     7  H    0.000009
     8  H    0.000931
     9  H   -0.000017
    10  H   -0.000000
    11  N    0.378924
    12  S    0.007851
    13  C   -0.056695
    14  C   -0.000872
    15  C   -0.004745
    16  C    0.000071
[...]
 00000002,-0.00052939,0.00022294,0.00000017,0.00034911,-0.00017329,-0.0
 0000008,-0.00007544,0.00009466,-0.00000002,0.00005573,-0.00006828,0.,0
 .00002467,-0.00003323,0.,-0.00001710,-0.00000485,0.,0.00003144,0.00000
 359,0.,0.00001030,-0.00000399,0.,0.00003117,-0.00000520,0.,0.00062400,
 0.00057764,0.00000020,-0.00128798,0.00156520,-0.00000050,-0.00573229,-
 0.03021009,-0.00000311,-0.09328270,-0.09364172,-0.00000925,-0.00426228
 ,0.00363864,-0.00000050,0.01064567,0.02023038,0.00000186,0.09669903,0.
 00003787,-0.00002455,-0.00000002,-0.00021076,0.00052743,-0.00000013,0.
 00027816,0.00001650,-0.00000009,-0.00002525,0.00004519,0.,0.00001815,0
 .00004019,0.,-0.00008371,-0.00000894,0.00000002,-0.00000932,0.00001223
 ,-0.00000001,0.00001605,-0.00000340,-0.00000001,-0.00000233,0.00000097
 ,0.,-0.00000088,0.00000248,0.,0.00006476,0.00026711,0.00000023,0.00002
 734,-0.00084600,0.00000032,0.00073229,-0.00205193,-0.00000070,-0.09223
 607,-0.30321560,-0.00002562,0.00025890,0.00230587,-0.00000064,-0.01191
 519,-0.01700267,-0.00000213,0.09866524,0.32168158,0.00000003,0.0000001
 1,0.00002980,0.00000034,0.00000021,-0.00031872,0.00000058,-0.00000063,
 0.00065721,-0.00000037,0.00000007,0.00007973,0.00000003,-0.00000025,-0
 .00001407,0.00000010,0.00000009,-0.00000992,0.,0.,0.00003214,0.0000000
 1,0.,0.00002826,0.,0.,-0.00000384,0.,0.,-0.00001233,0.00000022,0.00000
 150,-0.00188438,-0.00000072,0.00000029,0.00121742,0.00000098,-0.000003
 99,0.00808044,-0.00001024,-0.00002497,-0.03616744,-0.00000106,0.000000
 82,0.00968173,-0.00000052,-0.00000116,0.00368423,0.00001093,0.00002819
 ,0.02094371,-0.00145918,0.00031046,0.00000047,-0.00459185,-0.00378440,
 0.00000052,-0.00526971,0.01139060,-0.00000138,0.00534068,-0.00067405,-
 0.00000018,-0.00026491,0.00204241,-0.00000002,0.00104137,-0.00130828,-
 0.00000002,-0.00011481,0.00009017,0.,0.00005828,-0.00000656,-0.0000000
 2,0.00011481,0.00000800,0.00000001,0.00008959,-0.00006814,-0.00000009,
 0.01098785,-0.00114185,0.00000162,0.00086616,-0.00318913,0.00000006,0.
 02540128,0.01106430,0.00000143,-0.03770186,0.02077824,-0.00000012,-0.1
 2520355,0.06331798,0.00000682,-0.01275080,-0.08598975,-0.00000753,-0.0
 0060436,0.00038874,0.00000048,0.65571568,0.00069073,-0.00003953,-0.000
 00010,0.00021358,0.00009631,-0.00000002,0.00098426,-0.00164812,0.00000
 028,-0.00109728,0.00013764,0.00000002,0.00014304,-0.00037439,0.,-0.000
 34458,0.00016445,0.00000002,0.00000523,0.00000753,0.,-0.00000672,-0.00
 000344,0.,-0.00002114,-0.00000377,0.,0.00001167,0.00001331,0.00000002,
 -0.00067835,0.00045868,-0.00000067,0.00129293,-0.00066206,0.,0.0117961
 8,-0.02927834,-0.00000133,0.00862003,-0.00450229,-0.00000012,0.0667838
 6,-0.22388537,-0.00001094,-0.03684037,-0.00066316,-0.00000152,-0.00021
 116,0.00076244,-0.00000008,0.06178482,0.67900898,0.00000021,0.00000006
 ,0.00021022,0.00000013,0.00000037,0.00055443,0.00000096,-0.00000078,0.
 00135013,-0.00000039,0.00000001,-0.00016620,0.00000008,-0.00000015,-0.
 00006383,-0.00000009,0.00000012,-0.00013067,0.,0.00000002,0.00012933,0
 .00000002,0.,0.00009294,0.,0.,0.00001017,0.,0.,-0.00007163,-0.00000095
 ,0.00000260,-0.00321519,-0.00000003,-0.00000049,0.00172266,0.00000163,
 -0.00000387,0.01382596,-0.00000174,0.00000228,-0.00541038,0.00000634,-
 0.00001106,-0.06708435,-0.00000297,-0.00000430,0.00775556,0.00000018,0
 .00000026,-0.00234419,0.00002142,0.00005013,0.10837889,0.00143681,0.00
 035189,-0.00000044,0.00588503,0.00386926,-0.00000085,0.00726346,-0.013
 51987,0.00000077,-0.00680149,0.00086939,0.00000030,0.00034609,-0.00324
 258,0.00000013,-0.00029858,0.00176239,0.,0.00007993,-0.00008295,-0.000
 00005,-0.00000234,0.00002947,-0.00000004,-0.00009476,-0.00002869,-0.00
 000003,-0.00004481,0.00007005,0.00000010,-0.01159953,0.00763329,0.0000
 0019,-0.00033122,0.00164993,-0.00000019,-0.01510261,-0.01277020,-0.000
 00185,0.05794493,0.00203928,0.00000243,-0.05581882,0.02013395,-0.00000
 332,-0.14788240,-0.01917504,-0.00000376,-0.00282479,0.00451764,0.00000
 005,-0.31521414,-0.06344803,-0.00001169,0.65896541,0.00014650,0.000946
 05,-0.00000023,0.00314614,0.00129750,-0.00000014,0.00339855,-0.0050548
 3,0.00000062,-0.00352011,0.00059470,0.00000015,0.00012535,-0.00244432,
 0.00000009,0.00093196,0.00090841,-0.00000006,-0.00000667,-0.00003965,0
 .,0.00002072,0.00000992,0.,0.00000492,-0.00005393,-0.00000001,0.000023
 81,0.00003667,0.00000003,-0.00055260,0.00460480,-0.00000144,-0.0016996
 4,0.00049416,0.00000016,-0.03136226,-0.00509448,-0.00000089,0.05382036
 ,-0.05658248,-0.00000303,-0.00507606,0.02469824,-0.00000121,-0.1120213
 2,-0.32388302,-0.00002294,0.00340723,-0.00167833,-0.00000065,0.0063157
 7,-0.12683417,-0.00000637,-0.05517513,0.71454816,0.00000003,0.00000006
 ,0.00012841,0.00000035,0.00000006,-0.00033887,0.00000010,-0.00000050,-
 0.00101434,-0.00000033,0.00000005,0.00008235,-0.00000002,-0.00000020,0
 .00009133,0.00000006,0.00000006,0.00001932,0.,-0.00000001,-0.00005863,
 0.,0.,-0.00011486,0.,0.,-0.00000076,0.,0.,0.00000720,-0.00000006,-0.00
 000024,0.00093906,-0.00000010,0.00000032,0.00025928,-0.00000337,-0.000
 00093,-0.00138386,0.00000593,-0.00000484,0.00790575,-0.00000105,0.0000
 0443,0.00116266,-0.00001137,-0.00002108,-0.05737341,0.,-0.00000032,0.0
 0369451,-0.00000752,-0.00000892,-0.05007187,0.00001125,0.00004579,0.11
 475588,0.00007176,-0.00010545,0.,-0.00011220,0.00012464,0.,-0.00002703
 ,-0.00007259,0.,0.00002569,0.00001126,0.,0.00000470,0.00010616,0.,-0.0
 0015250,-0.00000841,0.,0.00000631,0.00000595,0.,-0.00000108,-0.0000045
 2,0.,-0.00001053,0.00000735,0.,-0.00000920,0.00000404,0.,-0.00017855,0
 .00037789,-0.00000002,0.00004589,0.00001120,0.,0.00009222,0.00330094,0
 .00000019,-0.01450487,-0.00767330,-0.00000121,0.00058537,0.00041327,0.
 00000012,-0.33430042,-0.06097820,-0.00001348,0.00068329,0.00010374,0.0
 0000005,0.00140197,-0.00169274,-0.00000033,-0.00473519,0.00235642,-0.0
 0000013,0.35149419,0.00000508,0.00000360,0.,-0.00004979,-0.00008387,0.
 ,0.00002108,0.00019183,-0.00000005,0.00005193,-0.00005236,0.,0.0000122
 5,0.00003759,0.,-0.00000464,-0.00002651,0.,-0.00000024,-0.00000189,0.,
 0.00000036,0.00000100,0.,0.00000334,-0.00000357,0.,0.00000236,-0.00000
 168,0.,0.00037375,-0.00042017,0.00000004,0.00001842,0.00003172,-0.0000
 0002,0.00301713,-0.00403300,-0.00000050,0.02312948,0.00775889,0.000000
 99,0.00057158,-0.00085753,0.00000012,-0.06045772,-0.07221705,-0.000004
 76,-0.00031300,0.00086186,0.00000025,-0.00095447,-0.00532154,-0.000000
 98,-0.02915997,0.00078477,-0.00000120,0.06459084,0.07125520,0.,0.,-0.0
 0000478,-0.00000005,-0.00000001,0.00007922,0.00000002,0.00000009,0.000
 45121,0.00000004,0.,0.00005737,0.,0.00000003,-0.00005726,0.,0.,0.00000
 410,0.,0.,0.00001297,0.,0.,0.00003565,0.,0.,-0.00001607,0.,0.,-0.00000
 778,-0.00000001,0.00000003,0.00012335,0.00000002,-0.00000003,-0.000169
 29,-0.00000028,-0.00000046,0.00399510,0.00000117,-0.00000019,0.0047401
 0,0.00000003,-0.00000018,-0.00153863,-0.00001319,-0.00000470,-0.034536
 64,0.00000004,0.00000030,-0.00217678,0.00000017,-0.00000071,0.00666437
 ,-0.00000264,-0.00000062,0.00642884,0.00001465,0.00000563,0.02158772,-
 0.00011875,0.00003435,0.,0.00010843,0.00004797,0.00000001,-0.00010565,
 0.00007382,0.,0.00004101,0.00000980,0.,-0.00002156,-0.00003993,0.,0.00
 009063,0.00001365,0.,-0.00000026,-0.00000447,0.,-0.00000396,0.00000064
 ,0.,0.00000323,-0.00000104,0.,-0.00000263,-0.00000170,0.,0.00022739,-0
 .00019027,-0.00000008,-0.00029962,0.00014586,0.00000006,-0.00339336,0.
 00303686,0.,-0.00005131,0.00030623,-0.00000002,0.00943720,0.02059244,0
 .00000227,-0.00598738,0.00038711,-0.00000031,0.00008888,-0.00009842,-0
 .00000003,-0.08927079,-0.09295138,-0.00001020,-0.00355557,-0.02881592,
 -0.00000281,-0.00038391,-0.00144943,-0.00000008,0.08963931,0.00003834,
 0.00005680,0.00000004,-0.00010828,-0.00013977,0.00000005,0.00004710,0.
 00006168,0.00000003,-0.00000036,-0.00000219,0.,0.00000736,-0.00003878,
 0.,0.00005744,-0.00001831,-0.00000001,-0.00000682,0.00000234,0.,0.0000
 0643,0.00000336,0.,0.00000780,-0.00000370,0.,0.00001145,-0.00000253,0.
 ,-0.00015449,0.00008753,-0.00000009,0.00029878,-0.00020771,0.00000010,
 0.00396346,-0.00236107,-0.00000009,0.00048111,0.00033062,0.00000004,-0
 .01363402,-0.01734771,-0.00000257,-0.00051624,0.00144290,-0.00000041,-
 0.00007787,-0.00007037,-0.00000010,-0.09166452,-0.31252012,-0.00002794
 ,0.00256380,-0.00006129,-0.00000055,0.00007091,-0.00013319,0.00000010,
 0.09975204,0.32828875,0.,-0.00000010,-0.00034607,-0.00000033,-0.000000
 14,-0.00033548,-0.00000036,0.00000047,-0.00006849,0.00000028,-0.000000
 04,0.00002509,-0.00000001,0.00000018,-0.00004300,-0.00000007,-0.000000
 07,0.00008413,0.,0.,-0.00003919,0.,0.,0.00002614,0.,0.,-0.00000588,0.,
 0.,0.00007363,0.00000005,-0.00000087,0.00071179,0.00000024,0.00000007,
 -0.00087383,0.00000015,0.00000085,0.00231319,0.00000028,-0.00000050,0.
 00006687,-0.00000277,-0.00000233,0.00409722,-0.00000046,-0.00000050,0.
 00532650,-0.00000009,-0.00000004,0.00032418,-0.00000982,-0.00002864,-0
 .03105555,0.00000060,-0.00000036,0.00428131,-0.00000001,-0.00000004,-0
 .00042787,0.00001103,0.00003091,0.02053578,0.00004523,-0.00002734,0.,0
 .00000064,0.00010890,-0.00000002,0.00015770,-0.00011801,-0.00000005,-0
 .00006754,0.00000634,0.,0.00001248,0.00000704,0.,-0.00006102,0.0000108
 9,0.,0.00000202,0.00000285,0.,0.00000398,-0.00000340,0.,-0.00000611,0.
 00000195,0.,-0.00000394,0.00000358,0.,0.00012163,0.00038240,0.00000010
 ,-0.00006986,0.00009360,-0.00000006,-0.00041004,-0.00046473,-0.0000001
 7,0.00051878,-0.00246480,-0.00000031,-0.00253777,-0.00416934,-0.000000
 44,0.00966178,-0.00970202,-0.00000058,0.00036884,-0.00042913,0.0000000
 4,-0.01345056,0.02499568,0.00000152,-0.18338384,0.14366254,0.00000687,
 0.00068668,0.00037289,0.00000017,0.00107594,-0.00033378,0.00000006,0.1
 8947406,-0.00000204,0.00006870,-0.00000001,0.00016053,0.00008251,-0.00
 000004,0.00019431,-0.00031373,-0.00000002,-0.00017606,0.00003286,0.000
 00001,0.00000422,-0.00014416,0.,0.00008370,0.00004838,0.,-0.00000421,-
 0.00000486,0.,0.00000394,0.00000448,0.,0.00000508,-0.00000389,0.,0.000
 00612,-0.00000168,0.,-0.00025347,0.00009645,0.00000008,-0.00009212,0.0
 0002629,0.,-0.00057627,0.00030559,0.,-0.00305831,-0.00395503,-0.000000
 84,-0.00230380,0.00010173,-0.00000049,0.02214443,-0.01565626,-0.000000
 83,0.00100095,-0.00106776,-0.00000009,-0.00632023,0.00778099,0.0000002
 8,0.14198625,-0.22124322,-0.00001090,-0.00014512,0.00100347,0.00000046
 ,0.00031962,0.00061083,0.00000028,-0.15294130,0.23147569,-0.00000003,0
 .00000007,0.00000780,0.00000016,0.00000003,0.00009152,0.00000016,-0.00
 000019,0.00016480,-0.00000013,0.00000003,0.00000668,0.,-0.00000012,-0.
 00000275,0.00000008,0.00000004,-0.00000822,0.,0.,0.00000999,0.,0.,0.00
 001510,0.,0.,-0.00000018,0.,0.,-0.00001078,0.00000012,0.00000031,-0.00
 022928,-0.00000011,-0.00000005,-0.00006196,0.00000028,-0.00000023,-0.0
 0072163,-0.00000032,-0.00000073,0.00621449,-0.00000091,-0.00000078,0.0
 0640415,0.00000201,-0.00000141,0.00340070,0.00000007,-0.00000012,0.000
 47633,-0.00000026,0.00000111,0.00322401,0.00000614,-0.00001119,-0.0335
 7475,0.00000018,0.00000042,-0.00420532,0.00000016,0.00000039,-0.003344
 43,-0.00000725,0.00001200,0.02333938,-0.00224849,-0.00698419,0.0000003
 0,-0.00435838,0.02180673,-0.00000033,-0.05606860,0.03223802,0.00000125
 ,0.00622329,-0.00268064,-0.00000015,-0.00101365,0.00477202,-0.00000015
 ,-0.00541220,-0.00189364,0.00000019,0.00027784,-0.00068968,0.00000006,
 -0.00063238,-0.00005752,-0.00000005,0.00018501,-0.00010483,0.,-0.00065
 399,-0.00017507,0.00000006,-0.35804323,-0.03961396,0.00001612,-0.04957
 835,-0.04843414,0.00000363,-0.15783505,0.06946140,0.00000429,-0.040736
 80,0.03264059,0.00000076,0.04270977,0.01268965,0.00000142,-0.00407106,
 -0.00993550,0.00000005,0.00027818,0.00068992,-0.00000134,-0.00588056,-
 0.00302382,-0.00000179,-0.00018474,0.00406851,0.00000103,-0.00054236,0
 .00068366,-0.00000011,0.00063800,-0.00105348,0.00000049,0.00006874,-0.
 00004418,-0.00000043,0.66296590,-0.00029567,-0.00037383,-0.00000011,0.
 02316825,-0.01910090,0.00000080,0.01913870,0.01159946,-0.00000228,0.00
 128151,-0.00640235,0.00000056,-0.00042788,-0.00098632,0.00000017,0.001
 32830,-0.00084484,-0.00000001,0.00010798,-0.00046822,0.00000004,-0.000
 44426,0.00009062,-0.00000005,0.00028298,-0.00049277,-0.00000002,-0.000
 21355,0.00004557,0.00000002,-0.02970329,-0.12756621,0.00000287,-0.0108
 5488,-0.17326867,0.00000971,0.05074100,-0.17597404,-0.00000299,0.02368
 282,0.01021357,0.00000037,0.01728178,-0.04768449,-0.00000143,-0.004382
 38,0.00180422,-0.00000157,-0.00170731,0.00014635,0.00000150,-0.0132227
 8,-0.00305687,-0.00000044,0.00806129,-0.00047760,0.00000029,-0.0007033
 6,0.00096638,0.00000003,0.00073297,-0.00060727,-0.00000081,0.00000943,
 0.00036522,0.00000043,-0.06274868,0.51892221,-0.00000010,0.00000040,0.
 00081262,-0.00000135,-0.00000012,-0.00099130,0.00000049,-0.00000067,0.
 00462686,0.00000006,0.00000057,0.00155804,0.00000005,-0.00000019,0.001
 19375,0.00000048,0.00000017,0.00072404,-0.00000003,0.00000004,-0.00034
 394,0.00000003,-0.00000003,-0.00059170,-0.00000003,0.00000001,-0.00042
 449,0.00000004,0.,-0.00019906,0.00001845,0.00000626,-0.02500980,0.0000
 0223,0.00000833,-0.01710662,0.00000098,-0.00000220,-0.03327930,-0.0000
 0172,0.00000234,0.00740857,0.00000356,-0.00000257,0.00346787,0.0000004
 7,-0.00000231,0.00492226,0.00000019,0.00000035,-0.00362456,-0.00000186
 ,0.00000009,-0.00066737,0.00000111,0.00000085,-0.00046605,0.00000005,0
 .00000011,-0.00101259,0.,-0.00000034,0.00222476,0.00000012,0.00000007,
 -0.00051013,-0.00002421,-0.00001160,0.06275164,-0.00049188,0.00132812,
 0.00000022,-0.00055389,0.00042887,-0.00000034,0.00553837,0.00098374,-0
 .00000093,-0.00018516,-0.00003548,0.00000010,0.00001109,-0.00097727,0.
 00000014,0.00160675,0.00013627,-0.00000004,-0.00015404,0.00013673,-0.0
 0000005,0.00022090,0.00006486,-0.00000009,0.00006045,-0.00000031,-0.00
 000002,0.00009776,-0.00000194,-0.00000005,0.00419563,0.02446911,0.0000
 0496,0.00011084,-0.00141409,-0.00000039,-0.03498034,-0.05179389,-0.000
 00604,0.00366443,-0.00481666,-0.00000012,-0.52847327,-0.08584807,-0.00
 002721,-0.00977709,-0.00796827,-0.00000098,-0.00170239,-0.00092676,0.0
 0000011,-0.09083821,0.02313913,-0.00000303,0.01637684,0.01644352,0.000
 00132,-0.00020993,-0.00046985,0.00000001,0.00188352,0.00025311,0.00000
 088,-0.00237227,0.00006166,0.00000006,-0.02004223,0.00772430,-0.000000
 27,0.65131619,-0.00039395,-0.00023886,0.,0.00059215,-0.00199526,0.0000
 0042,-0.00560147,-0.00067033,0.00000003,0.00051240,-0.00031795,-0.0000
 0002,0.00001030,0.00044462,-0.00000003,0.00000051,-0.00039368,0.000000
 02,0.00005482,-0.00016576,0.00000003,0.00007584,0.00002936,0.,0.000082
 81,-0.00006185,0.,0.00002053,-0.00003371,0.,0.01455256,-0.02434403,-0.
 00000479,0.00030002,0.00113653,-0.00000012,-0.04874481,-0.01410673,-0.
 00000272,-0.00112949,-0.01057327,-0.00000160,-0.08580941,-0.10300287,-
 0.00000631,0.00055090,-0.00227373,0.00000001,-0.00249621,-0.00043204,-
 0.00000045,0.03357716,0.02078773,0.00000075,0.00256745,-0.00236101,-0.
 00000108,-0.00010269,0.00034725,0.00000024,-0.00205074,0.00267751,0.00
 000126,0.00143944,0.00039546,0.00000021,0.00197195,0.00921696,0.000000
 96,0.09478840,0.13460944,-0.00000033,0.00000005,0.00022679,0.00000033,
 -0.00000083,-0.00025089,-0.00000166,0.00000023,-0.00036397,0.00000023,
 0.,0.00011032,-0.00000007,-0.00000003,0.00018457,0.00000026,-0.0000001
 2,0.00003941,0.00000001,-0.00000005,-0.00009085,0.,0.00000001,-0.00020
 846,0.00000003,-0.00000002,-0.00002130,0.,0.,-0.00006337,0.00000402,-0
 .00000596,0.00793862,-0.00000008,0.00000020,-0.00099758,-0.00000395,-0
 .00000556,0.01816735,-0.00000066,-0.00000083,0.00245285,-0.00002738,-0
 .00000585,-0.05579173,-0.00000042,-0.00000125,0.00017858,-0.00000005,0
 .00000012,-0.00210047,-0.00000346,0.00000162,0.01635184,0.00000152,0.0
 0000121,0.00419460,-0.00000002,-0.00000001,0.00008087,-0.00000003,0.00
 000048,-0.00368634,0.00000003,0.00000003,-0.00057117,0.00000012,0.0000
 0233,-0.00307353,0.00003451,0.00001314,0.02216332,0.00136494,0.0004847
 6,-0.00000006,-0.00325610,0.00531402,-0.00000030,0.01523752,0.02265689
 ,-0.00000139,0.00106700,0.00091578,-0.00000012,-0.00015239,-0.00025582
 ,0.00000004,-0.00032948,0.00002593,0.00000002,-0.00018843,0.00032302,-
 0.00000003,-0.00125801,-0.00092109,0.00000005,-0.00000431,-0.00001507,
 0.,-0.00004946,-0.00006542,0.,-0.14290678,-0.17702837,0.00000975,-0.00
 419038,-0.00207734,0.00000019,0.00214912,0.00005435,-0.00000065,-0.000
 15451,-0.00008008,0.00000008,-0.00916406,0.00051527,0.00000007,0.00041
 717,0.00005249,-0.00000016,0.00022966,0.00013905,0.00000032,0.00159761
 ,-0.00014557,0.00000071,-0.00042368,0.00035742,-0.00000017,0.00006971,
 0.00000495,0.00000004,-0.00003877,-0.00000929,-0.00000013,0.00016443,-
 0.00005367,0.00000003,-0.00604466,-0.02883725,0.00000126,0.00469794,-0
 .00476848,-0.00000296,0.14116590,-0.00018999,-0.00040774,0.00000016,0.
 00319126,0.00062798,-0.00000001,-0.00262475,-0.02118877,0.00000099,-0.
 00233282,0.00229817,0.00000009,-0.00026102,-0.00136702,0.00000009,-0.0
 0008651,0.00088411,-0.00000005,0.00013172,-0.00002742,-0.00000002,0.00
 042202,0.00001794,0.,-0.00015579,0.00015240,-0.00000002,-0.00001839,0.
 00007429,-0.00000003,-0.17144463,-0.40292718,0.00002437,0.00274044,0.0
 0629183,-0.00000086,-0.00511715,0.00259437,0.00000134,0.00417993,-0.00
 200647,-0.00000032,0.01548788,0.00564917,0.00000175,-0.00299042,0.0042
 5319,0.00000061,-0.00051765,-0.00026862,-0.00000068,-0.00274448,-0.000
 42487,-0.00000053,-0.00150287,-0.00311506,-0.00000028,0.00000176,-0.00
 009122,0.,0.00014994,-0.00004832,0.00000040,-0.00044366,-0.00000806,-0
 .00000022,-0.00358313,0.00393381,-0.00000050,-0.01570520,-0.00867378,0
 .00000107,0.18341351,0.41377727,-0.00000005,0.00000035,0.00064169,0.00
 000005,0.00000044,0.00341382,0.00000140,0.00000125,0.00102646,-0.00000
 002,-0.00000008,-0.00138447,-0.00000003,-0.00000018,-0.00054325,0.0000
 0025,0.00000004,-0.00003978,-0.00000005,0.00000004,-0.00006183,0.00000
 001,0.00000005,0.00003021,0.,0.00000001,0.00010807,0.,0.,0.00000965,0.
 00000846,0.00002263,-0.01108279,0.00000011,0.00000031,0.00375143,0.000
 00037,-0.00000096,-0.00110263,-0.00000108,0.00000027,-0.00029123,0.000
 00133,0.00000167,0.00059241,0.00000031,-0.00000067,0.00024494,-0.00000
 004,0.00000002,-0.00027298,-0.00000073,-0.00000025,0.00001071,0.000000
 25,0.00000022,0.00044689,-0.00000002,0.,-0.00010786,0.00000003,-0.0000
 0003,0.00013554,-0.00000005,0.00000003,-0.00011436,-0.00000120,0.00000
 219,-0.00238995,-0.00000273,0.00000002,-0.00486946,-0.00000659,-0.0000
 2736,0.01184877\\0.00168814,0.00365364,-0.00000028,0.00498502,0.007439
 30,-0.00000058,0.00921541,-0.00039370,0.00000005,-0.00105915,0.0018687
 3,0.00000017,-0.00010098,-0.00194157,0.00000022,0.00145343,0.00153036,
 -0.00000019,-0.00005794,0.00044531,-0.00000009,0.00020981,0.00006206,-
 0.00000006,0.00000629,0.00012643,-0.00000003,0.00008583,0.00015738,-0.
 00000002,-0.01338478,0.00913631,0.00000357,0.00296010,0.00743786,-0.00
 000109,-0.00754818,0.00455466,-0.00000009,0.00702047,-0.00038836,0.000
 00100,0.01356412,0.00267279,-0.00000217,-0.00256476,0.00724789,-0.0000
 0037,0.00019450,-0.00001524,0.00000029,-0.00315332,0.00034510,0.000001
 24,-0.00479232,-0.00047578,-0.00000004,-0.00019129,0.00006245,-0.00000
 003,-0.00019100,-0.00003112,-0.00000025,-0.00050223,-0.00018355,0.0000
 0004,-0.00837103,-0.00526408,-0.00000009,-0.00721955,-0.01092138,0.000
 00018,0.00775342,-0.02712549,-0.00000137\\\@
 The archive entry for this job was punched.


 SUCCESS-- IF YOU HAVE TRIED TO DO SOMETHING AND FAILED
           YOU ARE BETTER OFF THAN IF YOU HAD TRIED TO DO
           NOTHING AND SUCCEEDED.

                   -- FROM THE BACK OF A SUGAR PACKET
 Job cpu time:       0 days  2 hours 50 minutes  1.7 seconds.
 Elapsed time:       0 days  0 hours 17 minutes 34.4 seconds.
 File lengths (MBytes):  RWF=   1376 Int=      0 D2E=      0 Chk=     48 Scr=      8
 Normal termination of Gaussian 16 at Mon Jul 13 20:20:34 2020.
