 Entering Gaussian System, Link 0=g16
 Initial command:
 /gpfs/loomis/apps/avx/software/Gaussian/16-C.01_AVX/g16/l1.exe "/home/fas/batista/pev4/scratch60/gauss-scratch/Gau-204146.inp" -scrdir="/home/fas/batista/pev4/scratch60/gauss-scratch/"
 Entering Link 1 = /gpfs/loomis/apps/avx/software/Gaussian/16-C.01_AVX/g16/l1.exe PID=    204147.
  
 Copyright (c) 1988-2019, Gaussian, Inc.  All Rights Reserved.
  
 This is part of the Gaussian(R) 16 program.  It is based on
 the Gaussian(R) 09 system (copyright 2009, Gaussian, Inc.),
 the Gaussian(R) 03 system (copyright 2003, Gaussian, Inc.),
 the Gaussian(R) 98 system (copyright 1998, Gaussian, Inc.),
 the Gaussian(R) 94 system (copyright 1995, Gaussian, Inc.),
 the Gaussian 92(TM) system (copyright 1992, Gaussian, Inc.),
 the Gaussian 90(TM) system (copyright 1990, Gaussian, Inc.),
 the Gaussian 88(TM) system (copyright 1988, Gaussian, Inc.),
 the Gaussian 86(TM) system (copyright 1986, Carnegie Mellon
 University), and the Gaussian 82(TM) system (copyright 1983,
 Carnegie Mellon University). Gaussian is a federally registered
 trademark of Gaussian, Inc.
  
 This software contains proprietary and confidential information,
 including trade secrets, belonging to Gaussian, Inc.
  
 This software is provided under written license and may be
 used, copied, transmitted, or stored only in accord with that
 written license.
  
 The following legend is applicable only to US Government
 contracts under FAR:
  
                    RESTRICTED RIGHTS LEGEND
  
 Use, reproduction and disclosure by the US Government is
 subject to restrictions as set forth in subparagraphs (a)
 and (c) of the Commercial Computer Software - Restricted
 Rights clause in FAR 52.227-19.
  
 Gaussian, Inc.
 340 Quinnipiac St., Bldg. 40, Wallingford CT 06492
  
  
 ---------------------------------------------------------------
 Warning -- This program may not be used in any manner that
 competes with the business of Gaussian, Inc. or will provide
 assistance to any competitor of Gaussian, Inc.  The licensee
 of this program is prohibited from giving any competitor of
 Gaussian, Inc. access to this program.  By using this program,
 the user acknowledges that Gaussian, Inc. is engaged in the
 business of creating and licensing software in the field of
 computational chemistry and represents and warrants to the
 licensee that it is not a competitor of Gaussian, Inc. and that
 it will not use this program in any manner prohibited above.
 ---------------------------------------------------------------
  

 Cite this work as:
 Gaussian 16, Revision C.01,
 M. J. Frisch, G. W. Trucks, H. B. Schlegel, G. E. Scuseria, 
 M. A. Robb, J. R. Cheeseman, G. Scalmani, V. Barone, 
 G. A. Petersson, H. Nakatsuji, X. Li, M. Caricato, A. V. Marenich, 
 J. Bloino, B. G. Janesko, R. Gomperts, B. Mennucci, H. P. Hratchian, 
 J. V. Ortiz, A. F. Izmaylov, J. L. Sonnenberg, D. Williams-Young, 
 F. Ding, F. Lipparini, F. Egidi, J. Goings, B. Peng, A. Petrone, 
 T. Henderson, D. Ranasinghe, V. G. Zakrzewski, J. Gao, N. Rega, 
 G. Zheng, W. Liang, M. Hada, M. Ehara, K. Toyota, R. Fukuda, 
 J. Hasegawa, M. Ishida, T. Nakajima, Y. Honda, O. Kitao, H. Nakai, 
 T. Vreven, K. Throssell, J. A. Montgomery, Jr., J. E. Peralta, 
 F. Ogliaro, M. J. Bearpark, J. J. Heyd, E. N. Brothers, K. N. Kudin, 
 V. N. Staroverov, T. A. Keith, R. Kobayashi, J. Normand, 
 K. Raghavachari, A. P. Rendell, J. C. Burant, S. S. Iyengar, 
 J. Tomasi, M. Cossi, J. M. Millam, M. Klene, C. Adamo, R. Cammi, 
 J. W. Ochterski, R. L. Martin, K. Morokuma, O. Farkas, 
 J. B. Foresman, and D. J. Fox, Gaussian, Inc., Wallingford CT, 2019.
 
 ******************************************
 Gaussian 16:  ES64L-G16RevC.01  3-Jul-2019
                14-Jul-2020 
 ******************************************
 %chk=config_7_18.chk
 %mem=58GB
 %nprocshared=10
 Will use up to   10 processors via shared memory.
 ----------------------------------------------------------------------
 #p opt=addgic freq td wb97xd/cc-pvdz nosymm int=ultrafine scrf=(solven
 t=CarbonTetraChloride)
 ----------------------------------------------------------------------
 1/18=20,19=15,26=6,38=1,145=903/1,3;
 2/9=110,12=2,15=1,17=6,18=5,40=1/2;
 3/5=16,11=9,25=1,30=1,70=2201,71=1,72=11,74=-58,75=-5/1,2,3,8;
 4//1;
 5/5=2,38=5,53=11/2;
 8/6=1,10=1/1;
 9/15=2,42=1,70=2/14;
 10/5=4,31=1/2;
 6/7=2,8=2,9=2,10=2/1;
 7/12=6,13=5,30=1/1,2,3,16;
 1/18=20,19=15,26=6,145=903/3(2);
 2/9=110,15=1/2;
 99//99;
 2/9=110,15=1/2;
 3/5=16,11=9,25=1,30=1,70=2205,71=1,72=11,74=-58,75=-5/1,2,3,8;
 4/5=5,16=3,69=1/1;
 5/5=2,38=5,53=11/2;
 8/6=1,10=1/1;
 9/15=2,42=1,49=4,70=2/14;
 10/5=4,31=1/2;
 7/12=6,13=5,30=1/1,2,3,16;
 1/18=20,19=15,26=6,145=903/3(-8);
 2/9=110,15=1/2;
 6/7=2,8=2,9=2,10=2/1;
 99/9=10/99;
 Leave Link    1 at Tue Jul 14 14:38:02 2020, MaxMem=  7784628224 cpu:               5.2 elap:               0.6
 (Enter /gpfs/loomis/apps/avx/software/Gaussian/16-C.01_AVX/g16/l101.exe)
 ------------------------------------------------
 NM 2D-scan of HBT TD-WB97XD pVDZ in CTC Relaxed.
 ------------------------------------------------
 Symbolic Z-matrix:
 Charge =  0 Multiplicity = 1
 C                     1.51906  -3.24878  -0.00002 
 C                     1.00095  -1.94994  -0.00002 
 C                     1.80825  -0.76993  -0.00003 
 C                     3.21358  -0.9566   -0.00003 
 C                     3.73106  -2.26052  -0.00002 
 C                     2.90677  -3.40311  -0.00002 
 H                     0.84293  -4.11526  -0.00001 
 H                     3.8882   -0.08855  -0.00004 
 H                     4.81976  -2.39147  -0.00003 
 H                     3.3508   -4.40485  -0.00001 
 N                     1.05776   0.39181  -0.00003 
 S                    -0.6946   -1.56659  -0.00003 
 C                    -1.30696   1.07795   0.00001 
 C                    -2.66269   0.71097   0.00003 
 C                    -0.91048   2.49089   0.00004 
 C                    -3.65595   1.71029   0.00003 
 H                    -2.95322  -0.34742   0.00002 
 C                    -1.95029   3.46899   0.00004 
 C                    -3.30248   3.07436   0.00003 
 H                    -4.71224   1.4185    0.00004 
 H                    -1.66319   4.52872   0.00005 
 H                    -4.09011   3.83548   0.00003 
 C                    -0.2777    0.11386  -0.00002 
 O                     0.34625   2.7466    0.00006 
 H                     1.01345   1.53291   0.00002 
 
 Initializing the GIC definitions file.
 Number of initial coordinates =   134
 Number of input entries/lines =    52
 Number of additional coordinates =     2
 Number of removed coordinates =     0
 Number of frozen coordinates =     2
 Number of final active and frozen coordinates =   136
 ITRead=  0  0  0  0  0  0  0  0  0  0  0  0  0  0  0  0  0  0  0  0
 ITRead=  0  0  0  0  0
 MicOpt= -1 -1 -1 -1 -1 -1 -1 -1 -1 -1 -1 -1 -1 -1 -1 -1 -1 -1 -1 -1
 MicOpt= -1 -1 -1 -1 -1
 NAtoms=     25 NQM=       25 NQMF=       0 NMMI=      0 NMMIF=      0
                NMic=       0 NMicF=      0.
                    Isotopes and Nuclear Properties:
 (Nuclear quadrupole moments (NQMom) in fm**2, nuclear magnetic moments (NMagM)
  in nuclear magnetons)

  Atom         1           2           3           4           5           6           7           8           9          10
 IAtWgt=          12          12          12          12          12          12           1           1           1           1
 AtmWgt=  12.0000000  12.0000000  12.0000000  12.0000000  12.0000000  12.0000000   1.0078250   1.0078250   1.0078250   1.0078250
 NucSpn=           0           0           0           0           0           0           1           1           1           1
 AtZEff=  -0.0000000  -0.0000000  -0.0000000  -0.0000000  -0.0000000  -0.0000000  -0.0000000  -0.0000000  -0.0000000  -0.0000000
 NQMom=    0.0000000   0.0000000   0.0000000   0.0000000   0.0000000   0.0000000   0.0000000   0.0000000   0.0000000   0.0000000
 NMagM=    0.0000000   0.0000000   0.0000000   0.0000000   0.0000000   0.0000000   2.7928460   2.7928460   2.7928460   2.7928460
 AtZNuc=   6.0000000   6.0000000   6.0000000   6.0000000   6.0000000   6.0000000   1.0000000   1.0000000   1.0000000   1.0000000

  Atom        11          12          13          14          15          16          17          18          19          20
 IAtWgt=          14          32          12          12          12          12           1          12          12           1
 AtmWgt=  14.0030740  31.9720718  12.0000000  12.0000000  12.0000000  12.0000000   1.0078250  12.0000000  12.0000000   1.0078250
 NucSpn=           2           0           0           0           0           0           1           0           0           1
 AtZEff=  -0.0000000  -0.0000000  -0.0000000  -0.0000000  -0.0000000  -0.0000000  -0.0000000  -0.0000000  -0.0000000  -0.0000000
 NQMom=    2.0440000   0.0000000   0.0000000   0.0000000   0.0000000   0.0000000   0.0000000   0.0000000   0.0000000   0.0000000
 NMagM=    0.4037610   0.0000000   0.0000000   0.0000000   0.0000000   0.0000000   2.7928460   0.0000000   0.0000000   2.7928460
 AtZNuc=   7.0000000  16.0000000   6.0000000   6.0000000   6.0000000   6.0000000   1.0000000   6.0000000   6.0000000   1.0000000

  Atom        21          22          23          24          25
 IAtWgt=           1           1          12          16           1
 AtmWgt=   1.0078250   1.0078250  12.0000000  15.9949146   1.0078250
 NucSpn=           1           1           0           0           1
 AtZEff=  -0.0000000  -0.0000000  -0.0000000  -0.0000000  -0.0000000
 NQMom=    0.0000000   0.0000000   0.0000000   0.0000000   0.0000000
 NMagM=    2.7928460   2.7928460   0.0000000   0.0000000   2.7928460
 AtZNuc=   1.0000000   1.0000000   6.0000000   8.0000000   1.0000000
 Leave Link  101 at Tue Jul 14 14:38:05 2020, MaxMem=  7784628224 cpu:              31.7 elap:               3.2
 (Enter /gpfs/loomis/apps/avx/software/Gaussian/16-C.01_AVX/g16/l103.exe)

 GradGradGradGradGradGradGradGradGradGradGradGradGradGradGradGradGradGrad
 Berny optimization.
 Initialization pass.
                           ----------------------------
                           !    Initial Parameters    !
                           ! (Angstroms and Degrees)  !
 --------------------------                            --------------------------
 ! Name  Definition              Value          Derivative Info.                !
 --------------------------------------------------------------------------------
 ! R1    R(1,2)                  1.3984         estimate D2E/DX2                !
 ! R2    R(1,6)                  1.3963         estimate D2E/DX2                !
 ! R3    R(1,7)                  1.0991         estimate D2E/DX2                !
 ! R4    R(2,3)                  1.4297         estimate D2E/DX2                !
 ! R5    R(2,12)                 1.7384         estimate D2E/DX2                !
 ! R6    R(3,4)                  1.4177         estimate D2E/DX2                !
 ! R7    R(3,11)                 1.3831         estimate D2E/DX2                !
 ! R8    R(4,5)                  1.4029         estimate D2E/DX2                !
 ! R9    R(4,8)                  1.0994         estimate D2E/DX2                !
 ! R10   R(5,6)                  1.4089         estimate D2E/DX2                !
 ! R11   R(5,9)                  1.0966         estimate D2E/DX2                !
 ! R12   R(6,10)                 1.0957         estimate D2E/DX2                !
 ! R13   R(11,23)                1.3641         estimate D2E/DX2                !
 ! R14   R(11,25)                1.142          estimate D2E/DX2                !
 ! R15   R(12,23)                1.7314         estimate D2E/DX2                !
 ! R16   R(13,14)                1.4045         estimate D2E/DX2                !
 ! R17   R(13,15)                1.4675         estimate D2E/DX2                !
 ! R18   R(13,23)                1.4103         estimate D2E/DX2                !
 ! R19   R(14,16)                1.409          estimate D2E/DX2                !
 ! R20   R(14,17)                1.0975         estimate D2E/DX2                !
 ! R21   R(15,18)                1.4275         estimate D2E/DX2                !
 ! R22   R(15,24)                1.2825         estimate D2E/DX2                !
 ! R23   R(16,19)                1.4091         estimate D2E/DX2                !
 ! R24   R(16,20)                1.0959         estimate D2E/DX2                !
 ! R25   R(18,19)                1.4086         estimate D2E/DX2                !
 ! R26   R(18,21)                1.0979         estimate D2E/DX2                !
 ! R27   R(19,22)                1.0953         estimate D2E/DX2                !
 ! A1    A(2,1,6)              118.0934         estimate D2E/DX2                !
 ! A2    A(2,1,7)              120.287          estimate D2E/DX2                !
 ! A3    A(6,1,7)              121.6196         estimate D2E/DX2                !
 ! A4    A(1,2,3)              123.8746         estimate D2E/DX2                !
 ! A5    A(1,2,12)             124.4874         estimate D2E/DX2                !
 ! A6    A(3,2,12)             111.638          estimate D2E/DX2                !
 ! A7    A(2,3,4)              116.812          estimate D2E/DX2                !
 ! A8    A(2,3,11)             112.7592         estimate D2E/DX2                !
 ! A9    A(4,3,11)             130.4288         estimate D2E/DX2                !
 ! A10   A(3,4,5)              119.2122         estimate D2E/DX2                !
 ! A11   A(3,4,8)              120.2874         estimate D2E/DX2                !
 ! A12   A(5,4,8)              120.5004         estimate D2E/DX2                !
 ! A13   A(4,5,6)              122.5463         estimate D2E/DX2                !
 ! A14   A(4,5,9)              118.5048         estimate D2E/DX2                !
 ! A15   A(6,5,9)              118.9489         estimate D2E/DX2                !
 ! A16   A(1,6,5)              119.4614         estimate D2E/DX2                !
 ! A17   A(1,6,10)             120.2523         estimate D2E/DX2                !
 ! A18   A(5,6,10)             120.2863         estimate D2E/DX2                !
 ! A19   A(3,11,23)            111.1056         estimate D2E/DX2                !
 ! A20   A(3,11,25)            149.3608         estimate D2E/DX2                !
 ! A21   A(23,11,25)            99.5336         estimate D2E/DX2                !
 ! A22   A(2,12,23)             88.8068         estimate D2E/DX2                !
 ! A23   A(14,13,15)           120.8207         estimate D2E/DX2                !
 ! A24   A(14,13,23)           121.7256         estimate D2E/DX2                !
 ! A25   A(15,13,23)           117.4537         estimate D2E/DX2                !
 ! A26   A(13,14,16)           119.6789         estimate D2E/DX2                !
 ! A27   A(13,14,17)           120.496          estimate D2E/DX2                !
 ! A28   A(16,14,17)           119.8251         estimate D2E/DX2                !
 ! A29   A(13,15,18)           117.5742         estimate D2E/DX2                !
 ! A30   A(13,15,24)           117.1753         estimate D2E/DX2                !
 ! A31   A(18,15,24)           125.2504         estimate D2E/DX2                !
 ! A32   A(14,16,19)           120.6472         estimate D2E/DX2                !
 ! A33   A(14,16,20)           119.3832         estimate D2E/DX2                !
 ! A34   A(19,16,20)           119.9696         estimate D2E/DX2                !
 ! A35   A(15,18,19)           120.482          estimate D2E/DX2                !
 ! A36   A(15,18,21)           118.0895         estimate D2E/DX2                !
 ! A37   A(19,18,21)           121.4285         estimate D2E/DX2                !
 ! A38   A(16,19,18)           120.797          estimate D2E/DX2                !
 ! A39   A(16,19,22)           119.4918         estimate D2E/DX2                !
 ! A40   A(18,19,22)           119.7112         estimate D2E/DX2                !
 ! A41   A(11,23,12)           115.6904         estimate D2E/DX2                !
 ! A42   A(11,23,13)           125.1149         estimate D2E/DX2                !
 ! A43   A(12,23,13)           119.1947         estimate D2E/DX2                !
 ! D1    D(6,1,2,3)             -0.0001         estimate D2E/DX2                !
 ! D2    D(6,1,2,12)           179.9999         estimate D2E/DX2                !
 ! D3    D(7,1,2,3)            179.9999         estimate D2E/DX2                !
 ! D4    D(7,1,2,12)            -0.0001         estimate D2E/DX2                !
 ! D5    D(2,1,6,5)             -0.0002         estimate D2E/DX2                !
 ! D6    D(2,1,6,10)           179.9999         estimate D2E/DX2                !
 ! D7    D(7,1,6,5)            179.9999         estimate D2E/DX2                !
 ! D8    D(7,1,6,10)             0.0            estimate D2E/DX2                !
 ! D9    D(1,2,3,4)              0.0003         estimate D2E/DX2                !
 ! D10   D(1,2,3,11)          -179.9999         estimate D2E/DX2                !
 ! D11   D(12,2,3,4)          -179.9997         estimate D2E/DX2                !
 ! D12   D(12,2,3,11)            0.0001         estimate D2E/DX2                !
 ! D13   D(1,2,12,23)          179.9996         estimate D2E/DX2                !
 ! D14   D(3,2,12,23)           -0.0004         estimate D2E/DX2                !
 ! D15   D(2,3,4,5)             -0.0003         estimate D2E/DX2                !
 ! D16   D(2,3,4,8)            179.9998         estimate D2E/DX2                !
 ! D17   D(11,3,4,5)           180.0            estimate D2E/DX2                !
 ! D18   D(11,3,4,8)             0.0001         estimate D2E/DX2                !
 ! D19   D(2,3,11,23)            0.0004         estimate D2E/DX2                !
 ! D20   D(2,3,11,25)          179.9946         estimate D2E/DX2                !
 ! D21   D(4,3,11,23)         -179.9998         estimate D2E/DX2                !
 ! D22   D(4,3,11,25)           -0.0056         estimate D2E/DX2                !
 ! D23   D(3,4,5,6)              0.0001         estimate D2E/DX2                !
 ! D24   D(3,4,5,9)           -179.9999         estimate D2E/DX2                !
 ! D25   D(8,4,5,6)            180.0            estimate D2E/DX2                !
 ! D26   D(8,4,5,9)              0.0            estimate D2E/DX2                !
 ! D27   D(4,5,6,1)              0.0002         estimate D2E/DX2                !
 ! D28   D(4,5,6,10)          -179.9999         estimate D2E/DX2                !
 ! D29   D(9,5,6,1)           -179.9999         estimate D2E/DX2                !
 ! D30   D(9,5,6,10)             0.0            estimate D2E/DX2                !
 ! D31   D(3,11,23,12)          -0.0007         estimate D2E/DX2                !
 ! D32   D(3,11,23,13)         179.9981         estimate D2E/DX2                !
 ! D33   D(25,11,23,12)       -179.9977         estimate D2E/DX2                !
 ! D34   D(25,11,23,13)          0.0011         estimate D2E/DX2                !
 ! D35   D(2,12,23,11)           0.0006         estimate D2E/DX2                !
 ! D36   D(2,12,23,13)        -179.9983         estimate D2E/DX2                !
 ! D37   D(15,13,14,16)          0.0015         estimate D2E/DX2                !
 ! D38   D(15,13,14,17)       -179.9991         estimate D2E/DX2                !
 ! D39   D(23,13,14,16)       -179.9986         estimate D2E/DX2                !
 ! D40   D(23,13,14,17)          0.0008         estimate D2E/DX2                !
 ! D41   D(14,13,15,18)         -0.0017         estimate D2E/DX2                !
 ! D42   D(14,13,15,24)        179.998          estimate D2E/DX2                !
 ! D43   D(23,13,15,18)        179.9984         estimate D2E/DX2                !
 ! D44   D(23,13,15,24)         -0.0019         estimate D2E/DX2                !
 ! D45   D(14,13,23,11)       -179.9997         estimate D2E/DX2                !
 ! D46   D(14,13,23,12)         -0.0009         estimate D2E/DX2                !
 ! D47   D(15,13,23,11)          0.0002         estimate D2E/DX2                !
 ! D48   D(15,13,23,12)        179.999          estimate D2E/DX2                !
 ! D49   D(13,14,16,19)         -0.0003         estimate D2E/DX2                !
 ! D50   D(13,14,16,20)        179.9996         estimate D2E/DX2                !
 ! D51   D(17,14,16,19)       -179.9998         estimate D2E/DX2                !
 ! D52   D(17,14,16,20)          0.0001         estimate D2E/DX2                !
 ! D53   D(13,15,18,19)          0.0008         estimate D2E/DX2                !
 ! D54   D(13,15,18,21)       -179.9999         estimate D2E/DX2                !
 ! D55   D(24,15,18,19)       -179.9988         estimate D2E/DX2                !
 ! D56   D(24,15,18,21)          0.0004         estimate D2E/DX2                !
 ! D57   D(14,16,19,18)         -0.0006         estimate D2E/DX2                !
 ! D58   D(14,16,19,22)        179.9998         estimate D2E/DX2                !
 ! D59   D(20,16,19,18)        179.9995         estimate D2E/DX2                !
 ! D60   D(20,16,19,22)         -0.0002         estimate D2E/DX2                !
 ! D61   D(15,18,19,16)          0.0003         estimate D2E/DX2                !
 ! D62   D(15,18,19,22)        179.9999         estimate D2E/DX2                !
 ! D63   D(21,18,19,16)       -179.999          estimate D2E/DX2                !
 ! D64   D(21,18,19,22)          0.0007         estimate D2E/DX2                !
 ! Qtot  GIC-1                  10.0            Frozen                          !
 ! Ptot  GIC-2                 200.0            Frozen                          !
 --------------------------------------------------------------------------------
 NOTE: GIC-type coordinates are in arbitrary units.
 Trust Radius=3.00D-01 FncErr=5.00D-06 GrdErr=5.00D-06 EigMax=2.50D+02 EigMin=1.00D-04
 Number of steps in this run=    146 maximum allowed number of steps=    150.
 GradGradGradGradGradGradGradGradGradGradGradGradGradGradGradGradGradGrad

 Leave Link  103 at Tue Jul 14 14:38:05 2020, MaxMem=  7784628224 cpu:               0.1 elap:               0.0
 (Enter /gpfs/loomis/apps/avx/software/Gaussian/16-C.01_AVX/g16/l202.exe)
                          Input orientation:                          
 ---------------------------------------------------------------------
 Center     Atomic      Atomic             Coordinates (Angstroms)
 Number     Number       Type             X           Y           Z
 ---------------------------------------------------------------------
      1          6           0        1.519064   -3.248780   -0.000016
      2          6           0        1.000950   -1.949942   -0.000023
      3          6           0        1.808254   -0.769934   -0.000028
      4          6           0        3.213578   -0.956595   -0.000031
      5          6           0        3.731056   -2.260523   -0.000024
      6          6           0        2.906766   -3.403113   -0.000015
      7          1           0        0.842930   -4.115263   -0.000011
      8          1           0        3.888203   -0.088546   -0.000038
      9          1           0        4.819760   -2.391473   -0.000025
     10          1           0        3.350804   -4.404847   -0.000009
     11          7           0        1.057761    0.391807   -0.000033
     12         16           0       -0.694603   -1.566588   -0.000027
     13          6           0       -1.306956    1.077954    0.000013
     14          6           0       -2.662692    0.710967    0.000027
     15          6           0       -0.910484    2.490891    0.000037
     16          6           0       -3.655945    1.710292    0.000034
     17          1           0       -2.953217   -0.347415    0.000025
     18          6           0       -1.950292    3.468989    0.000037
     19          6           0       -3.302477    3.074360    0.000033
     20          1           0       -4.712239    1.418502    0.000039
     21          1           0       -1.663187    4.528716    0.000053
     22          1           0       -4.090111    3.835480    0.000034
     23          6           0       -0.277702    0.113856   -0.000023
     24          8           0        0.346253    2.746604    0.000061
     25          1           0        1.013454    1.532909    0.000017
 ---------------------------------------------------------------------
                    Distance matrix (angstroms):
                    1          2          3          4          5
     1  C    0.000000
     2  C    1.398364   0.000000
     3  C    2.495658   1.429741   0.000000
     4  C    2.850524   2.425379   1.417667   0.000000
     5  C    2.422717   2.747715   2.432904   1.402858   0.000000
     6  C    1.396258   2.396631   2.853132   2.465680   1.408888
     7  H    1.099068   2.171079   3.481821   3.949323   3.432395
     8  H    3.949670   3.435262   2.188716   1.099376   2.177655
     9  H    3.410215   3.844250   3.420315   2.153762   1.096551
    10  H    2.166047   3.398289   3.948677   3.450980   2.177778
    11  N    3.669696   2.342438   1.383070   2.542781   3.765815
    12  S    2.780304   1.738350   2.626586   3.955499   4.479733
    13  C    5.167883   3.807175   3.622047   4.957279   6.043756
    14  C    5.759052   4.527992   4.709823   6.108299   7.050516
    15  C    6.232698   4.834727   4.245529   5.375226   6.642276
    16  C    7.167504   5.923174   6.000749   7.369032   8.386606
    17  H    5.330967   4.266559   4.780180   6.196810   6.952660
    18  C    7.560743   6.170465   5.665256   6.800834   8.068768
    19  C    7.951689   6.615368   6.395168   7.662087   8.827886
    20  H    7.785413   6.632265   6.877942   8.274036   9.210019
    21  H    8.403342   7.005043   6.334555   7.339719   8.671310
    22  H    9.036016   7.706491   7.483351   8.735437   9.916244
    23  C    3.812569   2.427800   2.265457   3.651699   4.659164
    24  O    6.109019   4.741959   3.808345   4.683508   6.043858
    25  H    4.808346   3.482874   2.436143   3.322376   4.666421
                    6          7          8          9         10
     6  C    0.000000
     7  H    2.183250   0.000000
     8  H    3.456815   5.048578   0.000000
     9  H    2.164014   4.334354   2.484205   0.000000
    10  H    1.095737   2.524538   4.349626   2.492289   0.000000
    11  N    4.221402   4.512187   2.870913   4.679667   5.316571
    12  S    4.042609   2.976533   4.815259   5.575718   4.941764
    13  C    6.151050   5.620633   5.324509   7.040850   7.194152
    14  C    6.924198   5.965055   6.599503   8.100137   7.895169
    15  C    7.022157   6.834891   5.448017   7.528159   8.106157
    16  C    8.319621   7.360500   7.755642   9.416053   9.299971
    17  H    6.608834   5.348589   6.846315   8.037247   7.496894
    18  C    8.415271   8.082262   6.836963   8.954251   9.492044
    19  C    8.972868   8.299101   7.855562   9.790100  10.010229
    20  H    9.016497   7.841075   8.731483  10.265228   9.946057
    21  H    9.154145   8.999944   7.220597   9.482489  10.244444
    22  H   10.067448   9.356773   8.891089  10.870177  11.102711
    23  C    4.744460   4.375072   4.170819   5.679858   5.795233
    24  O    6.661475   6.879819   4.536902   6.812643   7.756970
    25  H    5.286676   5.650745   3.300500   5.467059   6.381234
                   11         12         13         14         15
    11  N    0.000000
    12  S    2.627944   0.000000
    13  C    2.462251   2.714513   0.000000
    14  C    3.734118   3.010088   1.404529   0.000000
    15  C    2.877524   4.063218   1.467508   2.497671   0.000000
    16  C    4.894632   4.416728   2.432612   1.408972   2.854276
    17  H    4.078528   2.566655   2.177580   1.097533   3.496961
    18  C    4.303188   5.189777   2.476071   2.848543   1.427541
    19  C    5.119352   5.323477   2.822719   2.448459   2.462126
    20  H    5.860631   5.005213   3.422269   2.168236   3.950108
    21  H    4.951522   6.171781   3.469100   3.946418   2.172392
    22  H    6.193502   6.380581   3.917895   3.435128   3.452238
    23  C    1.364081   1.731386   1.410266   2.458602   2.459820
    24  O    2.459942   4.437005   2.348934   3.632846   1.282489
    25  H    1.141962   3.538975   2.364589   3.766914   2.149248
                   16         17         18         19         20
    16  C    0.000000
    17  H    2.174393   0.000000
    18  C    2.449953   3.945985   0.000000
    19  C    1.409121   3.439554   1.408594   0.000000
    20  H    1.095855   2.492514   3.439891   2.174694   0.000000
    21  H    3.451753   5.043890   1.097930   2.191443   4.355473
    22  H    2.169084   4.334644   2.170978   1.095295   2.495761
    23  C    3.736460   2.714986   3.748930   4.232476   4.622469
    24  O    4.134191   4.523213   2.407479   3.663421   5.229932
    25  H    4.672767   4.389771   3.540083   4.582939   5.726835
                   21         22         23         24         25
    21  H    0.000000
    22  H    2.523993   0.000000
    23  C    4.627154   5.327753   0.000000
    24  O    2.685846   4.568038   2.705676   0.000000
    25  H    4.017370   5.598947   1.918540   1.384996   0.000000
 Symmetry turned off by external request.
 Stoichiometry    C13H9NOS
 Framework group  C1[X(C13H9NOS)]
 Deg. of freedom    69
 Full point group                 C1      NOp   1
 Rotational constants (GHZ):           1.4133778           0.2864057           0.2381477
 Leave Link  202 at Tue Jul 14 14:38:05 2020, MaxMem=  7784628224 cpu:               0.1 elap:               0.0
 (Enter /gpfs/loomis/apps/avx/software/Gaussian/16-C.01_AVX/g16/l301.exe)
 Standard basis: CC-pVDZ (5D, 7F)
 Ernie: Thresh=  0.10000D-02 Tol=  0.10000D-05 Strict=F.
 Ernie:  40 primitive shells out of 425 were deleted.
   273 basis functions,   629 primitive gaussians,   289 cartesian basis functions
    59 alpha electrons       59 beta electrons
       nuclear repulsion energy      1100.9122362332 Hartrees.
 IExCor= 4639 DFT=T Ex+Corr=wB97XD ExCW=0 ScaHFX=  1.000000
 ScaDFX=  1.000000  1.000000  1.000000  1.000000 ScalE2=  1.000000  1.000000
 IRadAn=      5 IRanWt=     -1 IRanGd=            0 ICorTp=0 IEmpDi=121
 HFx  wShort=  0.000000 wLong=  0.200000 cFull=  0.222036 cShort=  0.000000 cLong=  0.777964
 DFx  wShort=  0.000000 wLong=  0.200000 cFull=  0.000000 cShort=  0.000000 cLong=  1.000000
 NAtoms=   25 NActive=   25 NUniq=   25 SFac= 1.00D+00 NAtFMM=   60 NAOKFM=F Big=F
 Integral buffers will be    131072 words long.
 Raffenetti 1 integral format.
 Two-electron integral symmetry is turned off.
 R6Disp:  Grimme-D2 Dispersion energy=       -0.0138284232 Hartrees.
 Nuclear repulsion after empirical dispersion term =     1100.8984078100 Hartrees.
 ------------------------------------------------------------------------------
 Polarizable Continuum Model (PCM)
 =================================
 Model                : PCM.
 Atomic radii         : UFF (Universal Force Field).
 Polarization charges : Total charges.
 Charge compensation  : None.
 Solution method      : On-the-fly selection.
 Cavity type          : Scaled VdW (van der Waals Surface) (Alpha=1.100).
 Cavity algorithm     : GePol (No added spheres)
                        Default sphere list used, NSphG=   25.
                        Lebedev-Laikov grids with approx.  5.0 points / Ang**2.
                        Smoothing algorithm: York/Karplus (Gamma=1.0000).
                        Polarization charges: spherical gaussians, with
                                              point-specific exponents (IZeta= 3).
                        Self-potential: point-specific (ISelfS= 7).
                        Self-field    : sphere-specific E.n sum rule (ISelfD= 2).
 1st derivatives      : Analytical E(r).r(x)/FMM algorithm (CHGder, D1EAlg=3).
                        Cavity 1st derivative terms included.
 Solvent              : CarbonTetraChloride, Eps=   2.228000 Eps(inf)=   2.131892
 ------------------------------------------------------------------------------
 GePol: Number of generator spheres                  =      25
 GePol: Total number of spheres                      =      25
 GePol: Number of exposed spheres                    =      25 (100.00%)
 GePol: Number of points                             =    2181
 GePol: Average weight of points                     =       0.12
 GePol: Minimum weight of points                     =   0.19D-11
 GePol: Maximum weight of points                     =    0.20577
 GePol: Number of points with low weight             =     135
 GePol: Fraction of low-weight points (<1% of avg)   =       6.19%
 GePol: Cavity surface area                          =    271.487 Ang**2
 GePol: Cavity volume                                =    292.169 Ang**3
 Leave Link  301 at Tue Jul 14 14:38:05 2020, MaxMem=  7784628224 cpu:               0.8 elap:               0.1
 (Enter /gpfs/loomis/apps/avx/software/Gaussian/16-C.01_AVX/g16/l302.exe)
 NPDir=0 NMtPBC=     1 NCelOv=     1 NCel=       1 NClECP=     1 NCelD=      1
         NCelK=      1 NCelE2=     1 NClLst=     1 CellRange=     0.0.
 One-electron integrals computed using PRISM.
 NBasis=   273 RedAO= T EigKep=  3.26D-04  NBF=   273
 NBsUse=   273 1.00D-06 EigRej= -1.00D+00 NBFU=   273
 Precomputing XC quadrature grid using
 IXCGrd= 4 IRadAn=           5 IRanWt=          -1 IRanGd=           0 AccXCQ= 0.00D+00.
 Generated NRdTot=       0 NPtTot=           0 NUsed=           0 NTot=          32
 NSgBfM=   288   288   288   288   288 MxSgAt=    25 MxSgA2=    25.
 Leave Link  302 at Tue Jul 14 14:38:06 2020, MaxMem=  7784628224 cpu:               2.5 elap:               0.3
 (Enter /gpfs/loomis/apps/avx/software/Gaussian/16-C.01_AVX/g16/l303.exe)
 DipDrv:  MaxL=1.
 Leave Link  303 at Tue Jul 14 14:38:06 2020, MaxMem=  7784628224 cpu:               0.5 elap:               0.1
 (Enter /gpfs/loomis/apps/avx/software/Gaussian/16-C.01_AVX/g16/l308.exe)
 Leave Link  308 at Tue Jul 14 14:38:06 2020, MaxMem=  7784628224 cpu:               0.7 elap:               0.1
 (Enter /gpfs/loomis/apps/avx/software/Gaussian/16-C.01_AVX/g16/l401.exe)
 ExpMin= 1.22D-01 ExpMax= 1.11D+05 ExpMxC= 1.07D+03 IAcc=3 IRadAn=         5 AccDes= 0.00D+00
 Harris functional with IExCor= 4639 and IRadAn=       5 diagonalized for initial guess.
 HarFok:  IExCor= 4639 AccDes= 0.00D+00 IRadAn=         5 IDoV= 1 UseB2=F ITyADJ=14
 ICtDFT=  3500011 ScaDFX=  1.000000  1.000000  1.000000  1.000000
 FoFCou: FMM=F IPFlag=           0 FMFlag=      100000 FMFlg1=           0
         NFxFlg=           0 DoJE=T BraDBF=F KetDBF=T FulRan=T
         wScrn=  0.000000 ICntrl=       500 IOpCl=  0 I1Cent=   200000004 NGrid=           0
         NMat0=    1 NMatS0=      1 NMatT0=    0 NMatD0=    1 NMtDS0=    0 NMtDT0=    0
 Symmetry not used in FoFCou.
 Harris En= -994.454457646326    
 JPrj=0 DoOrth=F DoCkMO=F.
 Leave Link  401 at Tue Jul 14 14:38:07 2020, MaxMem=  7784628224 cpu:              13.6 elap:               1.5
 (Enter /gpfs/loomis/apps/avx/software/Gaussian/16-C.01_AVX/g16/l502.exe)
 Two-electron integral symmetry not used.
 Closed shell SCF:
 Using DIIS extrapolation, IDIIS=  1040.
 NGot=  7784628224 LenX=  7784455381 LenY=  7784371419
 Requested convergence on RMS density matrix=1.00D-08 within 128 cycles.
 Requested convergence on MAX density matrix=1.00D-06.
 Requested convergence on             energy=1.00D-06.
 No special actions if energy rises.
 Fock matrices will be formed incrementally for  20 cycles.

 Cycle   1  Pass 1  IDiag  1:
 FoFJK:  IHMeth= 1 ICntrl=       0 DoSepK=T KAlg= 0 I1Cent=           0 FoldK=F
 IRaf=         1 NMat=       1 IRICut=       1 DoRegI=T DoRafI=F ISym2E= 0 IDoP0=0 IntGTp=1.
 FoFCou: FMM=F IPFlag=           0 FMFlag=      100000 FMFlg1=           0
         NFxFlg=           0 DoJE=T BraDBF=F KetDBF=F FulRan=T
         wScrn=  0.000000 ICntrl=       500 IOpCl=  0 I1Cent=           0 NGrid=           0
         NMat0=    1 NMatS0=      1 NMatT0=    0 NMatD0=    1 NMtDS0=    0 NMtDT0=    0
 Symmetry not used in FoFCou.
 Inv3:  Mode=1 IEnd=    14270283.
 Iteration    1 A*A^-1 deviation from unit magnitude is 4.44D-15 for   2156.
 Iteration    1 A*A^-1 deviation from orthogonality  is 1.70D-15 for   2165   2069.
 Iteration    1 A^-1*A deviation from unit magnitude is 4.44D-15 for   2156.
 Iteration    1 A^-1*A deviation from orthogonality  is 2.82D-15 for   2176    125.
 E= -1028.56042871224    
 DIIS: error= 3.60D-02 at cycle   1 NSaved=   1.
 NSaved= 1 IEnMin= 1 EnMin= -1028.56042871224     IErMin= 1 ErrMin= 3.60D-02
 ErrMax= 3.60D-02  0.00D+00 EMaxC= 1.00D-01 BMatC= 3.93D-01 BMatP= 3.93D-01
 IDIUse=3 WtCom= 6.40D-01 WtEn= 3.60D-01
 Coeff-Com:  0.100D+01
 Coeff-En:   0.100D+01
 Coeff:      0.100D+01
 Gap=     0.326 Goal=   None    Shift=    0.000
 GapD=    0.326 DampG=1.000 DampE=0.500 DampFc=0.5000 IDamp=-1.
 Damping current iteration by 5.00D-01
 RMSDP=3.53D-03 MaxDP=2.26D-01              OVMax= 1.76D-01

 Cycle   2  Pass 1  IDiag  1:
 RMSU=  1.76D-03    CP:  9.93D-01
 E= -1028.67743773808     Delta-E=       -0.117009025840 Rises=F Damp=T
 DIIS: error= 1.20D-02 at cycle   2 NSaved=   2.
 NSaved= 2 IEnMin= 2 EnMin= -1028.67743773808     IErMin= 2 ErrMin= 1.20D-02
 ErrMax= 1.20D-02  0.00D+00 EMaxC= 1.00D-01 BMatC= 5.87D-02 BMatP= 3.93D-01
 IDIUse=3 WtCom= 8.80D-01 WtEn= 1.20D-01
 Coeff-Com: -0.282D+00 0.128D+01
 Coeff-En:   0.000D+00 0.100D+01
 Coeff:     -0.248D+00 0.125D+01
 Gap=     0.296 Goal=   None    Shift=    0.000
 RMSDP=1.14D-03 MaxDP=2.53D-02 DE=-1.17D-01 OVMax= 1.20D-01

 Cycle   3  Pass 1  IDiag  1:
 RMSU=  1.10D-03    CP:  9.93D-01  1.18D+00
 E= -1028.78155706834     Delta-E=       -0.104119330259 Rises=F Damp=F
 DIIS: error= 7.87D-03 at cycle   3 NSaved=   3.
 NSaved= 3 IEnMin= 3 EnMin= -1028.78155706834     IErMin= 3 ErrMin= 7.87D-03
 ErrMax= 7.87D-03  0.00D+00 EMaxC= 1.00D-01 BMatC= 1.62D-02 BMatP= 5.87D-02
 IDIUse=3 WtCom= 9.21D-01 WtEn= 7.87D-02
 Coeff-Com: -0.207D+00 0.507D+00 0.700D+00
 Coeff-En:   0.000D+00 0.000D+00 0.100D+01
 Coeff:     -0.191D+00 0.467D+00 0.724D+00
 Gap=     0.250 Goal=   None    Shift=    0.000
 RMSDP=5.71D-04 MaxDP=2.55D-02 DE=-1.04D-01 OVMax= 4.04D-02

 Cycle   4  Pass 1  IDiag  1:
 RMSU=  4.49D-04    CP:  9.90D-01  1.34D+00  8.14D-01
 E= -1028.79646515912     Delta-E=       -0.014908090778 Rises=F Damp=F
 DIIS: error= 2.72D-03 at cycle   4 NSaved=   4.
 NSaved= 4 IEnMin= 4 EnMin= -1028.79646515912     IErMin= 4 ErrMin= 2.72D-03
 ErrMax= 2.72D-03  0.00D+00 EMaxC= 1.00D-01 BMatC= 2.17D-03 BMatP= 1.62D-02
 IDIUse=3 WtCom= 9.73D-01 WtEn= 2.72D-02
 Coeff-Com: -0.720D-01 0.143D+00 0.352D+00 0.577D+00
 Coeff-En:   0.000D+00 0.000D+00 0.000D+00 0.100D+01
 Coeff:     -0.700D-01 0.139D+00 0.342D+00 0.588D+00
 Gap=     0.249 Goal=   None    Shift=    0.000
 RMSDP=1.86D-04 MaxDP=1.06D-02 DE=-1.49D-02 OVMax= 1.21D-02

 Cycle   5  Pass 1  IDiag  1:
 RMSU=  1.08D-04    CP:  9.90D-01  1.35D+00  8.97D-01  7.37D-01
 E= -1028.79871846308     Delta-E=       -0.002253303961 Rises=F Damp=F
 DIIS: error= 5.34D-04 at cycle   5 NSaved=   5.
 NSaved= 5 IEnMin= 5 EnMin= -1028.79871846308     IErMin= 5 ErrMin= 5.34D-04
 ErrMax= 5.34D-04  0.00D+00 EMaxC= 1.00D-01 BMatC= 6.04D-05 BMatP= 2.17D-03
 IDIUse=3 WtCom= 9.95D-01 WtEn= 5.34D-03
 Coeff-Com: -0.267D-02-0.856D-03 0.405D-01 0.166D+00 0.797D+00
 Coeff-En:   0.000D+00 0.000D+00 0.000D+00 0.000D+00 0.100D+01
 Coeff:     -0.266D-02-0.851D-03 0.403D-01 0.165D+00 0.798D+00
 Gap=     0.250 Goal=   None    Shift=    0.000
 RMSDP=5.30D-05 MaxDP=1.95D-03 DE=-2.25D-03 OVMax= 4.86D-03

 Cycle   6  Pass 1  IDiag  1:
 RMSU=  3.43D-05    CP:  9.90D-01  1.35D+00  9.14D-01  8.14D-01  1.07D+00
 E= -1028.79883945949     Delta-E=       -0.000120996414 Rises=F Damp=F
 DIIS: error= 2.28D-04 at cycle   6 NSaved=   6.
 NSaved= 6 IEnMin= 6 EnMin= -1028.79883945949     IErMin= 6 ErrMin= 2.28D-04
 ErrMax= 2.28D-04  0.00D+00 EMaxC= 1.00D-01 BMatC= 1.18D-05 BMatP= 6.04D-05
 IDIUse=3 WtCom= 9.98D-01 WtEn= 2.28D-03
 Coeff-Com:  0.148D-01-0.310D-01-0.557D-01-0.551D-01 0.250D+00 0.877D+00
 Coeff-En:   0.000D+00 0.000D+00 0.000D+00 0.000D+00 0.000D+00 0.100D+01
 Coeff:      0.148D-01-0.309D-01-0.556D-01-0.549D-01 0.249D+00 0.878D+00
 Gap=     0.251 Goal=   None    Shift=    0.000
 RMSDP=3.14D-05 MaxDP=1.52D-03 DE=-1.21D-04 OVMax= 3.76D-03

 Cycle   7  Pass 1  IDiag  1:
 RMSU=  1.66D-05    CP:  9.90D-01  1.35D+00  9.23D-01  8.44D-01  1.24D+00
                    CP:  1.26D+00
 E= -1028.79887146783     Delta-E=       -0.000032008332 Rises=F Damp=F
 DIIS: error= 1.30D-04 at cycle   7 NSaved=   7.
 NSaved= 7 IEnMin= 7 EnMin= -1028.79887146783     IErMin= 7 ErrMin= 1.30D-04
 ErrMax= 1.30D-04  0.00D+00 EMaxC= 1.00D-01 BMatC= 2.56D-06 BMatP= 1.18D-05
 IDIUse=3 WtCom= 9.99D-01 WtEn= 1.30D-03
 Coeff-Com:  0.695D-02-0.133D-01-0.298D-01-0.495D-01-0.108D-01 0.383D+00
 Coeff-Com:  0.713D+00
 Coeff-En:   0.000D+00 0.000D+00 0.000D+00 0.000D+00 0.000D+00 0.000D+00
 Coeff-En:   0.100D+01
 Coeff:      0.694D-02-0.133D-01-0.298D-01-0.494D-01-0.108D-01 0.383D+00
 Coeff:      0.713D+00
 Gap=     0.251 Goal=   None    Shift=    0.000
 RMSDP=1.24D-05 MaxDP=5.67D-04 DE=-3.20D-05 OVMax= 1.52D-03

 Cycle   8  Pass 1  IDiag  1:
 RMSU=  7.37D-06    CP:  9.90D-01  1.35D+00  9.26D-01  8.50D-01  1.29D+00
                    CP:  1.47D+00  1.14D+00
 E= -1028.79887766693     Delta-E=       -0.000006199105 Rises=F Damp=F
 DIIS: error= 5.37D-05 at cycle   8 NSaved=   8.
 NSaved= 8 IEnMin= 8 EnMin= -1028.79887766693     IErMin= 8 ErrMin= 5.37D-05
 ErrMax= 5.37D-05  0.00D+00 EMaxC= 1.00D-01 BMatC= 3.50D-07 BMatP= 2.56D-06
 IDIUse=1 WtCom= 1.00D+00 WtEn= 0.00D+00
 Coeff-Com: -0.142D-02 0.311D-02 0.548D-02 0.185D-02-0.428D-01-0.973D-01
 Coeff-Com:  0.169D+00 0.962D+00
 Coeff:     -0.142D-02 0.311D-02 0.548D-02 0.185D-02-0.428D-01-0.973D-01
 Coeff:      0.169D+00 0.962D+00
 Gap=     0.251 Goal=   None    Shift=    0.000
 RMSDP=6.96D-06 MaxDP=2.12D-04 DE=-6.20D-06 OVMax= 1.12D-03

 Cycle   9  Pass 1  IDiag  1:
 RMSU=  2.80D-06    CP:  9.90D-01  1.35D+00  9.26D-01  8.50D-01  1.30D+00
                    CP:  1.58D+00  1.41D+00  1.27D+00
 E= -1028.79887914731     Delta-E=       -0.000001480376 Rises=F Damp=F
 DIIS: error= 2.39D-05 at cycle   9 NSaved=   9.
 NSaved= 9 IEnMin= 9 EnMin= -1028.79887914731     IErMin= 9 ErrMin= 2.39D-05
 ErrMax= 2.39D-05  0.00D+00 EMaxC= 1.00D-01 BMatC= 5.99D-08 BMatP= 3.50D-07
 IDIUse=1 WtCom= 1.00D+00 WtEn= 0.00D+00
 Coeff-Com: -0.116D-02 0.229D-02 0.518D-02 0.687D-02-0.916D-02-0.825D-01
 Coeff-Com: -0.572D-01 0.250D+00 0.886D+00
 Coeff:     -0.116D-02 0.229D-02 0.518D-02 0.687D-02-0.916D-02-0.825D-01
 Coeff:     -0.572D-01 0.250D+00 0.886D+00
 Gap=     0.251 Goal=   None    Shift=    0.000
 RMSDP=3.21D-06 MaxDP=8.59D-05 DE=-1.48D-06 OVMax= 5.75D-04

 Cycle  10  Pass 1  IDiag  1:
 RMSU=  1.34D-06    CP:  9.90D-01  1.35D+00  9.26D-01  8.50D-01  1.31D+00
                    CP:  1.63D+00  1.51D+00  1.48D+00  1.28D+00
 E= -1028.79887945280     Delta-E=       -0.000000305491 Rises=F Damp=F
 DIIS: error= 1.10D-05 at cycle  10 NSaved=  10.
 NSaved=10 IEnMin=10 EnMin= -1028.79887945280     IErMin=10 ErrMin= 1.10D-05
 ErrMax= 1.10D-05  0.00D+00 EMaxC= 1.00D-01 BMatC= 2.35D-08 BMatP= 5.99D-08
 IDIUse=1 WtCom= 1.00D+00 WtEn= 0.00D+00
 Coeff-Com: -0.981D-04 0.123D-03 0.822D-03 0.237D-02 0.633D-02-0.124D-01
 Coeff-Com: -0.648D-01-0.138D+00 0.403D+00 0.803D+00
 Coeff:     -0.981D-04 0.123D-03 0.822D-03 0.237D-02 0.633D-02-0.124D-01
 Coeff:     -0.648D-01-0.138D+00 0.403D+00 0.803D+00
 Gap=     0.251 Goal=   None    Shift=    0.000
 RMSDP=1.79D-06 MaxDP=4.19D-05 DE=-3.05D-07 OVMax= 2.87D-04

 Cycle  11  Pass 1  IDiag  1:
 RMSU=  6.21D-07    CP:  9.90D-01  1.35D+00  9.26D-01  8.50D-01  1.31D+00
                    CP:  1.65D+00  1.56D+00  1.59D+00  1.65D+00  1.13D+00
 E= -1028.79887953356     Delta-E=       -0.000000080763 Rises=F Damp=F
 DIIS: error= 5.03D-06 at cycle  11 NSaved=  11.
 NSaved=11 IEnMin=11 EnMin= -1028.79887953356     IErMin=11 ErrMin= 5.03D-06
 ErrMax= 5.03D-06  0.00D+00 EMaxC= 1.00D-01 BMatC= 2.79D-09 BMatP= 2.35D-08
 IDIUse=1 WtCom= 1.00D+00 WtEn= 0.00D+00
 Coeff-Com:  0.279D-03-0.576D-03-0.100D-02-0.926D-03 0.497D-02 0.142D-01
 Coeff-Com: -0.909D-02-0.990D-01-0.201D-01 0.225D+00 0.886D+00
 Coeff:      0.279D-03-0.576D-03-0.100D-02-0.926D-03 0.497D-02 0.142D-01
 Coeff:     -0.909D-02-0.990D-01-0.201D-01 0.225D+00 0.886D+00
 Gap=     0.251 Goal=   None    Shift=    0.000
 RMSDP=6.79D-07 MaxDP=2.23D-05 DE=-8.08D-08 OVMax= 1.30D-04

 Cycle  12  Pass 1  IDiag  1:
 RMSU=  2.48D-07    CP:  9.90D-01  1.35D+00  9.26D-01  8.51D-01  1.31D+00
                    CP:  1.65D+00  1.57D+00  1.62D+00  1.79D+00  1.38D+00
                    CP:  1.11D+00
 E= -1028.79887954653     Delta-E=       -0.000000012969 Rises=F Damp=F
 DIIS: error= 1.41D-06 at cycle  12 NSaved=  12.
 NSaved=12 IEnMin=12 EnMin= -1028.79887954653     IErMin=12 ErrMin= 1.41D-06
 ErrMax= 1.41D-06  0.00D+00 EMaxC= 1.00D-01 BMatC= 9.47D-10 BMatP= 2.79D-09
 IDIUse=1 WtCom= 1.00D+00 WtEn= 0.00D+00
 Coeff-Com:  0.136D-03-0.268D-03-0.573D-03-0.897D-03 0.110D-02 0.882D-02
 Coeff-Com:  0.858D-02-0.182D-01-0.918D-01-0.981D-01 0.389D+00 0.802D+00
 Coeff:      0.136D-03-0.268D-03-0.573D-03-0.897D-03 0.110D-02 0.882D-02
 Coeff:      0.858D-02-0.182D-01-0.918D-01-0.981D-01 0.389D+00 0.802D+00
 Gap=     0.251 Goal=   None    Shift=    0.000
 RMSDP=3.61D-07 MaxDP=9.80D-06 DE=-1.30D-08 OVMax= 5.56D-05

 Cycle  13  Pass 1  IDiag  1:
 RMSU=  9.77D-08    CP:  9.90D-01  1.35D+00  9.26D-01  8.51D-01  1.31D+00
                    CP:  1.65D+00  1.57D+00  1.63D+00  1.87D+00  1.47D+00
                    CP:  1.38D+00  1.06D+00
 E= -1028.79887954917     Delta-E=       -0.000000002640 Rises=F Damp=F
 DIIS: error= 6.03D-07 at cycle  13 NSaved=  13.
 NSaved=13 IEnMin=13 EnMin= -1028.79887954917     IErMin=13 ErrMin= 6.03D-07
 ErrMax= 6.03D-07  0.00D+00 EMaxC= 1.00D-01 BMatC= 6.53D-11 BMatP= 9.47D-10
 IDIUse=1 WtCom= 1.00D+00 WtEn= 0.00D+00
 Coeff-Com:  0.341D-05-0.282D-05-0.365D-04-0.167D-03-0.263D-03 0.926D-03
 Coeff-Com:  0.353D-02 0.799D-02-0.217D-01-0.641D-01 0.301D-02 0.235D+00
 Coeff-Com:  0.836D+00
 Coeff:      0.341D-05-0.282D-05-0.365D-04-0.167D-03-0.263D-03 0.926D-03
 Coeff:      0.353D-02 0.799D-02-0.217D-01-0.641D-01 0.301D-02 0.235D+00
 Coeff:      0.836D+00
 Gap=     0.251 Goal=   None    Shift=    0.000
 RMSDP=8.35D-08 MaxDP=2.32D-06 DE=-2.64D-09 OVMax= 1.16D-05

 Cycle  14  Pass 1  IDiag  1:
 RMSU=  3.86D-08    CP:  9.90D-01  1.35D+00  9.26D-01  8.51D-01  1.31D+00
                    CP:  1.65D+00  1.57D+00  1.64D+00  1.89D+00  1.50D+00
                    CP:  1.44D+00  1.21D+00  1.04D+00
 E= -1028.79887954936     Delta-E=       -0.000000000188 Rises=F Damp=F
 DIIS: error= 1.93D-07 at cycle  14 NSaved=  14.
 NSaved=14 IEnMin=14 EnMin= -1028.79887954936     IErMin=14 ErrMin= 1.93D-07
 ErrMax= 1.93D-07  0.00D+00 EMaxC= 1.00D-01 BMatC= 1.44D-11 BMatP= 6.53D-11
 IDIUse=1 WtCom= 1.00D+00 WtEn= 0.00D+00
 Coeff-Com: -0.138D-04 0.287D-04 0.496D-04 0.287D-04-0.226D-03-0.515D-03
 Coeff-Com:  0.557D-03 0.566D-02 0.114D-02-0.171D-01-0.419D-01 0.317D-02
 Coeff-Com:  0.362D+00 0.687D+00
 Coeff:     -0.138D-04 0.287D-04 0.496D-04 0.287D-04-0.226D-03-0.515D-03
 Coeff:      0.557D-03 0.566D-02 0.114D-02-0.171D-01-0.419D-01 0.317D-02
 Coeff:      0.362D+00 0.687D+00
 Gap=     0.251 Goal=   None    Shift=    0.000
 RMSDP=2.44D-08 MaxDP=6.59D-07 DE=-1.88D-10 OVMax= 2.11D-06

 Cycle  15  Pass 1  IDiag  1:
 RMSU=  1.43D-08    CP:  9.90D-01  1.35D+00  9.26D-01  8.51D-01  1.31D+00
                    CP:  1.65D+00  1.57D+00  1.64D+00  1.89D+00  1.50D+00
                    CP:  1.45D+00  1.24D+00  1.18D+00  9.64D-01
 E= -1028.79887954938     Delta-E=       -0.000000000019 Rises=F Damp=F
 DIIS: error= 8.59D-08 at cycle  15 NSaved=  15.
 NSaved=15 IEnMin=15 EnMin= -1028.79887954938     IErMin=15 ErrMin= 8.59D-08
 ErrMax= 8.59D-08  0.00D+00 EMaxC= 1.00D-01 BMatC= 1.19D-12 BMatP= 1.44D-11
 IDIUse=1 WtCom= 1.00D+00 WtEn= 0.00D+00
 Coeff-Com: -0.427D-05 0.802D-05 0.208D-04 0.389D-04-0.193D-04-0.332D-03
 Coeff-Com: -0.642D-03-0.859D-04 0.462D-02 0.829D-02-0.956D-02-0.451D-01
 Coeff-Com: -0.531D-01 0.163D+00 0.933D+00
 Coeff:     -0.427D-05 0.802D-05 0.208D-04 0.389D-04-0.193D-04-0.332D-03
 Coeff:     -0.642D-03-0.859D-04 0.462D-02 0.829D-02-0.956D-02-0.451D-01
 Coeff:     -0.531D-01 0.163D+00 0.933D+00
 Gap=     0.251 Goal=   None    Shift=    0.000
 RMSDP=1.05D-08 MaxDP=1.95D-07 DE=-1.93D-11 OVMax= 1.24D-06

 Cycle  16  Pass 1  IDiag  1:
 RMSU=  4.89D-09    CP:  9.90D-01  1.35D+00  9.26D-01  8.51D-01  1.31D+00
                    CP:  1.65D+00  1.57D+00  1.64D+00  1.89D+00  1.50D+00
                    CP:  1.45D+00  1.25D+00  1.23D+00  1.12D+00  1.17D+00
 E= -1028.79887954938     Delta-E=       -0.000000000007 Rises=F Damp=F
 DIIS: error= 2.60D-08 at cycle  16 NSaved=  16.
 NSaved=16 IEnMin=16 EnMin= -1028.79887954938     IErMin=16 ErrMin= 2.60D-08
 ErrMax= 2.60D-08  0.00D+00 EMaxC= 1.00D-01 BMatC= 1.47D-13 BMatP= 1.19D-12
 IDIUse=1 WtCom= 1.00D+00 WtEn= 0.00D+00
 Coeff-Com: -0.116D-06 0.210D-07 0.191D-05 0.868D-05 0.910D-05-0.552D-04
 Coeff-Com: -0.238D-03-0.443D-03 0.105D-02 0.363D-02 0.311D-03-0.144D-01
 Coeff-Com: -0.459D-01-0.234D-01 0.242D+00 0.837D+00
 Coeff:     -0.116D-06 0.210D-07 0.191D-05 0.868D-05 0.910D-05-0.552D-04
 Coeff:     -0.238D-03-0.443D-03 0.105D-02 0.363D-02 0.311D-03-0.144D-01
 Coeff:     -0.459D-01-0.234D-01 0.242D+00 0.837D+00
 Gap=     0.251 Goal=   None    Shift=    0.000
 RMSDP=4.04D-09 MaxDP=1.00D-07 DE=-6.59D-12 OVMax= 5.00D-07

 Error on total polarization charges =  0.00826
 SCF Done:  E(RwB97XD) =  -1028.79887955     A.U. after   16 cycles
            NFock= 16  Conv=0.40D-08     -V/T= 2.0051
 KE= 1.023533574322D+03 PE=-4.613635006774D+03 EE= 1.460404145093D+03
 Leave Link  502 at Tue Jul 14 14:39:35 2020, MaxMem=  7784628224 cpu:             866.8 elap:              87.4
 (Enter /gpfs/loomis/apps/avx/software/Gaussian/16-C.01_AVX/g16/l801.exe)
 DoSCS=F DFT=T ScalE2(SS,OS)=  1.000000  1.000000
 ExpMin= 1.22D-01 ExpMax= 1.11D+05 ExpMxC= 1.07D+03 IAcc=3 IRadAn=         5 AccDes= 0.00D+00
 HarFok:  IExCor=  205 AccDes= 0.00D+00 IRadAn=         5 IDoV=-2 UseB2=F ITyADJ=14
 ICtDFT= 12500011 ScaDFX=  1.000000  1.000000  1.000000  1.000000
 Largest valence mixing into a core orbital is  9.40D-05
 Largest core mixing into a valence orbital is  3.03D-05
 Range of M.O.s used for correlation:    21   273
 NBasis=   273 NAE=    59 NBE=    59 NFC=    20 NFV=     0
 NROrb=    253 NOA=    39 NOB=    39 NVA=   214 NVB=   214

 **** Warning!!: The largest alpha MO coefficient is  0.11618440D+02

 Leave Link  801 at Tue Jul 14 14:39:36 2020, MaxMem=  7784628224 cpu:               2.1 elap:               0.3
 (Enter /gpfs/loomis/apps/avx/software/Gaussian/16-C.01_AVX/g16/l914.exe)
 RHF ground state
 Keep R1, R2, and R3 ints in memory in canonical form, NReq=4262515490.
 FoFCou: FMM=F IPFlag=           0 FMFlag=           0 FMFlg1=           0
         NFxFlg=           0 DoJE=F BraDBF=F KetDBF=F FulRan=T
         wScrn=  0.000000 ICntrl=       600 IOpCl=  0 I1Cent=           0 NGrid=           0
         NMat0=    1 NMatS0=  37401 NMatT0=    0 NMatD0=    1 NMtDS0=    0 NMtDT0=    0
 Symmetry not used in FoFCou.
 Two-electron integral symmetry not used.
 MDV=  7784628224 DFT=T DoStab=F Mixed=T DoRPA=T DoScal=F NonHer=T
 NEqPCM:  Using equilibrium solvation (IEInf=0, Eps=   2.2280, EpsInf=   2.1319)
 Making orbital integer symmetry assigments:
    12 initial guesses have been made.
 Convergence on wavefunction:    0.000001000000000
 Davidson Disk Diagonalization:  ConvIn= 1.00D-06 SkipCon=T Conv= 1.00D-06.
 Max sub-space:  2000 roots to seek:    12 dimension of matrix:        16692
 Iteration     1 Dimension    12 NMult     0 NNew     12
 CISAX will form    12 AO SS matrices at one time.
 NMat=    12 NSing=    12 JSym2X= 0.
 New state      2 was old state      5
 New state      3 was old state      2
 Excitation Energies [eV] at current iteration:
 Root      1 :     3.640427923641470
 Root      2 :     4.481789213176120
 Root      3 :     4.860004785616816
 Root      4 :     5.251255339713765
 Root      5 :     5.738247204485441
 Root      6 :     5.893879449872922
 Root      7 :     6.083318016188976
 Root      8 :     6.305178270815132
 Root      9 :     6.828767464158601
 Root     10 :     6.945490087400905
 Root     11 :     7.050606993090327
 Root     12 :     7.779898407806094
 Iteration     2 Dimension    18 NMult    12 NNew      6
 CISAX will form     6 AO SS matrices at one time.
 NMat=     6 NSing=     6 JSym2X= 0.
 Root      1 not converged, maximum delta is    0.046554720571729
 Root      2 not converged, maximum delta is    0.095623335207729
 Root      3 not converged, maximum delta is    0.071841759282575
 Excitation Energies [eV] at current iteration:
 Root      1 :     3.137024435122204   Change is   -0.503403488519267
 Root      2 :     4.276621526317696   Change is   -0.205167686858424
 Root      3 :     4.321175550769984   Change is   -0.538829234846832
 Iteration     3 Dimension    24 NMult    18 NNew      6
 CISAX will form     6 AO SS matrices at one time.
 NMat=     6 NSing=     6 JSym2X= 0.
 Root      1 not converged, maximum delta is    0.018830517665871
 Root      2 not converged, maximum delta is    0.030734584556562
 Root      3 not converged, maximum delta is    0.014355445972717
 Excitation Energies [eV] at current iteration:
 Root      1 :     3.104492444259926   Change is   -0.032531990862277
 Root      2 :     4.258515355033863   Change is   -0.018106171283833
 Root      3 :     4.295971083976648   Change is   -0.025204466793336
 Iteration     4 Dimension    30 NMult    24 NNew      6
 CISAX will form     6 AO SS matrices at one time.
 NMat=     6 NSing=     6 JSym2X= 0.
 Root      1 not converged, maximum delta is    0.007934997909331
 Root      2 not converged, maximum delta is    0.010875683664895
 Root      3 not converged, maximum delta is    0.009240970776630
 Excitation Energies [eV] at current iteration:
 Root      1 :     3.099366387774806   Change is   -0.005126056485120
 Root      2 :     4.256660760859823   Change is   -0.001854594174039
 Root      3 :     4.291325712155787   Change is   -0.004645371820860
 Iteration     5 Dimension    36 NMult    30 NNew      6
 CISAX will form     6 AO SS matrices at one time.
 NMat=     6 NSing=     6 JSym2X= 0.
 Root      1 not converged, maximum delta is    0.002963770716020
 Root      2 not converged, maximum delta is    0.002064526145795
 Root      3 not converged, maximum delta is    0.002424183184129
 Excitation Energies [eV] at current iteration:
 Root      1 :     3.098828232477808   Change is   -0.000538155296998
 Root      2 :     4.256498196343572   Change is   -0.000162564516251
 Root      3 :     4.290894508803508   Change is   -0.000431203352280
 Iteration     6 Dimension    42 NMult    36 NNew      6
 CISAX will form     6 AO SS matrices at one time.
 NMat=     6 NSing=     6 JSym2X= 0.
 Root      1 not converged, maximum delta is    0.000484396811808
 Root      2 not converged, maximum delta is    0.000269314835938
 Root      3 not converged, maximum delta is    0.001018344116200
 Excitation Energies [eV] at current iteration:
 Root      1 :     3.098772577002688   Change is   -0.000055655475120
 Root      2 :     4.256488176259945   Change is   -0.000010020083627
 Root      3 :     4.290836077583144   Change is   -0.000058431220364
 Iteration     7 Dimension    48 NMult    42 NNew      6
 CISAX will form     6 AO SS matrices at one time.
 NMat=     6 NSing=     6 JSym2X= 0.
 Root      1 not converged, maximum delta is    0.000138673686616
 Root      2 not converged, maximum delta is    0.000142601006644
 Root      3 not converged, maximum delta is    0.000471225837437
 Excitation Energies [eV] at current iteration:
 Root      1 :     3.098769174474159   Change is   -0.000003402528529
 Root      2 :     4.256487404470185   Change is   -0.000000771789761
 Root      3 :     4.290828118108511   Change is   -0.000007959474633
 Iteration     8 Dimension    54 NMult    48 NNew      6
 CISAX will form     6 AO SS matrices at one time.
 NMat=     6 NSing=     6 JSym2X= 0.
 Root      1 not converged, maximum delta is    0.000031548331690
 Root      2 not converged, maximum delta is    0.000041441900440
 Root      3 not converged, maximum delta is    0.000110905397629
 Excitation Energies [eV] at current iteration:
 Root      1 :     3.098768896498504   Change is   -0.000000277975655
 Root      2 :     4.256487342540654   Change is   -0.000000061929530
 Root      3 :     4.290827259369242   Change is   -0.000000858739269
 Iteration     9 Dimension    60 NMult    54 NNew      6
 CISAX will form     6 AO SS matrices at one time.
 NMat=     6 NSing=     6 JSym2X= 0.
 Root      1 not converged, maximum delta is    0.000007782409161
 Root      2 not converged, maximum delta is    0.000007615174798
 Root      3 not converged, maximum delta is    0.000033001639599
 Excitation Energies [eV] at current iteration:
 Root      1 :     3.098768880307986   Change is   -0.000000016190518
 Root      2 :     4.256487338819954   Change is   -0.000000003720701
 Root      3 :     4.290827183675986   Change is   -0.000000075693257
 Iteration    10 Dimension    66 NMult    60 NNew      6
 CISAX will form     6 AO SS matrices at one time.
 NMat=     6 NSing=     6 JSym2X= 0.
 Root      1 not converged, maximum delta is    0.000001606859358
 Root      2 not converged, maximum delta is    0.000001791625103
 Root      3 not converged, maximum delta is    0.000011422663773
 Excitation Energies [eV] at current iteration:
 Root      1 :     3.098768879274359   Change is   -0.000000001033626
 Root      2 :     4.256487338563645   Change is   -0.000000000256309
 Root      3 :     4.290827175577443   Change is   -0.000000008098542
 Iteration    11 Dimension    72 NMult    66 NNew      6
 CISAX will form     6 AO SS matrices at one time.
 NMat=     6 NSing=     6 JSym2X= 0.
 Root      1 has converged.
 Root      2 has converged.
 Root      3 not converged, maximum delta is    0.000005751467009
 Excitation Energies [eV] at current iteration:
 Root      1 :     3.098768879210690   Change is   -0.000000000063670
 Root      2 :     4.256487338532358   Change is   -0.000000000031288
 Root      3 :     4.290827174626664   Change is   -0.000000000950779
 Iteration    12 Dimension    74 NMult    72 NNew      2
 CISAX will form     2 AO SS matrices at one time.
 NMat=     2 NSing=     2 JSym2X= 0.
 Root      1 has converged.
 Root      2 has converged.
 Root      3 not converged, maximum delta is    0.000001396609618
 Excitation Energies [eV] at current iteration:
 Root      1 :     3.098768879210345   Change is   -0.000000000000345
 Root      2 :     4.256487338532435   Change is    0.000000000000078
 Root      3 :     4.290827174550162   Change is   -0.000000000076502
 Iteration    13 Dimension    76 NMult    74 NNew      2
 CISAX will form     2 AO SS matrices at one time.
 NMat=     2 NSing=     2 JSym2X= 0.
 Root      1 has converged.
 Root      2 has converged.
 Root      3 has converged.
 Excitation Energies [eV] at current iteration:
 Root      1 :     3.098768879210398   Change is    0.000000000000053
 Root      2 :     4.256487338532435   Change is    0.000000000000000
 Root      3 :     4.290827174544357   Change is   -0.000000000005805
 Convergence achieved on expansion vectors.
 ***********************************************************************
 Excited states from <AA,BB:AA,BB> singles matrix:
 ***********************************************************************
 
 1PDM for each excited state written to RWF  633
 Ground to excited state transition densities written to RWF  633
 Ground to excited state transition electric dipole moments (Au):
       state          X           Y           Z        Dip. S.      Osc.
         1         1.2482     -2.1094     -0.0000      6.0076      0.4561
         2         0.0006     -0.0003      0.0077      0.0001      0.0000
         3        -1.4752      0.8121      0.0000      2.8358      0.2981
 Ground to excited state transition velocity dipole moments (Au):
       state          X           Y           Z        Dip. S.      Osc.
         1        -0.1382      0.2435      0.0000      0.0784      0.4590
         2        -0.0001      0.0000     -0.0002      0.0000      0.0000
         3         0.2283     -0.1195     -0.0000      0.0664      0.2808
 Ground to excited state transition magnetic dipole moments (Au):
       state          X           Y           Z
         1         0.0000      0.0000     -0.9057
         2         0.1606      0.0382      0.0005
         3         0.0001      0.0000     -1.3386
 Ground to excited state transition velocity quadrupole moments (Au):
       state          XX          YY          ZZ          XY          XZ          YZ
         1         0.0741      0.5814     -0.0148     -0.2834     -0.0000      0.0000
         2         0.0002     -0.0003      0.0000      0.0000     -0.0164      0.0019
         3        -0.4949      0.6878      0.0035      0.0076     -0.0000      0.0000
 <0|del|b> * <b|rxdel|0> + <0|del|b> * <b|delr+rdel|0>
 Rotatory Strengths (R) in cgs (10**-40 erg-esu-cm/Gauss)
       state          XX          YY          ZZ    R(velocity)    E-M Angle
         1         0.0042     -0.0137      0.0153      0.0019       90.00
         2         0.0047     -0.0334     -0.0305     -0.0197       90.00
         3         0.0022      0.0366      0.0212      0.0200       90.00
 1/2[<0|r|b>*<b|rxdel|0> + (<0|rxdel|b>*<b|r|0>)*]
 Rotatory Strengths (R) in cgs (10**-40 erg-esu-cm/Gauss)
       state          XX          YY          ZZ     R(length)
         1        -0.0044      0.0298     -0.0209      0.0015
         2        -0.0668      0.0076     -0.0029     -0.0207
         3         0.0564     -0.0087      0.0162      0.0213
  1/2[<0|del|b>*<b|r|0> + (<0|r|b>*<b|del|0>)*] (Au)
       state          X           Y           Z        Dip. S.   Osc.(frdel)
         1        -0.1725     -0.5137     -0.0000      0.6862      0.4575
         2        -0.0000     -0.0000     -0.0000      0.0000      0.0000
         3        -0.3368     -0.0971     -0.0000      0.4339      0.2892

 Excitation energies and oscillator strengths:
 
 Excited state symmetry could not be determined.
 Excited State   1:      Singlet-?Sym    3.0988 eV  400.11 nm  f=0.4561  <S**2>=0.000
      59 -> 60         0.69468
 This state for optimization and/or second-order correction.
 Total Energy, E(TD-HF/TD-DFT) =  -1028.68500189    
 Copying the excited state density for this state as the 1-particle RhoCI density.
 
 Excited state symmetry could not be determined.
 Excited State   2:      Singlet-?Sym    4.2565 eV  291.28 nm  f=0.0000  <S**2>=0.000
      56 -> 60         0.68649
      56 -> 62         0.10575
      56 -> 64        -0.11246
 
 Excited state symmetry could not be determined.
 Excited State   3:      Singlet-?Sym    4.2908 eV  288.95 nm  f=0.2981  <S**2>=0.000
      58 -> 60         0.67766
 SavETr:  write IOETrn=   770 NScale= 10 NData=  16 NLR=1 NState=    3 LETran=      64.
 The selected state is a singlet.
 CISGrd: IGrad=2 NXY=2 DFT=T
 CISAX will form     1 AO SS matrices at one time.
 NMat=     1 NSing=     1 JSym2X= 0.
 GePol: Maximum number of non-zero 1st derivatives   =     240
 Leave Link  914 at Tue Jul 14 14:42:34 2020, MaxMem=  7784628224 cpu:            1764.1 elap:             178.9
 (Enter /gpfs/loomis/apps/avx/software/Gaussian/16-C.01_AVX/g16/l1002.exe)
 Minotr:  Closed shell wavefunction.
          Computing CIS/TDA/TD derivatives.
          Using Z-Vector for PSCF gradient.
          Skipping F1 and S1 gradient terms here.
          IDoAtm=1111111111111111111111111
 NEqPCM:  Using equilibrium solvation (IEInf=0, Eps=   2.2280, EpsInf=   2.1319)
          Frozen-core window.
          Direct CPHF calculation.
          Differentiating once with respect to electric field.
                with respect to dipole field.
          Differentiating once with respect to nuclear coordinates.
          Requested convergence is 1.0D-10 RMS, and 1.0D-09 maximum.
          NewPWx=F KeepS1=T KeepF1=T KeepIn=T MapXYZ=F SortEE=F KeepMc=T.
 Keep R1 ints in memory in canonical form, NReq=1421406196.
 FoFCou: FMM=F IPFlag=           0 FMFlag=           0 FMFlg1=           0
         NFxFlg=           0 DoJE=F BraDBF=F KetDBF=F FulRan=T
         wScrn=  0.000000 ICntrl=       600 IOpCl=  0 I1Cent=           0 NGrid=           0
         NMat0=    1 NMatS0=  37401 NMatT0=    0 NMatD0=    1 NMtDS0=    0 NMtDT0=    0
 Symmetry not used in FoFCou.
 Two-electron integral symmetry not used.
          MDV=    7784628224 using IRadAn=       5.
          Solving linear equations separately, MaxMat=       0.
          There are     1 degrees of freedom in the 1st order CPHF.  IDoFFX=0 NUNeed=     1.
 LinEq1:  Iter=  0 NonCon=     1 RMS=6.06D-03 Max=3.79D-01 NDo=     1
 AX will form     1 AO Fock derivatives at one time.
 LinEq1:  Iter=  1 NonCon=     1 RMS=2.65D-03 Max=1.44D-01 NDo=     1
 LinEq1:  Iter=  2 NonCon=     1 RMS=1.63D-03 Max=5.39D-02 NDo=     1
 LinEq1:  Iter=  3 NonCon=     1 RMS=6.35D-04 Max=1.65D-02 NDo=     1
 LinEq1:  Iter=  4 NonCon=     1 RMS=3.51D-04 Max=1.24D-02 NDo=     1
 LinEq1:  Iter=  5 NonCon=     1 RMS=1.77D-04 Max=7.65D-03 NDo=     1
 LinEq1:  Iter=  6 NonCon=     1 RMS=7.46D-05 Max=2.78D-03 NDo=     1
 LinEq1:  Iter=  7 NonCon=     1 RMS=3.83D-05 Max=1.35D-03 NDo=     1
 LinEq1:  Iter=  8 NonCon=     1 RMS=1.48D-05 Max=3.75D-04 NDo=     1
 LinEq1:  Iter=  9 NonCon=     1 RMS=7.92D-06 Max=2.23D-04 NDo=     1
 LinEq1:  Iter= 10 NonCon=     1 RMS=3.12D-06 Max=8.24D-05 NDo=     1
 LinEq1:  Iter= 11 NonCon=     1 RMS=1.63D-06 Max=5.20D-05 NDo=     1
 LinEq1:  Iter= 12 NonCon=     1 RMS=8.82D-07 Max=3.07D-05 NDo=     1
 LinEq1:  Iter= 13 NonCon=     1 RMS=4.02D-07 Max=1.14D-05 NDo=     1
 LinEq1:  Iter= 14 NonCon=     1 RMS=1.69D-07 Max=4.48D-06 NDo=     1
 LinEq1:  Iter= 15 NonCon=     1 RMS=9.19D-08 Max=3.06D-06 NDo=     1
 LinEq1:  Iter= 16 NonCon=     1 RMS=3.77D-08 Max=1.27D-06 NDo=     1
 LinEq1:  Iter= 17 NonCon=     1 RMS=1.73D-08 Max=5.96D-07 NDo=     1
 LinEq1:  Iter= 18 NonCon=     1 RMS=6.86D-09 Max=1.66D-07 NDo=     1
 LinEq1:  Iter= 19 NonCon=     1 RMS=3.43D-09 Max=1.16D-07 NDo=     1
 LinEq1:  Iter= 20 NonCon=     1 RMS=1.55D-09 Max=4.61D-08 NDo=     1
 LinEq1:  Iter= 21 NonCon=     1 RMS=4.21D-10 Max=1.14D-08 NDo=     1
 LinEq1:  Iter= 22 NonCon=     1 RMS=1.68D-10 Max=4.06D-09 NDo=     1
 LinEq1:  Iter= 23 NonCon=     1 RMS=7.60D-11 Max=1.60D-09 NDo=     1
 LinEq1:  Iter= 24 NonCon=     0 RMS=2.43D-11 Max=8.55D-10 NDo=     1
 Linear equations converged to 1.000D-10 1.000D-09 after    24 iterations.
 End of Minotr F.D. properties file   721 does not exist.
 End of Minotr F.D. properties file   722 does not exist.
 End of Minotr F.D. properties file   788 does not exist.
 Leave Link 1002 at Tue Jul 14 14:44:21 2020, MaxMem=  7784628224 cpu:             780.2 elap:             106.6
 (Enter /gpfs/loomis/apps/avx/software/Gaussian/16-C.01_AVX/g16/l601.exe)
 Copying SCF densities to generalized density rwf, IOpCl= 0 IROHF=0.

 **********************************************************************

            Population analysis using the SCF Density.

 **********************************************************************

 Alpha  occ. eigenvalues --  -89.09693 -19.23045 -14.50913 -10.40830 -10.37543
 Alpha  occ. eigenvalues --  -10.36683 -10.35783 -10.33109 -10.32971 -10.32426
 Alpha  occ. eigenvalues --  -10.32291 -10.32055 -10.31651 -10.30981 -10.29941
 Alpha  occ. eigenvalues --  -10.29547  -8.11830  -6.06672  -6.06322  -6.05867
 Alpha  occ. eigenvalues --   -1.12776  -1.09685  -0.97536  -0.95740  -0.93018
 Alpha  occ. eigenvalues --   -0.88907  -0.86186  -0.83423  -0.81937  -0.75856
 Alpha  occ. eigenvalues --   -0.72029  -0.71491  -0.68372  -0.67519  -0.64338
 Alpha  occ. eigenvalues --   -0.60877  -0.59361  -0.57347  -0.55200  -0.55155
 Alpha  occ. eigenvalues --   -0.54421  -0.53785  -0.52851  -0.50428  -0.49686
 Alpha  occ. eigenvalues --   -0.49127  -0.47699  -0.46603  -0.45270  -0.45069
 Alpha  occ. eigenvalues --   -0.44209  -0.43235  -0.42090  -0.40606  -0.36588
 Alpha  occ. eigenvalues --   -0.33866  -0.32978  -0.31243  -0.27012
 Alpha virt. eigenvalues --   -0.01921   0.04024   0.05793   0.07077   0.08392
 Alpha virt. eigenvalues --    0.10527   0.14503   0.14859   0.16909   0.17586
 Alpha virt. eigenvalues --    0.18616   0.20420   0.21186   0.21300   0.22603
 Alpha virt. eigenvalues --    0.23298   0.23872   0.24962   0.27699   0.28360
 Alpha virt. eigenvalues --    0.31964   0.33388   0.35015   0.35233   0.36505
 Alpha virt. eigenvalues --    0.37978   0.38901   0.40418   0.41407   0.42912
 Alpha virt. eigenvalues --    0.47172   0.47232   0.50962   0.50966   0.51375
 Alpha virt. eigenvalues --    0.52145   0.53001   0.53414   0.53629   0.54814
 Alpha virt. eigenvalues --    0.56126   0.56297   0.56697   0.56877   0.57913
 Alpha virt. eigenvalues --    0.58016   0.58388   0.58808   0.59256   0.60063
 Alpha virt. eigenvalues --    0.60987   0.61211   0.61918   0.62725   0.63102
 Alpha virt. eigenvalues --    0.65236   0.65869   0.66820   0.67220   0.68772
 Alpha virt. eigenvalues --    0.70714   0.70878   0.72000   0.72513   0.72862
 Alpha virt. eigenvalues --    0.72902   0.74587   0.75126   0.75742   0.77976
 Alpha virt. eigenvalues --    0.78544   0.79162   0.80040   0.80699   0.82437
 Alpha virt. eigenvalues --    0.84686   0.87517   0.90656   0.90781   0.93201
 Alpha virt. eigenvalues --    0.94429   0.94482   0.96199   0.96210   0.96936
 Alpha virt. eigenvalues --    0.98228   0.98478   1.00343   1.00765   1.01420
 Alpha virt. eigenvalues --    1.02445   1.05463   1.05679   1.06355   1.07282
 Alpha virt. eigenvalues --    1.07757   1.09839   1.09896   1.10148   1.10740
 Alpha virt. eigenvalues --    1.12082   1.12775   1.14325   1.14859   1.15008
 Alpha virt. eigenvalues --    1.15996   1.19724   1.20175   1.22124   1.23140
 Alpha virt. eigenvalues --    1.25426   1.28790   1.32112   1.33132   1.34136
 Alpha virt. eigenvalues --    1.36589   1.36784   1.38971   1.40590   1.47172
 Alpha virt. eigenvalues --    1.48722   1.50029   1.53146   1.53171   1.54380
 Alpha virt. eigenvalues --    1.56503   1.56751   1.56792   1.58269   1.58527
 Alpha virt. eigenvalues --    1.59971   1.60594   1.64640   1.66246   1.66689
 Alpha virt. eigenvalues --    1.67176   1.68752   1.69920   1.70307   1.70380
 Alpha virt. eigenvalues --    1.71434   1.72164   1.73383   1.73486   1.75583
 Alpha virt. eigenvalues --    1.76960   1.79471   1.80076   1.80913   1.81387
 Alpha virt. eigenvalues --    1.82434   1.83891   1.84068   1.84770   1.84971
 Alpha virt. eigenvalues --    1.86488   1.87508   1.88144   1.90531   1.91525
 Alpha virt. eigenvalues --    1.92083   1.93301   1.93571   1.94812   1.96471
 Alpha virt. eigenvalues --    1.97141   1.98803   1.99438   2.02821   2.03257
 Alpha virt. eigenvalues --    2.05373   2.07224   2.09274   2.10092   2.13094
 Alpha virt. eigenvalues --    2.15623   2.16668   2.18656   2.20280   2.23087
 Alpha virt. eigenvalues --    2.25069   2.25821   2.30890   2.36433   2.39773
 Alpha virt. eigenvalues --    2.41456   2.41844   2.45020   2.45811   2.47145
 Alpha virt. eigenvalues --    2.47292   2.49105   2.50586   2.52925   2.60737
 Alpha virt. eigenvalues --    2.61424   2.70917   2.73207   2.74494   2.77659
 Alpha virt. eigenvalues --    2.79977   2.82730   2.84203   2.86829   2.88395
 Alpha virt. eigenvalues --    2.90521   3.00553   3.12992   3.18820   3.39566
 Alpha virt. eigenvalues --    3.45394   3.53780   3.62288   3.77198
          Condensed to atoms (all electrons):
               1          2          3          4          5          6
     1  C    4.740176   0.489385   0.005009  -0.051299  -0.016211   0.514182
     2  C    0.489385   5.287885   0.335266  -0.040434  -0.067060  -0.009162
     3  C    0.005009   0.335266   4.856354   0.495094  -0.004547  -0.061254
     4  C   -0.051299  -0.040434   0.495094   4.788813   0.518574  -0.011702
     5  C   -0.016211  -0.067060  -0.004547   0.518574   4.736928   0.495566
     6  C    0.514182  -0.009162  -0.061254  -0.011702   0.495566   4.738008
     7  H    0.402371  -0.037308   0.008458  -0.000632   0.007798  -0.039004
     8  H   -0.000576   0.010379  -0.033463   0.396368  -0.040054   0.007344
     9  H    0.008870  -0.000690   0.008331  -0.037933   0.404665  -0.044502
    10  H   -0.042322   0.009133  -0.000451   0.008041  -0.041603   0.406789
    11  N    0.004702  -0.045165   0.372886  -0.041914   0.002735   0.000063
    12  S   -0.072308   0.326793  -0.111328   0.005872   0.000299   0.004189
    13  C   -0.000217   0.001662   0.008827  -0.000435   0.000007   0.000004
    14  C   -0.000012   0.000197   0.000386   0.000007  -0.000000  -0.000000
    15  C    0.000004  -0.000335   0.000432   0.000032  -0.000000  -0.000000
    16  C    0.000000  -0.000009   0.000005  -0.000000   0.000000  -0.000000
    17  H   -0.000016   0.000273  -0.000007   0.000001  -0.000000   0.000000
    18  C    0.000000   0.000008  -0.000010  -0.000000   0.000000  -0.000000
    19  C   -0.000000   0.000000   0.000001   0.000000  -0.000000   0.000000
    20  H   -0.000000  -0.000000  -0.000000  -0.000000  -0.000000  -0.000000
    21  H   -0.000000  -0.000000  -0.000000  -0.000000  -0.000000   0.000000
    22  H    0.000000  -0.000000  -0.000000  -0.000000   0.000000  -0.000000
    23  C    0.003757  -0.045771  -0.118284   0.000414   0.000246  -0.000204
    24  O    0.000002  -0.000117  -0.000788  -0.000019   0.000000  -0.000000
    25  H    0.000056   0.005869  -0.024602  -0.001604  -0.000041   0.000001
               7          8          9         10         11         12
     1  C    0.402371  -0.000576   0.008870  -0.042322   0.004702  -0.072308
     2  C   -0.037308   0.010379  -0.000690   0.009133  -0.045165   0.326793
     3  C    0.008458  -0.033463   0.008331  -0.000451   0.372886  -0.111328
     4  C   -0.000632   0.396368  -0.037933   0.008041  -0.041914   0.005872
     5  C    0.007798  -0.040054   0.404665  -0.041603   0.002735   0.000299
     6  C   -0.039004   0.007344  -0.044502   0.406789   0.000063   0.004189
     7  H    0.648562   0.000028  -0.000152  -0.010546  -0.000079  -0.007903
     8  H    0.000028   0.641238  -0.012142  -0.000099  -0.002698  -0.000221
     9  H   -0.000152  -0.012142   0.656738  -0.011755  -0.000087   0.000018
    10  H   -0.010546  -0.000099  -0.011755   0.654592   0.000003  -0.000166
    11  N   -0.000079  -0.002698  -0.000087   0.000003   6.308935  -0.056988
    12  S   -0.007903  -0.000221   0.000018  -0.000166  -0.056988  15.461024
    13  C   -0.000003   0.000025  -0.000000  -0.000000  -0.026614  -0.065324
    14  C    0.000002   0.000000   0.000000  -0.000000   0.003442  -0.014733
    15  C   -0.000000  -0.000005   0.000000   0.000000  -0.009601   0.005396
    16  C    0.000000   0.000000  -0.000000  -0.000000  -0.000066   0.000536
    17  H    0.000001   0.000000   0.000000  -0.000000   0.000224   0.009011
    18  C    0.000000  -0.000000   0.000000  -0.000000  -0.000510  -0.000236
    19  C   -0.000000   0.000000  -0.000000  -0.000000   0.000031   0.000028
    20  H    0.000000   0.000000   0.000000   0.000000   0.000001   0.000018
    21  H   -0.000000   0.000000  -0.000000   0.000000   0.000013   0.000005
    22  H    0.000000  -0.000000   0.000000  -0.000000  -0.000000  -0.000001
    23  C    0.000215  -0.000654   0.000006   0.000006   0.529463   0.318792
    24  O    0.000000  -0.000108   0.000000  -0.000000  -0.067744  -0.000160
    25  H    0.000003   0.000684  -0.000004  -0.000000   0.267634   0.003883
              13         14         15         16         17         18
     1  C   -0.000217  -0.000012   0.000004   0.000000  -0.000016   0.000000
     2  C    0.001662   0.000197  -0.000335  -0.000009   0.000273   0.000008
     3  C    0.008827   0.000386   0.000432   0.000005  -0.000007  -0.000010
     4  C   -0.000435   0.000007   0.000032  -0.000000   0.000001  -0.000000
     5  C    0.000007  -0.000000  -0.000000   0.000000  -0.000000   0.000000
     6  C    0.000004  -0.000000  -0.000000  -0.000000   0.000000  -0.000000
     7  H   -0.000003   0.000002  -0.000000   0.000000   0.000001   0.000000
     8  H    0.000025   0.000000  -0.000005   0.000000   0.000000  -0.000000
     9  H   -0.000000   0.000000   0.000000  -0.000000   0.000000   0.000000
    10  H   -0.000000  -0.000000   0.000000  -0.000000  -0.000000  -0.000000
    11  N   -0.026614   0.003442  -0.009601  -0.000066   0.000224  -0.000510
    12  S   -0.065324  -0.014733   0.005396   0.000536   0.009011  -0.000236
    13  C    5.381444   0.438992   0.223608  -0.009167  -0.036076  -0.040118
    14  C    0.438992   4.864929   0.003044   0.536242   0.396527  -0.057147
    15  C    0.223608   0.003044   4.736910  -0.053214   0.005752   0.471096
    16  C   -0.009167   0.536242  -0.053214   4.752051  -0.030627  -0.020399
    17  H   -0.036076   0.396527   0.005752  -0.030627   0.658239  -0.000682
    18  C   -0.040118  -0.057147   0.471096  -0.020399  -0.000682   4.877388
    19  C   -0.053650  -0.020679  -0.006463   0.485195   0.007630   0.508824
    20  H    0.008810  -0.035793  -0.000164   0.400439  -0.011422   0.007913
    21  H    0.014405  -0.000649  -0.025456   0.007314   0.000046   0.375469
    22  H   -0.001608   0.009758   0.008528  -0.044713  -0.000182  -0.040537
    23  C    0.370317  -0.087561  -0.077646   0.005999  -0.022919   0.009104
    24  O   -0.095299   0.006096   0.598246  -0.000127  -0.000067  -0.059735
    25  H   -0.026920  -0.000796  -0.019834   0.000042  -0.000068   0.003224
              19         20         21         22         23         24
     1  C   -0.000000  -0.000000  -0.000000   0.000000   0.003757   0.000002
     2  C    0.000000  -0.000000  -0.000000  -0.000000  -0.045771  -0.000117
     3  C    0.000001  -0.000000  -0.000000  -0.000000  -0.118284  -0.000788
     4  C    0.000000  -0.000000  -0.000000  -0.000000   0.000414  -0.000019
     5  C   -0.000000  -0.000000  -0.000000   0.000000   0.000246   0.000000
     6  C    0.000000  -0.000000   0.000000  -0.000000  -0.000204  -0.000000
     7  H   -0.000000   0.000000  -0.000000   0.000000   0.000215   0.000000
     8  H    0.000000   0.000000   0.000000  -0.000000  -0.000654  -0.000108
     9  H   -0.000000   0.000000  -0.000000   0.000000   0.000006   0.000000
    10  H   -0.000000   0.000000   0.000000  -0.000000   0.000006  -0.000000
    11  N    0.000031   0.000001   0.000013  -0.000000   0.529463  -0.067744
    12  S    0.000028   0.000018   0.000005  -0.000001   0.318792  -0.000160
    13  C   -0.053650   0.008810   0.014405  -0.001608   0.370317  -0.095299
    14  C   -0.020679  -0.035793  -0.000649   0.009758  -0.087561   0.006096
    15  C   -0.006463  -0.000164  -0.025456   0.008528  -0.077646   0.598246
    16  C    0.485195   0.400439   0.007314  -0.044713   0.005999  -0.000127
    17  H    0.007630  -0.011422   0.000046  -0.000182  -0.022919  -0.000067
    18  C    0.508824   0.007913   0.375469  -0.040537   0.009104  -0.059735
    19  C    4.736381  -0.045710  -0.045191   0.403777   0.000677   0.003426
    20  H   -0.045710   0.680382  -0.000135  -0.011979  -0.000392   0.000001
    21  H   -0.045191  -0.000135   0.670223  -0.012191  -0.000455   0.003845
    22  H    0.403777  -0.011979  -0.012191   0.667352  -0.000003  -0.000060
    23  C    0.000677  -0.000392  -0.000455  -0.000003   5.059644  -0.007731
    24  O    0.003426   0.000001   0.003845  -0.000060  -0.007731   7.853964
    25  H   -0.000307  -0.000001   0.000001   0.000007   0.004043   0.165724
              25
     1  C    0.000056
     2  C    0.005869
     3  C   -0.024602
     4  C   -0.001604
     5  C   -0.000041
     6  C    0.000001
     7  H    0.000003
     8  H    0.000684
     9  H   -0.000004
    10  H   -0.000000
[...]
 841511,0.00000529,-0.07649388,-0.07636327,0.00002003,-0.00469537,0.002
 63764,0.00000028,0.00963775,0.02273344,-0.00000513,0.07496642,0.000037
 40,-0.00004045,-0.00000002,0.00006632,0.00079893,0.00000032,0.00033045
 ,0.00009480,0.00000011,0.00005072,0.00006633,0.00000006,0.00002350,0.0
 0010709,0.00000004,-0.00013704,-0.00004895,-0.00000004,-0.00001969,0.0
 0001554,0.00000001,0.00002590,-0.00000750,0.,-0.00000116,0.00000209,0.
 ,0.00000167,0.00000102,0.,0.00020536,0.00057430,-0.00000047,-0.0015539
 6,0.00037606,0.00000012,0.00088869,-0.00514934,0.00000175,-0.07524492,
 -0.32098589,0.00006567,-0.00000368,0.00244659,0.00000102,-0.00897710,-
 0.01675823,0.00000493,0.08080502,0.33958083,-0.00000033,0.00000010,-0.
 00004046,0.00000042,-0.00000034,-0.00062814,-0.00000051,-0.00000010,0.
 00045241,-0.00000023,-0.00000008,0.00014594,-0.00000006,-0.00000025,-0
 .00001729,0.00000025,0.00000015,0.00002417,0.00000004,0.,0.00001413,-0
 .00000004,0.,0.00000632,0.,0.,-0.00000435,-0.00000003,0.,0.00000178,-0
 .00000084,-0.00000211,-0.00237853,0.00000118,-0.00000179,0.00207001,-0
 .00000007,0.00000521,0.00510164,0.00002185,0.00006874,-0.03301280,-0.0
 0000063,0.00000121,0.00839213,-0.00000005,0.00000269,0.00338748,-0.000
 02089,-0.00007257,0.01936176,-0.00048907,-0.00023789,-0.00000166,-0.00
 601498,-0.00301428,-0.00000206,-0.00543008,0.01459453,0.00000482,0.006
 39837,-0.00200552,0.00000064,-0.00002392,0.00368492,0.00000065,-0.0004
 2885,-0.00208947,-0.00000031,-0.00007180,0.00011411,-0.00000002,0.0000
 1570,-0.00005900,-0.00000002,0.00007681,0.00002334,-0.00000002,0.00004
 110,-0.00004836,0.00000031,0.01309562,-0.00232262,-0.00000709,0.000023
 15,-0.00352094,0.00000069,0.01953284,0.01976761,-0.00000705,-0.0373002
 5,0.02012971,0.00000306,-0.16463094,0.09213714,-0.00003225,-0.00142041
 ,-0.07828701,0.00001950,-0.00064370,-0.00015238,0.00000022,0.68467069,
 0.00045865,-0.00010045,0.00000026,-0.00054838,-0.00041947,-0.00000017,
 0.00044795,-0.00014491,-0.00000019,-0.00049630,0.00019243,-0.00000004,
 0.00012325,-0.00023182,0.00000003,-0.00014707,0.00004131,-0.00000005,-
 0.00001235,0.00002658,0.,-0.00000624,-0.00000113,-0.00000001,-0.000000
 77,-0.00000760,-0.00000002,0.00002756,-0.00000340,-0.00000006,0.001440
 07,0.00065340,0.00000167,0.00146337,-0.00189424,0.00000017,0.02037733,
 -0.02927844,0.00000640,0.00164435,0.00047565,-0.00000175,0.10067015,-0
 .23414072,0.00004392,-0.03377843,-0.01465209,0.00000850,-0.00027830,0.
 00061307,-0.00000046,0.04137618,0.71924474,-0.00000031,-0.00000024,0.0
 0011734,0.00000089,-0.00000003,0.00045990,-0.00000186,-0.00000191,0.00
 157625,-0.00000056,0.00000025,-0.00014555,-0.00000015,-0.00000039,-0.0
 0008145,0.00000019,0.00000011,-0.00009656,0.00000005,-0.00000009,0.000
 12260,-0.00000002,0.,0.00007329,0.00000003,-0.00000002,0.00000325,-0.0
 0000002,0.00000001,-0.00004759,-0.00000206,-0.00000713,-0.00480089,-0.
 00000008,0.00000168,0.00136730,-0.00000770,0.00000893,0.01236106,0.000
 00833,-0.00000456,-0.00420817,-0.00003221,0.00004005,-0.06542013,0.000
 00661,0.00001894,0.00599074,0.00000036,-0.00000040,-0.00143154,-0.0000
 9127,-0.00018536,0.10822578,0.00014334,0.00119196,0.00000154,0.0080663
 5,0.00332920,0.00000328,0.00805688,-0.01769117,-0.00000320,-0.00809348
 ,0.00257818,-0.00000100,-0.00004828,-0.00540639,-0.00000123,0.00169183
 ,0.00280462,0.00000049,0.00002595,-0.00009314,0.00000018,0.00005416,0.
 00008567,0.00000021,-0.00005445,-0.00004363,0.00000006,0.00000416,0.00
 004105,-0.00000031,-0.01582232,0.01210318,0.00000057,0.00031830,0.0026
 7786,-0.00000050,-0.01360040,-0.01569893,0.00000719,0.05732585,0.00818
 649,-0.00000802,-0.05959159,0.01337203,0.00001700,-0.13879728,0.003422
 81,0.00000574,-0.00326539,0.00448252,-0.00000061,-0.32906093,-0.086047
 41,0.00005549,0.69366770,-0.00004388,0.00121834,0.00000095,0.00409522,
 0.00150662,0.00000075,0.00445187,-0.00728790,-0.00000223,-0.00433147,0
 .00139557,-0.00000050,-0.00010212,-0.00330323,-0.00000069,0.00153453,0
 .00120165,0.00000027,-0.00003796,-0.00004240,0.00000002,0.00006786,0.0
 0003624,0.00000008,0.00002708,-0.00005843,0.00000003,0.00004824,0.0000
 1245,-0.00000010,-0.00260441,0.00984056,0.00000622,-0.00186734,0.00123
 642,0.00000057,-0.02638315,-0.01300916,0.00000628,0.05905069,-0.055975
 23,0.00000667,-0.00556332,0.02551524,0.00000003,-0.08648786,-0.3004325
 7,0.00005633,0.00327948,-0.00039790,0.00000038,-0.02775306,-0.13520306
 ,0.00002623,-0.05307785,0.68024050,-0.00000008,-0.00000028,0.00015304,
 -0.00000199,-0.00000066,-0.00052364,-0.00000163,0.00000429,-0.00115113
 ,0.00000209,-0.00000071,0.00007845,0.00000011,0.00000137,0.00009323,-0
 .00000043,-0.00000056,0.00001231,-0.00000001,0.00000005,-0.00005445,0.
 ,0.00000001,-0.00011691,0.,0.00000001,0.00000362,0.,-0.00000002,0.0000
 1278,0.00000330,-0.00000277,0.00163999,0.00000007,-0.00000173,0.000688
 45,0.00000800,0.00000471,-0.00167202,-0.00001827,0.00001272,0.00893771
 ,0.00000957,-0.00001201,0.00244690,0.00002693,0.00004895,-0.05976945,0
 .00000010,0.00000018,0.00402690,0.00004118,0.00003552,-0.04929025,-0.0
 0005407,-0.00012362,0.11356019,0.00004846,-0.00010612,-0.00000002,-0.0
 0009468,0.00013260,0.00000001,-0.00002799,-0.00010129,-0.00000002,0.00
 002016,0.00002778,0.00000003,0.00000749,0.00008944,0.00000001,-0.00013
 671,0.00000713,0.,0.00000643,0.00000545,0.,-0.00000352,-0.00000373,0.,
 -0.00001063,0.00000799,0.,-0.00000943,0.00000564,0.,-0.00020906,0.0004
 4816,0.,0.00007955,-0.00001639,-0.00000005,-0.00052717,0.00373042,-0.0
 0000009,-0.01572811,-0.00974120,0.00000400,0.00051122,0.00043253,-0.00
 000036,-0.32541092,-0.07766384,0.00004741,0.00071198,0.00010238,-0.000
 00030,0.00160412,-0.00099751,0.00000073,-0.00264487,0.00189097,0.00000
 051,0.34213144,0.00002314,-0.00002273,-0.00000002,-0.00010795,-0.00008
 500,-0.00000002,0.00000522,0.00025858,0.00000016,0.00007799,-0.0000693
 5,0.00000002,0.00001578,0.00007207,0.,-0.00003948,-0.00003655,0.,0.000
 00118,-0.00000047,0.,-0.00000206,-0.00000052,0.,0.00000099,-0.00000258
 ,0.,0.00000042,-0.00000065,0.,0.00036889,-0.00039714,-0.00000019,0.000
 03648,0.00002931,0.00000003,0.00361698,-0.00332744,0.00000111,0.021116
 77,0.00934188,-0.00000301,0.00076566,-0.00078985,-0.00000030,-0.078129
 31,-0.08205120,0.00001672,-0.00010648,0.00089447,-0.00000068,-0.000247
 11,-0.00546611,0.00000243,-0.02927166,-0.00166409,0.00000459,0.0828519
 5,0.08128874,0.,0.00000003,-0.00002849,0.00000009,-0.00000003,0.000081
 84,-0.00000012,-0.00000011,0.00044499,-0.00000008,0.00000002,0.0000953
 5,-0.00000004,-0.00000007,-0.00005969,0.00000006,-0.00000002,0.0000121
 1,0.,0.,0.00000897,0.,0.,0.00003605,0.,0.,-0.00002227,0.,0.,-0.0000030
 9,0.00000025,0.00000007,-0.00013355,-0.00000004,0.00000012,-0.00026004
 ,0.00000077,0.00000173,0.00496747,-0.00000245,0.00000106,0.00601159,-0
 .00000070,-0.00000083,-0.00145474,0.00004636,0.00001616,-0.03635121,-0
 .00000031,-0.00000066,-0.00274056,0.00000035,0.00000215,0.00603227,0.0
 0000681,0.00000207,0.00613808,-0.00005145,-0.00002024,0.02228136,-0.00
 010241,0.00003298,-0.00000001,0.00010332,0.00005133,-0.00000003,-0.000
 13316,0.00007329,0.00000006,0.00003871,-0.00000920,0.,-0.00001720,-0.0
 0001419,0.,0.00006117,0.00000517,0.00000001,0.00000132,-0.00000574,0.,
 -0.00000354,0.00000026,0.,0.00000206,-0.00000092,0.,-0.00000346,-0.000
 00093,0.,0.00030585,-0.00041455,0.00000009,-0.00029601,0.00017927,-0.0
 0000011,-0.00418297,0.00290878,0.00000043,0.00001373,0.00020687,0.0000
 0009,0.00841130,0.02285686,-0.00000799,-0.00563204,-0.00008335,0.00000
 174,0.00011119,-0.00007033,-0.00000010,-0.07482349,-0.07249602,0.00002
 840,-0.00096925,-0.02858707,0.00000918,-0.00025084,-0.00141615,0.00000
 007,0.07339981,0.00005482,0.00003992,-0.00000009,-0.00012400,-0.000084
 94,-0.00000005,0.00008267,0.00007497,0.,0.00000531,-0.00000794,0.,0.00
 000188,-0.00002325,-0.00000002,0.00003495,-0.00002713,0.00000001,-0.00
 000547,0.00000349,0.,0.00000710,0.00000177,0.00000001,0.00000684,-0.00
 000276,0.,0.00000935,-0.00000347,0.00000002,-0.00014320,0.00023522,0.0
 0000011,0.00019881,-0.00021609,-0.00000019,0.00401766,-0.00148065,0.00
 000116,0.00007756,0.00036448,-0.00000034,-0.01062945,-0.01655233,0.000
 00756,-0.00094144,0.00116877,0.00000224,-0.00005068,-0.00009971,0.0000
 0001,-0.07040605,-0.32997293,0.00010285,0.00237114,-0.00226767,0.00000
 182,0.00005584,-0.00023830,-0.00000019,0.07717480,0.34638365,-0.000000
 06,0.00000027,-0.00030393,0.00000081,0.00000021,-0.00017501,0.00000076
 ,-0.00000106,0.00012841,-0.00000055,0.00000019,-0.00000369,-0.00000004
 ,-0.00000041,-0.00004016,0.00000022,0.00000016,0.00006164,0.,0.,-0.000
 02289,0.,0.,0.00003869,0.,0.,-0.00000272,0.,0.,0.00005429,-0.00000070,
 0.00000214,0.00041355,-0.00000036,0.00000046,-0.00066590,-0.00000170,-
 0.00000036,0.00350175,0.00000122,-0.00000070,-0.00025911,0.00000492,0.
 00000584,0.00357283,0.00000137,0.00000283,0.00609117,0.,0.00000008,-0.
 00012333,0.00002999,0.00010329,-0.03189263,-0.00000270,0.00000319,0.00
 403332,-0.00000003,0.00000026,-0.00042749,-0.00003001,-0.00011247,0.02
 167936,0.00004915,-0.00005140,0.,-0.00007059,0.00010577,0.,0.00014643,
 -0.00001109,0.00000008,-0.00000361,0.00000732,0.,0.00001159,0.00005128
 ,0.,-0.00008306,-0.00000587,0.,0.00000084,0.00000489,0.,0.00000140,-0.
 00000387,0.,-0.00000681,0.00000346,0.,-0.00000439,0.00000412,0.,0.0001
 2755,0.00063695,-0.00000013,-0.00002567,0.00009904,0.00000012,-0.00006
 185,-0.00065881,0.00000013,0.00047608,-0.00207224,0.00000067,-0.002565
 18,-0.00394162,0.00000231,0.00847001,-0.00818156,0.00000118,0.00029078
 ,-0.00032036,0.00000007,-0.01562592,0.02313849,-0.00000447,-0.21009039
 ,0.14511776,-0.00001632,0.00069507,0.00034626,-0.00000038,0.00106730,-
 0.00025744,-0.00000058,0.21941381,-0.00001966,0.00011000,0.00000006,0.
 00026707,0.00012695,0.00000015,0.00028912,-0.00053749,0.,-0.00026717,0
 .00009547,-0.00000003,-0.00000780,-0.00024047,-0.00000006,0.00014800,0
 .00008644,0.00000002,-0.00000752,-0.00000520,0.,0.00001009,0.00000526,
 0.00000002,0.00000670,-0.00000508,0.,0.00000904,-0.00000361,-0.0000000
 1,-0.00042311,0.00035407,-0.00000018,-0.00010196,0.00004832,-0.0000000
 6,-0.00093353,0.00012770,-0.00000001,-0.00238662,-0.00461609,0.0000024
 6,-0.00255046,-0.00051002,0.00000219,0.02404589,-0.01445419,0.00000163
 ,0.00109275,-0.00095020,0.00000012,-0.00863171,0.00937295,-0.00000106,
 0.14398182,-0.19518529,0.00002569,-0.00013858,0.00100710,-0.00000110,0
 .00031550,0.00064740,-0.00000110,-0.15446445,0.20388852,0.00000002,-0.
 00000010,0.00000515,-0.00000039,-0.00000009,0.00007192,-0.00000030,0.0
 0000073,0.00004964,0.00000035,-0.00000014,0.00001637,0.,0.00000029,0.0
 0000026,-0.00000015,-0.00000011,-0.00000079,0.,0.,0.00000115,0.,-0.000
 00001,0.00001535,0.,0.,-0.00000041,0.,0.,-0.00001252,0.00000045,-0.000
 00053,-0.00002950,0.00000010,-0.00000001,-0.00020187,0.00000049,0.0000
 0067,-0.00123319,-0.00000084,0.00000281,0.00538943,0.00000326,0.000001
 76,0.00675585,-0.00000568,0.00000161,0.00261759,-0.00000020,0.00000042
 ,0.00082530,0.00000280,-0.00000370,0.00370060,-0.00001531,0.00002800,-
 0.03254042,-0.00000053,-0.00000092,-0.00370005,-0.00000067,-0.00000159
 ,-0.00370038,0.00001718,-0.00002844,0.02268219,-0.00348493,-0.00680977
 ,-0.00000125,-0.01042143,0.01999897,0.00000032,-0.07088674,0.04830821,
 0.00000374,0.00970913,-0.00380751,0.00000072,-0.00072220,0.00721560,0.
 00000128,-0.00630404,-0.00228552,-0.00000059,0.00034811,-0.00057539,-0
 .00000037,-0.00071786,-0.00013297,0.00000006,0.00006322,-0.00001307,0.
 00000009,-0.00067814,-0.00001274,-0.00000026,-0.35136036,-0.05436016,-
 0.00006350,-0.04923949,-0.05192375,-0.00000792,-0.20616204,0.10598737,
 -0.00001660,-0.04616473,0.03135919,-0.00000101,0.03387853,0.01885069,-
 0.00001139,-0.00254892,-0.01140121,0.00000176,0.00056674,0.00019849,0.
 00000140,-0.00379414,-0.00613103,0.00000947,0.00086249,0.00280486,-0.0
 0000321,-0.00070441,0.00053994,0.00000023,0.00080794,-0.00099352,-0.00
 000024,-0.00008121,0.00006138,0.00000009,0.72864837,-0.00031804,0.0016
 2054,0.00000049,0.03082951,-0.02559997,-0.00000388,0.02818554,0.004352
 70,0.00000828,-0.00106467,-0.00695000,-0.00000326,-0.00075186,-0.00242
 961,-0.00000125,0.00236938,-0.00035708,-0.00000019,-0.00006216,-0.0005
 4953,0.00000002,-0.00044590,0.00022596,0.00000052,0.00032600,-0.000575
 83,0.00000015,-0.00013332,0.00002418,0.,-0.04324534,-0.11528709,-0.000
 01816,-0.02252045,-0.15226211,-0.00002437,0.09244449,-0.20237786,0.000
 01056,0.01921289,0.01442723,-0.00000121,0.02325556,-0.04876929,0.00000
 665,-0.00556372,0.00060737,0.00000187,-0.00243715,0.00015581,-0.000001
 23,-0.01414049,-0.00231401,0.00000079,0.00738775,0.00180175,-0.0000019
 3,-0.00088618,0.00108599,0.00000007,0.00064643,-0.00040802,0.00000152,
 0.00004894,0.00029593,-0.00000043,-0.08626114,0.53826127,0.00000051,-0
 .00000027,0.00138557,0.00000669,-0.00000405,-0.00039163,0.00000024,0.0
 0000080,0.00715182,-0.00000175,-0.00000206,0.00243185,0.00000013,-0.00
 000023,0.00102985,-0.00000098,-0.00000021,0.00090229,-0.00000007,-0.00
 000009,-0.00050538,-0.00000002,0.00000018,-0.00057944,0.00000012,-0.00
 000002,-0.00051534,0.,0.00000003,-0.00022818,-0.00005768,-0.00002165,-
 0.03316323,-0.00000581,-0.00002104,-0.02030949,-0.00001022,0.00001012,
 -0.03502181,0.00000825,-0.00000257,0.00936424,-0.00001150,0.00000450,0
 .00475098,-0.00000237,0.00000706,0.00314339,0.00000025,-0.00000074,-0.
 00198001,0.00000520,-0.00000011,0.00002582,-0.00000256,-0.00000528,-0.
 00084741,-0.00000007,-0.00000007,-0.00095616,0.,0.00000078,0.00178924,
 -0.00000019,-0.00000008,-0.00004780,0.00008424,0.00004529,0.06073415,0
 .00018182,0.00130662,-0.00000020,-0.00068546,0.00243583,0.00000197,0.0
 0963598,-0.00034101,-0.00000008,-0.00022136,0.00016802,-0.00000014,-0.
 00021696,-0.00090612,-0.00000035,0.00127041,0.00019229,0.00000015,-0.0
 0017658,0.00023695,0.00000007,0.00021635,-0.00000897,0.00000005,-0.000
 00687,0.00005365,0.00000010,0.00004778,0.00002305,0.00000011,-0.002943
 01,0.03908948,-0.00000992,-0.00010149,0.00062678,0.00000014,-0.0317034
 7,-0.04206124,0.00002949,0.01046451,-0.00530508,0.00000167,-0.40451386
 ,-0.09305398,0.00015071,-0.01121974,-0.00132890,0.00000167,-0.00120465
 ,-0.00108287,0.00000037,-0.08685998,0.01027313,0.00003397,0.01051368,0
 .01151900,-0.00000451,-0.00014993,-0.00045942,0.00000048,0.00221822,-0
 .00061178,-0.00000296,-0.00241176,-0.00030143,-0.00000083,-0.01474360,
 0.00375696,0.00000132,0.51761767,-0.00066637,-0.00046193,-0.00000012,0
 .00001674,-0.00342443,-0.00000202,-0.01022062,0.00220873,0.00000291,0.
 00132411,-0.00081034,0.00000007,0.00010754,0.00104312,0.00000024,-0.00
 020201,-0.00079359,-0.00000017,0.00009527,-0.00024546,-0.00000013,0.00
 008471,0.00008461,0.00000006,0.00012965,-0.00010211,-0.00000003,0.0000
 3456,-0.00006228,-0.00000003,0.02065286,-0.04081647,0.00001576,0.00008
 849,-0.00027412,-0.00000027,-0.04259917,-0.02084878,0.00002989,-0.0035
 7420,-0.00916467,0.00000135,-0.09517975,-0.12452632,0.00007948,0.00083
 360,-0.00593221,0.00000186,-0.00214276,-0.00054439,-0.00000158,0.02545
 395,0.02464052,-0.00001113,0.00551026,0.00004935,0.00000097,-0.0001065
 5,0.00031721,-0.00000010,-0.00188924,0.00273565,-0.00000194,0.00136606
 ,0.00058567,-0.00000053,0.00304151,0.01119770,-0.00000328,0.11765783,0
 .15709275,0.00000142,0.00000037,0.00029260,0.00000124,0.00000535,-0.00
 029557,0.00001519,-0.00000682,-0.00063581,-0.00000333,0.00000126,0.000
 13426,0.00000002,-0.00000197,0.00016174,-0.00000013,0.00000160,0.00003
 568,-0.00000013,0.00000030,-0.00011065,0.,-0.00000010,-0.00016323,-0.0
 0000021,0.00000012,-0.00001458,-0.00000006,0.00000011,-0.00005999,-0.0
 0002463,0.00004416,0.01049999,0.00000111,0.00000308,-0.00103281,0.0000
 2438,0.00002407,0.01614642,-0.00000117,0.00000555,0.00223352,0.0001597
 1,0.00008753,-0.05808857,0.00000581,0.00000489,0.00014881,0.00000047,-
 0.00000024,-0.00205424,0.00002489,-0.00001338,0.01479840,-0.00000992,-
 0.00000449,0.00415371,0.00000010,0.00000002,0.00004200,-0.00000075,-0.
 00000166,-0.00347821,-0.00000033,-0.00000032,-0.00051502,-0.00000427,-
 0.00000710,-0.00295598,-0.00021975,-0.00010057,0.03587345,0.00054802,-
 0.00022612,-0.00000022,-0.00429572,0.00054924,-0.00000026,0.00357780,0
 .01014269,0.00000616,0.00155045,-0.00028838,0.00000010,-0.00000718,0.0
 0071966,0.00000003,-0.00041685,-0.00033190,-0.00000012,-0.00001168,0.0
 0013478,0.00000001,-0.00046786,-0.00022296,-0.00000002,0.00001527,-0.0
 0000275,0.00000002,-0.00001566,-0.00005015,0.,-0.06409819,-0.02852801,
 -0.00001617,-0.00373545,-0.00534220,0.00000038,0.00259720,-0.00220112,
 0.00000223,-0.00389485,0.00077734,-0.00000093,-0.01896030,0.00405610,-
 0.00000226,0.00216697,-0.00340259,0.00000084,0.00041907,0.00034508,-0.
 00000110,0.00116007,-0.00050067,-0.00000380,0.00130793,0.00295193,-0.0
 0000050,0.00009233,0.00001196,0.00000011,-0.00012752,0.00006433,0.0000
 0066,0.00028044,0.00000663,0.00000016,-0.00687027,-0.03063304,-0.00001
 372,0.00499230,-0.01981647,0.00003034,0.08419367,0.00101773,0.00083139
 ,-0.00000054,0.00296745,0.00747759,0.00000128,0.01849674,-0.00921863,0
 .00000379,-0.00397547,0.00276183,-0.00000008,-0.00063444,-0.00305334,-
 0.00000083,0.00077637,0.00168318,0.00000055,-0.00013824,0.00037341,0.0
 0000017,0.00019047,-0.00027910,0.00000004,-0.00024363,0.00021773,0.000
 00008,-0.00006949,0.00014700,0.00000006,-0.04735114,-0.15324398,-0.000
 06747,0.00267615,0.00964392,0.00000045,-0.01548351,0.00845935,-0.00000
 495,0.01566682,-0.00461369,0.00000310,0.02953649,0.01299583,-0.0000255
 6,-0.00772811,0.01395652,-0.00000323,-0.00093923,-0.00074438,0.0000025
 6,-0.00436562,-0.00143028,0.00001003,-0.00619636,-0.00922777,0.0000033
 9,-0.00002692,-0.00014339,-0.00000013,0.00053616,-0.00027013,-0.000002
 38,-0.00096162,-0.00024414,0.00000031,-0.01365842,-0.01617604,-0.00000
 701,-0.04187880,0.00805178,-0.00004178,0.07178661,0.13204532,0.0000002
 0,-0.00000074,0.00085171,-0.00000142,-0.00000068,0.00208421,-0.0000072
 0,0.00000797,-0.00920650,0.00000199,-0.00000071,-0.00065197,0.00000023
 ,0.00000165,-0.00005117,-0.00000105,-0.00000051,-0.00013530,0.00000009
 ,-0.00000007,0.00000695,0.00000011,-0.00000006,-0.00009546,0.00000003,
 -0.00000003,0.00006880,0.00000002,-0.00000006,0.00002710,-0.00001518,-
 0.00010312,-0.02777256,-0.00000007,-0.00000106,0.00199526,-0.00000003,
 0.00000150,-0.00331360,0.00000049,0.00000169,0.00021865,-0.00000943,-0
 .00001248,0.00058415,0.00000013,-0.00000043,-0.00025281,0.00000065,0.0
 0000044,0.00060129,0.00000745,0.00000338,0.00256016,0.00000088,-0.0000
 0118,-0.00001299,0.00000010,0.00000011,-0.00001474,-0.00000038,0.00000
 002,-0.00026878,0.00000067,0.00000013,-0.00014884,0.00000719,-0.000013
 20,0.00479265,0.00001647,-0.00001069,-0.01511593,-0.00000195,0.0001281
 4,0.04324974\\-0.00232057,-0.00355398,-0.00000130,-0.00512747,-0.00682
 998,-0.00000287,-0.00867241,0.00049883,-0.00000874,0.00165127,-0.00267
 240,0.00000101,-0.00008885,0.00101752,-0.00000037,-0.00249698,-0.00245
 102,-0.00000181,-0.00002512,-0.00042074,0.00000063,-0.00011460,-0.0000
 8622,0.00000050,-0.00001708,-0.00023022,0.00000012,-0.00018874,-0.0002
 1104,0.00000055,0.01466617,-0.00812055,-0.00003502,-0.00240682,-0.0048
 1157,0.00000619,0.00849088,-0.00448483,-0.00001444,-0.00695550,-0.0000
 8921,-0.00000546,-0.01410228,-0.00234987,0.00004856,0.00271283,-0.0089
 1097,0.00000409,-0.00004562,-0.00013208,0.00000023,0.00217076,-0.00047
 972,-0.00001280,0.00413390,-0.00036085,0.00000088,0.00015019,-0.000265
 91,-0.00000011,0.00006053,-0.00000135,0.00000069,0.00033495,-0.0000377
 1,-0.00000054,0.00920651,0.00628837,0.00000450,0.00698135,0.01185042,-
 0.00005427,-0.00799730,0.02684507,0.00006980\\\@
 The archive entry for this job was punched.


 YOU CAN WIPE THE SLATE CLEAN, BUT YOU'LL STILL
 HAVE TO EAT A LITTLE CHALK DUST.
 Job cpu time:       0 days  2 hours 52 minutes 44.1 seconds.
 Elapsed time:       0 days  0 hours 17 minutes 49.3 seconds.
 File lengths (MBytes):  RWF=   1376 Int=      0 D2E=      0 Chk=     48 Scr=      8
 Normal termination of Gaussian 16 at Tue Jul 14 15:38:56 2020.
