 Entering Gaussian System, Link 0=g16
 Initial command:
 /gpfs/loomis/apps/avx/software/Gaussian/16-C.01_AVX/g16/l1.exe "/home/fas/batista/pev4/scratch60/gauss-scratch/Gau-221108.inp" -scrdir="/home/fas/batista/pev4/scratch60/gauss-scratch/"
 Entering Link 1 = /gpfs/loomis/apps/avx/software/Gaussian/16-C.01_AVX/g16/l1.exe PID=    221113.
  
 Copyright (c) 1988-2019, Gaussian, Inc.  All Rights Reserved.
  
 This is part of the Gaussian(R) 16 program.  It is based on
 the Gaussian(R) 09 system (copyright 2009, Gaussian, Inc.),
 the Gaussian(R) 03 system (copyright 2003, Gaussian, Inc.),
 the Gaussian(R) 98 system (copyright 1998, Gaussian, Inc.),
 the Gaussian(R) 94 system (copyright 1995, Gaussian, Inc.),
 the Gaussian 92(TM) system (copyright 1992, Gaussian, Inc.),
 the Gaussian 90(TM) system (copyright 1990, Gaussian, Inc.),
 the Gaussian 88(TM) system (copyright 1988, Gaussian, Inc.),
 the Gaussian 86(TM) system (copyright 1986, Carnegie Mellon
 University), and the Gaussian 82(TM) system (copyright 1983,
 Carnegie Mellon University). Gaussian is a federally registered
 trademark of Gaussian, Inc.
  
 This software contains proprietary and confidential information,
 including trade secrets, belonging to Gaussian, Inc.
  
 This software is provided under written license and may be
 used, copied, transmitted, or stored only in accord with that
 written license.
  
 The following legend is applicable only to US Government
 contracts under FAR:
  
                    RESTRICTED RIGHTS LEGEND
  
 Use, reproduction and disclosure by the US Government is
 subject to restrictions as set forth in subparagraphs (a)
 and (c) of the Commercial Computer Software - Restricted
 Rights clause in FAR 52.227-19.
  
 Gaussian, Inc.
 340 Quinnipiac St., Bldg. 40, Wallingford CT 06492
  
  
 ---------------------------------------------------------------
 Warning -- This program may not be used in any manner that
 competes with the business of Gaussian, Inc. or will provide
 assistance to any competitor of Gaussian, Inc.  The licensee
 of this program is prohibited from giving any competitor of
 Gaussian, Inc. access to this program.  By using this program,
 the user acknowledges that Gaussian, Inc. is engaged in the
 business of creating and licensing software in the field of
 computational chemistry and represents and warrants to the
 licensee that it is not a competitor of Gaussian, Inc. and that
 it will not use this program in any manner prohibited above.
 ---------------------------------------------------------------
  

 Cite this work as:
 Gaussian 16, Revision C.01,
 M. J. Frisch, G. W. Trucks, H. B. Schlegel, G. E. Scuseria, 
 M. A. Robb, J. R. Cheeseman, G. Scalmani, V. Barone, 
 G. A. Petersson, H. Nakatsuji, X. Li, M. Caricato, A. V. Marenich, 
 J. Bloino, B. G. Janesko, R. Gomperts, B. Mennucci, H. P. Hratchian, 
 J. V. Ortiz, A. F. Izmaylov, J. L. Sonnenberg, D. Williams-Young, 
 F. Ding, F. Lipparini, F. Egidi, J. Goings, B. Peng, A. Petrone, 
 T. Henderson, D. Ranasinghe, V. G. Zakrzewski, J. Gao, N. Rega, 
 G. Zheng, W. Liang, M. Hada, M. Ehara, K. Toyota, R. Fukuda, 
 J. Hasegawa, M. Ishida, T. Nakajima, Y. Honda, O. Kitao, H. Nakai, 
 T. Vreven, K. Throssell, J. A. Montgomery, Jr., J. E. Peralta, 
 F. Ogliaro, M. J. Bearpark, J. J. Heyd, E. N. Brothers, K. N. Kudin, 
 V. N. Staroverov, T. A. Keith, R. Kobayashi, J. Normand, 
 K. Raghavachari, A. P. Rendell, J. C. Burant, S. S. Iyengar, 
 J. Tomasi, M. Cossi, J. M. Millam, M. Klene, C. Adamo, R. Cammi, 
 J. W. Ochterski, R. L. Martin, K. Morokuma, O. Farkas, 
 J. B. Foresman, and D. J. Fox, Gaussian, Inc., Wallingford CT, 2019.
 
 ******************************************
 Gaussian 16:  ES64L-G16RevC.01  3-Jul-2019
                13-Jul-2020 
 ******************************************
 %chk=config_11_7.chk
 %mem=58GB
 %nprocshared=10
 Will use up to   10 processors via shared memory.
 ----------------------------------------------------------------------
 #p opt=addgic freq td wb97xd/cc-pvdz nosymm int=ultrafine scrf=(solven
 t=CarbonTetraChloride)
 ----------------------------------------------------------------------
 1/18=20,19=15,26=6,38=1,145=903/1,3;
 2/9=110,12=2,15=1,17=6,18=5,40=1/2;
 3/5=16,11=9,25=1,30=1,70=2201,71=1,72=11,74=-58,75=-5/1,2,3,8;
 4//1;
 5/5=2,38=5,53=11/2;
 8/6=1,10=1/1;
 9/15=2,42=1,70=2/14;
 10/5=4,31=1/2;
 6/7=2,8=2,9=2,10=2/1;
 7/12=6,13=5,30=1/1,2,3,16;
 1/18=20,19=15,26=6,145=903/3(2);
 2/9=110,15=1/2;
 99//99;
 2/9=110,15=1/2;
 3/5=16,11=9,25=1,30=1,70=2205,71=1,72=11,74=-58,75=-5/1,2,3,8;
 4/5=5,16=3,69=1/1;
 5/5=2,38=5,53=11/2;
 8/6=1,10=1/1;
 9/15=2,42=1,49=4,70=2/14;
 10/5=4,31=1/2;
 7/12=6,13=5,30=1/1,2,3,16;
 1/18=20,19=15,26=6,145=903/3(-8);
 2/9=110,15=1/2;
 6/7=2,8=2,9=2,10=2/1;
 99/9=10/99;
 Leave Link    1 at Mon Jul 13 18:46:55 2020, MaxMem=  7784628224 cpu:               4.5 elap:               0.5
 (Enter /gpfs/loomis/apps/avx/software/Gaussian/16-C.01_AVX/g16/l101.exe)
 ------------------------------------------------
 NM 2D-scan of HBT TD-WB97XD pVDZ in CTC Relaxed.
 ------------------------------------------------
 Symbolic Z-matrix:
 Charge =  0 Multiplicity = 1
 C                     1.67829  -3.25947  -0.00002 
 C                     1.00904  -2.03566  -0.00002 
 C                     1.72125  -0.81096  -0.00002 
 C                     3.11479  -0.81423  -0.00002 
 C                     3.77659  -2.03848  -0.00002 
 C                     3.07333  -3.24841  -0.00002 
 H                     1.12516  -4.19957  -0.00002 
 H                     3.66397   0.12763  -0.00002 
 H                     4.86768  -2.05018  -0.00002 
 H                     3.61821  -4.19306  -0.00002 
 N                     0.8905    0.29331  -0.00002 
 S                    -0.73178  -1.75324  -0.00002 
 C                    -1.39622   1.03076   0. 
 C                    -2.76263   0.83459  0. 
 C                    -0.85643   2.4218    0.00003 
 C                    -3.65132   1.94473   0.00003 
 H                    -3.18024  -0.1755   -0.00002 
 C                    -1.80088   3.49309   0.00006 
 C                    -3.17581   3.25569   0.00005 
 H                    -4.72545   1.75335   0.00002 
 H                    -1.38379   4.50125   0.00008 
 H                    -3.87747   4.09011   0.00008 
 C                    -0.43038  -0.02507  -0.00002 
 O                     0.38407   2.62909   0.00004 
 H                     1.0709    1.05346  -0.00001 
 
 Initializing the GIC definitions file.
 Number of initial coordinates =   134
 Number of input entries/lines =    52
 Number of additional coordinates =     2
 Number of removed coordinates =     0
 Number of frozen coordinates =     2
 Number of final active and frozen coordinates =   136
 ITRead=  0  0  0  0  0  0  0  0  0  0  0  0  0  0  0  0  0  0  0  0
 ITRead=  0  0  0  0  0
 MicOpt= -1 -1 -1 -1 -1 -1 -1 -1 -1 -1 -1 -1 -1 -1 -1 -1 -1 -1 -1 -1
 MicOpt= -1 -1 -1 -1 -1
 NAtoms=     25 NQM=       25 NQMF=       0 NMMI=      0 NMMIF=      0
                NMic=       0 NMicF=      0.
                    Isotopes and Nuclear Properties:
 (Nuclear quadrupole moments (NQMom) in fm**2, nuclear magnetic moments (NMagM)
  in nuclear magnetons)

  Atom         1           2           3           4           5           6           7           8           9          10
 IAtWgt=          12          12          12          12          12          12           1           1           1           1
 AtmWgt=  12.0000000  12.0000000  12.0000000  12.0000000  12.0000000  12.0000000   1.0078250   1.0078250   1.0078250   1.0078250
 NucSpn=           0           0           0           0           0           0           1           1           1           1
 AtZEff=  -0.0000000  -0.0000000  -0.0000000  -0.0000000  -0.0000000  -0.0000000  -0.0000000  -0.0000000  -0.0000000  -0.0000000
 NQMom=    0.0000000   0.0000000   0.0000000   0.0000000   0.0000000   0.0000000   0.0000000   0.0000000   0.0000000   0.0000000
 NMagM=    0.0000000   0.0000000   0.0000000   0.0000000   0.0000000   0.0000000   2.7928460   2.7928460   2.7928460   2.7928460
 AtZNuc=   6.0000000   6.0000000   6.0000000   6.0000000   6.0000000   6.0000000   1.0000000   1.0000000   1.0000000   1.0000000

  Atom        11          12          13          14          15          16          17          18          19          20
 IAtWgt=          14          32          12          12          12          12           1          12          12           1
 AtmWgt=  14.0030740  31.9720718  12.0000000  12.0000000  12.0000000  12.0000000   1.0078250  12.0000000  12.0000000   1.0078250
 NucSpn=           2           0           0           0           0           0           1           0           0           1
 AtZEff=  -0.0000000  -0.0000000  -0.0000000  -0.0000000  -0.0000000  -0.0000000  -0.0000000  -0.0000000  -0.0000000  -0.0000000
 NQMom=    2.0440000   0.0000000   0.0000000   0.0000000   0.0000000   0.0000000   0.0000000   0.0000000   0.0000000   0.0000000
 NMagM=    0.4037610   0.0000000   0.0000000   0.0000000   0.0000000   0.0000000   2.7928460   0.0000000   0.0000000   2.7928460
 AtZNuc=   7.0000000  16.0000000   6.0000000   6.0000000   6.0000000   6.0000000   1.0000000   6.0000000   6.0000000   1.0000000

  Atom        21          22          23          24          25
 IAtWgt=           1           1          12          16           1
 AtmWgt=   1.0078250   1.0078250  12.0000000  15.9949146   1.0078250
 NucSpn=           1           1           0           0           1
 AtZEff=  -0.0000000  -0.0000000  -0.0000000  -0.0000000  -0.0000000
 NQMom=    0.0000000   0.0000000   0.0000000   0.0000000   0.0000000
 NMagM=    2.7928460   2.7928460   0.0000000   0.0000000   2.7928460
 AtZNuc=   1.0000000   1.0000000   6.0000000   8.0000000   1.0000000
 Leave Link  101 at Mon Jul 13 18:46:58 2020, MaxMem=  7784628224 cpu:              31.2 elap:               3.2
 (Enter /gpfs/loomis/apps/avx/software/Gaussian/16-C.01_AVX/g16/l103.exe)

 GradGradGradGradGradGradGradGradGradGradGradGradGradGradGradGradGradGrad
 Berny optimization.
 Initialization pass.
                           ----------------------------
                           !    Initial Parameters    !
                           ! (Angstroms and Degrees)  !
 --------------------------                            --------------------------
 ! Name  Definition              Value          Derivative Info.                !
 --------------------------------------------------------------------------------
 ! R1    R(1,2)                  1.3949         estimate D2E/DX2                !
 ! R2    R(1,6)                  1.3951         estimate D2E/DX2                !
 ! R3    R(1,7)                  1.0907         estimate D2E/DX2                !
 ! R4    R(2,3)                  1.4167         estimate D2E/DX2                !
 ! R5    R(2,12)                 1.7636         estimate D2E/DX2                !
 ! R6    R(3,4)                  1.3935         estimate D2E/DX2                !
 ! R7    R(3,11)                 1.3819         estimate D2E/DX2                !
 ! R8    R(4,5)                  1.3917         estimate D2E/DX2                !
 ! R9    R(4,8)                  1.0903         estimate D2E/DX2                !
 ! R10   R(5,6)                  1.3995         estimate D2E/DX2                !
 ! R11   R(5,9)                  1.0912         estimate D2E/DX2                !
 ! R12   R(6,10)                 1.0905         estimate D2E/DX2                !
 ! R13   R(11,23)                1.3587         estimate D2E/DX2                !
 ! R14   R(11,25)                0.7813         estimate D2E/DX2                !
 ! R15   R(12,23)                1.7543         estimate D2E/DX2                !
 ! R16   R(13,14)                1.3804         estimate D2E/DX2                !
 ! R17   R(13,15)                1.4921         estimate D2E/DX2                !
 ! R18   R(13,23)                1.431          estimate D2E/DX2                !
 ! R19   R(14,16)                1.422          estimate D2E/DX2                !
 ! R20   R(14,17)                1.093          estimate D2E/DX2                !
 ! R21   R(15,18)                1.4282         estimate D2E/DX2                !
 ! R22   R(15,24)                1.2577         estimate D2E/DX2                !
 ! R23   R(16,19)                1.3945         estimate D2E/DX2                !
 ! R24   R(16,20)                1.0911         estimate D2E/DX2                !
 ! R25   R(18,19)                1.3953         estimate D2E/DX2                !
 ! R26   R(18,21)                1.091          estimate D2E/DX2                !
 ! R27   R(19,22)                1.0902         estimate D2E/DX2                !
 ! A1    A(2,1,6)              118.2179         estimate D2E/DX2                !
 ! A2    A(2,1,7)              120.8564         estimate D2E/DX2                !
 ! A3    A(6,1,7)              120.9257         estimate D2E/DX2                !
 ! A4    A(1,2,3)              121.1482         estimate D2E/DX2                !
 ! A5    A(1,2,12)             127.8872         estimate D2E/DX2                !
 ! A6    A(3,2,12)             110.9646         estimate D2E/DX2                !
 ! A7    A(2,3,4)              120.0451         estimate D2E/DX2                !
 ! A8    A(2,3,11)             112.8659         estimate D2E/DX2                !
 ! A9    A(4,3,11)             127.089          estimate D2E/DX2                !
 ! A10   A(3,4,5)              118.5291         estimate D2E/DX2                !
 ! A11   A(3,4,8)              120.1113         estimate D2E/DX2                !
 ! A12   A(5,4,8)              121.3596         estimate D2E/DX2                !
 ! A13   A(4,5,6)              121.4388         estimate D2E/DX2                !
 ! A14   A(4,5,9)              119.0091         estimate D2E/DX2                !
 ! A15   A(6,5,9)              119.5521         estimate D2E/DX2                !
 ! A16   A(1,6,5)              120.6208         estimate D2E/DX2                !
 ! A17   A(1,6,10)             119.5224         estimate D2E/DX2                !
 ! A18   A(5,6,10)             119.8568         estimate D2E/DX2                !
 ! A19   A(3,11,23)            113.4024         estimate D2E/DX2                !
 ! A20   A(3,11,25)            129.6949         estimate D2E/DX2                !
 ! A21   A(23,11,25)           116.9026         estimate D2E/DX2                !
 ! A22   A(2,12,23)             89.3218         estimate D2E/DX2                !
 ! A23   A(14,13,15)           119.3787         estimate D2E/DX2                !
 ! A24   A(14,13,23)           124.2814         estimate D2E/DX2                !
 ! A25   A(15,13,23)           116.3399         estimate D2E/DX2                !
 ! A26   A(13,14,16)           120.5081         estimate D2E/DX2                !
 ! A27   A(13,14,17)           120.6319         estimate D2E/DX2                !
 ! A28   A(16,14,17)           118.86           estimate D2E/DX2                !
 ! A29   A(13,15,18)           117.3918         estimate D2E/DX2                !
 ! A30   A(13,15,24)           120.6951         estimate D2E/DX2                !
 ! A31   A(18,15,24)           121.9131         estimate D2E/DX2                !
 ! A32   A(14,16,19)           121.3852         estimate D2E/DX2                !
 ! A33   A(14,16,20)           118.5754         estimate D2E/DX2                !
 ! A34   A(19,16,20)           120.0393         estimate D2E/DX2                !
 ! A35   A(15,18,19)           121.6033         estimate D2E/DX2                !
 ! A36   A(15,18,21)           116.1247         estimate D2E/DX2                !
 ! A37   A(19,18,21)           122.272          estimate D2E/DX2                !
 ! A38   A(16,19,18)           119.7329         estimate D2E/DX2                !
 ! A39   A(16,19,22)           120.0027         estimate D2E/DX2                !
 ! A40   A(18,19,22)           120.2644         estimate D2E/DX2                !
 ! A41   A(11,23,12)           113.4452         estimate D2E/DX2                !
 ! A42   A(11,23,13)           118.8993         estimate D2E/DX2                !
 ! A43   A(12,23,13)           127.6555         estimate D2E/DX2                !
 ! D1    D(6,1,2,3)              0.0            estimate D2E/DX2                !
 ! D2    D(6,1,2,12)          -179.9999         estimate D2E/DX2                !
 ! D3    D(7,1,2,3)            179.9999         estimate D2E/DX2                !
 ! D4    D(7,1,2,12)             0.0            estimate D2E/DX2                !
 ! D5    D(2,1,6,5)              0.0            estimate D2E/DX2                !
 ! D6    D(2,1,6,10)           180.0            estimate D2E/DX2                !
 ! D7    D(7,1,6,5)           -180.0            estimate D2E/DX2                !
 ! D8    D(7,1,6,10)             0.0            estimate D2E/DX2                !
 ! D9    D(1,2,3,4)              0.0001         estimate D2E/DX2                !
 ! D10   D(1,2,3,11)           180.0            estimate D2E/DX2                !
 ! D11   D(12,2,3,4)          -180.0            estimate D2E/DX2                !
 ! D12   D(12,2,3,11)           -0.0001         estimate D2E/DX2                !
 ! D13   D(1,2,12,23)          179.9999         estimate D2E/DX2                !
 ! D14   D(3,2,12,23)           -0.0001         estimate D2E/DX2                !
 ! D15   D(2,3,4,5)             -0.0001         estimate D2E/DX2                !
 ! D16   D(2,3,4,8)            180.0            estimate D2E/DX2                !
 ! D17   D(11,3,4,5)          -180.0            estimate D2E/DX2                !
 ! D18   D(11,3,4,8)             0.0001         estimate D2E/DX2                !
 ! D19   D(2,3,11,23)            0.0002         estimate D2E/DX2                !
 ! D20   D(2,3,11,25)          179.9986         estimate D2E/DX2                !
 ! D21   D(4,3,11,23)         -179.9999         estimate D2E/DX2                !
 ! D22   D(4,3,11,25)           -0.0015         estimate D2E/DX2                !
 ! D23   D(3,4,5,6)              0.0            estimate D2E/DX2                !
 ! D24   D(3,4,5,9)           -180.0            estimate D2E/DX2                !
 ! D25   D(8,4,5,6)           -180.0            estimate D2E/DX2                !
 ! D26   D(8,4,5,9)              0.0            estimate D2E/DX2                !
 ! D27   D(4,5,6,1)              0.0            estimate D2E/DX2                !
 ! D28   D(4,5,6,10)          -180.0            estimate D2E/DX2                !
 ! D29   D(9,5,6,1)           -180.0            estimate D2E/DX2                !
 ! D30   D(9,5,6,10)             0.0            estimate D2E/DX2                !
 ! D31   D(3,11,23,12)          -0.0003         estimate D2E/DX2                !
 ! D32   D(3,11,23,13)         179.9991         estimate D2E/DX2                !
 ! D33   D(25,11,23,12)       -179.9989         estimate D2E/DX2                !
 ! D34   D(25,11,23,13)          0.0005         estimate D2E/DX2                !
 ! D35   D(2,12,23,11)           0.0002         estimate D2E/DX2                !
 ! D36   D(2,12,23,13)        -179.9991         estimate D2E/DX2                !
 ! D37   D(15,13,14,16)         -0.0002         estimate D2E/DX2                !
 ! D38   D(15,13,14,17)        179.9999         estimate D2E/DX2                !
 ! D39   D(23,13,14,16)        179.9998         estimate D2E/DX2                !
 ! D40   D(23,13,14,17)         -0.0002         estimate D2E/DX2                !
 ! D41   D(14,13,15,18)          0.0001         estimate D2E/DX2                !
 ! D42   D(14,13,15,24)        180.0            estimate D2E/DX2                !
 ! D43   D(23,13,15,18)       -179.9998         estimate D2E/DX2                !
 ! D44   D(23,13,15,24)          0.0001         estimate D2E/DX2                !
 ! D45   D(14,13,23,11)        179.9995         estimate D2E/DX2                !
 ! D46   D(14,13,23,12)         -0.0012         estimate D2E/DX2                !
 ! D47   D(15,13,23,11)         -0.0006         estimate D2E/DX2                !
 ! D48   D(15,13,23,12)        179.9987         estimate D2E/DX2                !
 ! D49   D(13,14,16,19)          0.0001         estimate D2E/DX2                !
 ! D50   D(13,14,16,20)       -179.9999         estimate D2E/DX2                !
 ! D51   D(17,14,16,19)       -179.9999         estimate D2E/DX2                !
 ! D52   D(17,14,16,20)          0.0001         estimate D2E/DX2                !
 ! D53   D(13,15,18,19)          0.0001         estimate D2E/DX2                !
 ! D54   D(13,15,18,21)        179.9998         estimate D2E/DX2                !
 ! D55   D(24,15,18,19)       -179.9998         estimate D2E/DX2                !
 ! D56   D(24,15,18,21)         -0.0001         estimate D2E/DX2                !
 ! D57   D(14,16,19,18)          0.0001         estimate D2E/DX2                !
 ! D58   D(14,16,19,22)       -179.9999         estimate D2E/DX2                !
 ! D59   D(20,16,19,18)       -179.9999         estimate D2E/DX2                !
 ! D60   D(20,16,19,22)          0.0001         estimate D2E/DX2                !
 ! D61   D(15,18,19,16)         -0.0002         estimate D2E/DX2                !
 ! D62   D(15,18,19,22)        179.9998         estimate D2E/DX2                !
 ! D63   D(21,18,19,16)       -179.9999         estimate D2E/DX2                !
 ! D64   D(21,18,19,22)          0.0001         estimate D2E/DX2                !
 ! Qtot  GIC-1                  50.0            Frozen                          !
 ! Ptot  GIC-2                 -20.0            Frozen                          !
 --------------------------------------------------------------------------------
 NOTE: GIC-type coordinates are in arbitrary units.
 Trust Radius=3.00D-01 FncErr=5.00D-06 GrdErr=5.00D-06 EigMax=2.50D+02 EigMin=1.00D-04
 Number of steps in this run=    146 maximum allowed number of steps=    150.
 GradGradGradGradGradGradGradGradGradGradGradGradGradGradGradGradGradGrad

 Leave Link  103 at Mon Jul 13 18:46:58 2020, MaxMem=  7784628224 cpu:               0.1 elap:               0.0
 (Enter /gpfs/loomis/apps/avx/software/Gaussian/16-C.01_AVX/g16/l202.exe)
                          Input orientation:                          
 ---------------------------------------------------------------------
 Center     Atomic      Atomic             Coordinates (Angstroms)
 Number     Number       Type             X           Y           Z
 ---------------------------------------------------------------------
      1          6           0        1.678290   -3.259473   -0.000022
      2          6           0        1.009042   -2.035658   -0.000021
      3          6           0        1.721251   -0.810959   -0.000021
      4          6           0        3.114787   -0.814230   -0.000022
      5          6           0        3.776587   -2.038479   -0.000022
      6          6           0        3.073333   -3.248413   -0.000022
      7          1           0        1.125165   -4.199566   -0.000021
      8          1           0        3.663968    0.127625   -0.000022
      9          1           0        4.867675   -2.050180   -0.000023
     10          1           0        3.618211   -4.193060   -0.000022
     11          7           0        0.890499    0.293312   -0.000021
     12         16           0       -0.731779   -1.753238   -0.000020
     13          6           0       -1.396223    1.030764    0.000004
     14          6           0       -2.762629    0.834593   -0.000001
     15          6           0       -0.856431    2.421803    0.000032
     16          6           0       -3.651319    1.944731    0.000025
     17          1           0       -3.180239   -0.175504   -0.000024
     18          6           0       -1.800883    3.493091    0.000056
     19          6           0       -3.175807    3.255695    0.000054
     20          1           0       -4.725454    1.753347    0.000022
     21          1           0       -1.383788    4.501254    0.000080
     22          1           0       -3.877467    4.090106    0.000075
     23          6           0       -0.430377   -0.025072   -0.000016
     24          8           0        0.384066    2.629089    0.000037
     25          1           0        1.070899    1.053460   -0.000006
 ---------------------------------------------------------------------
                    Distance matrix (angstroms):
                    1          2          3          4          5
     1  C    0.000000
     2  C    1.394854   0.000000
     3  C    2.448892   1.416732   0.000000
     4  C    2.835973   2.434348   1.393540   0.000000
     5  C    2.427690   2.767546   2.393994   1.391676   0.000000
     6  C    1.395087   2.394175   2.787348   2.434536   1.399467
     7  H    1.090744   2.167022   3.440637   3.926716   3.420576
     8  H    3.926239   3.424679   2.157565   1.090271   2.169029
     9  H    3.410949   3.858661   3.381665   2.144805   1.091151
    10  H    2.152877   3.385580   3.877765   3.416127   2.160394
    11  N    3.639079   2.331984   1.381869   2.484775   3.710357
    12  S    2.842037   1.763580   2.627783   3.959521   4.517380
    13  C    5.278140   3.897209   3.620855   4.873728   6.014833
    14  C    6.040127   4.739603   4.776298   6.104313   7.142540
    15  C    6.221070   4.832075   4.134634   5.122742   6.431094
    16  C    7.449058   6.128821   6.038073   7.306987   8.428507
    17  H    5.754665   4.583693   4.942510   6.327348   7.201951
    18  C    7.596168   6.201834   5.561499   6.535812   7.855344
    19  C    8.124633   6.746211   6.365441   7.492387   8.738652
    20  H    8.132423   6.873209   6.937988   8.249960   9.309277
    21  H    8.342974   6.961095   6.153119   6.963588   8.330520
    22  H    9.213184   7.836003   7.440839   8.540734   9.805309
    23  C    3.861066   2.472727   2.290659   3.631936   4.663941
    24  O    6.029111   4.706427   3.690798   4.394688   5.770215
    25  H    4.355493   3.089736   1.974592   2.768708   4.108628
                    6          7          8          9         10
     6  C    0.000000
     7  H    2.167960   0.000000
     8  H    3.427314   5.016982   0.000000
     9  H    2.157644   4.315813   2.488322   0.000000
    10  H    1.090527   2.493055   4.320927   2.480543   0.000000
    11  N    4.160358   4.499002   2.778414   4.616263   5.250518
    12  S    4.088327   3.071280   4.781238   5.607322   4.987499
    13  C    6.187753   5.806354   5.140155   6.980590   7.241055
    14  C    7.122456   6.360637   6.465365   8.157417   8.123571
    15  C    6.898869   6.911531   5.069247   7.263885   7.986165
    16  C    8.496451   7.782492   7.537592   9.409175   9.514123
    17  H    6.967778   5.893181   6.850917   8.263373   7.896815
    18  C    8.319006   8.230355   6.418018   8.671651   9.404440
    19  C    9.019709   8.606932   7.521126   9.635866  10.081796
    20  H    9.264916   8.346671   8.545489  10.319639  10.245804
    21  H    8.939981   9.055337   6.678957   9.055500  10.030508
    22  H   10.107793   9.682200   8.519067  10.685534  11.171214
    23  C    4.760872   4.454898   4.097191   5.671897   5.810610
    24  O    6.463527   6.868753   4.124934   6.480611   7.549928
    25  H    4.745087   5.253306   2.753393   4.903885   5.832218
                   11         12         13         14         15
    11  N    0.000000
    12  S    2.611541   0.000000
    13  C    2.402693   2.862193   0.000000
    14  C    3.693010   3.289562   1.380415   0.000000
    15  C    2.753587   4.176901   1.492101   2.480488   0.000000
    16  C    4.832731   4.711548   2.433267   1.422032   2.835312
    17  H    4.097645   2.912766   2.153554   1.093021   3.485123
    18  C    4.181163   5.354153   2.495357   2.827113   1.428163
    19  C    5.030959   5.573390   2.849076   2.456104   2.464726
    20  H    5.802640   5.314657   3.406744   2.167208   3.926343
    21  H    4.783217   6.288385   3.470513   3.917346   2.145279
    22  H    6.095010   6.636266   3.939054   3.441108   3.451071
    23  C    1.358705   1.754252   1.430961   2.485643   2.483691
    24  O    2.390048   4.522156   2.392504   3.622417   1.257697
    25  H    0.781261   3.335745   2.467227   3.839771   2.363676
                   16         17         18         19         20
    16  C    0.000000
    17  H    2.171937   0.000000
    18  C    2.412785   3.919338   0.000000
    19  C    1.394539   3.431201   1.395268   0.000000
    20  H    1.091052   2.471468   3.402914   2.158346   0.000000
    21  H    3.417237   5.009920   1.091037   2.182372   4.326399
    22  H    2.157262   4.322216   2.160701   1.090216   2.485865
    23  C    3.775525   2.753974   3.775680   4.277945   4.648706
    24  O    4.093004   4.535418   2.349575   3.614599   5.184026
    25  H    4.805591   4.425215   3.768148   4.783759   5.838455
                   21         22         23         24         25
    21  H    0.000000
    22  H    2.527346   0.000000
    23  C    4.625648   5.368158   0.000000
    24  O    2.574939   4.505024   2.776308   0.000000
    25  H    4.232349   5.805820   1.848529   1.718822   0.000000
 Symmetry turned off by external request.
 Stoichiometry    C13H9NOS
 Framework group  C1[X(C13H9NOS)]
 Deg. of freedom    69
 Full point group                 C1      NOp   1
 Rotational constants (GHZ):           1.3856381           0.2857730           0.2369124
 Leave Link  202 at Mon Jul 13 18:46:58 2020, MaxMem=  7784628224 cpu:               0.1 elap:               0.0
 (Enter /gpfs/loomis/apps/avx/software/Gaussian/16-C.01_AVX/g16/l301.exe)
 Standard basis: CC-pVDZ (5D, 7F)
 Ernie: Thresh=  0.10000D-02 Tol=  0.10000D-05 Strict=F.
 Ernie:  40 primitive shells out of 425 were deleted.
   273 basis functions,   629 primitive gaussians,   289 cartesian basis functions
    59 alpha electrons       59 beta electrons
       nuclear repulsion energy      1100.2554422057 Hartrees.
 IExCor= 4639 DFT=T Ex+Corr=wB97XD ExCW=0 ScaHFX=  1.000000
 ScaDFX=  1.000000  1.000000  1.000000  1.000000 ScalE2=  1.000000  1.000000
 IRadAn=      5 IRanWt=     -1 IRanGd=            0 ICorTp=0 IEmpDi=121
 HFx  wShort=  0.000000 wLong=  0.200000 cFull=  0.222036 cShort=  0.000000 cLong=  0.777964
 DFx  wShort=  0.000000 wLong=  0.200000 cFull=  0.000000 cShort=  0.000000 cLong=  1.000000
 NAtoms=   25 NActive=   25 NUniq=   25 SFac= 1.00D+00 NAtFMM=   60 NAOKFM=F Big=F
 Integral buffers will be    131072 words long.
 Raffenetti 1 integral format.
 Two-electron integral symmetry is turned off.
 R6Disp:  Grimme-D2 Dispersion energy=       -0.0141123742 Hartrees.
 Nuclear repulsion after empirical dispersion term =     1100.2413298315 Hartrees.
 ------------------------------------------------------------------------------
 Polarizable Continuum Model (PCM)
 =================================
 Model                : PCM.
 Atomic radii         : UFF (Universal Force Field).
 Polarization charges : Total charges.
 Charge compensation  : None.
 Solution method      : On-the-fly selection.
 Cavity type          : Scaled VdW (van der Waals Surface) (Alpha=1.100).
 Cavity algorithm     : GePol (No added spheres)
                        Default sphere list used, NSphG=   25.
                        Lebedev-Laikov grids with approx.  5.0 points / Ang**2.
                        Smoothing algorithm: York/Karplus (Gamma=1.0000).
                        Polarization charges: spherical gaussians, with
                                              point-specific exponents (IZeta= 3).
                        Self-potential: point-specific (ISelfS= 7).
                        Self-field    : sphere-specific E.n sum rule (ISelfD= 2).
 1st derivatives      : Analytical E(r).r(x)/FMM algorithm (CHGder, D1EAlg=3).
                        Cavity 1st derivative terms included.
 Solvent              : CarbonTetraChloride, Eps=   2.228000 Eps(inf)=   2.131892
 ------------------------------------------------------------------------------
 GePol: Number of generator spheres                  =      25
 GePol: Total number of spheres                      =      25
 GePol: Number of exposed spheres                    =      25 (100.00%)
 GePol: Number of points                             =    2200
 GePol: Average weight of points                     =       0.12
 GePol: Minimum weight of points                     =   0.98D-08
 GePol: Maximum weight of points                     =    0.20577
 GePol: Number of points with low weight             =     155
 GePol: Fraction of low-weight points (<1% of avg)   =       7.05%
 GePol: Cavity surface area                          =    273.852 Ang**2
 GePol: Cavity volume                                =    292.916 Ang**3
 Leave Link  301 at Mon Jul 13 18:46:58 2020, MaxMem=  7784628224 cpu:               0.8 elap:               0.1
 (Enter /gpfs/loomis/apps/avx/software/Gaussian/16-C.01_AVX/g16/l302.exe)
 NPDir=0 NMtPBC=     1 NCelOv=     1 NCel=       1 NClECP=     1 NCelD=      1
         NCelK=      1 NCelE2=     1 NClLst=     1 CellRange=     0.0.
 One-electron integrals computed using PRISM.
 NBasis=   273 RedAO= T EigKep=  3.01D-04  NBF=   273
 NBsUse=   273 1.00D-06 EigRej= -1.00D+00 NBFU=   273
 Precomputing XC quadrature grid using
 IXCGrd= 4 IRadAn=           5 IRanWt=          -1 IRanGd=           0 AccXCQ= 0.00D+00.
 Generated NRdTot=       0 NPtTot=           0 NUsed=           0 NTot=          32
 NSgBfM=   288   288   288   288   288 MxSgAt=    25 MxSgA2=    25.
 Leave Link  302 at Mon Jul 13 18:46:58 2020, MaxMem=  7784628224 cpu:               2.5 elap:               0.3
 (Enter /gpfs/loomis/apps/avx/software/Gaussian/16-C.01_AVX/g16/l303.exe)
 DipDrv:  MaxL=1.
 Leave Link  303 at Mon Jul 13 18:46:58 2020, MaxMem=  7784628224 cpu:               0.4 elap:               0.1
 (Enter /gpfs/loomis/apps/avx/software/Gaussian/16-C.01_AVX/g16/l308.exe)
 Leave Link  308 at Mon Jul 13 18:46:58 2020, MaxMem=  7784628224 cpu:               1.0 elap:               0.1
 (Enter /gpfs/loomis/apps/avx/software/Gaussian/16-C.01_AVX/g16/l401.exe)
 ExpMin= 1.22D-01 ExpMax= 1.11D+05 ExpMxC= 1.07D+03 IAcc=3 IRadAn=         5 AccDes= 0.00D+00
 Harris functional with IExCor= 4639 and IRadAn=       5 diagonalized for initial guess.
 HarFok:  IExCor= 4639 AccDes= 0.00D+00 IRadAn=         5 IDoV= 1 UseB2=F ITyADJ=14
 ICtDFT=  3500011 ScaDFX=  1.000000  1.000000  1.000000  1.000000
 FoFCou: FMM=F IPFlag=           0 FMFlag=      100000 FMFlg1=           0
         NFxFlg=           0 DoJE=T BraDBF=F KetDBF=T FulRan=T
         wScrn=  0.000000 ICntrl=       500 IOpCl=  0 I1Cent=   200000004 NGrid=           0
         NMat0=    1 NMatS0=      1 NMatT0=    0 NMatD0=    1 NMtDS0=    0 NMtDT0=    0
 Symmetry not used in FoFCou.
 Harris En= -994.356527477413    
 JPrj=0 DoOrth=F DoCkMO=F.
 Leave Link  401 at Mon Jul 13 18:47:00 2020, MaxMem=  7784628224 cpu:              13.4 elap:               1.4
 (Enter /gpfs/loomis/apps/avx/software/Gaussian/16-C.01_AVX/g16/l502.exe)
 Two-electron integral symmetry not used.
 Closed shell SCF:
 Using DIIS extrapolation, IDIIS=  1040.
 NGot=  7784628224 LenX=  7784455381 LenY=  7784371419
 Requested convergence on RMS density matrix=1.00D-08 within 128 cycles.
 Requested convergence on MAX density matrix=1.00D-06.
 Requested convergence on             energy=1.00D-06.
 No special actions if energy rises.
 Fock matrices will be formed incrementally for  20 cycles.

 Cycle   1  Pass 1  IDiag  1:
 FoFJK:  IHMeth= 1 ICntrl=       0 DoSepK=T KAlg= 0 I1Cent=           0 FoldK=F
 IRaf=         1 NMat=       1 IRICut=       1 DoRegI=T DoRafI=F ISym2E= 0 IDoP0=0 IntGTp=1.
 FoFCou: FMM=F IPFlag=           0 FMFlag=      100000 FMFlg1=           0
         NFxFlg=           0 DoJE=T BraDBF=F KetDBF=F FulRan=T
         wScrn=  0.000000 ICntrl=       500 IOpCl=  0 I1Cent=           0 NGrid=           0
         NMat0=    1 NMatS0=      1 NMatT0=    0 NMatD0=    1 NMtDS0=    0 NMtDT0=    0
 Symmetry not used in FoFCou.
 Inv3:  Mode=1 IEnd=    14520000.
 Iteration    1 A*A^-1 deviation from unit magnitude is 4.00D-15 for   2200.
 Iteration    1 A*A^-1 deviation from orthogonality  is 2.17D-15 for   1104    633.
 Iteration    1 A^-1*A deviation from unit magnitude is 4.00D-15 for   2199.
 Iteration    1 A^-1*A deviation from orthogonality  is 1.59D-15 for   1862   1509.
 E= -1028.46530102763    
 DIIS: error= 3.80D-02 at cycle   1 NSaved=   1.
 NSaved= 1 IEnMin= 1 EnMin= -1028.46530102763     IErMin= 1 ErrMin= 3.80D-02
 ErrMax= 3.80D-02  0.00D+00 EMaxC= 1.00D-01 BMatC= 3.94D-01 BMatP= 3.94D-01
 IDIUse=3 WtCom= 6.20D-01 WtEn= 3.80D-01
 Coeff-Com:  0.100D+01
 Coeff-En:   0.100D+01
 Coeff:      0.100D+01
 Gap=     0.303 Goal=   None    Shift=    0.000
 GapD=    0.303 DampG=1.000 DampE=0.500 DampFc=0.5000 IDamp=-1.
 Damping current iteration by 5.00D-01
 RMSDP=3.69D-03 MaxDP=2.52D-01              OVMax= 2.17D-01

 Cycle   2  Pass 1  IDiag  1:
 RMSU=  1.84D-03    CP:  9.94D-01
 E= -1028.58794512941     Delta-E=       -0.122644101783 Rises=F Damp=T
 DIIS: error= 1.19D-02 at cycle   2 NSaved=   2.
 NSaved= 2 IEnMin= 2 EnMin= -1028.58794512941     IErMin= 2 ErrMin= 1.19D-02
 ErrMax= 1.19D-02  0.00D+00 EMaxC= 1.00D-01 BMatC= 5.82D-02 BMatP= 3.94D-01
 IDIUse=3 WtCom= 8.81D-01 WtEn= 1.19D-01
 Coeff-Com: -0.284D+00 0.128D+01
 Coeff-En:   0.000D+00 0.100D+01
 Coeff:     -0.250D+00 0.125D+01
 Gap=     0.369 Goal=   None    Shift=    0.000
 RMSDP=1.18D-03 MaxDP=2.96D-02 DE=-1.23D-01 OVMax= 1.52D-01

 Cycle   3  Pass 1  IDiag  1:
 RMSU=  1.14D-03    CP:  9.92D-01  1.16D+00
 E= -1028.69924490311     Delta-E=       -0.111299773699 Rises=F Damp=F
 DIIS: error= 6.55D-03 at cycle   3 NSaved=   3.
 NSaved= 3 IEnMin= 3 EnMin= -1028.69924490311     IErMin= 3 ErrMin= 6.55D-03
 ErrMax= 6.55D-03  0.00D+00 EMaxC= 1.00D-01 BMatC= 1.52D-02 BMatP= 5.82D-02
 IDIUse=3 WtCom= 9.35D-01 WtEn= 6.55D-02
 Coeff-Com: -0.203D+00 0.496D+00 0.706D+00
 Coeff-En:   0.000D+00 0.000D+00 0.100D+01
 Coeff:     -0.189D+00 0.464D+00 0.725D+00
 Gap=     0.233 Goal=   None    Shift=    0.000
 RMSDP=5.50D-04 MaxDP=2.16D-02 DE=-1.11D-01 OVMax= 4.87D-02

 Cycle   4  Pass 1  IDiag  1:
 RMSU=  4.34D-04    CP:  9.91D-01  1.31D+00  8.54D-01
 E= -1028.71442295109     Delta-E=       -0.015178047979 Rises=F Damp=F
 DIIS: error= 2.15D-03 at cycle   4 NSaved=   4.
 NSaved= 4 IEnMin= 4 EnMin= -1028.71442295109     IErMin= 4 ErrMin= 2.15D-03
 ErrMax= 2.15D-03  0.00D+00 EMaxC= 1.00D-01 BMatC= 1.86D-03 BMatP= 1.52D-02
 IDIUse=3 WtCom= 9.79D-01 WtEn= 2.15D-02
 Coeff-Com: -0.714D-01 0.141D+00 0.340D+00 0.591D+00
 Coeff-En:   0.000D+00 0.000D+00 0.000D+00 0.100D+01
 Coeff:     -0.698D-01 0.138D+00 0.332D+00 0.600D+00
 Gap=     0.236 Goal=   None    Shift=    0.000
 RMSDP=1.72D-04 MaxDP=9.43D-03 DE=-1.52D-02 OVMax= 1.35D-02

 Cycle   5  Pass 1  IDiag  1:
 RMSU=  1.13D-04    CP:  9.90D-01  1.33D+00  9.26D-01  7.73D-01
 E= -1028.71647958589     Delta-E=       -0.002056634805 Rises=F Damp=F
 DIIS: error= 5.49D-04 at cycle   5 NSaved=   5.
 NSaved= 5 IEnMin= 5 EnMin= -1028.71647958589     IErMin= 5 ErrMin= 5.49D-04
 ErrMax= 5.49D-04  0.00D+00 EMaxC= 1.00D-01 BMatC= 6.21D-05 BMatP= 1.86D-03
 IDIUse=3 WtCom= 9.95D-01 WtEn= 5.49D-03
 Coeff-Com:  0.127D-03-0.671D-02 0.225D-01 0.152D+00 0.832D+00
 Coeff-En:   0.000D+00 0.000D+00 0.000D+00 0.000D+00 0.100D+01
 Coeff:      0.127D-03-0.667D-02 0.223D-01 0.151D+00 0.833D+00
 Gap=     0.237 Goal=   None    Shift=    0.000
 RMSDP=6.25D-05 MaxDP=2.02D-03 DE=-2.06D-03 OVMax= 6.92D-03

 Cycle   6  Pass 1  IDiag  1:
 RMSU=  3.98D-05    CP:  9.90D-01  1.33D+00  9.43D-01  8.66D-01  1.14D+00
 E= -1028.71663169955     Delta-E=       -0.000152113657 Rises=F Damp=F
 DIIS: error= 2.64D-04 at cycle   6 NSaved=   6.
 NSaved= 6 IEnMin= 6 EnMin= -1028.71663169955     IErMin= 6 ErrMin= 2.64D-04
 ErrMax= 2.64D-04  0.00D+00 EMaxC= 1.00D-01 BMatC= 1.12D-05 BMatP= 6.21D-05
 IDIUse=3 WtCom= 9.97D-01 WtEn= 2.64D-03
 Coeff-Com:  0.180D-01-0.364D-01-0.712D-01-0.907D-01 0.191D+00 0.989D+00
 Coeff-En:   0.000D+00 0.000D+00 0.000D+00 0.000D+00 0.000D+00 0.100D+01
 Coeff:      0.179D-01-0.363D-01-0.710D-01-0.905D-01 0.191D+00 0.989D+00
 Gap=     0.238 Goal=   None    Shift=    0.000
 RMSDP=4.17D-05 MaxDP=1.96D-03 DE=-1.52D-04 OVMax= 5.01D-03

 Cycle   7  Pass 1  IDiag  1:
 RMSU=  1.93D-05    CP:  9.90D-01  1.33D+00  9.57D-01  9.04D-01  1.36D+00
                    CP:  1.37D+00
 E= -1028.71667556585     Delta-E=       -0.000043866301 Rises=F Damp=F
 DIIS: error= 7.49D-05 at cycle   7 NSaved=   7.
 NSaved= 7 IEnMin= 7 EnMin= -1028.71667556585     IErMin= 7 ErrMin= 7.49D-05
 ErrMax= 7.49D-05  0.00D+00 EMaxC= 1.00D-01 BMatC= 2.27D-06 BMatP= 1.12D-05
 IDIUse=1 WtCom= 1.00D+00 WtEn= 0.00D+00
 Coeff-Com:  0.635D-02-0.119D-01-0.259D-01-0.507D-01-0.269D-01 0.376D+00
 Coeff-Com:  0.733D+00
 Coeff:      0.635D-02-0.119D-01-0.259D-01-0.507D-01-0.269D-01 0.376D+00
 Coeff:      0.733D+00
 Gap=     0.238 Goal=   None    Shift=    0.000
 RMSDP=1.34D-05 MaxDP=4.73D-04 DE=-4.39D-05 OVMax= 1.60D-03

 Cycle   8  Pass 1  IDiag  1:
 RMSU=  7.78D-06    CP:  9.90D-01  1.33D+00  9.58D-01  9.10D-01  1.40D+00
                    CP:  1.59D+00  1.17D+00
 E= -1028.71668146341     Delta-E=       -0.000005897561 Rises=F Damp=F
 DIIS: error= 5.98D-05 at cycle   8 NSaved=   8.
 NSaved= 8 IEnMin= 8 EnMin= -1028.71668146341     IErMin= 8 ErrMin= 5.98D-05
 ErrMax= 5.98D-05  0.00D+00 EMaxC= 1.00D-01 BMatC= 4.14D-07 BMatP= 2.27D-06
 IDIUse=1 WtCom= 1.00D+00 WtEn= 0.00D+00
 Coeff-Com: -0.172D-02 0.369D-02 0.792D-02 0.351D-02-0.403D-01-0.105D+00
 Coeff-Com:  0.214D+00 0.918D+00
 Coeff:     -0.172D-02 0.369D-02 0.792D-02 0.351D-02-0.403D-01-0.105D+00
 Coeff:      0.214D+00 0.918D+00
 Gap=     0.238 Goal=   None    Shift=    0.000
 RMSDP=7.84D-06 MaxDP=2.09D-04 DE=-5.90D-06 OVMax= 1.30D-03

 Cycle   9  Pass 1  IDiag  1:
 RMSU=  3.24D-06    CP:  9.90D-01  1.33D+00  9.58D-01  9.09D-01  1.42D+00
                    CP:  1.70D+00  1.43D+00  1.17D+00
 E= -1028.71668320989     Delta-E=       -0.000001746477 Rises=F Damp=F
 DIIS: error= 1.71D-05 at cycle   9 NSaved=   9.
 NSaved= 9 IEnMin= 9 EnMin= -1028.71668320989     IErMin= 9 ErrMin= 1.71D-05
 ErrMax= 1.71D-05  0.00D+00 EMaxC= 1.00D-01 BMatC= 1.17D-07 BMatP= 4.14D-07
 IDIUse=1 WtCom= 1.00D+00 WtEn= 0.00D+00
 Coeff-Com: -0.146D-02 0.287D-02 0.673D-02 0.816D-02-0.113D-01-0.102D+00
 Coeff-Com: -0.566D-01 0.351D+00 0.802D+00
 Coeff:     -0.146D-02 0.287D-02 0.673D-02 0.816D-02-0.113D-01-0.102D+00
 Coeff:     -0.566D-01 0.351D+00 0.802D+00
 Gap=     0.238 Goal=   None    Shift=    0.000
 RMSDP=4.10D-06 MaxDP=1.34D-04 DE=-1.75D-06 OVMax= 5.71D-04

 Cycle  10  Pass 1  IDiag  1:
 RMSU=  1.63D-06    CP:  9.90D-01  1.33D+00  9.58D-01  9.09D-01  1.43D+00
                    CP:  1.75D+00  1.53D+00  1.44D+00  1.19D+00
 E= -1028.71668359590     Delta-E=       -0.000000386009 Rises=F Damp=F
 DIIS: error= 1.23D-05 at cycle  10 NSaved=  10.
 NSaved=10 IEnMin=10 EnMin= -1028.71668359590     IErMin=10 ErrMin= 1.23D-05
 ErrMax= 1.23D-05  0.00D+00 EMaxC= 1.00D-01 BMatC= 2.30D-08 BMatP= 1.17D-07
 IDIUse=1 WtCom= 1.00D+00 WtEn= 0.00D+00
 Coeff-Com:  0.757D-04-0.224D-03 0.383D-04 0.128D-02 0.807D-02-0.846D-02
 Coeff-Com: -0.835D-01-0.826D-01 0.325D+00 0.841D+00
 Coeff:      0.757D-04-0.224D-03 0.383D-04 0.128D-02 0.807D-02-0.846D-02
 Coeff:     -0.835D-01-0.826D-01 0.325D+00 0.841D+00
 Gap=     0.238 Goal=   None    Shift=    0.000
 RMSDP=1.84D-06 MaxDP=5.57D-05 DE=-3.86D-07 OVMax= 3.39D-04

 Cycle  11  Pass 1  IDiag  1:
 RMSU=  6.25D-07    CP:  9.90D-01  1.33D+00  9.58D-01  9.10D-01  1.43D+00
                    CP:  1.77D+00  1.57D+00  1.54D+00  1.50D+00  1.12D+00
 E= -1028.71668368326     Delta-E=       -0.000000087363 Rises=F Damp=F
 DIIS: error= 3.88D-06 at cycle  11 NSaved=  11.
 NSaved=11 IEnMin=11 EnMin= -1028.71668368326     IErMin=11 ErrMin= 3.88D-06
 ErrMax= 3.88D-06  0.00D+00 EMaxC= 1.00D-01 BMatC= 4.87D-09 BMatP= 2.30D-08
 IDIUse=1 WtCom= 1.00D+00 WtEn= 0.00D+00
 Coeff-Com:  0.288D-03-0.594D-03-0.108D-02-0.993D-03 0.546D-02 0.138D-01
 Coeff-Com: -0.245D-01-0.857D-01-0.346D-01 0.308D+00 0.820D+00
 Coeff:      0.288D-03-0.594D-03-0.108D-02-0.993D-03 0.546D-02 0.138D-01
 Coeff:     -0.245D-01-0.857D-01-0.346D-01 0.308D+00 0.820D+00
 Gap=     0.238 Goal=   None    Shift=    0.000
 RMSDP=7.93D-07 MaxDP=2.28D-05 DE=-8.74D-08 OVMax= 1.22D-04

 Cycle  12  Pass 1  IDiag  1:
 RMSU=  2.53D-07    CP:  9.90D-01  1.33D+00  9.58D-01  9.10D-01  1.43D+00
                    CP:  1.78D+00  1.58D+00  1.59D+00  1.60D+00  1.37D+00
                    CP:  1.15D+00
 E= -1028.71668369739     Delta-E=       -0.000000014131 Rises=F Damp=F
 DIIS: error= 1.38D-06 at cycle  12 NSaved=  12.
 NSaved=12 IEnMin=12 EnMin= -1028.71668369739     IErMin=12 ErrMin= 1.38D-06
 ErrMax= 1.38D-06  0.00D+00 EMaxC= 1.00D-01 BMatC= 6.22D-10 BMatP= 4.87D-09
 IDIUse=1 WtCom= 1.00D+00 WtEn= 0.00D+00
 Coeff-Com:  0.122D-03-0.236D-03-0.504D-03-0.861D-03 0.842D-03 0.807D-02
 Coeff-Com:  0.673D-02-0.157D-01-0.844D-01-0.449D-01 0.274D+00 0.857D+00
 Coeff:      0.122D-03-0.236D-03-0.504D-03-0.861D-03 0.842D-03 0.807D-02
 Coeff:      0.673D-02-0.157D-01-0.844D-01-0.449D-01 0.274D+00 0.857D+00
 Gap=     0.238 Goal=   None    Shift=    0.000
 RMSDP=3.18D-07 MaxDP=7.63D-06 DE=-1.41D-08 OVMax= 5.15D-05

 Cycle  13  Pass 1  IDiag  1:
 RMSU=  9.54D-08    CP:  9.90D-01  1.33D+00  9.58D-01  9.10D-01  1.43D+00
                    CP:  1.78D+00  1.58D+00  1.61D+00  1.65D+00  1.46D+00
                    CP:  1.37D+00  1.08D+00
 E= -1028.71668369961     Delta-E=       -0.000000002221 Rises=F Damp=F
 DIIS: error= 5.34D-07 at cycle  13 NSaved=  13.
 NSaved=13 IEnMin=13 EnMin= -1028.71668369961     IErMin=13 ErrMin= 5.34D-07
 ErrMax= 5.34D-07  0.00D+00 EMaxC= 1.00D-01 BMatC= 6.83D-11 BMatP= 6.22D-10
 IDIUse=1 WtCom= 1.00D+00 WtEn= 0.00D+00
 Coeff-Com: -0.143D-04 0.310D-04 0.541D-04-0.361D-04-0.289D-03 0.320D-04
 Coeff-Com:  0.322D-02 0.689D-02-0.114D-01-0.391D-01-0.702D-01 0.173D+00
 Coeff-Com:  0.937D+00
 Coeff:     -0.143D-04 0.310D-04 0.541D-04-0.361D-04-0.289D-03 0.320D-04
 Coeff:      0.322D-02 0.689D-02-0.114D-01-0.391D-01-0.702D-01 0.173D+00
 Coeff:      0.937D+00
 Gap=     0.238 Goal=   None    Shift=    0.000
 RMSDP=9.54D-08 MaxDP=2.13D-06 DE=-2.22D-09 OVMax= 1.19D-05

 Cycle  14  Pass 1  IDiag  1:
 RMSU=  3.45D-08    CP:  9.90D-01  1.33D+00  9.58D-01  9.10D-01  1.43D+00
                    CP:  1.78D+00  1.58D+00  1.61D+00  1.66D+00  1.49D+00
                    CP:  1.42D+00  1.24D+00  1.19D+00
 E= -1028.71668369982     Delta-E=       -0.000000000205 Rises=F Damp=F
 DIIS: error= 1.58D-07 at cycle  14 NSaved=  14.
 NSaved=14 IEnMin=14 EnMin= -1028.71668369982     IErMin=14 ErrMin= 1.58D-07
 ErrMax= 1.58D-07  0.00D+00 EMaxC= 1.00D-01 BMatC= 7.60D-12 BMatP= 6.83D-11
 IDIUse=1 WtCom= 1.00D+00 WtEn= 0.00D+00
 Coeff-Com: -0.134D-04 0.269D-04 0.560D-04 0.530D-04-0.157D-03-0.654D-03
 Coeff-Com:  0.305D-03 0.363D-02 0.371D-02-0.606D-02-0.455D-01-0.193D-01
 Coeff-Com:  0.310D+00 0.754D+00
 Coeff:     -0.134D-04 0.269D-04 0.560D-04 0.530D-04-0.157D-03-0.654D-03
 Coeff:      0.305D-03 0.363D-02 0.371D-02-0.606D-02-0.455D-01-0.193D-01
 Coeff:      0.310D+00 0.754D+00
 Gap=     0.238 Goal=   None    Shift=    0.000
 RMSDP=1.87D-08 MaxDP=5.58D-07 DE=-2.05D-10 OVMax= 2.29D-06

 Cycle  15  Pass 1  IDiag  1:
 RMSU=  1.14D-08    CP:  9.90D-01  1.33D+00  9.58D-01  9.10D-01  1.43D+00
                    CP:  1.78D+00  1.58D+00  1.61D+00  1.66D+00  1.49D+00
                    CP:  1.43D+00  1.26D+00  1.30D+00  1.11D+00
 E= -1028.71668369984     Delta-E=       -0.000000000019 Rises=F Damp=F
 DIIS: error= 7.21D-08 at cycle  15 NSaved=  15.
 NSaved=15 IEnMin=15 EnMin= -1028.71668369984     IErMin=15 ErrMin= 7.21D-08
 ErrMax= 7.21D-08  0.00D+00 EMaxC= 1.00D-01 BMatC= 1.25D-12 BMatP= 7.60D-12
 IDIUse=1 WtCom= 1.00D+00 WtEn= 0.00D+00
 Coeff-Com: -0.238D-05 0.426D-05 0.118D-04 0.319D-04-0.669D-05-0.293D-03
 Coeff-Com: -0.621D-03-0.405D-04 0.382D-02 0.670D-02-0.211D-02-0.504D-01
 Coeff-Com: -0.876D-01 0.218D+00 0.912D+00
 Coeff:     -0.238D-05 0.426D-05 0.118D-04 0.319D-04-0.669D-05-0.293D-03
 Coeff:     -0.621D-03-0.405D-04 0.382D-02 0.670D-02-0.211D-02-0.504D-01
 Coeff:     -0.876D-01 0.218D+00 0.912D+00
 Gap=     0.238 Goal=   None    Shift=    0.000
 RMSDP=1.20D-08 MaxDP=2.98D-07 DE=-1.86D-11 OVMax= 1.45D-06

 Cycle  16  Pass 1  IDiag  1:
 RMSU=  4.96D-09    CP:  9.90D-01  1.33D+00  9.58D-01  9.10D-01  1.43D+00
                    CP:  1.78D+00  1.58D+00  1.61D+00  1.66D+00  1.49D+00
                    CP:  1.43D+00  1.28D+00  1.37D+00  1.29D+00  1.19D+00
 E= -1028.71668369985     Delta-E=       -0.000000000010 Rises=F Damp=F
 DIIS: error= 2.81D-08 at cycle  16 NSaved=  16.
 NSaved=16 IEnMin=16 EnMin= -1028.71668369985     IErMin=16 ErrMin= 2.81D-08
 ErrMax= 2.81D-08  0.00D+00 EMaxC= 1.00D-01 BMatC= 1.43D-13 BMatP= 1.25D-12
 IDIUse=1 WtCom= 1.00D+00 WtEn= 0.00D+00
 Coeff-Com:  0.545D-06-0.121D-05-0.161D-05 0.350D-05 0.862D-05-0.229D-04
 Coeff-Com: -0.187D-03-0.317D-03 0.518D-03 0.215D-02 0.364D-02-0.115D-01
 Coeff-Com: -0.458D-01-0.269D-01 0.252D+00 0.826D+00
 Coeff:      0.545D-06-0.121D-05-0.161D-05 0.350D-05 0.862D-05-0.229D-04
 Coeff:     -0.187D-03-0.317D-03 0.518D-03 0.215D-02 0.364D-02-0.115D-01
 Coeff:     -0.458D-01-0.269D-01 0.252D+00 0.826D+00
 Gap=     0.238 Goal=   None    Shift=    0.000
 RMSDP=3.49D-09 MaxDP=1.11D-07 DE=-1.00D-11 OVMax= 4.77D-07

 Error on total polarization charges =  0.00850
 SCF Done:  E(RwB97XD) =  -1028.71668370     A.U. after   16 cycles
            NFock= 16  Conv=0.35D-08     -V/T= 2.0042
 KE= 1.024378711471D+03 PE=-4.612563261021D+03 EE= 1.459226536018D+03
 Leave Link  502 at Mon Jul 13 18:48:27 2020, MaxMem=  7784628224 cpu:             862.9 elap:              87.0
 (Enter /gpfs/loomis/apps/avx/software/Gaussian/16-C.01_AVX/g16/l801.exe)
 DoSCS=F DFT=T ScalE2(SS,OS)=  1.000000  1.000000
 ExpMin= 1.22D-01 ExpMax= 1.11D+05 ExpMxC= 1.07D+03 IAcc=3 IRadAn=         5 AccDes= 0.00D+00
 HarFok:  IExCor=  205 AccDes= 0.00D+00 IRadAn=         5 IDoV=-2 UseB2=F ITyADJ=14
 ICtDFT= 12500011 ScaDFX=  1.000000  1.000000  1.000000  1.000000
 Largest valence mixing into a core orbital is  9.53D-05
 Largest core mixing into a valence orbital is  3.17D-05
 Range of M.O.s used for correlation:    21   273
 NBasis=   273 NAE=    59 NBE=    59 NFC=    20 NFV=     0
 NROrb=    253 NOA=    39 NOB=    39 NVA=   214 NVB=   214
 Leave Link  801 at Mon Jul 13 18:48:27 2020, MaxMem=  7784628224 cpu:               1.1 elap:               0.1
 (Enter /gpfs/loomis/apps/avx/software/Gaussian/16-C.01_AVX/g16/l914.exe)
 RHF ground state
 Keep R1, R2, and R3 ints in memory in canonical form, NReq=4262515490.
 FoFCou: FMM=F IPFlag=           0 FMFlag=           0 FMFlg1=           0
         NFxFlg=           0 DoJE=F BraDBF=F KetDBF=F FulRan=T
         wScrn=  0.000000 ICntrl=       600 IOpCl=  0 I1Cent=           0 NGrid=           0
         NMat0=    1 NMatS0=  37401 NMatT0=    0 NMatD0=    1 NMtDS0=    0 NMtDT0=    0
 Symmetry not used in FoFCou.
 Two-electron integral symmetry not used.
 MDV=  7784628224 DFT=T DoStab=F Mixed=T DoRPA=T DoScal=F NonHer=T
 NEqPCM:  Using equilibrium solvation (IEInf=0, Eps=   2.2280, EpsInf=   2.1319)
 Making orbital integer symmetry assigments:
    12 initial guesses have been made.
 Convergence on wavefunction:    0.000001000000000
 Davidson Disk Diagonalization:  ConvIn= 1.00D-06 SkipCon=T Conv= 1.00D-06.
 Max sub-space:  2000 roots to seek:    12 dimension of matrix:        16692
 Iteration     1 Dimension    12 NMult     0 NNew     12
 CISAX will form    12 AO SS matrices at one time.
 NMat=    12 NSing=    12 JSym2X= 0.
 New state      3 was old state      4
 Excitation Energies [eV] at current iteration:
 Root      1 :     3.437140019294304
 Root      2 :     3.719494136405487
 Root      3 :     4.861661921562411
 Root      4 :     5.194968266400443
 Root      5 :     5.203424528474661
 Root      6 :     5.718269220753295
 Root      7 :     5.880316691628296
 Root      8 :     6.338833844542694
 Root      9 :     6.490121124630317
 Root     10 :     6.718351289731255
 Root     11 :     6.965577668446187
 Root     12 :     7.194864601187689
 Iteration     2 Dimension    18 NMult    12 NNew      6
 CISAX will form     6 AO SS matrices at one time.
 NMat=     6 NSing=     6 JSym2X= 0.
 Root      1 not converged, maximum delta is    0.043864195859820
 Root      2 not converged, maximum delta is    0.110401225847830
 Root      3 not converged, maximum delta is    0.081009123515419
 Excitation Energies [eV] at current iteration:
 Root      1 :     2.921050733361483   Change is   -0.516089285932820
 Root      2 :     3.508108339836805   Change is   -0.211385796568682
 Root      3 :     4.408971712799275   Change is   -0.452690208763136
 Iteration     3 Dimension    24 NMult    18 NNew      6
 CISAX will form     6 AO SS matrices at one time.
 NMat=     6 NSing=     6 JSym2X= 0.
 Root      1 not converged, maximum delta is    0.015899021290043
 Root      2 not converged, maximum delta is    0.029535066678773
 Root      3 not converged, maximum delta is    0.028679721662829
 Excitation Energies [eV] at current iteration:
 Root      1 :     2.891173559278648   Change is   -0.029877174082835
 Root      2 :     3.487579139889070   Change is   -0.020529199947735
 Root      3 :     4.379853447975546   Change is   -0.029118264823729
 Iteration     4 Dimension    30 NMult    24 NNew      6
 CISAX will form     6 AO SS matrices at one time.
 NMat=     6 NSing=     6 JSym2X= 0.
 Root      1 not converged, maximum delta is    0.008535652966000
 Root      2 not converged, maximum delta is    0.009871980402009
 Root      3 not converged, maximum delta is    0.016425736319264
 Excitation Energies [eV] at current iteration:
 Root      1 :     2.886505154537604   Change is   -0.004668404741044
 Root      2 :     3.485652812423152   Change is   -0.001926327465917
 Root      3 :     4.373833268417526   Change is   -0.006020179558020
 Iteration     5 Dimension    36 NMult    30 NNew      6
 CISAX will form     6 AO SS matrices at one time.
 NMat=     6 NSing=     6 JSym2X= 0.
 Root      1 not converged, maximum delta is    0.001821427454325
 Root      2 not converged, maximum delta is    0.001355943483673
 Root      3 not converged, maximum delta is    0.009209829254721
 Excitation Energies [eV] at current iteration:
 Root      1 :     2.885892847429409   Change is   -0.000612307108196
 Root      2 :     3.485543787843212   Change is   -0.000109024579940
 Root      3 :     4.372462714321941   Change is   -0.001370554095585
 Iteration     6 Dimension    42 NMult    36 NNew      6
 CISAX will form     6 AO SS matrices at one time.
 NMat=     6 NSing=     6 JSym2X= 0.
 Root      1 not converged, maximum delta is    0.000358336005068
 Root      2 not converged, maximum delta is    0.000331409837929
 Root      3 not converged, maximum delta is    0.002359237258303
 Excitation Energies [eV] at current iteration:
 Root      1 :     2.885850074551899   Change is   -0.000042772877510
 Root      2 :     3.485538500977513   Change is   -0.000005286865699
 Root      3 :     4.372279107990115   Change is   -0.000183606331826
 Iteration     7 Dimension    48 NMult    42 NNew      6
 CISAX will form     6 AO SS matrices at one time.
 NMat=     6 NSing=     6 JSym2X= 0.
 Root      1 not converged, maximum delta is    0.000105432639227
 Root      2 not converged, maximum delta is    0.000126027265785
 Root      3 not converged, maximum delta is    0.000520257907476
 Excitation Energies [eV] at current iteration:
 Root      1 :     2.885846597635933   Change is   -0.000003476915966
 Root      2 :     3.485538032084930   Change is   -0.000000468892583
 Root      3 :     4.372258666637099   Change is   -0.000020441353016
 Iteration     8 Dimension    54 NMult    48 NNew      6
 CISAX will form     6 AO SS matrices at one time.
 NMat=     6 NSing=     6 JSym2X= 0.
 Root      1 not converged, maximum delta is    0.000029301212175
 Root      2 not converged, maximum delta is    0.000012970351444
 Root      3 not converged, maximum delta is    0.000204385188550
 Excitation Energies [eV] at current iteration:
 Root      1 :     2.885846437867953   Change is   -0.000000159767979
 Root      2 :     3.485538011425325   Change is   -0.000000020659605
 Root      3 :     4.372256579025675   Change is   -0.000002087611424
 Iteration     9 Dimension    60 NMult    54 NNew      6
 CISAX will form     6 AO SS matrices at one time.
 NMat=     6 NSing=     6 JSym2X= 0.
 Root      1 not converged, maximum delta is    0.000010188997202
 Root      2 not converged, maximum delta is    0.000002333353014
 Root      3 not converged, maximum delta is    0.000047955996892
 Excitation Energies [eV] at current iteration:
 Root      1 :     2.885846424149677   Change is   -0.000000013718276
 Root      2 :     3.485538010544013   Change is   -0.000000000881312
 Root      3 :     4.372256414653098   Change is   -0.000000164372577
 Iteration    10 Dimension    66 NMult    60 NNew      6
 CISAX will form     6 AO SS matrices at one time.
 NMat=     6 NSing=     6 JSym2X= 0.
 Root      1 not converged, maximum delta is    0.000002764470516
 Root      2 not converged, maximum delta is    0.000001351420876
 Root      3 not converged, maximum delta is    0.000025975951074
 Excitation Energies [eV] at current iteration:
 Root      1 :     2.885846423293859   Change is   -0.000000000855818
 Root      2 :     3.485538010478351   Change is   -0.000000000065662
 Root      3 :     4.372256390288046   Change is   -0.000000024365052
 Iteration    11 Dimension    72 NMult    66 NNew      6
 CISAX will form     6 AO SS matrices at one time.
 NMat=     6 NSing=     6 JSym2X= 0.
 Root      1 has converged.
 Root      2 has converged.
 Root      3 not converged, maximum delta is    0.000007185327455
 Excitation Energies [eV] at current iteration:
 Root      1 :     2.885846423230989   Change is   -0.000000000062870
 Root      2 :     3.485538010470379   Change is   -0.000000000007972
 Root      3 :     4.372256387711165   Change is   -0.000000002576881
 Iteration    12 Dimension    74 NMult    72 NNew      2
 CISAX will form     2 AO SS matrices at one time.
 NMat=     2 NSing=     2 JSym2X= 0.
 Root      1 has converged.
 Root      2 has converged.
 Root      3 not converged, maximum delta is    0.000001410693952
 Excitation Energies [eV] at current iteration:
 Root      1 :     2.885846423229308   Change is   -0.000000000001681
 Root      2 :     3.485538010470426   Change is    0.000000000000048
 Root      3 :     4.372256387504454   Change is   -0.000000000206710
 Iteration    13 Dimension    76 NMult    74 NNew      2
 CISAX will form     2 AO SS matrices at one time.
 NMat=     2 NSing=     2 JSym2X= 0.
 Root      1 has converged.
 Root      2 has converged.
 Root      3 has converged.
 Excitation Energies [eV] at current iteration:
 Root      1 :     2.885846423228995   Change is   -0.000000000000313
 Root      2 :     3.485538010470497   Change is    0.000000000000071
 Root      3 :     4.372256387485690   Change is   -0.000000000018765
 Convergence achieved on expansion vectors.
 ***********************************************************************
 Excited states from <AA,BB:AA,BB> singles matrix:
 ***********************************************************************
 
 1PDM for each excited state written to RWF  633
 Ground to excited state transition densities written to RWF  633
 Ground to excited state transition electric dipole moments (Au):
       state          X           Y           Z        Dip. S.      Osc.
         1         1.1423     -2.2522     -0.0000      6.3773      0.4509
         2        -0.0000      0.0001     -0.0039      0.0000      0.0000
         3        -1.6503      1.0432      0.0000      3.8117      0.4083
 Ground to excited state transition velocity dipole moments (Au):
       state          X           Y           Z        Dip. S.      Osc.
         1        -0.1167      0.2418      0.0000      0.0721      0.4532
         2         0.0000     -0.0000      0.0006      0.0000      0.0000
         3         0.2600     -0.1574     -0.0000      0.0924      0.3833
 Ground to excited state transition magnetic dipole moments (Au):
       state          X           Y           Z
         1         0.0000      0.0000     -1.1640
         2         0.4020     -0.0042      0.0000
         3        -0.0000      0.0000     -0.9771
 Ground to excited state transition velocity quadrupole moments (Au):
       state          XX          YY          ZZ          XY          XZ          YZ
         1         0.0091      0.6470     -0.0122     -0.2724     -0.0000      0.0000
         2        -0.0000     -0.0000      0.0000      0.0000     -0.0061      0.0192
         3        -0.4495      0.4925      0.0036      0.1037      0.0000      0.0000
 <0|del|b> * <b|rxdel|0> + <0|del|b> * <b|delr+rdel|0>
 Rotatory Strengths (R) in cgs (10**-40 erg-esu-cm/Gauss)
       state          XX          YY          ZZ    R(velocity)    E-M Angle
         1         0.0101     -0.0218      0.0198      0.0027       90.00
         2         0.0000      0.0030      0.0029      0.0019       90.00
         3         0.0000      0.0027     -0.0070     -0.0014       90.00
 1/2[<0|r|b>*<b|rxdel|0> + (<0|rxdel|b>*<b|r|0>)*]
 Rotatory Strengths (R) in cgs (10**-40 erg-esu-cm/Gauss)
       state          XX          YY          ZZ     R(length)
         1        -0.0104      0.0478     -0.0296      0.0026
         2         0.0057      0.0002      0.0000      0.0020
         3        -0.0046     -0.0057      0.0066     -0.0012
  1/2[<0|del|b>*<b|r|0> + (<0|r|b>*<b|del|0>)*] (Au)
       state          X           Y           Z        Dip. S.   Osc.(frdel)
         1        -0.1333     -0.5446     -0.0000      0.6779      0.4519
         2        -0.0000     -0.0000     -0.0000      0.0000      0.0000
         3        -0.4291     -0.1642     -0.0000      0.5933      0.3955

 Excitation energies and oscillator strengths:
 
 Excited state symmetry could not be determined.
 Excited State   1:      Singlet-?Sym    2.8858 eV  429.63 nm  f=0.4509  <S**2>=0.000
      59 -> 60         0.69893
 This state for optimization and/or second-order correction.
 Total Energy, E(TD-HF/TD-DFT) =  -1028.61063080    
 Copying the excited state density for this state as the 1-particle RhoCI density.
 
 Excited state symmetry could not be determined.
 Excited State   2:      Singlet-?Sym    3.4855 eV  355.71 nm  f=0.0000  <S**2>=0.000
      58 -> 60         0.68392
      58 -> 62         0.11456
      58 -> 64         0.11429
 
 Excited state symmetry could not be determined.
 Excited State   3:      Singlet-?Sym    4.3723 eV  283.57 nm  f=0.4083  <S**2>=0.000
      57 -> 60         0.68343
 SavETr:  write IOETrn=   770 NScale= 10 NData=  16 NLR=1 NState=    3 LETran=      64.
 The selected state is a singlet.
 CISGrd: IGrad=2 NXY=2 DFT=T
 CISAX will form     1 AO SS matrices at one time.
 NMat=     1 NSing=     1 JSym2X= 0.
 GePol: Maximum number of non-zero 1st derivatives   =     262
 Leave Link  914 at Mon Jul 13 18:51:25 2020, MaxMem=  7784628224 cpu:            1758.6 elap:             178.3
 (Enter /gpfs/loomis/apps/avx/software/Gaussian/16-C.01_AVX/g16/l1002.exe)
 Minotr:  Closed shell wavefunction.
          Computing CIS/TDA/TD derivatives.
          Using Z-Vector for PSCF gradient.
          Skipping F1 and S1 gradient terms here.
          IDoAtm=1111111111111111111111111
 NEqPCM:  Using equilibrium solvation (IEInf=0, Eps=   2.2280, EpsInf=   2.1319)
          Frozen-core window.
          Direct CPHF calculation.
          Differentiating once with respect to electric field.
                with respect to dipole field.
          Differentiating once with respect to nuclear coordinates.
          Requested convergence is 1.0D-10 RMS, and 1.0D-09 maximum.
          NewPWx=F KeepS1=T KeepF1=T KeepIn=T MapXYZ=F SortEE=F KeepMc=T.
 Keep R1 ints in memory in canonical form, NReq=1421582529.
 FoFCou: FMM=F IPFlag=           0 FMFlag=           0 FMFlg1=           0
         NFxFlg=           0 DoJE=F BraDBF=F KetDBF=F FulRan=T
         wScrn=  0.000000 ICntrl=       600 IOpCl=  0 I1Cent=           0 NGrid=           0
         NMat0=    1 NMatS0=  37401 NMatT0=    0 NMatD0=    1 NMtDS0=    0 NMtDT0=    0
 Symmetry not used in FoFCou.
 Two-electron integral symmetry not used.
          MDV=    7784628224 using IRadAn=       5.
          Solving linear equations separately, MaxMat=       0.
          There are     1 degrees of freedom in the 1st order CPHF.  IDoFFX=0 NUNeed=     1.
 LinEq1:  Iter=  0 NonCon=     1 RMS=6.83D-03 Max=5.48D-01 NDo=     1
 AX will form     1 AO Fock derivatives at one time.
 LinEq1:  Iter=  1 NonCon=     1 RMS=3.15D-03 Max=1.75D-01 NDo=     1
 LinEq1:  Iter=  2 NonCon=     1 RMS=1.63D-03 Max=3.85D-02 NDo=     1
 LinEq1:  Iter=  3 NonCon=     1 RMS=7.54D-04 Max=2.11D-02 NDo=     1
 LinEq1:  Iter=  4 NonCon=     1 RMS=4.52D-04 Max=1.29D-02 NDo=     1
 LinEq1:  Iter=  5 NonCon=     1 RMS=2.20D-04 Max=7.39D-03 NDo=     1
 LinEq1:  Iter=  6 NonCon=     1 RMS=9.03D-05 Max=4.29D-03 NDo=     1
 LinEq1:  Iter=  7 NonCon=     1 RMS=4.69D-05 Max=1.54D-03 NDo=     1
 LinEq1:  Iter=  8 NonCon=     1 RMS=1.76D-05 Max=5.87D-04 NDo=     1
 LinEq1:  Iter=  9 NonCon=     1 RMS=8.22D-06 Max=2.08D-04 NDo=     1
 LinEq1:  Iter= 10 NonCon=     1 RMS=3.10D-06 Max=7.70D-05 NDo=     1
 LinEq1:  Iter= 11 NonCon=     1 RMS=1.53D-06 Max=5.64D-05 NDo=     1
 LinEq1:  Iter= 12 NonCon=     1 RMS=6.59D-07 Max=1.71D-05 NDo=     1
 LinEq1:  Iter= 13 NonCon=     1 RMS=3.45D-07 Max=1.18D-05 NDo=     1
 LinEq1:  Iter= 14 NonCon=     1 RMS=1.11D-07 Max=2.84D-06 NDo=     1
 LinEq1:  Iter= 15 NonCon=     1 RMS=5.77D-08 Max=1.63D-06 NDo=     1
 LinEq1:  Iter= 16 NonCon=     1 RMS=2.53D-08 Max=7.72D-07 NDo=     1
 LinEq1:  Iter= 17 NonCon=     1 RMS=1.22D-08 Max=3.57D-07 NDo=     1
 LinEq1:  Iter= 18 NonCon=     1 RMS=5.35D-09 Max=1.15D-07 NDo=     1
 LinEq1:  Iter= 19 NonCon=     1 RMS=2.25D-09 Max=6.22D-08 NDo=     1
 LinEq1:  Iter= 20 NonCon=     1 RMS=1.15D-09 Max=2.78D-08 NDo=     1
 LinEq1:  Iter= 21 NonCon=     1 RMS=3.80D-10 Max=1.16D-08 NDo=     1
 LinEq1:  Iter= 22 NonCon=     1 RMS=1.64D-10 Max=4.88D-09 NDo=     1
 LinEq1:  Iter= 23 NonCon=     1 RMS=6.98D-11 Max=1.74D-09 NDo=     1
 LinEq1:  Iter= 24 NonCon=     0 RMS=1.92D-11 Max=4.76D-10 NDo=     1
 Linear equations converged to 1.000D-10 1.000D-09 after    24 iterations.
 End of Minotr F.D. properties file   721 does not exist.
 End of Minotr F.D. properties file   722 does not exist.
 End of Minotr F.D. properties file   788 does not exist.
 Leave Link 1002 at Mon Jul 13 18:53:02 2020, MaxMem=  7784628224 cpu:             735.2 elap:              96.8
 (Enter /gpfs/loomis/apps/avx/software/Gaussian/16-C.01_AVX/g16/l601.exe)
 Copying SCF densities to generalized density rwf, IOpCl= 0 IROHF=0.

 **********************************************************************

            Population analysis using the SCF Density.

 **********************************************************************

 Alpha  occ. eigenvalues --  -89.10841 -19.20514 -14.50686 -10.41945 -10.37689
 Alpha  occ. eigenvalues --  -10.36529 -10.35623 -10.33532 -10.32975 -10.32627
 Alpha  occ. eigenvalues --  -10.32471 -10.31409 -10.30857 -10.30656 -10.29190
 Alpha  occ. eigenvalues --  -10.28262  -8.12808  -6.07689  -6.07321  -6.06816
 Alpha  occ. eigenvalues --   -1.14913  -1.09242  -0.99120  -0.95939  -0.93560
 Alpha  occ. eigenvalues --   -0.89269  -0.87185  -0.83934  -0.81164  -0.77448
 Alpha  occ. eigenvalues --   -0.75514  -0.72256  -0.69478  -0.67751  -0.65728
 Alpha  occ. eigenvalues --   -0.60848  -0.59796  -0.56815  -0.56358  -0.56128
 Alpha  occ. eigenvalues --   -0.55057  -0.53705  -0.53155  -0.50660  -0.49309
 Alpha  occ. eigenvalues --   -0.48814  -0.48589  -0.46987  -0.45513  -0.44889
 Alpha  occ. eigenvalues --   -0.44237  -0.43001  -0.42474  -0.40101  -0.36831
 Alpha  occ. eigenvalues --   -0.33841  -0.31632  -0.31296  -0.25768
 Alpha virt. eigenvalues --   -0.01973   0.03566   0.05546   0.05981   0.09475
 Alpha virt. eigenvalues --    0.10570   0.13332   0.14599   0.16350   0.17395
 Alpha virt. eigenvalues --    0.18976   0.20146   0.21181   0.21280   0.23158
 Alpha virt. eigenvalues --    0.23633   0.24071   0.25703   0.28607   0.30172
 Alpha virt. eigenvalues --    0.30626   0.33845   0.35681   0.35859   0.36653
 Alpha virt. eigenvalues --    0.38264   0.39277   0.39924   0.41898   0.44904
 Alpha virt. eigenvalues --    0.46615   0.48814   0.50835   0.50931   0.51370
 Alpha virt. eigenvalues --    0.52846   0.52850   0.52921   0.54123   0.55589
 Alpha virt. eigenvalues --    0.56272   0.56411   0.56422   0.56975   0.57702
 Alpha virt. eigenvalues --    0.57896   0.59094   0.59484   0.59645   0.60674
 Alpha virt. eigenvalues --    0.61268   0.61617   0.61898   0.62512   0.63121
 Alpha virt. eigenvalues --    0.64621   0.66734   0.67113   0.68657   0.69470
 Alpha virt. eigenvalues --    0.70175   0.70707   0.72011   0.72143   0.72952
 Alpha virt. eigenvalues --    0.74361   0.75201   0.76141   0.76482   0.78823
 Alpha virt. eigenvalues --    0.78924   0.79421   0.81367   0.81621   0.83210
 Alpha virt. eigenvalues --    0.85375   0.88036   0.90275   0.91504   0.92386
 Alpha virt. eigenvalues --    0.93714   0.94501   0.96086   0.97263   0.97645
 Alpha virt. eigenvalues --    0.98888   0.99513   1.00345   1.00669   1.01199
 Alpha virt. eigenvalues --    1.02635   1.05083   1.05987   1.06063   1.07238
 Alpha virt. eigenvalues --    1.08435   1.08971   1.10223   1.11304   1.11379
 Alpha virt. eigenvalues --    1.12426   1.12687   1.13546   1.14517   1.15578
 Alpha virt. eigenvalues --    1.17268   1.18743   1.20291   1.23547   1.24144
 Alpha virt. eigenvalues --    1.26992   1.27112   1.31575   1.33096   1.33751
 Alpha virt. eigenvalues --    1.34720   1.36487   1.38206   1.41235   1.44924
 Alpha virt. eigenvalues --    1.49301   1.49321   1.53202   1.54828   1.55178
 Alpha virt. eigenvalues --    1.55935   1.57281   1.57459   1.57681   1.59879
 Alpha virt. eigenvalues --    1.60233   1.62349   1.62573   1.65226   1.67744
 Alpha virt. eigenvalues --    1.68617   1.70045   1.71315   1.71761   1.71973
 Alpha virt. eigenvalues --    1.72288   1.73487   1.73736   1.74976   1.75392
 Alpha virt. eigenvalues --    1.78547   1.78752   1.80459   1.81853   1.82336
 Alpha virt. eigenvalues --    1.83485   1.84637   1.84667   1.85469   1.86633
 Alpha virt. eigenvalues --    1.86718   1.89984   1.91376   1.92251   1.92489
 Alpha virt. eigenvalues --    1.93686   1.94219   1.95491   1.96466   1.98379
 Alpha virt. eigenvalues --    2.00520   2.01383   2.02125   2.05033   2.06223
 Alpha virt. eigenvalues --    2.06922   2.07402   2.09893   2.10817   2.13644
 Alpha virt. eigenvalues --    2.17769   2.19929   2.22642   2.24173   2.27335
 Alpha virt. eigenvalues --    2.28133   2.29890   2.35103   2.37735   2.39865
 Alpha virt. eigenvalues --    2.40596   2.42825   2.46632   2.48872   2.50522
 Alpha virt. eigenvalues --    2.52508   2.54417   2.61681   2.61692   2.64831
 Alpha virt. eigenvalues --    2.68290   2.71108   2.73811   2.78347   2.80264
 Alpha virt. eigenvalues --    2.81792   2.82422   2.83621   2.88611   2.92743
 Alpha virt. eigenvalues --    2.93813   3.03094   3.17280   3.33257   3.49265
 Alpha virt. eigenvalues --    3.52708   3.58714   3.69205   4.01678
          Condensed to atoms (all electrons):
               1          2          3          4          5          6
     1  C    4.732180   0.481858   0.010598  -0.051770  -0.011135   0.510740
     2  C    0.481858   5.392662   0.264067  -0.067549  -0.072275  -0.004059
     3  C    0.010598   0.264067   4.892227   0.522595  -0.002139  -0.069100
     4  C   -0.051770  -0.067549   0.522595   4.799888   0.517913  -0.014736
     5  C   -0.011135  -0.072275  -0.002139   0.517913   4.721507   0.501352
     6  C    0.510740  -0.004059  -0.069100  -0.014736   0.501352   4.734856
     7  H    0.405004  -0.040938   0.009269  -0.000551   0.008151  -0.038361
     8  H   -0.000591   0.010743  -0.023946   0.393653  -0.041015   0.007325
     9  H    0.008555  -0.000306   0.008150  -0.038225   0.405592  -0.043444
    10  H   -0.042540   0.009604  -0.000577   0.008719  -0.042732   0.407729
    11  N    0.003671  -0.037681   0.417881  -0.053695   0.002514   0.000390
    12  S   -0.065413   0.338900  -0.136608   0.003395   0.000135   0.004133
    13  C   -0.000224  -0.000086   0.015276  -0.000204   0.000016  -0.000002
    14  C   -0.000005   0.000017   0.000365   0.000008  -0.000000  -0.000000
    15  C    0.000003  -0.000174   0.000464   0.000007  -0.000001   0.000000
    16  C    0.000000  -0.000002   0.000004  -0.000000   0.000000   0.000000
    17  H   -0.000004   0.000088  -0.000003   0.000000   0.000000   0.000000
    18  C    0.000000   0.000011  -0.000050  -0.000001  -0.000000   0.000000
    19  C   -0.000000  -0.000000   0.000002  -0.000000   0.000000   0.000000
    20  H   -0.000000  -0.000000  -0.000000   0.000000   0.000000  -0.000000
    21  H   -0.000000   0.000000  -0.000001  -0.000000  -0.000000   0.000000
    22  H    0.000000  -0.000000  -0.000000  -0.000000   0.000000  -0.000000
    23  C    0.003406  -0.055117  -0.093370   0.005150   0.000365  -0.000377
    24  O    0.000002  -0.000229  -0.001058   0.000110   0.000000  -0.000000
    25  H    0.000262   0.017726  -0.028598  -0.019216  -0.000435  -0.000019
               7          8          9         10         11         12
     1  C    0.405004  -0.000591   0.008555  -0.042540   0.003671  -0.065413
     2  C   -0.040938   0.010743  -0.000306   0.009604  -0.037681   0.338900
     3  C    0.009269  -0.023946   0.008150  -0.000577   0.417881  -0.136608
     4  C   -0.000551   0.393653  -0.038225   0.008719  -0.053695   0.003395
     5  C    0.008151  -0.041015   0.405592  -0.042732   0.002514   0.000135
     6  C   -0.038361   0.007325  -0.043444   0.407729   0.000390   0.004133
     7  H    0.648974   0.000028  -0.000141  -0.011712  -0.000103  -0.006954
     8  H    0.000028   0.637290  -0.011590  -0.000117  -0.005898  -0.000248
     9  H   -0.000141  -0.011590   0.655622  -0.012222  -0.000100   0.000022
    10  H   -0.011712  -0.000117  -0.012222   0.656715   0.000005  -0.000132
    11  N   -0.000103  -0.005898  -0.000100   0.000005   5.741533  -0.043022
    12  S   -0.006954  -0.000248   0.000022  -0.000132  -0.043022  15.441957
    13  C    0.000005   0.000055  -0.000000  -0.000000  -0.025393  -0.068787
    14  C    0.000000   0.000001   0.000000  -0.000000   0.003579  -0.006420
    15  C   -0.000000  -0.000008   0.000000   0.000000  -0.004796   0.004132
    16  C   -0.000000  -0.000000  -0.000000  -0.000000  -0.000087   0.000020
    17  H    0.000001   0.000000   0.000000  -0.000000   0.000259   0.006159
    18  C    0.000000  -0.000000  -0.000000  -0.000000  -0.000665  -0.000093
    19  C    0.000000   0.000000  -0.000000   0.000000   0.000030   0.000015
    20  H    0.000000  -0.000000   0.000000   0.000000   0.000001   0.000000
    21  H   -0.000000   0.000000  -0.000000   0.000000   0.000006   0.000003
    22  H    0.000000  -0.000000  -0.000000  -0.000000  -0.000000  -0.000000
    23  C    0.000191  -0.000645   0.000007   0.000004   0.500309   0.308365
    24  O    0.000000  -0.000211   0.000000  -0.000000  -0.031233  -0.000121
    25  H    0.000008   0.000983  -0.000018  -0.000000   0.380635   0.007083
              13         14         15         16         17         18
     1  C   -0.000224  -0.000005   0.000003   0.000000  -0.000004   0.000000
     2  C   -0.000086   0.000017  -0.000174  -0.000002   0.000088   0.000011
     3  C    0.015276   0.000365   0.000464   0.000004  -0.000003  -0.000050
     4  C   -0.000204   0.000008   0.000007  -0.000000   0.000000  -0.000001
     5  C    0.000016  -0.000000  -0.000001   0.000000   0.000000  -0.000000
     6  C   -0.000002  -0.000000   0.000000   0.000000   0.000000   0.000000
     7  H    0.000005   0.000000  -0.000000  -0.000000   0.000001   0.000000
     8  H    0.000055   0.000001  -0.000008  -0.000000   0.000000  -0.000000
     9  H   -0.000000   0.000000   0.000000  -0.000000   0.000000  -0.000000
    10  H   -0.000000  -0.000000   0.000000  -0.000000  -0.000000  -0.000000
    11  N   -0.025393   0.003579  -0.004796  -0.000087   0.000259  -0.000665
    12  S   -0.068787  -0.006420   0.004132   0.000020   0.006159  -0.000093
    13  C    5.517128   0.424888   0.165155  -0.003942  -0.043441  -0.040408
    14  C    0.424888   4.860116   0.013950   0.537665   0.400712  -0.064995
    15  C    0.165155   0.013950   4.726114  -0.056760   0.006444   0.458406
    16  C   -0.003942   0.537665  -0.056760   4.772628  -0.032732  -0.016987
    17  H   -0.043441   0.400712   0.006444  -0.032732   0.684480  -0.001017
    18  C   -0.040408  -0.064995   0.458406  -0.016987  -0.001017   4.916356
    19  C   -0.052006  -0.016356  -0.005163   0.472275   0.008537   0.490804
    20  H    0.009234  -0.036729  -0.000171   0.400088  -0.012327   0.008417
    21  H    0.015885  -0.000641  -0.023504   0.007743   0.000055   0.370684
    22  H   -0.001638   0.009611   0.008640  -0.046975  -0.000199  -0.038846
    23  C    0.336620  -0.101173  -0.070530   0.006606  -0.020356   0.011751
    24  O   -0.096491   0.006362   0.671876  -0.000192  -0.000075  -0.069190
    25  H   -0.053457  -0.000791  -0.005831   0.000068  -0.000086   0.004089
              19         20         21         22         23         24
     1  C   -0.000000  -0.000000  -0.000000   0.000000   0.003406   0.000002
     2  C   -0.000000  -0.000000   0.000000  -0.000000  -0.055117  -0.000229
     3  C    0.000002  -0.000000  -0.000001  -0.000000  -0.093370  -0.001058
     4  C   -0.000000   0.000000  -0.000000  -0.000000   0.005150   0.000110
     5  C    0.000000   0.000000  -0.000000   0.000000   0.000365   0.000000
     6  C    0.000000  -0.000000   0.000000  -0.000000  -0.000377  -0.000000
     7  H    0.000000   0.000000  -0.000000   0.000000   0.000191   0.000000
     8  H    0.000000  -0.000000   0.000000  -0.000000  -0.000645  -0.000211
     9  H   -0.000000   0.000000  -0.000000  -0.000000   0.000007   0.000000
    10  H    0.000000   0.000000   0.000000  -0.000000   0.000004  -0.000000
    11  N    0.000030   0.000001   0.000006  -0.000000   0.500309  -0.031233
    12  S    0.000015   0.000000   0.000003  -0.000000   0.308365  -0.000121
    13  C   -0.052006   0.009234   0.015885  -0.001638   0.336620  -0.096491
    14  C   -0.016356  -0.036729  -0.000641   0.009611  -0.101173   0.006362
    15  C   -0.005163  -0.000171  -0.023504   0.008640  -0.070530   0.671876
    16  C    0.472275   0.400088   0.007743  -0.046975   0.006606  -0.000192
    17  H    0.008537  -0.012327   0.000055  -0.000199  -0.020356  -0.000075
    18  C    0.490804   0.008417   0.370684  -0.038846   0.011751  -0.069190
    19  C    4.755763  -0.047641  -0.047989   0.402635   0.000125   0.005082
    20  H   -0.047641   0.690913  -0.000175  -0.012691  -0.000382   0.000000
    21  H   -0.047989  -0.000175   0.684963  -0.012904  -0.000485   0.006018
    22  H    0.402635  -0.012691  -0.012904   0.679207   0.000012  -0.000085
    23  C    0.000125  -0.000382  -0.000485   0.000012   5.141173  -0.018211
    24  O    0.005082   0.000000   0.006018  -0.000085  -0.018211   7.842440
    25  H   -0.000376  -0.000000   0.000003   0.000005   0.020498   0.077626
              25
     1  C    0.000262
     2  C    0.017726
     3  C   -0.028598
     4  C   -0.019216
     5  C   -0.000435
     6  C   -0.000019
     7  H    0.000008
     8  H    0.000983
     9  H   -0.000018
    10  H   -0.000000
    11  N    0.380635
    12  S    0.007083
    13  C   -0.053457
    14  C   -0.000791
    15  C   -0.005831
    16  C    0.000068
    17  H   -0.000086
    18  C    0.004089
    19  C   -0.000376
    20  H   -0.000000
[...]
 ,-0.00003553,0.,-0.00001729,-0.00000592,0.,0.00003320,0.00000378,0.,0.
 00001041,-0.00000358,0.,0.00003173,-0.00000405,0.,0.00061204,0.0005879
 2,0.00000037,-0.00024530,0.00100145,-0.00000093,-0.00643205,-0.0302006
 7,-0.00000492,-0.09714069,-0.09807542,-0.00001532,-0.00425656,0.003694
 91,-0.00000085,0.01075044,0.01964788,0.00000282,0.10001238,0.00001031,
 -0.00003205,-0.00000003,-0.00015631,0.00044501,-0.00000024,0.00021900,
 0.00005348,-0.00000013,-0.00002948,0.00002645,0.,0.00001547,0.00003037
 ,0.,-0.00007137,0.00000270,0.00000003,-0.00000687,0.00001354,-0.000000
 02,0.00000994,-0.00000320,-0.00000002,-0.00000305,0.00000066,0.,-0.000
 00497,0.00000258,0.00000001,0.00009135,0.00027761,0.00000036,-0.000668
 35,-0.00004346,-0.00000106,0.00087271,-0.00133343,-0.00000095,-0.09665
 179,-0.29912683,-0.00003928,0.00037081,0.00216072,-0.00000097,-0.01246
 039,-0.01712872,-0.00000337,0.10405075,0.31632081,0.00000003,0.0000001
 9,0.00003256,0.00000055,0.00000034,-0.00024868,0.00000098,-0.00000099,
 0.00063412,-0.00000061,0.00000010,0.00006437,0.00000005,-0.00000042,-0
 .00001029,0.00000017,0.00000016,-0.00001350,0.,0.,0.00003240,0.0000000
 2,0.,0.00002947,0.,0.,-0.00000203,0.00000001,0.,-0.00001330,0.00000034
 ,0.00000243,-0.00193715,-0.00000126,-0.00000097,0.00113452,0.00000113,
 -0.00000625,0.00800026,-0.00001673,-0.00003849,-0.03623450,-0.00000171
 ,0.00000126,0.00964137,-0.00000080,-0.00000151,0.00363114,0.00001833,0
 .00004472,0.02110246,-0.00152203,0.00033411,0.00000075,-0.00445834,-0.
 00387547,0.00000087,-0.00539667,0.01118157,-0.00000233,0.00538796,-0.0
 0059221,-0.00000028,-0.00029021,0.00208018,-0.00000005,0.00107624,-0.0
 0127308,-0.00000002,-0.00011851,0.00008754,0.,0.00006038,-0.00000100,-
 0.00000005,0.00011279,0.00000951,0.00000002,0.00009245,-0.00006840,-0.
 00000015,0.01099528,-0.00065632,0.00000282,0.00096073,-0.00326690,0.00
 000010,0.02585371,0.01043018,0.00000231,-0.03701655,0.02161231,-0.0000
 0047,-0.12345961,0.06231173,0.00000926,-0.01524566,-0.08580779,-0.0000
 1137,-0.00061733,0.00044567,0.00000079,0.66275918,0.00072452,-0.000030
 53,-0.00000020,0.00028760,0.00017820,-0.00000007,0.00110388,-0.0018119
 9,0.00000054,-0.00121678,0.00013357,0.00000004,0.00015457,-0.00042767,
 0.,-0.00036662,0.00018104,0.00000003,0.00000737,0.00000535,0.,-0.00000
 740,-0.00000494,0.00000002,-0.00002318,-0.00000382,0.,0.00000968,0.000
 01591,0.00000004,-0.00084226,0.00043319,-0.00000120,0.00122957,-0.0005
 7264,-0.00000003,0.01083503,-0.02949801,-0.00000168,0.00912887,-0.0051
 6320,-0.00000015,0.06670417,-0.22683603,-0.00001547,-0.03682146,0.0015
 7337,-0.00000234,-0.00017946,0.00077138,-0.00000015,0.06208401,0.67578
 402,0.00000035,0.00000012,0.00022015,0.00000020,0.00000063,0.00056632,
 0.00000167,-0.00000118,0.00134334,-0.00000065,0.,-0.00018550,0.0000001
 4,-0.00000024,-0.00005894,-0.00000014,0.00000019,-0.00013753,0.,0.0000
 0003,0.00013216,0.00000003,0.00000001,0.00009599,-0.00000002,0.,0.0000
 1459,0.00000001,0.,-0.00007346,-0.00000145,0.00000439,-0.00359615,-0.0
 0000004,-0.00000087,0.00186211,0.00000259,-0.00000594,0.01364312,-0.00
 000318,0.00000395,-0.00528644,0.00000818,-0.00001565,-0.06731440,-0.00
 000448,-0.00000724,0.00772997,0.00000030,0.00000040,-0.00231274,0.0000
 3780,0.00007279,0.10824438,0.00156010,0.00032450,-0.00000072,0.0058241
 4,0.00411204,-0.00000142,0.00762903,-0.01355817,0.00000135,-0.00700696
 ,0.00076821,0.00000050,0.00039632,-0.00334089,0.00000022,-0.00036755,0
 .00175285,0.,0.00008373,-0.00008371,-0.00000009,-0.00000120,0.00002486
 ,-0.00000006,-0.00009329,-0.00002968,-0.00000005,-0.00004736,0.0000743
 0,0.00000016,-0.01165931,0.00772218,0.00000029,-0.00044875,0.00183222,
 -0.00000038,-0.01593587,-0.01288070,-0.00000309,0.05898116,-0.00042472
 ,0.00000399,-0.05492540,0.02146597,-0.00000569,-0.15036282,-0.02210905
 ,-0.00000663,-0.00265092,0.00449481,-0.00000005,-0.31887938,-0.0596419
 9,-0.00001970,0.65877313,0.00011277,0.00093235,-0.00000035,0.00299786,
 0.00126420,-0.00000023,0.00334931,-0.00468699,0.00000097,-0.00343982,0
 .00052904,0.00000022,0.00014970,-0.00243357,0.00000016,0.00094782,0.00
 087879,-0.00000009,-0.00000732,-0.00003943,0.00000002,0.00002268,0.000
 00469,0.,0.00000981,-0.00005227,-0.00000002,0.00002434,0.00003920,0.00
 000004,-0.00019469,0.00460511,-0.00000240,-0.00170481,0.00045758,0.000
 00020,-0.03110815,-0.00441117,-0.00000174,0.05137306,-0.05759434,-0.00
 000402,-0.00288582,0.02408963,-0.00000203,-0.11501141,-0.32118020,-0.0
 0003422,0.00343296,-0.00184952,-0.00000098,0.00970526,-0.12564380,-0.0
 0000897,-0.05403138,0.71660404,0.00000006,0.00000008,0.00012922,0.0000
 0054,0.00000009,-0.00031928,0.00000012,-0.00000077,-0.00102525,-0.0000
 0052,0.00000007,0.00008922,-0.00000003,-0.00000031,0.00009100,0.000000
 08,0.00000008,0.00002172,0.,-0.00000002,-0.00005954,-0.00000001,0.,-0.
 00011620,0.,0.,-0.00000240,0.,0.,0.00000552,-0.00000009,-0.00000049,0.
 00107020,-0.00000014,0.00000051,0.00016555,-0.00000521,-0.00000148,-0.
 00130458,0.00000913,-0.00000739,0.00779252,-0.00000176,0.00000700,0.00
 119822,-0.00001783,-0.00003053,-0.05729943,-0.00000006,-0.00000045,0.0
 0372093,-0.00001390,-0.00001348,-0.04987166,0.00002238,0.00006667,0.11
 438528,0.00007369,-0.00010115,0.,-0.00011360,0.00012044,0.,-0.00002215
 ,-0.00006973,-0.00000002,0.00002372,0.00001108,0.,0.00000417,0.0001043
 2,0.,-0.00015005,-0.00000973,0.,0.00000591,0.00000632,0.,-0.00000123,-
 0.00000414,0.,-0.00001056,0.00000679,0.,-0.00000904,0.00000367,0.,-0.0
 0016827,0.00037285,-0.00000003,0.00004023,0.00001037,0.,0.00022485,0.0
 0320811,0.00000022,-0.01417909,-0.00722717,-0.00000195,0.00059795,0.00
 039106,0.00000021,-0.33672567,-0.05586790,-0.00002263,0.00067804,0.000
 11202,0.00000011,0.00136046,-0.00183965,-0.00000057,-0.00528577,0.0024
 5383,-0.00000036,0.35404193,0.00000197,0.00000704,0.,-0.00004369,-0.00
 008665,0.,0.00002012,0.00018974,-0.00000007,0.00005274,-0.00005112,-0.
 00000001,0.00001167,0.00003537,0.,0.00000010,-0.00002591,0.,-0.0000005
 1,-0.00000194,0.,0.00000049,0.00000122,0.,0.00000370,-0.00000367,0.,0.
 00000263,-0.00000180,0.,0.00038514,-0.00041811,0.00000008,0.00001935,0
 .00003020,-0.00000004,0.00293482,-0.00415465,-0.00000073,0.02357878,0.
 00741689,0.00000170,0.00053801,-0.00087784,0.00000018,-0.05536767,-0.0
 7007418,-0.00000724,-0.00028647,0.00088098,0.00000039,-0.00110255,-0.0
 0529562,-0.00000146,-0.02905124,0.00129474,-0.00000204,0.05912511,0.06
 902544,0.,-0.00000001,-0.00000192,-0.00000009,-0.00000002,0.00007673,0
 .00000004,0.00000014,0.00045804,0.00000007,0.,0.00005547,0.00000001,0.
 00000005,-0.00005717,-0.00000002,0.,0.00000336,0.,0.,0.00001333,0.,0.,
 0.00003561,0.,0.,-0.00001558,0.,0.,-0.00000825,-0.00000002,0.00000008,
 0.00008508,0.00000003,-0.00000004,-0.00014693,-0.00000051,-0.00000067,
 0.00400803,0.00000165,-0.00000043,0.00476907,0.00000002,-0.00000027,-0
 .00153547,-0.00002231,-0.00000719,-0.03461312,0.00000009,0.00000046,-0
 .00219738,0.00000027,-0.00000104,0.00663899,-0.00000405,-0.00000082,0.
 00651109,0.00002468,0.00000854,0.02157097,-0.00011733,0.00003186,0.,0.
 00010259,0.00004690,0.00000002,-0.00010561,0.00007316,0.00000001,0.000
 04243,0.00001072,0.,-0.00002138,-0.00003989,0.,0.00009059,0.00001406,-
 0.00000001,-0.00000011,-0.00000434,0.,-0.00000399,0.00000054,0.,0.0000
 0334,-0.00000090,0.,-0.00000242,-0.00000178,0.,0.00021455,-0.00020095,
 -0.00000015,-0.00029109,0.00013652,0.00000011,-0.00323820,0.00300417,-
 0.00000006,-0.00001846,0.00030834,-0.00000003,0.00933819,0.02009029,0.
 00000333,-0.00599159,0.00053780,-0.00000058,0.00008444,-0.00010265,-0.
 00000005,-0.09339855,-0.09793840,-0.00001594,-0.00407208,-0.02869628,-
 0.00000423,-0.00040770,-0.00144246,-0.00000011,0.09439498,0.00004134,0
 .00005509,0.00000006,-0.00011163,-0.00013726,0.00000006,0.00005508,0.0
 0006044,0.00000003,-0.00000314,-0.00000287,0.,0.00000920,-0.00003602,0
 .,0.00005216,-0.00001780,-0.00000001,-0.00000683,0.00000238,0.,0.00000
 689,0.00000319,0.,0.00000753,-0.00000353,0.,0.00001137,-0.00000197,-0.
 00000001,-0.00017017,0.00012929,-0.00000012,0.00030596,-0.00021726,0.0
 0000014,0.00397761,-0.00247414,-0.00000007,0.00048830,0.00032049,0.000
 00007,-0.01409532,-0.01761635,-0.00000413,-0.00035578,0.00143747,-0.00
 000061,-0.00007886,-0.00006009,-0.00000014,-0.09650480,-0.30822948,-0.
 00004071,0.00261871,0.00056864,-0.00000076,0.00008089,-0.00010028,0.00
 000016,0.10486897,0.32375627,-0.00000002,-0.00000016,-0.00035259,-0.00
 000051,-0.00000023,-0.00032791,-0.00000057,0.00000072,-0.00001816,0.00
 000044,-0.00000005,0.00002707,-0.00000002,0.00000028,-0.00004759,-0.00
 000010,-0.00000011,0.00008264,0.,0.,-0.00003690,0.,0.,0.00002896,0.,0.
 ,-0.00000680,0.,0.,0.00007489,0.00000006,-0.00000135,0.00073276,0.0000
 0034,0.00000010,-0.00086530,0.00000021,0.00000134,0.00229149,0.0000004
 7,-0.00000078,0.00003243,-0.00000437,-0.00000324,0.00418096,-0.0000007
 8,-0.00000069,0.00537432,-0.00000014,-0.00000006,0.00027987,-0.0000151
 9,-0.00004213,-0.03115873,0.00000079,-0.00000074,0.00436449,-0.0000000
 2,-0.00000006,-0.00044534,0.00001744,0.00004527,0.02063686,0.00004412,
 -0.00002309,-0.00000001,0.00000629,0.00010886,-0.00000003,0.00016739,-
 0.00012246,-0.00000008,-0.00007337,0.00000555,0.00000001,0.00001273,0.
 00000142,0.,-0.00005670,0.00001197,0.,0.00000177,0.00000299,0.,0.00000
 391,-0.00000299,0.,-0.00000600,0.00000167,0.,-0.00000388,0.00000347,0.
 ,0.00013881,0.00040999,0.00000017,-0.00007096,0.00009978,-0.00000010,-
 0.00043497,-0.00045435,-0.00000025,0.00039780,-0.00255127,-0.00000054,
 -0.00260931,-0.00408944,-0.00000066,0.00992933,-0.01022675,-0.00000085
 ,0.00037836,-0.00045887,0.00000005,-0.01304760,0.02546095,0.00000209,-
 0.17754316,0.14260331,0.00000859,0.00070087,0.00038571,0.00000034,0.00
 107276,-0.00034138,0.00000013,0.18317271,-0.00000154,0.00006579,-0.000
 00002,0.00016154,0.00008302,-0.00000006,0.00019528,-0.00031250,-0.0000
 0003,-0.00017819,0.00002879,0.00000002,0.00000536,-0.00014483,0.000000
 01,0.00008167,0.00004858,0.,-0.00000376,-0.00000528,0.,0.00000369,0.00
 000432,0.,0.00000524,-0.00000363,0.,0.00000596,-0.00000141,0.,-0.00026
 567,0.00008589,0.00000012,-0.00008645,0.00003280,-0.00000001,-0.000559
 37,0.00032425,-0.00000001,-0.00313838,-0.00381736,-0.00000125,-0.00225
 315,0.00022370,-0.00000073,0.02160997,-0.01582231,-0.00000104,0.000969
 09,-0.00107295,-0.00000013,-0.00588775,0.00740400,0.00000032,0.1409661
 7,-0.22698303,-0.00001523,-0.00013563,0.00099358,0.00000068,0.00030038
 ,0.00061486,0.00000042,-0.15183108,0.23752397,-0.00000006,0.00000010,0
 .00000758,0.00000024,0.00000004,0.00008993,0.00000024,-0.00000027,0.00
 015612,-0.00000020,0.00000005,0.00000503,0.00000001,-0.00000019,-0.000
 00189,0.00000013,0.00000007,-0.00000761,0.,0.,0.00000926,0.,0.,0.00001
 434,0.,0.,0.00000013,0.,0.,-0.00001049,0.00000023,0.00000049,-0.000222
 53,-0.00000017,-0.00000006,-0.00007206,0.00000043,-0.00000034,-0.00074
 059,-0.00000052,-0.00000109,0.00621237,-0.00000146,-0.00000124,0.00643
 002,0.00000297,-0.00000221,0.00335645,0.00000010,-0.00000019,0.0004898
 2,-0.00000049,0.00000191,0.00323891,0.00000752,-0.00001566,-0.03357503
 ,0.00000032,0.00000063,-0.00418822,0.00000029,0.00000057,-0.00336022,-
 0.00000898,0.00001677,0.02334642,-0.00191928,-0.00716171,0.00000052,-0
 .00478298,0.02202206,-0.00000058,-0.05683977,0.03113143,0.00000234,0.0
 0654614,-0.00258456,-0.00000035,-0.00109087,0.00501052,-0.00000029,-0.
 00557782,-0.00203473,0.00000031,0.00030051,-0.00067719,0.00000010,-0.0
 0062135,-0.00007712,-0.00000007,0.00017794,-0.00009259,0.,-0.00065162,
 -0.00019432,0.00000009,-0.35974464,-0.04274597,0.00002611,-0.04894039,
 -0.04557207,0.00000576,-0.15598460,0.06906381,0.00000624,-0.03899736,0
 .03321030,0.00000100,0.04249089,0.01137024,0.00000250,-0.00429536,-0.0
 0976125,0.00000008,0.00023017,0.00064992,-0.00000206,-0.00615926,-0.00
 314946,-0.00000312,0.00014226,0.00390278,0.00000163,-0.00053534,0.0006
 9215,-0.00000020,0.00061950,-0.00107683,0.00000072,0.00005149,-0.00002
 519,-0.00000067,0.66106492,-0.00038591,-0.00043458,-0.00000019,0.02338
 406,-0.01843860,0.00000126,0.01863975,0.01184052,-0.00000357,0.0014555
 1,-0.00627048,0.00000092,-0.00043831,-0.00103479,0.00000029,0.00138580
 ,-0.00082633,-0.00000002,0.00012448,-0.00046955,0.00000007,-0.00043005
 ,0.00007755,-0.00000008,0.00029486,-0.00048076,-0.00000004,-0.00021732
 ,0.00004157,0.00000003,-0.03210040,-0.12715151,0.00000513,-0.00812841,
 -0.17054988,0.00001485,0.04836268,-0.17508935,-0.00000400,0.02389300,0
 .00931699,0.00000055,0.01641955,-0.04804486,-0.00000206,-0.00418323,0.
 00170231,-0.00000258,-0.00165696,0.00029083,0.00000239,-0.01348133,-0.
 00256599,-0.00000049,0.00837728,-0.00051089,0.00000051,-0.00066102,0.0
 0096332,0.00000004,0.00068891,-0.00061134,-0.00000129,0.00003014,0.000
 36490,0.00000066,-0.06025216,0.51485431,-0.00000016,0.00000066,0.00079
 881,-0.00000226,-0.00000018,-0.00102039,0.00000096,-0.00000103,0.00457
 156,0.00000002,0.00000093,0.00162934,0.00000010,-0.00000030,0.00120779
 ,0.00000075,0.00000028,0.00069518,-0.00000004,0.00000007,-0.00032639,0
 .00000005,-0.00000004,-0.00061130,-0.00000005,0.00000001,-0.00042789,0
 .00000006,0.,-0.00019854,0.00002999,0.00001083,-0.02569818,0.00000336,
 0.00001247,-0.01687002,0.00000129,-0.00000278,-0.03322926,-0.00000303,
 0.00000375,0.00717857,0.00000575,-0.00000400,0.00338478,0.00000075,-0.
 00000396,0.00497941,0.00000033,0.00000058,-0.00362437,-0.00000309,0.00
 000034,-0.00076063,0.00000197,0.00000158,-0.00047256,0.00000010,0.0000
 0015,-0.00100717,-0.00000005,-0.00000051,0.00222801,0.00000020,0.00000
 010,-0.00049815,-0.00003841,-0.00001919,0.06295168,-0.00045515,0.00130
 514,0.00000036,-0.00049977,0.00059178,-0.00000055,0.00581250,0.0007246
 4,-0.00000166,-0.00025856,-0.00007195,0.00000019,0.00002179,-0.0009499
 6,0.00000023,0.00155777,0.00016242,-0.00000006,-0.00015719,0.00013618,
 -0.00000009,0.00022921,0.00007720,-0.00000017,0.00005739,0.00000098,-0
 .00000003,0.00009570,0.00000326,-0.00000008,0.00507583,0.02607774,0.00
 000817,0.00029329,-0.00118409,-0.00000075,-0.03584489,-0.04979312,-0.0
 0000928,0.00393349,-0.00490884,-0.00000025,-0.53019735,-0.08105662,-0.
 00004368,-0.01005330,-0.00725179,-0.00000143,-0.00172484,-0.00086744,0
 .00000020,-0.09054863,0.02452017,-0.00000521,0.01627876,0.01554826,0.0
 0000193,-0.00021298,-0.00046007,0.00000003,0.00174090,0.00022485,0.000
 00132,-0.00239122,0.00012005,0.00000003,-0.01962190,0.00749549,-0.0000
 0055,0.65328272,-0.00044904,-0.00026117,0.,0.00060446,-0.00222111,0.00
 000077,-0.00615559,-0.00071382,0.00000036,0.00061263,-0.00031490,-0.00
 000006,0.00000164,0.00049000,-0.00000006,0.00001760,-0.00042284,0.0000
 0003,0.00006636,-0.00017561,0.00000006,0.00007454,0.00003031,0.,0.0000
 8798,-0.00006184,0.,0.00002279,-0.00003489,0.,0.01500431,-0.02694932,-
 0.00000830,0.00032036,0.00097071,-0.00000004,-0.04749195,-0.01298492,-
 0.00000377,-0.00155814,-0.01042370,-0.00000246,-0.08062320,-0.10115295
 ,-0.00000934,0.00065537,-0.00239213,0.00000009,-0.00246096,-0.00034154
 ,-0.00000080,0.03520798,0.02002019,0.00000071,0.00246950,-0.00236106,-
 0.00000158,-0.00009088,0.00035722,0.00000037,-0.00186861,0.00263752,0.
 00000209,0.00146790,0.00036276,0.00000037,0.00216412,0.00933051,0.0000
 0156,0.08521328,0.13918949,-0.00000056,0.00000006,0.00022889,0.0000004
 9,-0.00000144,-0.00030082,-0.00000285,0.00000052,-0.00043986,0.0000004
 9,0.00000003,0.00013641,-0.00000013,0.,0.00019472,0.00000043,-0.000000
 22,0.00004872,0.00000002,-0.00000008,-0.00009730,-0.00000002,0.0000000
 1,-0.00022539,0.00000005,-0.00000002,-0.00002575,0.,-0.00000002,-0.000
 06585,0.00000622,-0.00000950,0.00909856,-0.00000009,0.00000032,-0.0012
 0428,-0.00000600,-0.00000858,0.01760800,-0.00000097,-0.00000140,0.0024
 9443,-0.00004256,-0.00000871,-0.05577355,-0.00000080,-0.00000188,0.000
 12388,-0.00000008,0.00000018,-0.00198767,-0.00000656,0.00000266,0.0168
 6360,0.00000244,0.00000211,0.00405402,-0.00000004,-0.00000003,0.000097
 79,-0.00000005,0.00000071,-0.00379889,0.00000001,0.00000005,-0.0005696
 2,0.00000031,0.00000335,-0.00288942,0.00005275,0.00002600,0.02177148,0
 .00136271,0.00052895,-0.00000011,-0.00340451,0.00522943,-0.00000049,0.
 01500057,0.02323451,-0.00000227,0.00110890,0.00097943,-0.00000015,-0.0
 0015200,-0.00024056,0.00000006,-0.00032461,0.00000397,0.00000004,-0.00
 019826,0.00032169,-0.00000005,-0.00108398,-0.00076570,0.00000005,-0.00
 000203,-0.00001506,0.,-0.00004831,-0.00006730,0.,-0.13720047,-0.168512
 04,0.00001489,-0.00420832,-0.00220568,0.00000024,0.00209708,-0.0001485
 8,-0.00000116,-0.00020780,-0.00006867,0.00000011,-0.00970766,0.0015183
 4,0.00000028,0.00043731,-0.00000918,-0.00000027,0.00023691,0.00013876,
 0.00000052,0.00149915,-0.00022375,0.00000115,-0.00038880,0.00044594,-0
 .00000032,0.00006963,0.00000214,0.00000007,-0.00003575,-0.00000414,-0.
 00000020,0.00015887,-0.00005824,0.00000004,-0.00586128,-0.02861641,0.0
 0000199,0.00358644,-0.00329244,-0.00000249,0.13726622,-0.00007027,-0.0
 0040353,0.00000030,0.00320377,0.00113819,-0.00000007,-0.00119812,-0.02
 100867,0.00000127,-0.00246602,0.00239391,0.00000016,-0.00027395,-0.001
 42928,0.00000017,-0.00012759,0.00091393,-0.00000010,0.00011691,-0.0000
 0122,-0.00000004,0.00058270,0.00005038,-0.00000005,-0.00016885,0.00015
 609,-0.00000004,-0.00002783,0.00007563,-0.00000005,-0.16289135,-0.4039
 1689,0.00003838,0.00278223,0.00677547,-0.00000141,-0.00485110,0.003423
 58,0.00000234,0.00468405,-0.00238452,-0.00000060,0.01724641,0.00553591
 ,0.00000305,-0.00320440,0.00494002,0.00000106,-0.00055862,-0.00028532,
 -0.00000115,-0.00297245,-0.00041650,-0.00000082,-0.00185209,-0.0035217
 5,-0.00000045,0.00000014,-0.00010397,0.,0.00018364,-0.00007724,0.00000
 066,-0.00049203,0.00000207,-0.00000040,-0.00381218,0.00369610,-0.00000
 133,-0.01565758,-0.01257690,-0.00000411,0.17182458,0.41702449,-0.00000
 010,0.00000057,0.00063295,0.00000012,0.00000071,0.00343069,0.00000218,
 0.00000199,0.00103917,0.00000001,-0.00000012,-0.00143839,-0.00000006,-
 0.00000029,-0.00055105,0.00000040,0.00000006,-0.00003782,-0.00000007,0
 .00000006,-0.00006487,0.00000001,0.00000002,0.00000092,0.,0.00000002,0
 .00011155,0.,0.00000001,0.00001297,0.00001305,0.00003493,-0.01239317,0
 .00000027,0.00000064,0.00376586,0.00000003,-0.00000138,-0.00137215,-0.
 00000161,0.00000037,-0.00025783,0.00000160,0.00000277,0.00067256,0.000
 00043,-0.00000097,0.00020434,-0.00000008,0.00000003,-0.00021168,-0.000
 00108,-0.00000042,0.00016252,0.00000032,0.00000032,0.00044695,-0.00000
 003,0.,-0.00010701,0.00000004,-0.00000003,0.00008370,-0.00000009,0.000
 00004,-0.00010995,-0.00000198,0.00000347,-0.00199086,-0.00000140,-0.00
 000600,-0.00534208,-0.00001195,-0.00003677,0.01331270\\0.00195424,0.00
 360304,-0.00000039,0.00495934,0.00719781,-0.00000088,0.00902103,-0.000
 45509,-0.00000044,-0.00125094,0.00212353,0.00000036,-0.00003224,-0.001
 55342,0.00000020,0.00176245,0.00181553,-0.00000026,-0.00002441,0.00043
 037,-0.00000016,0.00017042,0.00008511,-0.00000006,0.00000667,0.0001690
 8,-0.00000003,0.00012469,0.00018245,-0.00000005,-0.01380037,0.00857062
 ,0.00000707,0.00275397,0.00648429,-0.00000195,-0.00775313,0.00446112,-
 0.00000132,0.00683510,-0.00017892,0.00000150,0.01360132,0.00253206,-0.
 00000167,-0.00255379,0.00772357,-0.00000041,0.00015659,0.00002894,0.00
 000053,-0.00277098,0.00042743,0.00000166,-0.00454525,-0.00017659,-0.00
 000019,-0.00019256,0.00013897,-0.00000014,-0.00016294,-0.00003633,-0.0
 0000041,-0.00045866,-0.00012300,0.00000009,-0.00852969,-0.00553872,0.0
 0000005,-0.00707107,-0.01115736,-0.00000057,0.00780020,-0.02675449,-0.
 00000255\\\@
 The archive entry for this job was punched.


     "IF I COULD JUST GET IT ON PAPER"
 LIFE AND INK, THEY RUN OUT AT THE SAME TIME,
 OR SO SAID MY OLD FRIEND THE SQUID.
     -- JIMMY BUFFETT, 1981
 Job cpu time:       0 days  2 hours 52 minutes 26.1 seconds.
 Elapsed time:       0 days  0 hours 17 minutes 46.6 seconds.
 File lengths (MBytes):  RWF=   1380 Int=      0 D2E=      0 Chk=     48 Scr=      8
 Normal termination of Gaussian 16 at Mon Jul 13 19:43:07 2020.
