 Entering Gaussian System, Link 0=g16
 Initial command:
 /gpfs/loomis/apps/avx/software/Gaussian/16-C.01_AVX/g16/l1.exe "/home/fas/batista/pev4/scratch60/gauss-scratch/Gau-161775.inp" -scrdir="/home/fas/batista/pev4/scratch60/gauss-scratch/"
 Entering Link 1 = /gpfs/loomis/apps/avx/software/Gaussian/16-C.01_AVX/g16/l1.exe PID=    161776.
  
 Copyright (c) 1988-2019, Gaussian, Inc.  All Rights Reserved.
  
 This is part of the Gaussian(R) 16 program.  It is based on
 the Gaussian(R) 09 system (copyright 2009, Gaussian, Inc.),
 the Gaussian(R) 03 system (copyright 2003, Gaussian, Inc.),
 the Gaussian(R) 98 system (copyright 1998, Gaussian, Inc.),
 the Gaussian(R) 94 system (copyright 1995, Gaussian, Inc.),
 the Gaussian 92(TM) system (copyright 1992, Gaussian, Inc.),
 the Gaussian 90(TM) system (copyright 1990, Gaussian, Inc.),
 the Gaussian 88(TM) system (copyright 1988, Gaussian, Inc.),
 the Gaussian 86(TM) system (copyright 1986, Carnegie Mellon
 University), and the Gaussian 82(TM) system (copyright 1983,
 Carnegie Mellon University). Gaussian is a federally registered
 trademark of Gaussian, Inc.
  
 This software contains proprietary and confidential information,
 including trade secrets, belonging to Gaussian, Inc.
  
 This software is provided under written license and may be
 used, copied, transmitted, or stored only in accord with that
 written license.
  
 The following legend is applicable only to US Government
 contracts under FAR:
  
                    RESTRICTED RIGHTS LEGEND
  
 Use, reproduction and disclosure by the US Government is
 subject to restrictions as set forth in subparagraphs (a)
 and (c) of the Commercial Computer Software - Restricted
 Rights clause in FAR 52.227-19.
  
 Gaussian, Inc.
 340 Quinnipiac St., Bldg. 40, Wallingford CT 06492
  
  
 ---------------------------------------------------------------
 Warning -- This program may not be used in any manner that
 competes with the business of Gaussian, Inc. or will provide
 assistance to any competitor of Gaussian, Inc.  The licensee
 of this program is prohibited from giving any competitor of
 Gaussian, Inc. access to this program.  By using this program,
 the user acknowledges that Gaussian, Inc. is engaged in the
 business of creating and licensing software in the field of
 computational chemistry and represents and warrants to the
 licensee that it is not a competitor of Gaussian, Inc. and that
 it will not use this program in any manner prohibited above.
 ---------------------------------------------------------------
  

 Cite this work as:
 Gaussian 16, Revision C.01,
 M. J. Frisch, G. W. Trucks, H. B. Schlegel, G. E. Scuseria, 
 M. A. Robb, J. R. Cheeseman, G. Scalmani, V. Barone, 
 G. A. Petersson, H. Nakatsuji, X. Li, M. Caricato, A. V. Marenich, 
 J. Bloino, B. G. Janesko, R. Gomperts, B. Mennucci, H. P. Hratchian, 
 J. V. Ortiz, A. F. Izmaylov, J. L. Sonnenberg, D. Williams-Young, 
 F. Ding, F. Lipparini, F. Egidi, J. Goings, B. Peng, A. Petrone, 
 T. Henderson, D. Ranasinghe, V. G. Zakrzewski, J. Gao, N. Rega, 
 G. Zheng, W. Liang, M. Hada, M. Ehara, K. Toyota, R. Fukuda, 
 J. Hasegawa, M. Ishida, T. Nakajima, Y. Honda, O. Kitao, H. Nakai, 
 T. Vreven, K. Throssell, J. A. Montgomery, Jr., J. E. Peralta, 
 F. Ogliaro, M. J. Bearpark, J. J. Heyd, E. N. Brothers, K. N. Kudin, 
 V. N. Staroverov, T. A. Keith, R. Kobayashi, J. Normand, 
 K. Raghavachari, A. P. Rendell, J. C. Burant, S. S. Iyengar, 
 J. Tomasi, M. Cossi, J. M. Millam, M. Klene, C. Adamo, R. Cammi, 
 J. W. Ochterski, R. L. Martin, K. Morokuma, O. Farkas, 
 J. B. Foresman, and D. J. Fox, Gaussian, Inc., Wallingford CT, 2019.
 
 ******************************************
 Gaussian 16:  ES64L-G16RevC.01  3-Jul-2019
                13-Jul-2020 
 ******************************************
 %chk=config_6_12.chk
 %mem=58GB
 %nprocshared=10
 Will use up to   10 processors via shared memory.
 ----------------------------------------------------------------------
 #p opt=addgic freq td wb97xd/cc-pvdz nosymm int=ultrafine scrf=(solven
 t=CarbonTetraChloride)
 ----------------------------------------------------------------------
 1/18=20,19=15,26=6,38=1,145=903/1,3;
 2/9=110,12=2,15=1,17=6,18=5,40=1/2;
 3/5=16,11=9,25=1,30=1,70=2201,71=1,72=11,74=-58,75=-5/1,2,3,8;
 4//1;
 5/5=2,38=5,53=11/2;
 8/6=1,10=1/1;
 9/15=2,42=1,70=2/14;
 10/5=4,31=1/2;
 6/7=2,8=2,9=2,10=2/1;
 7/12=6,13=5,30=1/1,2,3,16;
 1/18=20,19=15,26=6,145=903/3(2);
 2/9=110,15=1/2;
 99//99;
 2/9=110,15=1/2;
 3/5=16,11=9,25=1,30=1,70=2205,71=1,72=11,74=-58,75=-5/1,2,3,8;
 4/5=5,16=3,69=1/1;
 5/5=2,38=5,53=11/2;
 8/6=1,10=1/1;
 9/15=2,42=1,49=4,70=2/14;
 10/5=4,31=1/2;
 7/12=6,13=5,30=1/1,2,3,16;
 1/18=20,19=15,26=6,145=903/3(-8);
 2/9=110,15=1/2;
 6/7=2,8=2,9=2,10=2/1;
 99/9=10/99;
 Leave Link    1 at Mon Jul 13 14:18:28 2020, MaxMem=  7784628224 cpu:               4.6 elap:               0.5
 (Enter /gpfs/loomis/apps/avx/software/Gaussian/16-C.01_AVX/g16/l101.exe)
 ------------------------------------------------
 NM 2D-scan of HBT TD-WB97XD pVDZ in CTC Relaxed.
 ------------------------------------------------
 Symbolic Z-matrix:
 Charge =  0 Multiplicity = 1
 C                     1.60477  -3.25869  -0.00002 
 C                     0.99969  -2.0051   -0.00002 
 C                     1.75028  -0.79212  -0.00002 
 C                     3.1607   -0.8806   -0.00003 
 C                     3.75625  -2.13627  -0.00002 
 C                     2.99636  -3.32008  -0.00002 
 H                     0.99961  -4.16757  -0.00002 
 H                     3.76231   0.03055  -0.00003 
 H                     4.84645  -2.20481  -0.00002 
 H                     3.49707  -4.28992  -0.00002 
 N                     0.97907   0.32948  -0.00003 
 S                    -0.71621  -1.67209  -0.00002 
 C                    -1.34697   1.04674   0.00001 
 C                    -2.72586   0.77933   0.00001 
 C                    -0.89633   2.44994   0.00003 
 C                    -3.65038   1.83026   0.00003 
 H                    -3.07968  -0.25417  0. 
 C                    -1.86507   3.48179   0.00005 
 C                    -3.22765   3.17447   0.00004 
 H                    -4.71774   1.60003   0.00003 
 H                    -1.50794   4.51344   0.00007 
 H                    -3.96823   3.97566   0.00006 
 C                    -0.35206   0.04391  -0.00002 
 O                     0.37307   2.69138   0.00005 
 H                     0.9391    1.62569   0.00002 
 
 Add virtual bond connecting atoms H25        and N11        Dist= 2.45D+00.
 Add virtual bond connecting atoms H25        and O24        Dist= 2.28D+00.
 Initializing the GIC definitions file.
 Number of initial coordinates =   142
 Number of input entries/lines =    52
 Number of additional coordinates =     2
 Number of removed coordinates =     0
 Number of frozen coordinates =     2
 Number of final active and frozen coordinates =   144
 ITRead=  0  0  0  0  0  0  0  0  0  0  0  0  0  0  0  0  0  0  0  0
 ITRead=  0  0  0  0  0
 MicOpt= -1 -1 -1 -1 -1 -1 -1 -1 -1 -1 -1 -1 -1 -1 -1 -1 -1 -1 -1 -1
 MicOpt= -1 -1 -1 -1 -1
 NAtoms=     25 NQM=       25 NQMF=       0 NMMI=      0 NMMIF=      0
                NMic=       0 NMicF=      0.
                    Isotopes and Nuclear Properties:
 (Nuclear quadrupole moments (NQMom) in fm**2, nuclear magnetic moments (NMagM)
  in nuclear magnetons)

  Atom         1           2           3           4           5           6           7           8           9          10
 IAtWgt=          12          12          12          12          12          12           1           1           1           1
 AtmWgt=  12.0000000  12.0000000  12.0000000  12.0000000  12.0000000  12.0000000   1.0078250   1.0078250   1.0078250   1.0078250
 NucSpn=           0           0           0           0           0           0           1           1           1           1
 AtZEff=  -0.0000000  -0.0000000  -0.0000000  -0.0000000  -0.0000000  -0.0000000  -0.0000000  -0.0000000  -0.0000000  -0.0000000
 NQMom=    0.0000000   0.0000000   0.0000000   0.0000000   0.0000000   0.0000000   0.0000000   0.0000000   0.0000000   0.0000000
 NMagM=    0.0000000   0.0000000   0.0000000   0.0000000   0.0000000   0.0000000   2.7928460   2.7928460   2.7928460   2.7928460
 AtZNuc=   6.0000000   6.0000000   6.0000000   6.0000000   6.0000000   6.0000000   1.0000000   1.0000000   1.0000000   1.0000000

  Atom        11          12          13          14          15          16          17          18          19          20
 IAtWgt=          14          32          12          12          12          12           1          12          12           1
 AtmWgt=  14.0030740  31.9720718  12.0000000  12.0000000  12.0000000  12.0000000   1.0078250  12.0000000  12.0000000   1.0078250
 NucSpn=           2           0           0           0           0           0           1           0           0           1
 AtZEff=  -0.0000000  -0.0000000  -0.0000000  -0.0000000  -0.0000000  -0.0000000  -0.0000000  -0.0000000  -0.0000000  -0.0000000
 NQMom=    2.0440000   0.0000000   0.0000000   0.0000000   0.0000000   0.0000000   0.0000000   0.0000000   0.0000000   0.0000000
 NMagM=    0.4037610   0.0000000   0.0000000   0.0000000   0.0000000   0.0000000   2.7928460   0.0000000   0.0000000   2.7928460
 AtZNuc=   7.0000000  16.0000000   6.0000000   6.0000000   6.0000000   6.0000000   1.0000000   6.0000000   6.0000000   1.0000000

  Atom        21          22          23          24          25
 IAtWgt=           1           1          12          16           1
 AtmWgt=   1.0078250   1.0078250  12.0000000  15.9949146   1.0078250
 NucSpn=           1           1           0           0           1
 AtZEff=  -0.0000000  -0.0000000  -0.0000000  -0.0000000  -0.0000000
 NQMom=    0.0000000   0.0000000   0.0000000   0.0000000   0.0000000
 NMagM=    2.7928460   2.7928460   0.0000000   0.0000000   2.7928460
 AtZNuc=   1.0000000   1.0000000   6.0000000   8.0000000   1.0000000
 Leave Link  101 at Mon Jul 13 14:18:32 2020, MaxMem=  7784628224 cpu:              32.1 elap:               3.2
 (Enter /gpfs/loomis/apps/avx/software/Gaussian/16-C.01_AVX/g16/l103.exe)

 GradGradGradGradGradGradGradGradGradGradGradGradGradGradGradGradGradGrad
 Berny optimization.
 Initialization pass.
                           ----------------------------
                           !    Initial Parameters    !
                           ! (Angstroms and Degrees)  !
 --------------------------                            --------------------------
 ! Name  Definition              Value          Derivative Info.                !
 --------------------------------------------------------------------------------
 ! R1    R(1,2)                  1.392          estimate D2E/DX2                !
 ! R2    R(1,6)                  1.393          estimate D2E/DX2                !
 ! R3    R(1,7)                  1.0919         estimate D2E/DX2                !
 ! R4    R(2,3)                  1.4264         estimate D2E/DX2                !
 ! R5    R(2,12)                 1.7479         estimate D2E/DX2                !
 ! R6    R(3,4)                  1.4132         estimate D2E/DX2                !
 ! R7    R(3,11)                 1.3612         estimate D2E/DX2                !
 ! R8    R(4,5)                  1.3897         estimate D2E/DX2                !
 ! R9    R(4,8)                  1.0918         estimate D2E/DX2                !
 ! R10   R(5,6)                  1.4067         estimate D2E/DX2                !
 ! R11   R(5,9)                  1.0924         estimate D2E/DX2                !
 ! R12   R(6,10)                 1.0915         estimate D2E/DX2                !
 ! R13   R(11,23)                1.3614         estimate D2E/DX2                !
 ! R14   R(11,25)                1.2968         estimate D2E/DX2                !
 ! R15   R(12,23)                1.7542         estimate D2E/DX2                !
 ! R16   R(13,14)                1.4046         estimate D2E/DX2                !
 ! R17   R(13,15)                1.4738         estimate D2E/DX2                !
 ! R18   R(13,23)                1.4126         estimate D2E/DX2                !
 ! R19   R(14,16)                1.3997         estimate D2E/DX2                !
 ! R20   R(14,17)                1.0924         estimate D2E/DX2                !
 ! R21   R(15,18)                1.4153         estimate D2E/DX2                !
 ! R22   R(15,24)                1.2922         estimate D2E/DX2                !
 ! R23   R(16,19)                1.4091         estimate D2E/DX2                !
 ! R24   R(16,20)                1.0919         estimate D2E/DX2                !
 ! R25   R(18,19)                1.3968         estimate D2E/DX2                !
 ! R26   R(18,21)                1.0917         estimate D2E/DX2                !
 ! R27   R(19,22)                1.091          estimate D2E/DX2                !
 ! R28   R(24,25)                1.2067         estimate D2E/DX2                !
 ! A1    A(2,1,6)              118.2915         estimate D2E/DX2                !
 ! A2    A(2,1,7)              120.5779         estimate D2E/DX2                !
 ! A3    A(6,1,7)              121.1307         estimate D2E/DX2                !
 ! A4    A(1,2,3)              122.4855         estimate D2E/DX2                !
 ! A5    A(1,2,12)             126.7485         estimate D2E/DX2                !
 ! A6    A(3,2,12)             110.7661         estimate D2E/DX2                !
 ! A7    A(2,3,4)              118.1596         estimate D2E/DX2                !
 ! A8    A(2,3,11)             113.7387         estimate D2E/DX2                !
 ! A9    A(4,3,11)             128.1016         estimate D2E/DX2                !
 ! A10   A(3,4,5)              118.9638         estimate D2E/DX2                !
 ! A11   A(3,4,8)              119.8465         estimate D2E/DX2                !
 ! A12   A(5,4,8)              121.1897         estimate D2E/DX2                !
 ! A13   A(4,5,6)              121.9293         estimate D2E/DX2                !
 ! A14   A(4,5,9)              118.9719         estimate D2E/DX2                !
 ! A15   A(6,5,9)              119.0987         estimate D2E/DX2                !
 ! A16   A(1,6,5)              120.1703         estimate D2E/DX2                !
 ! A17   A(1,6,10)             119.8322         estimate D2E/DX2                !
 ! A18   A(5,6,10)             119.9975         estimate D2E/DX2                !
 ! A19   A(3,11,23)            112.4043         estimate D2E/DX2                !
 ! A20   A(3,11,25)            147.2539         estimate D2E/DX2                !
 ! A21   A(23,11,25)           100.3418         estimate D2E/DX2                !
 ! A22   A(2,12,23)             89.0021         estimate D2E/DX2                !
 ! A23   A(14,13,15)           118.7801         estimate D2E/DX2                !
 ! A24   A(14,13,23)           123.7976         estimate D2E/DX2                !
 ! A25   A(15,13,23)           117.4223         estimate D2E/DX2                !
 ! A26   A(13,14,16)           120.3635         estimate D2E/DX2                !
 ! A27   A(13,14,17)           119.8742         estimate D2E/DX2                !
 ! A28   A(16,14,17)           119.7623         estimate D2E/DX2                !
 ! A29   A(13,15,18)           119.0019         estimate D2E/DX2                !
 ! A30   A(13,15,24)           118.5737         estimate D2E/DX2                !
 ! A31   A(18,15,24)           122.4244         estimate D2E/DX2                !
 ! A32   A(14,16,19)           121.2035         estimate D2E/DX2                !
 ! A33   A(14,16,20)           119.1669         estimate D2E/DX2                !
 ! A34   A(19,16,20)           119.6296         estimate D2E/DX2                !
 ! A35   A(15,18,19)           120.4835         estimate D2E/DX2                !
 ! A36   A(15,18,21)           117.7122         estimate D2E/DX2                !
 ! A37   A(19,18,21)           121.8044         estimate D2E/DX2                !
 ! A38   A(16,19,18)           120.1675         estimate D2E/DX2                !
 ! A39   A(16,19,22)           119.7935         estimate D2E/DX2                !
 ! A40   A(18,19,22)           120.0389         estimate D2E/DX2                !
 ! A41   A(11,23,12)           114.0889         estimate D2E/DX2                !
 ! A42   A(11,23,13)           122.665          estimate D2E/DX2                !
 ! A43   A(12,23,13)           123.2462         estimate D2E/DX2                !
 ! A44   A(15,24,25)           107.2055         estimate D2E/DX2                !
 ! A45   A(11,25,24)           153.7918         estimate D2E/DX2                !
 ! D1    D(6,1,2,3)              0.0            estimate D2E/DX2                !
 ! D2    D(6,1,2,12)          -180.0            estimate D2E/DX2                !
 ! D3    D(7,1,2,3)            179.9999         estimate D2E/DX2                !
 ! D4    D(7,1,2,12)            -0.0001         estimate D2E/DX2                !
 ! D5    D(2,1,6,5)             -0.0001         estimate D2E/DX2                !
 ! D6    D(2,1,6,10)           179.9999         estimate D2E/DX2                !
 ! D7    D(7,1,6,5)            180.0            estimate D2E/DX2                !
 ! D8    D(7,1,6,10)             0.0            estimate D2E/DX2                !
 ! D9    D(1,2,3,4)              0.0001         estimate D2E/DX2                !
 ! D10   D(1,2,3,11)          -180.0            estimate D2E/DX2                !
 ! D11   D(12,2,3,4)          -179.9999         estimate D2E/DX2                !
 ! D12   D(12,2,3,11)            0.0            estimate D2E/DX2                !
 ! D13   D(1,2,12,23)          179.9998         estimate D2E/DX2                !
 ! D14   D(3,2,12,23)           -0.0002         estimate D2E/DX2                !
 ! D15   D(2,3,4,5)             -0.0001         estimate D2E/DX2                !
 ! D16   D(2,3,4,8)            179.9999         estimate D2E/DX2                !
 ! D17   D(11,3,4,5)           180.0            estimate D2E/DX2                !
 ! D18   D(11,3,4,8)             0.0            estimate D2E/DX2                !
 ! D19   D(2,3,11,23)            0.0003         estimate D2E/DX2                !
 ! D20   D(2,3,11,25)          179.9964         estimate D2E/DX2                !
 ! D21   D(4,3,11,23)         -179.9998         estimate D2E/DX2                !
 ! D22   D(4,3,11,25)           -0.0037         estimate D2E/DX2                !
 ! D23   D(3,4,5,6)              0.0            estimate D2E/DX2                !
 ! D24   D(3,4,5,9)           -179.9999         estimate D2E/DX2                !
 ! D25   D(8,4,5,6)            180.0            estimate D2E/DX2                !
 ! D26   D(8,4,5,9)              0.0            estimate D2E/DX2                !
 ! D27   D(4,5,6,1)              0.0001         estimate D2E/DX2                !
 ! D28   D(4,5,6,10)          -180.0            estimate D2E/DX2                !
 ! D29   D(9,5,6,1)           -179.9999         estimate D2E/DX2                !
 ! D30   D(9,5,6,10)             0.0            estimate D2E/DX2                !
 ! D31   D(3,11,23,12)          -0.0005         estimate D2E/DX2                !
 ! D32   D(3,11,23,13)         179.9987         estimate D2E/DX2                !
 ! D33   D(25,11,23,12)       -179.9984         estimate D2E/DX2                !
 ! D34   D(25,11,23,13)          0.0008         estimate D2E/DX2                !
 ! D35   D(3,11,25,24)        -179.9972         estimate D2E/DX2                !
 ! D36   D(23,11,25,24)         -0.0008         estimate D2E/DX2                !
 ! D37   D(2,12,23,11)           0.0004         estimate D2E/DX2                !
 ! D38   D(2,12,23,13)        -179.9988         estimate D2E/DX2                !
 ! D39   D(15,13,14,16)          0.0006         estimate D2E/DX2                !
 ! D40   D(15,13,14,17)       -179.9997         estimate D2E/DX2                !
 ! D41   D(23,13,14,16)       -179.9995         estimate D2E/DX2                !
 ! D42   D(23,13,14,17)          0.0002         estimate D2E/DX2                !
 ! D43   D(14,13,15,18)         -0.0007         estimate D2E/DX2                !
 ! D44   D(14,13,15,24)        179.9991         estimate D2E/DX2                !
 ! D45   D(23,13,15,18)        179.9994         estimate D2E/DX2                !
 ! D46   D(23,13,15,24)         -0.0008         estimate D2E/DX2                !
 ! D47   D(14,13,23,11)        179.9998         estimate D2E/DX2                !
 ! D48   D(14,13,23,12)         -0.0011         estimate D2E/DX2                !
 ! D49   D(15,13,23,11)         -0.0003         estimate D2E/DX2                !
 ! D50   D(15,13,23,12)        179.9988         estimate D2E/DX2                !
 ! D51   D(13,14,16,19)         -0.0001         estimate D2E/DX2                !
 ! D52   D(13,14,16,20)        179.9998         estimate D2E/DX2                !
 ! D53   D(17,14,16,19)       -179.9999         estimate D2E/DX2                !
 ! D54   D(17,14,16,20)          0.0001         estimate D2E/DX2                !
 ! D55   D(13,15,18,19)          0.0004         estimate D2E/DX2                !
 ! D56   D(13,15,18,21)        180.0            estimate D2E/DX2                !
 ! D57   D(24,15,18,19)       -179.9994         estimate D2E/DX2                !
 ! D58   D(24,15,18,21)          0.0002         estimate D2E/DX2                !
 ! D59   D(13,15,24,25)          0.001          estimate D2E/DX2                !
 ! D60   D(18,15,24,25)       -179.9992         estimate D2E/DX2                !
 ! D61   D(14,16,19,18)         -0.0002         estimate D2E/DX2                !
 ! D62   D(14,16,19,22)        179.9999         estimate D2E/DX2                !
 ! D63   D(20,16,19,18)        179.9998         estimate D2E/DX2                !
 ! D64   D(20,16,19,22)          0.0            estimate D2E/DX2                !
 ! D65   D(15,18,19,16)          0.0            estimate D2E/DX2                !
 ! D66   D(15,18,19,22)        179.9999         estimate D2E/DX2                !
 ! D67   D(21,18,19,16)       -179.9995         estimate D2E/DX2                !
 ! D68   D(21,18,19,22)          0.0003         estimate D2E/DX2                !
 ! D69   D(15,24,25,11)         -0.0002         estimate D2E/DX2                !
 ! Qtot  GIC-1                   0.0            Frozen                          !
 ! Ptot  GIC-2                  80.0            Frozen                          !
 --------------------------------------------------------------------------------
 NOTE: GIC-type coordinates are in arbitrary units.
 Trust Radius=3.00D-01 FncErr=5.00D-06 GrdErr=5.00D-06 EigMax=2.50D+02 EigMin=1.00D-04
 Number of steps in this run=    150 maximum allowed number of steps=    150.
 GradGradGradGradGradGradGradGradGradGradGradGradGradGradGradGradGradGrad

 Leave Link  103 at Mon Jul 13 14:18:32 2020, MaxMem=  7784628224 cpu:               0.2 elap:               0.0
 (Enter /gpfs/loomis/apps/avx/software/Gaussian/16-C.01_AVX/g16/l202.exe)
                          Input orientation:                          
 ---------------------------------------------------------------------
 Center     Atomic      Atomic             Coordinates (Angstroms)
 Number     Number       Type             X           Y           Z
 ---------------------------------------------------------------------
      1          6           0        1.604766   -3.258687   -0.000019
      2          6           0        0.999690   -2.005102   -0.000022
      3          6           0        1.750276   -0.792124   -0.000024
      4          6           0        3.160697   -0.880597   -0.000026
      5          6           0        3.756246   -2.136270   -0.000023
      6          6           0        2.996364   -3.320078   -0.000019
      7          1           0        0.999611   -4.167568   -0.000017
      8          1           0        3.762308    0.030551   -0.000029
      9          1           0        4.846445   -2.204813   -0.000024
     10          1           0        3.497071   -4.289919   -0.000016
     11          7           0        0.979067    0.329478   -0.000027
     12         16           0       -0.716214   -1.672093   -0.000023
     13          6           0       -1.346971    1.046741    0.000008
     14          6           0       -2.725858    0.779328    0.000012
     15          6           0       -0.896325    2.449938    0.000034
     16          6           0       -3.650384    1.830256    0.000029
     17          1           0       -3.079679   -0.254165   -0.000002
     18          6           0       -1.865070    3.481786    0.000047
     19          6           0       -3.227648    3.174468    0.000044
     20          1           0       -4.717740    1.600032    0.000029
     21          1           0       -1.507941    4.513436    0.000067
     22          1           0       -3.968227    3.975655    0.000057
     23          6           0       -0.352062    0.043915   -0.000019
     24          8           0        0.373073    2.691376    0.000048
     25          1           0        0.939098    1.625690    0.000015
 ---------------------------------------------------------------------
                    Distance matrix (angstroms):
                    1          2          3          4          5
     1  C    0.000000
     2  C    1.391974   0.000000
     3  C    2.470852   1.426428   0.000000
     4  C    2.841871   2.436075   1.413193   0.000000
     5  C    2.426662   2.759675   2.414674   1.389746   0.000000
     6  C    1.392952   2.390788   2.818384   2.445009   1.406706
     7  H    1.091914   2.162466   3.457908   3.933760   3.424209
     8  H    3.933710   3.431609   2.173722   1.091846   2.166830
     9  H    3.408686   3.851936   3.403228   2.143664   1.092351
    10  H    2.155054   3.384863   3.909715   3.425876   2.169188
    11  N    3.642311   2.334671   1.361159   2.494753   3.713845
    12  S    2.811446   1.747919   2.618762   3.956880   4.496483
    13  C    5.220102   3.849748   3.601994   4.902418   6.014515
    14  C    5.921137   4.651103   4.743968   6.116116   7.107629
    15  C    6.232484   4.841720   4.185147   5.248990   6.532972
    16  C    7.315323   6.027699   6.003665   7.330726   8.401875
    17  H    5.565175   4.439260   4.859821   6.271739   7.090289
    18  C    7.581144   6.189733   5.597949   6.654977   7.947437
    19  C    8.045975   6.685682   6.365028   7.566671   8.773752
    20  H    7.973784   6.759142   6.896204   8.259739   9.261123
    21  H    8.372266   6.984236   6.226149   7.133847   8.481171
    22  H    9.132030   7.774938   7.445333   8.625819   9.850032
    23  C    3.838797   2.454731   2.262473   3.632382   4.650958
    24  O    6.076209   4.738096   3.745858   4.530987   5.895085
    25  H    4.929529   3.631298   2.550261   3.349176   4.699859
                    6          7          8          9         10
     6  C    0.000000
     7  H    2.169162   0.000000
     8  H    3.437060   5.025604   0.000000
     9  H    2.160235   4.318627   2.484393   0.000000
    10  H    1.091467   2.500455   4.328605   2.483643   0.000000
    11  N    4.169982   4.497093   2.799248   4.623770   5.261100
    12  S    4.061907   3.028440   4.791258   5.588109   4.960320
    13  C    6.159031   5.717995   5.209354   6.995070   7.207266
    14  C    7.039101   6.192810   6.531229   8.139095   8.026338
    15  C    6.960324   6.883746   5.249409   7.392301   8.045346
    16  C    8.408638   7.589226   7.628036   9.406269   9.409711
    17  H    6.805742   5.652905   6.847908   8.162627   7.716278
    18  C    8.360556   8.168171   6.601394   8.796696   9.442032
    19  C    8.995413   8.472026   7.664444   9.701941  10.046837
    20  H    9.149584   8.121165   8.624064  10.293225  10.108148
    21  H    9.036188   9.035909   6.918943   9.247329  10.126658
    22  H   10.086290   9.538947   8.678999  10.765530  11.137792
    23  C    4.746410   4.423077   4.114392   5.664032   5.796373
    24  O    6.558905   6.887500   4.308933   6.632023   7.648388
    25  H    5.356581   5.793574   3.242681   5.471757   6.444972
                   11         12         13         14         15
    11  N    0.000000
    12  S    2.623026   0.000000
    13  C    2.434115   2.791042   0.000000
    14  C    3.732135   3.169879   1.404578   0.000000
    15  C    2.830803   4.125964   1.473785   2.477524   0.000000
    16  C    4.866636   4.569005   2.433024   1.399714   2.822914
    17  H    4.100495   2.756173   2.166710   1.092381   3.475515
    18  C    4.245723   5.280373   2.489553   2.836236   1.415337
    19  C    5.078427   5.458614   2.839749   2.447140   2.441313
    20  H    5.836773   5.169044   3.415877   2.154333   3.914786
    21  H    4.867310   6.235992   3.470430   3.927707   2.152231
    22  H    6.145757   6.517105   3.930588   3.429284   3.429927
    23  C    1.361415   1.754221   1.412623   2.485103   2.466813
    24  O    2.438399   4.497378   2.379784   3.641332   1.292155
    25  H    1.296828   3.689909   2.358239   3.761413   2.012004
                   16         17         18         19         20
    16  C    0.000000
    17  H    2.161138   0.000000
    18  C    2.432056   3.928435   0.000000
    19  C    1.409118   3.431825   1.396804   0.000000
    20  H    1.091903   2.474125   3.417414   2.167769   0.000000
    21  H    3.433586   5.019998   1.091715   2.179501   4.334827
    22  H    2.168816   4.322140   2.160365   1.091035   2.491054
    23  C    3.750992   2.743856   3.756082   4.250807   4.634721
    24  O    4.114575   4.538469   2.373612   3.632983   5.206477
    25  H    4.594038   4.436713   3.362804   4.445277   5.656896
                   21         22         23         24         25
    21  H    0.000000
    22  H    2.518376   0.000000
    23  C    4.616565   5.341838   0.000000
    24  O    2.618801   4.527280   2.744972   0.000000
    25  H    3.785112   5.440972   2.041839   1.206677   0.000000
 Symmetry turned off by external request.
 Stoichiometry    C13H9NOS
 Framework group  C1[X(C13H9NOS)]
 Deg. of freedom    69
 Full point group                 C1      NOp   1
 Rotational constants (GHZ):           1.3952041           0.2862417           0.2375132
 Leave Link  202 at Mon Jul 13 14:18:32 2020, MaxMem=  7784628224 cpu:               0.1 elap:               0.0
 (Enter /gpfs/loomis/apps/avx/software/Gaussian/16-C.01_AVX/g16/l301.exe)
 Standard basis: CC-pVDZ (5D, 7F)
 Ernie: Thresh=  0.10000D-02 Tol=  0.10000D-05 Strict=F.
 Ernie:  40 primitive shells out of 425 were deleted.
   273 basis functions,   629 primitive gaussians,   289 cartesian basis functions
    59 alpha electrons       59 beta electrons
       nuclear repulsion energy      1099.7489327726 Hartrees.
 IExCor= 4639 DFT=T Ex+Corr=wB97XD ExCW=0 ScaHFX=  1.000000
 ScaDFX=  1.000000  1.000000  1.000000  1.000000 ScalE2=  1.000000  1.000000
 IRadAn=      5 IRanWt=     -1 IRanGd=            0 ICorTp=0 IEmpDi=121
 HFx  wShort=  0.000000 wLong=  0.200000 cFull=  0.222036 cShort=  0.000000 cLong=  0.777964
 DFx  wShort=  0.000000 wLong=  0.200000 cFull=  0.000000 cShort=  0.000000 cLong=  1.000000
 NAtoms=   25 NActive=   25 NUniq=   25 SFac= 1.00D+00 NAtFMM=   60 NAOKFM=F Big=F
 Integral buffers will be    131072 words long.
 Raffenetti 1 integral format.
 Two-electron integral symmetry is turned off.
 R6Disp:  Grimme-D2 Dispersion energy=       -0.0138942853 Hartrees.
 Nuclear repulsion after empirical dispersion term =     1099.7350384872 Hartrees.
 ------------------------------------------------------------------------------
 Polarizable Continuum Model (PCM)
 =================================
 Model                : PCM.
 Atomic radii         : UFF (Universal Force Field).
 Polarization charges : Total charges.
 Charge compensation  : None.
 Solution method      : On-the-fly selection.
 Cavity type          : Scaled VdW (van der Waals Surface) (Alpha=1.100).
 Cavity algorithm     : GePol (No added spheres)
                        Default sphere list used, NSphG=   25.
                        Lebedev-Laikov grids with approx.  5.0 points / Ang**2.
                        Smoothing algorithm: York/Karplus (Gamma=1.0000).
                        Polarization charges: spherical gaussians, with
                                              point-specific exponents (IZeta= 3).
                        Self-potential: point-specific (ISelfS= 7).
                        Self-field    : sphere-specific E.n sum rule (ISelfD= 2).
 1st derivatives      : Analytical E(r).r(x)/FMM algorithm (CHGder, D1EAlg=3).
                        Cavity 1st derivative terms included.
 Solvent              : CarbonTetraChloride, Eps=   2.228000 Eps(inf)=   2.131892
 ------------------------------------------------------------------------------
 GePol: Number of generator spheres                  =      25
 GePol: Total number of spheres                      =      25
 GePol: Number of exposed spheres                    =      25 (100.00%)
 GePol: Number of points                             =    2190
 GePol: Average weight of points                     =       0.12
 GePol: Minimum weight of points                     =   0.65D-10
 GePol: Maximum weight of points                     =    0.20577
 GePol: Number of points with low weight             =     150
 GePol: Fraction of low-weight points (<1% of avg)   =       6.85%
 GePol: Cavity surface area                          =    272.086 Ang**2
 GePol: Cavity volume                                =    292.049 Ang**3
 Leave Link  301 at Mon Jul 13 14:18:32 2020, MaxMem=  7784628224 cpu:               1.0 elap:               0.1
 (Enter /gpfs/loomis/apps/avx/software/Gaussian/16-C.01_AVX/g16/l302.exe)
 NPDir=0 NMtPBC=     1 NCelOv=     1 NCel=       1 NClECP=     1 NCelD=      1
         NCelK=      1 NCelE2=     1 NClLst=     1 CellRange=     0.0.
 One-electron integrals computed using PRISM.
 NBasis=   273 RedAO= T EigKep=  3.13D-04  NBF=   273
 NBsUse=   273 1.00D-06 EigRej= -1.00D+00 NBFU=   273
 Precomputing XC quadrature grid using
 IXCGrd= 4 IRadAn=           5 IRanWt=          -1 IRanGd=           0 AccXCQ= 0.00D+00.
 Generated NRdTot=       0 NPtTot=           0 NUsed=           0 NTot=          32
 NSgBfM=   288   288   288   288   288 MxSgAt=    25 MxSgA2=    25.
 Leave Link  302 at Mon Jul 13 14:18:32 2020, MaxMem=  7784628224 cpu:               3.1 elap:               0.4
 (Enter /gpfs/loomis/apps/avx/software/Gaussian/16-C.01_AVX/g16/l303.exe)
 DipDrv:  MaxL=1.
 Leave Link  303 at Mon Jul 13 14:18:32 2020, MaxMem=  7784628224 cpu:               0.5 elap:               0.1
 (Enter /gpfs/loomis/apps/avx/software/Gaussian/16-C.01_AVX/g16/l308.exe)
 Leave Link  308 at Mon Jul 13 14:18:33 2020, MaxMem=  7784628224 cpu:               0.5 elap:               0.1
 (Enter /gpfs/loomis/apps/avx/software/Gaussian/16-C.01_AVX/g16/l401.exe)
 ExpMin= 1.22D-01 ExpMax= 1.11D+05 ExpMxC= 1.07D+03 IAcc=3 IRadAn=         5 AccDes= 0.00D+00
 Harris functional with IExCor= 4639 and IRadAn=       5 diagonalized for initial guess.
 HarFok:  IExCor= 4639 AccDes= 0.00D+00 IRadAn=         5 IDoV= 1 UseB2=F ITyADJ=14
 ICtDFT=  3500011 ScaDFX=  1.000000  1.000000  1.000000  1.000000
 FoFCou: FMM=F IPFlag=           0 FMFlag=      100000 FMFlg1=           0
         NFxFlg=           0 DoJE=T BraDBF=F KetDBF=T FulRan=T
         wScrn=  0.000000 ICntrl=       500 IOpCl=  0 I1Cent=   200000004 NGrid=           0
         NMat0=    1 NMatS0=      1 NMatT0=    0 NMatD0=    1 NMtDS0=    0 NMtDT0=    0
 Symmetry not used in FoFCou.
 Harris En= -994.458524829626    
 JPrj=0 DoOrth=F DoCkMO=F.
 Leave Link  401 at Mon Jul 13 14:18:34 2020, MaxMem=  7784628224 cpu:              13.9 elap:               1.4
 (Enter /gpfs/loomis/apps/avx/software/Gaussian/16-C.01_AVX/g16/l502.exe)
 Two-electron integral symmetry not used.
 Closed shell SCF:
 Using DIIS extrapolation, IDIIS=  1040.
 NGot=  7784628224 LenX=  7784455381 LenY=  7784371419
 Requested convergence on RMS density matrix=1.00D-08 within 128 cycles.
 Requested convergence on MAX density matrix=1.00D-06.
 Requested convergence on             energy=1.00D-06.
 No special actions if energy rises.
 Fock matrices will be formed incrementally for  20 cycles.

 Cycle   1  Pass 1  IDiag  1:
 FoFJK:  IHMeth= 1 ICntrl=       0 DoSepK=T KAlg= 0 I1Cent=           0 FoldK=F
 IRaf=         1 NMat=       1 IRICut=       1 DoRegI=T DoRafI=F ISym2E= 0 IDoP0=0 IntGTp=1.
 FoFCou: FMM=F IPFlag=           0 FMFlag=      100000 FMFlg1=           0
         NFxFlg=           0 DoJE=T BraDBF=F KetDBF=F FulRan=T
         wScrn=  0.000000 ICntrl=       500 IOpCl=  0 I1Cent=           0 NGrid=           0
         NMat0=    1 NMatS0=      1 NMatT0=    0 NMatD0=    1 NMtDS0=    0 NMtDT0=    0
 Symmetry not used in FoFCou.
 Inv3:  Mode=1 IEnd=    14388300.
 Iteration    1 A*A^-1 deviation from unit magnitude is 1.18D-14 for   2184.
 Iteration    1 A*A^-1 deviation from orthogonality  is 8.24D-15 for   2184    130.
 Iteration    1 A^-1*A deviation from unit magnitude is 1.18D-14 for   2184.
 Iteration    1 A^-1*A deviation from orthogonality  is 1.46D-15 for   1400   1000.
 E= -1028.57468330465    
 DIIS: error= 3.62D-02 at cycle   1 NSaved=   1.
 NSaved= 1 IEnMin= 1 EnMin= -1028.57468330465     IErMin= 1 ErrMin= 3.62D-02
 ErrMax= 3.62D-02  0.00D+00 EMaxC= 1.00D-01 BMatC= 3.92D-01 BMatP= 3.92D-01
 IDIUse=3 WtCom= 6.38D-01 WtEn= 3.62D-01
 Coeff-Com:  0.100D+01
 Coeff-En:   0.100D+01
 Coeff:      0.100D+01
 Gap=     0.343 Goal=   None    Shift=    0.000
 GapD=    0.343 DampG=1.000 DampE=0.500 DampFc=0.5000 IDamp=-1.
 Damping current iteration by 5.00D-01
 RMSDP=3.53D-03 MaxDP=2.24D-01              OVMax= 1.76D-01

 Cycle   2  Pass 1  IDiag  1:
 RMSU=  1.76D-03    CP:  9.93D-01
 E= -1028.69249069753     Delta-E=       -0.117807392884 Rises=F Damp=T
 DIIS: error= 1.21D-02 at cycle   2 NSaved=   2.
 NSaved= 2 IEnMin= 2 EnMin= -1028.69249069753     IErMin= 2 ErrMin= 1.21D-02
 ErrMax= 1.21D-02  0.00D+00 EMaxC= 1.00D-01 BMatC= 5.79D-02 BMatP= 3.92D-01
 IDIUse=3 WtCom= 8.79D-01 WtEn= 1.21D-01
 Coeff-Com: -0.288D+00 0.129D+01
 Coeff-En:   0.000D+00 0.100D+01
 Coeff:     -0.254D+00 0.125D+01
 Gap=     0.302 Goal=   None    Shift=    0.000
 RMSDP=1.14D-03 MaxDP=2.44D-02 DE=-1.18D-01 OVMax= 1.15D-01

 Cycle   3  Pass 1  IDiag  1:
 RMSU=  1.09D-03    CP:  9.91D-01  1.20D+00
 E= -1028.79712421400     Delta-E=       -0.104633516464 Rises=F Damp=F
 DIIS: error= 5.77D-03 at cycle   3 NSaved=   3.
 NSaved= 3 IEnMin= 3 EnMin= -1028.79712421400     IErMin= 3 ErrMin= 5.77D-03
 ErrMax= 5.77D-03  0.00D+00 EMaxC= 1.00D-01 BMatC= 1.38D-02 BMatP= 5.79D-02
 IDIUse=3 WtCom= 9.42D-01 WtEn= 5.77D-02
 Coeff-Com: -0.201D+00 0.483D+00 0.718D+00
 Coeff-En:   0.000D+00 0.000D+00 0.100D+01
 Coeff:     -0.189D+00 0.455D+00 0.734D+00
 Gap=     0.259 Goal=   None    Shift=    0.000
 RMSDP=5.31D-04 MaxDP=1.75D-02 DE=-1.05D-01 OVMax= 3.80D-02

 Cycle   4  Pass 1  IDiag  1:
 RMSU=  4.18D-04    CP:  9.89D-01  1.35D+00  8.41D-01
 E= -1028.80990445899     Delta-E=       -0.012780244990 Rises=F Damp=F
 DIIS: error= 2.08D-03 at cycle   4 NSaved=   4.
 NSaved= 4 IEnMin= 4 EnMin= -1028.80990445899     IErMin= 4 ErrMin= 2.08D-03
 ErrMax= 2.08D-03  0.00D+00 EMaxC= 1.00D-01 BMatC= 1.72D-03 BMatP= 1.38D-02
 IDIUse=3 WtCom= 9.79D-01 WtEn= 2.08D-02
 Coeff-Com: -0.714D-01 0.142D+00 0.351D+00 0.579D+00
 Coeff-En:   0.000D+00 0.000D+00 0.000D+00 0.100D+01
 Coeff:     -0.699D-01 0.139D+00 0.343D+00 0.588D+00
 Gap=     0.257 Goal=   None    Shift=    0.000
 RMSDP=1.69D-04 MaxDP=9.98D-03 DE=-1.28D-02 OVMax= 1.39D-02

 Cycle   5  Pass 1  IDiag  1:
 RMSU=  1.04D-04    CP:  9.89D-01  1.36D+00  9.12D-01  7.44D-01
 E= -1028.81167862641     Delta-E=       -0.001774167419 Rises=F Damp=F
 DIIS: error= 4.16D-04 at cycle   5 NSaved=   5.
 NSaved= 5 IEnMin= 5 EnMin= -1028.81167862641     IErMin= 5 ErrMin= 4.16D-04
 ErrMax= 4.16D-04  0.00D+00 EMaxC= 1.00D-01 BMatC= 5.18D-05 BMatP= 1.72D-03
 IDIUse=3 WtCom= 9.96D-01 WtEn= 4.16D-03
 Coeff-Com: -0.224D-02-0.150D-02 0.380D-01 0.162D+00 0.804D+00
 Coeff-En:   0.000D+00 0.000D+00 0.000D+00 0.000D+00 0.100D+01
 Coeff:     -0.223D-02-0.150D-02 0.378D-01 0.161D+00 0.805D+00
 Gap=     0.257 Goal=   None    Shift=    0.000
 RMSDP=5.07D-05 MaxDP=1.53D-03 DE=-1.77D-03 OVMax= 4.69D-03

 Cycle   6  Pass 1  IDiag  1:
 RMSU=  3.26D-05    CP:  9.89D-01  1.36D+00  9.30D-01  8.22D-01  1.07D+00
 E= -1028.81178334425     Delta-E=       -0.000104717843 Rises=F Damp=F
 DIIS: error= 1.68D-04 at cycle   6 NSaved=   6.
 NSaved= 6 IEnMin= 6 EnMin= -1028.81178334425     IErMin= 6 ErrMin= 1.68D-04
 ErrMax= 1.68D-04  0.00D+00 EMaxC= 1.00D-01 BMatC= 9.58D-06 BMatP= 5.18D-05
 IDIUse=3 WtCom= 9.98D-01 WtEn= 1.68D-03
 Coeff-Com:  0.142D-01-0.295D-01-0.549D-01-0.546D-01 0.234D+00 0.891D+00
 Coeff-En:   0.000D+00 0.000D+00 0.000D+00 0.000D+00 0.000D+00 0.100D+01
 Coeff:      0.142D-01-0.295D-01-0.548D-01-0.545D-01 0.234D+00 0.891D+00
 Gap=     0.258 Goal=   None    Shift=    0.000
 RMSDP=2.85D-05 MaxDP=1.46D-03 DE=-1.05D-04 OVMax= 2.76D-03

 Cycle   7  Pass 1  IDiag  1:
 RMSU=  1.50D-05    CP:  9.89D-01  1.37D+00  9.40D-01  8.49D-01  1.23D+00
                    CP:  1.22D+00
 E= -1028.81180901439     Delta-E=       -0.000025670143 Rises=F Damp=F
 DIIS: error= 1.26D-04 at cycle   7 NSaved=   7.
 NSaved= 7 IEnMin= 7 EnMin= -1028.81180901439     IErMin= 7 ErrMin= 1.26D-04
 ErrMax= 1.26D-04  0.00D+00 EMaxC= 1.00D-01 BMatC= 2.32D-06 BMatP= 9.58D-06
 IDIUse=3 WtCom= 9.99D-01 WtEn= 1.26D-03
 Coeff-Com:  0.672D-02-0.129D-01-0.300D-01-0.477D-01-0.944D-02 0.408D+00
 Coeff-Com:  0.686D+00
 Coeff-En:   0.000D+00 0.000D+00 0.000D+00 0.000D+00 0.000D+00 0.000D+00
 Coeff-En:   0.100D+01
 Coeff:      0.671D-02-0.129D-01-0.300D-01-0.476D-01-0.943D-02 0.407D+00
 Coeff:      0.686D+00
 Gap=     0.258 Goal=   None    Shift=    0.000
 RMSDP=1.04D-05 MaxDP=4.60D-04 DE=-2.57D-05 OVMax= 1.21D-03

 Cycle   8  Pass 1  IDiag  1:
 RMSU=  6.39D-06    CP:  9.89D-01  1.37D+00  9.42D-01  8.56D-01  1.27D+00
                    CP:  1.41D+00  1.10D+00
 E= -1028.81181351592     Delta-E=       -0.000004501521 Rises=F Damp=F
 DIIS: error= 4.25D-05 at cycle   8 NSaved=   8.
 NSaved= 8 IEnMin= 8 EnMin= -1028.81181351592     IErMin= 8 ErrMin= 4.25D-05
 ErrMax= 4.25D-05  0.00D+00 EMaxC= 1.00D-01 BMatC= 2.94D-07 BMatP= 2.32D-06
 IDIUse=1 WtCom= 1.00D+00 WtEn= 0.00D+00
 Coeff-Com: -0.109D-02 0.245D-02 0.349D-02 0.441D-03-0.401D-01-0.681D-01
 Coeff-Com:  0.206D+00 0.897D+00
 Coeff:     -0.109D-02 0.245D-02 0.349D-02 0.441D-03-0.401D-01-0.681D-01
 Coeff:      0.206D+00 0.897D+00
 Gap=     0.258 Goal=   None    Shift=    0.000
 RMSDP=5.09D-06 MaxDP=1.61D-04 DE=-4.50D-06 OVMax= 7.42D-04

 Cycle   9  Pass 1  IDiag  1:
 RMSU=  2.35D-06    CP:  9.89D-01  1.37D+00  9.42D-01  8.55D-01  1.28D+00
                    CP:  1.49D+00  1.32D+00  1.19D+00
 E= -1028.81181440876     Delta-E=       -0.000000892840 Rises=F Damp=F
 DIIS: error= 1.75D-05 at cycle   9 NSaved=   9.
 NSaved= 9 IEnMin= 9 EnMin= -1028.81181440876     IErMin= 9 ErrMin= 1.75D-05
 ErrMax= 1.75D-05  0.00D+00 EMaxC= 1.00D-01 BMatC= 4.48D-08 BMatP= 2.94D-07
 IDIUse=1 WtCom= 1.00D+00 WtEn= 0.00D+00
 Coeff-Com: -0.114D-02 0.227D-02 0.477D-02 0.643D-02-0.106D-01-0.808D-01
 Coeff-Com: -0.230D-01 0.267D+00 0.835D+00
 Coeff:     -0.114D-02 0.227D-02 0.477D-02 0.643D-02-0.106D-01-0.808D-01
 Coeff:     -0.230D-01 0.267D+00 0.835D+00
 Gap=     0.258 Goal=   None    Shift=    0.000
 RMSDP=2.29D-06 MaxDP=6.14D-05 DE=-8.93D-07 OVMax= 3.72D-04

 Cycle  10  Pass 1  IDiag  1:
 RMSU=  1.10D-06    CP:  9.89D-01  1.37D+00  9.42D-01  8.55D-01  1.28D+00
                    CP:  1.52D+00  1.41D+00  1.35D+00  1.23D+00
 E= -1028.81181458889     Delta-E=       -0.000000180139 Rises=F Damp=F
 DIIS: error= 8.07D-06 at cycle  10 NSaved=  10.
 NSaved=10 IEnMin=10 EnMin= -1028.81181458889     IErMin=10 ErrMin= 8.07D-06
 ErrMax= 8.07D-06  0.00D+00 EMaxC= 1.00D-01 BMatC= 1.28D-08 BMatP= 4.48D-08
 IDIUse=1 WtCom= 1.00D+00 WtEn= 0.00D+00
 Coeff-Com: -0.165D-03 0.275D-03 0.982D-03 0.241D-02 0.453D-02-0.188D-01
 Coeff-Com: -0.477D-01-0.101D+00 0.317D+00 0.842D+00
 Coeff:     -0.165D-03 0.275D-03 0.982D-03 0.241D-02 0.453D-02-0.188D-01
 Coeff:     -0.477D-01-0.101D+00 0.317D+00 0.842D+00
 Gap=     0.258 Goal=   None    Shift=    0.000
 RMSDP=1.29D-06 MaxDP=3.45D-05 DE=-1.80D-07 OVMax= 2.12D-04

 Cycle  11  Pass 1  IDiag  1:
 RMSU=  5.03D-07    CP:  9.89D-01  1.37D+00  9.42D-01  8.55D-01  1.28D+00
                    CP:  1.53D+00  1.44D+00  1.44D+00  1.54D+00  1.21D+00
 E= -1028.81181463852     Delta-E=       -0.000000049627 Rises=F Damp=F
 DIIS: error= 4.45D-06 at cycle  11 NSaved=  11.
 NSaved=11 IEnMin=11 EnMin= -1028.81181463852     IErMin=11 ErrMin= 4.45D-06
 ErrMax= 4.45D-06  0.00D+00 EMaxC= 1.00D-01 BMatC= 1.95D-09 BMatP= 1.28D-08
 IDIUse=1 WtCom= 1.00D+00 WtEn= 0.00D+00
 Coeff-Com:  0.232D-03-0.479D-03-0.853D-03-0.777D-03 0.424D-02 0.105D-01
 Coeff-Com: -0.457D-02-0.845D-01-0.658D-01 0.214D+00 0.928D+00
 Coeff:      0.232D-03-0.479D-03-0.853D-03-0.777D-03 0.424D-02 0.105D-01
 Coeff:     -0.457D-02-0.845D-01-0.658D-01 0.214D+00 0.928D+00
 Gap=     0.258 Goal=   None    Shift=    0.000
 RMSDP=5.76D-07 MaxDP=1.58D-05 DE=-4.96D-08 OVMax= 1.10D-04

 Cycle  12  Pass 1  IDiag  1:
 RMSU=  2.02D-07    CP:  9.89D-01  1.37D+00  9.42D-01  8.56D-01  1.28D+00
                    CP:  1.54D+00  1.45D+00  1.46D+00  1.69D+00  1.50D+00
                    CP:  1.18D+00
 E= -1028.81181464846     Delta-E=       -0.000000009943 Rises=F Damp=F
 DIIS: error= 1.24D-06 at cycle  12 NSaved=  12.
 NSaved=12 IEnMin=12 EnMin= -1028.81181464846     IErMin=12 ErrMin= 1.24D-06
 ErrMax= 1.24D-06  0.00D+00 EMaxC= 1.00D-01 BMatC= 5.56D-10 BMatP= 1.95D-09
 IDIUse=1 WtCom= 1.00D+00 WtEn= 0.00D+00
 Coeff-Com:  0.116D-03-0.227D-03-0.502D-03-0.795D-03 0.959D-03 0.761D-02
 Coeff-Com:  0.905D-02-0.145D-01-0.955D-01-0.125D+00 0.350D+00 0.869D+00
 Coeff:      0.116D-03-0.227D-03-0.502D-03-0.795D-03 0.959D-03 0.761D-02
 Coeff:      0.905D-02-0.145D-01-0.955D-01-0.125D+00 0.350D+00 0.869D+00
 Gap=     0.258 Goal=   None    Shift=    0.000
 RMSDP=3.08D-07 MaxDP=7.04D-06 DE=-9.94D-09 OVMax= 4.93D-05

 Cycle  13  Pass 1  IDiag  1:
 RMSU=  8.12D-08    CP:  9.89D-01  1.37D+00  9.42D-01  8.56D-01  1.28D+00
                    CP:  1.54D+00  1.46D+00  1.48D+00  1.76D+00  1.63D+00
                    CP:  1.47D+00  1.15D+00
 E= -1028.81181465044     Delta-E=       -0.000000001976 Rises=F Damp=F
 DIIS: error= 5.33D-07 at cycle  13 NSaved=  13.
 NSaved=13 IEnMin=13 EnMin= -1028.81181465044     IErMin=13 ErrMin= 5.33D-07
 ErrMax= 5.33D-07  0.00D+00 EMaxC= 1.00D-01 BMatC= 4.35D-11 BMatP= 5.56D-10
 IDIUse=1 WtCom= 1.00D+00 WtEn= 0.00D+00
 Coeff-Com: -0.122D-06 0.348D-05-0.217D-04-0.130D-03-0.211D-03 0.680D-03
 Coeff-Com:  0.346D-02 0.774D-02-0.146D-01-0.667D-01-0.274D-01 0.242D+00
 Coeff-Com:  0.855D+00
 Coeff:     -0.122D-06 0.348D-05-0.217D-04-0.130D-03-0.211D-03 0.680D-03
 Coeff:      0.346D-02 0.774D-02-0.146D-01-0.667D-01-0.274D-01 0.242D+00
 Coeff:      0.855D+00
 Gap=     0.258 Goal=   None    Shift=    0.000
 RMSDP=6.91D-08 MaxDP=1.93D-06 DE=-1.98D-09 OVMax= 1.04D-05

 Cycle  14  Pass 1  IDiag  1:
 RMSU=  3.14D-08    CP:  9.89D-01  1.37D+00  9.42D-01  8.56D-01  1.28D+00
                    CP:  1.54D+00  1.46D+00  1.48D+00  1.78D+00  1.66D+00
                    CP:  1.53D+00  1.30D+00  1.10D+00
 E= -1028.81181465058     Delta-E=       -0.000000000136 Rises=F Damp=F
 DIIS: error= 1.40D-07 at cycle  14 NSaved=  14.
 NSaved=14 IEnMin=14 EnMin= -1028.81181465058     IErMin=14 ErrMin= 1.40D-07
 ErrMax= 1.40D-07  0.00D+00 EMaxC= 1.00D-01 BMatC= 9.57D-12 BMatP= 4.35D-11
 IDIUse=1 WtCom= 1.00D+00 WtEn= 0.00D+00
 Coeff-Com: -0.123D-04 0.255D-04 0.446D-04 0.250D-04-0.179D-03-0.465D-03
 Coeff-Com:  0.630D-03 0.482D-02 0.347D-02-0.167D-01-0.470D-01 0.123D-01
 Coeff-Com:  0.376D+00 0.667D+00
 Coeff:     -0.123D-04 0.255D-04 0.446D-04 0.250D-04-0.179D-03-0.465D-03
 Coeff:      0.630D-03 0.482D-02 0.347D-02-0.167D-01-0.470D-01 0.123D-01
 Coeff:      0.376D+00 0.667D+00
 Gap=     0.258 Goal=   None    Shift=    0.000
 RMSDP=1.99D-08 MaxDP=5.55D-07 DE=-1.36D-10 OVMax= 1.94D-06

 Cycle  15  Pass 1  IDiag  1:
 RMSU=  1.24D-08    CP:  9.89D-01  1.37D+00  9.42D-01  8.56D-01  1.28D+00
                    CP:  1.54D+00  1.46D+00  1.48D+00  1.78D+00  1.66D+00
                    CP:  1.54D+00  1.33D+00  1.22D+00  9.31D-01
 E= -1028.81181465060     Delta-E=       -0.000000000019 Rises=F Damp=F
 DIIS: error= 7.57D-08 at cycle  15 NSaved=  15.
 NSaved=15 IEnMin=15 EnMin= -1028.81181465060     IErMin=15 ErrMin= 7.57D-08
 ErrMax= 7.57D-08  0.00D+00 EMaxC= 1.00D-01 BMatC= 9.74D-13 BMatP= 9.57D-12
 IDIUse=1 WtCom= 1.00D+00 WtEn= 0.00D+00
 Coeff-Com: -0.366D-05 0.691D-05 0.186D-04 0.314D-04-0.196D-04-0.323D-03
 Coeff-Com: -0.538D-03-0.935D-04 0.419D-02 0.820D-02-0.830D-02-0.448D-01
 Coeff-Com: -0.411D-01 0.207D+00 0.875D+00
 Coeff:     -0.366D-05 0.691D-05 0.186D-04 0.314D-04-0.196D-04-0.323D-03
 Coeff:     -0.538D-03-0.935D-04 0.419D-02 0.820D-02-0.830D-02-0.448D-01
 Coeff:     -0.411D-01 0.207D+00 0.875D+00
 Gap=     0.258 Goal=   None    Shift=    0.000
 RMSDP=8.52D-09 MaxDP=1.84D-07 DE=-1.89D-11 OVMax= 9.65D-07

 Error on total polarization charges =  0.00845
 SCF Done:  E(RwB97XD) =  -1028.81181465     A.U. after   15 cycles
            NFock= 15  Conv=0.85D-08     -V/T= 2.0050
 KE= 1.023683633063D+03 PE=-4.611555557435D+03 EE= 1.459325071234D+03
 Leave Link  502 at Mon Jul 13 14:19:57 2020, MaxMem=  7784628224 cpu:             823.1 elap:              83.0
 (Enter /gpfs/loomis/apps/avx/software/Gaussian/16-C.01_AVX/g16/l801.exe)
 DoSCS=F DFT=T ScalE2(SS,OS)=  1.000000  1.000000
 ExpMin= 1.22D-01 ExpMax= 1.11D+05 ExpMxC= 1.07D+03 IAcc=3 IRadAn=         5 AccDes= 0.00D+00
 HarFok:  IExCor=  205 AccDes= 0.00D+00 IRadAn=         5 IDoV=-2 UseB2=F ITyADJ=14
 ICtDFT= 12500011 ScaDFX=  1.000000  1.000000  1.000000  1.000000
 Largest valence mixing into a core orbital is  9.47D-05
 Largest core mixing into a valence orbital is  3.04D-05
 Range of M.O.s used for correlation:    21   273
 NBasis=   273 NAE=    59 NBE=    59 NFC=    20 NFV=     0
 NROrb=    253 NOA=    39 NOB=    39 NVA=   214 NVB=   214

 **** Warning!!: The largest alpha MO coefficient is  0.11073308D+02

 Leave Link  801 at Mon Jul 13 14:19:57 2020, MaxMem=  7784628224 cpu:               0.9 elap:               0.1
 (Enter /gpfs/loomis/apps/avx/software/Gaussian/16-C.01_AVX/g16/l914.exe)
 RHF ground state
 Keep R1, R2, and R3 ints in memory in canonical form, NReq=4262515490.
 FoFCou: FMM=F IPFlag=           0 FMFlag=           0 FMFlg1=           0
         NFxFlg=           0 DoJE=F BraDBF=F KetDBF=F FulRan=T
         wScrn=  0.000000 ICntrl=       600 IOpCl=  0 I1Cent=           0 NGrid=           0
         NMat0=    1 NMatS0=  37401 NMatT0=    0 NMatD0=    1 NMtDS0=    0 NMtDT0=    0
 Symmetry not used in FoFCou.
 Two-electron integral symmetry not used.
 MDV=  7784628224 DFT=T DoStab=F Mixed=T DoRPA=T DoScal=F NonHer=T
 NEqPCM:  Using equilibrium solvation (IEInf=0, Eps=   2.2280, EpsInf=   2.1319)
 Making orbital integer symmetry assigments:
    12 initial guesses have been made.
 Convergence on wavefunction:    0.000001000000000
 Davidson Disk Diagonalization:  ConvIn= 1.00D-06 SkipCon=T Conv= 1.00D-06.
 Max sub-space:  2000 roots to seek:    12 dimension of matrix:        16692
 Iteration     1 Dimension    12 NMult     0 NNew     12
 CISAX will form    12 AO SS matrices at one time.
 NMat=    12 NSing=    12 JSym2X= 0.
 New state      3 was old state      5
 Excitation Energies [eV] at current iteration:
 Root      1 :     3.825311422115562
 Root      2 :     4.939494589625712
 Root      3 :     4.941742020920890
 Root      4 :     5.184036441772510
 Root      5 :     5.890064315056434
 Root      6 :     6.129165781889762
 Root      7 :     6.303234320460860
 Root      8 :     6.411734219227851
 Root      9 :     6.871304166471553
 Root     10 :     7.108541312482481
 Root     11 :     7.229198979448688
 Root     12 :     7.943399539073367
 Iteration     2 Dimension    18 NMult    12 NNew      6
 CISAX will form     6 AO SS matrices at one time.
 NMat=     6 NSing=     6 JSym2X= 0.
 Root      1 not converged, maximum delta is    0.044186459843321
 Root      2 not converged, maximum delta is    0.086341263322227
 Root      3 not converged, maximum delta is    0.068770371661919
 Excitation Energies [eV] at current iteration:
 Root      1 :     3.336780156601068   Change is   -0.488531265514494
 Root      2 :     4.404388256681941   Change is   -0.535106332943770
 Root      3 :     4.733484232846652   Change is   -0.208257788074238
 Iteration     3 Dimension    24 NMult    18 NNew      6
 CISAX will form     6 AO SS matrices at one time.
 NMat=     6 NSing=     6 JSym2X= 0.
 Root      1 not converged, maximum delta is    0.020949874335205
 Root      2 not converged, maximum delta is    0.021582715890409
 Root      3 not converged, maximum delta is    0.027463677417299
 Excitation Energies [eV] at current iteration:
 Root      1 :     3.301985917731751   Change is   -0.034794238869316
 Root      2 :     4.373041340690649   Change is   -0.031346915991292
 Root      3 :     4.717490714431717   Change is   -0.015993518414935
 Iteration     4 Dimension    30 NMult    24 NNew      6
 CISAX will form     6 AO SS matrices at one time.
 NMat=     6 NSing=     6 JSym2X= 0.
 Root      1 not converged, maximum delta is    0.007862982969936
 Root      2 not converged, maximum delta is    0.009672473350060
 Root      3 not converged, maximum delta is    0.009062507794525
 Excitation Energies [eV] at current iteration:
 Root      1 :     3.297085793064651   Change is   -0.004900124667101
 Root      2 :     4.367505161232796   Change is   -0.005536179457854
 Root      3 :     4.715997159572777   Change is   -0.001493554858941
 Iteration     5 Dimension    36 NMult    30 NNew      6
 CISAX will form     6 AO SS matrices at one time.
 NMat=     6 NSing=     6 JSym2X= 0.
 Root      1 not converged, maximum delta is    0.003117459230370
 Root      2 not converged, maximum delta is    0.003000300861360
 Root      3 not converged, maximum delta is    0.001950499219068
 Excitation Energies [eV] at current iteration:
 Root      1 :     3.296593367564083   Change is   -0.000492425500568
 Root      2 :     4.366939706343946   Change is   -0.000565454888849
 Root      3 :     4.715861516167352   Change is   -0.000135643405425
 Iteration     6 Dimension    42 NMult    36 NNew      6
 CISAX will form     6 AO SS matrices at one time.
 NMat=     6 NSing=     6 JSym2X= 0.
 Root      1 not converged, maximum delta is    0.000585209018406
 Root      2 not converged, maximum delta is    0.001196480343319
 Root      3 not converged, maximum delta is    0.000321839653406
 Excitation Energies [eV] at current iteration:
 Root      1 :     3.296540808439695   Change is   -0.000052559124388
 Root      2 :     4.366867120783092   Change is   -0.000072585560855
 Root      3 :     4.715849940577393   Change is   -0.000011575589959
 Iteration     7 Dimension    48 NMult    42 NNew      6
 CISAX will form     6 AO SS matrices at one time.
 NMat=     6 NSing=     6 JSym2X= 0.
 Root      1 not converged, maximum delta is    0.000203233993587
 Root      2 not converged, maximum delta is    0.000950262216123
 Root      3 not converged, maximum delta is    0.000094697195349
 Excitation Energies [eV] at current iteration:
 Root      1 :     3.296537001786984   Change is   -0.000003806652711
 Root      2 :     4.366855677589390   Change is   -0.000011443193702
 Root      3 :     4.715849253707527   Change is   -0.000000686869867
 Iteration     8 Dimension    54 NMult    48 NNew      6
 CISAX will form     6 AO SS matrices at one time.
 NMat=     6 NSing=     6 JSym2X= 0.
 Root      1 not converged, maximum delta is    0.000032885934949
 Root      2 not converged, maximum delta is    0.000307073304624
 Root      3 not converged, maximum delta is    0.000033507924119
 Excitation Energies [eV] at current iteration:
 Root      1 :     3.296536704927629   Change is   -0.000000296859355
 Root      2 :     4.366854281040080   Change is   -0.000001396549310
 Root      3 :     4.715849195274453   Change is   -0.000000058433074
 Iteration     9 Dimension    60 NMult    54 NNew      6
 CISAX will form     6 AO SS matrices at one time.
 NMat=     6 NSing=     6 JSym2X= 0.
 Root      1 not converged, maximum delta is    0.000009246834670
 Root      2 not converged, maximum delta is    0.000129050004587
 Root      3 not converged, maximum delta is    0.000022744899900
 Excitation Energies [eV] at current iteration:
 Root      1 :     3.296536687714666   Change is   -0.000000017212963
 Root      2 :     4.366854047295204   Change is   -0.000000233744876
 Root      3 :     4.715849189206800   Change is   -0.000000006067653
 Iteration    10 Dimension    66 NMult    60 NNew      6
 CISAX will form     6 AO SS matrices at one time.
 NMat=     6 NSing=     6 JSym2X= 0.
 Root      1 not converged, maximum delta is    0.000001927863708
 Root      2 not converged, maximum delta is    0.000047708902442
 Root      3 not converged, maximum delta is    0.000031288907770
 Excitation Energies [eV] at current iteration:
 Root      1 :     3.296536686718586   Change is   -0.000000000996080
 Root      2 :     4.366854011331725   Change is   -0.000000035963479
 Root      3 :     4.715849188296526   Change is   -0.000000000910274
 Iteration    11 Dimension    72 NMult    66 NNew      6
 CISAX will form     6 AO SS matrices at one time.
 NMat=     6 NSing=     6 JSym2X= 0.
 Root      1 has converged.
 Root      2 not converged, maximum delta is    0.000007605646234
 Root      3 not converged, maximum delta is    0.000021522882088
 Excitation Energies [eV] at current iteration:
 Root      1 :     3.296536686657564   Change is   -0.000000000061022
 Root      2 :     4.366854008231737   Change is   -0.000000003099988
 Root      3 :     4.715849188061105   Change is   -0.000000000235421
 Iteration    12 Dimension    76 NMult    72 NNew      4
 CISAX will form     4 AO SS matrices at one time.
 NMat=     4 NSing=     4 JSym2X= 0.
 Root      1 has converged.
 Root      2 has converged.
 Root      3 not converged, maximum delta is    0.000006940575548
 Excitation Energies [eV] at current iteration:
 Root      1 :     3.296536686657289   Change is   -0.000000000000274
 Root      2 :     4.366854008056717   Change is   -0.000000000175020
 Root      3 :     4.715849188011528   Change is   -0.000000000049577
 Iteration    13 Dimension    78 NMult    76 NNew      2
 CISAX will form     2 AO SS matrices at one time.
 NMat=     2 NSing=     2 JSym2X= 0.
 Root      1 has converged.
 Root      2 has converged.
 Root      3 not converged, maximum delta is    0.000001401721292
 Excitation Energies [eV] at current iteration:
 Root      1 :     3.296536686657289   Change is    0.000000000000000
 Root      2 :     4.366854008055927   Change is   -0.000000000000790
 Root      3 :     4.715849188003440   Change is   -0.000000000008088
 Iteration    14 Dimension    80 NMult    78 NNew      2
 CISAX will form     2 AO SS matrices at one time.
 NMat=     2 NSing=     2 JSym2X= 0.
 Root      1 has converged.
 Root      2 has converged.
 Root      3 has converged.
 Excitation Energies [eV] at current iteration:
 Root      1 :     3.296536686657314   Change is    0.000000000000025
 Root      2 :     4.366854008055945   Change is    0.000000000000018
 Root      3 :     4.715849188001522   Change is   -0.000000000001918
 Convergence achieved on expansion vectors.
 ***********************************************************************
 Excited states from <AA,BB:AA,BB> singles matrix:
 ***********************************************************************
 
 1PDM for each excited state written to RWF  633
 Ground to excited state transition densities written to RWF  633
 Ground to excited state transition electric dipole moments (Au):
       state          X           Y           Z        Dip. S.      Osc.
         1         1.3579     -2.1276     -0.0000      6.3706      0.5145
         2         1.5581     -0.7608     -0.0000      3.0064      0.3216
         3         0.0002      0.0001      0.0154      0.0002      0.0000
 Ground to excited state transition velocity dipole moments (Au):
       state          X           Y           Z        Dip. S.      Osc.
         1        -0.1593      0.2588      0.0000      0.0923      0.5081
         2        -0.2452      0.1130      0.0000      0.0729      0.3028
         3        -0.0000     -0.0000     -0.0035      0.0000      0.0000
 Ground to excited state transition magnetic dipole moments (Au):
       state          X           Y           Z
         1         0.0000      0.0000     -0.8760
         2         0.0000     -0.0000      1.2313
         3        -0.0826      0.0780     -0.0000
 Ground to excited state transition velocity quadrupole moments (Au):
       state          XX          YY          ZZ          XY          XZ          YZ
         1        -0.0038      0.5596     -0.0139     -0.2584     -0.0000      0.0000
         2         0.3712     -0.6805      0.0019      0.0506     -0.0000     -0.0000
         3        -0.0001      0.0000      0.0000      0.0001     -0.0235     -0.0276
 <0|del|b> * <b|rxdel|0> + <0|del|b> * <b|delr+rdel|0>
 Rotatory Strengths (R) in cgs (10**-40 erg-esu-cm/Gauss)
       state          XX          YY          ZZ    R(velocity)    E-M Angle
         1         0.0105     -0.0141      0.0195      0.0053       90.00
         2         0.0027      0.0023     -0.0079     -0.0010       90.00
         3        -0.0029      0.0076      0.0021      0.0022       90.00
 1/2[<0|r|b>*<b|rxdel|0> + (<0|rxdel|b>*<b|r|0>)*]
 Rotatory Strengths (R) in cgs (10**-40 erg-esu-cm/Gauss)
       state          XX          YY          ZZ     R(length)
         1        -0.0040      0.0387     -0.0196      0.0050
         2        -0.0070     -0.0021      0.0064     -0.0009
         3         0.0103     -0.0038      0.0002      0.0022
  1/2[<0|del|b>*<b|r|0> + (<0|r|b>*<b|del|0>)*] (Au)
       state          X           Y           Z        Dip. S.   Osc.(frdel)
         1        -0.2163     -0.5505     -0.0000      0.7668      0.5112
         2        -0.3820     -0.0860     -0.0000      0.4680      0.3120
         3        -0.0000     -0.0000     -0.0001      0.0001      0.0000

 Excitation energies and oscillator strengths:
 
 Excited state symmetry could not be determined.
 Excited State   1:      Singlet-?Sym    3.2965 eV  376.10 nm  f=0.5145  <S**2>=0.000
      59 -> 60         0.69295
 This state for optimization and/or second-order correction.
 Total Energy, E(TD-HF/TD-DFT) =  -1028.69066916    
 Copying the excited state density for this state as the 1-particle RhoCI density.
 
 Excited state symmetry could not be determined.
 Excited State   2:      Singlet-?Sym    4.3669 eV  283.92 nm  f=0.3216  <S**2>=0.000
      57 -> 60         0.13128
      58 -> 60         0.66341
 
 Excited state symmetry could not be determined.
 Excited State   3:      Singlet-?Sym    4.7158 eV  262.91 nm  f=0.0000  <S**2>=0.000
      56 -> 60         0.68898
 SavETr:  write IOETrn=   770 NScale= 10 NData=  16 NLR=1 NState=    3 LETran=      64.
 The selected state is a singlet.
 CISGrd: IGrad=2 NXY=2 DFT=T
 CISAX will form     1 AO SS matrices at one time.
 NMat=     1 NSing=     1 JSym2X= 0.
 GePol: Maximum number of non-zero 1st derivatives   =     258
 Leave Link  914 at Mon Jul 13 14:23:05 2020, MaxMem=  7784628224 cpu:            1852.8 elap:             187.8
 (Enter /gpfs/loomis/apps/avx/software/Gaussian/16-C.01_AVX/g16/l1002.exe)
 Minotr:  Closed shell wavefunction.
          Computing CIS/TDA/TD derivatives.
          Using Z-Vector for PSCF gradient.
          Skipping F1 and S1 gradient terms here.
          IDoAtm=1111111111111111111111111
 NEqPCM:  Using equilibrium solvation (IEInf=0, Eps=   2.2280, EpsInf=   2.1319)
          Frozen-core window.
          Direct CPHF calculation.
          Differentiating once with respect to electric field.
                with respect to dipole field.
          Differentiating once with respect to nuclear coordinates.
          Requested convergence is 1.0D-10 RMS, and 1.0D-09 maximum.
          NewPWx=F KeepS1=T KeepF1=T KeepIn=T MapXYZ=F SortEE=F KeepMc=T.
 Keep R1 ints in memory in canonical form, NReq=1421489123.
 FoFCou: FMM=F IPFlag=           0 FMFlag=           0 FMFlg1=           0
         NFxFlg=           0 DoJE=F BraDBF=F KetDBF=F FulRan=T
         wScrn=  0.000000 ICntrl=       600 IOpCl=  0 I1Cent=           0 NGrid=           0
         NMat0=    1 NMatS0=  37401 NMatT0=    0 NMatD0=    1 NMtDS0=    0 NMtDT0=    0
 Symmetry not used in FoFCou.
 Two-electron integral symmetry not used.
          MDV=    7784628224 using IRadAn=       5.
          Solving linear equations separately, MaxMat=       0.
          There are     1 degrees of freedom in the 1st order CPHF.  IDoFFX=0 NUNeed=     1.
 LinEq1:  Iter=  0 NonCon=     1 RMS=5.37D-03 Max=2.71D-01 NDo=     1
 AX will form     1 AO Fock derivatives at one time.
 LinEq1:  Iter=  1 NonCon=     1 RMS=2.24D-03 Max=1.05D-01 NDo=     1
 LinEq1:  Iter=  2 NonCon=     1 RMS=1.40D-03 Max=4.64D-02 NDo=     1
 LinEq1:  Iter=  3 NonCon=     1 RMS=5.16D-04 Max=1.34D-02 NDo=     1
 LinEq1:  Iter=  4 NonCon=     1 RMS=2.83D-04 Max=1.01D-02 NDo=     1
 LinEq1:  Iter=  5 NonCon=     1 RMS=1.50D-04 Max=7.01D-03 NDo=     1
 LinEq1:  Iter=  6 NonCon=     1 RMS=6.90D-05 Max=2.86D-03 NDo=     1
 LinEq1:  Iter=  7 NonCon=     1 RMS=3.78D-05 Max=1.11D-03 NDo=     1
 LinEq1:  Iter=  8 NonCon=     1 RMS=1.59D-05 Max=5.09D-04 NDo=     1
 LinEq1:  Iter=  9 NonCon=     1 RMS=8.81D-06 Max=2.70D-04 NDo=     1
 LinEq1:  Iter= 10 NonCon=     1 RMS=3.37D-06 Max=9.26D-05 NDo=     1
 LinEq1:  Iter= 11 NonCon=     1 RMS=1.91D-06 Max=9.66D-05 NDo=     1
 LinEq1:  Iter= 12 NonCon=     1 RMS=8.85D-07 Max=2.43D-05 NDo=     1
 LinEq1:  Iter= 13 NonCon=     1 RMS=3.64D-07 Max=1.05D-05 NDo=     1
 LinEq1:  Iter= 14 NonCon=     1 RMS=1.58D-07 Max=4.07D-06 NDo=     1
 LinEq1:  Iter= 15 NonCon=     1 RMS=7.91D-08 Max=2.67D-06 NDo=     1
 LinEq1:  Iter= 16 NonCon=     1 RMS=3.32D-08 Max=1.03D-06 NDo=     1
 LinEq1:  Iter= 17 NonCon=     1 RMS=1.58D-08 Max=6.32D-07 NDo=     1
 LinEq1:  Iter= 18 NonCon=     1 RMS=5.87D-09 Max=1.67D-07 NDo=     1
 LinEq1:  Iter= 19 NonCon=     1 RMS=3.06D-09 Max=8.26D-08 NDo=     1
 LinEq1:  Iter= 20 NonCon=     1 RMS=1.38D-09 Max=4.45D-08 NDo=     1
 LinEq1:  Iter= 21 NonCon=     1 RMS=3.35D-10 Max=8.17D-09 NDo=     1
 LinEq1:  Iter= 22 NonCon=     1 RMS=1.26D-10 Max=2.66D-09 NDo=     1
 LinEq1:  Iter= 23 NonCon=     0 RMS=5.62D-11 Max=9.95D-10 NDo=     1
 Linear equations converged to 1.000D-10 1.000D-09 after    23 iterations.
 End of Minotr F.D. properties file   721 does not exist.
 End of Minotr F.D. properties file   722 does not exist.
 End of Minotr F.D. properties file   788 does not exist.
 Leave Link 1002 at Mon Jul 13 14:24:41 2020, MaxMem=  7784628224 cpu:             724.4 elap:              95.8
 (Enter /gpfs/loomis/apps/avx/software/Gaussian/16-C.01_AVX/g16/l601.exe)
 Copying SCF densities to generalized density rwf, IOpCl= 0 IROHF=0.

 **********************************************************************

            Population analysis using the SCF Density.

 **********************************************************************

 Alpha  occ. eigenvalues --  -89.09517 -19.25199 -14.49044 -10.40477 -10.37283
 Alpha  occ. eigenvalues --  -10.36247 -10.35296 -10.32617 -10.32164 -10.32050
 Alpha  occ. eigenvalues --  -10.31864 -10.31796 -10.31667 -10.31611 -10.30006
 Alpha  occ. eigenvalues --  -10.29730  -8.11554  -6.06401  -6.06053  -6.05602
 Alpha  occ. eigenvalues --   -1.14168  -1.09350  -0.97170  -0.95605  -0.92590
 Alpha  occ. eigenvalues --   -0.88894  -0.85626  -0.83829  -0.82279  -0.75851
 Alpha  occ. eigenvalues --   -0.71374  -0.70889  -0.68696  -0.67871  -0.63589
 Alpha  occ. eigenvalues --   -0.60814  -0.59214  -0.57967  -0.55502  -0.54572
 Alpha  occ. eigenvalues --   -0.54325  -0.53415  -0.52848  -0.50880  -0.49835
 Alpha  occ. eigenvalues --   -0.49664  -0.47063  -0.46329  -0.45609  -0.44949
 Alpha  occ. eigenvalues --   -0.44200  -0.42961  -0.42259  -0.40593  -0.36552
 Alpha  occ. eigenvalues --   -0.35477  -0.32617  -0.31239  -0.27588
 Alpha virt. eigenvalues --   -0.01774   0.04561   0.06533   0.07180   0.07923
 Alpha virt. eigenvalues --    0.10712   0.14315   0.14976   0.16539   0.17839
 Alpha virt. eigenvalues --    0.18701   0.20847   0.21496   0.22095   0.22563
 Alpha virt. eigenvalues --    0.23644   0.23923   0.24682   0.28037   0.29636
 Alpha virt. eigenvalues --    0.32236   0.33294   0.35173   0.35739   0.36937
 Alpha virt. eigenvalues --    0.38283   0.38962   0.40649   0.42410   0.43122
 Alpha virt. eigenvalues --    0.47247   0.47579   0.50463   0.51337   0.51561
 Alpha virt. eigenvalues --    0.52299   0.53205   0.53732   0.54309   0.55247
 Alpha virt. eigenvalues --    0.56101   0.56517   0.56597   0.57252   0.58304
 Alpha virt. eigenvalues --    0.58355   0.58431   0.58805   0.59440   0.60334
 Alpha virt. eigenvalues --    0.60724   0.60733   0.62057   0.62629   0.63050
 Alpha virt. eigenvalues --    0.65153   0.65490   0.66736   0.67441   0.68976
 Alpha virt. eigenvalues --    0.70389   0.70694   0.72145   0.72454   0.72847
 Alpha virt. eigenvalues --    0.72961   0.74668   0.75174   0.76018   0.78055
 Alpha virt. eigenvalues --    0.78986   0.79136   0.80177   0.81478   0.82211
 Alpha virt. eigenvalues --    0.83758   0.88554   0.89812   0.90949   0.93406
 Alpha virt. eigenvalues --    0.94809   0.94901   0.96143   0.96383   0.97173
 Alpha virt. eigenvalues --    0.98364   0.98789   1.00277   1.00434   1.01707
 Alpha virt. eigenvalues --    1.02534   1.05466   1.06411   1.07010   1.07467
 Alpha virt. eigenvalues --    1.08179   1.09215   1.09993   1.10848   1.11659
 Alpha virt. eigenvalues --    1.12258   1.12969   1.13382   1.14920   1.15401
 Alpha virt. eigenvalues --    1.15915   1.19733   1.20061   1.22580   1.22787
 Alpha virt. eigenvalues --    1.25799   1.28743   1.33389   1.34021   1.34710
 Alpha virt. eigenvalues --    1.35480   1.37137   1.38515   1.40912   1.47466
 Alpha virt. eigenvalues --    1.49122   1.49746   1.50365   1.54062   1.54959
 Alpha virt. eigenvalues --    1.56565   1.56724   1.57085   1.58481   1.58703
 Alpha virt. eigenvalues --    1.59210   1.60565   1.64053   1.66583   1.66664
 Alpha virt. eigenvalues --    1.68953   1.69091   1.69797   1.70284   1.71003
 Alpha virt. eigenvalues --    1.72150   1.72530   1.73392   1.73483   1.75711
 Alpha virt. eigenvalues --    1.76832   1.79479   1.80252   1.81286   1.83155
 Alpha virt. eigenvalues --    1.83230   1.83550   1.84412   1.84928   1.85196
 Alpha virt. eigenvalues --    1.87186   1.88209   1.88464   1.89177   1.92163
 Alpha virt. eigenvalues --    1.92525   1.92722   1.93590   1.95195   1.96180
 Alpha virt. eigenvalues --    1.98176   2.00216   2.00931   2.02618   2.03806
 Alpha virt. eigenvalues --    2.04867   2.07902   2.09335   2.10999   2.13646
 Alpha virt. eigenvalues --    2.15751   2.17168   2.17565   2.20689   2.24053
 Alpha virt. eigenvalues --    2.26638   2.28479   2.30901   2.38036   2.40616
 Alpha virt. eigenvalues --    2.41136   2.41656   2.43235   2.45132   2.47036
 Alpha virt. eigenvalues --    2.48125   2.50448   2.51982   2.53218   2.62051
 Alpha virt. eigenvalues --    2.62742   2.71881   2.73489   2.75240   2.79742
 Alpha virt. eigenvalues --    2.81537   2.84095   2.85501   2.89861   2.92057
 Alpha virt. eigenvalues --    2.92589   3.03134   3.10016   3.18127   3.37836
 Alpha virt. eigenvalues --    3.46118   3.56543   3.64060   3.86732
          Condensed to atoms (all electrons):
               1          2          3          4          5          6
     1  C    4.730582   0.481351   0.005781  -0.051810  -0.014246   0.520901
     2  C    0.481351   5.304300   0.338016  -0.040827  -0.067080  -0.009063
     3  C    0.005781   0.338016   4.797528   0.499309  -0.004243  -0.063414
     4  C   -0.051810  -0.040827   0.499309   4.773460   0.522843  -0.012773
     5  C   -0.014246  -0.067080  -0.004243   0.522843   4.729980   0.494556
     6  C    0.520901  -0.009063  -0.063414  -0.012773   0.494556   4.738118
     7  H    0.402241  -0.038123   0.008631  -0.000563   0.008087  -0.039489
     8  H   -0.000717   0.011330  -0.031404   0.394445  -0.042389   0.007684
     9  H    0.008909  -0.000601   0.008545  -0.038528   0.404815  -0.045131
    10  H   -0.042321   0.009490  -0.000486   0.008462  -0.042941   0.406574
    11  N    0.005896  -0.053594   0.417866  -0.039855   0.003010   0.000091
    12  S   -0.068310   0.335560  -0.110396   0.006180   0.000271   0.003880
    13  C   -0.000200   0.002646   0.008613  -0.000597   0.000009   0.000003
    14  C   -0.000008   0.000133   0.000236   0.000006  -0.000000  -0.000000
    15  C    0.000004  -0.000353   0.000583   0.000048  -0.000000   0.000000
    16  C    0.000000  -0.000004   0.000005  -0.000000   0.000000   0.000000
    17  H   -0.000007   0.000137   0.000001   0.000000   0.000000   0.000000
    18  C    0.000000   0.000007  -0.000017  -0.000000  -0.000000  -0.000000
    19  C   -0.000000   0.000000   0.000001   0.000000   0.000000   0.000000
    20  H   -0.000000  -0.000000  -0.000000   0.000000   0.000000  -0.000000
    21  H   -0.000000  -0.000000   0.000000  -0.000000  -0.000000   0.000000
    22  H    0.000000  -0.000000  -0.000000  -0.000000   0.000000  -0.000000
    23  C    0.003905  -0.049605  -0.118208   0.000461   0.000267  -0.000181
    24  O    0.000002  -0.000083  -0.001588  -0.000057  -0.000000  -0.000000
    25  H   -0.000017   0.004406  -0.014814  -0.001363  -0.000037   0.000008
               7          8          9         10         11         12
     1  C    0.402241  -0.000717   0.008909  -0.042321   0.005896  -0.068310
     2  C   -0.038123   0.011330  -0.000601   0.009490  -0.053594   0.335560
     3  C    0.008631  -0.031404   0.008545  -0.000486   0.417866  -0.110396
     4  C   -0.000563   0.394445  -0.038528   0.008462  -0.039855   0.006180
     5  C    0.008087  -0.042389   0.404815  -0.042941   0.003010   0.000271
     6  C   -0.039489   0.007684  -0.045131   0.406574   0.000091   0.003880
     7  H    0.656975   0.000032  -0.000153  -0.011509  -0.000100  -0.007488
     8  H    0.000032   0.651322  -0.012439  -0.000116  -0.002354  -0.000197
     9  H   -0.000153  -0.012439   0.663880  -0.012242  -0.000102   0.000021
    10  H   -0.011509  -0.000116  -0.012242   0.661848   0.000002  -0.000158
    11  N   -0.000100  -0.002354  -0.000102   0.000002   6.446756  -0.063736
    12  S   -0.007488  -0.000197   0.000021  -0.000158  -0.063736  15.459558
    13  C    0.000003   0.000037  -0.000000  -0.000000  -0.020543  -0.063167
    14  C    0.000001   0.000001   0.000000  -0.000000   0.003337  -0.009622
    15  C   -0.000000  -0.000012   0.000000   0.000000  -0.012493   0.004541
    16  C    0.000000  -0.000000  -0.000000   0.000000  -0.000084   0.000136
    17  H    0.000001   0.000000  -0.000000  -0.000000   0.000232   0.008141
    18  C   -0.000000  -0.000000   0.000000  -0.000000  -0.000616  -0.000171
    19  C    0.000000   0.000000  -0.000000  -0.000000   0.000045   0.000025
    20  H    0.000000  -0.000000   0.000000   0.000000   0.000001   0.000005
    21  H   -0.000000   0.000000  -0.000000   0.000000   0.000019   0.000004
    22  H    0.000000  -0.000000   0.000000  -0.000000  -0.000000  -0.000001
    23  C    0.000145  -0.000796   0.000006   0.000005   0.528405   0.322251
    24  O   -0.000000  -0.000175   0.000000  -0.000000  -0.079310  -0.000299
    25  H    0.000002   0.001027  -0.000005  -0.000000   0.187683   0.003134
              13         14         15         16         17         18
     1  C   -0.000200  -0.000008   0.000004   0.000000  -0.000007   0.000000
     2  C    0.002646   0.000133  -0.000353  -0.000004   0.000137   0.000007
     3  C    0.008613   0.000236   0.000583   0.000005   0.000001  -0.000017
     4  C   -0.000597   0.000006   0.000048  -0.000000   0.000000  -0.000000
     5  C    0.000009  -0.000000  -0.000000   0.000000   0.000000  -0.000000
     6  C    0.000003  -0.000000   0.000000   0.000000   0.000000  -0.000000
     7  H    0.000003   0.000001  -0.000000   0.000000   0.000001  -0.000000
     8  H    0.000037   0.000001  -0.000012  -0.000000   0.000000  -0.000000
     9  H   -0.000000   0.000000   0.000000  -0.000000  -0.000000   0.000000
    10  H   -0.000000  -0.000000   0.000000   0.000000  -0.000000  -0.000000
    11  N   -0.020543   0.003337  -0.012493  -0.000084   0.000232  -0.000616
    12  S   -0.063167  -0.009622   0.004541   0.000136   0.008141  -0.000171
    13  C    5.336706   0.465001   0.252910  -0.007984  -0.038134  -0.042270
    14  C    0.465001   4.823494   0.000414   0.533827   0.398532  -0.056037
    15  C    0.252910   0.000414   4.756884  -0.057820   0.006782   0.493530
    16  C   -0.007984   0.533827  -0.057820   4.747251  -0.032699  -0.019394
    17  H   -0.038134   0.398532   0.006782  -0.032699   0.668747  -0.000688
    18  C   -0.042270  -0.056037   0.493530  -0.019394  -0.000688   4.827497
    19  C   -0.052730  -0.019449  -0.008720   0.490393   0.008136   0.514918
    20  H    0.008917  -0.035719  -0.000178   0.400943  -0.012240   0.008223
    21  H    0.013750  -0.000555  -0.023596   0.007348   0.000046   0.376538
    22  H   -0.001347   0.009562   0.008943  -0.044702  -0.000175  -0.041308
    23  C    0.349508  -0.090291  -0.078094   0.006626  -0.021331   0.007796
    24  O   -0.088664   0.005055   0.558358  -0.000047  -0.000064  -0.058809
    25  H   -0.022788  -0.000703  -0.025049   0.000003  -0.000028   0.003618
              19         20         21         22         23         24
     1  C   -0.000000  -0.000000  -0.000000   0.000000   0.003905   0.000002
     2  C    0.000000  -0.000000  -0.000000  -0.000000  -0.049605  -0.000083
     3  C    0.000001  -0.000000   0.000000  -0.000000  -0.118208  -0.001588
     4  C    0.000000   0.000000  -0.000000  -0.000000   0.000461  -0.000057
     5  C    0.000000   0.000000  -0.000000   0.000000   0.000267  -0.000000
     6  C    0.000000  -0.000000   0.000000  -0.000000  -0.000181  -0.000000
     7  H    0.000000   0.000000  -0.000000   0.000000   0.000145  -0.000000
     8  H    0.000000  -0.000000   0.000000  -0.000000  -0.000796  -0.000175
     9  H   -0.000000   0.000000  -0.000000   0.000000   0.000006   0.000000
    10  H   -0.000000   0.000000   0.000000  -0.000000   0.000005  -0.000000
    11  N    0.000045   0.000001   0.000019  -0.000000   0.528405  -0.079310
    12  S    0.000025   0.000005   0.000004  -0.000001   0.322251  -0.000299
    13  C   -0.052730   0.008917   0.013750  -0.001347   0.349508  -0.088664
    14  C   -0.019449  -0.035719  -0.000555   0.009562  -0.090291   0.005055
    15  C   -0.008720  -0.000178  -0.023596   0.008943  -0.078094   0.558358
    16  C    0.490393   0.400943   0.007348  -0.044702   0.006626  -0.000047
    17  H    0.008136  -0.012240   0.000046  -0.000175  -0.021331  -0.000064
    18  C    0.514918   0.008223   0.376538  -0.041308   0.007796  -0.058809
    19  C    4.723406  -0.046664  -0.045460   0.405226   0.000693   0.003253
    20  H   -0.046664   0.681751  -0.000150  -0.012189  -0.000384   0.000002
    21  H   -0.045460  -0.000150   0.668098  -0.012330  -0.000432   0.003608
    22  H    0.405226  -0.012189  -0.012330   0.667651   0.000001  -0.000065
    23  C    0.000693  -0.000384  -0.000432   0.000001   5.070629  -0.005157
    24  O    0.003253   0.000002   0.003608  -0.000065  -0.005157   7.755585
    25  H   -0.000251  -0.000001   0.000003   0.000009  -0.002834   0.242896
              25
     1  C   -0.000017
     2  C    0.004406
     3  C   -0.014814
[...]
 .00025036,0.00133861,0.,0.00415959,0.00185290,-0.00000002,0.00378592,-
 0.00691323,-0.00000007,-0.00393146,0.00123367,0.,-0.00027244,-0.003348
 68,0.,0.00187778,0.00108964,0.,-0.00006651,-0.00008045,0.,0.00008478,0
 .00006082,0.,0.00007202,-0.00004845,0.,0.00005392,-0.00000426,0.,-0.00
 582144,0.00996789,0.00000032,-0.00191701,0.00146651,0.,-0.04902714,0.0
 1868961,0.00000015,-0.20717660,0.13685119,0.00000126,0.00903055,0.0005
 6678,0.00000009,0.73294621,0.00003244,-0.00289446,0.00000004,-0.011963
 06,-0.00512840,0.,-0.01253539,0.02077712,0.00000015,0.01215025,-0.0031
 6023,-0.00000002,0.00049314,0.00958661,0.00000002,-0.00433640,-0.00359
 153,-0.00000002,0.00008678,0.00022301,0.00000001,-0.00014926,-0.000181
 97,0.,-0.00014792,0.00016153,0.,-0.00007860,-0.00002069,-0.00000001,0.
 01649848,-0.02164583,-0.00000046,0.00292616,-0.00565019,0.00000005,0.0
 5410074,0.02850618,0.00000014,0.05089868,-0.23554504,-0.00000131,0.004
 09850,-0.00545886,0.00000061,0.02012220,0.62305941,0.00000002,-0.00000
 004,-0.00004152,-0.00000011,0.,-0.00006533,-0.00000004,0.00000010,-0.0
 0017510,0.00000006,-0.00000002,-0.00023690,0.,0.00000006,-0.00002431,-
 0.00000005,-0.00000002,0.00001287,0.,0.,-0.00002794,0.,0.,-0.00002803,
 0.,0.,0.00001426,0.,0.,0.00004857,0.00000009,-0.00000019,0.00223374,0.
 00000002,-0.00000004,-0.00008601,0.00000076,0.00000003,0.00244824,0.00
 000038,-0.00000118,-0.05198984,-0.00000009,0.,-0.00451554,-0.00000186,
 0.00000119,0.13077200,0.00027657,-0.00003837,0.,-0.00086910,0.00025853
 ,-0.00000002,0.00035450,-0.00005621,0.,0.00005433,0.00010927,0.,0.0000
 8085,0.00006318,0.,-0.00008012,-0.00009662,0.,-0.00001988,-0.00000335,
 0.,0.00003401,0.00000107,0.,0.00000859,-0.00000169,0.,0.00003399,-0.00
 000912,0.,0.00035768,0.00062812,0.,-0.00118917,0.00161384,0.00000009,-
 0.00449794,-0.02918380,-0.00000015,-0.08870068,-0.08976863,-0.00000005
 ,-0.00494980,0.00286495,0.00000017,0.01057644,0.02077974,0.00000008,0.
 09081637,0.00008176,-0.00004995,0.,-0.00032742,0.00041063,-0.00000001,
 0.00019271,0.00029537,0.00000001,0.00013960,0.00002619,0.,0.00003001,0
 .00019979,0.,-0.00016891,-0.00011226,0.,-0.00001351,0.00001691,0.,0.00
 001671,-0.00001008,0.,-0.00000408,0.00000267,0.,0.00000199,0.00000308,
 0.,0.00025464,0.00042455,0.,0.00066382,-0.00101458,-0.00000001,0.00154
 335,-0.00258462,-0.00000007,-0.08921192,-0.31323515,-0.00000096,0.0005
 0298,0.00191349,0.00000002,-0.01071281,-0.01759493,-0.00000006,0.09356
 211,0.33203911,-0.00000002,0.00000002,-0.00004456,0.00000003,-0.000000
 03,-0.00041623,0.,0.00000003,0.00023498,0.,0.,0.00011126,0.,0.,0.00000
 081,0.00000002,0.,0.00002317,0.,0.,0.00000529,0.,0.,0.00001311,0.,0.,-
 0.00000113,0.,0.,-0.00000473,0.00000005,0.00000005,-0.00168593,0.00000
 005,0.,0.00090905,-0.00000025,0.00000013,0.00390729,0.00000017,-0.0000
 0096,-0.03156813,0.00000009,-0.00000011,0.00751245,-0.00000015,-0.0000
 0010,0.00252986,0.,0.00000107,0.02025664,-0.00156946,0.00074767,0.0000
 0007,-0.00355363,-0.00327872,-0.00000002,-0.00521016,0.01238802,0.0000
 0003,0.00578595,-0.00137425,0.,-0.00018079,0.00254312,0.,0.00097188,-0
 .00146925,-0.00000001,-0.00010655,0.00011555,0.,0.00005917,-0.00003815
 ,0.,0.00008113,0.00001651,0.,0.00007115,-0.00005101,-0.00000001,0.0131
 7451,0.00179581,0.00000039,-0.00074460,-0.00364947,0.00000002,0.018447
 55,0.02253672,0.00000002,-0.02519766,0.02242208,0.00000014,-0.17093680
 ,0.07935626,0.00000055,-0.01047244,-0.06398804,-0.00000031,-0.00054454
 ,-0.00011954,0.00000006,0.70140245,0.00046304,-0.00021373,0.,-0.001532
 00,-0.00121105,0.,-0.00022594,0.00182197,0.00000006,0.00021396,-0.0000
 2656,0.,0.00023159,0.00048456,0.,-0.00051257,-0.00037806,0.,-0.0000084
 6,0.00004797,0.,-0.00004563,-0.00001558,0.,-0.00000928,-0.00000487,0.,
 0.00002151,-0.00000134,0.,0.00392508,-0.00040778,-0.00000013,0.0013587
 3,-0.00289064,-0.00000010,0.02176419,-0.03650617,-0.00000007,-0.002003
 59,0.00077538,-0.00000005,0.10333847,-0.24842255,-0.00000074,-0.033047
 71,-0.01376327,-0.00000002,-0.00026366,0.00057822,-0.00000004,0.041814
 30,0.71905106,0.00000003,0.,0.00008956,-0.00000003,0.00000003,0.000764
 51,0.00000011,0.,0.00195135,0.,0.,-0.00033887,0.00000001,0.00000002,-0
 .00007343,-0.00000003,0.00000001,-0.00010807,0.,0.,0.00011336,0.,0.,0.
 00009015,0.,0.,0.00002792,0.,0.,-0.00005472,0.00000002,0.00000040,-0.0
 0615355,-0.00000002,-0.00000013,0.00073254,0.00000028,-0.00000060,0.01
 215582,-0.00000036,0.00000017,-0.00261987,0.00000048,-0.00000074,-0.06
 482402,-0.00000003,-0.00000028,0.00521482,-0.00000002,0.,-0.00098602,0
 .00000207,0.00000382,0.10975394,0.00148454,0.00048134,-0.00000005,0.00
 761842,0.00547398,0.00000002,0.01076269,-0.01980534,-0.00000014,-0.009
 86104,0.00254602,0.00000002,0.00002109,-0.00608000,0.,0.00086082,0.002
 99716,0.00000002,0.00004349,-0.00013276,-0.00000001,0.00004998,0.00009
 565,0.,-0.00004415,-0.00005501,0.,-0.00002329,0.00006090,0.00000001,-0
 .02084355,0.01307608,0.00000017,0.00086093,0.00478266,-0.00000007,-0.0
 1705733,-0.02072992,-0.00000017,0.05834087,-0.00237895,-0.00000021,-0.
 04647410,0.02089725,-0.00000058,-0.14201394,-0.01109029,0.00000044,-0.
 00270269,0.00462369,0.,-0.35061166,-0.06783521,-0.00000060,0.69805884,
 0.00030127,0.00046446,-0.00000002,0.00105875,0.00045635,0.00000001,0.0
 0278367,-0.00213241,0.00000006,-0.00221307,0.00061954,0.,0.00002338,-0
 .00143785,0.,0.00048997,0.00012169,0.,-0.00002872,-0.00000795,0.,0.000
 01456,-0.00000601,0.,0.00002894,-0.00004321,0.,0.00001953,0.00001953,0
 .,0.00066332,0.00639521,0.,-0.00142048,0.00008977,-0.00000003,-0.01934
 134,-0.01582142,0.00000013,0.03878938,-0.05902352,-0.00000018,0.014726
 26,0.02677875,-0.00000021,-0.08981248,-0.29538937,0.00000004,0.0033859
 0,-0.00077043,-0.00000010,-0.02684127,-0.12516564,-0.00000057,-0.04681
 210,0.68671359,0.,0.,0.00017387,0.00000001,0.,-0.00042171,0.,-0.000000
 02,-0.00104714,-0.00000001,0.,0.00008834,0.,0.,0.00008968,0.,0.,0.0000
 0695,0.,0.,-0.00004298,0.,0.,-0.00011208,0.,0.,0.00000022,0.,0.,0.0000
 0406,-0.00000008,-0.00000008,0.00155036,0.00000004,0.00000003,0.000487
 00,-0.00000008,-0.00000012,-0.00241772,0.00000013,-0.00000020,0.008952
 50,-0.00000016,0.00000041,0.00227515,-0.00000001,-0.00000025,-0.059324
 53,0.00000003,0.,0.00463046,-0.00000019,-0.00000060,-0.04912791,-0.000
 00019,0.00000150,0.11187220,0.00005675,-0.00009578,0.,-0.00010432,0.00
 010466,0.,-0.00000285,-0.00008378,0.,0.00000659,0.00002486,0.,0.000014
 40,0.00009283,0.,-0.00014486,0.00000132,0.,0.00000697,0.00000751,0.,-0
 .00000402,-0.00000636,0.,-0.00001219,0.00000713,0.,-0.00000868,0.00000
 558,0.,-0.00018402,0.00043209,0.00000001,0.00006911,-0.00005963,0.,-0.
 00005880,0.00349045,0.00000003,-0.01464650,-0.00797548,0.00000004,0.00
 053171,0.00027713,0.,-0.33484831,-0.05923304,0.00000061,0.00075195,0.0
 0004982,0.,0.00157656,-0.00149135,0.00000002,-0.00460604,0.00193735,0.
 00000001,0.35204683,0.00000509,-0.00000768,0.,-0.00009988,-0.00011211,
 0.,-0.00000571,0.00027444,0.,0.00009853,-0.00006867,0.,0.00001743,0.00
 007740,0.,-0.00002402,-0.00003955,0.,0.00000033,0.,0.,-0.00000092,-0.0
 0000054,0.,0.00000166,-0.00000282,0.,0.00000166,-0.00000125,0.,0.00044
 393,-0.00038189,-0.00000001,0.00003060,-0.00000960,0.,0.00363418,-0.00
 369678,-0.00000006,0.02267184,0.00873142,-0.00000006,0.00055485,-0.001
 08676,0.,-0.05959694,-0.07220251,0.00000014,-0.00025641,0.00084936,0.0
 0000002,-0.00071883,-0.00539635,-0.00000002,-0.02927003,-0.00028822,0.
 00000003,0.06332134,0.07116076,0.,0.,-0.00002993,0.00000002,0.00000001
 ,0.00004675,0.00000002,-0.00000004,0.00049026,-0.00000002,0.,0.0001265
 8,0.,-0.00000001,-0.00006701,0.,0.,0.00001440,0.,0.,0.00000855,0.,0.,0
 .00003517,0.,0.,-0.00002706,0.,0.,-0.00000088,-0.00000004,0.00000004,-
 0.00059389,-0.00000001,0.00000001,-0.00013784,-0.00000002,-0.00000004,
 0.00587397,0.00000028,-0.00000015,0.00690853,0.,0.00000001,-0.00122744
 ,0.00000051,0.00000027,-0.03827609,-0.00000002,0.,-0.00328947,0.000000
 02,0.00000004,0.00525056,-0.00000003,-0.00000012,0.00650954,-0.0000006
 8,-0.00000006,0.02288871,-0.00010850,0.00003315,0.,0.00010751,0.000052
 19,0.,-0.00015084,0.00005674,0.,0.00004700,-0.00000450,0.,-0.00002264,
 -0.00002321,0.,0.00007631,0.00000878,0.,0.00000107,-0.00000634,0.,-0.0
 0000400,0.00000221,0.,0.00000304,-0.00000070,0.,-0.00000289,-0.0000016
 4,0.,0.00029643,-0.00049817,-0.00000001,-0.00029717,0.00017353,0.00000
 001,-0.00396904,0.00307943,-0.00000002,0.00024236,0.00013424,0.,0.0092
 3893,0.02148062,0.00000022,-0.00581175,0.00049832,-0.00000004,0.000125
 40,-0.00008374,0.,-0.08682845,-0.08970282,-0.00000096,-0.00257661,-0.0
 2867500,-0.00000022,-0.00033115,-0.00141801,0.00000001,0.08587426,0.00
 006882,0.00003132,0.,-0.00011313,-0.00004994,0.,0.00010469,0.00003183,
 0.,-0.00000902,-0.00000671,0.,-0.00000178,-0.00003084,0.,0.00002971,-0
 .00002121,0.,-0.00000590,0.00000257,0.,0.00000858,0.00000222,0.,0.0000
 0719,-0.00000235,0.,0.00000878,-0.00000268,0.,-0.00028562,0.00038100,0
 .00000002,0.00023593,-0.00015477,0.,0.00391542,-0.00128100,0.,0.000122
 40,0.00028494,0.,-0.01195028,-0.01741256,-0.00000029,-0.00052868,0.001
 28380,-0.00000006,-0.00007288,-0.00008003,0.,-0.08766442,-0.31932248,-
 0.00000230,0.00209638,-0.00046112,-0.00000007,0.00007279,-0.00013382,0
 .,0.09537637,0.33492060,-0.00000001,0.,-0.00033008,-0.00000002,-0.0000
 0001,-0.00015174,-0.00000004,0.00000006,0.00022308,0.00000003,0.,0.000
 01182,0.,0.00000001,-0.00005102,0.,0.,0.00005170,0.,0.,-0.00001417,0.,
 0.,0.00004338,0.,0.,-0.00000542,0.,0.,0.00006169,0.00000011,-0.0000000
 4,0.00021558,-0.00000002,-0.00000002,-0.00031751,0.00000002,-0.0000000
 4,0.00374665,-0.00000003,0.00000004,-0.00047431,-0.00000008,-0.0000001
 0,0.00332000,0.,-0.00000012,0.00655598,0.,0.,-0.00041453,-0.00000113,-
 0.00000254,-0.03211356,0.00000025,0.00000008,0.00413282,0.,0.,-0.00047
 828,0.00000094,0.00000263,0.02195944,0.00004751,-0.00005572,0.,-0.0001
 6490,0.00003877,0.,0.00008884,0.00016835,0.,0.00007291,-0.00001670,0.,
 0.00001892,0.00011939,0.,-0.00010951,-0.00004297,0.,0.00000115,0.00000
 802,0.,-0.00000071,-0.00000719,0.,-0.00000786,0.00000382,0.,-0.0000041
 0,0.00000371,0.,0.00027285,0.00055661,0.00000003,-0.00002255,0.0000103
 9,0.,0.00021176,-0.00073296,-0.00000001,-0.00047928,-0.00233485,0.,-0.
 00320764,-0.00337095,0.,0.00967425,-0.01024470,-0.00000004,0.00033964,
 -0.00042802,0.,-0.01420078,0.02412517,0.00000009,-0.19210852,0.1458636
 8,0.00000055,0.00063078,0.00033979,0.,0.00108687,-0.00020195,0.,0.2000
 7558,0.00001439,0.00009947,0.,0.00035403,0.00023788,0.,0.00044244,-0.0
 0077516,0.,-0.00040087,0.00011489,0.,-0.00001627,-0.00033508,0.,0.0001
 6150,0.00012839,0.,-0.00000706,-0.00000926,0.,0.00001041,0.00000922,0.
 ,0.00000838,-0.00000582,0.,0.00000737,-0.00000222,0.,-0.00078752,0.000
 52521,0.00000001,-0.00008124,0.00024010,0.,-0.00129756,0.00024787,0.,-
 0.00238965,-0.00421252,0.,-0.00223618,-0.00033191,-0.00000004,0.022188
 72,-0.01510370,-0.00000010,0.00102435,-0.00096983,-0.00000002,-0.00746
 307,0.00859844,0.00000003,0.14489727,-0.21461050,-0.00000060,-0.000127
 11,0.00099604,0.00000001,0.00031970,0.00062150,0.00000002,-0.15477620,
 0.22429643,0.,0.,0.00003158,0.00000001,-0.00000001,0.00005253,-0.00000
 001,0.,-0.00013376,0.,0.,0.00002737,0.,0.,0.00000988,0.,0.,-0.00000097
 ,0.,0.,-0.00000120,0.,0.,0.00001079,0.,0.,-0.00000021,0.,0.,-0.0000179
 0,0.,-0.00000002,0.00043092,0.,0.00000002,-0.00023443,0.,0.,-0.0014542
 7,0.00000009,0.,0.00448202,-0.00000005,-0.00000006,0.00686078,0.000000
 01,0.00000003,0.00240465,0.,-0.00000001,0.00099400,-0.00000010,-0.0000
 0002,0.00386072,0.00000060,-0.00000067,-0.03155814,-0.00000001,0.,-0.0
 0320744,0.00000002,0.00000005,-0.00388983,-0.00000058,0.00000068,0.022
 01422,-0.00430543,-0.00691038,-0.00000007,-0.01457497,0.01613551,0.000
 00021,-0.08310951,0.05210236,0.00000084,0.01801289,-0.00516397,0.,-0.0
 0048436,0.01288223,0.00000003,-0.00805003,-0.00379832,-0.00000003,0.00
 035389,-0.00046920,0.,-0.00060025,-0.00021426,0.,-0.00008395,0.0001631
 2,0.,-0.00066758,-0.00005976,0.,-0.32399390,-0.05967974,-0.00000003,-0
 .04616360,-0.04657922,-0.00000040,-0.21057332,0.12237825,0.00000338,-0
 .04553254,0.03755135,0.00000075,0.02299438,0.01146056,0.00000040,-0.00
 035725,-0.01564125,0.,0.00036613,-0.00005456,-0.00000005,-0.00534637,-
 0.01101539,-0.00000034,0.00666414,0.00014934,0.00000008,-0.00072203,0.
 00052914,0.,0.00093973,-0.00087625,-0.00000006,-0.00031821,0.00051859,
 0.00000001,0.70162902,-0.00240174,0.00375237,-0.00000007,0.03859913,-0
 .02348775,-0.00000015,0.02710844,-0.00162209,-0.00000007,-0.00180607,-
 0.00602662,-0.00000001,-0.00120269,-0.00500270,-0.00000003,0.00528570,
 0.00078188,0.,-0.00012631,-0.00072417,0.,-0.00019803,0.00029169,0.0000
 0001,0.00044078,-0.00056376,0.,-0.00009687,-0.00000436,0.,-0.05711892,
 -0.10329564,-0.00000075,-0.02215709,-0.15792005,-0.00000142,0.10215772
 ,-0.21992562,-0.00000381,0.01842942,0.01245442,0.,0.02705778,-0.050107
 29,-0.00000125,-0.00546474,-0.00001366,0.00000005,-0.00174007,0.000477
 29,0.00000002,-0.01527381,0.00217124,0.00000013,0.00681742,0.00452162,
 0.00000006,-0.00068956,0.00113526,-0.00000002,0.00042390,-0.00054550,-
 0.00000005,0.00028148,0.00005227,-0.00000002,-0.09820220,0.55549729,-0
 .00000002,-0.00000002,0.00165154,0.00000023,-0.00000007,-0.00095988,0.
 00000018,-0.00000005,0.00527367,0.,-0.00000003,0.00382212,-0.00000001,
 -0.00000010,0.00104541,0.00000008,0.00000003,0.00091887,0.,0.,-0.00047
 049,0.,0.,-0.00068187,0.,0.,-0.00064607,0.,0.,-0.00026244,0.00000148,-
 0.00000055,-0.03682438,-0.00000012,-0.00000196,-0.01934235,0.00000259,
 -0.00000318,-0.03871109,0.00000035,-0.00000012,0.00918760,0.00000059,-
 0.00000119,0.00641354,0.00000008,-0.00000029,0.00271781,-0.00000004,0.
 ,-0.00147190,-0.00000063,0.00000016,-0.00004100,0.00000055,0.00000014,
 -0.00100692,-0.00000002,0.,-0.00095305,0.,0.,0.00169075,0.,0.00000002,
 0.00011016,-0.00000483,0.00000748,0.06724443,0.00075952,0.00204897,-0.
 00000002,0.00338229,0.00709993,-0.00000008,0.01680263,-0.00752564,0.00
 000008,-0.00421864,0.00122764,0.00000003,-0.00073773,-0.00428773,-0.00
 000001,0.00252134,0.00184607,0.00000001,-0.00025444,0.00022793,0.,0.00
 032360,-0.00000250,0.,-0.00000983,0.00005998,0.,0.00003457,0.00006125,
 0.,-0.01084555,0.06567823,0.00000212,0.00019336,0.00622774,0.00000010,
 -0.05020963,-0.02145243,-0.00000084,0.02322557,-0.00989606,-0.00000020
 ,-0.42529093,-0.08163302,-0.00000512,-0.01280138,0.01324921,0.00000011
 ,-0.00117200,-0.00089906,0.,-0.06772336,0.01281404,-0.00000082,0.00175
 235,0.00145397,0.00000015,-0.00010222,-0.00027817,-0.00000003,0.002334
 32,-0.00052557,0.00000004,-0.00207991,-0.00043034,0.00000003,-0.005078
 81,-0.00372820,-0.00000002,0.54605971,-0.00132445,-0.00146816,0.,-0.00
 091010,-0.00737386,0.00000004,-0.01999601,0.00230242,-0.00000037,0.003
 10623,-0.00132913,-0.00000002,0.00034773,0.00285265,0.00000001,-0.0009
 6087,-0.00166043,0.,0.00024021,-0.00044044,0.,0.00003827,0.00019342,-0
 .00000001,0.00019736,-0.00014177,0.,0.00004904,-0.00010905,0.,0.038266
 47,-0.09097183,-0.00000287,0.00053133,-0.00294680,0.,-0.03537160,-0.01
 379983,-0.00000088,-0.00964467,-0.00647762,-0.00000004,-0.07042315,-0.
 12221478,-0.00000188,0.00191942,-0.00816250,-0.00000007,-0.00188583,-0
 .00011006,0.00000008,0.03974762,0.02019309,0.00000038,0.00429654,-0.00
 291898,-0.00000008,-0.00003779,0.00042308,0.,-0.00201998,0.00237965,0.
 00000009,0.00177507,0.00069070,0.00000001,0.00864325,0.01232181,0.0000
 0032,0.07279607,0.23018550,-0.00000007,-0.00000006,0.00039830,-0.00000
 008,-0.00000030,-0.00084680,-0.00000071,0.00000022,-0.00048874,0.00000
 018,-0.00000004,0.00034693,0.,0.00000012,0.00017189,-0.00000001,-0.000
 00010,0.00005649,0.,-0.00000001,-0.00010084,0.,0.,-0.00016652,0.,0.,-0
 .00003900,0.,0.,-0.00008735,0.00000130,-0.00000304,0.01781210,0.000000
 04,-0.00000005,-0.00113095,-0.00000085,-0.00000041,0.01661541,-0.00000
 016,-0.00000025,0.00194557,-0.00000474,-0.00000229,-0.05094400,-0.0000
 0010,-0.00000010,0.00005157,-0.00000005,0.00000002,-0.00185567,-0.0000
 0045,0.00000037,0.01112206,0.00000019,0.,0.00377708,0.,0.,0.00009914,0
 .00000002,0.00000004,-0.00322690,0.,0.,-0.00027612,0.00000038,0.000000
 36,-0.00326435,0.00000606,0.00000471,0.04311344,-0.00038530,-0.0007485
 0,0.,-0.00415594,-0.00313031,0.,-0.00671051,0.01110544,0.00000018,0.00
 344398,-0.00096283,-0.00000002,0.00028207,0.00246430,0.,-0.00099704,-0
 .00106089,0.,0.00009649,-0.00002742,0.,-0.00044373,-0.00007642,0.,0.00
 005311,-0.00003760,0.,-0.00000140,-0.00008402,0.,-0.03351355,-0.031635
 71,-0.00000105,-0.00283948,-0.00672471,-0.00000007,0.00718340,-0.00391
 369,-0.00000016,-0.00847094,0.00268643,0.00000010,-0.03798990,0.019603
 08,0.00000019,0.00250654,-0.00652668,-0.00000004,0.00054949,0.00036038
 ,0.00000002,0.00165690,-0.00237649,0.00000012,0.00240478,0.00345520,-0
 .00000004,0.00008437,0.00001854,0.,-0.00027019,0.00018840,0.,0.0001829
 3,0.00006592,-0.00000001,-0.00099808,-0.01639546,-0.00000044,-0.016864
 85,-0.02938016,-0.00000094,0.09519682,0.00301750,0.00180994,-0.0000000
 6,0.00474239,0.01439957,-0.00000009,0.03558927,-0.01535765,0.00000054,
 -0.00895539,0.00408275,0.00000006,-0.00123489,-0.00717024,-0.00000002,
 0.00189569,0.00331582,0.00000002,-0.00035886,0.00057962,0.,0.00021152,
 -0.00034065,0.,-0.00031014,0.00025304,0.,-0.00010731,0.00022312,0.,-0.
 04723271,0.01133218,0.00000097,0.00260218,0.01353413,0.00000010,-0.027
 27425,0.01351036,0.00000059,0.02753150,-0.00881438,-0.00000033,0.04425
 435,0.01718753,0.00000075,-0.00778953,0.02190947,0.00000016,-0.0009144
 2,-0.00070475,-0.00000007,-0.01155382,0.00000414,-0.00000037,-0.008952
 70,-0.00810390,0.00000001,-0.00002498,-0.00021920,0.,0.00079493,-0.000
 43443,0.00000003,-0.00108203,-0.00050242,0.00000001,-0.01384921,-0.024
 21793,-0.00000057,-0.05413227,-0.01141706,0.00000079,0.06313318,-0.024
 85904,0.00000007,0.00000013,0.00049506,0.00000002,0.00000036,0.0017277
 8,0.00000105,0.00000034,-0.00530522,-0.00000007,0.00000006,-0.00073416
 ,-0.00000006,-0.00000014,-0.00006319,0.00000009,0.00000003,-0.00008636
 ,-0.00000002,0.00000003,-0.00003602,0.,-0.00000002,-0.00000607,0.,0.00
 000001,0.00006704,0.,0.,0.00004560,-0.00000169,0.,-0.02515026,0.000000
 11,0.00000041,0.00142070,-0.00000056,0.00000030,-0.00488867,0.00000064
 ,-0.00000024,0.00028621,0.00000101,0.00000097,-0.00010718,-0.00000016,
 0.00000046,-0.00021324,-0.00000002,-0.00000003,0.00060994,-0.00000050,
 -0.00000015,0.00531371,-0.00000019,-0.00000006,0.00050891,0.,0.,0.0000
 3624,0.00000003,-0.00000001,-0.00054553,-0.00000005,-0.00000002,-0.000
 51537,-0.00000030,-0.00000046,0.00455989,-0.00000157,0.00000057,-0.033
 08273,0.00000217,-0.00000255,0.05566292\\-0.00103861,-0.00005319,0.000
 00011,-0.00022147,0.00021468,0.00000004,0.00017754,0.00031813,-0.00000
 002,0.00061114,-0.00091522,-0.00000015,-0.00025007,-0.00124624,-0.0000
 0003,-0.00105799,-0.00100881,0.00000007,-0.00013000,0.00001976,-0.0000
 0003,0.00010772,-0.00010525,0.00000003,-0.00002521,-0.00016856,0.00000
 001,-0.00012603,-0.00010261,-0.00000002,0.00162193,0.00024799,-0.00000
 023,0.00047871,0.00264415,-0.00000014,0.00082811,0.00008765,-0.0000001
 5,0.00036811,-0.00069154,0.00000012,-0.00097590,0.00033041,0.00000032,
 0.00005537,-0.00172147,0.00000021,0.00009778,-0.00009311,0.00000007,-0
 .00072913,-0.00020427,-0.00000027,-0.00059099,-0.00103925,-0.00000020,
 0.00001419,-0.00017533,-0.00000003,-0.00014200,0.00001977,-0.00000001,
 -0.00008132,-0.00012252,0.,0.00123363,0.00106036,0.,0.00005517,0.00127
 432,0.00000022,-0.00028070,0.00143016,0.00000009\\\@
 The archive entry for this job was punched.


 A great many people think they are thinking when they
 are merely rearranging their prejudices.
                               -- William James
 Job cpu time:       0 days  2 hours 54 minutes 33.7 seconds.
 Elapsed time:       0 days  0 hours 17 minutes 57.6 seconds.
 File lengths (MBytes):  RWF=   1380 Int=      0 D2E=      0 Chk=     48 Scr=      8
 Normal termination of Gaussian 16 at Mon Jul 13 15:00:17 2020.
