 Entering Gaussian System, Link 0=g16
 Initial command:
 /gpfs/loomis/apps/avx/software/Gaussian/16-C.01_AVX/g16/l1.exe "/home/fas/batista/pev4/scratch60/gauss-scratch/Gau-143785.inp" -scrdir="/home/fas/batista/pev4/scratch60/gauss-scratch/"
 Entering Link 1 = /gpfs/loomis/apps/avx/software/Gaussian/16-C.01_AVX/g16/l1.exe PID=    143786.
  
 Copyright (c) 1988-2019, Gaussian, Inc.  All Rights Reserved.
  
 This is part of the Gaussian(R) 16 program.  It is based on
 the Gaussian(R) 09 system (copyright 2009, Gaussian, Inc.),
 the Gaussian(R) 03 system (copyright 2003, Gaussian, Inc.),
 the Gaussian(R) 98 system (copyright 1998, Gaussian, Inc.),
 the Gaussian(R) 94 system (copyright 1995, Gaussian, Inc.),
 the Gaussian 92(TM) system (copyright 1992, Gaussian, Inc.),
 the Gaussian 90(TM) system (copyright 1990, Gaussian, Inc.),
 the Gaussian 88(TM) system (copyright 1988, Gaussian, Inc.),
 the Gaussian 86(TM) system (copyright 1986, Carnegie Mellon
 University), and the Gaussian 82(TM) system (copyright 1983,
 Carnegie Mellon University). Gaussian is a federally registered
 trademark of Gaussian, Inc.
  
 This software contains proprietary and confidential information,
 including trade secrets, belonging to Gaussian, Inc.
  
 This software is provided under written license and may be
 used, copied, transmitted, or stored only in accord with that
 written license.
  
 The following legend is applicable only to US Government
 contracts under FAR:
  
                    RESTRICTED RIGHTS LEGEND
  
 Use, reproduction and disclosure by the US Government is
 subject to restrictions as set forth in subparagraphs (a)
 and (c) of the Commercial Computer Software - Restricted
 Rights clause in FAR 52.227-19.
  
 Gaussian, Inc.
 340 Quinnipiac St., Bldg. 40, Wallingford CT 06492
  
  
 ---------------------------------------------------------------
 Warning -- This program may not be used in any manner that
 competes with the business of Gaussian, Inc. or will provide
 assistance to any competitor of Gaussian, Inc.  The licensee
 of this program is prohibited from giving any competitor of
 Gaussian, Inc. access to this program.  By using this program,
 the user acknowledges that Gaussian, Inc. is engaged in the
 business of creating and licensing software in the field of
 computational chemistry and represents and warrants to the
 licensee that it is not a competitor of Gaussian, Inc. and that
 it will not use this program in any manner prohibited above.
 ---------------------------------------------------------------
  

 Cite this work as:
 Gaussian 16, Revision C.01,
 M. J. Frisch, G. W. Trucks, H. B. Schlegel, G. E. Scuseria, 
 M. A. Robb, J. R. Cheeseman, G. Scalmani, V. Barone, 
 G. A. Petersson, H. Nakatsuji, X. Li, M. Caricato, A. V. Marenich, 
 J. Bloino, B. G. Janesko, R. Gomperts, B. Mennucci, H. P. Hratchian, 
 J. V. Ortiz, A. F. Izmaylov, J. L. Sonnenberg, D. Williams-Young, 
 F. Ding, F. Lipparini, F. Egidi, J. Goings, B. Peng, A. Petrone, 
 T. Henderson, D. Ranasinghe, V. G. Zakrzewski, J. Gao, N. Rega, 
 G. Zheng, W. Liang, M. Hada, M. Ehara, K. Toyota, R. Fukuda, 
 J. Hasegawa, M. Ishida, T. Nakajima, Y. Honda, O. Kitao, H. Nakai, 
 T. Vreven, K. Throssell, J. A. Montgomery, Jr., J. E. Peralta, 
 F. Ogliaro, M. J. Bearpark, J. J. Heyd, E. N. Brothers, K. N. Kudin, 
 V. N. Staroverov, T. A. Keith, R. Kobayashi, J. Normand, 
 K. Raghavachari, A. P. Rendell, J. C. Burant, S. S. Iyengar, 
 J. Tomasi, M. Cossi, J. M. Millam, M. Klene, C. Adamo, R. Cammi, 
 J. W. Ochterski, R. L. Martin, K. Morokuma, O. Farkas, 
 J. B. Foresman, and D. J. Fox, Gaussian, Inc., Wallingford CT, 2019.
 
 ******************************************
 Gaussian 16:  ES64L-G16RevC.01  3-Jul-2019
                13-Jul-2020 
 ******************************************
 %chk=config_7_4.chk
 %mem=58GB
 %nprocshared=10
 Will use up to   10 processors via shared memory.
 ----------------------------------------------------------------------
 #p opt=addgic freq td wb97xd/cc-pvdz nosymm int=ultrafine scrf=(solven
 t=CarbonTetraChloride)
 ----------------------------------------------------------------------
 1/18=20,19=15,26=6,38=1,145=903/1,3;
 2/9=110,12=2,15=1,17=6,18=5,40=1/2;
 3/5=16,11=9,25=1,30=1,70=2201,71=1,72=11,74=-58,75=-5/1,2,3,8;
 4//1;
 5/5=2,38=5,53=11/2;
 8/6=1,10=1/1;
 9/15=2,42=1,70=2/14;
 10/5=4,31=1/2;
 6/7=2,8=2,9=2,10=2/1;
 7/12=6,13=5,30=1/1,2,3,16;
 1/18=20,19=15,26=6,145=903/3(2);
 2/9=110,15=1/2;
 99//99;
 2/9=110,15=1/2;
 3/5=16,11=9,25=1,30=1,70=2205,71=1,72=11,74=-58,75=-5/1,2,3,8;
 4/5=5,16=3,69=1/1;
 5/5=2,38=5,53=11/2;
 8/6=1,10=1/1;
 9/15=2,42=1,49=4,70=2/14;
 10/5=4,31=1/2;
 7/12=6,13=5,30=1/1,2,3,16;
 1/18=20,19=15,26=6,145=903/3(-8);
 2/9=110,15=1/2;
 6/7=2,8=2,9=2,10=2/1;
 99/9=10/99;
 Leave Link    1 at Mon Jul 13 14:41:42 2020, MaxMem=  7784628224 cpu:               5.2 elap:               0.6
 (Enter /gpfs/loomis/apps/avx/software/Gaussian/16-C.01_AVX/g16/l101.exe)
 ------------------------------------------------
 NM 2D-scan of HBT TD-WB97XD pVDZ in CTC Relaxed.
 ------------------------------------------------
 Symbolic Z-matrix:
 Charge =  0 Multiplicity = 1
 C                     1.71988  -3.26891  -0.00002 
 C                     1.00217  -2.07248  -0.00002 
 C                     1.68069  -0.82185  -0.00002 
 C                     3.08945  -0.77805  -0.00002 
 C                     3.78957  -1.9729   -0.00002 
 C                     3.11675  -3.20838  -0.00002 
 H                     1.20651  -4.23267  -0.00002 
 H                     3.59708   0.18848  -0.00002 
 H                     4.88162  -1.9563   -0.00002 
 H                     3.69179  -4.13625  -0.00003 
 N                     0.86495   0.25268  -0.00002 
 S                    -0.74405  -1.81006  -0.00002 
 C                    -1.40669   1.00914   0. 
 C                    -2.80373   0.86979  -0.00001 
 C                    -0.86621   2.39773   0.00003 
 C                    -3.6452    1.99601   0.00002 
 H                    -3.24637  -0.12945  -0.00004 
 C                    -1.75417   3.49911   0.00006 
 C                    -3.13208   3.30707   0.00006 
 H                    -4.72633   1.84289   0.00002 
 H                    -1.30303   4.49328   0.00009 
 H                    -3.81004   4.16161   0.00009 
 C                    -0.45775  -0.05362  -0.00001 
 O                     0.40429   2.61123   0.00003 
 H                     0.91746   1.48958   0. 
 
 Add virtual bond connecting atoms H25        and N11        Dist= 2.34D+00.
 Add virtual bond connecting atoms H25        and O24        Dist= 2.33D+00.
 Initializing the GIC definitions file.
 Number of initial coordinates =   142
 Number of input entries/lines =    52
 Number of additional coordinates =     2
 Number of removed coordinates =     0
 Number of frozen coordinates =     2
 Number of final active and frozen coordinates =   144
 ITRead=  0  0  0  0  0  0  0  0  0  0  0  0  0  0  0  0  0  0  0  0
 ITRead=  0  0  0  0  0
 MicOpt= -1 -1 -1 -1 -1 -1 -1 -1 -1 -1 -1 -1 -1 -1 -1 -1 -1 -1 -1 -1
 MicOpt= -1 -1 -1 -1 -1
 NAtoms=     25 NQM=       25 NQMF=       0 NMMI=      0 NMMIF=      0
                NMic=       0 NMicF=      0.
                    Isotopes and Nuclear Properties:
 (Nuclear quadrupole moments (NQMom) in fm**2, nuclear magnetic moments (NMagM)
  in nuclear magnetons)

  Atom         1           2           3           4           5           6           7           8           9          10
 IAtWgt=          12          12          12          12          12          12           1           1           1           1
 AtmWgt=  12.0000000  12.0000000  12.0000000  12.0000000  12.0000000  12.0000000   1.0078250   1.0078250   1.0078250   1.0078250
 NucSpn=           0           0           0           0           0           0           1           1           1           1
 AtZEff=  -0.0000000  -0.0000000  -0.0000000  -0.0000000  -0.0000000  -0.0000000  -0.0000000  -0.0000000  -0.0000000  -0.0000000
 NQMom=    0.0000000   0.0000000   0.0000000   0.0000000   0.0000000   0.0000000   0.0000000   0.0000000   0.0000000   0.0000000
 NMagM=    0.0000000   0.0000000   0.0000000   0.0000000   0.0000000   0.0000000   2.7928460   2.7928460   2.7928460   2.7928460
 AtZNuc=   6.0000000   6.0000000   6.0000000   6.0000000   6.0000000   6.0000000   1.0000000   1.0000000   1.0000000   1.0000000

  Atom        11          12          13          14          15          16          17          18          19          20
 IAtWgt=          14          32          12          12          12          12           1          12          12           1
 AtmWgt=  14.0030740  31.9720718  12.0000000  12.0000000  12.0000000  12.0000000   1.0078250  12.0000000  12.0000000   1.0078250
 NucSpn=           2           0           0           0           0           0           1           0           0           1
 AtZEff=  -0.0000000  -0.0000000  -0.0000000  -0.0000000  -0.0000000  -0.0000000  -0.0000000  -0.0000000  -0.0000000  -0.0000000
 NQMom=    2.0440000   0.0000000   0.0000000   0.0000000   0.0000000   0.0000000   0.0000000   0.0000000   0.0000000   0.0000000
 NMagM=    0.4037610   0.0000000   0.0000000   0.0000000   0.0000000   0.0000000   2.7928460   0.0000000   0.0000000   2.7928460
 AtZNuc=   7.0000000  16.0000000   6.0000000   6.0000000   6.0000000   6.0000000   1.0000000   6.0000000   6.0000000   1.0000000

  Atom        21          22          23          24          25
 IAtWgt=           1           1          12          16           1
 AtmWgt=   1.0078250   1.0078250  12.0000000  15.9949146   1.0078250
 NucSpn=           1           1           0           0           1
 AtZEff=  -0.0000000  -0.0000000  -0.0000000  -0.0000000  -0.0000000
 NQMom=    0.0000000   0.0000000   0.0000000   0.0000000   0.0000000
 NMagM=    2.7928460   2.7928460   0.0000000   0.0000000   2.7928460
 AtZNuc=   1.0000000   1.0000000   6.0000000   8.0000000   1.0000000
 Leave Link  101 at Mon Jul 13 14:41:46 2020, MaxMem=  7784628224 cpu:              32.1 elap:               3.2
 (Enter /gpfs/loomis/apps/avx/software/Gaussian/16-C.01_AVX/g16/l103.exe)

 GradGradGradGradGradGradGradGradGradGradGradGradGradGradGradGradGradGrad
 Berny optimization.
 Initialization pass.
                           ----------------------------
                           !    Initial Parameters    !
                           ! (Angstroms and Degrees)  !
 --------------------------                            --------------------------
 ! Name  Definition              Value          Derivative Info.                !
 --------------------------------------------------------------------------------
 ! R1    R(1,2)                  1.3952         estimate D2E/DX2                !
 ! R2    R(1,6)                  1.3982         estimate D2E/DX2                !
 ! R3    R(1,7)                  1.092          estimate D2E/DX2                !
 ! R4    R(2,3)                  1.4228         estimate D2E/DX2                !
 ! R5    R(2,12)                 1.7658         estimate D2E/DX2                !
 ! R6    R(3,4)                  1.4094         estimate D2E/DX2                !
 ! R7    R(3,11)                 1.3491         estimate D2E/DX2                !
 ! R8    R(4,5)                  1.3849         estimate D2E/DX2                !
 ! R9    R(4,8)                  1.0917         estimate D2E/DX2                !
 ! R10   R(5,6)                  1.4068         estimate D2E/DX2                !
 ! R11   R(5,9)                  1.0922         estimate D2E/DX2                !
 ! R12   R(6,10)                 1.0916         estimate D2E/DX2                !
 ! R13   R(11,23)                1.3577         estimate D2E/DX2                !
 ! R14   R(11,25)                1.238          estimate D2E/DX2                !
 ! R15   R(12,23)                1.7796         estimate D2E/DX2                !
 ! R16   R(13,14)                1.404          estimate D2E/DX2                !
 ! R17   R(13,15)                1.4901         estimate D2E/DX2                !
 ! R18   R(13,23)                1.4248         estimate D2E/DX2                !
 ! R19   R(14,16)                1.4059         estimate D2E/DX2                !
 ! R20   R(14,17)                1.0929         estimate D2E/DX2                !
 ! R21   R(15,18)                1.4147         estimate D2E/DX2                !
 ! R22   R(15,24)                1.2883         estimate D2E/DX2                !
 ! R23   R(16,19)                1.4079         estimate D2E/DX2                !
 ! R24   R(16,20)                1.0919         estimate D2E/DX2                !
 ! R25   R(18,19)                1.3912         estimate D2E/DX2                !
 ! R26   R(18,21)                1.0917         estimate D2E/DX2                !
 ! R27   R(19,22)                1.0908         estimate D2E/DX2                !
 ! R28   R(24,25)                1.2335         estimate D2E/DX2                !
 ! A1    A(2,1,6)              118.4772         estimate D2E/DX2                !
 ! A2    A(2,1,7)              120.9988         estimate D2E/DX2                !
 ! A3    A(6,1,7)              120.524          estimate D2E/DX2                !
 ! A4    A(1,2,3)              120.56           estimate D2E/DX2                !
 ! A5    A(1,2,12)             129.5052         estimate D2E/DX2                !
 ! A6    A(3,2,12)             109.9348         estimate D2E/DX2                !
 ! A7    A(2,3,4)              120.2621         estimate D2E/DX2                !
 ! A8    A(2,3,11)             114.3142         estimate D2E/DX2                !
 ! A9    A(4,3,11)             125.4238         estimate D2E/DX2                !
 ! A10   A(3,4,5)              118.5876         estimate D2E/DX2                !
 ! A11   A(3,4,8)              119.4892         estimate D2E/DX2                !
 ! A12   A(5,4,8)              121.9232         estimate D2E/DX2                !
 ! A13   A(4,5,6)              121.0597         estimate D2E/DX2                !
 ! A14   A(4,5,9)              119.4973         estimate D2E/DX2                !
 ! A15   A(6,5,9)              119.443          estimate D2E/DX2                !
 ! A16   A(1,6,5)              121.0535         estimate D2E/DX2                !
 ! A17   A(1,6,10)             119.307          estimate D2E/DX2                !
 ! A18   A(5,6,10)             119.6395         estimate D2E/DX2                !
 ! A19   A(3,11,23)            114.1659         estimate D2E/DX2                !
 ! A20   A(3,11,25)            140.3644         estimate D2E/DX2                !
 ! A21   A(23,11,25)           105.4697         estimate D2E/DX2                !
 ! A22   A(2,12,23)             89.2888         estimate D2E/DX2                !
 ! A23   A(14,13,15)           116.9632         estimate D2E/DX2                !
 ! A24   A(14,13,23)           126.0659         estimate D2E/DX2                !
 ! A25   A(15,13,23)           116.9709         estimate D2E/DX2                !
 ! A26   A(13,14,16)           121.0698         estimate D2E/DX2                !
 ! A27   A(13,14,17)           119.5877         estimate D2E/DX2                !
 ! A28   A(16,14,17)           119.3425         estimate D2E/DX2                !
 ! A29   A(13,15,18)           119.8557         estimate D2E/DX2                !
 ! A30   A(13,15,24)           120.8066         estimate D2E/DX2                !
 ! A31   A(18,15,24)           119.3377         estimate D2E/DX2                !
 ! A32   A(14,16,19)           121.8602         estimate D2E/DX2                !
 ! A33   A(14,16,20)           118.7044         estimate D2E/DX2                !
 ! A34   A(19,16,20)           119.4354         estimate D2E/DX2                !
 ! A35   A(15,18,19)           120.9427         estimate D2E/DX2                !
 ! A36   A(15,18,21)           116.7154         estimate D2E/DX2                !
 ! A37   A(19,18,21)           122.3419         estimate D2E/DX2                !
 ! A38   A(16,19,18)           119.3083         estimate D2E/DX2                !
 ! A39   A(16,19,22)           120.199          estimate D2E/DX2                !
 ! A40   A(18,19,22)           120.4928         estimate D2E/DX2                !
 ! A41   A(11,23,12)           112.2963         estimate D2E/DX2                !
 ! A42   A(11,23,13)           118.7233         estimate D2E/DX2                !
 ! A43   A(12,23,13)           128.9804         estimate D2E/DX2                !
 ! A44   A(15,24,25)           105.0455         estimate D2E/DX2                !
 ! A45   A(11,25,24)           152.984          estimate D2E/DX2                !
 ! D1    D(6,1,2,3)              0.0            estimate D2E/DX2                !
 ! D2    D(6,1,2,12)          -179.9999         estimate D2E/DX2                !
 ! D3    D(7,1,2,3)            180.0            estimate D2E/DX2                !
 ! D4    D(7,1,2,12)             0.0            estimate D2E/DX2                !
 ! D5    D(2,1,6,5)              0.0            estimate D2E/DX2                !
 ! D6    D(2,1,6,10)           180.0            estimate D2E/DX2                !
 ! D7    D(7,1,6,5)           -179.9999         estimate D2E/DX2                !
 ! D8    D(7,1,6,10)             0.0001         estimate D2E/DX2                !
 ! D9    D(1,2,3,4)              0.0            estimate D2E/DX2                !
 ! D10   D(1,2,3,11)           179.9999         estimate D2E/DX2                !
 ! D11   D(12,2,3,4)           179.9999         estimate D2E/DX2                !
 ! D12   D(12,2,3,11)           -0.0001         estimate D2E/DX2                !
 ! D13   D(1,2,12,23)          179.9999         estimate D2E/DX2                !
 ! D14   D(3,2,12,23)            0.0            estimate D2E/DX2                !
 ! D15   D(2,3,4,5)              0.0            estimate D2E/DX2                !
 ! D16   D(2,3,4,8)           -180.0            estimate D2E/DX2                !
 ! D17   D(11,3,4,5)          -180.0            estimate D2E/DX2                !
 ! D18   D(11,3,4,8)             0.0            estimate D2E/DX2                !
 ! D19   D(2,3,11,23)            0.0002         estimate D2E/DX2                !
 ! D20   D(2,3,11,25)          179.9985         estimate D2E/DX2                !
 ! D21   D(4,3,11,23)         -179.9998         estimate D2E/DX2                !
 ! D22   D(4,3,11,25)           -0.0015         estimate D2E/DX2                !
 ! D23   D(3,4,5,6)              0.0            estimate D2E/DX2                !
 ! D24   D(3,4,5,9)           -180.0            estimate D2E/DX2                !
 ! D25   D(8,4,5,6)           -180.0            estimate D2E/DX2                !
 ! D26   D(8,4,5,9)              0.0            estimate D2E/DX2                !
 ! D27   D(4,5,6,1)              0.0            estimate D2E/DX2                !
 ! D28   D(4,5,6,10)          -180.0            estimate D2E/DX2                !
 ! D29   D(9,5,6,1)            180.0            estimate D2E/DX2                !
 ! D30   D(9,5,6,10)             0.0            estimate D2E/DX2                !
 ! D31   D(3,11,23,12)          -0.0002         estimate D2E/DX2                !
 ! D32   D(3,11,23,13)         179.9994         estimate D2E/DX2                !
 ! D33   D(25,11,23,12)       -179.9991         estimate D2E/DX2                !
 ! D34   D(25,11,23,13)          0.0005         estimate D2E/DX2                !
 ! D35   D(3,11,25,24)        -179.9982         estimate D2E/DX2                !
 ! D36   D(23,11,25,24)          0.0002         estimate D2E/DX2                !
 ! D37   D(2,12,23,11)           0.0001         estimate D2E/DX2                !
 ! D38   D(2,12,23,13)        -179.9994         estimate D2E/DX2                !
 ! D39   D(15,13,14,16)         -0.0006         estimate D2E/DX2                !
 ! D40   D(15,13,14,17)        179.9996         estimate D2E/DX2                !
 ! D41   D(23,13,14,16)        179.9993         estimate D2E/DX2                !
 ! D42   D(23,13,14,17)         -0.0005         estimate D2E/DX2                !
 ! D43   D(14,13,15,18)          0.0006         estimate D2E/DX2                !
 ! D44   D(14,13,15,24)       -179.9995         estimate D2E/DX2                !
 ! D45   D(23,13,15,18)       -179.9993         estimate D2E/DX2                !
 ! D46   D(23,13,15,24)          0.0006         estimate D2E/DX2                !
 ! D47   D(14,13,23,11)        179.9993         estimate D2E/DX2                !
 ! D48   D(14,13,23,12)         -0.0012         estimate D2E/DX2                !
 ! D49   D(15,13,23,11)         -0.0009         estimate D2E/DX2                !
 ! D50   D(15,13,23,12)        179.9987         estimate D2E/DX2                !
 ! D51   D(13,14,16,19)          0.0001         estimate D2E/DX2                !
 ! D52   D(13,14,16,20)       -179.9998         estimate D2E/DX2                !
 ! D53   D(17,14,16,19)        180.0            estimate D2E/DX2                !
 ! D54   D(17,14,16,20)          0.0            estimate D2E/DX2                !
 ! D55   D(13,15,18,19)         -0.0002         estimate D2E/DX2                !
 ! D56   D(13,15,18,21)        179.9998         estimate D2E/DX2                !
 ! D57   D(24,15,18,19)        179.9999         estimate D2E/DX2                !
 ! D58   D(24,15,18,21)         -0.0001         estimate D2E/DX2                !
 ! D59   D(13,15,24,25)         -0.0001         estimate D2E/DX2                !
 ! D60   D(18,15,24,25)        179.9998         estimate D2E/DX2                !
 ! D61   D(14,16,19,18)          0.0003         estimate D2E/DX2                !
 ! D62   D(14,16,19,22)       -179.9998         estimate D2E/DX2                !
 ! D63   D(20,16,19,18)       -179.9998         estimate D2E/DX2                !
 ! D64   D(20,16,19,22)          0.0001         estimate D2E/DX2                !
 ! D65   D(15,18,19,16)         -0.0002         estimate D2E/DX2                !
 ! D66   D(15,18,19,22)        179.9998         estimate D2E/DX2                !
 ! D67   D(21,18,19,16)        179.9998         estimate D2E/DX2                !
 ! D68   D(21,18,19,22)         -0.0001         estimate D2E/DX2                !
 ! D69   D(15,24,25,11)         -0.0004         estimate D2E/DX2                !
 ! Qtot  GIC-1                  10.0            Frozen                          !
 ! Ptot  GIC-2                 -80.0            Frozen                          !
 --------------------------------------------------------------------------------
 NOTE: GIC-type coordinates are in arbitrary units.
 Trust Radius=3.00D-01 FncErr=5.00D-06 GrdErr=5.00D-06 EigMax=2.50D+02 EigMin=1.00D-04
 Number of steps in this run=    150 maximum allowed number of steps=    150.
 GradGradGradGradGradGradGradGradGradGradGradGradGradGradGradGradGradGrad

 Leave Link  103 at Mon Jul 13 14:41:46 2020, MaxMem=  7784628224 cpu:               0.3 elap:               0.1
 (Enter /gpfs/loomis/apps/avx/software/Gaussian/16-C.01_AVX/g16/l202.exe)
                          Input orientation:                          
 ---------------------------------------------------------------------
 Center     Atomic      Atomic             Coordinates (Angstroms)
 Number     Number       Type             X           Y           Z
 ---------------------------------------------------------------------
      1          6           0        1.719877   -3.268910   -0.000024
      2          6           0        1.002171   -2.072484   -0.000021
      3          6           0        1.680687   -0.821847   -0.000019
      4          6           0        3.089452   -0.778052   -0.000020
      5          6           0        3.789573   -1.972901   -0.000022
      6          6           0        3.116749   -3.208377   -0.000024
      7          1           0        1.206514   -4.232673   -0.000024
      8          1           0        3.597077    0.188478   -0.000018
      9          1           0        4.881623   -1.956300   -0.000022
     10          1           0        3.691793   -4.136249   -0.000026
     11          7           0        0.864946    0.252683   -0.000018
     12         16           0       -0.744050   -1.810056   -0.000018
     13          6           0       -1.406687    1.009137    0.000001
     14          6           0       -2.803731    0.869795   -0.000008
     15          6           0       -0.866208    2.397730    0.000031
     16          6           0       -3.645196    1.996010    0.000022
     17          1           0       -3.246365   -0.129450   -0.000037
     18          6           0       -1.754174    3.499106    0.000061
     19          6           0       -3.132082    3.307067    0.000060
     20          1           0       -4.726327    1.842889    0.000017
     21          1           0       -1.303034    4.493283    0.000086
     22          1           0       -3.810040    4.161611    0.000087
     23          6           0       -0.457748   -0.053620   -0.000014
     24          8           0        0.404290    2.611233    0.000031
     25          1           0        0.917462    1.489579    0.000005
 ---------------------------------------------------------------------
                    Distance matrix (angstroms):
                    1          2          3          4          5
     1  C    0.000000
     2  C    1.395183   0.000000
     3  C    2.447376   1.422841   0.000000
     4  C    2.842553   2.456073   1.409445   0.000000
     5  C    2.441983   2.789181   2.402566   1.384859   0.000000
     6  C    1.398184   2.400353   2.785282   2.430478   1.406802
     7  H    1.091962   2.169832   3.443628   3.934445   3.432020
     8  H    3.934134   3.441727   2.166404   1.091725   2.169934
     9  H    3.423387   3.881191   3.396023   2.144795   1.092176
    10  H    2.154236   3.390161   3.876829   3.411788   2.165556
    11  N    3.623882   2.329213   1.349092   2.451702   3.675142
    12  S    2.863422   1.765830   2.618379   3.969983   4.536547
    13  C    5.298781   3.911392   3.589482   4.838317   5.991132
    14  C    6.131224   4.810603   4.792876   6.119233   7.180013
    15  C    6.228856   4.844962   4.105162   5.072755   6.385822
    16  C    7.516874   6.176623   6.025393   7.283605   8.427814
    17  H    5.875352   4.671771   4.975466   6.368929   7.273427
    18  C    7.607566   6.216112   5.519865   6.461795   7.789480
    19  C    8.172208   6.784661   6.341190   7.442828   8.705595
    20  H    8.227030   6.938719   6.939067   8.243526   9.331709
    21  H    8.330044   6.958683   6.095343   6.861553   8.230807
    22  H    9.262430   7.875361   7.415048   8.485473   9.766594
    23  C    3.883315   2.491420   2.272241   3.620419   4.660835
    24  O    6.025516   4.721723   3.662680   4.324043   5.698633
    25  H    4.825669   3.563070   2.434174   3.140014   4.498643
                    6          7          8          9         10
     6  C    0.000000
     7  H    2.167529   0.000000
     8  H    3.430646   5.026068   0.000000
     9  H    2.163902   4.322996   2.500026   0.000000
    10  H    1.091614   2.487149   4.325763   2.483519   0.000000
    11  N    4.129111   4.498342   2.732886   4.584027   5.220516
    12  S    4.106224   3.110269   4.779071   5.627573   5.008780
    13  C    6.184569   5.857080   5.070615   6.952457   7.243583
    14  C    7.189129   6.489780   6.436967   8.188497   8.200751
    15  C    6.876946   6.946828   4.980132   7.210766   7.966697
    16  C    8.532852   7.895289   7.464429   9.398266   9.562218
    17  H    7.068877   6.055127   6.850823   8.330760   8.012021
    18  C    8.289525   8.279256   6.292547   8.590417   9.378550
    19  C    9.027675   8.698913   7.416683   9.587622  10.097932
    20  H    9.328940   8.491822   8.486231  10.331821  10.325445
    21  H    8.879755   9.079655   6.522457   8.935721   9.970813
    22  H   10.114204   9.779049   8.405425  10.628915  11.186240
    23  C    4.767549   4.498250   4.062046   5.668251   5.821215
    24  O    6.420692   6.890762   4.007946   6.396004   7.505743
    25  H    5.187259   5.729548   2.978792   5.252490   6.272706
                   11         12         13         14         15
    11  N    0.000000
    12  S    2.616058   0.000000
    13  C    2.394272   2.896021   0.000000
    14  C    3.720218   3.379924   1.403976   0.000000
    15  C    2.756469   4.209559   1.490070   2.467505   0.000000
    16  C    4.835346   4.785686   2.446394   1.405854   2.807873
    17  H    4.129032   3.014302   2.163515   1.092893   3.471568
    18  C    4.171217   5.404401   2.514099   2.831050   1.414748
    19  C    5.030457   5.646915   2.873582   2.459291   2.441532
    20  H    5.813010   5.403937   3.422740   2.154828   3.899790
    21  H    4.762649   6.328076   3.485688   3.921959   2.140598
    22  H    6.093866   6.712756   3.964114   3.442196   3.431824
    23  C    1.357697   1.779617   1.424759   2.521177   2.485148
    24  O    2.403115   4.567984   2.417923   3.650207   1.288313
    25  H    1.238011   3.694349   2.373288   3.772455   2.001554
                   16         17         18         19         20
    16  C    0.000000
    17  H    2.162556   0.000000
    18  C    2.415628   3.923398   0.000000
    19  C    1.407891   3.438417   1.391226   0.000000
    20  H    1.091920   2.465848   3.402462   2.164587   0.000000
    21  H    3.423754   5.014599   1.091749   2.180028   4.329379
    22  H    2.171865   4.327925   2.159976   1.090812   2.493202
    23  C    3.789566   2.789648   3.781875   4.294913   4.670921
    24  O    4.095954   4.564935   2.333942   3.604180   5.187830
    25  H    4.590678   4.467518   3.343029   4.438702   5.654837
                   21         22         23         24         25
    21  H    0.000000
    22  H    2.528850   0.000000
    23  C    4.624807   5.385725   0.000000
    24  O    2.541077   4.490462   2.800813   0.000000
    25  H    3.735351   5.430380   2.067043   1.233472   0.000000
 Symmetry turned off by external request.
 Stoichiometry    C13H9NOS
 Framework group  C1[X(C13H9NOS)]
 Deg. of freedom    69
 Full point group                 C1      NOp   1
 Rotational constants (GHZ):           1.3607472           0.2855909           0.2360493
 Leave Link  202 at Mon Jul 13 14:41:46 2020, MaxMem=  7784628224 cpu:               0.1 elap:               0.0
 (Enter /gpfs/loomis/apps/avx/software/Gaussian/16-C.01_AVX/g16/l301.exe)
 Standard basis: CC-pVDZ (5D, 7F)
 Ernie: Thresh=  0.10000D-02 Tol=  0.10000D-05 Strict=F.
 Ernie:  40 primitive shells out of 425 were deleted.
   273 basis functions,   629 primitive gaussians,   289 cartesian basis functions
    59 alpha electrons       59 beta electrons
       nuclear repulsion energy      1096.2062442389 Hartrees.
 IExCor= 4639 DFT=T Ex+Corr=wB97XD ExCW=0 ScaHFX=  1.000000
 ScaDFX=  1.000000  1.000000  1.000000  1.000000 ScalE2=  1.000000  1.000000
 IRadAn=      5 IRanWt=     -1 IRanGd=            0 ICorTp=0 IEmpDi=121
 HFx  wShort=  0.000000 wLong=  0.200000 cFull=  0.222036 cShort=  0.000000 cLong=  0.777964
 DFx  wShort=  0.000000 wLong=  0.200000 cFull=  0.000000 cShort=  0.000000 cLong=  1.000000
 NAtoms=   25 NActive=   25 NUniq=   25 SFac= 1.00D+00 NAtFMM=   60 NAOKFM=F Big=F
 Integral buffers will be    131072 words long.
 Raffenetti 1 integral format.
 Two-electron integral symmetry is turned off.
 R6Disp:  Grimme-D2 Dispersion energy=       -0.0140114859 Hartrees.
 Nuclear repulsion after empirical dispersion term =     1096.1922327531 Hartrees.
 ------------------------------------------------------------------------------
 Polarizable Continuum Model (PCM)
 =================================
 Model                : PCM.
 Atomic radii         : UFF (Universal Force Field).
 Polarization charges : Total charges.
 Charge compensation  : None.
 Solution method      : On-the-fly selection.
 Cavity type          : Scaled VdW (van der Waals Surface) (Alpha=1.100).
 Cavity algorithm     : GePol (No added spheres)
                        Default sphere list used, NSphG=   25.
                        Lebedev-Laikov grids with approx.  5.0 points / Ang**2.
                        Smoothing algorithm: York/Karplus (Gamma=1.0000).
                        Polarization charges: spherical gaussians, with
                                              point-specific exponents (IZeta= 3).
                        Self-potential: point-specific (ISelfS= 7).
                        Self-field    : sphere-specific E.n sum rule (ISelfD= 2).
 1st derivatives      : Analytical E(r).r(x)/FMM algorithm (CHGder, D1EAlg=3).
                        Cavity 1st derivative terms included.
 Solvent              : CarbonTetraChloride, Eps=   2.228000 Eps(inf)=   2.131892
 ------------------------------------------------------------------------------
 GePol: Number of generator spheres                  =      25
 GePol: Total number of spheres                      =      25
 GePol: Number of exposed spheres                    =      25 (100.00%)
 GePol: Number of points                             =    2206
 GePol: Average weight of points                     =       0.12
 GePol: Minimum weight of points                     =   0.11D-11
 GePol: Maximum weight of points                     =    0.20577
 GePol: Number of points with low weight             =     154
 GePol: Fraction of low-weight points (<1% of avg)   =       6.98%
 GePol: Cavity surface area                          =    275.315 Ang**2
 GePol: Cavity volume                                =    294.363 Ang**3
 Leave Link  301 at Mon Jul 13 14:41:46 2020, MaxMem=  7784628224 cpu:               1.4 elap:               0.4
 (Enter /gpfs/loomis/apps/avx/software/Gaussian/16-C.01_AVX/g16/l302.exe)
 NPDir=0 NMtPBC=     1 NCelOv=     1 NCel=       1 NClECP=     1 NCelD=      1
         NCelK=      1 NCelE2=     1 NClLst=     1 CellRange=     0.0.
 One-electron integrals computed using PRISM.
 NBasis=   273 RedAO= T EigKep=  3.12D-04  NBF=   273
 NBsUse=   273 1.00D-06 EigRej= -1.00D+00 NBFU=   273
 Precomputing XC quadrature grid using
 IXCGrd= 4 IRadAn=           5 IRanWt=          -1 IRanGd=           0 AccXCQ= 0.00D+00.
 Generated NRdTot=       0 NPtTot=           0 NUsed=           0 NTot=          32
 NSgBfM=   288   288   288   288   288 MxSgAt=    25 MxSgA2=    25.
 Leave Link  302 at Mon Jul 13 14:41:47 2020, MaxMem=  7784628224 cpu:               7.1 elap:               0.8
 (Enter /gpfs/loomis/apps/avx/software/Gaussian/16-C.01_AVX/g16/l303.exe)
 DipDrv:  MaxL=1.
 Leave Link  303 at Mon Jul 13 14:41:47 2020, MaxMem=  7784628224 cpu:               0.6 elap:               0.1
 (Enter /gpfs/loomis/apps/avx/software/Gaussian/16-C.01_AVX/g16/l308.exe)
 Leave Link  308 at Mon Jul 13 14:41:47 2020, MaxMem=  7784628224 cpu:               0.6 elap:               0.1
 (Enter /gpfs/loomis/apps/avx/software/Gaussian/16-C.01_AVX/g16/l401.exe)
 ExpMin= 1.22D-01 ExpMax= 1.11D+05 ExpMxC= 1.07D+03 IAcc=3 IRadAn=         5 AccDes= 0.00D+00
 Harris functional with IExCor= 4639 and IRadAn=       5 diagonalized for initial guess.
 HarFok:  IExCor= 4639 AccDes= 0.00D+00 IRadAn=         5 IDoV= 1 UseB2=F ITyADJ=14
 ICtDFT=  3500011 ScaDFX=  1.000000  1.000000  1.000000  1.000000
 FoFCou: FMM=F IPFlag=           0 FMFlag=      100000 FMFlg1=           0
         NFxFlg=           0 DoJE=T BraDBF=F KetDBF=T FulRan=T
         wScrn=  0.000000 ICntrl=       500 IOpCl=  0 I1Cent=   200000004 NGrid=           0
         NMat0=    1 NMatS0=      1 NMatT0=    0 NMatD0=    1 NMtDS0=    0 NMtDT0=    0
 Symmetry not used in FoFCou.
 Harris En= -994.461193193581    
 JPrj=0 DoOrth=F DoCkMO=F.
 Leave Link  401 at Mon Jul 13 14:41:49 2020, MaxMem=  7784628224 cpu:              14.2 elap:               1.5
 (Enter /gpfs/loomis/apps/avx/software/Gaussian/16-C.01_AVX/g16/l502.exe)
 Two-electron integral symmetry not used.
 Closed shell SCF:
 Using DIIS extrapolation, IDIIS=  1040.
 NGot=  7784628224 LenX=  7784455381 LenY=  7784371419
 Requested convergence on RMS density matrix=1.00D-08 within 128 cycles.
 Requested convergence on MAX density matrix=1.00D-06.
 Requested convergence on             energy=1.00D-06.
 No special actions if energy rises.
 Fock matrices will be formed incrementally for  20 cycles.

 Cycle   1  Pass 1  IDiag  1:
 FoFJK:  IHMeth= 1 ICntrl=       0 DoSepK=T KAlg= 0 I1Cent=           0 FoldK=F
 IRaf=         1 NMat=       1 IRICut=       1 DoRegI=T DoRafI=F ISym2E= 0 IDoP0=0 IntGTp=1.
 FoFCou: FMM=F IPFlag=           0 FMFlag=      100000 FMFlg1=           0
         NFxFlg=           0 DoJE=T BraDBF=F KetDBF=F FulRan=T
         wScrn=  0.000000 ICntrl=       500 IOpCl=  0 I1Cent=           0 NGrid=           0
         NMat0=    1 NMatS0=      1 NMatT0=    0 NMatD0=    1 NMtDS0=    0 NMtDT0=    0
 Symmetry not used in FoFCou.
 Inv3:  Mode=1 IEnd=    14599308.
 Iteration    1 A*A^-1 deviation from unit magnitude is 7.33D-15 for   2203.
 Iteration    1 A*A^-1 deviation from orthogonality  is 1.98D-15 for   1265    464.
 Iteration    1 A^-1*A deviation from unit magnitude is 7.33D-15 for   2203.
 Iteration    1 A^-1*A deviation from orthogonality  is 1.55D-15 for   2194   2101.
 E= -1028.56868618818    
 DIIS: error= 3.76D-02 at cycle   1 NSaved=   1.
 NSaved= 1 IEnMin= 1 EnMin= -1028.56868618818     IErMin= 1 ErrMin= 3.76D-02
 ErrMax= 3.76D-02  0.00D+00 EMaxC= 1.00D-01 BMatC= 3.93D-01 BMatP= 3.93D-01
 IDIUse=3 WtCom= 6.24D-01 WtEn= 3.76D-01
 Coeff-Com:  0.100D+01
 Coeff-En:   0.100D+01
 Coeff:      0.100D+01
 Gap=     0.340 Goal=   None    Shift=    0.000
 GapD=    0.340 DampG=1.000 DampE=0.500 DampFc=0.5000 IDamp=-1.
 Damping current iteration by 5.00D-01
 RMSDP=3.55D-03 MaxDP=2.28D-01              OVMax= 1.80D-01

 Cycle   2  Pass 1  IDiag  1:
 RMSU=  1.77D-03    CP:  9.93D-01
 E= -1028.68834793048     Delta-E=       -0.119661742298 Rises=F Damp=T
 DIIS: error= 1.08D-02 at cycle   2 NSaved=   2.
 NSaved= 2 IEnMin= 2 EnMin= -1028.68834793048     IErMin= 2 ErrMin= 1.08D-02
 ErrMax= 1.08D-02  0.00D+00 EMaxC= 1.00D-01 BMatC= 5.79D-02 BMatP= 3.93D-01
 IDIUse=3 WtCom= 8.92D-01 WtEn= 1.08D-01
 Coeff-Com: -0.288D+00 0.129D+01
 Coeff-En:   0.000D+00 0.100D+01
 Coeff:     -0.257D+00 0.126D+01
 Gap=     0.298 Goal=   None    Shift=    0.000
 RMSDP=1.15D-03 MaxDP=2.45D-02 DE=-1.20D-01 OVMax= 1.19D-01

 Cycle   3  Pass 1  IDiag  1:
 RMSU=  1.10D-03    CP:  9.92D-01  1.19D+00
 E= -1028.79454555666     Delta-E=       -0.106197626183 Rises=F Damp=F
 DIIS: error= 6.15D-03 at cycle   3 NSaved=   3.
 NSaved= 3 IEnMin= 3 EnMin= -1028.79454555666     IErMin= 3 ErrMin= 6.15D-03
 ErrMax= 6.15D-03  0.00D+00 EMaxC= 1.00D-01 BMatC= 1.40D-02 BMatP= 5.79D-02
 IDIUse=3 WtCom= 9.38D-01 WtEn= 6.15D-02
 Coeff-Com: -0.202D+00 0.485D+00 0.717D+00
 Coeff-En:   0.000D+00 0.000D+00 0.100D+01
 Coeff:     -0.190D+00 0.455D+00 0.734D+00
 Gap=     0.254 Goal=   None    Shift=    0.000
 RMSDP=5.30D-04 MaxDP=1.52D-02 DE=-1.06D-01 OVMax= 3.88D-02

 Cycle   4  Pass 1  IDiag  1:
 RMSU=  4.17D-04    CP:  9.89D-01  1.35D+00  8.45D-01
 E= -1028.80784499737     Delta-E=       -0.013299440703 Rises=F Damp=F
 DIIS: error= 2.13D-03 at cycle   4 NSaved=   4.
 NSaved= 4 IEnMin= 4 EnMin= -1028.80784499737     IErMin= 4 ErrMin= 2.13D-03
 ErrMax= 2.13D-03  0.00D+00 EMaxC= 1.00D-01 BMatC= 1.71D-03 BMatP= 1.40D-02
 IDIUse=3 WtCom= 9.79D-01 WtEn= 2.13D-02
 Coeff-Com: -0.720D-01 0.143D+00 0.350D+00 0.580D+00
 Coeff-En:   0.000D+00 0.000D+00 0.000D+00 0.100D+01
 Coeff:     -0.705D-01 0.140D+00 0.342D+00 0.589D+00
 Gap=     0.253 Goal=   None    Shift=    0.000
 RMSDP=1.68D-04 MaxDP=9.91D-03 DE=-1.33D-02 OVMax= 1.34D-02

 Cycle   5  Pass 1  IDiag  1:
 RMSU=  1.06D-04    CP:  9.89D-01  1.36D+00  9.14D-01  7.51D-01
 E= -1028.80966333369     Delta-E=       -0.001818336327 Rises=F Damp=F
 DIIS: error= 4.26D-04 at cycle   5 NSaved=   5.
 NSaved= 5 IEnMin= 5 EnMin= -1028.80966333369     IErMin= 5 ErrMin= 4.26D-04
 ErrMax= 4.26D-04  0.00D+00 EMaxC= 1.00D-01 BMatC= 5.34D-05 BMatP= 1.71D-03
 IDIUse=3 WtCom= 9.96D-01 WtEn= 4.26D-03
 Coeff-Com: -0.186D-02-0.235D-02 0.349D-01 0.161D+00 0.808D+00
 Coeff-En:   0.000D+00 0.000D+00 0.000D+00 0.000D+00 0.100D+01
 Coeff:     -0.185D-02-0.234D-02 0.348D-01 0.160D+00 0.809D+00
 Gap=     0.253 Goal=   None    Shift=    0.000
 RMSDP=5.23D-05 MaxDP=1.53D-03 DE=-1.82D-03 OVMax= 5.15D-03

 Cycle   6  Pass 1  IDiag  1:
 RMSU=  3.36D-05    CP:  9.89D-01  1.36D+00  9.32D-01  8.31D-01  1.07D+00
 E= -1028.80977628469     Delta-E=       -0.000112950997 Rises=F Damp=F
 DIIS: error= 1.77D-04 at cycle   6 NSaved=   6.
 NSaved= 6 IEnMin= 6 EnMin= -1028.80977628469     IErMin= 6 ErrMin= 1.77D-04
 ErrMax= 1.77D-04  0.00D+00 EMaxC= 1.00D-01 BMatC= 9.55D-06 BMatP= 5.34D-05
 IDIUse=3 WtCom= 9.98D-01 WtEn= 1.77D-03
 Coeff-Com:  0.148D-01-0.307D-01-0.585D-01-0.614D-01 0.219D+00 0.917D+00
 Coeff-En:   0.000D+00 0.000D+00 0.000D+00 0.000D+00 0.000D+00 0.100D+01
 Coeff:      0.148D-01-0.306D-01-0.584D-01-0.613D-01 0.219D+00 0.917D+00
 Gap=     0.254 Goal=   None    Shift=    0.000
 RMSDP=3.03D-05 MaxDP=1.50D-03 DE=-1.13D-04 OVMax= 2.94D-03

 Cycle   7  Pass 1  IDiag  1:
 RMSU=  1.55D-05    CP:  9.89D-01  1.36D+00  9.43D-01  8.61D-01  1.24D+00
                    CP:  1.26D+00
 E= -1028.80980449704     Delta-E=       -0.000028212348 Rises=F Damp=F
 DIIS: error= 1.19D-04 at cycle   7 NSaved=   7.
 NSaved= 7 IEnMin= 7 EnMin= -1028.80980449704     IErMin= 7 ErrMin= 1.19D-04
 ErrMax= 1.19D-04  0.00D+00 EMaxC= 1.00D-01 BMatC= 2.14D-06 BMatP= 9.55D-06
 IDIUse=3 WtCom= 9.99D-01 WtEn= 1.19D-03
 Coeff-Com:  0.655D-02-0.125D-01-0.293D-01-0.475D-01-0.122D-01 0.398D+00
 Coeff-Com:  0.698D+00
 Coeff-En:   0.000D+00 0.000D+00 0.000D+00 0.000D+00 0.000D+00 0.000D+00
 Coeff-En:   0.100D+01
 Coeff:      0.655D-02-0.125D-01-0.293D-01-0.475D-01-0.122D-01 0.397D+00
 Coeff:      0.698D+00
 Gap=     0.254 Goal=   None    Shift=    0.000
 RMSDP=1.05D-05 MaxDP=4.28D-04 DE=-2.82D-05 OVMax= 1.33D-03

 Cycle   8  Pass 1  IDiag  1:
 RMSU=  6.35D-06    CP:  9.89D-01  1.36D+00  9.45D-01  8.67D-01  1.27D+00
                    CP:  1.45D+00  1.13D+00
 E= -1028.80980900717     Delta-E=       -0.000004510129 Rises=F Damp=F
 DIIS: error= 4.44D-05 at cycle   8 NSaved=   8.
 NSaved= 8 IEnMin= 8 EnMin= -1028.80980900717     IErMin= 8 ErrMin= 4.44D-05
 ErrMax= 4.44D-05  0.00D+00 EMaxC= 1.00D-01 BMatC= 3.48D-07 BMatP= 2.14D-06
 IDIUse=1 WtCom= 1.00D+00 WtEn= 0.00D+00
 Coeff-Com: -0.123D-02 0.275D-02 0.418D-02 0.935D-03-0.402D-01-0.764D-01
 Coeff-Com:  0.233D+00 0.877D+00
 Coeff:     -0.123D-02 0.275D-02 0.418D-02 0.935D-03-0.402D-01-0.764D-01
 Coeff:      0.233D+00 0.877D+00
 Gap=     0.254 Goal=   None    Shift=    0.000
 RMSDP=5.45D-06 MaxDP=1.51D-04 DE=-4.51D-06 OVMax= 8.00D-04

 Cycle   9  Pass 1  IDiag  1:
 RMSU=  2.50D-06    CP:  9.89D-01  1.36D+00  9.44D-01  8.67D-01  1.28D+00
                    CP:  1.53D+00  1.36D+00  1.19D+00
 E= -1028.80981003765     Delta-E=       -0.000001030480 Rises=F Damp=F
 DIIS: error= 1.95D-05 at cycle   9 NSaved=   9.
 NSaved= 9 IEnMin= 9 EnMin= -1028.80981003765     IErMin= 9 ErrMin= 1.95D-05
 ErrMax= 1.95D-05  0.00D+00 EMaxC= 1.00D-01 BMatC= 5.05D-08 BMatP= 3.48D-07
 IDIUse=1 WtCom= 1.00D+00 WtEn= 0.00D+00
 Coeff-Com: -0.119D-02 0.236D-02 0.503D-02 0.676D-02-0.980D-02-0.867D-01
 Coeff-Com: -0.194D-01 0.249D+00 0.853D+00
 Coeff:     -0.119D-02 0.236D-02 0.503D-02 0.676D-02-0.980D-02-0.867D-01
 Coeff:     -0.194D-01 0.249D+00 0.853D+00
 Gap=     0.254 Goal=   None    Shift=    0.000
 RMSDP=2.60D-06 MaxDP=6.25D-05 DE=-1.03D-06 OVMax= 4.37D-04

 Cycle  10  Pass 1  IDiag  1:
 RMSU=  1.19D-06    CP:  9.89D-01  1.36D+00  9.44D-01  8.67D-01  1.29D+00
                    CP:  1.57D+00  1.45D+00  1.36D+00  1.26D+00
 E= -1028.80981025949     Delta-E=       -0.000000221839 Rises=F Damp=F
 DIIS: error= 8.49D-06 at cycle  10 NSaved=  10.
 NSaved=10 IEnMin=10 EnMin= -1028.80981025949     IErMin=10 ErrMin= 8.49D-06
 ErrMax= 8.49D-06  0.00D+00 EMaxC= 1.00D-01 BMatC= 1.65D-08 BMatP= 5.05D-08
 IDIUse=1 WtCom= 1.00D+00 WtEn= 0.00D+00
 Coeff-Com: -0.163D-03 0.264D-03 0.999D-03 0.250D-02 0.520D-02-0.204D-01
 Coeff-Com: -0.512D-01-0.113D+00 0.343D+00 0.832D+00
 Coeff:     -0.163D-03 0.264D-03 0.999D-03 0.250D-02 0.520D-02-0.204D-01
 Coeff:     -0.512D-01-0.113D+00 0.343D+00 0.832D+00
 Gap=     0.254 Goal=   None    Shift=    0.000
 RMSDP=1.45D-06 MaxDP=3.42D-05 DE=-2.22D-07 OVMax= 2.39D-04

 Cycle  11  Pass 1  IDiag  1:
 RMSU=  5.57D-07    CP:  9.89D-01  1.36D+00  9.44D-01  8.67D-01  1.29D+00
                    CP:  1.58D+00  1.49D+00  1.46D+00  1.60D+00  1.20D+00
 E= -1028.80981031988     Delta-E=       -0.000000060398 Rises=F Damp=F
 DIIS: error= 4.71D-06 at cycle  11 NSaved=  11.
 NSaved=11 IEnMin=11 EnMin= -1028.80981031988     IErMin=11 ErrMin= 4.71D-06
 ErrMax= 4.71D-06  0.00D+00 EMaxC= 1.00D-01 BMatC= 2.43D-09 BMatP= 1.65D-08
 IDIUse=1 WtCom= 1.00D+00 WtEn= 0.00D+00
 Coeff-Com:  0.257D-03-0.528D-03-0.943D-03-0.873D-03 0.462D-02 0.115D-01
 Coeff-Com: -0.620D-02-0.915D-01-0.550D-01 0.224D+00 0.915D+00
 Coeff:      0.257D-03-0.528D-03-0.943D-03-0.873D-03 0.462D-02 0.115D-01
 Coeff:     -0.620D-02-0.915D-01-0.550D-01 0.224D+00 0.915D+00
 Gap=     0.254 Goal=   None    Shift=    0.000
 RMSDP=6.33D-07 MaxDP=1.83D-05 DE=-6.04D-08 OVMax= 1.21D-04

 Cycle  12  Pass 1  IDiag  1:
 RMSU=  2.18D-07    CP:  9.89D-01  1.36D+00  9.44D-01  8.67D-01  1.29D+00
                    CP:  1.59D+00  1.50D+00  1.49D+00  1.75D+00  1.48D+00
                    CP:  1.16D+00
 E= -1028.80981033156     Delta-E=       -0.000000011675 Rises=F Damp=F
 DIIS: error= 1.26D-06 at cycle  12 NSaved=  12.
 NSaved=12 IEnMin=12 EnMin= -1028.80981033156     IErMin=12 ErrMin= 1.26D-06
 ErrMax= 1.26D-06  0.00D+00 EMaxC= 1.00D-01 BMatC= 6.75D-10 BMatP= 2.43D-09
 IDIUse=1 WtCom= 1.00D+00 WtEn= 0.00D+00
 Coeff-Com:  0.127D-03-0.248D-03-0.543D-03-0.856D-03 0.106D-02 0.831D-02
 Coeff-Com:  0.878D-02-0.175D-01-0.939D-01-0.113D+00 0.354D+00 0.854D+00
 Coeff:      0.127D-03-0.248D-03-0.543D-03-0.856D-03 0.106D-02 0.831D-02
 Coeff:      0.878D-02-0.175D-01-0.939D-01-0.113D+00 0.354D+00 0.854D+00
 Gap=     0.254 Goal=   None    Shift=    0.000
 RMSDP=3.32D-07 MaxDP=7.63D-06 DE=-1.17D-08 OVMax= 5.29D-05

 Cycle  13  Pass 1  IDiag  1:
 RMSU=  8.59D-08    CP:  9.89D-01  1.36D+00  9.44D-01  8.67D-01  1.29D+00
                    CP:  1.59D+00  1.51D+00  1.50D+00  1.83D+00  1.59D+00
                    CP:  1.44D+00  1.12D+00
 E= -1028.80981033379     Delta-E=       -0.000000002232 Rises=F Damp=F
 DIIS: error= 5.17D-07 at cycle  13 NSaved=  13.
 NSaved=13 IEnMin=13 EnMin= -1028.80981033379     IErMin=13 ErrMin= 5.17D-07
 ErrMax= 5.17D-07  0.00D+00 EMaxC= 1.00D-01 BMatC= 4.72D-11 BMatP= 6.75D-10
 IDIUse=1 WtCom= 1.00D+00 WtEn= 0.00D+00
 Coeff-Com: -0.175D-05 0.665D-05-0.132D-04-0.121D-03-0.198D-03 0.653D-03
 Coeff-Com:  0.345D-02 0.734D-02-0.137D-01-0.615D-01-0.264D-01 0.223D+00
 Coeff-Com:  0.868D+00
 Coeff:     -0.175D-05 0.665D-05-0.132D-04-0.121D-03-0.198D-03 0.653D-03
 Coeff:      0.345D-02 0.734D-02-0.137D-01-0.615D-01-0.264D-01 0.223D+00
 Coeff:      0.868D+00
 Gap=     0.254 Goal=   None    Shift=    0.000
 RMSDP=7.15D-08 MaxDP=1.88D-06 DE=-2.23D-09 OVMax= 1.05D-05

 Cycle  14  Pass 1  IDiag  1:
 RMSU=  3.33D-08    CP:  9.89D-01  1.36D+00  9.44D-01  8.67D-01  1.29D+00
                    CP:  1.59D+00  1.51D+00  1.50D+00  1.84D+00  1.62D+00
                    CP:  1.49D+00  1.27D+00  1.11D+00
 E= -1028.80981033392     Delta-E=       -0.000000000131 Rises=F Damp=F
 DIIS: error= 1.64D-07 at cycle  14 NSaved=  14.
 NSaved=14 IEnMin=14 EnMin= -1028.80981033392     IErMin=14 ErrMin= 1.64D-07
 ErrMax= 1.64D-07  0.00D+00 EMaxC= 1.00D-01 BMatC= 1.07D-11 BMatP= 4.72D-11
 IDIUse=1 WtCom= 1.00D+00 WtEn= 0.00D+00
 Coeff-Com: -0.133D-04 0.275D-04 0.489D-04 0.285D-04-0.181D-03-0.506D-03
 Coeff-Com:  0.720D-03 0.484D-02 0.315D-02-0.165D-01-0.455D-01 0.113D-01
 Coeff-Com:  0.391D+00 0.651D+00
 Coeff:     -0.133D-04 0.275D-04 0.489D-04 0.285D-04-0.181D-03-0.506D-03
 Coeff:      0.720D-03 0.484D-02 0.315D-02-0.165D-01-0.455D-01 0.113D-01
 Coeff:      0.391D+00 0.651D+00
 Gap=     0.254 Goal=   None    Shift=    0.000
 RMSDP=2.02D-08 MaxDP=5.62D-07 DE=-1.31D-10 OVMax= 1.88D-06

 Cycle  15  Pass 1  IDiag  1:
 RMSU=  1.31D-08    CP:  9.89D-01  1.36D+00  9.44D-01  8.67D-01  1.29D+00
                    CP:  1.59D+00  1.51D+00  1.50D+00  1.84D+00  1.62D+00
                    CP:  1.50D+00  1.30D+00  1.22D+00  9.27D-01
 E= -1028.80981033394     Delta-E=       -0.000000000015 Rises=F Damp=F
 DIIS: error= 6.92D-08 at cycle  15 NSaved=  15.
 NSaved=15 IEnMin=15 EnMin= -1028.80981033394     IErMin=15 ErrMin= 6.92D-08
 ErrMax= 6.92D-08  0.00D+00 EMaxC= 1.00D-01 BMatC= 1.04D-12 BMatP= 1.07D-11
 IDIUse=1 WtCom= 1.00D+00 WtEn= 0.00D+00
 Coeff-Com: -0.375D-05 0.710D-05 0.187D-04 0.311D-04-0.246D-04-0.339D-03
 Coeff-Com: -0.493D-03 0.408D-04 0.397D-02 0.721D-02-0.869D-02-0.417D-01
 Coeff-Com: -0.355D-01 0.200D+00 0.875D+00
 Coeff:     -0.375D-05 0.710D-05 0.187D-04 0.311D-04-0.246D-04-0.339D-03
 Coeff:     -0.493D-03 0.408D-04 0.397D-02 0.721D-02-0.869D-02-0.417D-01
 Coeff:     -0.355D-01 0.200D+00 0.875D+00
 Gap=     0.254 Goal=   None    Shift=    0.000
 RMSDP=8.80D-09 MaxDP=2.09D-07 DE=-1.55D-11 OVMax= 9.88D-07

 Error on total polarization charges =  0.00832
 SCF Done:  E(RwB97XD) =  -1028.80981033     A.U. after   15 cycles
            NFock= 15  Conv=0.88D-08     -V/T= 2.0051
 KE= 1.023636732330D+03 PE=-4.604403381310D+03 EE= 1.455764605893D+03
 Leave Link  502 at Mon Jul 13 14:43:13 2020, MaxMem=  7784628224 cpu:             829.5 elap:              83.7
 (Enter /gpfs/loomis/apps/avx/software/Gaussian/16-C.01_AVX/g16/l801.exe)
 DoSCS=F DFT=T ScalE2(SS,OS)=  1.000000  1.000000
 ExpMin= 1.22D-01 ExpMax= 1.11D+05 ExpMxC= 1.07D+03 IAcc=3 IRadAn=         5 AccDes= 0.00D+00
 HarFok:  IExCor=  205 AccDes= 0.00D+00 IRadAn=         5 IDoV=-2 UseB2=F ITyADJ=14
 ICtDFT= 12500011 ScaDFX=  1.000000  1.000000  1.000000  1.000000
 Largest valence mixing into a core orbital is  9.57D-05
 Largest core mixing into a valence orbital is  2.88D-05
 Range of M.O.s used for correlation:    21   273
 NBasis=   273 NAE=    59 NBE=    59 NFC=    20 NFV=     0
 NROrb=    253 NOA=    39 NOB=    39 NVA=   214 NVB=   214
 Leave Link  801 at Mon Jul 13 14:43:13 2020, MaxMem=  7784628224 cpu:               5.6 elap:               0.6
 (Enter /gpfs/loomis/apps/avx/software/Gaussian/16-C.01_AVX/g16/l914.exe)
 RHF ground state
 Keep R1, R2, and R3 ints in memory in canonical form, NReq=4262515490.
 FoFCou: FMM=F IPFlag=           0 FMFlag=           0 FMFlg1=           0
         NFxFlg=           0 DoJE=F BraDBF=F KetDBF=F FulRan=T
         wScrn=  0.000000 ICntrl=       600 IOpCl=  0 I1Cent=           0 NGrid=           0
         NMat0=    1 NMatS0=  37401 NMatT0=    0 NMatD0=    1 NMtDS0=    0 NMtDT0=    0
 Symmetry not used in FoFCou.
 Two-electron integral symmetry not used.
 MDV=  7784628224 DFT=T DoStab=F Mixed=T DoRPA=T DoScal=F NonHer=T
 NEqPCM:  Using equilibrium solvation (IEInf=0, Eps=   2.2280, EpsInf=   2.1319)
 Making orbital integer symmetry assigments:
    12 initial guesses have been made.
 Convergence on wavefunction:    0.000001000000000
 Davidson Disk Diagonalization:  ConvIn= 1.00D-06 SkipCon=T Conv= 1.00D-06.
 Max sub-space:  2000 roots to seek:    12 dimension of matrix:        16692
 Iteration     1 Dimension    12 NMult     0 NNew     12
 CISAX will form    12 AO SS matrices at one time.
 NMat=    12 NSing=    12 JSym2X= 0.
 New state      2 was old state      5
 New state      3 was old state      2
 Excitation Energies [eV] at current iteration:
 Root      1 :     3.754417934449167
 Root      2 :     4.743969015197791
 Root      3 :     4.953336735776360
 Root      4 :     5.161919855662910
 Root      5 :     5.750333998950115
 Root      6 :     6.058128126409348
 Root      7 :     6.309190422490659
 Root      8 :     6.364002070892319
 Root      9 :     6.817955065679986
 Root     10 :     7.047042588677715
 Root     11 :     7.203129202855695
 Root     12 :     7.953485687804492
 Iteration     2 Dimension    18 NMult    12 NNew      6
 CISAX will form     6 AO SS matrices at one time.
 NMat=     6 NSing=     6 JSym2X= 0.
 Root      1 not converged, maximum delta is    0.048223443906056
 New state      2 was old state      3
 Root      2 not converged, maximum delta is    0.075593896762575
 New state      3 was old state      2
 Root      3 not converged, maximum delta is    0.075875301468752
 Excitation Energies [eV] at current iteration:
 Root      1 :     3.257739573785047   Change is   -0.496678360664121
 Root      2 :     4.404458097532888   Change is   -0.548878638243471
 Root      3 :     4.535046812870536   Change is   -0.208922202327256
 Iteration     3 Dimension    24 NMult    18 NNew      6
 CISAX will form     6 AO SS matrices at one time.
 NMat=     6 NSing=     6 JSym2X= 0.
 Root      1 not converged, maximum delta is    0.019319731556107
 Root      2 not converged, maximum delta is    0.018413532087671
 Root      3 not converged, maximum delta is    0.029684876685075
 Excitation Energies [eV] at current iteration:
 Root      1 :     3.224335155830389   Change is   -0.033404417954657
 Root      2 :     4.374005322896543   Change is   -0.030452774636346
 Root      3 :     4.517706302683514   Change is   -0.017340510187021
 Iteration     4 Dimension    30 NMult    24 NNew      6
 CISAX will form     6 AO SS matrices at one time.
 NMat=     6 NSing=     6 JSym2X= 0.
 Root      1 not converged, maximum delta is    0.008135502715805
 Root      2 not converged, maximum delta is    0.009882813271495
 Root      3 not converged, maximum delta is    0.009351089375578
 Excitation Energies [eV] at current iteration:
 Root      1 :     3.219077659718736   Change is   -0.005257496111653
 Root      2 :     4.368233409000783   Change is   -0.005771913895760
 Root      3 :     4.516140991207370   Change is   -0.001565311476144
 Iteration     5 Dimension    36 NMult    30 NNew      6
 CISAX will form     6 AO SS matrices at one time.
 NMat=     6 NSing=     6 JSym2X= 0.
 Root      1 not converged, maximum delta is    0.003160088168327
 Root      2 not converged, maximum delta is    0.003137193175251
 Root      3 not converged, maximum delta is    0.001967142386409
 Excitation Energies [eV] at current iteration:
 Root      1 :     3.218571257794020   Change is   -0.000506401924716
 Root      2 :     4.367680621250038   Change is   -0.000552787750745
 Root      3 :     4.515997914792762   Change is   -0.000143076414608
 Iteration     6 Dimension    42 NMult    36 NNew      6
 CISAX will form     6 AO SS matrices at one time.
 NMat=     6 NSing=     6 JSym2X= 0.
 Root      1 not converged, maximum delta is    0.000497636005582
 Root      2 not converged, maximum delta is    0.000974103355165
 Root      3 not converged, maximum delta is    0.000279039108388
 Excitation Energies [eV] at current iteration:
 Root      1 :     3.218516540323290   Change is   -0.000054717470729
 Root      2 :     4.367605366677350   Change is   -0.000075254572687
 Root      3 :     4.515987060613937   Change is   -0.000010854178825
 Iteration     7 Dimension    48 NMult    42 NNew      6
 CISAX will form     6 AO SS matrices at one time.
 NMat=     6 NSing=     6 JSym2X= 0.
 Root      1 not converged, maximum delta is    0.000158203133602
 Root      2 not converged, maximum delta is    0.000726326106122
 Root      3 not converged, maximum delta is    0.000060103699249
 Excitation Energies [eV] at current iteration:
 Root      1 :     3.218513171830821   Change is   -0.000003368492469
 Root      2 :     4.367595786125935   Change is   -0.000009580551416
 Root      3 :     4.515986490950336   Change is   -0.000000569663601
 Iteration     8 Dimension    54 NMult    48 NNew      6
 CISAX will form     6 AO SS matrices at one time.
 NMat=     6 NSing=     6 JSym2X= 0.
 Root      1 not converged, maximum delta is    0.000031788422513
 Root      2 not converged, maximum delta is    0.000227270374591
 Root      3 not converged, maximum delta is    0.000030924342158
 Excitation Energies [eV] at current iteration:
 Root      1 :     3.218512905745927   Change is   -0.000000266084894
 Root      2 :     4.367594710965819   Change is   -0.000001075160116
 Root      3 :     4.515986443497399   Change is   -0.000000047452938
 Iteration     9 Dimension    60 NMult    54 NNew      6
 CISAX will form     6 AO SS matrices at one time.
 NMat=     6 NSing=     6 JSym2X= 0.
 Root      1 not converged, maximum delta is    0.000009376563382
 Root      2 not converged, maximum delta is    0.000109746721376
 Root      3 not converged, maximum delta is    0.000011187218609
 Excitation Energies [eV] at current iteration:
 Root      1 :     3.218512889317159   Change is   -0.000000016428768
 Root      2 :     4.367594533256181   Change is   -0.000000177709638
 Root      3 :     4.515986438708578   Change is   -0.000000004788821
 Iteration    10 Dimension    66 NMult    60 NNew      6
 CISAX will form     6 AO SS matrices at one time.
 NMat=     6 NSing=     6 JSym2X= 0.
 Root      1 not converged, maximum delta is    0.000002046544643
 Root      2 not converged, maximum delta is    0.000059287288465
 Root      3 not converged, maximum delta is    0.000004341862437
 Excitation Energies [eV] at current iteration:
 Root      1 :     3.218512888233945   Change is   -0.000000001083214
 Root      2 :     4.367594497056483   Change is   -0.000000036199698
 Root      3 :     4.515986438241126   Change is   -0.000000000467452
 Iteration    11 Dimension    72 NMult    66 NNew      6
 CISAX will form     6 AO SS matrices at one time.
 NMat=     6 NSing=     6 JSym2X= 0.
 Root      1 has converged.
 Root      2 not converged, maximum delta is    0.000010610333087
 Root      3 not converged, maximum delta is    0.000002019102234
 Excitation Energies [eV] at current iteration:
 Root      1 :     3.218512888160154   Change is   -0.000000000073791
 Root      2 :     4.367594493663207   Change is   -0.000000003393276
 Root      3 :     4.515986438177141   Change is   -0.000000000063986
 Iteration    12 Dimension    76 NMult    72 NNew      4
 CISAX will form     4 AO SS matrices at one time.
 NMat=     4 NSing=     4 JSym2X= 0.
 Root      1 has converged.
 Root      2 not converged, maximum delta is    0.000001289147019
 Root      3 has converged.
 Excitation Energies [eV] at current iteration:
 Root      1 :     3.218512888160026   Change is   -0.000000000000128
 Root      2 :     4.367594493464990   Change is   -0.000000000198216
 Root      3 :     4.515986438165490   Change is   -0.000000000011651
 Iteration    13 Dimension    78 NMult    76 NNew      2
 CISAX will form     2 AO SS matrices at one time.
 NMat=     2 NSing=     2 JSym2X= 0.
 Root      1 has converged.
 Root      2 has converged.
 Root      3 has converged.
 Excitation Energies [eV] at current iteration:
 Root      1 :     3.218512888159950   Change is   -0.000000000000077
 Root      2 :     4.367594493451137   Change is   -0.000000000013853
 Root      3 :     4.515986438165508   Change is    0.000000000000018
 Convergence achieved on expansion vectors.
 ***********************************************************************
 Excited states from <AA,BB:AA,BB> singles matrix:
 ***********************************************************************
 
 1PDM for each excited state written to RWF  633
 Ground to excited state transition densities written to RWF  633
 Ground to excited state transition electric dipole moments (Au):
       state          X           Y           Z        Dip. S.      Osc.
         1         1.2853     -2.1359     -0.0000      6.2142      0.4900
         2        -1.7170      0.8534      0.0000      3.6763      0.3934
         3        -0.0000      0.0000      0.0105      0.0001      0.0000
 Ground to excited state transition velocity dipole moments (Au):
       state          X           Y           Z        Dip. S.      Osc.
         1        -0.1464      0.2530      0.0000      0.0854      0.4815
         2         0.2704     -0.1272     -0.0000      0.0893      0.3709
         3         0.0000     -0.0000     -0.0028      0.0000      0.0000
 Ground to excited state transition magnetic dipole moments (Au):
       state          X           Y           Z
         1         0.0000      0.0000     -1.0405
         2        -0.0000      0.0000     -1.0514
         3        -0.0149      0.0531     -0.0000
 Ground to excited state transition velocity quadrupole moments (Au):
       state          XX          YY          ZZ          XY          XZ          YZ
         1        -0.0890      0.5867     -0.0130     -0.2278     -0.0000      0.0000
         2        -0.2984      0.5678     -0.0039     -0.0282     -0.0000      0.0000
         3        -0.0000     -0.0000      0.0000      0.0000     -0.0169     -0.0174
 <0|del|b> * <b|rxdel|0> + <0|del|b> * <b|delr+rdel|0>
 Rotatory Strengths (R) in cgs (10**-40 erg-esu-cm/Gauss)
       state          XX          YY          ZZ    R(velocity)    E-M Angle
         1         0.0149     -0.0192      0.0218      0.0058       90.00
         2        -0.0033      0.0020     -0.0072     -0.0028       90.00
         3        -0.0007     -0.0000     -0.0004     -0.0004       90.00
 1/2[<0|r|b>*<b|rxdel|0> + (<0|rxdel|b>*<b|r|0>)*]
 Rotatory Strengths (R) in cgs (10**-40 erg-esu-cm/Gauss)
       state          XX          YY          ZZ     R(length)
         1        -0.0080      0.0494     -0.0240      0.0058
         2        -0.0035     -0.0076      0.0028     -0.0027
         3        -0.0001     -0.0011      0.0000     -0.0004
  1/2[<0|del|b>*<b|r|0> + (<0|r|b>*<b|del|0>)*] (Au)
       state          X           Y           Z        Dip. S.   Osc.(frdel)
         1        -0.1882     -0.5403     -0.0000      0.7285      0.4857
         2        -0.4642     -0.1086     -0.0000      0.5728      0.3819
         3        -0.0000     -0.0000     -0.0000      0.0000      0.0000

 Excitation energies and oscillator strengths:
 
 Excited state symmetry could not be determined.
 Excited State   1:      Singlet-?Sym    3.2185 eV  385.22 nm  f=0.4900  <S**2>=0.000
      59 -> 60         0.69361
 This state for optimization and/or second-order correction.
 Total Energy, E(TD-HF/TD-DFT) =  -1028.69153216    
 Copying the excited state density for this state as the 1-particle RhoCI density.
 
 Excited state symmetry could not be determined.
 Excited State   2:      Singlet-?Sym    4.3676 eV  283.87 nm  f=0.3934  <S**2>=0.000
      57 -> 60        -0.11500
      58 -> 60         0.66889
 
 Excited state symmetry could not be determined.
 Excited State   3:      Singlet-?Sym    4.5160 eV  274.55 nm  f=0.0000  <S**2>=0.000
      56 -> 60         0.68821
      56 -> 64        -0.10495
 SavETr:  write IOETrn=   770 NScale= 10 NData=  16 NLR=1 NState=    3 LETran=      64.
 The selected state is a singlet.
 CISGrd: IGrad=2 NXY=2 DFT=T
 CISAX will form     1 AO SS matrices at one time.
 NMat=     1 NSing=     1 JSym2X= 0.
 GePol: Maximum number of non-zero 1st derivatives   =     273
 Leave Link  914 at Mon Jul 13 14:46:14 2020, MaxMem=  7784628224 cpu:            1782.8 elap:             181.1
 (Enter /gpfs/loomis/apps/avx/software/Gaussian/16-C.01_AVX/g16/l1002.exe)
 Minotr:  Closed shell wavefunction.
          Computing CIS/TDA/TD derivatives.
          Using Z-Vector for PSCF gradient.
          Skipping F1 and S1 gradient terms here.
          IDoAtm=1111111111111111111111111
 NEqPCM:  Using equilibrium solvation (IEInf=0, Eps=   2.2280, EpsInf=   2.1319)
          Frozen-core window.
          Direct CPHF calculation.
          Differentiating once with respect to electric field.
                with respect to dipole field.
          Differentiating once with respect to nuclear coordinates.
          Requested convergence is 1.0D-10 RMS, and 1.0D-09 maximum.
          NewPWx=F KeepS1=T KeepF1=T KeepIn=T MapXYZ=F SortEE=F KeepMc=T.
 Keep R1 ints in memory in canonical form, NReq=1421638366.
 FoFCou: FMM=F IPFlag=           0 FMFlag=           0 FMFlg1=           0
         NFxFlg=           0 DoJE=F BraDBF=F KetDBF=F FulRan=T
         wScrn=  0.000000 ICntrl=       600 IOpCl=  0 I1Cent=           0 NGrid=           0
         NMat0=    1 NMatS0=  37401 NMatT0=    0 NMatD0=    1 NMtDS0=    0 NMtDT0=    0
 Symmetry not used in FoFCou.
 Two-electron integral symmetry not used.
          MDV=    7784628224 using IRadAn=       5.
          Solving linear equations separately, MaxMat=       0.
          There are     1 degrees of freedom in the 1st order CPHF.  IDoFFX=0 NUNeed=     1.
 LinEq1:  Iter=  0 NonCon=     1 RMS=5.64D-03 Max=3.22D-01 NDo=     1
 AX will form     1 AO Fock derivatives at one time.
 LinEq1:  Iter=  1 NonCon=     1 RMS=2.43D-03 Max=1.24D-01 NDo=     1
 LinEq1:  Iter=  2 NonCon=     1 RMS=1.51D-03 Max=5.00D-02 NDo=     1
 LinEq1:  Iter=  3 NonCon=     1 RMS=5.64D-04 Max=1.40D-02 NDo=     1
 LinEq1:  Iter=  4 NonCon=     1 RMS=3.12D-04 Max=1.03D-02 NDo=     1
 LinEq1:  Iter=  5 NonCon=     1 RMS=1.56D-04 Max=6.63D-03 NDo=     1
 LinEq1:  Iter=  6 NonCon=     1 RMS=6.94D-05 Max=2.72D-03 NDo=     1
 LinEq1:  Iter=  7 NonCon=     1 RMS=3.72D-05 Max=1.24D-03 NDo=     1
 LinEq1:  Iter=  8 NonCon=     1 RMS=1.58D-05 Max=4.77D-04 NDo=     1
 LinEq1:  Iter=  9 NonCon=     1 RMS=8.85D-06 Max=2.68D-04 NDo=     1
 LinEq1:  Iter= 10 NonCon=     1 RMS=3.71D-06 Max=1.14D-04 NDo=     1
 LinEq1:  Iter= 11 NonCon=     1 RMS=2.07D-06 Max=1.00D-04 NDo=     1
 LinEq1:  Iter= 12 NonCon=     1 RMS=9.86D-07 Max=3.09D-05 NDo=     1
 LinEq1:  Iter= 13 NonCon=     1 RMS=4.01D-07 Max=1.14D-05 NDo=     1
 LinEq1:  Iter= 14 NonCon=     1 RMS=1.83D-07 Max=5.15D-06 NDo=     1
 LinEq1:  Iter= 15 NonCon=     1 RMS=9.11D-08 Max=3.21D-06 NDo=     1
 LinEq1:  Iter= 16 NonCon=     1 RMS=3.78D-08 Max=1.15D-06 NDo=     1
 LinEq1:  Iter= 17 NonCon=     1 RMS=1.74D-08 Max=7.10D-07 NDo=     1
 LinEq1:  Iter= 18 NonCon=     1 RMS=6.18D-09 Max=1.77D-07 NDo=     1
 LinEq1:  Iter= 19 NonCon=     1 RMS=3.17D-09 Max=9.04D-08 NDo=     1
 LinEq1:  Iter= 20 NonCon=     1 RMS=1.47D-09 Max=4.52D-08 NDo=     1
 LinEq1:  Iter= 21 NonCon=     1 RMS=3.68D-10 Max=8.13D-09 NDo=     1
 LinEq1:  Iter= 22 NonCon=     1 RMS=1.52D-10 Max=3.23D-09 NDo=     1
 LinEq1:  Iter= 23 NonCon=     1 RMS=6.57D-11 Max=1.40D-09 NDo=     1
 LinEq1:  Iter= 24 NonCon=     0 RMS=2.02D-11 Max=5.82D-10 NDo=     1
 Linear equations converged to 1.000D-10 1.000D-09 after    24 iterations.
 End of Minotr F.D. properties file   721 does not exist.
 End of Minotr F.D. properties file   722 does not exist.
 End of Minotr F.D. properties file   788 does not exist.
 Leave Link 1002 at Mon Jul 13 14:47:59 2020, MaxMem=  7784628224 cpu:             772.2 elap:             104.4
 (Enter /gpfs/loomis/apps/avx/software/Gaussian/16-C.01_AVX/g16/l601.exe)
 Copying SCF densities to generalized density rwf, IOpCl= 0 IROHF=0.

 **********************************************************************

            Population analysis using the SCF Density.

 **********************************************************************

 Alpha  occ. eigenvalues --  -89.10023 -19.24444 -14.49164 -10.41016 -10.37135
 Alpha  occ. eigenvalues --  -10.36180 -10.35679 -10.32924 -10.32154 -10.31992
 Alpha  occ. eigenvalues --  -10.31983 -10.31937 -10.31936 -10.31411 -10.29811
 Alpha  occ. eigenvalues --  -10.29323  -8.11933  -6.06802  -6.06446  -6.05970
 Alpha  occ. eigenvalues --   -1.13869  -1.09699  -0.97297  -0.95197  -0.92447
 Alpha  occ. eigenvalues --   -0.88945  -0.85589  -0.83866  -0.82037  -0.75903
 Alpha  occ. eigenvalues --   -0.71461  -0.70805  -0.68524  -0.68194  -0.63666
 Alpha  occ. eigenvalues --   -0.60793  -0.59233  -0.57701  -0.55372  -0.54730
 Alpha  occ. eigenvalues --   -0.54318  -0.53381  -0.52594  -0.51137  -0.49940
 Alpha  occ. eigenvalues --   -0.49452  -0.47468  -0.46377  -0.45469  -0.44994
 Alpha  occ. eigenvalues --   -0.44005  -0.43046  -0.42027  -0.40648  -0.36591
 Alpha  occ. eigenvalues --   -0.34800  -0.32879  -0.31187  -0.27246
 Alpha virt. eigenvalues --   -0.01840   0.04384   0.06586   0.06718   0.08141
 Alpha virt. eigenvalues --    0.10570   0.13077   0.14894   0.16043   0.17727
 Alpha virt. eigenvalues --    0.18834   0.20677   0.21483   0.21982   0.22643
 Alpha virt. eigenvalues --    0.23504   0.23935   0.24644   0.28486   0.29944
 Alpha virt. eigenvalues --    0.31892   0.33043   0.35341   0.35873   0.36736
 Alpha virt. eigenvalues --    0.38255   0.38656   0.40491   0.43086   0.43347
 Alpha virt. eigenvalues --    0.46680   0.48012   0.49764   0.51459   0.51600
 Alpha virt. eigenvalues --    0.52400   0.53170   0.53712   0.54809   0.55076
 Alpha virt. eigenvalues --    0.55892   0.56046   0.56453   0.57148   0.58169
 Alpha virt. eigenvalues --    0.58276   0.58363   0.58977   0.59532   0.60158
 Alpha virt. eigenvalues --    0.60201   0.60934   0.62141   0.62172   0.62939
 Alpha virt. eigenvalues --    0.65107   0.65158   0.66864   0.67729   0.68858
 Alpha virt. eigenvalues --    0.70126   0.70466   0.71870   0.72477   0.72624
 Alpha virt. eigenvalues --    0.72857   0.74609   0.75205   0.76241   0.76967
 Alpha virt. eigenvalues --    0.79025   0.79313   0.79838   0.81994   0.82131
 Alpha virt. eigenvalues --    0.82811   0.87882   0.89117   0.90862   0.92752
 Alpha virt. eigenvalues --    0.94231   0.95016   0.95963   0.96385   0.96742
 Alpha virt. eigenvalues --    0.98665   0.98685   0.99884   1.00166   1.01375
 Alpha virt. eigenvalues --    1.02555   1.04963   1.05791   1.07103   1.07476
 Alpha virt. eigenvalues --    1.07964   1.08390   1.10162   1.10824   1.11805
 Alpha virt. eigenvalues --    1.11809   1.12347   1.13182   1.15040   1.15208
 Alpha virt. eigenvalues --    1.16067   1.18886   1.20145   1.23006   1.23935
 Alpha virt. eigenvalues --    1.26386   1.27562   1.33230   1.33297   1.34735
 Alpha virt. eigenvalues --    1.34837   1.36089   1.38417   1.41075   1.46231
 Alpha virt. eigenvalues --    1.49081   1.49513   1.51063   1.53795   1.55190
 Alpha virt. eigenvalues --    1.56464   1.56580   1.57290   1.58821   1.59185
 Alpha virt. eigenvalues --    1.59552   1.59984   1.64819   1.66491   1.67364
 Alpha virt. eigenvalues --    1.68456   1.69287   1.69843   1.69941   1.70680
 Alpha virt. eigenvalues --    1.71757   1.72418   1.73319   1.73536   1.74971
 Alpha virt. eigenvalues --    1.77322   1.79227   1.80519   1.80632   1.82741
 Alpha virt. eigenvalues --    1.83067   1.83802   1.84639   1.84844   1.85191
 Alpha virt. eigenvalues --    1.87451   1.88639   1.88965   1.90267   1.91954
 Alpha virt. eigenvalues --    1.92236   1.92762   1.93312   1.94563   1.95801
 Alpha virt. eigenvalues --    1.98091   2.00171   2.01495   2.03117   2.03983
 Alpha virt. eigenvalues --    2.04694   2.07509   2.09076   2.10655   2.12594
 Alpha virt. eigenvalues --    2.14496   2.16216   2.16963   2.20788   2.23964
 Alpha virt. eigenvalues --    2.26818   2.30679   2.32085   2.38661   2.39983
 Alpha virt. eigenvalues --    2.41172   2.42202   2.42701   2.45547   2.46915
 Alpha virt. eigenvalues --    2.48295   2.50470   2.52470   2.53062   2.61687
 Alpha virt. eigenvalues --    2.61999   2.70702   2.73691   2.74315   2.80034
 Alpha virt. eigenvalues --    2.81590   2.83634   2.85186   2.89477   2.91856
 Alpha virt. eigenvalues --    2.92762   3.02262   3.10513   3.21824   3.39226
 Alpha virt. eigenvalues --    3.47802   3.56477   3.60072   3.86249
          Condensed to atoms (all electrons):
               1          2          3          4          5          6
     1  C    4.728260   0.480045   0.002983  -0.049874  -0.013225   0.523817
     2  C    0.480045   5.323491   0.334008  -0.050877  -0.063505  -0.011815
     3  C    0.002983   0.334008   4.775553   0.511357  -0.006049  -0.062986
     4  C   -0.049874  -0.050877   0.511357   4.774602   0.523456  -0.016590
     5  C   -0.013225  -0.063505  -0.006049   0.523456   4.722847   0.495000
     6  C    0.523817  -0.011815  -0.062986  -0.016590   0.495000   4.741112
     7  H    0.403472  -0.040470   0.008449  -0.000487   0.008074  -0.038010
     8  H   -0.000686   0.010920  -0.026582   0.392825  -0.042257   0.007480
     9  H    0.008540  -0.000436   0.008338  -0.038773   0.405135  -0.044164
    10  H   -0.041932   0.009572  -0.000587   0.008739  -0.043451   0.406513
    11  N    0.005394  -0.050909   0.417329  -0.042665   0.002923   0.000283
    12  S   -0.061301   0.338506  -0.114009   0.005325   0.000240   0.003416
    13  C   -0.000161   0.002830   0.010152  -0.000749   0.000009  -0.000000
    14  C   -0.000003   0.000056   0.000119   0.000005  -0.000000  -0.000000
    15  C    0.000001  -0.000337   0.000899   0.000094  -0.000000   0.000000
    16  C    0.000000  -0.000001   0.000004  -0.000000   0.000000   0.000000
    17  H   -0.000002   0.000048  -0.000000  -0.000000   0.000000  -0.000000
    18  C    0.000000   0.000007  -0.000029  -0.000000  -0.000000   0.000000
    19  C   -0.000000   0.000000   0.000001  -0.000000   0.000000   0.000000
    20  H   -0.000000  -0.000000  -0.000000   0.000000   0.000000  -0.000000
    21  H   -0.000000   0.000000   0.000001  -0.000000   0.000000   0.000000
    22  H    0.000000  -0.000000  -0.000000  -0.000000   0.000000  -0.000000
    23  C    0.003557  -0.050460  -0.113460   0.002010   0.000202  -0.000162
    24  O    0.000002  -0.000110  -0.001454  -0.000078  -0.000001  -0.000000
    25  H    0.000004   0.005174  -0.017772  -0.002819  -0.000040   0.000006
               7          8          9         10         11         12
     1  C    0.403472  -0.000686   0.008540  -0.041932   0.005394  -0.061301
     2  C   -0.040470   0.010920  -0.000436   0.009572  -0.050909   0.338506
     3  C    0.008449  -0.026582   0.008338  -0.000587   0.417329  -0.114009
     4  C   -0.000487   0.392825  -0.038773   0.008739  -0.042665   0.005325
     5  C    0.008074  -0.042257   0.405135  -0.043451   0.002923   0.000240
     6  C   -0.038010   0.007480  -0.044164   0.406513   0.000283   0.003416
     7  H    0.653820   0.000031  -0.000138  -0.011964  -0.000111  -0.006332
     8  H    0.000031   0.646486  -0.011724  -0.000127  -0.003041  -0.000208
     9  H   -0.000138  -0.011724   0.661687  -0.012208  -0.000118   0.000022
    10  H   -0.011964  -0.000127  -0.012208   0.661279   0.000002  -0.000132
    11  N   -0.000111  -0.003041  -0.000118   0.000002   6.391896  -0.061390
    12  S   -0.006332  -0.000208   0.000022  -0.000132  -0.061390  15.443119
    13  C    0.000006   0.000057  -0.000000  -0.000000  -0.024609  -0.060364
    14  C    0.000000   0.000001   0.000000  -0.000000   0.002996  -0.005193
    15  C   -0.000000  -0.000013   0.000000   0.000000  -0.007408   0.003422
    16  C   -0.000000  -0.000000  -0.000000   0.000000  -0.000097  -0.000069
    17  H    0.000001   0.000000  -0.000000  -0.000000   0.000224   0.005586
    18  C   -0.000000  -0.000000  -0.000000  -0.000000  -0.000571  -0.000095
    19  C    0.000000   0.000000  -0.000000  -0.000000   0.000060   0.000019
    20  H   -0.000000  -0.000000   0.000000   0.000000   0.000001  -0.000000
    21  H   -0.000000   0.000000  -0.000000   0.000000   0.000029   0.000003
    22  H    0.000000  -0.000000  -0.000000  -0.000000  -0.000000  -0.000000
    23  C    0.000085  -0.000763   0.000007   0.000004   0.530481   0.324527
    24  O   -0.000000  -0.000298   0.000000  -0.000000  -0.088906  -0.000365
    25  H    0.000002   0.001353  -0.000008  -0.000000   0.210828   0.002755
              13         14         15         16         17         18
     1  C   -0.000161  -0.000003   0.000001   0.000000  -0.000002   0.000000
     2  C    0.002830   0.000056  -0.000337  -0.000001   0.000048   0.000007
     3  C    0.010152   0.000119   0.000899   0.000004  -0.000000  -0.000029
     4  C   -0.000749   0.000005   0.000094  -0.000000  -0.000000  -0.000000
     5  C    0.000009  -0.000000  -0.000000   0.000000   0.000000  -0.000000
     6  C   -0.000000  -0.000000   0.000000   0.000000  -0.000000   0.000000
     7  H    0.000006   0.000000  -0.000000  -0.000000   0.000001  -0.000000
     8  H    0.000057   0.000001  -0.000013  -0.000000   0.000000  -0.000000
     9  H   -0.000000   0.000000   0.000000  -0.000000  -0.000000  -0.000000
    10  H   -0.000000  -0.000000   0.000000   0.000000  -0.000000  -0.000000
    11  N   -0.024609   0.002996  -0.007408  -0.000097   0.000224  -0.000571
    12  S   -0.060364  -0.005193   0.003422  -0.000069   0.005586  -0.000095
    13  C    5.361671   0.462850   0.249485  -0.007570  -0.040544  -0.041012
    14  C    0.462850   4.811056   0.005337   0.531673   0.401212  -0.056040
    15  C    0.249485   0.005337   4.754541  -0.060345   0.007316   0.502509
    16  C   -0.007570   0.531673  -0.060345   4.765413  -0.034949  -0.020000
    17  H   -0.040544   0.401212   0.007316  -0.034949   0.678799  -0.000776
    18  C   -0.041012  -0.056040   0.502509  -0.020000  -0.000776   4.818467
    19  C   -0.049531  -0.017350  -0.011631   0.485137   0.008415   0.512484
    20  H    0.008930  -0.036166  -0.000228   0.400867  -0.012664   0.008342
    21  H    0.013620  -0.000583  -0.022473   0.007433   0.000046   0.375740
    22  H   -0.001225   0.009134   0.009025  -0.045215  -0.000166  -0.040523
    23  C    0.339462  -0.093065  -0.079862   0.007103  -0.019316   0.007345
    24  O   -0.081608   0.004875   0.556075  -0.000022  -0.000064  -0.061406
    25  H   -0.023209  -0.000486  -0.028648  -0.000005  -0.000021   0.004118
              19         20         21         22         23         24
     1  C   -0.000000  -0.000000  -0.000000   0.000000   0.003557   0.000002
     2  C    0.000000  -0.000000   0.000000  -0.000000  -0.050460  -0.000110
     3  C    0.000001  -0.000000   0.000001  -0.000000  -0.113460  -0.001454
     4  C   -0.000000   0.000000  -0.000000  -0.000000   0.002010  -0.000078
     5  C    0.000000   0.000000   0.000000   0.000000   0.000202  -0.000001
     6  C    0.000000  -0.000000   0.000000  -0.000000  -0.000162  -0.000000
     7  H    0.000000  -0.000000  -0.000000   0.000000   0.000085  -0.000000
     8  H    0.000000  -0.000000   0.000000  -0.000000  -0.000763  -0.000298
     9  H   -0.000000   0.000000  -0.000000  -0.000000   0.000007   0.000000
    10  H   -0.000000   0.000000   0.000000  -0.000000   0.000004  -0.000000
    11  N    0.000060   0.000001   0.000029  -0.000000   0.530481  -0.088906
    12  S    0.000019  -0.000000   0.000003  -0.000000   0.324527  -0.000365
    13  C   -0.049531   0.008930   0.013620  -0.001225   0.339462  -0.081608
    14  C   -0.017350  -0.036166  -0.000583   0.009134  -0.093065   0.004875
    15  C   -0.011631  -0.000228  -0.022473   0.009025  -0.079862   0.556075
    16  C    0.485137   0.400867   0.007433  -0.045215   0.007103  -0.000022
    17  H    0.008415  -0.012664   0.000046  -0.000166  -0.019316  -0.000064
    18  C    0.512484   0.008342   0.375740  -0.040523   0.007345  -0.061406
    19  C    4.728549  -0.047296  -0.046247   0.404935   0.000403   0.003750
    20  H   -0.047296   0.683896  -0.000171  -0.012195  -0.000345   0.000002
    21  H   -0.046247  -0.000171   0.669801  -0.012185  -0.000413   0.004603
    22  H    0.404935  -0.012195  -0.012185   0.669394   0.000006  -0.000079
    23  C    0.000403  -0.000345  -0.000413   0.000006   5.078268  -0.007226
    24  O    0.003750   0.000002   0.004603  -0.000079  -0.007226   7.789941
    25  H   -0.000322  -0.000001   0.000011   0.000010  -0.001013   0.227227
              25
     1  C    0.000004
     2  C    0.005174
     3  C   -0.017772
     4  C   -0.002819
     5  C   -0.000040
     6  C    0.000006
     7  H    0.000002
     8  H    0.001353
     9  H   -0.000008
    10  H   -0.000000
    11  N    0.210828
    12  S    0.002755
    13  C   -0.023209
    14  C   -0.000486
    15  C   -0.028648
    16  C   -0.000005
    17  H   -0.000021
    18  C    0.004118
    19  C   -0.000322
    20  H   -0.000001
[...]
 0.00000130,0.00000752,0.16784054,-0.00012519,0.00092338,0.,0.00296707,
 0.00162257,0.,0.00306542,-0.00493341,-0.00000004,-0.00309393,0.0006793
 7,0.00000003,-0.00007101,-0.00253010,-0.00000002,0.00132324,0.00077699
 ,0.,-0.00003345,-0.00007387,0.,0.00005323,0.00003762,0.,0.00006101,-0.
 00002805,0.,0.00003632,0.00000588,0.,-0.00390572,0.00848818,0.00000007
 ,-0.00172521,0.00104735,0.00000001,-0.04238186,0.02354509,0.00000039,-
 0.18548235,0.12614160,0.00000220,0.00809713,-0.00006543,-0.00000006,0.
 72702300,-0.00062249,-0.00232185,0.,-0.01102503,-0.00658610,0.00000001
 ,-0.01397353,0.02037011,0.00000013,0.01282574,-0.00224091,-0.00000008,
 -0.00014482,0.00966926,0.00000008,-0.00364037,-0.00354230,-0.00000002,
 0.00002672,0.00025759,0.,-0.00011827,-0.00014966,0.,-0.00016332,0.0001
 3938,0.,-0.00006052,-0.00005006,0.,0.01602004,-0.02166632,-0.00000024,
 0.00295772,-0.00536666,-0.00000007,0.06082964,0.01966657,0.00000057,0.
 03638032,-0.24038552,-0.00000384,0.00702174,-0.00574251,-0.00000004,0.
 02278076,0.61207830,-0.00000003,-0.00000004,-0.00004037,-0.00000022,-0
 .00000016,-0.00009377,-0.00000032,0.00000046,-0.00024661,0.00000028,-0
 .00000005,-0.00021500,0.,0.00000021,-0.00002291,-0.00000006,-0.0000000
 8,0.00001081,0.,0.,-0.00002517,0.,0.,-0.00001249,0.,0.,0.00001417,0.,0
 .,0.00003737,0.00000036,-0.00000045,0.00223054,0.00000006,-0.00000014,
 -0.00003596,0.00000092,0.00000057,0.00179422,0.00000052,-0.00000375,-0
 .05238179,0.00000024,-0.00000006,-0.00465674,0.00000237,0.00001101,0.1
 3011585,0.00020703,0.00001226,0.,-0.00066533,0.00016378,0.00000002,0.0
 0034067,-0.00005102,0.,0.00001569,0.00007232,0.,0.00005903,0.00004263,
 0.,-0.00004780,-0.00006950,0.,-0.00001478,-0.00000101,0.,0.00002695,0.
 00000277,0.,0.00000631,-0.00000111,0.,0.00002655,-0.00000326,0.,0.0003
 6040,0.00066336,0.00000004,-0.00054061,0.00130621,-0.00000007,-0.00711
 667,-0.02903105,-0.00000065,-0.10537958,-0.10717444,-0.00000267,-0.004
 86640,0.00308725,-0.00000005,0.01095482,0.01855235,0.00000042,0.108522
 51,-0.00000846,-0.00004196,0.,-0.00014815,0.00025950,0.,0.00008350,0.0
 0021975,0.,0.00006822,0.00000349,0.,0.00000946,0.00010824,0.,-0.000088
 28,-0.00004144,0.,-0.00000468,0.00001477,0.,0.00000452,-0.00000742,0.,
 -0.00000568,0.00000114,0.,-0.00000733,0.00000319,0.,0.00021301,0.00045
 439,0.00000005,-0.00031321,-0.00020760,-0.00000002,0.00191149,0.000148
 92,-0.00000006,-0.10578588,-0.29533835,-0.00000614,0.00090836,0.001585
 90,-0.00000016,-0.01321185,-0.01815393,-0.00000048,0.11265943,0.311957
 27,0.00000001,0.,-0.00003185,0.,0.00000003,-0.00023099,0.00000003,-0.0
 0000004,0.00027519,-0.00000002,0.,0.00007230,0.,0.,0.00000857,0.,0.,0.
 00001400,0.,0.,0.00000773,0.,0.,0.00001282,0.,0.,-0.00000039,0.,0.,-0.
 00000614,-0.00000002,0.00000006,-0.00169192,-0.00000007,0.00000001,0.0
 0054678,0.00000015,-0.00000030,0.00453325,-0.00000275,-0.00000613,-0.0
 3301442,-0.00000005,-0.00000006,0.00802656,-0.00000022,-0.00000044,0.0
 0257864,0.00000290,0.00000679,0.02113273,-0.00180863,0.00066290,0.0000
 0003,-0.00376977,-0.00412903,-0.00000003,-0.00638076,0.01264050,0.0000
 0002,0.00644217,-0.00104137,-0.00000002,-0.00033614,0.00309244,0.00000
 003,0.00090470,-0.00156446,-0.00000002,-0.00012046,0.00010153,0.,0.000
 06767,-0.00001978,0.,0.00007589,0.00002586,0.,0.00008462,-0.00005370,0
 .,0.01469196,0.00233807,0.00000010,-0.00016467,-0.00434448,0.00000002,
 0.02367432,0.01692630,0.00000043,-0.02772784,0.02563188,0.00000046,-0.
 15300870,0.07628076,0.00000165,-0.01826612,-0.07080701,-0.00000157,-0.
 00068629,0.00013907,-0.00000002,0.73035786,0.00058427,-0.00010691,-0.0
 0000001,-0.00048842,-0.00051834,-0.00000001,0.00055542,-0.00035238,-0.
 00000002,-0.00072133,0.00013241,0.,0.00019701,-0.00012593,0.,-0.000423
 67,-0.00003467,0.,0.00000160,0.00001794,0.,-0.00003612,-0.00001085,0.,
 -0.00001718,-0.00000844,0.,0.00001260,0.00000799,0.,0.00133557,-0.0003
 8539,0.00000011,0.00130802,-0.00143097,-0.00000005,0.01465933,-0.03584
 417,-0.00000091,0.00243976,-0.00299621,0.00000005,0.09974847,-0.262437
 03,-0.00000410,-0.03406562,-0.00396664,-0.00000027,-0.00012980,0.00069
 052,0.00000006,0.04449725,0.70597309,0.00000002,0.,0.00014497,0.000000
 05,0.00000003,0.00074049,0.00000008,-0.00000013,0.00177085,-0.00000008
 ,0.00000001,-0.00039116,0.,-0.00000004,-0.00002837,0.,0.00000002,-0.00
 010240,0.,0.,0.00009815,0.,0.,0.00007658,0.,0.,0.00003896,0.,0.,-0.000
 06927,-0.00000003,0.00000022,-0.00667806,0.,-0.00000002,0.00122896,0.0
 0000025,-0.00000080,0.01127228,0.00000008,0.00000003,-0.00268517,0.000
 00218,-0.00000427,-0.06639367,-0.00000078,-0.00000032,0.00561462,0.,0.
 00000005,-0.00110302,0.00000081,0.00001281,0.10846636,0.00210237,0.000
 22462,-0.00000002,0.00698473,0.00649275,0.00000001,0.01211055,-0.01929
 490,-0.00000008,-0.01052703,0.00179124,0.00000006,0.00044520,-0.006262
 86,-0.00000005,0.00037678,0.00285230,0.00000003,0.00007352,-0.00013070
 ,0.,0.00002678,0.00007221,0.,-0.00003722,-0.00005831,0.,-0.00004229,0.
 00007532,0.,-0.02033961,0.01277646,0.00000015,0.00031854,0.00499043,0.
 00000002,-0.02065986,-0.01933215,-0.00000042,0.06248518,-0.01251396,-0
 .00000005,-0.04622145,0.02502776,0.00000052,-0.14986790,-0.01566448,-0
 .00000056,-0.00202717,0.00456835,0.00000009,-0.36577108,-0.05183509,-0
 .00000109,0.69886763,0.00002332,0.00068585,0.,0.00152732,0.00056189,0.
 00000002,0.00271507,-0.00201212,0.00000002,-0.00226706,0.00044287,0.00
 000001,0.00006067,-0.00177440,-0.00000001,0.00087307,0.00031200,0.,-0.
 00002669,-0.00002662,0.,0.00002401,-0.00000828,0.,0.00004625,-0.000042
 77,0.,0.00002398,0.00002221,0.,0.00131947,0.00656559,-0.00000003,-0.00
 147090,0.00030530,-0.00000002,-0.02301539,-0.01009865,-0.00000033,0.03
 470008,-0.06055639,-0.00000151,0.01726224,0.02252694,0.00000040,-0.101
 07262,-0.28633853,-0.00000559,0.00350455,-0.00151040,-0.00000008,-0.00
 556179,-0.11972961,-0.00000150,-0.05154120,0.69156248,0.,0.00000002,0.
 00018219,0.00000003,0.00000001,-0.00034499,0.00000006,-0.00000003,-0.0
 0113301,-0.00000005,0.,0.00010816,0.,-0.00000004,0.00008807,0.00000002
 ,0.,0.00000756,0.,0.,-0.00004277,0.,0.,-0.00010921,0.,0.,-0.00000554,0
 .,0.,-0.00000155,0.00000006,0.00000014,0.00198000,-0.00000005,0.,0.000
 18687,-0.00000055,-0.00000021,-0.00187873,0.00000085,-0.00000158,0.008
 13781,0.00000039,0.00000047,0.00246031,-0.00000240,-0.00000540,-0.0587
 7180,0.00000006,-0.00000013,0.00452772,-0.00000024,-0.00000159,-0.0480
 1528,-0.00000085,0.00001351,0.11024042,0.00006266,-0.00008667,0.,-0.00
 011461,0.00008949,0.,-0.00000669,-0.00005657,0.,0.00001238,0.00001823,
 0.,0.00001031,0.00009398,0.,-0.00013917,-0.00000549,0.,0.00000499,0.00
 000943,0.,-0.00000256,-0.00000627,0.,-0.00001261,0.00000531,0.,-0.0000
 0850,0.00000469,0.,-0.00014403,0.00041392,0.,0.00005131,-0.00003291,0.
 ,0.00050089,0.00312431,0.00000006,-0.01360609,-0.00619905,-0.00000022,
 0.00061063,0.00021539,0.,-0.34123712,-0.04045007,-0.00000189,0.0007747
 1,0.00008373,0.00000001,0.00134655,-0.00210976,-0.00000008,-0.00667565
 ,0.00236122,0.00000003,0.35899587,-0.00000774,0.00000510,0.,-0.0000715
 4,-0.00012004,0.,-0.00001674,0.00026169,-0.00000001,0.00010597,-0.0000
 6112,0.,0.00001112,0.00007143,0.,-0.00000689,-0.00003720,0.,-0.0000007
 6,-0.00000049,0.,0.00000004,0.00000042,0.,0.00000301,-0.00000312,0.,0.
 00000253,-0.00000177,0.,0.00048663,-0.00039108,0.00000002,0.00003086,-
 0.00000596,0.,0.00327908,-0.00429730,-0.00000020,0.02447687,0.00715723
 ,0.00000010,0.00046286,-0.00106915,0.,-0.04072853,-0.06524762,-0.00000
 084,-0.00016147,0.00087750,0.00000009,-0.00134254,-0.00535039,-0.00000
 026,-0.02891764,0.00178521,-0.00000020,0.04312711,0.06417215,0.,0.,-0.
 00001909,-0.00000002,-0.00000002,0.00004061,-0.00000002,0.00000003,0.0
 0053864,0.00000002,0.,0.00010270,0.,0.00000001,-0.00006731,0.,0.,0.000
 01189,0.,0.,0.00000899,0.,0.,0.00003541,0.,0.,-0.00002169,0.,0.,-0.000
 00336,0.00000003,-0.00000004,-0.00062846,0.,0.,-0.00009619,0.00000007,
 -0.00000021,0.00554103,0.00000042,0.00000008,0.00669540,0.,-0.00000002
 ,-0.00129255,-0.00000187,-0.00000094,-0.03772912,0.,0.00000009,-0.0031
 6286,-0.00000003,-0.00000028,0.00539345,-0.00000068,-0.00000004,0.0068
 6172,0.00000206,0.00000113,0.02237826,-0.00009116,0.00002259,0.,0.0000
 6125,0.00005425,0.,-0.00011221,0.00007528,0.,0.00004667,0.00000124,0.,
 -0.00002183,-0.00002303,0.,0.00007077,0.00000660,0.,0.00000127,-0.0000
 0459,0.,-0.00000449,0.00000161,0.,0.00000345,0.,0.,-0.00000203,-0.0000
 0216,0.,0.00017212,-0.00040318,-0.00000002,-0.00026531,0.00008657,0.,-
 0.00322689,0.00290397,0.00000005,0.00022512,0.00014758,0.,0.00894139,0
 .01930695,0.00000042,-0.00581605,0.00096395,0.00000002,0.00010263,-0.0
 0010697,0.,-0.10443723,-0.10998397,-0.00000230,-0.00450936,-0.02808215
 ,-0.00000061,-0.00042552,-0.00139917,-0.00000004,0.10556969,0.00006976
 ,0.00003532,0.,-0.00011629,-0.00006086,0.,0.00014135,0.00003877,-0.000
 00001,-0.00001324,-0.00000788,0.,0.00000656,-0.00002050,0.,0.00001812,
 -0.00002103,0.,-0.00000671,0.00000292,0.,0.00000856,0.00000203,0.,0.00
 000596,-0.00000186,0.,0.00000875,-0.00000102,0.,-0.00030418,0.00059788
 ,0.00000001,0.00027056,-0.00017008,0.,0.00400579,-0.00185325,-0.000000
 11,0.00017934,0.00030116,0.00000002,-0.01398489,-0.01850181,-0.0000004
 7,0.00005651,0.00123999,-0.00000012,-0.00008572,-0.00005144,0.,-0.1070
 4909,-0.30076790,-0.00000576,0.00247691,0.00201496,-0.00000006,0.00010
 818,-0.00001707,0.00000001,0.11627483,0.31524130,0.,0.,-0.00035203,-0.
 00000002,0.,-0.00012516,0.,0.,0.00037396,0.,0.,0.00000614,0.,0.0000000
 1,-0.00006329,-0.00000001,0.,0.00004388,0.,0.,-0.00000666,0.,0.,0.0000
 5294,0.,0.,-0.00000475,0.,0.,0.00006619,-0.00000004,-0.00000002,0.0000
 2463,0.00000003,0.,-0.00034337,0.00000008,-0.00000006,0.00338424,0.000
 00003,0.,-0.00041640,-0.00000044,-0.00000046,0.00374813,0.,-0.00000008
 ,0.00649684,0.,0.,-0.00036237,-0.00000213,-0.00000582,-0.03242145,-0.0
 0000005,-0.00000009,0.00447568,0.,0.00000002,-0.00055629,0.00000247,0.
 00000628,0.02195386,0.00003423,-0.00002486,0.,-0.00006729,0.00006049,0
 .,0.00014275,0.00002536,0.,0.00000083,-0.00000166,0.,0.00001093,0.0000
 5061,0.,-0.00006459,-0.00001410,0.,-0.00000026,0.00000676,0.,0.0000018
 7,-0.00000493,0.,-0.00000690,0.00000202,0.,-0.00000358,0.00000326,0.,0
 .00024731,0.00066860,0.00000002,-0.00003509,0.00008400,0.,-0.00010902,
 -0.00064572,-0.00000002,-0.00063467,-0.00261714,-0.00000007,-0.0033643
 9,-0.00324927,-0.00000006,0.01045989,-0.01196801,-0.00000027,0.0003759
 2,-0.00052919,0.,-0.01252707,0.02627910,0.00000058,-0.17050878,0.14191
 822,0.00000312,0.00071305,0.00037961,0.00000002,0.00110644,-0.00029169
 ,0.,0.17654288,0.00003037,0.00007189,0.,0.00030674,0.00023507,0.,0.000
 43503,-0.00069679,0.,-0.00039052,0.00007321,0.,0.00000441,-0.00030821,
 0.,0.00012500,0.00011505,0.,-0.00000308,-0.00001083,0.,0.00000648,0.00
 000875,0.,0.00000858,-0.00000451,0.,0.00000594,-0.00000111,0.,-0.00074
 394,0.00036931,0.,-0.00008215,0.00021782,0.,-0.00112867,0.00039419,0.0
 0000004,-0.00269662,-0.00367161,-0.00000021,-0.00204264,0.00016276,-0.
 00000015,0.02021059,-0.01552907,-0.00000037,0.00090646,-0.00102137,-0.
 00000004,-0.00553134,0.00719769,0.00000007,0.14103983,-0.23609454,-0.0
 0000465,-0.00009051,0.00096120,0.00000011,0.00027745,0.00058589,0.0000
 0010,-0.15103495,0.24663849,0.,0.,0.00001558,0.,0.,0.00003791,0.000000
 01,-0.00000001,-0.00008925,0.,0.,0.00003146,0.,0.,0.00000581,0.,0.,0.0
 0000013,0.,0.,0.00000019,0.,0.,0.00000733,0.,0.,-0.00000119,0.,0.,-0.0
 0001186,-0.00000001,0.,0.00036496,0.,0.,-0.00021476,-0.00000003,0.0000
 0004,-0.00131709,-0.00000008,-0.00000023,0.00476902,-0.00000006,-0.000
 00013,0.00703226,0.00000049,-0.00000040,0.00221108,0.00000002,-0.00000
 005,0.00091131,-0.00000008,0.00000010,0.00382870,0.00000305,-0.0000046
 5,-0.03185274,0.00000002,0.00000010,-0.00331852,0.,0.00000010,-0.00381
 292,-0.00000331,0.00000509,0.02226351,-0.00331464,-0.00732913,-0.00000
 006,-0.01327897,0.01611504,0.00000013,-0.08276482,0.04456970,0.0000005
 1,0.01678905,-0.00284294,-0.00000010,-0.00149522,0.01139662,0.00000010
 ,-0.00718764,-0.00370020,0.,0.00040128,-0.00043267,0.,-0.00053983,-0.0
 0022827,0.,-0.00007478,0.00012733,0.,-0.00063948,-0.00014888,0.,-0.336
 10888,-0.06470554,0.00000037,-0.04557772,-0.03638548,-0.00000003,-0.18
 700296,0.11001989,0.00000081,-0.03846785,0.03853523,0.00000047,0.02711
 628,0.00817163,0.00000010,-0.00198664,-0.01568663,-0.00000037,0.000332
 96,0.00006344,-0.00000001,-0.00832813,-0.00849235,-0.00000019,0.007598
 36,0.00113291,0.00000003,-0.00064663,0.00057984,0.,0.00075023,-0.00100
 559,0.,-0.00021385,0.00050466,0.,0.68399376,-0.00207832,0.00201338,0.0
 0000002,0.03529831,-0.01771813,-0.00000024,0.02425350,0.00134568,-0.00
 000020,-0.00044052,-0.00586864,-0.00000002,-0.00092371,-0.00394191,-0.
 00000004,0.00401060,0.00030327,-0.00000002,0.00005649,-0.00071568,0.,-
 0.00026591,0.00022752,0.,0.00045818,-0.00047901,0.,-0.00016111,0.00000
 368,0.00000001,-0.05771382,-0.10750207,-0.00000036,-0.01004142,-0.1364
 4339,-0.00000024,0.08496598,-0.21092528,-0.00000157,0.01981665,0.00983
 886,0.00000009,0.02206359,-0.05139660,-0.00000058,-0.00470935,0.000474
 61,-0.00000016,-0.00141403,0.00062989,0.00000008,-0.01523535,0.0027988
 7,0.00000001,0.00844330,0.00251860,0.00000007,-0.00056181,0.00110966,0
 .00000006,0.00036525,-0.00053267,-0.00000005,0.00023321,0.00012948,0.0
 0000001,-0.08532686,0.52133951,-0.00000001,0.00000004,0.00137309,0.000
 00028,-0.00000024,-0.00106341,0.00000033,-0.00000008,0.00553411,-0.000
 00004,-0.00000005,0.00359401,0.,-0.00000007,0.00108788,0.00000007,0.,0
 .00076835,0.,0.,-0.00035928,0.,0.,-0.00074871,0.,0.,-0.00060910,0.,0.,
 -0.00022943,0.00000059,-0.00000027,-0.03581518,0.,-0.00000027,-0.01912
 791,0.00000063,-0.00000164,-0.03705538,0.00000009,0.00000025,0.0079655
 6,0.00000027,-0.00000070,0.00517370,-0.00000006,-0.00000015,0.00327580
 ,0.,0.00000005,-0.00180619,-0.00000014,0.00000001,-0.00021695,0.,0.000
 00013,-0.00091903,0.,0.00000004,-0.00094820,0.,-0.00000005,0.00170606,
 0.,0.,0.00002711,-0.00000184,0.00000310,0.06731848,0.00078834,0.001498
 37,0.00000002,0.00162526,0.00580903,0.,0.01450431,-0.00504765,-0.00000
 006,-0.00321735,0.00047866,0.00000004,-0.00033513,-0.00295380,-0.00000
 002,0.00166963,0.00117242,0.,-0.00023521,0.00020487,0.,0.00032376,0.00
 004494,0.,-0.00000942,0.00005214,0.,0.00002857,0.00006364,0.,-0.000232
 18,0.06091797,0.00000098,0.00053967,0.00429309,0.00000006,-0.04495954,
 -0.02028480,-0.00000038,0.01840147,-0.00993046,-0.00000018,-0.43636731
 ,-0.07061209,-0.00000075,-0.01162488,0.01073426,0.00000021,-0.00126615
 ,-0.00077808,-0.00000003,-0.07452108,0.01879289,0.00000045,0.00396891,
 0.00246936,0.00000002,-0.00014641,-0.00030507,0.00000002,0.00201375,-0
 .00101448,0.00000007,-0.00223297,-0.00011122,-0.00000001,-0.00723779,-
 0.00121496,0.00000002,0.55675450,-0.00156401,-0.00130120,0.,-0.0005459
 4,-0.00786511,0.,-0.02103721,0.00155818,-0.00000002,0.00345827,-0.0011
 6581,-0.00000003,0.00016940,0.00282913,0.00000002,-0.00056935,-0.00158
 668,-0.00000002,0.00028314,-0.00043163,0.,0.00002543,0.00017182,0.,0.0
 0021871,-0.00013119,0.,0.00007113,-0.00011279,0.,0.03295914,-0.1017780
 5,-0.00000190,0.00036154,-0.00365056,-0.00000003,-0.03048219,-0.011662
 46,-0.00000031,-0.01059372,-0.00555108,-0.00000019,-0.06509386,-0.1146
 4146,-0.00000092,0.00173199,-0.00906197,-0.00000018,-0.00178042,0.0001
 2194,0.,0.04487427,0.01674027,-0.00000002,0.00457186,-0.00179995,-0.00
 000012,0.00000633,0.00043821,0.00000001,-0.00130140,0.00272938,0.00000
 015,0.00188518,0.00047319,0.00000003,0.00917971,0.01327847,0.00000017,
 0.05998392,0.21642449,-0.00000003,-0.00000003,0.00040313,0.00000001,-0
 .00000013,-0.00093099,-0.00000033,-0.00000003,-0.00085101,0.00000003,-
 0.00000001,0.00042947,0.,0.00000002,0.00019376,0.,-0.00000002,0.000057
 57,0.,0.,-0.00009155,0.,0.,-0.00020897,0.,0.,-0.00005409,0.,0.,-0.0000
 9040,0.00000052,-0.00000193,0.02088785,0.,-0.00000003,-0.00153575,-0.0
 0000050,-0.00000062,0.01527360,-0.00000013,-0.00000011,0.00194950,-0.0
 0000066,-0.00000074,-0.05349738,0.,-0.00000013,0.00015372,0.,0.0000000
 4,-0.00188179,0.00000093,-0.00000002,0.01428789,0.00000005,-0.00000011
 ,0.00353269,0.,0.,0.00017723,-0.00000002,0.00000012,-0.00339386,0.0000
 0003,0.00000002,-0.00044352,0.00000015,0.00000025,-0.00297357,0.000000
 40,0.00000284,0.03934975,-0.00001551,-0.00021373,0.,-0.00362522,-0.001
 42822,0.,-0.00130342,0.01200575,0.00000015,0.00270678,-0.00040416,-0.0
 0000002,0.00004171,0.00145812,0.,-0.00049370,-0.00065342,0.,0.00000137
 ,0.00005842,0.,-0.00053382,-0.00024049,0.,0.00004647,-0.00003425,0.,-0
 .00000215,-0.00007927,0.,-0.05016337,-0.02750417,-0.00000044,-0.002894
 18,-0.00530743,-0.00000003,0.00425993,-0.00403051,-0.00000008,-0.00553
 494,0.00243363,0.00000003,-0.03356824,0.02160437,0.00000035,0.00157630
 ,-0.00476869,-0.00000010,0.00050461,0.00027520,0.00000002,0.00020823,-
 0.00210800,0.,0.00182886,0.00307606,0.00000007,0.00008227,0.00001254,0
 .,-0.00015269,0.00024070,0.,0.00013232,-0.00000588,0.,-0.00211610,-0.0
 1987788,-0.00000021,-0.01823274,-0.02681190,-0.00000047,0.10724721,0.0
 0320107,0.00127178,0.,0.00305927,0.01396249,0.00000001,0.03419189,-0.0
 1296286,0.00000006,-0.00826259,0.00331970,0.00000007,-0.00070025,-0.00
 597615,-0.00000003,0.00077071,0.00274587,0.00000002,-0.00036707,0.0005
 7716,0.00000001,0.00031783,-0.00033170,0.,-0.00036252,0.00025398,0.,-0
 .00014933,0.00022209,0.,-0.03972125,-0.01939364,0.00000014,0.00296380,
 0.01327780,0.00000008,-0.02575008,0.01582956,0.00000030,0.02518642,-0.
 01086674,-0.00000017,0.05023437,0.01187821,0.00000024,-0.00662907,0.02
 245382,0.00000048,-0.00107055,-0.00070249,-0.00000005,-0.01053088,0.00
 050706,-0.00000015,-0.00985205,-0.00931163,-0.00000024,-0.00006219,-0.
 00023750,0.00000002,0.00081852,-0.00078222,0.00000003,-0.00121488,-0.0
 0029596,0.,-0.01411144,-0.02048808,-0.00000029,-0.05426294,0.00597487,
 0.00000062,0.05230321,-0.01092541,0.00000005,0.00000005,0.00044902,0.,
 0.00000018,0.00203277,0.00000051,0.00000012,-0.00439417,-0.00000005,0.
 00000004,-0.00096446,-0.00000002,-0.00000005,-0.00021039,0.00000002,0.
 00000002,-0.00006281,-0.00000001,0.00000001,-0.00005141,0.,-0.00000001
 ,0.00012775,0.,0.,0.00007919,0.,0.,0.00006146,-0.00000074,-0.00000015,
 -0.02944116,0.00000009,0.00000023,0.00163409,-0.00000041,0.00000036,-0
 .00496827,0.00000034,-0.00000019,0.00021408,0.00000087,0.00000013,0.00
 165102,-0.00000010,0.00000032,-0.00030192,-0.00000003,-0.00000002,0.00
 064434,-0.00000017,-0.00000007,0.00514254,-0.00000012,-0.00000013,0.00
 028547,0.,0.,0.00005833,0.00000002,0.,-0.00047399,-0.00000002,0.,-0.00
 044450,-0.00000008,-0.00000021,0.00404819,-0.00000085,0.00000051,-0.03
 074326,0.00000073,-0.00000113,0.05562811\\0.00071855,-0.00116393,-0.00
 000008,-0.00145654,-0.00290162,-0.00000002,-0.00347585,0.00001532,0.00
 000011,-0.00035105,0.00049732,0.,0.00038744,0.00234844,0.00000003,0.00
 078797,0.00065508,-0.00000004,0.00022633,-0.00017937,0.00000002,-0.000
 20851,0.00013012,0.,0.00003655,0.00020036,-0.00000001,0.00016165,0.000
 11969,0.,0.00274160,-0.00375960,-0.00000022,-0.00159482,-0.00607187,0.
 00000019,0.00168603,-0.00167682,-0.00000020,-0.00288351,0.00100829,-0.
 00000017,-0.00373259,-0.00135142,-0.00000016,0.00080648,-0.00050840,-0
 .00000009,-0.00020001,0.00010205,-0.00000002,0.00201412,0.00000907,0.0
 0000012,0.00235404,0.00150990,0.00000015,0.00003981,0.00014772,0.,0.00
 020451,-0.00001648,0.00000002,0.00027925,0.00017780,0.00000003,0.00132
 079,0.00073493,0.00000014,0.00265357,0.00211983,-0.00000010,-0.0025158
 2,0.00785359,0.00000028\\\@
 The archive entry for this job was punched.


 AN AIRPLANE IS A COLLECTION OF SPARE PARTS
 FLYING IN CLOSE FORMATION.
 Job cpu time:       0 days  2 hours 50 minutes  9.3 seconds.
 Elapsed time:       0 days  0 hours 17 minutes 31.3 seconds.
 File lengths (MBytes):  RWF=   1380 Int=      0 D2E=      0 Chk=     48 Scr=      8
 Normal termination of Gaussian 16 at Mon Jul 13 15:23:41 2020.
