 Entering Gaussian System, Link 0=g16
 Initial command:
 /gpfs/loomis/apps/avx/software/Gaussian/16-C.01_AVX/g16/l1.exe "/home/fas/batista/pev4/scratch60/gauss-scratch/Gau-15286.inp" -scrdir="/home/fas/batista/pev4/scratch60/gauss-scratch/"
 Entering Link 1 = /gpfs/loomis/apps/avx/software/Gaussian/16-C.01_AVX/g16/l1.exe PID=     15288.
  
 Copyright (c) 1988-2019, Gaussian, Inc.  All Rights Reserved.
  
 This is part of the Gaussian(R) 16 program.  It is based on
 the Gaussian(R) 09 system (copyright 2009, Gaussian, Inc.),
 the Gaussian(R) 03 system (copyright 2003, Gaussian, Inc.),
 the Gaussian(R) 98 system (copyright 1998, Gaussian, Inc.),
 the Gaussian(R) 94 system (copyright 1995, Gaussian, Inc.),
 the Gaussian 92(TM) system (copyright 1992, Gaussian, Inc.),
 the Gaussian 90(TM) system (copyright 1990, Gaussian, Inc.),
 the Gaussian 88(TM) system (copyright 1988, Gaussian, Inc.),
 the Gaussian 86(TM) system (copyright 1986, Carnegie Mellon
 University), and the Gaussian 82(TM) system (copyright 1983,
 Carnegie Mellon University). Gaussian is a federally registered
 trademark of Gaussian, Inc.
  
 This software contains proprietary and confidential information,
 including trade secrets, belonging to Gaussian, Inc.
  
 This software is provided under written license and may be
 used, copied, transmitted, or stored only in accord with that
 written license.
  
 The following legend is applicable only to US Government
 contracts under FAR:
  
                    RESTRICTED RIGHTS LEGEND
  
 Use, reproduction and disclosure by the US Government is
 subject to restrictions as set forth in subparagraphs (a)
 and (c) of the Commercial Computer Software - Restricted
 Rights clause in FAR 52.227-19.
  
 Gaussian, Inc.
 340 Quinnipiac St., Bldg. 40, Wallingford CT 06492
  
  
 ---------------------------------------------------------------
 Warning -- This program may not be used in any manner that
 competes with the business of Gaussian, Inc. or will provide
 assistance to any competitor of Gaussian, Inc.  The licensee
 of this program is prohibited from giving any competitor of
 Gaussian, Inc. access to this program.  By using this program,
 the user acknowledges that Gaussian, Inc. is engaged in the
 business of creating and licensing software in the field of
 computational chemistry and represents and warrants to the
 licensee that it is not a competitor of Gaussian, Inc. and that
 it will not use this program in any manner prohibited above.
 ---------------------------------------------------------------
  

 Cite this work as:
 Gaussian 16, Revision C.01,
 M. J. Frisch, G. W. Trucks, H. B. Schlegel, G. E. Scuseria, 
 M. A. Robb, J. R. Cheeseman, G. Scalmani, V. Barone, 
 G. A. Petersson, H. Nakatsuji, X. Li, M. Caricato, A. V. Marenich, 
 J. Bloino, B. G. Janesko, R. Gomperts, B. Mennucci, H. P. Hratchian, 
 J. V. Ortiz, A. F. Izmaylov, J. L. Sonnenberg, D. Williams-Young, 
 F. Ding, F. Lipparini, F. Egidi, J. Goings, B. Peng, A. Petrone, 
 T. Henderson, D. Ranasinghe, V. G. Zakrzewski, J. Gao, N. Rega, 
 G. Zheng, W. Liang, M. Hada, M. Ehara, K. Toyota, R. Fukuda, 
 J. Hasegawa, M. Ishida, T. Nakajima, Y. Honda, O. Kitao, H. Nakai, 
 T. Vreven, K. Throssell, J. A. Montgomery, Jr., J. E. Peralta, 
 F. Ogliaro, M. J. Bearpark, J. J. Heyd, E. N. Brothers, K. N. Kudin, 
 V. N. Staroverov, T. A. Keith, R. Kobayashi, J. Normand, 
 K. Raghavachari, A. P. Rendell, J. C. Burant, S. S. Iyengar, 
 J. Tomasi, M. Cossi, J. M. Millam, M. Klene, C. Adamo, R. Cammi, 
 J. W. Ochterski, R. L. Martin, K. Morokuma, O. Farkas, 
 J. B. Foresman, and D. J. Fox, Gaussian, Inc., Wallingford CT, 2019.
 
 ******************************************
 Gaussian 16:  ES64L-G16RevC.01  3-Jul-2019
                13-Jul-2020 
 ******************************************
 %chk=config_5_5.chk
 %mem=58GB
 %nprocshared=10
 Will use up to   10 processors via shared memory.
 ----------------------------------------------------------------------
 #p opt=addgic freq td wb97xd/cc-pvdz nosymm int=ultrafine scrf=(solven
 t=CarbonTetraChloride)
 ----------------------------------------------------------------------
 1/18=20,19=15,26=6,38=1,145=903/1,3;
 2/9=110,12=2,15=1,17=6,18=5,40=1/2;
 3/5=16,11=9,25=1,30=1,70=2201,71=1,72=11,74=-58,75=-5/1,2,3,8;
 4//1;
 5/5=2,38=5,53=11/2;
 8/6=1,10=1/1;
 9/15=2,42=1,70=2/14;
 10/5=4,31=1/2;
 6/7=2,8=2,9=2,10=2/1;
 7/12=6,13=5,30=1/1,2,3,16;
 1/18=20,19=15,26=6,145=903/3(2);
 2/9=110,15=1/2;
 99//99;
 2/9=110,15=1/2;
 3/5=16,11=9,25=1,30=1,70=2205,71=1,72=11,74=-58,75=-5/1,2,3,8;
 4/5=5,16=3,69=1/1;
 5/5=2,38=5,53=11/2;
 8/6=1,10=1/1;
 9/15=2,42=1,49=4,70=2/14;
 10/5=4,31=1/2;
 7/12=6,13=5,30=1/1,2,3,16;
 1/18=20,19=15,26=6,145=903/3(-8);
 2/9=110,15=1/2;
 6/7=2,8=2,9=2,10=2/1;
 99/9=10/99;
 Leave Link    1 at Mon Jul 13 13:28:26 2020, MaxMem=  7784628224 cpu:               4.4 elap:               0.5
 (Enter /gpfs/loomis/apps/avx/software/Gaussian/16-C.01_AVX/g16/l101.exe)
 ------------------------------------------------
 NM 2D-scan of HBT TD-WB97XD pVDZ in CTC Relaxed.
 ------------------------------------------------
 Symbolic Z-matrix:
 Charge =  0 Multiplicity = 1
 C                     1.70481  -3.27003  -0.00002 
 C                     0.99852  -2.06902  -0.00002 
 C                     1.68319  -0.81802  -0.00002 
 C                     3.09895  -0.79185  -0.00002 
 C                     3.78562  -1.99147  -0.00002 
 C                     3.10096  -3.22313  -0.00002 
 H                     1.18226  -4.22826  -0.00002 
 H                     3.61562   0.16944  -0.00002 
 H                     4.87755  -1.98707  -0.00002 
 H                     3.66769  -4.15581  -0.00002 
 N                     0.8866    0.25721  -0.00002 
 S                    -0.74136  -1.79499  -0.00002 
 C                    -1.39411   1.01061   0. 
 C                    -2.7991    0.85903  -0.00001 
 C                    -0.879     2.40233   0.00003 
 C                    -3.64405   1.97063   0.00002 
 H                    -3.22708  -0.14535  -0.00003 
 C                    -1.76584   3.49673   0.00006 
 C                    -3.14065   3.2912    0.00006 
 H                    -4.72425   1.81188   0.00002 
 H                    -1.32697   4.49562   0.00008 
 H                    -3.82634   4.13913   0.00008 
 C                    -0.43928  -0.03799  -0.00001 
 O                     0.40404   2.62648   0.00003 
 H                     0.85789   1.71538   0.00001 
 
 Initializing the GIC definitions file.
 Number of initial coordinates =   131
 Number of input entries/lines =    52
 Number of additional coordinates =     2
 Number of removed coordinates =     0
 Number of frozen coordinates =     2
 Number of final active and frozen coordinates =   133
 ITRead=  0  0  0  0  0  0  0  0  0  0  0  0  0  0  0  0  0  0  0  0
 ITRead=  0  0  0  0  0
 MicOpt= -1 -1 -1 -1 -1 -1 -1 -1 -1 -1 -1 -1 -1 -1 -1 -1 -1 -1 -1 -1
 MicOpt= -1 -1 -1 -1 -1
 NAtoms=     25 NQM=       25 NQMF=       0 NMMI=      0 NMMIF=      0
                NMic=       0 NMicF=      0.
                    Isotopes and Nuclear Properties:
 (Nuclear quadrupole moments (NQMom) in fm**2, nuclear magnetic moments (NMagM)
  in nuclear magnetons)

  Atom         1           2           3           4           5           6           7           8           9          10
 IAtWgt=          12          12          12          12          12          12           1           1           1           1
 AtmWgt=  12.0000000  12.0000000  12.0000000  12.0000000  12.0000000  12.0000000   1.0078250   1.0078250   1.0078250   1.0078250
 NucSpn=           0           0           0           0           0           0           1           1           1           1
 AtZEff=  -0.0000000  -0.0000000  -0.0000000  -0.0000000  -0.0000000  -0.0000000  -0.0000000  -0.0000000  -0.0000000  -0.0000000
 NQMom=    0.0000000   0.0000000   0.0000000   0.0000000   0.0000000   0.0000000   0.0000000   0.0000000   0.0000000   0.0000000
 NMagM=    0.0000000   0.0000000   0.0000000   0.0000000   0.0000000   0.0000000   2.7928460   2.7928460   2.7928460   2.7928460
 AtZNuc=   6.0000000   6.0000000   6.0000000   6.0000000   6.0000000   6.0000000   1.0000000   1.0000000   1.0000000   1.0000000

  Atom        11          12          13          14          15          16          17          18          19          20
 IAtWgt=          14          32          12          12          12          12           1          12          12           1
 AtmWgt=  14.0030740  31.9720718  12.0000000  12.0000000  12.0000000  12.0000000   1.0078250  12.0000000  12.0000000   1.0078250
 NucSpn=           2           0           0           0           0           0           1           0           0           1
 AtZEff=  -0.0000000  -0.0000000  -0.0000000  -0.0000000  -0.0000000  -0.0000000  -0.0000000  -0.0000000  -0.0000000  -0.0000000
 NQMom=    2.0440000   0.0000000   0.0000000   0.0000000   0.0000000   0.0000000   0.0000000   0.0000000   0.0000000   0.0000000
 NMagM=    0.4037610   0.0000000   0.0000000   0.0000000   0.0000000   0.0000000   2.7928460   0.0000000   0.0000000   2.7928460
 AtZNuc=   7.0000000  16.0000000   6.0000000   6.0000000   6.0000000   6.0000000   1.0000000   6.0000000   6.0000000   1.0000000

  Atom        21          22          23          24          25
 IAtWgt=           1           1          12          16           1
 AtmWgt=   1.0078250   1.0078250  12.0000000  15.9949146   1.0078250
 NucSpn=           1           1           0           0           1
 AtZEff=  -0.0000000  -0.0000000  -0.0000000  -0.0000000  -0.0000000
 NQMom=    0.0000000   0.0000000   0.0000000   0.0000000   0.0000000
 NMagM=    2.7928460   2.7928460   0.0000000   0.0000000   2.7928460
 AtZNuc=   1.0000000   1.0000000   6.0000000   8.0000000   1.0000000
 Leave Link  101 at Mon Jul 13 13:28:29 2020, MaxMem=  7784628224 cpu:              32.2 elap:               3.3
 (Enter /gpfs/loomis/apps/avx/software/Gaussian/16-C.01_AVX/g16/l103.exe)

 GradGradGradGradGradGradGradGradGradGradGradGradGradGradGradGradGradGrad
 Berny optimization.
 Initialization pass.
                           ----------------------------
                           !    Initial Parameters    !
                           ! (Angstroms and Degrees)  !
 --------------------------                            --------------------------
 ! Name  Definition              Value          Derivative Info.                !
 --------------------------------------------------------------------------------
 ! R1    R(1,2)                  1.3933         estimate D2E/DX2                !
 ! R2    R(1,6)                  1.3969         estimate D2E/DX2                !
 ! R3    R(1,7)                  1.0914         estimate D2E/DX2                !
 ! R4    R(2,3)                  1.4261         estimate D2E/DX2                !
 ! R5    R(2,12)                 1.7613         estimate D2E/DX2                !
 ! R6    R(3,4)                  1.416          estimate D2E/DX2                !
 ! R7    R(3,11)                 1.3382         estimate D2E/DX2                !
 ! R8    R(4,5)                  1.3823         estimate D2E/DX2                !
 ! R9    R(4,8)                  1.0913         estimate D2E/DX2                !
 ! R10   R(5,6)                  1.4092         estimate D2E/DX2                !
 ! R11   R(5,9)                  1.0919         estimate D2E/DX2                !
 ! R12   R(6,10)                 1.0914         estimate D2E/DX2                !
 ! R13   R(11,23)                1.3583         estimate D2E/DX2                !
 ! R14   R(12,23)                1.7828         estimate D2E/DX2                !
 ! R15   R(13,14)                1.4131         estimate D2E/DX2                !
 ! R16   R(13,15)                1.484          estimate D2E/DX2                !
 ! R17   R(13,23)                1.4182         estimate D2E/DX2                !
 ! R18   R(14,16)                1.3963         estimate D2E/DX2                !
 ! R19   R(14,17)                1.0918         estimate D2E/DX2                !
 ! R20   R(15,18)                1.4086         estimate D2E/DX2                !
 ! R21   R(15,24)                1.3025         estimate D2E/DX2                !
 ! R22   R(16,19)                1.4133         estimate D2E/DX2                !
 ! R23   R(16,20)                1.0918         estimate D2E/DX2                !
 ! R24   R(18,19)                1.3901         estimate D2E/DX2                !
 ! R25   R(18,21)                1.091          estimate D2E/DX2                !
 ! R26   R(19,22)                1.0905         estimate D2E/DX2                !
 ! R27   R(24,25)                1.0179         estimate D2E/DX2                !
 ! A1    A(2,1,6)              118.5349         estimate D2E/DX2                !
 ! A2    A(2,1,7)              120.9362         estimate D2E/DX2                !
 ! A3    A(6,1,7)              120.5289         estimate D2E/DX2                !
 ! A4    A(1,2,3)              120.8493         estimate D2E/DX2                !
 ! A5    A(1,2,12)             129.4093         estimate D2E/DX2                !
 ! A6    A(3,2,12)             109.7414         estimate D2E/DX2                !
 ! A7    A(2,3,4)              119.751          estimate D2E/DX2                !
 ! A8    A(2,3,11)             114.7753         estimate D2E/DX2                !
 ! A9    A(4,3,11)             125.4737         estimate D2E/DX2                !
 ! A10   A(3,4,5)              118.7277         estimate D2E/DX2                !
 ! A11   A(3,4,8)              119.3163         estimate D2E/DX2                !
 ! A12   A(5,4,8)              121.956          estimate D2E/DX2                !
 ! A13   A(4,5,6)              121.1443         estimate D2E/DX2                !
 ! A14   A(4,5,9)              119.5558         estimate D2E/DX2                !
 ! A15   A(6,5,9)              119.2999         estimate D2E/DX2                !
 ! A16   A(1,6,5)              120.9928         estimate D2E/DX2                !
 ! A17   A(1,6,10)             119.3607         estimate D2E/DX2                !
 ! A18   A(5,6,10)             119.6465         estimate D2E/DX2                !
 ! A19   A(3,11,23)            113.981          estimate D2E/DX2                !
 ! A20   A(2,12,23)             89.1952         estimate D2E/DX2                !
 ! A21   A(14,13,15)           116.4683         estimate D2E/DX2                !
 ! A22   A(14,13,23)           126.1625         estimate D2E/DX2                !
 ! A23   A(15,13,23)           117.3692         estimate D2E/DX2                !
 ! A24   A(13,14,16)           121.082          estimate D2E/DX2                !
 ! A25   A(13,14,17)           119.2373         estimate D2E/DX2                !
 ! A26   A(16,14,17)           119.6808         estimate D2E/DX2                !
 ! A27   A(13,15,18)           120.6702         estimate D2E/DX2                !
 ! A28   A(13,15,24)           120.2203         estimate D2E/DX2                !
 ! A29   A(18,15,24)           119.1095         estimate D2E/DX2                !
 ! A30   A(14,16,19)           121.8934         estimate D2E/DX2                !
 ! A31   A(14,16,20)           118.8788         estimate D2E/DX2                !
 ! A32   A(19,16,20)           119.2278         estimate D2E/DX2                !
 ! A33   A(15,18,19)           120.5163         estimate D2E/DX2                !
 ! A34   A(15,18,21)           117.2622         estimate D2E/DX2                !
 ! A35   A(19,18,21)           122.2215         estimate D2E/DX2                !
 ! A36   A(16,19,18)           119.3699         estimate D2E/DX2                !
 ! A37   A(16,19,22)           120.1716         estimate D2E/DX2                !
 ! A38   A(18,19,22)           120.4585         estimate D2E/DX2                !
 ! A39   A(11,23,12)           112.3071         estimate D2E/DX2                !
 ! A40   A(11,23,13)           119.7683         estimate D2E/DX2                !
 ! A41   A(12,23,13)           127.9246         estimate D2E/DX2                !
 ! A42   A(15,24,25)           106.5697         estimate D2E/DX2                !
 ! D1    D(6,1,2,3)              0.0            estimate D2E/DX2                !
 ! D2    D(6,1,2,12)          -179.9999         estimate D2E/DX2                !
 ! D3    D(7,1,2,3)            180.0            estimate D2E/DX2                !
 ! D4    D(7,1,2,12)             0.0            estimate D2E/DX2                !
 ! D5    D(2,1,6,5)              0.0            estimate D2E/DX2                !
 ! D6    D(2,1,6,10)           180.0            estimate D2E/DX2                !
 ! D7    D(7,1,6,5)           -179.9999         estimate D2E/DX2                !
 ! D8    D(7,1,6,10)             0.0            estimate D2E/DX2                !
 ! D9    D(1,2,3,4)              0.0            estimate D2E/DX2                !
 ! D10   D(1,2,3,11)           180.0            estimate D2E/DX2                !
 ! D11   D(12,2,3,4)           179.9999         estimate D2E/DX2                !
 ! D12   D(12,2,3,11)           -0.0001         estimate D2E/DX2                !
 ! D13   D(1,2,12,23)          179.9999         estimate D2E/DX2                !
 ! D14   D(3,2,12,23)           -0.0001         estimate D2E/DX2                !
 ! D15   D(2,3,4,5)              0.0            estimate D2E/DX2                !
 ! D16   D(2,3,4,8)           -180.0            estimate D2E/DX2                !
 ! D17   D(11,3,4,5)          -180.0            estimate D2E/DX2                !
 ! D18   D(11,3,4,8)             0.0            estimate D2E/DX2                !
 ! D19   D(2,3,11,23)            0.0002         estimate D2E/DX2                !
 ! D20   D(4,3,11,23)         -179.9998         estimate D2E/DX2                !
 ! D21   D(3,4,5,6)              0.0            estimate D2E/DX2                !
 ! D22   D(3,4,5,9)           -180.0            estimate D2E/DX2                !
 ! D23   D(8,4,5,6)           -180.0            estimate D2E/DX2                !
 ! D24   D(8,4,5,9)              0.0            estimate D2E/DX2                !
 ! D25   D(4,5,6,1)              0.0            estimate D2E/DX2                !
 ! D26   D(4,5,6,10)          -180.0            estimate D2E/DX2                !
 ! D27   D(9,5,6,1)            180.0            estimate D2E/DX2                !
 ! D28   D(9,5,6,10)             0.0            estimate D2E/DX2                !
 ! D29   D(3,11,23,12)          -0.0003         estimate D2E/DX2                !
 ! D30   D(3,11,23,13)         179.9993         estimate D2E/DX2                !
 ! D31   D(2,12,23,11)           0.0002         estimate D2E/DX2                !
 ! D32   D(2,12,23,13)        -179.9994         estimate D2E/DX2                !
 ! D33   D(15,13,14,16)         -0.0004         estimate D2E/DX2                !
 ! D34   D(15,13,14,17)        179.9997         estimate D2E/DX2                !
 ! D35   D(23,13,14,16)        179.9995         estimate D2E/DX2                !
 ! D36   D(23,13,14,17)         -0.0004         estimate D2E/DX2                !
 ! D37   D(14,13,15,18)          0.0004         estimate D2E/DX2                !
 ! D38   D(14,13,15,24)       -179.9997         estimate D2E/DX2                !
 ! D39   D(23,13,15,18)       -179.9995         estimate D2E/DX2                !
 ! D40   D(23,13,15,24)          0.0004         estimate D2E/DX2                !
 ! D41   D(14,13,23,11)        179.9993         estimate D2E/DX2                !
 ! D42   D(14,13,23,12)         -0.0012         estimate D2E/DX2                !
 ! D43   D(15,13,23,11)         -0.0008         estimate D2E/DX2                !
 ! D44   D(15,13,23,12)        179.9987         estimate D2E/DX2                !
 ! D45   D(13,14,16,19)          0.0001         estimate D2E/DX2                !
 ! D46   D(13,14,16,20)       -179.9999         estimate D2E/DX2                !
 ! D47   D(17,14,16,19)        180.0            estimate D2E/DX2                !
 ! D48   D(17,14,16,20)          0.0            estimate D2E/DX2                !
 ! D49   D(13,15,18,19)         -0.0001         estimate D2E/DX2                !
 ! D50   D(13,15,18,21)        179.9998         estimate D2E/DX2                !
 ! D51   D(24,15,18,19)        180.0            estimate D2E/DX2                !
 ! D52   D(24,15,18,21)         -0.0001         estimate D2E/DX2                !
 ! D53   D(13,15,24,25)          0.0            estimate D2E/DX2                !
 ! D54   D(18,15,24,25)        179.9999         estimate D2E/DX2                !
 ! D55   D(14,16,19,18)          0.0002         estimate D2E/DX2                !
 ! D56   D(14,16,19,22)       -179.9998         estimate D2E/DX2                !
 ! D57   D(20,16,19,18)       -179.9998         estimate D2E/DX2                !
 ! D58   D(20,16,19,22)          0.0001         estimate D2E/DX2                !
 ! D59   D(15,18,19,16)         -0.0002         estimate D2E/DX2                !
 ! D60   D(15,18,19,22)        179.9999         estimate D2E/DX2                !
 ! D61   D(21,18,19,16)        179.9999         estimate D2E/DX2                !
 ! D62   D(21,18,19,22)         -0.0001         estimate D2E/DX2                !
 ! Qtot  GIC-1                  -10.0           Frozen                          !
 ! Ptot  GIC-2                 -60.0            Frozen                          !
 --------------------------------------------------------------------------------
 NOTE: GIC-type coordinates are in arbitrary units.
 Trust Radius=3.00D-01 FncErr=5.00D-06 GrdErr=5.00D-06 EigMax=2.50D+02 EigMin=1.00D-04
 Number of steps in this run=    143 maximum allowed number of steps=    150.
 GradGradGradGradGradGradGradGradGradGradGradGradGradGradGradGradGradGrad

 Leave Link  103 at Mon Jul 13 13:28:29 2020, MaxMem=  7784628224 cpu:               0.1 elap:               0.0
 (Enter /gpfs/loomis/apps/avx/software/Gaussian/16-C.01_AVX/g16/l202.exe)
                          Input orientation:                          
 ---------------------------------------------------------------------
 Center     Atomic      Atomic             Coordinates (Angstroms)
 Number     Number       Type             X           Y           Z
 ---------------------------------------------------------------------
      1          6           0        1.704811   -3.270033   -0.000023
      2          6           0        0.998517   -2.069015   -0.000021
      3          6           0        1.683185   -0.818021   -0.000020
      4          6           0        3.098949   -0.791846   -0.000021
      5          6           0        3.785617   -1.991473   -0.000022
      6          6           0        3.100961   -3.223133   -0.000023
      7          1           0        1.182263   -4.228260   -0.000023
      8          1           0        3.615618    0.169435   -0.000020
      9          1           0        4.877549   -1.987070   -0.000022
     10          1           0        3.667693   -4.155807   -0.000025
     11          7           0        0.886600    0.257212   -0.000019
     12         16           0       -0.741356   -1.794989   -0.000019
     13          6           0       -1.394110    1.010612    0.000001
     14          6           0       -2.799097    0.859033   -0.000005
     15          6           0       -0.879003    2.402329    0.000031
     16          6           0       -3.644055    1.970629    0.000023
     17          1           0       -3.227080   -0.145346   -0.000032
     18          6           0       -1.765841    3.496735    0.000060
     19          6           0       -3.140648    3.291199    0.000058
     20          1           0       -4.724247    1.811876    0.000019
     21          1           0       -1.326970    4.495625    0.000084
     22          1           0       -3.826339    4.139126    0.000083
     23          6           0       -0.439283   -0.037988   -0.000015
     24          8           0        0.404038    2.626478    0.000033
     25          1           0        0.857885    1.715376    0.000012
 ---------------------------------------------------------------------
                    Distance matrix (angstroms):
                    1          2          3          4          5
     1  C    0.000000
     2  C    1.393304   0.000000
     3  C    2.452107   1.426098   0.000000
     4  C    2.843419   2.458246   1.416006   0.000000
     5  C    2.442226   2.788178   2.407739   1.382251   0.000000
     6  C    1.396937   2.398386   2.791890   2.431288   1.409163
     7  H    1.091446   2.167049   3.446832   3.934797   3.432298
     8  H    3.934607   3.443817   2.170108   1.091334   2.167585
     9  H    3.422319   3.879898   3.401564   2.142890   1.091942
    10  H    2.153486   3.388097   3.883180   3.411701   2.167544
    11  N    3.620901   2.328918   1.338161   2.448471   3.668907
    12  S    2.856482   1.761320   2.613975   3.969161   4.531235
    13  C    5.284622   3.899842   3.579615   4.841119   5.986826
    14  C    6.110186   4.795346   4.785746   6.124733   7.175225
    15  C    6.233121   4.849537   4.115273   5.101653   6.408134
    16  C    7.488318   6.154039   6.012991   7.286931   8.420111
    17  H    5.838426   4.642863   4.956128   6.358979   7.251628
    18  C    7.604904   6.214439   5.523848   6.485222   7.806351
    19  C    8.156484   6.772339   6.336802   7.456797   8.710899
    20  H    8.195034   6.914575   6.926150   8.245106   9.321119
    21  H    8.336495   6.964366   6.107035   6.895369   8.259600
    22  H    9.246040   7.862585   7.411353   8.501417   9.773746
    23  C    3.878563   2.488441   2.261266   3.617650   4.654663
    24  O    6.038282   4.732976   3.674342   4.352871   5.723683
    25  H    5.056836   3.787003   2.664437   3.362816   4.723594
                    6          7          8          9         10
     6  C    0.000000
     7  H    2.166029   0.000000
     8  H    3.431384   5.026027   0.000000
     9  H    2.164283   4.321814   2.498597   0.000000
    10  H    1.091360   2.486487   4.325556   2.483379   0.000000
    11  N    4.125069   4.495206   2.730429   4.578698   5.216245
    12  S    4.099145   3.101792   4.779350   5.622187   5.001317
    13  C    6.174970   5.838105   5.079857   6.951245   7.232823
    14  C    7.174592   6.460014   6.451676   8.187259   8.183398
    15  C    6.891005   6.943597   5.018709   7.239111   7.980075
    16  C    8.512955   7.856180   7.479783   9.395803   9.539123
    17  H    7.036823   6.009367   6.849935   8.311256   7.976322
    18  C    8.297131   8.268425   6.327007   8.614334   9.385344
    19  C    9.021873   8.673512   7.442616   9.599563  10.090164
    20  H    9.305117   8.448083   8.500057  10.326010  10.297471
    21  H    8.898640   9.077578   6.568493   8.973372   9.989692
    22  H   10.108923   9.751883   8.434522  10.643681  11.178838
    23  C    4.762192   4.493082   4.060203   5.662829   5.815814
    24  O    6.441377   6.898773   4.043674   6.426284   7.526675
    25  H    5.424045   5.952481   3.161491   5.464962   6.508902
                   11         12         13         14         15
    11  N    0.000000
    12  S    2.619498   0.000000
    13  C    2.401926   2.880535   0.000000
    14  C    3.734509   3.358293   1.413140   0.000000
    15  C    2.778288   4.199575   1.483985   2.463437   0.000000
    16  C    4.843824   4.754528   2.446198   1.396280   2.798548
    17  H    4.133331   2.983312   2.167030   1.091763   3.464696
    18  C    4.186879   5.389982   2.513760   2.832859   1.408618
    19  C    5.042202   5.623692   2.872537   2.456030   2.430046
    20  H    5.822250   5.373351   3.425177   2.148048   3.890313
    21  H    4.781636   6.317813   3.485660   3.923258   2.140692
    22  H    6.105821   6.688111   3.962743   3.437184   3.421001
    23  C    1.358348   1.782779   1.418188   2.524553   2.479618
    24  O    2.417910   4.567417   2.417511   3.658406   1.302474
    25  H    1.458447   3.857491   2.359698   3.755908   1.867803
                   16         17         18         19         20
    16  C    0.000000
    17  H    2.156668   0.000000
    18  C    2.420059   3.924280   0.000000
    19  C    1.413267   3.437631   1.390086   0.000000
    20  H    1.091796   2.464189   3.404544   2.167068   0.000000
    21  H    3.427022   5.014881   1.091049   2.177170   4.329434
    22  H    2.176145   4.326177   2.158313   1.090482   2.494460
    23  C    3.782209   2.789864   3.775450   4.287290   4.667217
    24  O    4.100877   4.568154   2.337888   3.606474   5.192580
    25  H    4.509170   4.488790   3.171305   4.297846   5.582967
                   21         22         23         24         25
    21  H    0.000000
    22  H    2.524665   0.000000
    23  C    4.619701   5.377771   0.000000
    24  O    2.547568   4.492682   2.794740   0.000000
    25  H    3.536012   5.274136   2.181039   1.017882   0.000000
 Symmetry turned off by external request.
 Stoichiometry    C13H9NOS
 Framework group  C1[X(C13H9NOS)]
 Deg. of freedom    69
 Full point group                 C1      NOp   1
 Rotational constants (GHZ):           1.3616842           0.2857249           0.2361691
 Leave Link  202 at Mon Jul 13 13:28:29 2020, MaxMem=  7784628224 cpu:               0.2 elap:               0.0
 (Enter /gpfs/loomis/apps/avx/software/Gaussian/16-C.01_AVX/g16/l301.exe)
 Standard basis: CC-pVDZ (5D, 7F)
 Ernie: Thresh=  0.10000D-02 Tol=  0.10000D-05 Strict=F.
 Ernie:  40 primitive shells out of 425 were deleted.
   273 basis functions,   629 primitive gaussians,   289 cartesian basis functions
    59 alpha electrons       59 beta electrons
       nuclear repulsion energy      1096.5283738453 Hartrees.
 IExCor= 4639 DFT=T Ex+Corr=wB97XD ExCW=0 ScaHFX=  1.000000
 ScaDFX=  1.000000  1.000000  1.000000  1.000000 ScalE2=  1.000000  1.000000
 IRadAn=      5 IRanWt=     -1 IRanGd=            0 ICorTp=0 IEmpDi=121
 HFx  wShort=  0.000000 wLong=  0.200000 cFull=  0.222036 cShort=  0.000000 cLong=  0.777964
 DFx  wShort=  0.000000 wLong=  0.200000 cFull=  0.000000 cShort=  0.000000 cLong=  1.000000
 NAtoms=   25 NActive=   25 NUniq=   25 SFac= 1.00D+00 NAtFMM=   60 NAOKFM=F Big=F
 Integral buffers will be    131072 words long.
 Raffenetti 1 integral format.
 Two-electron integral symmetry is turned off.
 R6Disp:  Grimme-D2 Dispersion energy=       -0.0139881875 Hartrees.
 Nuclear repulsion after empirical dispersion term =     1096.5143856578 Hartrees.
 ------------------------------------------------------------------------------
 Polarizable Continuum Model (PCM)
 =================================
 Model                : PCM.
 Atomic radii         : UFF (Universal Force Field).
 Polarization charges : Total charges.
 Charge compensation  : None.
 Solution method      : On-the-fly selection.
 Cavity type          : Scaled VdW (van der Waals Surface) (Alpha=1.100).
 Cavity algorithm     : GePol (No added spheres)
                        Default sphere list used, NSphG=   25.
                        Lebedev-Laikov grids with approx.  5.0 points / Ang**2.
                        Smoothing algorithm: York/Karplus (Gamma=1.0000).
                        Polarization charges: spherical gaussians, with
                                              point-specific exponents (IZeta= 3).
                        Self-potential: point-specific (ISelfS= 7).
                        Self-field    : sphere-specific E.n sum rule (ISelfD= 2).
 1st derivatives      : Analytical E(r).r(x)/FMM algorithm (CHGder, D1EAlg=3).
                        Cavity 1st derivative terms included.
 Solvent              : CarbonTetraChloride, Eps=   2.228000 Eps(inf)=   2.131892
 ------------------------------------------------------------------------------
 GePol: Number of generator spheres                  =      25
 GePol: Total number of spheres                      =      25
 GePol: Number of exposed spheres                    =      25 (100.00%)
 GePol: Number of points                             =    2186
 GePol: Average weight of points                     =       0.13
 GePol: Minimum weight of points                     =   0.31D-09
 GePol: Maximum weight of points                     =    0.20577
 GePol: Number of points with low weight             =     140
 GePol: Fraction of low-weight points (<1% of avg)   =       6.40%
 GePol: Cavity surface area                          =    274.900 Ang**2
 GePol: Cavity volume                                =    294.030 Ang**3
 Leave Link  301 at Mon Jul 13 13:28:29 2020, MaxMem=  7784628224 cpu:               0.8 elap:               0.1
 (Enter /gpfs/loomis/apps/avx/software/Gaussian/16-C.01_AVX/g16/l302.exe)
 NPDir=0 NMtPBC=     1 NCelOv=     1 NCel=       1 NClECP=     1 NCelD=      1
         NCelK=      1 NCelE2=     1 NClLst=     1 CellRange=     0.0.
 One-electron integrals computed using PRISM.
 NBasis=   273 RedAO= T EigKep=  3.14D-04  NBF=   273
 NBsUse=   273 1.00D-06 EigRej= -1.00D+00 NBFU=   273
 Precomputing XC quadrature grid using
 IXCGrd= 4 IRadAn=           5 IRanWt=          -1 IRanGd=           0 AccXCQ= 0.00D+00.
 Generated NRdTot=       0 NPtTot=           0 NUsed=           0 NTot=          32
 NSgBfM=   288   288   288   288   288 MxSgAt=    25 MxSgA2=    25.
 Leave Link  302 at Mon Jul 13 13:28:30 2020, MaxMem=  7784628224 cpu:               5.6 elap:               0.7
 (Enter /gpfs/loomis/apps/avx/software/Gaussian/16-C.01_AVX/g16/l303.exe)
 DipDrv:  MaxL=1.
 Leave Link  303 at Mon Jul 13 13:28:30 2020, MaxMem=  7784628224 cpu:               0.5 elap:               0.1
 (Enter /gpfs/loomis/apps/avx/software/Gaussian/16-C.01_AVX/g16/l308.exe)
 Leave Link  308 at Mon Jul 13 13:28:30 2020, MaxMem=  7784628224 cpu:               0.4 elap:               0.1
 (Enter /gpfs/loomis/apps/avx/software/Gaussian/16-C.01_AVX/g16/l401.exe)
 ExpMin= 1.22D-01 ExpMax= 1.11D+05 ExpMxC= 1.07D+03 IAcc=3 IRadAn=         5 AccDes= 0.00D+00
 Harris functional with IExCor= 4639 and IRadAn=       5 diagonalized for initial guess.
 HarFok:  IExCor= 4639 AccDes= 0.00D+00 IRadAn=         5 IDoV= 1 UseB2=F ITyADJ=14
 ICtDFT=  3500011 ScaDFX=  1.000000  1.000000  1.000000  1.000000
 FoFCou: FMM=F IPFlag=           0 FMFlag=      100000 FMFlg1=           0
         NFxFlg=           0 DoJE=T BraDBF=F KetDBF=T FulRan=T
         wScrn=  0.000000 ICntrl=       500 IOpCl=  0 I1Cent=   200000004 NGrid=           0
         NMat0=    1 NMatS0=      1 NMatT0=    0 NMatD0=    1 NMtDS0=    0 NMtDT0=    0
 Symmetry not used in FoFCou.
 Harris En= -994.454824991376    
 JPrj=0 DoOrth=F DoCkMO=F.
 Leave Link  401 at Mon Jul 13 13:28:32 2020, MaxMem=  7784628224 cpu:              13.8 elap:               1.4
 (Enter /gpfs/loomis/apps/avx/software/Gaussian/16-C.01_AVX/g16/l502.exe)
 Two-electron integral symmetry not used.
 Closed shell SCF:
 Using DIIS extrapolation, IDIIS=  1040.
 NGot=  7784628224 LenX=  7784455381 LenY=  7784371419
 Requested convergence on RMS density matrix=1.00D-08 within 128 cycles.
 Requested convergence on MAX density matrix=1.00D-06.
 Requested convergence on             energy=1.00D-06.
 No special actions if energy rises.
 Fock matrices will be formed incrementally for  20 cycles.

 Cycle   1  Pass 1  IDiag  1:
 FoFJK:  IHMeth= 1 ICntrl=       0 DoSepK=T KAlg= 0 I1Cent=           0 FoldK=F
 IRaf=         1 NMat=       1 IRICut=       1 DoRegI=T DoRafI=F ISym2E= 0 IDoP0=0 IntGTp=1.
 FoFCou: FMM=F IPFlag=           0 FMFlag=      100000 FMFlg1=           0
         NFxFlg=           0 DoJE=T BraDBF=F KetDBF=F FulRan=T
         wScrn=  0.000000 ICntrl=       500 IOpCl=  0 I1Cent=           0 NGrid=           0
         NMat0=    1 NMatS0=      1 NMatT0=    0 NMatD0=    1 NMtDS0=    0 NMtDT0=    0
 Symmetry not used in FoFCou.
 Inv3:  Mode=1 IEnd=    14335788.
 Iteration    1 A*A^-1 deviation from unit magnitude is 5.55D-15 for   2175.
 Iteration    1 A*A^-1 deviation from orthogonality  is 2.67D-15 for   1819    309.
 Iteration    1 A^-1*A deviation from unit magnitude is 5.55D-15 for   2175.
 Iteration    1 A^-1*A deviation from orthogonality  is 1.89D-15 for   1077    732.
 E= -1028.58520207439    
 DIIS: error= 2.35D-02 at cycle   1 NSaved=   1.
 NSaved= 1 IEnMin= 1 EnMin= -1028.58520207439     IErMin= 1 ErrMin= 2.35D-02
 ErrMax= 2.35D-02  0.00D+00 EMaxC= 1.00D-01 BMatC= 3.87D-01 BMatP= 3.87D-01
 IDIUse=3 WtCom= 7.65D-01 WtEn= 2.35D-01
 Coeff-Com:  0.100D+01
 Coeff-En:   0.100D+01
 Coeff:      0.100D+01
 Gap=     0.356 Goal=   None    Shift=    0.000
 GapD=    0.356 DampG=1.000 DampE=0.500 DampFc=0.5000 IDamp=-1.
 Damping current iteration by 5.00D-01
 RMSDP=3.49D-03 MaxDP=2.25D-01              OVMax= 1.70D-01

 Cycle   2  Pass 1  IDiag  1:
 RMSU=  1.74D-03    CP:  9.93D-01
 E= -1028.70115778960     Delta-E=       -0.115955715213 Rises=F Damp=T
 DIIS: error= 1.05D-02 at cycle   2 NSaved=   2.
 NSaved= 2 IEnMin= 2 EnMin= -1028.70115778960     IErMin= 2 ErrMin= 1.05D-02
 ErrMax= 1.05D-02  0.00D+00 EMaxC= 1.00D-01 BMatC= 5.73D-02 BMatP= 3.87D-01
 IDIUse=3 WtCom= 8.95D-01 WtEn= 1.05D-01
 Coeff-Com: -0.300D+00 0.130D+01
 Coeff-En:   0.000D+00 0.100D+01
 Coeff:     -0.269D+00 0.127D+01
 Gap=     0.302 Goal=   None    Shift=    0.000
 RMSDP=1.13D-03 MaxDP=2.25D-02 DE=-1.16D-01 OVMax= 1.11D-01

 Cycle   3  Pass 1  IDiag  1:
 RMSU=  1.08D-03    CP:  9.91D-01  1.21D+00
 E= -1028.80364912144     Delta-E=       -0.102491331837 Rises=F Damp=F
 DIIS: error= 5.24D-03 at cycle   3 NSaved=   3.
 NSaved= 3 IEnMin= 3 EnMin= -1028.80364912144     IErMin= 3 ErrMin= 5.24D-03
 ErrMax= 5.24D-03  0.00D+00 EMaxC= 1.00D-01 BMatC= 1.26D-02 BMatP= 5.73D-02
 IDIUse=3 WtCom= 9.48D-01 WtEn= 5.24D-02
 Coeff-Com: -0.201D+00 0.474D+00 0.727D+00
 Coeff-En:   0.000D+00 0.000D+00 0.100D+01
 Coeff:     -0.191D+00 0.449D+00 0.742D+00
 Gap=     0.263 Goal=   None    Shift=    0.000
 RMSDP=4.89D-04 MaxDP=1.72D-02 DE=-1.02D-01 OVMax= 3.75D-02

 Cycle   4  Pass 1  IDiag  1:
 RMSU=  3.73D-04    CP:  9.89D-01  1.36D+00  8.60D-01
 E= -1028.81567657448     Delta-E=       -0.012027453037 Rises=F Damp=F
 DIIS: error= 1.86D-03 at cycle   4 NSaved=   4.
 NSaved= 4 IEnMin= 4 EnMin= -1028.81567657448     IErMin= 4 ErrMin= 1.86D-03
 ErrMax= 1.86D-03  0.00D+00 EMaxC= 1.00D-01 BMatC= 1.40D-03 BMatP= 1.26D-02
 IDIUse=3 WtCom= 9.81D-01 WtEn= 1.86D-02
 Coeff-Com: -0.725D-01 0.143D+00 0.348D+00 0.581D+00
 Coeff-En:   0.000D+00 0.000D+00 0.000D+00 0.100D+01
 Coeff:     -0.711D-01 0.141D+00 0.341D+00 0.589D+00
 Gap=     0.261 Goal=   None    Shift=    0.000
 RMSDP=1.48D-04 MaxDP=8.28D-03 DE=-1.20D-02 OVMax= 1.04D-02

 Cycle   5  Pass 1  IDiag  1:
 RMSU=  9.95D-05    CP:  9.89D-01  1.37D+00  9.22D-01  7.70D-01
 E= -1028.81714731604     Delta-E=       -0.001470741569 Rises=F Damp=F
 DIIS: error= 3.40D-04 at cycle   5 NSaved=   5.
 NSaved= 5 IEnMin= 5 EnMin= -1028.81714731604     IErMin= 5 ErrMin= 3.40D-04
 ErrMax= 3.40D-04  0.00D+00 EMaxC= 1.00D-01 BMatC= 5.18D-05 BMatP= 1.40D-03
 IDIUse=3 WtCom= 9.97D-01 WtEn= 3.40D-03
 Coeff-Com: -0.183D-02-0.222D-02 0.369D-01 0.170D+00 0.797D+00
 Coeff-En:   0.000D+00 0.000D+00 0.000D+00 0.000D+00 0.100D+01
 Coeff:     -0.183D-02-0.221D-02 0.368D-01 0.169D+00 0.798D+00
 Gap=     0.261 Goal=   None    Shift=    0.000
 RMSDP=4.94D-05 MaxDP=1.53D-03 DE=-1.47D-03 OVMax= 4.68D-03

 Cycle   6  Pass 1  IDiag  1:
 RMSU=  3.31D-05    CP:  9.89D-01  1.38D+00  9.40D-01  8.50D-01  1.07D+00
 E= -1028.81724900136     Delta-E=       -0.000101685317 Rises=F Damp=F
 DIIS: error= 1.71D-04 at cycle   6 NSaved=   6.
 NSaved= 6 IEnMin= 6 EnMin= -1028.81724900136     IErMin= 6 ErrMin= 1.71D-04
 ErrMax= 1.71D-04  0.00D+00 EMaxC= 1.00D-01 BMatC= 8.37D-06 BMatP= 5.18D-05
 IDIUse=3 WtCom= 9.98D-01 WtEn= 1.71D-03
 Coeff-Com:  0.142D-01-0.295D-01-0.546D-01-0.528D-01 0.225D+00 0.898D+00
 Coeff-En:   0.000D+00 0.000D+00 0.000D+00 0.000D+00 0.000D+00 0.100D+01
 Coeff:      0.142D-01-0.294D-01-0.546D-01-0.527D-01 0.224D+00 0.898D+00
 Gap=     0.262 Goal=   None    Shift=    0.000
 RMSDP=2.86D-05 MaxDP=1.46D-03 DE=-1.02D-04 OVMax= 2.25D-03

 Cycle   7  Pass 1  IDiag  1:
 RMSU=  1.58D-05    CP:  9.89D-01  1.38D+00  9.51D-01  8.82D-01  1.23D+00
                    CP:  1.17D+00
 E= -1028.81727341210     Delta-E=       -0.000024410734 Rises=F Damp=F
 DIIS: error= 8.45D-05 at cycle   7 NSaved=   7.
 NSaved= 7 IEnMin= 7 EnMin= -1028.81727341210     IErMin= 7 ErrMin= 8.45D-05
 ErrMax= 8.45D-05  0.00D+00 EMaxC= 1.00D-01 BMatC= 2.10D-06 BMatP= 8.37D-06
 IDIUse=1 WtCom= 1.00D+00 WtEn= 0.00D+00
 Coeff-Com:  0.673D-02-0.129D-01-0.299D-01-0.473D-01-0.163D-01 0.403D+00
 Coeff-Com:  0.697D+00
 Coeff:      0.673D-02-0.129D-01-0.299D-01-0.473D-01-0.163D-01 0.403D+00
 Coeff:      0.697D+00
 Gap=     0.262 Goal=   None    Shift=    0.000
 RMSDP=9.86D-06 MaxDP=4.36D-04 DE=-2.44D-05 OVMax= 1.04D-03

 Cycle   8  Pass 1  IDiag  1:
 RMSU=  5.93D-06    CP:  9.89D-01  1.38D+00  9.52D-01  8.88D-01  1.26D+00
                    CP:  1.36D+00  1.07D+00
 E= -1028.81727733705     Delta-E=       -0.000003924959 Rises=F Damp=F
 DIIS: error= 2.63D-05 at cycle   8 NSaved=   8.
 NSaved= 8 IEnMin= 8 EnMin= -1028.81727733705     IErMin= 8 ErrMin= 2.63D-05
 ErrMax= 2.63D-05  0.00D+00 EMaxC= 1.00D-01 BMatC= 2.17D-07 BMatP= 2.10D-06
 IDIUse=1 WtCom= 1.00D+00 WtEn= 0.00D+00
 Coeff-Com: -0.120D-02 0.265D-02 0.360D-02 0.785D-03-0.403D-01-0.574D-01
 Coeff-Com:  0.196D+00 0.896D+00
 Coeff:     -0.120D-02 0.265D-02 0.360D-02 0.785D-03-0.403D-01-0.574D-01
 Coeff:      0.196D+00 0.896D+00
 Gap=     0.262 Goal=   None    Shift=    0.000
 RMSDP=4.30D-06 MaxDP=1.34D-04 DE=-3.92D-06 OVMax= 5.55D-04

 Cycle   9  Pass 1  IDiag  1:
 RMSU=  2.04D-06    CP:  9.89D-01  1.38D+00  9.52D-01  8.88D-01  1.27D+00
                    CP:  1.42D+00  1.26D+00  1.13D+00
 E= -1028.81727794993     Delta-E=       -0.000000612877 Rises=F Damp=F
 DIIS: error= 1.48D-05 at cycle   9 NSaved=   9.
 NSaved= 9 IEnMin= 9 EnMin= -1028.81727794993     IErMin= 9 ErrMin= 1.48D-05
 ErrMax= 1.48D-05  0.00D+00 EMaxC= 1.00D-01 BMatC= 3.11D-08 BMatP= 2.17D-07
 IDIUse=1 WtCom= 1.00D+00 WtEn= 0.00D+00
 Coeff-Com: -0.106D-02 0.211D-02 0.423D-02 0.589D-02-0.104D-01-0.684D-01
 Coeff-Com: -0.225D-01 0.252D+00 0.838D+00
 Coeff:     -0.106D-02 0.211D-02 0.423D-02 0.589D-02-0.104D-01-0.684D-01
 Coeff:     -0.225D-01 0.252D+00 0.838D+00
 Gap=     0.262 Goal=   None    Shift=    0.000
 RMSDP=1.77D-06 MaxDP=5.46D-05 DE=-6.13D-07 OVMax= 2.20D-04

 Cycle  10  Pass 1  IDiag  1:
 RMSU=  8.66D-07    CP:  9.89D-01  1.38D+00  9.52D-01  8.88D-01  1.27D+00
                    CP:  1.44D+00  1.32D+00  1.28D+00  1.20D+00
 E= -1028.81727805726     Delta-E=       -0.000000107324 Rises=F Damp=F
 DIIS: error= 6.76D-06 at cycle  10 NSaved=  10.
 NSaved=10 IEnMin=10 EnMin= -1028.81727805726     IErMin=10 ErrMin= 6.76D-06
 ErrMax= 6.76D-06  0.00D+00 EMaxC= 1.00D-01 BMatC= 6.14D-09 BMatP= 3.11D-08
 IDIUse=1 WtCom= 1.00D+00 WtEn= 0.00D+00
 Coeff-Com: -0.135D-03 0.233D-03 0.730D-03 0.202D-02 0.325D-02-0.159D-01
 Coeff-Com: -0.353D-01-0.688D-01 0.262D+00 0.852D+00
 Coeff:     -0.135D-03 0.233D-03 0.730D-03 0.202D-02 0.325D-02-0.159D-01
 Coeff:     -0.353D-01-0.688D-01 0.262D+00 0.852D+00
 Gap=     0.262 Goal=   None    Shift=    0.000
 RMSDP=8.75D-07 MaxDP=2.38D-05 DE=-1.07D-07 OVMax= 1.48D-04

 Cycle  11  Pass 1  IDiag  1:
 RMSU=  4.08D-07    CP:  9.89D-01  1.38D+00  9.52D-01  8.88D-01  1.27D+00
                    CP:  1.44D+00  1.34D+00  1.33D+00  1.44D+00  1.21D+00
 E= -1028.81727808256     Delta-E=       -0.000000025301 Rises=F Damp=F
 DIIS: error= 3.45D-06 at cycle  11 NSaved=  11.
 NSaved=11 IEnMin=11 EnMin= -1028.81727808256     IErMin=11 ErrMin= 3.45D-06
 ErrMax= 3.45D-06  0.00D+00 EMaxC= 1.00D-01 BMatC= 1.77D-09 BMatP= 6.14D-09
 IDIUse=1 WtCom= 1.00D+00 WtEn= 0.00D+00
 Coeff-Com:  0.168D-03-0.350D-03-0.603D-03-0.333D-03 0.344D-02 0.586D-02
 Coeff-Com: -0.533D-02-0.709D-01-0.731D-01 0.330D+00 0.811D+00
 Coeff:      0.168D-03-0.350D-03-0.603D-03-0.333D-03 0.344D-02 0.586D-02
 Coeff:     -0.533D-02-0.709D-01-0.731D-01 0.330D+00 0.811D+00
 Gap=     0.262 Goal=   None    Shift=    0.000
 RMSDP=4.03D-07 MaxDP=9.68D-06 DE=-2.53D-08 OVMax= 6.48D-05

 Cycle  12  Pass 1  IDiag  1:
 RMSU=  1.67D-07    CP:  9.89D-01  1.38D+00  9.52D-01  8.88D-01  1.27D+00
                    CP:  1.45D+00  1.35D+00  1.35D+00  1.55D+00  1.48D+00
                    CP:  1.13D+00
 E= -1028.81727808848     Delta-E=       -0.000000005923 Rises=F Damp=F
 DIIS: error= 1.52D-06 at cycle  12 NSaved=  12.
 NSaved=12 IEnMin=12 EnMin= -1028.81727808848     IErMin=12 ErrMin= 1.52D-06
 ErrMax= 1.52D-06  0.00D+00 EMaxC= 1.00D-01 BMatC= 3.34D-10 BMatP= 1.77D-09
 IDIUse=1 WtCom= 1.00D+00 WtEn= 0.00D+00
 Coeff-Com:  0.109D-03-0.214D-03-0.468D-03-0.687D-03 0.904D-03 0.648D-02
 Coeff-Com:  0.801D-02-0.141D-01-0.110D+00-0.789D-01 0.301D+00 0.888D+00
 Coeff:      0.109D-03-0.214D-03-0.468D-03-0.687D-03 0.904D-03 0.648D-02
 Coeff:      0.801D-02-0.141D-01-0.110D+00-0.789D-01 0.301D+00 0.888D+00
 Gap=     0.262 Goal=   None    Shift=    0.000
 RMSDP=2.40D-07 MaxDP=6.95D-06 DE=-5.92D-09 OVMax= 4.03D-05

 Cycle  13  Pass 1  IDiag  1:
 RMSU=  7.15D-08    CP:  9.89D-01  1.38D+00  9.52D-01  8.88D-01  1.27D+00
                    CP:  1.45D+00  1.35D+00  1.36D+00  1.61D+00  1.63D+00
                    CP:  1.41D+00  1.19D+00
 E= -1028.81727808996     Delta-E=       -0.000000001476 Rises=F Damp=F
 DIIS: error= 3.69D-07 at cycle  13 NSaved=  13.
 NSaved=13 IEnMin=13 EnMin= -1028.81727808996     IErMin=13 ErrMin= 3.69D-07
 ErrMax= 3.69D-07  0.00D+00 EMaxC= 1.00D-01 BMatC= 4.96D-11 BMatP= 3.34D-10
 IDIUse=1 WtCom= 1.00D+00 WtEn= 0.00D+00
 Coeff-Com: -0.123D-05 0.529D-05-0.182D-04-0.120D-03-0.181D-03 0.745D-03
 Coeff-Com:  0.359D-02 0.742D-02-0.192D-01-0.728D-01-0.682D-01 0.271D+00
 Coeff-Com:  0.877D+00
 Coeff:     -0.123D-05 0.529D-05-0.182D-04-0.120D-03-0.181D-03 0.745D-03
 Coeff:      0.359D-02 0.742D-02-0.192D-01-0.728D-01-0.682D-01 0.271D+00
 Coeff:      0.877D+00
 Gap=     0.262 Goal=   None    Shift=    0.000
 RMSDP=7.73D-08 MaxDP=1.65D-06 DE=-1.48D-09 OVMax= 1.14D-05

 Cycle  14  Pass 1  IDiag  1:
 RMSU=  2.79D-08    CP:  9.89D-01  1.38D+00  9.52D-01  8.88D-01  1.27D+00
                    CP:  1.45D+00  1.35D+00  1.36D+00  1.63D+00  1.67D+00
                    CP:  1.49D+00  1.40D+00  1.18D+00
 E= -1028.81727809010     Delta-E=       -0.000000000141 Rises=F Damp=F
 DIIS: error= 1.35D-07 at cycle  14 NSaved=  14.
 NSaved=14 IEnMin=14 EnMin= -1028.81727809010     IErMin=14 ErrMin= 1.35D-07
 ErrMax= 1.35D-07  0.00D+00 EMaxC= 1.00D-01 BMatC= 6.87D-12 BMatP= 4.96D-11
 IDIUse=1 WtCom= 1.00D+00 WtEn= 0.00D+00
 Coeff-Com: -0.113D-04 0.233D-04 0.402D-04 0.211D-04-0.149D-03-0.433D-03
 Coeff-Com:  0.600D-03 0.432D-02 0.458D-02-0.172D-01-0.597D-01 0.188D-01
 Coeff-Com:  0.350D+00 0.699D+00
 Coeff:     -0.113D-04 0.233D-04 0.402D-04 0.211D-04-0.149D-03-0.433D-03
 Coeff:      0.600D-03 0.432D-02 0.458D-02-0.172D-01-0.597D-01 0.188D-01
 Coeff:      0.350D+00 0.699D+00
 Gap=     0.262 Goal=   None    Shift=    0.000
 RMSDP=1.61D-08 MaxDP=4.48D-07 DE=-1.41D-10 OVMax= 1.89D-06

 Cycle  15  Pass 1  IDiag  1:
 RMSU=  1.07D-08    CP:  9.89D-01  1.38D+00  9.52D-01  8.88D-01  1.27D+00
                    CP:  1.45D+00  1.35D+00  1.36D+00  1.63D+00  1.68D+00
                    CP:  1.49D+00  1.44D+00  1.29D+00  1.01D+00
 E= -1028.81727809011     Delta-E=       -0.000000000017 Rises=F Damp=F
 DIIS: error= 5.27D-08 at cycle  15 NSaved=  15.
 NSaved=15 IEnMin=15 EnMin= -1028.81727809011     IErMin=15 ErrMin= 5.27D-08
 ErrMax= 5.27D-08  0.00D+00 EMaxC= 1.00D-01 BMatC= 9.03D-13 BMatP= 6.87D-12
 IDIUse=1 WtCom= 1.00D+00 WtEn= 0.00D+00
 Coeff-Com: -0.335D-05 0.631D-05 0.172D-04 0.291D-04-0.176D-04-0.305D-03
 Coeff-Com: -0.536D-03-0.120D-03 0.466D-02 0.875D-02-0.712D-02-0.460D-01
 Coeff-Com: -0.652D-01 0.205D+00 0.901D+00
 Coeff:     -0.335D-05 0.631D-05 0.172D-04 0.291D-04-0.176D-04-0.305D-03
 Coeff:     -0.536D-03-0.120D-03 0.466D-02 0.875D-02-0.712D-02-0.460D-01
 Coeff:     -0.652D-01 0.205D+00 0.901D+00
 Gap=     0.262 Goal=   None    Shift=    0.000
 RMSDP=9.54D-09 MaxDP=2.09D-07 DE=-1.73D-11 OVMax= 1.20D-06

 Error on total polarization charges =  0.00819
 SCF Done:  E(RwB97XD) =  -1028.81727809     A.U. after   15 cycles
            NFock= 15  Conv=0.95D-08     -V/T= 2.0049
 KE= 1.023755882621D+03 PE=-4.605228179178D+03 EE= 1.456140632809D+03
 Leave Link  502 at Mon Jul 13 13:29:53 2020, MaxMem=  7784628224 cpu:             807.5 elap:              81.4
 (Enter /gpfs/loomis/apps/avx/software/Gaussian/16-C.01_AVX/g16/l801.exe)
 DoSCS=F DFT=T ScalE2(SS,OS)=  1.000000  1.000000
 ExpMin= 1.22D-01 ExpMax= 1.11D+05 ExpMxC= 1.07D+03 IAcc=3 IRadAn=         5 AccDes= 0.00D+00
 HarFok:  IExCor=  205 AccDes= 0.00D+00 IRadAn=         5 IDoV=-2 UseB2=F ITyADJ=14
 ICtDFT= 12500011 ScaDFX=  1.000000  1.000000  1.000000  1.000000
 Largest valence mixing into a core orbital is  9.55D-05
 Largest core mixing into a valence orbital is  3.20D-05
 Range of M.O.s used for correlation:    21   273
 NBasis=   273 NAE=    59 NBE=    59 NFC=    20 NFV=     0
 NROrb=    253 NOA=    39 NOB=    39 NVA=   214 NVB=   214

 **** Warning!!: The largest alpha MO coefficient is  0.10256757D+02

 Leave Link  801 at Mon Jul 13 13:29:53 2020, MaxMem=  7784628224 cpu:               0.9 elap:               0.1
 (Enter /gpfs/loomis/apps/avx/software/Gaussian/16-C.01_AVX/g16/l914.exe)
 RHF ground state
 Keep R1, R2, and R3 ints in memory in canonical form, NReq=4262515490.
 FoFCou: FMM=F IPFlag=           0 FMFlag=           0 FMFlg1=           0
         NFxFlg=           0 DoJE=F BraDBF=F KetDBF=F FulRan=T
         wScrn=  0.000000 ICntrl=       600 IOpCl=  0 I1Cent=           0 NGrid=           0
         NMat0=    1 NMatS0=  37401 NMatT0=    0 NMatD0=    1 NMtDS0=    0 NMtDT0=    0
 Symmetry not used in FoFCou.
 Two-electron integral symmetry not used.
 MDV=  7784628224 DFT=T DoStab=F Mixed=T DoRPA=T DoScal=F NonHer=T
 NEqPCM:  Using equilibrium solvation (IEInf=0, Eps=   2.2280, EpsInf=   2.1319)
 Making orbital integer symmetry assigments:
    12 initial guesses have been made.
 Convergence on wavefunction:    0.000001000000000
 Davidson Disk Diagonalization:  ConvIn= 1.00D-06 SkipCon=T Conv= 1.00D-06.
 Max sub-space:  2000 roots to seek:    12 dimension of matrix:        16692
 Iteration     1 Dimension    12 NMult     0 NNew     12
 CISAX will form    12 AO SS matrices at one time.
 NMat=    12 NSing=    12 JSym2X= 0.
 Excitation Energies [eV] at current iteration:
 Root      1 :     3.977168311669069
 Root      2 :     4.975066095070453
 Root      3 :     5.071779021399657
 Root      4 :     5.198747695961563
 Root      5 :     5.953935444929500
 Root      6 :     6.234927554337579
 Root      7 :     6.321471335175456
 Root      8 :     6.568567855639175
 Root      9 :     6.850636231646430
 Root     10 :     7.264726226586691
 Root     11 :     7.393883433387828
 Root     12 :     7.949262810185655
 Iteration     2 Dimension    18 NMult    12 NNew      6
 CISAX will form     6 AO SS matrices at one time.
 NMat=     6 NSing=     6 JSym2X= 0.
 Root      1 not converged, maximum delta is    0.037745578107539
 Root      2 not converged, maximum delta is    0.197588074739827
 Root      3 not converged, maximum delta is    0.197420123384225
 Excitation Energies [eV] at current iteration:
 Root      1 :     3.500352771715769   Change is   -0.476815539953301
 Root      2 :     4.447800361286050   Change is   -0.527265733784403
 Root      3 :     4.690444228594060   Change is   -0.381334792805599
 Iteration     3 Dimension    24 NMult    18 NNew      6
 CISAX will form     6 AO SS matrices at one time.
 NMat=     6 NSing=     6 JSym2X= 0.
 Root      1 not converged, maximum delta is    0.024303184089499
 Root      2 not converged, maximum delta is    0.029045810764788
 Root      3 not converged, maximum delta is    0.030135670105237
 Excitation Energies [eV] at current iteration:
 Root      1 :     3.464784021771006   Change is   -0.035568749944763
 Root      2 :     4.409845169581291   Change is   -0.037955191704759
 Root      3 :     4.648853265542986   Change is   -0.041590963051073
 Iteration     4 Dimension    30 NMult    24 NNew      6
 CISAX will form     6 AO SS matrices at one time.
 NMat=     6 NSing=     6 JSym2X= 0.
 Root      1 not converged, maximum delta is    0.008334008539244
 Root      2 not converged, maximum delta is    0.008954472149466
 Root      3 not converged, maximum delta is    0.009791182032933
 Excitation Energies [eV] at current iteration:
 Root      1 :     3.460854780151605   Change is   -0.003929241619401
 Root      2 :     4.403946776491971   Change is   -0.005898393089320
 Root      3 :     4.644490823385170   Change is   -0.004362442157816
 Iteration     5 Dimension    36 NMult    30 NNew      6
 CISAX will form     6 AO SS matrices at one time.
 NMat=     6 NSing=     6 JSym2X= 0.
 Root      1 not converged, maximum delta is    0.002909213007084
 Root      2 not converged, maximum delta is    0.003114007033726
 Root      3 not converged, maximum delta is    0.002928699146630
 Excitation Energies [eV] at current iteration:
 Root      1 :     3.460445779385279   Change is   -0.000409000766326
 Root      2 :     4.403362549839204   Change is   -0.000584226652767
 Root      3 :     4.643934784305650   Change is   -0.000556039079520
 Iteration     6 Dimension    42 NMult    36 NNew      6
 CISAX will form     6 AO SS matrices at one time.
 NMat=     6 NSing=     6 JSym2X= 0.
 Root      1 not converged, maximum delta is    0.000544070935605
 Root      2 not converged, maximum delta is    0.000546221316624
 Root      3 not converged, maximum delta is    0.001145742716502
 Excitation Energies [eV] at current iteration:
 Root      1 :     3.460405157468359   Change is   -0.000040621916920
 Root      2 :     4.403316903447957   Change is   -0.000045646391247
 Root      3 :     4.643876110812662   Change is   -0.000058673492989
 Iteration     7 Dimension    48 NMult    42 NNew      6
 CISAX will form     6 AO SS matrices at one time.
 NMat=     6 NSing=     6 JSym2X= 0.
 Root      1 not converged, maximum delta is    0.000115939909736
 Root      2 not converged, maximum delta is    0.000210728331813
 Root      3 not converged, maximum delta is    0.000467919768776
 Excitation Energies [eV] at current iteration:
 Root      1 :     3.460402161991742   Change is   -0.000002995476617
 Root      2 :     4.403312665017081   Change is   -0.000004238430876
 Root      3 :     4.643869456307367   Change is   -0.000006654505295
 Iteration     8 Dimension    54 NMult    48 NNew      6
 CISAX will form     6 AO SS matrices at one time.
 NMat=     6 NSing=     6 JSym2X= 0.
 Root      1 not converged, maximum delta is    0.000022174601521
 Root      2 not converged, maximum delta is    0.000055749558235
 Root      3 not converged, maximum delta is    0.000093128975123
 Excitation Energies [eV] at current iteration:
 Root      1 :     3.460402035558042   Change is   -0.000000126433700
 Root      2 :     4.403312373357974   Change is   -0.000000291659108
 Root      3 :     4.643868829003861   Change is   -0.000000627303506
 Iteration     9 Dimension    60 NMult    54 NNew      6
 CISAX will form     6 AO SS matrices at one time.
 NMat=     6 NSing=     6 JSym2X= 0.
 Root      1 not converged, maximum delta is    0.000004491388844
 Root      2 not converged, maximum delta is    0.000017590378176
 Root      3 not converged, maximum delta is    0.000016379463160
 Excitation Energies [eV] at current iteration:
 Root      1 :     3.460402028017092   Change is   -0.000000007540950
 Root      2 :     4.403312351028483   Change is   -0.000000022329490
 Root      3 :     4.643868784787041   Change is   -0.000000044216820
 Iteration    10 Dimension    66 NMult    60 NNew      6
 CISAX will form     6 AO SS matrices at one time.
 NMat=     6 NSing=     6 JSym2X= 0.
 Root      1 has converged.
 Root      2 not converged, maximum delta is    0.000003139667483
 Root      3 not converged, maximum delta is    0.000004236654571
 Excitation Energies [eV] at current iteration:
 Root      1 :     3.460402027786082   Change is   -0.000000000231010
 Root      2 :     4.403312349511476   Change is   -0.000000001517007
 Root      3 :     4.643868782218620   Change is   -0.000000002568421
 Iteration    11 Dimension    70 NMult    66 NNew      4
 CISAX will form     4 AO SS matrices at one time.
 NMat=     4 NSing=     4 JSym2X= 0.
 Root      1 has converged.
 Root      2 has converged.
 Root      3 has converged.
 Excitation Energies [eV] at current iteration:
 Root      1 :     3.460402027785155   Change is   -0.000000000000927
 Root      2 :     4.403312349423076   Change is   -0.000000000088400
 Root      3 :     4.643868782079922   Change is   -0.000000000138698
 Convergence achieved on expansion vectors.
 ***********************************************************************
 Excited states from <AA,BB:AA,BB> singles matrix:
 ***********************************************************************
 
 1PDM for each excited state written to RWF  633
 Ground to excited state transition densities written to RWF  633
 Ground to excited state transition electric dipole moments (Au):
       state          X           Y           Z        Dip. S.      Osc.
         1        -1.5793      2.2096      0.0000      7.3765      0.6254
         2         1.5823     -0.5981     -0.0000      2.8614      0.3087
         3        -0.5858     -0.1611      0.0000      0.3691      0.0420
 Ground to excited state transition velocity dipole moments (Au):
       state          X           Y           Z        Dip. S.      Osc.
         1         0.1943     -0.2794     -0.0000      0.1158      0.6072
         2        -0.2514      0.0880     -0.0000      0.0709      0.2922
         3         0.0995      0.0261     -0.0000      0.0106      0.0413
 Ground to excited state transition magnetic dipole moments (Au):
       state          X           Y           Z
         1        -0.0000     -0.0000      0.8047
         2         0.0000     -0.0000      1.1031
         3         0.0000     -0.0000      0.1757
 Ground to excited state transition velocity quadrupole moments (Au):
       state          XX          YY          ZZ          XY          XZ          YZ
         1         0.1072     -0.5370      0.0120      0.2159      0.0000     -0.0000
         2         0.2313     -0.6471      0.0082      0.1239      0.0000     -0.0000
         3         0.4340     -0.1386     -0.0239     -0.2639     -0.0000     -0.0000
 <0|del|b> * <b|rxdel|0> + <0|del|b> * <b|delr+rdel|0>
 Rotatory Strengths (R) in cgs (10**-40 erg-esu-cm/Gauss)
       state          XX          YY          ZZ    R(velocity)    E-M Angle
         1         0.0165     -0.0181      0.0210      0.0065       90.00
         2        -0.0035      0.0023     -0.0061     -0.0024       90.00
         3        -0.0002      0.0005      0.0009      0.0004       90.00
 1/2[<0|r|b>*<b|rxdel|0> + (<0|rxdel|b>*<b|r|0>)*]
 Rotatory Strengths (R) in cgs (10**-40 erg-esu-cm/Gauss)
       state          XX          YY          ZZ     R(length)
         1        -0.0086      0.0462     -0.0183      0.0064
         2        -0.0018     -0.0057      0.0005     -0.0023
         3         0.0021     -0.0008     -0.0002      0.0004
  1/2[<0|del|b>*<b|r|0> + (<0|r|b>*<b|del|0>)*] (Au)
       state          X           Y           Z        Dip. S.   Osc.(frdel)
         1        -0.3068     -0.6174     -0.0000      0.9242      0.6162
         2        -0.3978     -0.0526      0.0000      0.4504      0.3002
         3        -0.0583     -0.0042     -0.0000      0.0625      0.0417

 Excitation energies and oscillator strengths:
 
 Excited state symmetry could not be determined.
 Excited State   1:      Singlet-?Sym    3.4604 eV  358.29 nm  f=0.6254  <S**2>=0.000
      59 -> 60         0.69015
 This state for optimization and/or second-order correction.
 Total Energy, E(TD-HF/TD-DFT) =  -1028.69011066    
 Copying the excited state density for this state as the 1-particle RhoCI density.
 
 Excited state symmetry could not be determined.
 Excited State   2:      Singlet-?Sym    4.4033 eV  281.57 nm  f=0.3087  <S**2>=0.000
      57 -> 60         0.18618
      58 -> 60         0.64028
      59 -> 62         0.11961
      59 -> 64         0.11111
 
 Excited state symmetry could not be determined.
 Excited State   3:      Singlet-?Sym    4.6439 eV  266.98 nm  f=0.0420  <S**2>=0.000
      56 -> 61        -0.10270
      57 -> 60         0.58162
      57 -> 62        -0.14189
      58 -> 60        -0.18029
      58 -> 61        -0.15380
      59 -> 61         0.23593
 SavETr:  write IOETrn=   770 NScale= 10 NData=  16 NLR=1 NState=    3 LETran=      64.
 The selected state is a singlet.
 CISGrd: IGrad=2 NXY=2 DFT=T
 CISAX will form     1 AO SS matrices at one time.
 NMat=     1 NSing=     1 JSym2X= 0.
 GePol: Maximum number of non-zero 1st derivatives   =     268
 Leave Link  914 at Mon Jul 13 13:32:32 2020, MaxMem=  7784628224 cpu:            1562.1 elap:             158.9
 (Enter /gpfs/loomis/apps/avx/software/Gaussian/16-C.01_AVX/g16/l1002.exe)
 Minotr:  Closed shell wavefunction.
          Computing CIS/TDA/TD derivatives.
          Using Z-Vector for PSCF gradient.
          Skipping F1 and S1 gradient terms here.
          IDoAtm=1111111111111111111111111
 NEqPCM:  Using equilibrium solvation (IEInf=0, Eps=   2.2280, EpsInf=   2.1319)
          Frozen-core window.
          Direct CPHF calculation.
          Differentiating once with respect to electric field.
                with respect to dipole field.
          Differentiating once with respect to nuclear coordinates.
          Requested convergence is 1.0D-10 RMS, and 1.0D-09 maximum.
          NewPWx=F KeepS1=T KeepF1=T KeepIn=T MapXYZ=F SortEE=F KeepMc=T.
 Keep R1 ints in memory in canonical form, NReq=1421451363.
 FoFCou: FMM=F IPFlag=           0 FMFlag=           0 FMFlg1=           0
         NFxFlg=           0 DoJE=F BraDBF=F KetDBF=F FulRan=T
         wScrn=  0.000000 ICntrl=       600 IOpCl=  0 I1Cent=           0 NGrid=           0
         NMat0=    1 NMatS0=  37401 NMatT0=    0 NMatD0=    1 NMtDS0=    0 NMtDT0=    0
 Symmetry not used in FoFCou.
 Two-electron integral symmetry not used.
          MDV=    7784628224 using IRadAn=       5.
          Solving linear equations separately, MaxMat=       0.
          There are     1 degrees of freedom in the 1st order CPHF.  IDoFFX=0 NUNeed=     1.
 LinEq1:  Iter=  0 NonCon=     1 RMS=4.45D-03 Max=2.20D-01 NDo=     1
 AX will form     1 AO Fock derivatives at one time.
 LinEq1:  Iter=  1 NonCon=     1 RMS=1.79D-03 Max=6.84D-02 NDo=     1
 LinEq1:  Iter=  2 NonCon=     1 RMS=1.06D-03 Max=4.42D-02 NDo=     1
 LinEq1:  Iter=  3 NonCon=     1 RMS=3.88D-04 Max=1.16D-02 NDo=     1
 LinEq1:  Iter=  4 NonCon=     1 RMS=2.01D-04 Max=7.58D-03 NDo=     1
 LinEq1:  Iter=  5 NonCon=     1 RMS=9.93D-05 Max=2.90D-03 NDo=     1
 LinEq1:  Iter=  6 NonCon=     1 RMS=3.66D-05 Max=9.66D-04 NDo=     1
 LinEq1:  Iter=  7 NonCon=     1 RMS=1.91D-05 Max=6.64D-04 NDo=     1
 LinEq1:  Iter=  8 NonCon=     1 RMS=7.14D-06 Max=1.68D-04 NDo=     1
 LinEq1:  Iter=  9 NonCon=     1 RMS=3.76D-06 Max=9.65D-05 NDo=     1
 LinEq1:  Iter= 10 NonCon=     1 RMS=1.71D-06 Max=5.29D-05 NDo=     1
 LinEq1:  Iter= 11 NonCon=     1 RMS=8.94D-07 Max=2.90D-05 NDo=     1
 LinEq1:  Iter= 12 NonCon=     1 RMS=4.07D-07 Max=8.89D-06 NDo=     1
 LinEq1:  Iter= 13 NonCon=     1 RMS=2.40D-07 Max=6.76D-06 NDo=     1
 LinEq1:  Iter= 14 NonCon=     1 RMS=1.07D-07 Max=4.13D-06 NDo=     1
 LinEq1:  Iter= 15 NonCon=     1 RMS=4.89D-08 Max=1.59D-06 NDo=     1
 LinEq1:  Iter= 16 NonCon=     1 RMS=2.05D-08 Max=5.77D-07 NDo=     1
 LinEq1:  Iter= 17 NonCon=     1 RMS=1.03D-08 Max=3.36D-07 NDo=     1
 LinEq1:  Iter= 18 NonCon=     1 RMS=3.74D-09 Max=1.09D-07 NDo=     1
 LinEq1:  Iter= 19 NonCon=     1 RMS=1.83D-09 Max=5.21D-08 NDo=     1
 LinEq1:  Iter= 20 NonCon=     1 RMS=9.97D-10 Max=2.57D-08 NDo=     1
 LinEq1:  Iter= 21 NonCon=     1 RMS=2.59D-10 Max=6.81D-09 NDo=     1
 LinEq1:  Iter= 22 NonCon=     1 RMS=1.12D-10 Max=3.23D-09 NDo=     1
 LinEq1:  Iter= 23 NonCon=     0 RMS=4.50D-11 Max=7.90D-10 NDo=     1
 Linear equations converged to 1.000D-10 1.000D-09 after    23 iterations.
 End of Minotr F.D. properties file   721 does not exist.
 End of Minotr F.D. properties file   722 does not exist.
 End of Minotr F.D. properties file   788 does not exist.
 Leave Link 1002 at Mon Jul 13 13:34:07 2020, MaxMem=  7784628224 cpu:             718.3 elap:              94.8
 (Enter /gpfs/loomis/apps/avx/software/Gaussian/16-C.01_AVX/g16/l601.exe)
 Copying SCF densities to generalized density rwf, IOpCl= 0 IROHF=0.

 **********************************************************************

            Population analysis using the SCF Density.

 **********************************************************************

 Alpha  occ. eigenvalues --  -89.09325 -19.27203 -14.47066 -10.40075 -10.37932
 Alpha  occ. eigenvalues --  -10.35151 -10.34984 -10.32523 -10.32399 -10.32236
 Alpha  occ. eigenvalues --  -10.31833 -10.31633 -10.31576 -10.31486 -10.30315
 Alpha  occ. eigenvalues --  -10.30118  -8.11243  -6.06101  -6.05753  -6.05297
 Alpha  occ. eigenvalues --   -1.17100  -1.08686  -0.96758  -0.95559  -0.91802
 Alpha  occ. eigenvalues --   -0.88845  -0.84957  -0.84293  -0.82499  -0.76028
 Alpha  occ. eigenvalues --   -0.71051  -0.70243  -0.69204  -0.68420  -0.63643
 Alpha  occ. eigenvalues --   -0.60526  -0.58930  -0.58558  -0.55759  -0.54419
 Alpha  occ. eigenvalues --   -0.54046  -0.53060  -0.52877  -0.51114  -0.50273
 Alpha  occ. eigenvalues --   -0.49556  -0.47677  -0.45999  -0.45552  -0.44786
 Alpha  occ. eigenvalues --   -0.43810  -0.42767  -0.42549  -0.40106  -0.36606
 Alpha  occ. eigenvalues --   -0.36487  -0.32343  -0.31263  -0.27958
 Alpha virt. eigenvalues --   -0.01729   0.04940   0.06983   0.07332   0.07345
 Alpha virt. eigenvalues --    0.10975   0.13470   0.15104   0.16053   0.17972
 Alpha virt. eigenvalues --    0.18682   0.20997   0.21777   0.22368   0.22586
 Alpha virt. eigenvalues --    0.23512   0.24167   0.24470   0.28467   0.30540
 Alpha virt. eigenvalues --    0.32122   0.33179   0.35248   0.36203   0.36995
 Alpha virt. eigenvalues --    0.37872   0.38592   0.40723   0.43645   0.44676
 Alpha virt. eigenvalues --    0.47417   0.47726   0.50141   0.51630   0.51704
 Alpha virt. eigenvalues --    0.52188   0.53410   0.54199   0.55099   0.55597
 Alpha virt. eigenvalues --    0.55945   0.56285   0.56911   0.57648   0.58142
 Alpha virt. eigenvalues --    0.58514   0.58745   0.59092   0.59736   0.60134
 Alpha virt. eigenvalues --    0.60477   0.60628   0.62162   0.62391   0.63084
 Alpha virt. eigenvalues --    0.64492   0.65637   0.66652   0.67765   0.69057
 Alpha virt. eigenvalues --    0.70268   0.70361   0.72096   0.72679   0.72897
 Alpha virt. eigenvalues --    0.73033   0.74356   0.75373   0.76235   0.77405
 Alpha virt. eigenvalues --    0.78959   0.79391   0.79953   0.82067   0.82327
 Alpha virt. eigenvalues --    0.83046   0.88474   0.89827   0.91671   0.93245
 Alpha virt. eigenvalues --    0.94811   0.95175   0.95940   0.96530   0.96924
 Alpha virt. eigenvalues --    0.98414   0.98941   1.00150   1.00203   1.01746
 Alpha virt. eigenvalues --    1.02622   1.04965   1.06049   1.07507   1.08025
 Alpha virt. eigenvalues --    1.08204   1.08491   1.09701   1.10773   1.11736
 Alpha virt. eigenvalues --    1.12009   1.12515   1.13200   1.15006   1.15508
 Alpha virt. eigenvalues --    1.16064   1.19090   1.20417   1.22375   1.23631
 Alpha virt. eigenvalues --    1.25711   1.28320   1.33363   1.33958   1.34797
 Alpha virt. eigenvalues --    1.35461   1.36049   1.38450   1.41926   1.46377
 Alpha virt. eigenvalues --    1.47745   1.49026   1.50851   1.54500   1.54696
 Alpha virt. eigenvalues --    1.55273   1.56236   1.57047   1.57115   1.58072
 Alpha virt. eigenvalues --    1.59064   1.59429   1.62855   1.66292   1.66307
 Alpha virt. eigenvalues --    1.68610   1.69078   1.69832   1.70289   1.71113
 Alpha virt. eigenvalues --    1.72002   1.72623   1.73008   1.73529   1.74281
 Alpha virt. eigenvalues --    1.76698   1.77363   1.80202   1.80940   1.82123
 Alpha virt. eigenvalues --    1.82721   1.83422   1.84931   1.85232   1.85353
 Alpha virt. eigenvalues --    1.86908   1.88381   1.88516   1.89469   1.92090
 Alpha virt. eigenvalues --    1.92332   1.92952   1.93356   1.94535   1.95072
 Alpha virt. eigenvalues --    1.99547   2.00416   2.02087   2.03853   2.03876
 Alpha virt. eigenvalues --    2.05735   2.07909   2.08726   2.11244   2.12850
 Alpha virt. eigenvalues --    2.13512   2.17299   2.20735   2.21545   2.24330
 Alpha virt. eigenvalues --    2.26611   2.29017   2.35672   2.38362   2.40422
 Alpha virt. eigenvalues --    2.41005   2.41136   2.45259   2.46212   2.47333
 Alpha virt. eigenvalues --    2.48058   2.50751   2.52942   2.53467   2.62166
 Alpha virt. eigenvalues --    2.62864   2.72176   2.73300   2.74796   2.80477
 Alpha virt. eigenvalues --    2.81729   2.83990   2.85714   2.90217   2.93811
 Alpha virt. eigenvalues --    3.01270   3.04227   3.07481   3.20453   3.35421
 Alpha virt. eigenvalues --    3.48538   3.56659   3.63551   3.96785
          Condensed to atoms (all electrons):
               1          2          3          4          5          6
     1  C    4.739673   0.466430   0.005483  -0.051535  -0.013243   0.525467
     2  C    0.466430   5.320494   0.344106  -0.043427  -0.064045  -0.010698
     3  C    0.005483   0.344106   4.748714   0.500465  -0.006576  -0.063311
     4  C   -0.051535  -0.043427   0.500465   4.774146   0.524833  -0.015372
     5  C   -0.013243  -0.064045  -0.006576   0.524833   4.729680   0.491540
     6  C    0.525467  -0.010698  -0.063311  -0.015372   0.491540   4.744840
     7  H    0.402093  -0.039339   0.008322  -0.000472   0.008092  -0.038821
     8  H   -0.000846   0.011559  -0.028790   0.392436  -0.043809   0.007763
     9  H    0.008706  -0.000571   0.008543  -0.039173   0.404950  -0.044971
    10  H   -0.041990   0.009644  -0.000586   0.008727  -0.043773   0.405958
    11  N    0.007151  -0.058579   0.461459  -0.038944   0.003046   0.000155
    12  S   -0.062599   0.342743  -0.107075   0.006353   0.000225   0.003460
    13  C   -0.000159   0.003475   0.008685  -0.000789   0.000009   0.000001
    14  C   -0.000004   0.000044   0.000158   0.000006  -0.000000  -0.000000
    15  C    0.000003  -0.000258   0.000246   0.000068  -0.000000   0.000000
    16  C    0.000000  -0.000001   0.000004  -0.000000   0.000000   0.000000
    17  H   -0.000002   0.000050   0.000001  -0.000000   0.000000  -0.000000
    18  C    0.000000   0.000006  -0.000028  -0.000000  -0.000000   0.000000
    19  C   -0.000000   0.000000   0.000001  -0.000000   0.000000   0.000000
    20  H   -0.000000  -0.000000  -0.000000   0.000000   0.000000  -0.000000
    21  H   -0.000000  -0.000000   0.000001  -0.000000   0.000000   0.000000
    22  H    0.000000  -0.000000  -0.000000  -0.000000   0.000000  -0.000000
    23  C    0.004085  -0.053293  -0.123152   0.000912   0.000213  -0.000157
    24  O    0.000001  -0.000032  -0.002018  -0.000097  -0.000001  -0.000000
    25  H   -0.000065   0.003265  -0.008699  -0.001426  -0.000003   0.000012
               7          8          9         10         11         12
     1  C    0.402093  -0.000846   0.008706  -0.041990   0.007151  -0.062599
     2  C   -0.039339   0.011559  -0.000571   0.009644  -0.058579   0.342743
     3  C    0.008322  -0.028790   0.008543  -0.000586   0.461459  -0.107075
     4  C   -0.000472   0.392436  -0.039173   0.008727  -0.038944   0.006353
     5  C    0.008092  -0.043809   0.404950  -0.043773   0.003046   0.000225
     6  C   -0.038821   0.007763  -0.044971   0.405958   0.000155   0.003460
     7  H    0.659125   0.000034  -0.000145  -0.012048  -0.000123  -0.006516
     8  H    0.000034   0.655565  -0.012153  -0.000129  -0.001843  -0.000163
     9  H   -0.000145  -0.012153   0.666872  -0.012304  -0.000114   0.000022
    10  H   -0.012048  -0.000129  -0.012304   0.664963  -0.000000  -0.000139
    11  N   -0.000123  -0.001843  -0.000114  -0.000000   6.498449  -0.070977
    12  S   -0.006516  -0.000163   0.000022  -0.000139  -0.070977  15.467484
    13  C    0.000006   0.000052  -0.000000  -0.000000  -0.017908  -0.061052
    14  C    0.000000   0.000001   0.000000  -0.000000   0.003222  -0.005263
    15  C   -0.000000  -0.000030   0.000000   0.000000  -0.015632   0.003709
    16  C   -0.000000  -0.000000  -0.000000   0.000000  -0.000097  -0.000071
    17  H    0.000001   0.000000  -0.000000  -0.000000   0.000214   0.005984
    18  C   -0.000000  -0.000000  -0.000000  -0.000000  -0.000519  -0.000102
    19  C    0.000000   0.000000  -0.000000  -0.000000   0.000056   0.000020
    20  H   -0.000000  -0.000000   0.000000   0.000000   0.000001  -0.000000
    21  H   -0.000000   0.000000  -0.000000   0.000000   0.000021   0.000003
    22  H    0.000000  -0.000000  -0.000000  -0.000000  -0.000000  -0.000000
    23  C    0.000067  -0.000902   0.000007   0.000004   0.533898   0.318376
    24  O   -0.000000  -0.000243   0.000000  -0.000000  -0.076654  -0.000291
    25  H    0.000001   0.001460  -0.000006   0.000000   0.118390   0.002812
              13         14         15         16         17         18
     1  C   -0.000159  -0.000004   0.000003   0.000000  -0.000002   0.000000
     2  C    0.003475   0.000044  -0.000258  -0.000001   0.000050   0.000006
     3  C    0.008685   0.000158   0.000246   0.000004   0.000001  -0.000028
     4  C   -0.000789   0.000006   0.000068  -0.000000  -0.000000  -0.000000
     5  C    0.000009  -0.000000  -0.000000   0.000000   0.000000  -0.000000
     6  C    0.000001  -0.000000   0.000000   0.000000  -0.000000   0.000000
     7  H    0.000006   0.000000  -0.000000  -0.000000   0.000001  -0.000000
     8  H    0.000052   0.000001  -0.000030  -0.000000   0.000000  -0.000000
     9  H   -0.000000   0.000000   0.000000  -0.000000  -0.000000  -0.000000
    10  H   -0.000000  -0.000000   0.000000   0.000000  -0.000000  -0.000000
    11  N   -0.017908   0.003222  -0.015632  -0.000097   0.000214  -0.000519
    12  S   -0.061052  -0.005263   0.003709  -0.000071   0.005984  -0.000102
    13  C    5.316753   0.484665   0.279845  -0.007979  -0.039011  -0.048321
    14  C    0.484665   4.794429  -0.001941   0.528410   0.401860  -0.053977
    15  C    0.279845  -0.001941   4.785842  -0.062106   0.007627   0.505054
    16  C   -0.007979   0.528410  -0.062106   4.753285  -0.035655  -0.018651
    17  H   -0.039011   0.401860   0.007627  -0.035655   0.673657  -0.000738
    18  C   -0.048321  -0.053977   0.505054  -0.018651  -0.000738   4.803474
    19  C   -0.049167  -0.017625  -0.009851   0.490812   0.008404   0.514283
    20  H    0.008800  -0.035866  -0.000254   0.401443  -0.012742   0.008394
    21  H    0.012544  -0.000475  -0.023194   0.007260   0.000043   0.378928
    22  H   -0.001084   0.009060   0.009051  -0.044032  -0.000154  -0.041582
    23  C    0.321986  -0.091414  -0.076984   0.007287  -0.019672   0.007020
    24  O   -0.084037   0.003967   0.527025   0.000012  -0.000058  -0.059451
    25  H   -0.028089  -0.000724  -0.022547  -0.000035   0.000008   0.005027
              19         20         21         22         23         24
     1  C   -0.000000  -0.000000  -0.000000   0.000000   0.004085   0.000001
     2  C    0.000000  -0.000000  -0.000000  -0.000000  -0.053293  -0.000032
     3  C    0.000001  -0.000000   0.000001  -0.000000  -0.123152  -0.002018
     4  C   -0.000000   0.000000  -0.000000  -0.000000   0.000912  -0.000097
     5  C    0.000000   0.000000   0.000000   0.000000   0.000213  -0.000001
     6  C    0.000000  -0.000000   0.000000  -0.000000  -0.000157  -0.000000
     7  H    0.000000  -0.000000  -0.000000   0.000000   0.000067  -0.000000
     8  H    0.000000  -0.000000   0.000000  -0.000000  -0.000902  -0.000243
     9  H   -0.000000   0.000000  -0.000000  -0.000000   0.000007   0.000000
    10  H   -0.000000   0.000000   0.000000  -0.000000   0.000004  -0.000000
    11  N    0.000056   0.000001   0.000021  -0.000000   0.533898  -0.076654
    12  S    0.000020  -0.000000   0.000003  -0.000000   0.318376  -0.000291
    13  C   -0.049167   0.008800   0.012544  -0.001084   0.321986  -0.084037
    14  C   -0.017625  -0.035866  -0.000475   0.009060  -0.091414   0.003967
    15  C   -0.009851  -0.000254  -0.023194   0.009051  -0.076984   0.527025
    16  C    0.490812   0.401443   0.007260  -0.044032   0.007287   0.000012
    17  H    0.008404  -0.012742   0.000043  -0.000154  -0.019672  -0.000058
    18  C    0.514283   0.008394   0.378928  -0.041582   0.007020  -0.059451
    19  C    4.720728  -0.046984  -0.044629   0.406419   0.000481   0.003092
    20  H   -0.046984   0.679031  -0.000163  -0.011999  -0.000339   0.000002
    21  H   -0.044629  -0.000163   0.661710  -0.011963  -0.000415   0.003190
    22  H    0.406419  -0.011999  -0.011963   0.664255   0.000004  -0.000067
    23  C    0.000481  -0.000339  -0.000415   0.000004   5.095224  -0.001200
    24  O    0.003092   0.000002   0.003190  -0.000067  -0.001200   7.550832
    25  H   -0.000193  -0.000001   0.000037   0.000010  -0.000842   0.337719
              25
     1  C   -0.000065
     2  C    0.003265
     3  C   -0.008699
     4  C   -0.001426
     5  C   -0.000003
     6  C    0.000012
     7  H    0.000001
     8  H    0.001460
     9  H   -0.000006
    10  H    0.000000
    11  N    0.118390
    12  S    0.002812
    13  C   -0.028089
    14  C   -0.000724
    15  C   -0.022547
    16  C   -0.000035
    17  H    0.000008
    18  C    0.005027
    19  C   -0.000193
    20  H   -0.000001
    21  H    0.000037
    22  H    0.000010
    23  C   -0.000842
    24  O    0.337719
    25  H    0.433353
 Mulliken charges:
               1
     1  C    0.011353
     2  C   -0.231573
     3  C    0.254047
     4  C   -0.016710
     5  C    0.008863
     6  C   -0.005866
     7  H    0.019723
     8  H    0.020038
     9  H    0.020336
    10  H    0.021674
    11  N   -0.344671
    12  S    0.163058
    13  C   -0.099222
    14  C   -0.018532
    15  C    0.094330
    16  C   -0.019884
    17  H    0.010184
    18  C    0.001184
    19  C    0.024154
    20  H    0.010677
    21  H    0.017103
    22  H    0.022084
    23  C    0.078807
    24  O   -0.201691
    25  H    0.160537
 Sum of Mulliken charges =  -0.00000
 Mulliken charges with hydrogens summed into heavy atoms:
               1
     1  C    0.031075
     2  C   -0.231573
     3  C    0.254047
     4  C    0.003328
     5  C    0.029199
     6  C    0.015808
    11  N   -0.344671
    12  S    0.163058
    13  C   -0.099222
    14  C   -0.008349
    15  C    0.094330
    16  C   -0.009208
    18  C    0.018287
    19  C    0.046238
    23  C    0.078807
    24  O   -0.041154
 Electronic spatial extent (au):  <R**2>=           4353.5762
 Charge=             -0.0000 electrons
 Dipole moment (field-independent basis, Debye):
    X=             -0.1154    Y=             -2.3583    Z=             -0.0000  Tot=              2.3611
 Quadrupole moment (field-independent basis, Debye-Ang):
   XX=            -83.3193   YY=            -89.3493   ZZ=           -104.3624
   XY=             -7.0117   XZ=             -0.0001   YZ=              0.0002
 Traceless Quadrupole moment (field-independent basis, Debye-Ang):
   XX=              9.0243   YY=              2.9944   ZZ=            -12.0187
   XY=             -7.0117   XZ=             -0.0001   YZ=              0.0002
 Octapole moment (field-independent basis, Debye-Ang**2):
  XXX=             13.2631  YYY=            -19.5710  ZZZ=             -0.0000  XYY=             -5.5635
  XXY=              1.1722  XXZ=              0.0000  XZZ=              1.1292  YZZ=              2.6172
  YYZ=              0.0007  XYZ=             -0.0006
 Hexadecapole moment (field-independent basis, Debye-Ang**3):
[...]
 004133,-0.00002467,0.13143322,0.00019867,-0.00003010,0.,-0.00088452,0.
 00001585,0.00000018,0.00017084,0.00027320,0.,0.00021329,0.00004022,-0.
 00000003,0.00007491,0.00021555,0.,-0.00012083,-0.00013819,0.,-0.000013
 34,0.00000541,0.,0.00002259,-0.00000199,0.,0.00000124,0.00000030,0.,0.
 00002574,-0.00000315,0.,0.00053417,0.00030131,0.00000021,-0.00030374,0
 .00107093,-0.00000030,-0.00664783,-0.02879785,0.00000032,-0.10265050,-
 0.10495049,-0.00000189,-0.00545115,0.00282155,-0.00000105,0.01086883,0
 .01874770,0.00000005,0.10528400,-0.00002220,-0.00006087,-0.00000002,-0
 .00028412,0.00010960,0.00000001,-0.00011238,0.00052937,-0.00000002,0.0
 0027004,-0.00003752,-0.00000002,0.00001998,0.00028702,0.,-0.00015544,-
 0.00012527,0.00000001,-0.00000382,0.00001772,0.,0.00000197,-0.00001108
 ,0.,-0.00000880,0.00000256,0.,-0.00000747,0.00000302,0.,0.00054280,0.0
 0012238,0.00000003,-0.00027948,-0.00027601,-0.00000018,0.00230329,-0.0
 0009187,0.00000005,-0.10423733,-0.29881570,0.00000002,0.00063119,0.001
 51660,0.00000029,-0.01265489,-0.01833540,-0.00000041,0.11029971,0.3157
 7185,0.00000003,0.00000004,-0.00004234,0.00000019,0.00000021,-0.000251
 60,0.00000037,-0.00000053,0.00013112,-0.00000030,0.00000008,0.00008681
 ,-0.00000001,-0.00000026,0.00001042,0.00000011,0.00000008,0.00001843,0
 .,-0.00000001,0.00000639,0.,0.,0.00001857,0.,0.,0.00000050,0.,0.,-0.00
 001045,-0.00000047,0.00000044,-0.00120229,-0.00000017,0.00000002,0.000
 38651,-0.00000217,-0.00000182,0.00323879,-0.00000030,-0.00000150,-0.03
 154612,-0.00000030,0.00000020,0.00672507,0.00000054,0.00000337,0.00253
 218,0.00000306,-0.00000009,0.02092721,-0.00233988,0.00145730,0.0000003
 7,-0.00053630,-0.00276891,-0.00000068,-0.00375569,0.00850002,-0.000001
 64,0.00391730,-0.00049667,0.00000017,-0.00037105,0.00072115,0.00000009
 ,0.00232480,-0.00060447,-0.00000015,-0.00013584,0.00004041,0.,0.000120
 03,0.00002544,-0.00000009,0.00011696,-0.00000476,-0.00000003,0.0000977
 8,-0.00004437,0.,0.01188116,0.00514027,0.00000368,-0.00135713,-0.00298
 234,0.00000026,0.02078728,0.01996739,-0.00000160,-0.01857524,0.0240820
 8,-0.00000374,-0.16871599,0.07383407,-0.00001010,-0.01621479,-0.058929
 79,0.00000094,-0.00048446,0.00011822,0.00000021,0.74219655,0.00019606,
 -0.00031396,-0.00000005,-0.00254066,-0.00253357,0.00000036,-0.00194859
 ,0.00403627,0.00000063,0.00177337,-0.00038824,-0.00000033,0.00030285,0
 .00189035,-0.00000002,-0.00106062,-0.00086438,0.00000005,0.00000775,0.
 00007511,0.,-0.00008656,-0.00005642,0.00000003,-0.00005245,0.00000897,
 0.00000003,0.00000797,-0.00000129,0.,0.00596499,-0.00325806,-0.0000016
 2,0.00146349,-0.00323478,-0.00000028,0.01930851,-0.03771434,0.00000364
 ,-0.00410325,0.00008955,-0.00000023,0.11157991,-0.26669552,0.00002195,
 -0.03347703,-0.00975780,-0.00000157,-0.00028528,0.00053214,-0.00000001
 ,0.04119561,0.71561123,0.00000013,0.00000017,0.00021018,0.00000100,0.0
 0000120,0.00086691,0.00000149,-0.00000172,0.00166116,-0.00000098,0.000
 00008,-0.00049950,0.00000001,-0.00000079,-0.00001404,0.00000024,0.0000
 0050,-0.00007597,-0.00000001,-0.00000001,0.00004922,0.00000006,0.00000
 002,0.00006640,0.,0.,0.00005028,0.,0.,-0.00008432,-0.00000129,0.000004
 70,-0.00513197,-0.00000055,0.00000042,0.00023868,-0.00000185,0.0000040
 2,0.01073042,-0.00000063,0.00000175,-0.00163780,-0.00001165,0.00001566
 ,-0.06629664,-0.00000010,-0.00000259,0.00540247,0.00000007,-0.00000005
 ,-0.00076971,0.00005316,-0.00002401,0.11042371,0.00312361,-0.00075666,
 -0.00000038,0.00434412,0.00630776,0.00000014,0.01075609,-0.01764964,0.
 00000093,-0.00934650,0.00163620,0.00000043,0.00039317,-0.00486240,-0.0
 0000011,-0.00097943,0.00223873,0.00000010,0.00009293,-0.00009766,-0.00
 000001,0.00000356,0.00005116,0.00000008,-0.00005938,-0.00003872,0.,-0.
 00005872,0.00007379,0.,-0.02123010,0.00870232,0.00000136,0.00184796,0.
 00485921,-0.00000023,-0.02008471,-0.02260639,0.00000197,0.05449747,-0.
 01187424,0.00000475,-0.03952152,0.03087094,-0.00000775,-0.14688867,-0.
 02338281,-0.00000371,-0.00205201,0.00458648,-0.00000126,-0.37936779,-0
 .05340158,-0.00002256,0.71734584,-0.00019612,0.00004190,-0.00000012,-0
 .00187554,-0.00215290,0.00000047,-0.00112899,0.00441412,0.00000092,0.0
 0167222,-0.00036536,-0.00000034,0.00010881,0.00156560,-0.00000002,-0.0
 0040252,-0.00119446,0.00000001,-0.00000871,0.00005715,0.,-0.00004043,-
 0.00008013,0.00000005,-0.00000864,-0.00000778,0.00000003,-0.00000088,0
 .00001419,0.,0.00663137,0.00012749,-0.00000121,-0.00091445,-0.00173532
 ,-0.00000050,-0.01566803,-0.01298112,0.00000016,0.02339493,-0.05882440
 ,0.00000603,0.02111431,0.02769267,-0.00000093,-0.09450390,-0.28785619,
 0.00000666,0.00337269,-0.00140936,0.00000032,-0.01526864,-0.12132210,-
 0.00000036,-0.04428215,0.68713740,0.00000026,-0.00000012,0.00016762,0.
 00000016,0.00000032,-0.00034775,0.00000038,-0.00000099,-0.00099928,-0.
 00000049,0.00000011,0.00009905,0.,-0.00000022,0.00008834,-0.00000015,0
 .00000009,-0.00000065,0.,0.,-0.00002793,-0.00000002,0.,-0.00010716,0.,
 0.,-0.00000499,0.,0.,0.00000097,-0.00000143,-0.00000034,0.00156144,0.0
 0000023,0.00000036,0.00027368,0.00000011,-0.00000222,-0.00313388,0.000
 00172,0.00000330,0.00846249,-0.00000380,0.00000388,0.00213330,-0.00000
 140,0.00001014,-0.05942888,-0.00000077,0.00000042,0.00545295,-0.000023
 06,-0.00000189,-0.04855790,0.00004612,-0.00003250,0.11242167,0.0000537
 5,-0.00007838,0.,-0.00011042,0.00006886,0.,0.00000064,-0.00005756,-0.0
 0000004,0.00000572,0.00001874,-0.00000001,0.00001782,0.00009585,0.,-0.
 00014192,-0.00000202,0.,0.00000573,0.00001036,0.,-0.00000354,-0.000007
 14,0.,-0.00001387,0.00000526,0.,-0.00000845,0.00000506,0.,-0.00017343,
 0.00038819,0.00000008,0.00005495,-0.00005252,0.,0.00042153,0.00316514,
 -0.00000053,-0.01364337,-0.00638943,-0.00000120,0.00059238,0.00014070,
 0.00000011,-0.34071385,-0.04193011,-0.00001934,0.00079778,0.00007221,0
 .00000028,0.00139251,-0.00203052,-0.00000017,-0.00655705,0.00222123,-0
 .00000109,0.35842122,-0.00002567,0.00000979,0.,-0.00007907,-0.00014442
 ,0.,-0.00004568,0.00029554,0.00000004,0.00013144,-0.00006515,0.,0.0000
 1386,0.00008621,0.,-0.00000343,-0.00003788,0.,-0.00000049,0.00000011,0
 .,-0.00000037,-0.00000013,0.,0.00000212,-0.00000285,0.,0.00000237,-0.0
 0000164,0.,0.00055986,-0.00043373,-0.00000002,0.00002597,-0.00002786,-
 0.00000001,0.00334852,-0.00404728,0.00000063,0.02435561,0.00746419,0.0
 0000193,0.00037570,-0.00121984,0.00000009,-0.04240939,-0.06551205,-0.0
 0000192,-0.00012516,0.00087472,-0.00000016,-0.00118873,-0.00541366,0.0
 0000049,-0.02918839,0.00110702,-0.00000182,0.04491020,0.06476576,0.,-0
 .00000002,-0.00003461,-0.00000006,-0.00000001,0.00003745,0.00000003,0.
 00000005,0.00058063,0.00000005,0.,0.00013056,0.,0.00000004,-0.00007708
 ,-0.00000003,0.,0.00001780,0.,0.,0.00000611,0.,0.,0.00003875,0.,0.,-0.
 00002595,0.,0.,-0.00000086,-0.00000020,-0.00000004,-0.00095873,0.00000
 006,0.,-0.00008410,-0.00000075,0.00000079,0.00667939,-0.00000252,-0.00
 000121,0.00677688,-0.00000034,-0.00000012,-0.00111473,-0.00001946,-0.0
 0000156,-0.03828914,0.00000032,-0.00000002,-0.00385042,0.00000031,0.00
 000055,0.00482027,0.00000053,0.00000020,0.00620293,0.00002160,0.000001
 25,0.02308976,-0.00009247,0.00002972,0.00000002,0.00008651,0.00007564,
 0.00000002,-0.00008152,0.00005203,-0.00000002,0.00002824,0.00000592,0.
 ,-0.00002524,-0.00004452,0.,0.00008560,0.00001401,0.,0.00000047,-0.000
 00497,0.,-0.00000399,0.00000217,0.,0.00000412,-0.00000002,0.,-0.000001
 84,-0.00000216,0.,0.00013540,-0.00027304,-0.00000025,-0.00027682,0.000
 10905,0.00000006,-0.00339481,0.00286085,-0.00000078,0.00023178,0.00012
 949,0.00000002,0.00903474,0.01975952,-0.00000034,-0.00578586,0.0009327
 2,-0.00000109,0.00011481,-0.00010026,0.00000006,-0.10249618,-0.1077263
 1,-0.00000184,-0.00431767,-0.02831127,0.00000039,-0.00040993,-0.001402
 76,0.00000012,0.10339642,0.00009854,0.00001782,-0.00000001,-0.00008250
 ,0.00000390,-0.00000002,0.00017138,-0.00006866,-0.00000002,-0.00005961
 ,-0.00000020,0.00000002,-0.00000076,-0.00004866,0.,0.00001186,-0.00001
 506,0.,-0.00000628,0.00000033,0.,0.00001012,0.00000316,0.,0.00000721,-
 0.00000201,0.,0.00000797,-0.00000101,0.,-0.00036144,0.00052646,0.00000
 030,0.00026235,-0.00010308,-0.00000004,0.00392528,-0.00133033,0.000000
 66,0.00022292,0.00024436,0.,-0.01352097,-0.01863820,-0.00000043,-0.000
 05744,0.00142483,0.00000003,-0.00008097,-0.00005499,-0.00000003,-0.104
 52505,-0.30323515,0.00000188,0.00205455,0.00161329,0.00000006,0.000101
 86,-0.00002701,0.00000005,0.11379706,0.31779072,-0.00000009,0.00000002
 ,-0.00034844,-0.00000011,-0.00000013,-0.00006099,-0.00000018,0.0000003
 3,0.00040668,0.00000018,-0.00000003,-0.00000408,0.,0.00000010,-0.00006
 153,0.00000002,-0.00000004,0.00003292,0.,0.,-0.00000244,0.,0.,0.000054
 22,0.,0.,-0.00000288,0.,0.,0.00006525,0.00000052,-0.00000015,-0.000246
 41,-0.00000003,-0.00000004,-0.00014383,-0.00000083,0.00000116,0.003918
 21,-0.00000014,0.00000003,-0.00057968,0.00000034,0.00000127,0.00369769
 ,-0.00000085,-0.00000006,0.00683305,0.00000005,-0.00000001,-0.00056712
 ,-0.00000273,0.00000130,-0.03269200,0.00000008,-0.00000166,0.00394479,
 0.,-0.00000014,-0.00038430,0.00000233,-0.00000172,0.02256501,0.0000048
 6,-0.00003518,0.,-0.00018882,-0.00007468,0.,-0.00004628,0.00030400,-0.
 00000003,0.00016344,-0.00003647,0.,0.00001642,0.00017920,0.,-0.0001014
 0,-0.00006687,0.,0.00000079,0.00000973,0.,-0.00000108,-0.00000794,0.,-
 0.00000892,0.00000313,0.,-0.00000378,0.00000252,0.,0.00048807,0.000265
 73,0.00000024,-0.00002249,-0.00003049,-0.00000002,0.00018881,-0.000633
 01,0.,-0.00102911,-0.00246616,-0.00000016,-0.00376873,-0.00289643,-0.0
 0000052,0.01049514,-0.01190629,0.00000115,0.00036171,-0.00052447,0.,-0
 .01242546,0.02561862,-0.00000203,-0.17354787,0.14256952,-0.00001698,0.
 00068912,0.00038631,0.00000023,0.00111726,-0.00024738,0.00000044,0.179
 80157,0.00009697,0.00004440,-0.00000001,0.00032912,0.00036120,-0.00000
 002,0.00056051,-0.00091269,-0.00000002,-0.00050478,0.00010408,0.000000
 04,-0.00000555,-0.00038400,0.,0.00011562,0.00013930,0.,-0.00000346,-0.
 00001317,0.,0.00000904,0.00001111,0.,0.00001052,-0.00000508,0.,0.00000
 574,-0.00000056,0.,-0.00105477,0.00048839,0.00000016,-0.00003054,0.000
 31761,0.,-0.00149108,0.00029275,-0.00000013,-0.00249383,-0.00385574,0.
 00000024,-0.00175661,0.00007757,0.00000027,0.02039913,-0.01519992,0.00
 000221,0.00092711,-0.00098771,0.00000013,-0.00616974,0.00764803,-0.000
 00038,0.14225789,-0.23342860,0.00002030,-0.00008813,0.00096397,-0.0000
 0015,0.00028045,0.00059265,-0.00000021,-0.15183327,0.24369970,-0.00000
 008,0.00000004,0.00002893,0.,-0.00000015,0.00000315,-0.00000011,0.0000
 0015,-0.00016098,0.00000006,0.00000002,0.00004657,0.,0.,0.00000875,0.0
 0000007,-0.00000003,-0.00000278,0.,0.,0.00000561,0.,0.,0.00000948,0.,0
 .,-0.00000155,0.,0.,-0.00001694,0.00000019,-0.00000033,0.00044111,0.00
 000003,-0.00000007,-0.00014148,0.00000017,-0.00000044,-0.00139876,0.00
 000037,0.00000002,0.00415888,-0.00000074,0.00000005,0.00719509,-0.0000
 0037,0.00000084,0.00243311,-0.00000012,0.00000010,0.00087895,-0.000001
 44,0.00000141,0.00413959,-0.00001694,0.00002039,-0.03193018,0.00000030
 ,-0.00000018,-0.00293267,0.00000044,-0.00000009,-0.00397339,0.00001830
 ,-0.00002212,0.02193849,-0.00780671,-0.00488898,0.00000021,-0.01117803
 ,0.01007597,0.00000038,-0.09404722,0.05360366,0.00000810,0.02326082,-0
 .00384502,-0.00000149,-0.00115709,0.01428268,0.00000015,-0.00569018,-0
 .00330045,0.00000047,0.00038162,-0.00037928,-0.00000007,-0.00049955,-0
 .00025259,0.00000006,-0.00022195,0.00021502,0.00000006,-0.00059943,-0.
 00014668,0.00000004,-0.30385628,-0.05972733,0.00001520,-0.04852362,-0.
 03408673,0.00000070,-0.18647162,0.12229627,-0.00000609,-0.04815475,0.0
 4392606,-0.00000461,0.01532855,0.00487079,0.00000126,0.00145130,-0.021
 23386,0.00000109,0.00019438,-0.00023469,0.00000034,-0.00716131,-0.0130
 5584,0.00000048,0.01093371,-0.00250722,0.00000078,-0.00065061,0.000506
 29,-0.00000012,0.00080311,-0.00081489,-0.00000017,-0.00038940,0.000882
 81,-0.00000016,0.66134438,-0.00494602,0.00427316,-0.00000034,0.0428110
 0,-0.01795257,-0.00000336,0.02620143,-0.00781577,-0.00000098,-0.001827
 55,-0.00506393,0.00000024,-0.00110417,-0.00650632,-0.00000019,0.007098
 55,0.00202335,-0.00000032,0.00001248,-0.00086335,-0.00000005,-0.000041
 99,0.00038731,0.00000019,0.00050314,-0.00048670,-0.00000010,-0.0000941
 1,-0.00000376,0.00000012,-0.06220061,-0.09733321,0.00000112,-0.0132171
 7,-0.12201538,0.00000024,0.09655195,-0.22549888,0.00000338,0.02003538,
 0.00947678,0.,0.02811515,-0.04892149,0.00000151,-0.00581816,0.00025308
 ,-0.00000066,-0.00126416,0.00072846,-0.00000003,-0.01543947,0.00538007
 ,-0.00000183,0.00743283,0.00540637,0.00000090,-0.00055874,0.00110430,-
 0.00000003,0.00030658,-0.00058867,-0.00000033,0.00036184,-0.00008140,0
 .00000011,-0.10613767,0.50976242,0.00000055,-0.00000006,0.00189326,0.0
 0000093,-0.00000073,-0.00218782,0.00000592,-0.00000381,0.00445095,-0.0
 0000119,0.00000019,0.00489037,0.00000026,-0.00000049,0.00099203,0.0000
 0005,0.00000021,0.00084622,0.,0.00000003,-0.00034970,-0.00000005,0.,-0
 .00081819,-0.00000007,-0.00000001,-0.00074792,-0.00000002,0.00000002,-
 0.00028541,0.00001361,0.00000131,-0.03792604,0.00000134,0.00000172,-0.
 02016117,0.00000273,-0.00000273,-0.03975504,-0.00000375,-0.00000017,0.
 00776286,-0.00000160,0.00000416,0.00585737,-0.00000027,0.00000038,0.00
 250781,-0.00000013,0.00000003,-0.00115409,0.00000379,-0.00000052,-0.00
 001993,-0.00000358,0.00000024,-0.00092346,0.00000002,-0.00000006,-0.00
 078647,0.00000003,0.00000003,0.00146005,0.00000003,-0.00000005,0.00011
 474,-0.00001651,0.00000223,0.07412680,0.00231701,0.00159635,-0.0000001
 5,0.00573606,0.01048528,-0.00000144,0.01889261,-0.01424817,-0.00000134
 ,-0.00876230,0.00168281,0.00000152,-0.00082323,-0.00745192,0.00000004,
 0.00279742,0.00272898,-0.00000011,-0.00025041,0.00003506,0.00000004,0.
 00046521,0.00015461,-0.00000003,0.00012009,0.00000595,-0.00000011,0.00
 004116,0.00006875,-0.00000002,-0.01141037,0.05641642,0.00001941,0.0005
 0653,0.00805733,0.00000064,-0.04907818,-0.01229305,-0.00000659,0.02712
 523,-0.01343201,0.00000138,-0.41044770,-0.08185930,-0.00004625,-0.0114
 2314,0.01777156,-0.00000135,-0.00073405,-0.00039913,-0.00000022,-0.069
 36748,0.01682165,-0.00001327,-0.00021395,0.00231401,-0.00000036,-0.000
 09056,-0.00014297,0.00000024,0.00200229,-0.00119103,0.00000106,-0.0017
 0779,-0.00047953,0.00000001,0.00350315,-0.00654631,0.00000239,0.560539
 81,-0.00162221,-0.00143118,0.00000021,-0.00201556,-0.00822146,0.000001
 20,-0.01980418,0.00368996,-0.00000053,0.00447043,-0.00140993,-0.000000
 89,0.00030647,0.00379524,-0.00000004,-0.00099495,-0.00191694,-0.000000
 01,0.00026156,-0.00035646,0.,-0.00003266,0.00013408,-0.00000003,0.0001
 7088,-0.00010394,0.00000004,0.00005921,-0.00010868,0.,0.02969791,-0.08
 670102,-0.00002351,0.00057662,-0.00445194,-0.00000039,-0.02983486,-0.0
 0715682,-0.00000106,-0.00993112,-0.00509076,-0.00000064,-0.06118311,-0
 .12510203,0.00000404,0.00117598,-0.00615563,0.,-0.00187315,0.00000830,
 -0.00000003,0.04958452,0.01476624,0.00000296,0.00154269,-0.00635183,-0
 .00000061,-0.00000437,0.00043589,0.00000005,-0.00109127,0.00252233,0.0
 0000043,0.00177979,0.00057994,0.00000045,0.00877807,0.01189984,-0.0000
 0079,0.00395444,0.35505015,0.00000027,0.,0.00042607,-0.00000038,0.0000
 0040,-0.00095087,0.00000258,-0.00000029,-0.00059182,-0.00000029,0.0000
 0031,0.00043239,-0.00000024,-0.00000044,0.00018592,0.00000030,-0.00000
 021,0.00003260,-0.00000004,0.00000003,-0.00003732,-0.00000001,-0.00000
 002,-0.00018027,0.00000001,0.00000001,-0.00005162,-0.00000002,0.000000
 02,-0.00010159,-0.00000058,0.00000058,0.01684642,0.00000066,0.00000048
 ,-0.00100080,-0.00000547,-0.00000177,0.01482404,0.00000235,-0.00000147
 ,0.00185178,-0.00005129,0.00000050,-0.04837395,-0.00000146,0.00000159,
 -0.00015453,-0.00000002,-0.00000020,-0.00143728,-0.00001555,0.00000033
 ,0.01055012,-0.00000044,0.00000172,0.00375046,-0.00000006,-0.00000008,
 0.00009428,0.00000077,-0.00000061,-0.00329134,-0.00000062,-0.00000014,
 -0.00010513,-0.00000035,0.00000111,-0.00281701,0.00008348,-0.00003235,
 0.04329525,-0.00085435,-0.00040500,0.00000010,-0.00323212,-0.00337646,
 0.00000053,-0.00597785,0.01038993,0.00000164,0.00398173,-0.00063385,-0
 .00000070,0.00015983,0.00270269,-0.00000006,-0.00077486,-0.00102675,0.
 00000006,0.00006267,0.00001689,-0.00000005,-0.00050263,-0.00014397,0.0
 0000008,0.00001041,-0.00001785,0.00000004,-0.00000653,-0.00007784,-0.0
 0000002,-0.02135546,-0.02075105,-0.00001079,-0.00201558,-0.00491173,0.
 00000009,0.00635237,-0.00245819,0.00000065,-0.00701653,0.00340951,-0.0
 0000050,-0.04708237,0.03315652,-0.00001468,0.00159608,-0.00466205,0.00
 000040,0.00047947,0.00017857,0.00000002,0.00047023,-0.00447209,0.00000
 027,0.00088691,0.00171839,-0.00000060,0.00006383,-0.00000613,-0.000000
 02,-0.00015444,0.00027725,0.00000010,-0.00008607,0.00003638,0.00000002
 ,-0.00079328,-0.01023420,-0.00000447,-0.05973742,0.02602883,-0.0000135
 9,0.13552595,0.00445224,0.00102521,-0.00000082,0.00467025,0.01530672,-
 0.00000211,0.03288327,-0.01770280,0.00000253,-0.01110579,0.00361635,0.
 00000178,-0.00097810,-0.00813112,0.00000019,0.00113418,0.00320390,0.00
 000002,-0.00034486,0.00039976,0.00000010,0.00038625,-0.00014992,0.,-0.
 00020859,0.00017539,-0.00000008,-0.00011502,0.00019777,-0.00000003,-0.
 03314878,0.03292404,0.00002788,0.00264432,0.01215608,-0.00000034,-0.02
 571747,0.00771450,-0.00000087,0.02443009,-0.01026575,0.00000106,0.0452
 2799,0.01576222,0.00000336,-0.00521232,0.01696567,-0.00000077,-0.00054
 103,-0.00029797,-0.00000042,-0.01624355,0.00475129,-0.00000211,-0.0044
 7393,-0.00146764,0.00000082,-0.00000474,-0.00017398,0.00000019,0.00060
 135,-0.00062684,-0.00000009,-0.00072177,-0.00045183,-0.00000017,-0.008
 82640,-0.01756368,-0.00000113,0.01595020,-0.13832337,0.00003049,-0.024
 73780,0.08095598,0.00000005,0.00000084,0.00017381,-0.00000026,0.000001
 20,0.00122562,0.00000203,0.00000441,-0.00232584,0.00000077,0.00000010,
 -0.00066305,-0.00000039,0.00000018,-0.00012889,0.00000036,-0.00000021,
 -0.00003039,-0.00000013,0.00000014,-0.00004986,0.00000034,-0.00000013,
 0.00012084,-0.00000004,0.00000006,0.00005637,-0.00000002,0.00000003,0.
 00006063,-0.00000703,-0.00000836,-0.01795119,0.00000088,0.00000281,0.0
 0106125,-0.00000128,0.00000060,-0.00506526,0.00000219,-0.00000075,0.00
 017961,0.00000210,0.00000835,0.00043488,-0.00000089,0.00000109,-0.0001
 0977,0.00000008,0.00000005,0.00041751,-0.00000216,0.00000027,0.0065703
 8,0.00000049,0.00000040,0.00090237,0.00000004,-0.00000003,0.00006424,0
 .00000008,-0.00000004,-0.00061945,-0.00000004,-0.00000012,-0.00073862,
 0.00000029,-0.00000294,0.00302978,-0.00003895,0.00005154,-0.03319579,0
 .00004147,-0.00005949,0.04658083\\0.00101554,-0.00012798,0.00000025,-0
 .00005955,-0.00071287,0.00000119,-0.00074364,-0.00031888,-0.00000329,-
 0.00063701,0.00085628,-0.00000020,0.00030146,0.00148866,0.00000014,0.0
 0099024,0.00095541,-0.00000012,0.00015514,-0.00005664,-0.00000014,-0.0
 0012905,0.00012237,0.00000002,0.00001574,0.00018642,-0.00000004,0.0001
 3415,0.00011140,-0.00000003,-0.00088577,-0.00093914,-0.00001230,-0.000
 70004,-0.00336116,0.00000043,-0.00036861,-0.00042712,-0.00000005,-0.00
 084783,0.00084003,-0.00000029,0.00001579,-0.00054733,-0.00000401,0.000
 11582,0.00127708,0.00000049,-0.00011850,0.00009529,-0.00000026,0.00097
 753,0.00014557,0.00000448,0.00096205,0.00119211,-0.00000008,-0.0000037
 0,0.00017604,-0.00000015,0.00016319,-0.00001740,-0.00000034,0.00012271
 ,0.00012794,-0.00000044,-0.00077071,-0.00071698,0.00000419,0.00055364,
 -0.00079884,-0.00001956,-0.00025861,0.00044974,0.00003009\\\@
 The archive entry for this job was punched.


 FAULTILY FAULTLESS, ICILY REGULAR, SPLENDIDLY NULL...
           MAUDE BY TENNYSON
 Job cpu time:       0 days  2 hours 50 minutes 43.2 seconds.
 Elapsed time:       0 days  0 hours 17 minutes 40.5 seconds.
 File lengths (MBytes):  RWF=   1380 Int=      0 D2E=      0 Chk=     48 Scr=      8
 Normal termination of Gaussian 16 at Mon Jul 13 14:26:28 2020.
