 Entering Gaussian System, Link 0=g16
 Initial command:
 /gpfs/loomis/apps/avx/software/Gaussian/16-C.01_AVX/g16/l1.exe "/home/fas/batista/pev4/scratch60/gauss-scratch/Gau-65992.inp" -scrdir="/home/fas/batista/pev4/scratch60/gauss-scratch/"
 Entering Link 1 = /gpfs/loomis/apps/avx/software/Gaussian/16-C.01_AVX/g16/l1.exe PID=     65993.
  
 Copyright (c) 1988-2019, Gaussian, Inc.  All Rights Reserved.
  
 This is part of the Gaussian(R) 16 program.  It is based on
 the Gaussian(R) 09 system (copyright 2009, Gaussian, Inc.),
 the Gaussian(R) 03 system (copyright 2003, Gaussian, Inc.),
 the Gaussian(R) 98 system (copyright 1998, Gaussian, Inc.),
 the Gaussian(R) 94 system (copyright 1995, Gaussian, Inc.),
 the Gaussian 92(TM) system (copyright 1992, Gaussian, Inc.),
 the Gaussian 90(TM) system (copyright 1990, Gaussian, Inc.),
 the Gaussian 88(TM) system (copyright 1988, Gaussian, Inc.),
 the Gaussian 86(TM) system (copyright 1986, Carnegie Mellon
 University), and the Gaussian 82(TM) system (copyright 1983,
 Carnegie Mellon University). Gaussian is a federally registered
 trademark of Gaussian, Inc.
  
 This software contains proprietary and confidential information,
 including trade secrets, belonging to Gaussian, Inc.
  
 This software is provided under written license and may be
 used, copied, transmitted, or stored only in accord with that
 written license.
  
 The following legend is applicable only to US Government
 contracts under FAR:
  
                    RESTRICTED RIGHTS LEGEND
  
 Use, reproduction and disclosure by the US Government is
 subject to restrictions as set forth in subparagraphs (a)
 and (c) of the Commercial Computer Software - Restricted
 Rights clause in FAR 52.227-19.
  
 Gaussian, Inc.
 340 Quinnipiac St., Bldg. 40, Wallingford CT 06492
  
  
 ---------------------------------------------------------------
 Warning -- This program may not be used in any manner that
 competes with the business of Gaussian, Inc. or will provide
 assistance to any competitor of Gaussian, Inc.  The licensee
 of this program is prohibited from giving any competitor of
 Gaussian, Inc. access to this program.  By using this program,
 the user acknowledges that Gaussian, Inc. is engaged in the
 business of creating and licensing software in the field of
 computational chemistry and represents and warrants to the
 licensee that it is not a competitor of Gaussian, Inc. and that
 it will not use this program in any manner prohibited above.
 ---------------------------------------------------------------
  

 Cite this work as:
 Gaussian 16, Revision C.01,
 M. J. Frisch, G. W. Trucks, H. B. Schlegel, G. E. Scuseria, 
 M. A. Robb, J. R. Cheeseman, G. Scalmani, V. Barone, 
 G. A. Petersson, H. Nakatsuji, X. Li, M. Caricato, A. V. Marenich, 
 J. Bloino, B. G. Janesko, R. Gomperts, B. Mennucci, H. P. Hratchian, 
 J. V. Ortiz, A. F. Izmaylov, J. L. Sonnenberg, D. Williams-Young, 
 F. Ding, F. Lipparini, F. Egidi, J. Goings, B. Peng, A. Petrone, 
 T. Henderson, D. Ranasinghe, V. G. Zakrzewski, J. Gao, N. Rega, 
 G. Zheng, W. Liang, M. Hada, M. Ehara, K. Toyota, R. Fukuda, 
 J. Hasegawa, M. Ishida, T. Nakajima, Y. Honda, O. Kitao, H. Nakai, 
 T. Vreven, K. Throssell, J. A. Montgomery, Jr., J. E. Peralta, 
 F. Ogliaro, M. J. Bearpark, J. J. Heyd, E. N. Brothers, K. N. Kudin, 
 V. N. Staroverov, T. A. Keith, R. Kobayashi, J. Normand, 
 K. Raghavachari, A. P. Rendell, J. C. Burant, S. S. Iyengar, 
 J. Tomasi, M. Cossi, J. M. Millam, M. Klene, C. Adamo, R. Cammi, 
 J. W. Ochterski, R. L. Martin, K. Morokuma, O. Farkas, 
 J. B. Foresman, and D. J. Fox, Gaussian, Inc., Wallingford CT, 2019.
 
 ******************************************
 Gaussian 16:  ES64L-G16RevC.01  3-Jul-2019
                14-Jul-2020 
 ******************************************
 %chk=config_8_19.chk
 %mem=58GB
 %nprocshared=10
 Will use up to   10 processors via shared memory.
 ----------------------------------------------------------------------
 #p opt=addgic freq td wb97xd/cc-pvdz nosymm int=ultrafine scrf=(solven
 t=CarbonTetraChloride)
 ----------------------------------------------------------------------
 1/18=20,19=15,26=6,38=1,145=903/1,3;
 2/9=110,12=2,15=1,17=6,18=5,40=1/2;
 3/5=16,11=9,25=1,30=1,70=2201,71=1,72=11,74=-58,75=-5/1,2,3,8;
 4//1;
 5/5=2,38=5,53=11/2;
 8/6=1,10=1/1;
 9/15=2,42=1,70=2/14;
 10/5=4,31=1/2;
 6/7=2,8=2,9=2,10=2/1;
 7/12=6,13=5,30=1/1,2,3,16;
 1/18=20,19=15,26=6,145=903/3(2);
 2/9=110,15=1/2;
 99//99;
 2/9=110,15=1/2;
 3/5=16,11=9,25=1,30=1,70=2205,71=1,72=11,74=-58,75=-5/1,2,3,8;
 4/5=5,16=3,69=1/1;
 5/5=2,38=5,53=11/2;
 8/6=1,10=1/1;
 9/15=2,42=1,49=4,70=2/14;
 10/5=4,31=1/2;
 7/12=6,13=5,30=1/1,2,3,16;
 1/18=20,19=15,26=6,145=903/3(-8);
 2/9=110,15=1/2;
 6/7=2,8=2,9=2,10=2/1;
 99/9=10/99;
 Leave Link    1 at Tue Jul 14 16:05:28 2020, MaxMem=  7784628224 cpu:               4.8 elap:               0.5
 (Enter /gpfs/loomis/apps/avx/software/Gaussian/16-C.01_AVX/g16/l101.exe)
 ------------------------------------------------
 NM 2D-scan of HBT TD-WB97XD pVDZ in CTC Relaxed.
 ------------------------------------------------
 Symbolic Z-matrix:
 Charge =  0 Multiplicity = 1
 C                     1.50508  -3.24606  -0.00002 
 C                     1.00265  -1.93855  -0.00002 
 C                     1.82067  -0.76628  -0.00003 
 C                     3.22213  -0.96883  -0.00003 
 C                     3.72676  -2.28205  -0.00002 
 C                     2.89216  -3.4166   -0.00001 
 H                     0.8161   -4.10489  -0.00001 
 H                     3.91012  -0.10871  -0.00004 
 H                     4.81517  -2.42271  -0.00003 
 H                     3.32632  -4.42385  -0.00001 
 N                     1.06759   0.40445  -0.00003 
 S                    -0.69065  -1.54804  -0.00003 
 C                    -1.30256   1.08459   0.00001 
 C                    -2.6499    0.69933   0.00003 
 C                    -0.90883   2.49857   0.00004 
 C                    -3.65767   1.69237   0.00003 
 H                    -2.93145  -0.36282   0.00003 
 C                    -1.96547   3.46695   0.00004 
 C                    -3.31645   3.05736   0.00003 
 H                    -4.71177   1.38854   0.00004 
 H                    -1.68981   4.53134   0.00005 
 H                    -4.11197   3.81178   0.00003 
 C                    -0.26764   0.12398  -0.00002 
 O                     0.34016   2.75349   0.00006 
 H                     1.05353   1.42465   0.00002 
 
 Initializing the GIC definitions file.
 Number of initial coordinates =   134
 Number of input entries/lines =    52
 Number of additional coordinates =     2
 Number of removed coordinates =     0
 Number of frozen coordinates =     2
 Number of final active and frozen coordinates =   136
 ITRead=  0  0  0  0  0  0  0  0  0  0  0  0  0  0  0  0  0  0  0  0
 ITRead=  0  0  0  0  0
 MicOpt= -1 -1 -1 -1 -1 -1 -1 -1 -1 -1 -1 -1 -1 -1 -1 -1 -1 -1 -1 -1
 MicOpt= -1 -1 -1 -1 -1
 NAtoms=     25 NQM=       25 NQMF=       0 NMMI=      0 NMMIF=      0
                NMic=       0 NMicF=      0.
                    Isotopes and Nuclear Properties:
 (Nuclear quadrupole moments (NQMom) in fm**2, nuclear magnetic moments (NMagM)
  in nuclear magnetons)

  Atom         1           2           3           4           5           6           7           8           9          10
 IAtWgt=          12          12          12          12          12          12           1           1           1           1
 AtmWgt=  12.0000000  12.0000000  12.0000000  12.0000000  12.0000000  12.0000000   1.0078250   1.0078250   1.0078250   1.0078250
 NucSpn=           0           0           0           0           0           0           1           1           1           1
 AtZEff=  -0.0000000  -0.0000000  -0.0000000  -0.0000000  -0.0000000  -0.0000000  -0.0000000  -0.0000000  -0.0000000  -0.0000000
 NQMom=    0.0000000   0.0000000   0.0000000   0.0000000   0.0000000   0.0000000   0.0000000   0.0000000   0.0000000   0.0000000
 NMagM=    0.0000000   0.0000000   0.0000000   0.0000000   0.0000000   0.0000000   2.7928460   2.7928460   2.7928460   2.7928460
 AtZNuc=   6.0000000   6.0000000   6.0000000   6.0000000   6.0000000   6.0000000   1.0000000   1.0000000   1.0000000   1.0000000

  Atom        11          12          13          14          15          16          17          18          19          20
 IAtWgt=          14          32          12          12          12          12           1          12          12           1
 AtmWgt=  14.0030740  31.9720718  12.0000000  12.0000000  12.0000000  12.0000000   1.0078250  12.0000000  12.0000000   1.0078250
 NucSpn=           2           0           0           0           0           0           1           0           0           1
 AtZEff=  -0.0000000  -0.0000000  -0.0000000  -0.0000000  -0.0000000  -0.0000000  -0.0000000  -0.0000000  -0.0000000  -0.0000000
 NQMom=    2.0440000   0.0000000   0.0000000   0.0000000   0.0000000   0.0000000   0.0000000   0.0000000   0.0000000   0.0000000
 NMagM=    0.4037610   0.0000000   0.0000000   0.0000000   0.0000000   0.0000000   2.7928460   0.0000000   0.0000000   2.7928460
 AtZNuc=   7.0000000  16.0000000   6.0000000   6.0000000   6.0000000   6.0000000   1.0000000   6.0000000   6.0000000   1.0000000

  Atom        21          22          23          24          25
 IAtWgt=           1           1          12          16           1
 AtmWgt=   1.0078250   1.0078250  12.0000000  15.9949146   1.0078250
 NucSpn=           1           1           0           0           1
 AtZEff=  -0.0000000  -0.0000000  -0.0000000  -0.0000000  -0.0000000
 NQMom=    0.0000000   0.0000000   0.0000000   0.0000000   0.0000000
 NMagM=    2.7928460   2.7928460   0.0000000   0.0000000   2.7928460
 AtZNuc=   1.0000000   1.0000000   6.0000000   8.0000000   1.0000000
 Leave Link  101 at Tue Jul 14 16:05:31 2020, MaxMem=  7784628224 cpu:              31.9 elap:               3.3
 (Enter /gpfs/loomis/apps/avx/software/Gaussian/16-C.01_AVX/g16/l103.exe)

 GradGradGradGradGradGradGradGradGradGradGradGradGradGradGradGradGradGrad
 Berny optimization.
 Initialization pass.
                           ----------------------------
                           !    Initial Parameters    !
                           ! (Angstroms and Degrees)  !
 --------------------------                            --------------------------
 ! Name  Definition              Value          Derivative Info.                !
 --------------------------------------------------------------------------------
 ! R1    R(1,2)                  1.4007         estimate D2E/DX2                !
 ! R2    R(1,6)                  1.3975         estimate D2E/DX2                !
 ! R3    R(1,7)                  1.101          estimate D2E/DX2                !
 ! R4    R(2,3)                  1.4295         estimate D2E/DX2                !
 ! R5    R(2,12)                 1.7377         estimate D2E/DX2                !
 ! R6    R(3,4)                  1.416          estimate D2E/DX2                !
 ! R7    R(3,11)                 1.392          estimate D2E/DX2                !
 ! R8    R(4,5)                  1.4068         estimate D2E/DX2                !
 ! R9    R(4,8)                  1.1014         estimate D2E/DX2                !
 ! R10   R(5,6)                  1.4085         estimate D2E/DX2                !
 ! R11   R(5,9)                  1.0975         estimate D2E/DX2                !
 ! R12   R(6,10)                 1.0968         estimate D2E/DX2                !
 ! R13   R(11,23)                1.3644         estimate D2E/DX2                !
 ! R14   R(11,25)                1.0203         estimate D2E/DX2                !
 ! R15   R(12,23)                1.7247         estimate D2E/DX2                !
 ! R16   R(13,14)                1.4013         estimate D2E/DX2                !
 ! R17   R(13,15)                1.4678         estimate D2E/DX2                !
 ! R18   R(13,23)                1.412          estimate D2E/DX2                !
 ! R19   R(14,16)                1.4148         estimate D2E/DX2                !
 ! R20   R(14,17)                1.0988         estimate D2E/DX2                !
 ! R21   R(15,18)                1.4333         estimate D2E/DX2                !
 ! R22   R(15,24)                1.2747         estimate D2E/DX2                !
 ! R23   R(16,19)                1.407          estimate D2E/DX2                !
 ! R24   R(16,20)                1.097          estimate D2E/DX2                !
 ! R25   R(18,19)                1.4117         estimate D2E/DX2                !
 ! R26   R(18,21)                1.0995         estimate D2E/DX2                !
 ! R27   R(19,22)                1.0964         estimate D2E/DX2                !
 ! A1    A(2,1,6)              118.0294         estimate D2E/DX2                !
 ! A2    A(2,1,7)              120.2421         estimate D2E/DX2                !
 ! A3    A(6,1,7)              121.7286         estimate D2E/DX2                !
 ! A4    A(1,2,3)              124.0718         estimate D2E/DX2                !
 ! A5    A(1,2,12)             124.0068         estimate D2E/DX2                !
 ! A6    A(3,2,12)             111.9215         estimate D2E/DX2                !
 ! A7    A(2,3,4)              116.6844         estimate D2E/DX2                !
 ! A8    A(2,3,11)             112.3405         estimate D2E/DX2                !
 ! A9    A(4,3,11)             130.975          estimate D2E/DX2                !
 ! A10   A(3,4,5)              119.244          estimate D2E/DX2                !
 ! A11   A(3,4,8)              120.432          estimate D2E/DX2                !
 ! A12   A(5,4,8)              120.324          estimate D2E/DX2                !
 ! A13   A(4,5,6)              122.6405         estimate D2E/DX2                !
 ! A14   A(4,5,9)              118.3842         estimate D2E/DX2                !
 ! A15   A(6,5,9)              118.9754         estimate D2E/DX2                !
 ! A16   A(1,6,5)              119.33           estimate D2E/DX2                !
 ! A17   A(1,6,10)             120.3268         estimate D2E/DX2                !
 ! A18   A(5,6,10)             120.3432         estimate D2E/DX2                !
 ! A19   A(3,11,23)            110.8889         estimate D2E/DX2                !
 ! A20   A(3,11,25)            148.0385         estimate D2E/DX2                !
 ! A21   A(23,11,25)           101.0726         estimate D2E/DX2                !
 ! A22   A(2,12,23)             88.7891         estimate D2E/DX2                !
 ! A23   A(14,13,15)           121.5174         estimate D2E/DX2                !
 ! A24   A(14,13,23)           121.1752         estimate D2E/DX2                !
 ! A25   A(15,13,23)           117.3074         estimate D2E/DX2                !
 ! A26   A(13,14,16)           119.4644         estimate D2E/DX2                !
 ! A27   A(13,14,17)           120.8038         estimate D2E/DX2                !
 ! A28   A(16,14,17)           119.7318         estimate D2E/DX2                !
 ! A29   A(13,15,18)           116.9442         estimate D2E/DX2                !
 ! A30   A(13,15,24)           117.0954         estimate D2E/DX2                !
 ! A31   A(18,15,24)           125.9605         estimate D2E/DX2                !
 ! A32   A(14,16,19)           120.5432         estimate D2E/DX2                !
 ! A33   A(14,16,20)           119.3429         estimate D2E/DX2                !
 ! A34   A(19,16,20)           120.114          estimate D2E/DX2                !
 ! A35   A(15,18,19)           120.6297         estimate D2E/DX2                !
 ! A36   A(15,18,21)           117.9843         estimate D2E/DX2                !
 ! A37   A(19,18,21)           121.3859         estimate D2E/DX2                !
 ! A38   A(16,19,18)           120.9011         estimate D2E/DX2                !
 ! A39   A(16,19,22)           119.446          estimate D2E/DX2                !
 ! A40   A(18,19,22)           119.6529         estimate D2E/DX2                !
 ! A41   A(11,23,12)           116.06           estimate D2E/DX2                !
 ! A42   A(11,23,13)           125.2701         estimate D2E/DX2                !
 ! A43   A(12,23,13)           118.6699         estimate D2E/DX2                !
 ! D1    D(6,1,2,3)             -0.0001         estimate D2E/DX2                !
 ! D2    D(6,1,2,12)           179.9999         estimate D2E/DX2                !
 ! D3    D(7,1,2,3)            179.9999         estimate D2E/DX2                !
 ! D4    D(7,1,2,12)            -0.0001         estimate D2E/DX2                !
 ! D5    D(2,1,6,5)             -0.0002         estimate D2E/DX2                !
 ! D6    D(2,1,6,10)           179.9999         estimate D2E/DX2                !
 ! D7    D(7,1,6,5)            179.9999         estimate D2E/DX2                !
 ! D8    D(7,1,6,10)             0.0            estimate D2E/DX2                !
 ! D9    D(1,2,3,4)              0.0003         estimate D2E/DX2                !
 ! D10   D(1,2,3,11)          -179.9999         estimate D2E/DX2                !
 ! D11   D(12,2,3,4)          -179.9997         estimate D2E/DX2                !
 ! D12   D(12,2,3,11)            0.0001         estimate D2E/DX2                !
 ! D13   D(1,2,12,23)          179.9996         estimate D2E/DX2                !
 ! D14   D(3,2,12,23)           -0.0004         estimate D2E/DX2                !
 ! D15   D(2,3,4,5)             -0.0003         estimate D2E/DX2                !
 ! D16   D(2,3,4,8)            179.9998         estimate D2E/DX2                !
 ! D17   D(11,3,4,5)           180.0            estimate D2E/DX2                !
 ! D18   D(11,3,4,8)             0.0001         estimate D2E/DX2                !
 ! D19   D(2,3,11,23)            0.0004         estimate D2E/DX2                !
 ! D20   D(2,3,11,25)          179.9943         estimate D2E/DX2                !
 ! D21   D(4,3,11,23)         -179.9998         estimate D2E/DX2                !
 ! D22   D(4,3,11,25)           -0.0059         estimate D2E/DX2                !
 ! D23   D(3,4,5,6)              0.0001         estimate D2E/DX2                !
 ! D24   D(3,4,5,9)           -179.9999         estimate D2E/DX2                !
 ! D25   D(8,4,5,6)            180.0            estimate D2E/DX2                !
 ! D26   D(8,4,5,9)              0.0            estimate D2E/DX2                !
 ! D27   D(4,5,6,1)              0.0002         estimate D2E/DX2                !
 ! D28   D(4,5,6,10)          -179.9999         estimate D2E/DX2                !
 ! D29   D(9,5,6,1)           -179.9999         estimate D2E/DX2                !
 ! D30   D(9,5,6,10)             0.0            estimate D2E/DX2                !
 ! D31   D(3,11,23,12)          -0.0007         estimate D2E/DX2                !
 ! D32   D(3,11,23,13)         179.9981         estimate D2E/DX2                !
 ! D33   D(25,11,23,12)       -179.9975         estimate D2E/DX2                !
 ! D34   D(25,11,23,13)          0.0013         estimate D2E/DX2                !
 ! D35   D(2,12,23,11)           0.0007         estimate D2E/DX2                !
 ! D36   D(2,12,23,13)        -179.9982         estimate D2E/DX2                !
 ! D37   D(15,13,14,16)          0.0016         estimate D2E/DX2                !
 ! D38   D(15,13,14,17)       -179.999          estimate D2E/DX2                !
 ! D39   D(23,13,14,16)       -179.9985         estimate D2E/DX2                !
 ! D40   D(23,13,14,17)          0.0009         estimate D2E/DX2                !
 ! D41   D(14,13,15,18)         -0.0019         estimate D2E/DX2                !
 ! D42   D(14,13,15,24)        179.9978         estimate D2E/DX2                !
 ! D43   D(23,13,15,18)        179.9982         estimate D2E/DX2                !
 ! D44   D(23,13,15,24)         -0.0021         estimate D2E/DX2                !
 ! D45   D(14,13,23,11)       -179.9996         estimate D2E/DX2                !
 ! D46   D(14,13,23,12)         -0.0008         estimate D2E/DX2                !
 ! D47   D(15,13,23,11)          0.0003         estimate D2E/DX2                !
 ! D48   D(15,13,23,12)        179.9991         estimate D2E/DX2                !
 ! D49   D(13,14,16,19)         -0.0003         estimate D2E/DX2                !
 ! D50   D(13,14,16,20)        179.9996         estimate D2E/DX2                !
 ! D51   D(17,14,16,19)       -179.9997         estimate D2E/DX2                !
 ! D52   D(17,14,16,20)          0.0002         estimate D2E/DX2                !
 ! D53   D(13,15,18,19)          0.0009         estimate D2E/DX2                !
 ! D54   D(13,15,18,21)       -179.9999         estimate D2E/DX2                !
 ! D55   D(24,15,18,19)       -179.9988         estimate D2E/DX2                !
 ! D56   D(24,15,18,21)          0.0004         estimate D2E/DX2                !
 ! D57   D(14,16,19,18)         -0.0006         estimate D2E/DX2                !
 ! D58   D(14,16,19,22)        179.9997         estimate D2E/DX2                !
 ! D59   D(20,16,19,18)        179.9995         estimate D2E/DX2                !
 ! D60   D(20,16,19,22)         -0.0002         estimate D2E/DX2                !
 ! D61   D(15,18,19,16)          0.0003         estimate D2E/DX2                !
 ! D62   D(15,18,19,22)        179.9999         estimate D2E/DX2                !
 ! D63   D(21,18,19,16)       -179.9988         estimate D2E/DX2                !
 ! D64   D(21,18,19,22)          0.0008         estimate D2E/DX2                !
 ! Qtot  GIC-1                  20.0            Frozen                          !
 ! Ptot  GIC-2                 220.0            Frozen                          !
 --------------------------------------------------------------------------------
 NOTE: GIC-type coordinates are in arbitrary units.
 Trust Radius=3.00D-01 FncErr=5.00D-06 GrdErr=5.00D-06 EigMax=2.50D+02 EigMin=1.00D-04
 Number of steps in this run=    146 maximum allowed number of steps=    150.
 GradGradGradGradGradGradGradGradGradGradGradGradGradGradGradGradGradGrad

 Leave Link  103 at Tue Jul 14 16:05:31 2020, MaxMem=  7784628224 cpu:               0.1 elap:               0.0
 (Enter /gpfs/loomis/apps/avx/software/Gaussian/16-C.01_AVX/g16/l202.exe)
                          Input orientation:                          
 ---------------------------------------------------------------------
 Center     Atomic      Atomic             Coordinates (Angstroms)
 Number     Number       Type             X           Y           Z
 ---------------------------------------------------------------------
      1          6           0        1.505082   -3.246061   -0.000016
      2          6           0        1.002646   -1.938547   -0.000023
      3          6           0        1.820673   -0.766285   -0.000028
      4          6           0        3.222129   -0.968828   -0.000032
      5          6           0        3.726764   -2.282053   -0.000024
      6          6           0        2.892163   -3.416599   -0.000014
      7          1           0        0.816100   -4.104890   -0.000010
      8          1           0        3.910124   -0.108706   -0.000039
      9          1           0        4.815168   -2.422714   -0.000025
     10          1           0        3.326320   -4.423846   -0.000007
     11          7           0        1.067592    0.404448   -0.000034
     12         16           0       -0.690653   -1.548036   -0.000027
     13          6           0       -1.302559    1.084590    0.000014
     14          6           0       -2.649898    0.699331    0.000030
     15          6           0       -0.908831    2.498573    0.000037
     16          6           0       -3.657668    1.692370    0.000035
     17          1           0       -2.931450   -0.362821    0.000029
     18          6           0       -1.965471    3.466947    0.000035
     19          6           0       -3.316451    3.057361    0.000031
     20          1           0       -4.711769    1.388538    0.000040
     21          1           0       -1.689807    4.531341    0.000051
     22          1           0       -4.111970    3.811780    0.000030
     23          6           0       -0.267644    0.123983   -0.000023
     24          8           0        0.340160    2.753486    0.000063
     25          1           0        1.053527    1.424653    0.000015
 ---------------------------------------------------------------------
                    Distance matrix (angstroms):
                    1          2          3          4          5
     1  C    0.000000
     2  C    1.400726   0.000000
     3  C    2.499778   1.429464   0.000000
     4  C    2.852024   2.422077   1.416016   0.000000
     5  C    2.421814   2.745691   2.435311   1.406847   0.000000
     6  C    1.397525   2.398939   2.858716   2.469911   1.408458
     7  H    1.101037   2.174360   3.486467   3.952702   3.434341
     8  H    3.953129   3.435367   2.190483   1.101430   2.181069
     9  H    3.410949   3.843142   3.422099   2.156747   1.097455
    10  H    2.168890   3.402377   3.955341   3.456588   2.178906
    11  N    3.676631   2.343895   1.392030   2.554979   3.780012
    12  S    2.775705   1.737745   2.630188   3.955419   4.477985
    13  C    5.161141   3.801753   3.630470   4.968835   6.052138
    14  C    5.729744   4.505494   4.704682   6.104380   7.039210
    15  C    6.231195   4.831333   4.255524   5.393301   6.659064
    16  C    7.144374   5.907798   6.004765   7.376556   8.386052
    17  H    5.291114   4.237927   4.769220   6.183347   6.929306
    18  C    7.557064   6.166773   5.679361   6.825489   8.090275
    19  C    7.936014   6.604067   6.403930   7.678752   8.838339
    20  H    7.754273   6.612415   6.878667   8.276709   9.202287
    21  H    8.408049   7.007764   6.355179   7.374210   8.704113
    22  H    9.020220   7.695814   7.493659   8.754611   9.928774
    23  C    3.807854   2.422327   2.270164   3.656877   4.663079
    24  O    6.111596   4.738571   3.818468   4.707586   6.068422
    25  H    4.692491   3.363585   2.321362   3.229796   4.570106
                    6          7          8          9         10
     6  C    0.000000
     7  H    2.187185   0.000000
     8  H    3.460983   5.053956   0.000000
     9  H    2.164661   4.338463   2.484701   0.000000
    10  H    1.096831   2.530402   4.354453   2.494233   0.000000
    11  N    4.234319   4.516346   2.888480   4.694377   5.330504
    12  S    4.040803   2.967795   4.820666   5.574865   4.940278
    13  C    6.152755   5.605302   5.347524   7.051792   7.195094
    14  C    6.903283   5.923992   6.609600   8.091624   7.871602
    15  C    7.031132   6.825035   5.479072   7.548724   8.115194
    16  C    8.306735   7.322760   7.779161   9.419281   9.283543
    17  H    6.575715   5.295962   6.846292   8.015813   7.460000
    18  C    8.424952   8.066589   6.878075   8.981379   9.500929
    19  C    8.969897   8.268967   7.889700   9.805838  10.004742
    20  H    8.994950   7.793272   8.750930  10.261003   9.919409
    21  H    9.174104   8.992444   7.272500   9.522267  10.264350
    22  H   10.065154   9.325209   8.928840  10.888650  11.097462
    23  C    4.745535   4.365532   4.184243   5.685125   5.796492
    24  O    6.677025   6.874870   4.575673   6.842422   7.773753
    25  H    5.178639   5.534638   3.242119   5.380723   6.274593
                   11         12         13         14         15
    11  N    0.000000
    12  S    2.627474   0.000000
    13  C    2.465808   2.702804   0.000000
    14  C    3.729167   2.981493   1.401338   0.000000
    15  C    2.879515   4.052486   1.467777   2.503715   0.000000
    16  C    4.897634   4.393564   2.432269   1.414824   2.864623
    17  H    4.071983   2.534938   2.179056   1.098835   3.504078
    18  C    4.310263   5.174478   2.472869   2.850990   1.433261
    19  C    5.124235   5.301368   2.819147   2.450429   2.471615
    20  H    5.862547   4.979242   3.422733   2.174010   3.961631
    21  H    4.963315   6.160936   3.468437   3.950453   2.177629
    22  H    6.199820   6.358697   3.915399   3.438749   3.461879
    23  C    1.364374   1.724698   1.412025   2.450747   2.459634
    24  O    2.459092   4.423309   2.341739   3.627672   1.274739
    25  H    1.020302   3.446598   2.380501   3.773784   2.236996
                   16         17         18         19         20
    16  C    0.000000
    17  H    2.179725   0.000000
    18  C    2.452071   3.949714   0.000000
    19  C    1.406994   3.441784   1.411704   0.000000
    20  H    1.097016   2.497358   3.444116   2.175289   0.000000
    21  H    3.454307   5.049208   1.099511   2.195128   4.359985
    22  H    2.167554   4.338308   2.174021   1.096356   2.496369
    23  C    3.735251   2.707922   3.749403   4.230831   4.620536
    24  O    4.136254   4.518274   2.413496   3.669216   5.233075
    25  H    4.718795   4.367506   3.644902   4.665024   5.765409
                   21         22         23         24         25
    21  H    0.000000
    22  H    2.526785   0.000000
    23  C    4.631128   5.327164   0.000000
    24  O    2.698432   4.576183   2.698835   0.000000
    25  H    4.144561   5.690407   1.853978   1.508207   0.000000
 Symmetry turned off by external request.
 Stoichiometry    C13H9NOS
 Framework group  C1[X(C13H9NOS)]
 Deg. of freedom    69
 Full point group                 C1      NOp   1
 Rotational constants (GHZ):           1.4174127           0.2863889           0.2382503
 Leave Link  202 at Tue Jul 14 16:05:31 2020, MaxMem=  7784628224 cpu:               0.3 elap:               0.0
 (Enter /gpfs/loomis/apps/avx/software/Gaussian/16-C.01_AVX/g16/l301.exe)
 Standard basis: CC-pVDZ (5D, 7F)
 Ernie: Thresh=  0.10000D-02 Tol=  0.10000D-05 Strict=F.
 Ernie:  40 primitive shells out of 425 were deleted.
   273 basis functions,   629 primitive gaussians,   289 cartesian basis functions
    59 alpha electrons       59 beta electrons
       nuclear repulsion energy      1101.3932459278 Hartrees.
 IExCor= 4639 DFT=T Ex+Corr=wB97XD ExCW=0 ScaHFX=  1.000000
 ScaDFX=  1.000000  1.000000  1.000000  1.000000 ScalE2=  1.000000  1.000000
 IRadAn=      5 IRanWt=     -1 IRanGd=            0 ICorTp=0 IEmpDi=121
 HFx  wShort=  0.000000 wLong=  0.200000 cFull=  0.222036 cShort=  0.000000 cLong=  0.777964
 DFx  wShort=  0.000000 wLong=  0.200000 cFull=  0.000000 cShort=  0.000000 cLong=  1.000000
 NAtoms=   25 NActive=   25 NUniq=   25 SFac= 1.00D+00 NAtFMM=   60 NAOKFM=F Big=F
 Integral buffers will be    131072 words long.
 Raffenetti 1 integral format.
 Two-electron integral symmetry is turned off.
 R6Disp:  Grimme-D2 Dispersion energy=       -0.0138464381 Hartrees.
 Nuclear repulsion after empirical dispersion term =     1101.3793994897 Hartrees.
 ------------------------------------------------------------------------------
 Polarizable Continuum Model (PCM)
 =================================
 Model                : PCM.
 Atomic radii         : UFF (Universal Force Field).
 Polarization charges : Total charges.
 Charge compensation  : None.
 Solution method      : On-the-fly selection.
 Cavity type          : Scaled VdW (van der Waals Surface) (Alpha=1.100).
 Cavity algorithm     : GePol (No added spheres)
                        Default sphere list used, NSphG=   25.
                        Lebedev-Laikov grids with approx.  5.0 points / Ang**2.
                        Smoothing algorithm: York/Karplus (Gamma=1.0000).
                        Polarization charges: spherical gaussians, with
                                              point-specific exponents (IZeta= 3).
                        Self-potential: point-specific (ISelfS= 7).
                        Self-field    : sphere-specific E.n sum rule (ISelfD= 2).
 1st derivatives      : Analytical E(r).r(x)/FMM algorithm (CHGder, D1EAlg=3).
                        Cavity 1st derivative terms included.
 Solvent              : CarbonTetraChloride, Eps=   2.228000 Eps(inf)=   2.131892
 ------------------------------------------------------------------------------
 GePol: Number of generator spheres                  =      25
 GePol: Total number of spheres                      =      25
 GePol: Number of exposed spheres                    =      25 (100.00%)
 GePol: Number of points                             =    2166
 GePol: Average weight of points                     =       0.13
 GePol: Minimum weight of points                     =   0.11D-08
 GePol: Maximum weight of points                     =    0.20577
 GePol: Number of points with low weight             =     144
 GePol: Fraction of low-weight points (<1% of avg)   =       6.65%
 GePol: Cavity surface area                          =    271.654 Ang**2
 GePol: Cavity volume                                =    292.283 Ang**3
 Leave Link  301 at Tue Jul 14 16:05:31 2020, MaxMem=  7784628224 cpu:               0.8 elap:               0.1
 (Enter /gpfs/loomis/apps/avx/software/Gaussian/16-C.01_AVX/g16/l302.exe)
 NPDir=0 NMtPBC=     1 NCelOv=     1 NCel=       1 NClECP=     1 NCelD=      1
         NCelK=      1 NCelE2=     1 NClLst=     1 CellRange=     0.0.
 One-electron integrals computed using PRISM.
 NBasis=   273 RedAO= T EigKep=  3.27D-04  NBF=   273
 NBsUse=   273 1.00D-06 EigRej= -1.00D+00 NBFU=   273
 Precomputing XC quadrature grid using
 IXCGrd= 4 IRadAn=           5 IRanWt=          -1 IRanGd=           0 AccXCQ= 0.00D+00.
 Generated NRdTot=       0 NPtTot=           0 NUsed=           0 NTot=          32
 NSgBfM=   288   288   288   288   288 MxSgAt=    25 MxSgA2=    25.
 Leave Link  302 at Tue Jul 14 16:05:32 2020, MaxMem=  7784628224 cpu:               2.5 elap:               0.3
 (Enter /gpfs/loomis/apps/avx/software/Gaussian/16-C.01_AVX/g16/l303.exe)
 DipDrv:  MaxL=1.
 Leave Link  303 at Tue Jul 14 16:05:32 2020, MaxMem=  7784628224 cpu:               0.8 elap:               0.1
 (Enter /gpfs/loomis/apps/avx/software/Gaussian/16-C.01_AVX/g16/l308.exe)
 Leave Link  308 at Tue Jul 14 16:05:32 2020, MaxMem=  7784628224 cpu:               0.4 elap:               0.1
 (Enter /gpfs/loomis/apps/avx/software/Gaussian/16-C.01_AVX/g16/l401.exe)
 ExpMin= 1.22D-01 ExpMax= 1.11D+05 ExpMxC= 1.07D+03 IAcc=3 IRadAn=         5 AccDes= 0.00D+00
 Harris functional with IExCor= 4639 and IRadAn=       5 diagonalized for initial guess.
 HarFok:  IExCor= 4639 AccDes= 0.00D+00 IRadAn=         5 IDoV= 1 UseB2=F ITyADJ=14
 ICtDFT=  3500011 ScaDFX=  1.000000  1.000000  1.000000  1.000000
 FoFCou: FMM=F IPFlag=           0 FMFlag=      100000 FMFlg1=           0
         NFxFlg=           0 DoJE=T BraDBF=F KetDBF=T FulRan=T
         wScrn=  0.000000 ICntrl=       500 IOpCl=  0 I1Cent=   200000004 NGrid=           0
         NMat0=    1 NMatS0=      1 NMatT0=    0 NMatD0=    1 NMtDS0=    0 NMtDT0=    0
 Symmetry not used in FoFCou.
 Harris En= -994.445922712908    
 JPrj=0 DoOrth=F DoCkMO=F.
 Leave Link  401 at Tue Jul 14 16:05:33 2020, MaxMem=  7784628224 cpu:              13.3 elap:               1.4
 (Enter /gpfs/loomis/apps/avx/software/Gaussian/16-C.01_AVX/g16/l502.exe)
 Two-electron integral symmetry not used.
 Closed shell SCF:
 Using DIIS extrapolation, IDIIS=  1040.
 NGot=  7784628224 LenX=  7784455381 LenY=  7784371419
 Requested convergence on RMS density matrix=1.00D-08 within 128 cycles.
 Requested convergence on MAX density matrix=1.00D-06.
 Requested convergence on             energy=1.00D-06.
 No special actions if energy rises.
 Fock matrices will be formed incrementally for  20 cycles.

 Cycle   1  Pass 1  IDiag  1:
 FoFJK:  IHMeth= 1 ICntrl=       0 DoSepK=T KAlg= 0 I1Cent=           0 FoldK=F
 IRaf=         1 NMat=       1 IRICut=       1 DoRegI=T DoRafI=F ISym2E= 0 IDoP0=0 IntGTp=1.
 FoFCou: FMM=F IPFlag=           0 FMFlag=      100000 FMFlg1=           0
         NFxFlg=           0 DoJE=T BraDBF=F KetDBF=F FulRan=T
         wScrn=  0.000000 ICntrl=       500 IOpCl=  0 I1Cent=           0 NGrid=           0
         NMat0=    1 NMatS0=      1 NMatT0=    0 NMatD0=    1 NMtDS0=    0 NMtDT0=    0
 Symmetry not used in FoFCou.
 Inv3:  Mode=1 IEnd=    14074668.
 Iteration    1 A*A^-1 deviation from unit magnitude is 3.33D-15 for   2161.
 Iteration    1 A*A^-1 deviation from orthogonality  is 1.61D-15 for   1759    270.
 Iteration    1 A^-1*A deviation from unit magnitude is 3.33D-15 for   2161.
 Iteration    1 A^-1*A deviation from orthogonality  is 1.35D-15 for   1120    617.
 E= -1028.55209314882    
 DIIS: error= 3.69D-02 at cycle   1 NSaved=   1.
 NSaved= 1 IEnMin= 1 EnMin= -1028.55209314882     IErMin= 1 ErrMin= 3.69D-02
 ErrMax= 3.69D-02  0.00D+00 EMaxC= 1.00D-01 BMatC= 3.92D-01 BMatP= 3.92D-01
 IDIUse=3 WtCom= 6.31D-01 WtEn= 3.69D-01
 Coeff-Com:  0.100D+01
 Coeff-En:   0.100D+01
 Coeff:      0.100D+01
 Gap=     0.316 Goal=   None    Shift=    0.000
 GapD=    0.316 DampG=1.000 DampE=0.500 DampFc=0.5000 IDamp=-1.
 Damping current iteration by 5.00D-01
 RMSDP=3.55D-03 MaxDP=2.31D-01              OVMax= 1.91D-01

 Cycle   2  Pass 1  IDiag  1:
 RMSU=  1.77D-03    CP:  9.94D-01
 E= -1028.66890201596     Delta-E=       -0.116808867141 Rises=F Damp=T
 DIIS: error= 1.19D-02 at cycle   2 NSaved=   2.
 NSaved= 2 IEnMin= 2 EnMin= -1028.66890201596     IErMin= 2 ErrMin= 1.19D-02
 ErrMax= 1.19D-02  0.00D+00 EMaxC= 1.00D-01 BMatC= 5.89D-02 BMatP= 3.92D-01
 IDIUse=3 WtCom= 8.81D-01 WtEn= 1.19D-01
 Coeff-Com: -0.282D+00 0.128D+01
 Coeff-En:   0.000D+00 0.100D+01
 Coeff:     -0.249D+00 0.125D+01
 Gap=     0.288 Goal=   None    Shift=    0.000
 RMSDP=1.15D-03 MaxDP=2.54D-02 DE=-1.17D-01 OVMax= 1.33D-01

 Cycle   3  Pass 1  IDiag  1:
 RMSU=  1.11D-03    CP:  9.94D-01  1.17D+00
 E= -1028.77336921877     Delta-E=       -0.104467202807 Rises=F Damp=F
 DIIS: error= 6.78D-03 at cycle   3 NSaved=   3.
 NSaved= 3 IEnMin= 3 EnMin= -1028.77336921877     IErMin= 3 ErrMin= 6.78D-03
 ErrMax= 6.78D-03  0.00D+00 EMaxC= 1.00D-01 BMatC= 1.67D-02 BMatP= 5.89D-02
 IDIUse=3 WtCom= 9.32D-01 WtEn= 6.78D-02
 Coeff-Com: -0.210D+00 0.513D+00 0.696D+00
 Coeff-En:   0.000D+00 0.000D+00 0.100D+01
 Coeff:     -0.195D+00 0.478D+00 0.717D+00
 Gap=     0.244 Goal=   None    Shift=    0.000
 RMSDP=5.71D-04 MaxDP=2.47D-02 DE=-1.04D-01 OVMax= 4.26D-02

 Cycle   4  Pass 1  IDiag  1:
 RMSU=  4.49D-04    CP:  9.91D-01  1.33D+00  8.14D-01
 E= -1028.78920304168     Delta-E=       -0.015833822914 Rises=F Damp=F
 DIIS: error= 2.14D-03 at cycle   4 NSaved=   4.
 NSaved= 4 IEnMin= 4 EnMin= -1028.78920304168     IErMin= 4 ErrMin= 2.14D-03
 ErrMax= 2.14D-03  0.00D+00 EMaxC= 1.00D-01 BMatC= 2.05D-03 BMatP= 1.67D-02
 IDIUse=3 WtCom= 9.79D-01 WtEn= 2.14D-02
 Coeff-Com: -0.730D-01 0.145D+00 0.342D+00 0.586D+00
 Coeff-En:   0.000D+00 0.000D+00 0.000D+00 0.100D+01
 Coeff:     -0.714D-01 0.142D+00 0.335D+00 0.594D+00
 Gap=     0.244 Goal=   None    Shift=    0.000
 RMSDP=1.83D-04 MaxDP=1.06D-02 DE=-1.58D-02 OVMax= 1.38D-02

 Cycle   5  Pass 1  IDiag  1:
 RMSU=  1.10D-04    CP:  9.91D-01  1.34D+00  8.96D-01  7.50D-01
 E= -1028.79138654534     Delta-E=       -0.002183503654 Rises=F Damp=F
 DIIS: error= 4.50D-04 at cycle   5 NSaved=   5.
 NSaved= 5 IEnMin= 5 EnMin= -1028.79138654534     IErMin= 5 ErrMin= 4.50D-04
 ErrMax= 4.50D-04  0.00D+00 EMaxC= 1.00D-01 BMatC= 5.80D-05 BMatP= 2.05D-03
 IDIUse=3 WtCom= 9.95D-01 WtEn= 4.50D-03
 Coeff-Com: -0.139D-02-0.358D-02 0.325D-01 0.156D+00 0.817D+00
 Coeff-En:   0.000D+00 0.000D+00 0.000D+00 0.000D+00 0.100D+01
 Coeff:     -0.138D-02-0.356D-02 0.323D-01 0.155D+00 0.817D+00
 Gap=     0.245 Goal=   None    Shift=    0.000
 RMSDP=5.57D-05 MaxDP=1.88D-03 DE=-2.18D-03 OVMax= 5.24D-03

 Cycle   6  Pass 1  IDiag  1:
 RMSU=  3.59D-05    CP:  9.91D-01  1.34D+00  9.12D-01  8.32D-01  1.10D+00
 E= -1028.79151550274     Delta-E=       -0.000128957406 Rises=F Damp=F
 DIIS: error= 2.68D-04 at cycle   6 NSaved=   6.
 NSaved= 6 IEnMin= 6 EnMin= -1028.79151550274     IErMin= 6 ErrMin= 2.68D-04
 ErrMax= 2.68D-04  0.00D+00 EMaxC= 1.00D-01 BMatC= 1.06D-05 BMatP= 5.80D-05
 IDIUse=3 WtCom= 9.97D-01 WtEn= 2.68D-03
 Coeff-Com:  0.164D-01-0.338D-01-0.614D-01-0.735D-01 0.204D+00 0.948D+00
 Coeff-En:   0.000D+00 0.000D+00 0.000D+00 0.000D+00 0.000D+00 0.100D+01
 Coeff:      0.164D-01-0.337D-01-0.612D-01-0.733D-01 0.203D+00 0.948D+00
 Gap=     0.245 Goal=   None    Shift=    0.000
 RMSDP=3.54D-05 MaxDP=1.70D-03 DE=-1.29D-04 OVMax= 4.68D-03

 Cycle   7  Pass 1  IDiag  1:
 RMSU=  1.73D-05    CP:  9.91D-01  1.34D+00  9.23D-01  8.64D-01  1.29D+00
                    CP:  1.34D+00
 E= -1028.79155151207     Delta-E=       -0.000036009326 Rises=F Damp=F
 DIIS: error= 1.19D-04 at cycle   7 NSaved=   7.
 NSaved= 7 IEnMin= 7 EnMin= -1028.79155151207     IErMin= 7 ErrMin= 1.19D-04
 ErrMax= 1.19D-04  0.00D+00 EMaxC= 1.00D-01 BMatC= 2.42D-06 BMatP= 1.06D-05
 IDIUse=3 WtCom= 9.99D-01 WtEn= 1.19D-03
 Coeff-Com:  0.669D-02-0.127D-01-0.269D-01-0.486D-01-0.233D-01 0.399D+00
 Coeff-Com:  0.706D+00
 Coeff-En:   0.000D+00 0.000D+00 0.000D+00 0.000D+00 0.000D+00 0.000D+00
 Coeff-En:   0.100D+01
 Coeff:      0.668D-02-0.127D-01-0.269D-01-0.486D-01-0.233D-01 0.398D+00
 Coeff:      0.706D+00
 Gap=     0.246 Goal=   None    Shift=    0.000
 RMSDP=1.23D-05 MaxDP=5.26D-04 DE=-3.60D-05 OVMax= 1.37D-03

 Cycle   8  Pass 1  IDiag  1:
 RMSU=  7.57D-06    CP:  9.91D-01  1.34D+00  9.25D-01  8.70D-01  1.33D+00
                    CP:  1.55D+00  1.15D+00
 E= -1028.79155756100     Delta-E=       -0.000006048932 Rises=F Damp=F
 DIIS: error= 6.54D-05 at cycle   8 NSaved=   8.
 NSaved= 8 IEnMin= 8 EnMin= -1028.79155756100     IErMin= 8 ErrMin= 6.54D-05
 ErrMax= 6.54D-05  0.00D+00 EMaxC= 1.00D-01 BMatC= 3.42D-07 BMatP= 2.42D-06
 IDIUse=1 WtCom= 1.00D+00 WtEn= 0.00D+00
 Coeff-Com: -0.160D-02 0.347D-02 0.671D-02 0.333D-02-0.457D-01-0.103D+00
 Coeff-Com:  0.164D+00 0.972D+00
 Coeff:     -0.160D-02 0.347D-02 0.671D-02 0.333D-02-0.457D-01-0.103D+00
 Coeff:      0.164D+00 0.972D+00
 Gap=     0.246 Goal=   None    Shift=    0.000
 RMSDP=7.85D-06 MaxDP=2.21D-04 DE=-6.05D-06 OVMax= 1.37D-03

 Cycle   9  Pass 1  IDiag  1:
 RMSU=  2.97D-06    CP:  9.91D-01  1.34D+00  9.25D-01  8.71D-01  1.35D+00
                    CP:  1.67D+00  1.44D+00  1.24D+00
 E= -1028.79155934090     Delta-E=       -0.000001779902 Rises=F Damp=F
 DIIS: error= 2.17D-05 at cycle   9 NSaved=   9.
 NSaved= 9 IEnMin= 9 EnMin= -1028.79155934090     IErMin= 9 ErrMin= 2.17D-05
 ErrMax= 2.17D-05  0.00D+00 EMaxC= 1.00D-01 BMatC= 8.91D-08 BMatP= 3.42D-07
 IDIUse=1 WtCom= 1.00D+00 WtEn= 0.00D+00
 Coeff-Com: -0.130D-02 0.256D-02 0.578D-02 0.783D-02-0.106D-01-0.882D-01
 Coeff-Com: -0.885D-01 0.298D+00 0.874D+00
 Coeff:     -0.130D-02 0.256D-02 0.578D-02 0.783D-02-0.106D-01-0.882D-01
 Coeff:     -0.885D-01 0.298D+00 0.874D+00
 Gap=     0.246 Goal=   None    Shift=    0.000
 RMSDP=3.86D-06 MaxDP=1.07D-04 DE=-1.78D-06 OVMax= 5.99D-04

 Cycle  10  Pass 1  IDiag  1:
 RMSU=  1.47D-06    CP:  9.91D-01  1.34D+00  9.25D-01  8.71D-01  1.36D+00
                    CP:  1.73D+00  1.55D+00  1.51D+00  1.29D+00
 E= -1028.79155971114     Delta-E=       -0.000000370237 Rises=F Damp=F
 DIIS: error= 1.06D-05 at cycle  10 NSaved=  10.
 NSaved=10 IEnMin=10 EnMin= -1028.79155971114     IErMin=10 ErrMin= 1.06D-05
 ErrMax= 1.06D-05  0.00D+00 EMaxC= 1.00D-01 BMatC= 2.06D-08 BMatP= 8.91D-08
 IDIUse=1 WtCom= 1.00D+00 WtEn= 0.00D+00
 Coeff-Com:  0.497D-04-0.171D-03 0.199D-03 0.156D-02 0.748D-02-0.445D-02
 Coeff-Com: -0.847D-01-0.955D-01 0.351D+00 0.825D+00
 Coeff:      0.497D-04-0.171D-03 0.199D-03 0.156D-02 0.748D-02-0.445D-02
 Coeff:     -0.847D-01-0.955D-01 0.351D+00 0.825D+00
 Gap=     0.246 Goal=   None    Shift=    0.000
 RMSDP=1.72D-06 MaxDP=5.18D-05 DE=-3.70D-07 OVMax= 3.16D-04

 Cycle  11  Pass 1  IDiag  1:
 RMSU=  5.73D-07    CP:  9.91D-01  1.34D+00  9.25D-01  8.71D-01  1.36D+00
                    CP:  1.75D+00  1.59D+00  1.61D+00  1.60D+00  1.12D+00
 E= -1028.79155979232     Delta-E=       -0.000000081185 Rises=F Damp=F
 DIIS: error= 3.25D-06 at cycle  11 NSaved=  11.
 NSaved=11 IEnMin=11 EnMin= -1028.79155979232     IErMin=11 ErrMin= 3.25D-06
 ErrMax= 3.25D-06  0.00D+00 EMaxC= 1.00D-01 BMatC= 4.57D-09 BMatP= 2.06D-08
 IDIUse=1 WtCom= 1.00D+00 WtEn= 0.00D+00
 Coeff-Com:  0.288D-03-0.597D-03-0.102D-02-0.946D-03 0.526D-02 0.159D-01
 Coeff-Com: -0.210D-01-0.890D-01-0.469D-01 0.311D+00 0.827D+00
 Coeff:      0.288D-03-0.597D-03-0.102D-02-0.946D-03 0.526D-02 0.159D-01
 Coeff:     -0.210D-01-0.890D-01-0.469D-01 0.311D+00 0.827D+00
 Gap=     0.246 Goal=   None    Shift=    0.000
 RMSDP=8.00D-07 MaxDP=2.03D-05 DE=-8.12D-08 OVMax= 1.28D-04

 Cycle  12  Pass 1  IDiag  1:
 RMSU=  2.54D-07    CP:  9.91D-01  1.34D+00  9.25D-01  8.71D-01  1.36D+00
                    CP:  1.76D+00  1.60D+00  1.65D+00  1.74D+00  1.39D+00
                    CP:  1.13D+00
 E= -1028.79155980663     Delta-E=       -0.000000014302 Rises=F Damp=F
 DIIS: error= 1.67D-06 at cycle  12 NSaved=  12.
 NSaved=12 IEnMin=12 EnMin= -1028.79155980663     IErMin=12 ErrMin= 1.67D-06
 ErrMax= 1.67D-06  0.00D+00 EMaxC= 1.00D-01 BMatC= 7.32D-10 BMatP= 4.57D-09
 IDIUse=1 WtCom= 1.00D+00 WtEn= 0.00D+00
 Coeff-Com:  0.134D-03-0.261D-03-0.536D-03-0.886D-03 0.968D-03 0.893D-02
 Coeff-Com:  0.713D-02-0.156D-01-0.970D-01-0.350D-01 0.328D+00 0.804D+00
 Coeff:      0.134D-03-0.261D-03-0.536D-03-0.886D-03 0.968D-03 0.893D-02
 Coeff:      0.713D-02-0.156D-01-0.970D-01-0.350D-01 0.328D+00 0.804D+00
 Gap=     0.246 Goal=   None    Shift=    0.000
 RMSDP=2.93D-07 MaxDP=9.21D-06 DE=-1.43D-08 OVMax= 4.88D-05

 Cycle  13  Pass 1  IDiag  1:
 RMSU=  9.87D-08    CP:  9.91D-01  1.34D+00  9.25D-01  8.71D-01  1.36D+00
                    CP:  1.76D+00  1.60D+00  1.67D+00  1.79D+00  1.48D+00
                    CP:  1.35D+00  1.04D+00
 E= -1028.79155980884     Delta-E=       -0.000000002209 Rises=F Damp=F
 DIIS: error= 4.44D-07 at cycle  13 NSaved=  13.
 NSaved=13 IEnMin=13 EnMin= -1028.79155980884     IErMin=13 ErrMin= 4.44D-07
 ErrMax= 4.44D-07  0.00D+00 EMaxC= 1.00D-01 BMatC= 8.71D-11 BMatP= 7.32D-10
 IDIUse=1 WtCom= 1.00D+00 WtEn= 0.00D+00
 Coeff-Com: -0.320D-05 0.102D-04-0.453D-05-0.125D-03-0.351D-03 0.675D-03
 Coeff-Com:  0.375D-02 0.732D-02-0.227D-01-0.484D-01-0.341D-01 0.237D+00
 Coeff-Com:  0.857D+00
 Coeff:     -0.320D-05 0.102D-04-0.453D-05-0.125D-03-0.351D-03 0.675D-03
 Coeff:      0.375D-02 0.732D-02-0.227D-01-0.484D-01-0.341D-01 0.237D+00
 Coeff:      0.857D+00
 Gap=     0.246 Goal=   None    Shift=    0.000
 RMSDP=1.04D-07 MaxDP=2.35D-06 DE=-2.21D-09 OVMax= 1.40D-05

 Cycle  14  Pass 1  IDiag  1:
 RMSU=  3.84D-08    CP:  9.91D-01  1.34D+00  9.25D-01  8.71D-01  1.36D+00
                    CP:  1.76D+00  1.60D+00  1.67D+00  1.80D+00  1.51D+00
                    CP:  1.42D+00  1.20D+00  1.09D+00
 E= -1028.79155980905     Delta-E=       -0.000000000219 Rises=F Damp=F
 DIIS: error= 2.28D-07 at cycle  14 NSaved=  14.
 NSaved=14 IEnMin=14 EnMin= -1028.79155980905     IErMin=14 ErrMin= 2.28D-07
 ErrMax= 2.28D-07  0.00D+00 EMaxC= 1.00D-01 BMatC= 1.30D-11 BMatP= 8.71D-11
 IDIUse=1 WtCom= 1.00D+00 WtEn= 0.00D+00
 Coeff-Com: -0.149D-04 0.306D-04 0.545D-04 0.430D-04-0.228D-03-0.595D-03
 Coeff-Com:  0.593D-03 0.511D-02 0.170D-02-0.137D-01-0.502D-01 0.649D-02
 Coeff-Com:  0.346D+00 0.704D+00
 Coeff:     -0.149D-04 0.306D-04 0.545D-04 0.430D-04-0.228D-03-0.595D-03
 Coeff:      0.593D-03 0.511D-02 0.170D-02-0.137D-01-0.502D-01 0.649D-02
 Coeff:      0.346D+00 0.704D+00
 Gap=     0.246 Goal=   None    Shift=    0.000
 RMSDP=2.34D-08 MaxDP=5.64D-07 DE=-2.19D-10 OVMax= 2.65D-06

 Cycle  15  Pass 1  IDiag  1:
 RMSU=  1.51D-08    CP:  9.91D-01  1.34D+00  9.25D-01  8.71D-01  1.36D+00
                    CP:  1.76D+00  1.60D+00  1.67D+00  1.81D+00  1.52D+00
                    CP:  1.42D+00  1.23D+00  1.22D+00  1.00D+00
 E= -1028.79155980906     Delta-E=       -0.000000000011 Rises=F Damp=F
 DIIS: error= 7.33D-08 at cycle  15 NSaved=  15.
 NSaved=15 IEnMin=15 EnMin= -1028.79155980906     IErMin=15 ErrMin= 7.33D-08
 ErrMax= 7.33D-08  0.00D+00 EMaxC= 1.00D-01 BMatC= 1.58D-12 BMatP= 1.30D-11
 IDIUse=1 WtCom= 1.00D+00 WtEn= 0.00D+00
 Coeff-Com: -0.429D-05 0.799D-05 0.196D-04 0.422D-04-0.124D-04-0.364D-03
 Coeff-Com: -0.768D-03 0.648D-04 0.521D-02 0.702D-02-0.737D-02-0.514D-01
 Coeff-Com: -0.679D-01 0.200D+00 0.915D+00
 Coeff:     -0.429D-05 0.799D-05 0.196D-04 0.422D-04-0.124D-04-0.364D-03
 Coeff:     -0.768D-03 0.648D-04 0.521D-02 0.702D-02-0.737D-02-0.514D-01
 Coeff:     -0.679D-01 0.200D+00 0.915D+00
 Gap=     0.246 Goal=   None    Shift=    0.000
 RMSDP=1.23D-08 MaxDP=2.63D-07 DE=-1.09D-11 OVMax= 1.49D-06

 Cycle  16  Pass 1  IDiag  1:
 RMSU=  5.53D-09    CP:  9.91D-01  1.34D+00  9.25D-01  8.71D-01  1.36D+00
                    CP:  1.76D+00  1.60D+00  1.67D+00  1.81D+00  1.52D+00
                    CP:  1.43D+00  1.25D+00  1.28D+00  1.18D+00  1.15D+00
 E= -1028.79155980908     Delta-E=       -0.000000000014 Rises=F Damp=F
 DIIS: error= 2.91D-08 at cycle  16 NSaved=  16.
 NSaved=16 IEnMin=16 EnMin= -1028.79155980908     IErMin=16 ErrMin= 2.91D-08
 ErrMax= 2.91D-08  0.00D+00 EMaxC= 1.00D-01 BMatC= 1.72D-13 BMatP= 1.58D-12
 IDIUse=1 WtCom= 1.00D+00 WtEn= 0.00D+00
 Coeff-Com:  0.780D-07-0.351D-06 0.585D-06 0.766D-05 0.121D-04-0.517D-04
 Coeff-Com: -0.250D-03-0.389D-03 0.104D-02 0.281D-02 0.240D-02-0.158D-01
 Coeff-Com: -0.475D-01-0.257D-01 0.221D+00 0.862D+00
 Coeff:      0.780D-07-0.351D-06 0.585D-06 0.766D-05 0.121D-04-0.517D-04
 Coeff:     -0.250D-03-0.389D-03 0.104D-02 0.281D-02 0.240D-02-0.158D-01
 Coeff:     -0.475D-01-0.257D-01 0.221D+00 0.862D+00
 Gap=     0.246 Goal=   None    Shift=    0.000
 RMSDP=4.57D-09 MaxDP=1.30D-07 DE=-1.36D-11 OVMax= 5.73D-07

 Error on total polarization charges =  0.00831
 SCF Done:  E(RwB97XD) =  -1028.79155981     A.U. after   16 cycles
            NFock= 16  Conv=0.46D-08     -V/T= 2.0051
 KE= 1.023604191175D+03 PE=-4.614550167370D+03 EE= 1.460775016897D+03
 Leave Link  502 at Tue Jul 14 16:07:02 2020, MaxMem=  7784628224 cpu:             875.6 elap:              88.3
 (Enter /gpfs/loomis/apps/avx/software/Gaussian/16-C.01_AVX/g16/l801.exe)
 DoSCS=F DFT=T ScalE2(SS,OS)=  1.000000  1.000000
 ExpMin= 1.22D-01 ExpMax= 1.11D+05 ExpMxC= 1.07D+03 IAcc=3 IRadAn=         5 AccDes= 0.00D+00
 HarFok:  IExCor=  205 AccDes= 0.00D+00 IRadAn=         5 IDoV=-2 UseB2=F ITyADJ=14
 ICtDFT= 12500011 ScaDFX=  1.000000  1.000000  1.000000  1.000000
 Largest valence mixing into a core orbital is  9.39D-05
 Largest core mixing into a valence orbital is  3.22D-05
 Range of M.O.s used for correlation:    21   273
 NBasis=   273 NAE=    59 NBE=    59 NFC=    20 NFV=     0
 NROrb=    253 NOA=    39 NOB=    39 NVA=   214 NVB=   214

 **** Warning!!: The largest alpha MO coefficient is  0.11244950D+02

 Leave Link  801 at Tue Jul 14 16:07:02 2020, MaxMem=  7784628224 cpu:               1.0 elap:               0.1
 (Enter /gpfs/loomis/apps/avx/software/Gaussian/16-C.01_AVX/g16/l914.exe)
 RHF ground state
 Keep R1, R2, and R3 ints in memory in canonical form, NReq=4262515490.
 FoFCou: FMM=F IPFlag=           0 FMFlag=           0 FMFlg1=           0
         NFxFlg=           0 DoJE=F BraDBF=F KetDBF=F FulRan=T
         wScrn=  0.000000 ICntrl=       600 IOpCl=  0 I1Cent=           0 NGrid=           0
         NMat0=    1 NMatS0=  37401 NMatT0=    0 NMatD0=    1 NMtDS0=    0 NMtDT0=    0
 Symmetry not used in FoFCou.
 Two-electron integral symmetry not used.
 MDV=  7784628224 DFT=T DoStab=F Mixed=T DoRPA=T DoScal=F NonHer=T
 NEqPCM:  Using equilibrium solvation (IEInf=0, Eps=   2.2280, EpsInf=   2.1319)
 Making orbital integer symmetry assigments:
    12 initial guesses have been made.
 Convergence on wavefunction:    0.000001000000000
 Davidson Disk Diagonalization:  ConvIn= 1.00D-06 SkipCon=T Conv= 1.00D-06.
 Max sub-space:  2000 roots to seek:    12 dimension of matrix:        16692
 Iteration     1 Dimension    12 NMult     0 NNew     12
 CISAX will form    12 AO SS matrices at one time.
 NMat=    12 NSing=    12 JSym2X= 0.
 New state      2 was old state      4
 New state      3 was old state      2
 Excitation Energies [eV] at current iteration:
 Root      1 :     3.537781617896062
 Root      2 :     4.144236932635297
 Root      3 :     4.856828593909078
 Root      4 :     5.286675854189808
 Root      5 :     5.591290300543590
 Root      6 :     5.757673721455641
 Root      7 :     6.022491266211991
 Root      8 :     6.458713312153245
 Root      9 :     6.812152579757941
 Root     10 :     6.922284083361278
 Root     11 :     7.125127564990290
 Root     12 :     7.492875118919035
 Iteration     2 Dimension    18 NMult    12 NNew      6
 CISAX will form     6 AO SS matrices at one time.
 NMat=     6 NSing=     6 JSym2X= 0.
 Root      1 not converged, maximum delta is    0.044748896785986
 Root      2 not converged, maximum delta is    0.105582035722168
 Root      3 not converged, maximum delta is    0.058537488264667
 Excitation Energies [eV] at current iteration:
 Root      1 :     3.028567812864051   Change is   -0.509213805032010
 Root      2 :     3.940799594994878   Change is   -0.203437337640419
 Root      3 :     4.307682260085934   Change is   -0.549146333823144
 Iteration     3 Dimension    24 NMult    18 NNew      6
 CISAX will form     6 AO SS matrices at one time.
 NMat=     6 NSing=     6 JSym2X= 0.
 Root      1 not converged, maximum delta is    0.016716589482912
 Root      2 not converged, maximum delta is    0.031863011303187
 Root      3 not converged, maximum delta is    0.016112953861576
 Excitation Energies [eV] at current iteration:
 Root      1 :     2.997961708984289   Change is   -0.030606103879763
 Root      2 :     3.921159592595882   Change is   -0.019640002398996
 Root      3 :     4.279193620489928   Change is   -0.028488639596006
 Iteration     4 Dimension    30 NMult    24 NNew      6
 CISAX will form     6 AO SS matrices at one time.
 NMat=     6 NSing=     6 JSym2X= 0.
 Root      1 not converged, maximum delta is    0.008400194075514
 Root      2 not converged, maximum delta is    0.011129317785467
 Root      3 not converged, maximum delta is    0.018620678417005
 Excitation Energies [eV] at current iteration:
 Root      1 :     2.992668321600983   Change is   -0.005293387383306
 Root      2 :     3.919200706096291   Change is   -0.001958886499591
 Root      3 :     4.271960331078936   Change is   -0.007233289410992
 Iteration     5 Dimension    36 NMult    30 NNew      6
 CISAX will form     6 AO SS matrices at one time.
 NMat=     6 NSing=     6 JSym2X= 0.
 Root      1 not converged, maximum delta is    0.002212140902180
 Root      2 not converged, maximum delta is    0.001807690963510
 Root      3 not converged, maximum delta is    0.009126340596700
 Excitation Energies [eV] at current iteration:
 Root      1 :     2.992111371525527   Change is   -0.000556950075456
 Root      2 :     3.919054558724684   Change is   -0.000146147371607
 Root      3 :     4.270547750357516   Change is   -0.001412580721420
 Iteration     6 Dimension    42 NMult    36 NNew      6
 CISAX will form     6 AO SS matrices at one time.
 NMat=     6 NSing=     6 JSym2X= 0.
 Root      1 not converged, maximum delta is    0.000530498592450
 Root      2 not converged, maximum delta is    0.000333976604507
 Root      3 not converged, maximum delta is    0.003145159112949
 Excitation Energies [eV] at current iteration:
 Root      1 :     2.992058701009423   Change is   -0.000052670516105
 Root      2 :     3.919046491649868   Change is   -0.000008067074816
 Root      3 :     4.270316254543749   Change is   -0.000231495813767
 Iteration     7 Dimension    48 NMult    42 NNew      6
 CISAX will form     6 AO SS matrices at one time.
 NMat=     6 NSing=     6 JSym2X= 0.
 Root      1 not converged, maximum delta is    0.000116772905813
 Root      2 not converged, maximum delta is    0.000136642173072
 Root      3 not converged, maximum delta is    0.000552058477478
 Excitation Energies [eV] at current iteration:
 Root      1 :     2.992055651220217   Change is   -0.000003049789205
 Root      2 :     3.919045782117790   Change is   -0.000000709532078
 Root      3 :     4.270291448630314   Change is   -0.000024805913435
 Iteration     8 Dimension    54 NMult    48 NNew      6
 CISAX will form     6 AO SS matrices at one time.
 NMat=     6 NSing=     6 JSym2X= 0.
 Root      1 not converged, maximum delta is    0.000030860843267
 Root      2 not converged, maximum delta is    0.000022070685638
 Root      3 not converged, maximum delta is    0.000111269289063
 Excitation Energies [eV] at current iteration:
 Root      1 :     2.992055437190879   Change is   -0.000000214029339
 Root      2 :     3.919045738594065   Change is   -0.000000043523725
 Root      3 :     4.270289386813467   Change is   -0.000002061816847
 Iteration     9 Dimension    60 NMult    54 NNew      6
 CISAX will form     6 AO SS matrices at one time.
 NMat=     6 NSing=     6 JSym2X= 0.
 Root      1 not converged, maximum delta is    0.000012742487207
 Root      2 not converged, maximum delta is    0.000002947407590
 Root      3 not converged, maximum delta is    0.000047133604086
 Excitation Energies [eV] at current iteration:
 Root      1 :     2.992055420949947   Change is   -0.000000016240931
 Root      2 :     3.919045736533153   Change is   -0.000000002060912
 Root      3 :     4.270289202340901   Change is   -0.000000184472565
 Iteration    10 Dimension    66 NMult    60 NNew      6
 CISAX will form     6 AO SS matrices at one time.
 NMat=     6 NSing=     6 JSym2X= 0.
 Root      1 not converged, maximum delta is    0.000002785179258
 Root      2 not converged, maximum delta is    0.000001563338276
 Root      3 not converged, maximum delta is    0.000016689977136
 Excitation Energies [eV] at current iteration:
 Root      1 :     2.992055419393638   Change is   -0.000000001556309
 Root      2 :     3.919045736404798   Change is   -0.000000000128355
 Root      3 :     4.270289187261060   Change is   -0.000000015079842
 Iteration    11 Dimension    72 NMult    66 NNew      6
 CISAX will form     6 AO SS matrices at one time.
 NMat=     6 NSing=     6 JSym2X= 0.
 Root      1 has converged.
 Root      2 has converged.
 Root      3 not converged, maximum delta is    0.000008205476297
 Excitation Energies [eV] at current iteration:
 Root      1 :     2.992055419317422   Change is   -0.000000000076216
 Root      2 :     3.919045736388018   Change is   -0.000000000016781
 Root      3 :     4.270289185434714   Change is   -0.000000001826346
 Iteration    12 Dimension    74 NMult    72 NNew      2
 CISAX will form     2 AO SS matrices at one time.
 NMat=     2 NSing=     2 JSym2X= 0.
 Root      1 has converged.
 Root      2 has converged.
 Root      3 not converged, maximum delta is    0.000001851797157
 Excitation Energies [eV] at current iteration:
 Root      1 :     2.992055419316433   Change is   -0.000000000000989
 Root      2 :     3.919045736387996   Change is   -0.000000000000021
 Root      3 :     4.270289185275623   Change is   -0.000000000159091
 Iteration    13 Dimension    76 NMult    74 NNew      2
 CISAX will form     2 AO SS matrices at one time.
 NMat=     2 NSing=     2 JSym2X= 0.
 Root      1 has converged.
 Root      2 has converged.
 Root      3 has converged.
 Excitation Energies [eV] at current iteration:
 Root      1 :     2.992055419316488   Change is    0.000000000000055
 Root      2 :     3.919045736388102   Change is    0.000000000000105
 Root      3 :     4.270289185261685   Change is   -0.000000000013938
 Convergence achieved on expansion vectors.
 ***********************************************************************
 Excited states from <AA,BB:AA,BB> singles matrix:
 ***********************************************************************
 
 1PDM for each excited state written to RWF  633
 Ground to excited state transition densities written to RWF  633
 Ground to excited state transition electric dipole moments (Au):
       state          X           Y           Z        Dip. S.      Osc.
         1         1.2113     -2.1400     -0.0000      6.0468      0.4433
         2         0.0000      0.0000      0.0031      0.0000      0.0000
         3        -1.4636      0.8523      0.0000      2.8684      0.3001
 Ground to excited state transition velocity dipole moments (Au):
       state          X           Y           Z        Dip. S.      Osc.
         1        -0.1297      0.2395      0.0000      0.0742      0.4497
         2        -0.0000     -0.0000      0.0010      0.0000      0.0000
         3         0.2255     -0.1254     -0.0000      0.0666      0.2828
 Ground to excited state transition magnetic dipole moments (Au):
       state          X           Y           Z
         1         0.0000      0.0000     -0.9483
         2         0.2737      0.0268      0.0000
         3        -0.0000     -0.0000     -1.3370
 Ground to excited state transition velocity quadrupole moments (Au):
       state          XX          YY          ZZ          XY          XZ          YZ
         1         0.0901      0.6063     -0.0147     -0.2898     -0.0000      0.0000
         2         0.0000     -0.0000      0.0000      0.0000     -0.0130      0.0130
         3        -0.5366      0.6637      0.0056      0.0393      0.0000      0.0000
 <0|del|b> * <b|rxdel|0> + <0|del|b> * <b|delr+rdel|0>
 Rotatory Strengths (R) in cgs (10**-40 erg-esu-cm/Gauss)
       state          XX          YY          ZZ    R(velocity)    E-M Angle
         1         0.0016     -0.0151      0.0136      0.0000       90.00
         2        -0.0001     -0.0038     -0.0036     -0.0025       90.00
         3         0.0094      0.0094     -0.0042      0.0049       90.00
 1/2[<0|r|b>*<b|rxdel|0> + (<0|rxdel|b>*<b|r|0>)*]
 Rotatory Strengths (R) in cgs (10**-40 erg-esu-cm/Gauss)
       state          XX          YY          ZZ     R(length)
         1        -0.0055      0.0270     -0.0229     -0.0005
         2        -0.0073     -0.0002     -0.0001     -0.0025
         3        -0.0006      0.0005      0.0154      0.0051
  1/2[<0|del|b>*<b|r|0> + (<0|r|b>*<b|del|0>)*] (Au)
       state          X           Y           Z        Dip. S.   Osc.(frdel)
         1        -0.1571     -0.5125     -0.0000      0.6696      0.4464
         2        -0.0000     -0.0000      0.0000     -0.0000     -0.0000
         3        -0.3300     -0.1069     -0.0000      0.4369      0.2913

 Excitation energies and oscillator strengths:
 
 Excited state symmetry could not be determined.
 Excited State   1:      Singlet-?Sym    2.9921 eV  414.38 nm  f=0.4433  <S**2>=0.000
      59 -> 60         0.69601
 This state for optimization and/or second-order correction.
 Total Energy, E(TD-HF/TD-DFT) =  -1028.68160380    
 Copying the excited state density for this state as the 1-particle RhoCI density.
 
 Excited state symmetry could not be determined.
 Excited State   2:      Singlet-?Sym    3.9190 eV  316.36 nm  f=0.0000  <S**2>=0.000
      57 -> 60         0.68496
      57 -> 62         0.11255
      57 -> 64         0.11683
 
 Excited state symmetry could not be determined.
 Excited State   3:      Singlet-?Sym    4.2703 eV  290.34 nm  f=0.3001  <S**2>=0.000
      58 -> 60         0.68198
 SavETr:  write IOETrn=   770 NScale= 10 NData=  16 NLR=1 NState=    3 LETran=      64.
 The selected state is a singlet.
 CISGrd: IGrad=2 NXY=2 DFT=T
 CISAX will form     1 AO SS matrices at one time.
 NMat=     1 NSing=     1 JSym2X= 0.
 GePol: Maximum number of non-zero 1st derivatives   =     240
 Leave Link  914 at Tue Jul 14 16:10:00 2020, MaxMem=  7784628224 cpu:            1758.3 elap:             178.5
 (Enter /gpfs/loomis/apps/avx/software/Gaussian/16-C.01_AVX/g16/l1002.exe)
 Minotr:  Closed shell wavefunction.
          Computing CIS/TDA/TD derivatives.
          Using Z-Vector for PSCF gradient.
          Skipping F1 and S1 gradient terms here.
          IDoAtm=1111111111111111111111111
 NEqPCM:  Using equilibrium solvation (IEInf=0, Eps=   2.2280, EpsInf=   2.1319)
          Frozen-core window.
          Direct CPHF calculation.
          Differentiating once with respect to electric field.
                with respect to dipole field.
          Differentiating once with respect to nuclear coordinates.
          Requested convergence is 1.0D-10 RMS, and 1.0D-09 maximum.
          NewPWx=F KeepS1=T KeepF1=T KeepIn=T MapXYZ=F SortEE=F KeepMc=T.
 Keep R1 ints in memory in canonical form, NReq=1421356584.
 FoFCou: FMM=F IPFlag=           0 FMFlag=           0 FMFlg1=           0
         NFxFlg=           0 DoJE=F BraDBF=F KetDBF=F FulRan=T
         wScrn=  0.000000 ICntrl=       600 IOpCl=  0 I1Cent=           0 NGrid=           0
         NMat0=    1 NMatS0=  37401 NMatT0=    0 NMatD0=    1 NMtDS0=    0 NMtDT0=    0
 Symmetry not used in FoFCou.
 Two-electron integral symmetry not used.
          MDV=    7784628224 using IRadAn=       5.
          Solving linear equations separately, MaxMat=       0.
          There are     1 degrees of freedom in the 1st order CPHF.  IDoFFX=0 NUNeed=     1.
 LinEq1:  Iter=  0 NonCon=     1 RMS=6.39D-03 Max=4.47D-01 NDo=     1
 AX will form     1 AO Fock derivatives at one time.
 LinEq1:  Iter=  1 NonCon=     1 RMS=2.88D-03 Max=1.63D-01 NDo=     1
 LinEq1:  Iter=  2 NonCon=     1 RMS=1.67D-03 Max=4.86D-02 NDo=     1
 LinEq1:  Iter=  3 NonCon=     1 RMS=6.94D-04 Max=1.77D-02 NDo=     1
 LinEq1:  Iter=  4 NonCon=     1 RMS=3.90D-04 Max=1.34D-02 NDo=     1
 LinEq1:  Iter=  5 NonCon=     1 RMS=1.97D-04 Max=6.97D-03 NDo=     1
 LinEq1:  Iter=  6 NonCon=     1 RMS=8.26D-05 Max=3.09D-03 NDo=     1
 LinEq1:  Iter=  7 NonCon=     1 RMS=4.39D-05 Max=1.50D-03 NDo=     1
 LinEq1:  Iter=  8 NonCon=     1 RMS=1.65D-05 Max=5.05D-04 NDo=     1
 LinEq1:  Iter=  9 NonCon=     1 RMS=9.22D-06 Max=2.78D-04 NDo=     1
 LinEq1:  Iter= 10 NonCon=     1 RMS=3.43D-06 Max=9.99D-05 NDo=     1
 LinEq1:  Iter= 11 NonCon=     1 RMS=2.04D-06 Max=8.90D-05 NDo=     1
 LinEq1:  Iter= 12 NonCon=     1 RMS=1.03D-06 Max=3.52D-05 NDo=     1
 LinEq1:  Iter= 13 NonCon=     1 RMS=4.26D-07 Max=1.04D-05 NDo=     1
 LinEq1:  Iter= 14 NonCon=     1 RMS=1.65D-07 Max=5.29D-06 NDo=     1
 LinEq1:  Iter= 15 NonCon=     1 RMS=8.89D-08 Max=2.55D-06 NDo=     1
 LinEq1:  Iter= 16 NonCon=     1 RMS=3.62D-08 Max=1.28D-06 NDo=     1
 LinEq1:  Iter= 17 NonCon=     1 RMS=1.61D-08 Max=5.13D-07 NDo=     1
 LinEq1:  Iter= 18 NonCon=     1 RMS=6.73D-09 Max=1.53D-07 NDo=     1
 LinEq1:  Iter= 19 NonCon=     1 RMS=3.20D-09 Max=1.14D-07 NDo=     1
 LinEq1:  Iter= 20 NonCon=     1 RMS=1.50D-09 Max=3.75D-08 NDo=     1
 LinEq1:  Iter= 21 NonCon=     1 RMS=4.45D-10 Max=1.37D-08 NDo=     1
 LinEq1:  Iter= 22 NonCon=     1 RMS=1.88D-10 Max=5.41D-09 NDo=     1
 LinEq1:  Iter= 23 NonCon=     1 RMS=8.20D-11 Max=1.63D-09 NDo=     1
 LinEq1:  Iter= 24 NonCon=     0 RMS=2.60D-11 Max=7.53D-10 NDo=     1
 Linear equations converged to 1.000D-10 1.000D-09 after    24 iterations.
 End of Minotr F.D. properties file   721 does not exist.
 End of Minotr F.D. properties file   722 does not exist.
 End of Minotr F.D. properties file   788 does not exist.
 Leave Link 1002 at Tue Jul 14 16:11:39 2020, MaxMem=  7784628224 cpu:             736.0 elap:              98.7
 (Enter /gpfs/loomis/apps/avx/software/Gaussian/16-C.01_AVX/g16/l601.exe)
 Copying SCF densities to generalized density rwf, IOpCl= 0 IROHF=0.

 **********************************************************************

            Population analysis using the SCF Density.

 **********************************************************************

 Alpha  occ. eigenvalues --  -89.09883 -19.21752 -14.51587 -10.41054 -10.38170
 Alpha  occ. eigenvalues --  -10.36238 -10.36107 -10.33382 -10.33331 -10.32695
 Alpha  occ. eigenvalues --  -10.32541 -10.31958 -10.31492 -10.30692 -10.29815
 Alpha  occ. eigenvalues --  -10.29283  -8.12040  -6.06885  -6.06532  -6.06068
 Alpha  occ. eigenvalues --   -1.12931  -1.09462  -0.97992  -0.95893  -0.93145
 Alpha  occ. eigenvalues --   -0.89014  -0.86582  -0.83338  -0.81659  -0.76084
 Alpha  occ. eigenvalues --   -0.72799  -0.71821  -0.68242  -0.67750  -0.65150
 Alpha  occ. eigenvalues --   -0.60890  -0.59448  -0.57036  -0.55552  -0.55278
 Alpha  occ. eigenvalues --   -0.54697  -0.53969  -0.52877  -0.50189  -0.49442
 Alpha  occ. eigenvalues --   -0.48894  -0.48300  -0.46783  -0.45185  -0.45033
 Alpha  occ. eigenvalues --   -0.44107  -0.43286  -0.42263  -0.40344  -0.36646
 Alpha  occ. eigenvalues --   -0.33292  -0.32720  -0.31285  -0.26556
 Alpha virt. eigenvalues --   -0.01968   0.03730   0.05403   0.06920   0.08752
 Alpha virt. eigenvalues --    0.10512   0.14375   0.14892   0.16908   0.17495
 Alpha virt. eigenvalues --    0.18576   0.20164   0.20936   0.21148   0.22724
 Alpha virt. eigenvalues --    0.23332   0.24052   0.25206   0.27787   0.28108
 Alpha virt. eigenvalues --    0.31633   0.33512   0.35057   0.35218   0.36319
 Alpha virt. eigenvalues --    0.37633   0.38630   0.40551   0.41409   0.43155
 Alpha virt. eigenvalues --    0.47144   0.47284   0.50814   0.51132   0.51443
 Alpha virt. eigenvalues --    0.52207   0.52840   0.53290   0.53838   0.54634
 Alpha virt. eigenvalues --    0.56072   0.56400   0.56647   0.56657   0.57700
 Alpha virt. eigenvalues --    0.57898   0.58491   0.58986   0.59348   0.59865
 Alpha virt. eigenvalues --    0.61185   0.61332   0.61893   0.62671   0.63255
 Alpha virt. eigenvalues --    0.65051   0.66056   0.66899   0.67932   0.68665
 Alpha virt. eigenvalues --    0.70658   0.70782   0.71860   0.72856   0.72909
 Alpha virt. eigenvalues --    0.73883   0.74478   0.75488   0.75687   0.77859
 Alpha virt. eigenvalues --    0.78384   0.79404   0.80207   0.80538   0.82618
 Alpha virt. eigenvalues --    0.84824   0.87361   0.90683   0.91101   0.92973
 Alpha virt. eigenvalues --    0.94186   0.94288   0.96053   0.96329   0.96906
 Alpha virt. eigenvalues --    0.98142   0.98673   1.00397   1.00854   1.01301
 Alpha virt. eigenvalues --    1.02471   1.05083   1.05330   1.06292   1.07233
 Alpha virt. eigenvalues --    1.07710   1.09702   1.09994   1.10026   1.10555
 Alpha virt. eigenvalues --    1.12094   1.12797   1.14182   1.14797   1.15130
 Alpha virt. eigenvalues --    1.16288   1.19662   1.20238   1.22163   1.23512
 Alpha virt. eigenvalues --    1.25369   1.28559   1.31598   1.32780   1.33915
 Alpha virt. eigenvalues --    1.36622   1.36693   1.38915   1.40729   1.46705
 Alpha virt. eigenvalues --    1.48509   1.49921   1.52794   1.54165   1.54383
 Alpha virt. eigenvalues --    1.56330   1.56838   1.56891   1.58133   1.58379
 Alpha virt. eigenvalues --    1.60414   1.60622   1.64559   1.64911   1.66874
 Alpha virt. eigenvalues --    1.66883   1.69140   1.69820   1.70422   1.71234
 Alpha virt. eigenvalues --    1.71342   1.72050   1.73208   1.73485   1.75280
 Alpha virt. eigenvalues --    1.77240   1.79285   1.80022   1.80246   1.81054
 Alpha virt. eigenvalues --    1.82314   1.83479   1.83850   1.84923   1.84954
 Alpha virt. eigenvalues --    1.87103   1.88262   1.88279   1.90969   1.91183
 Alpha virt. eigenvalues --    1.92412   1.93375   1.94220   1.95359   1.96847
 Alpha virt. eigenvalues --    1.97961   1.98714   1.99272   2.02827   2.03308
 Alpha virt. eigenvalues --    2.05948   2.07425   2.09194   2.09935   2.13652
 Alpha virt. eigenvalues --    2.16582   2.17264   2.19934   2.20545   2.22825
 Alpha virt. eigenvalues --    2.25705   2.26047   2.31153   2.35991   2.38907
 Alpha virt. eigenvalues --    2.41406   2.41992   2.45231   2.47094   2.47429
 Alpha virt. eigenvalues --    2.50391   2.51335   2.51426   2.54662   2.60492
 Alpha virt. eigenvalues --    2.61116   2.70372   2.73498   2.74137   2.77250
 Alpha virt. eigenvalues --    2.79606   2.81742   2.84277   2.85125   2.87964
 Alpha virt. eigenvalues --    2.90437   2.99829   3.14880   3.22837   3.42859
 Alpha virt. eigenvalues --    3.46362   3.53503   3.59689   3.73298
          Condensed to atoms (all electrons):
               1          2          3          4          5          6
     1  C    4.744304   0.492010   0.005048  -0.051447  -0.015941   0.510142
     2  C    0.492010   5.291365   0.324262  -0.042991  -0.067927  -0.008443
     3  C    0.005048   0.324262   4.896492   0.497999  -0.004130  -0.061532
     4  C   -0.051447  -0.042991   0.497999   4.794413   0.516296  -0.011241
     5  C   -0.015941  -0.067927  -0.004130   0.516296   4.738381   0.496267
     6  C    0.510142  -0.008443  -0.061532  -0.011241   0.496267   4.738151
     7  H    0.402820  -0.037468   0.008509  -0.000660   0.007740  -0.038805
     8  H   -0.000522   0.010019  -0.033028   0.396738  -0.039278   0.007211
     9  H    0.008839  -0.000698   0.008237  -0.037758   0.404793  -0.044139
    10  H   -0.042351   0.009052  -0.000454   0.007961  -0.041218   0.407023
    11  N    0.004068  -0.038315   0.352334  -0.045299   0.002415   0.000132
    12  S   -0.073091   0.324841  -0.115286   0.005528   0.000276   0.004326
    13  C   -0.000227   0.000813   0.010481  -0.000368   0.000007   0.000004
    14  C   -0.000013   0.000185   0.000496   0.000007  -0.000000  -0.000000
    15  C    0.000005  -0.000279   0.000146   0.000028  -0.000000   0.000000
    16  C    0.000000  -0.000010   0.000004  -0.000000   0.000000  -0.000000
    17  H   -0.000018   0.000307  -0.000004   0.000001  -0.000000   0.000000
    18  C    0.000000   0.000008  -0.000012  -0.000000   0.000000  -0.000000
    19  C   -0.000000   0.000000   0.000001   0.000000  -0.000000   0.000000
    20  H   -0.000000  -0.000000  -0.000000  -0.000000  -0.000000  -0.000000
    21  H   -0.000000  -0.000000  -0.000001  -0.000000  -0.000000   0.000000
    22  H    0.000000  -0.000000  -0.000000  -0.000000   0.000000  -0.000000
    23  C    0.003612  -0.044765  -0.117961   0.000737   0.000239  -0.000236
    24  O    0.000002  -0.000132  -0.000303  -0.000003   0.000000  -0.000000
    25  H    0.000129   0.007932  -0.036125  -0.002700  -0.000053  -0.000006
               7          8          9         10         11         12
     1  C    0.402820  -0.000522   0.008839  -0.042351   0.004068  -0.073091
     2  C   -0.037468   0.010019  -0.000698   0.009052  -0.038315   0.324841
     3  C    0.008509  -0.033028   0.008237  -0.000454   0.352334  -0.115286
     4  C   -0.000660   0.396738  -0.037758   0.007961  -0.045299   0.005528
     5  C    0.007740  -0.039278   0.404793  -0.041218   0.002415   0.000276
     6  C   -0.038805   0.007211  -0.044139   0.407023   0.000132   0.004326
     7  H    0.644939   0.000026  -0.000149  -0.010309  -0.000075  -0.007945
     8  H    0.000026   0.636482  -0.011968  -0.000095  -0.003069  -0.000231
     9  H   -0.000149  -0.011968   0.653628  -0.011622  -0.000087   0.000017
    10  H   -0.010309  -0.000095  -0.011622   0.651709   0.000003  -0.000164
    11  N   -0.000075  -0.003069  -0.000087   0.000003   6.146674  -0.052702
    12  S   -0.007945  -0.000231   0.000017  -0.000164  -0.052702  15.461824
    13  C   -0.000005   0.000023  -0.000000  -0.000000  -0.029021  -0.067387
    14  C    0.000002   0.000000   0.000000  -0.000000   0.003613  -0.015796
    15  C   -0.000000  -0.000004   0.000000   0.000000  -0.008140   0.005742
    16  C    0.000000   0.000000  -0.000000  -0.000000  -0.000063   0.000629
    17  H    0.000000   0.000000   0.000000  -0.000000   0.000226   0.008861
    18  C    0.000000  -0.000000   0.000000  -0.000000  -0.000445  -0.000242
    19  C   -0.000000   0.000000  -0.000000  -0.000000   0.000025   0.000027
    20  H    0.000000   0.000000   0.000000   0.000000   0.000001   0.000021
    21  H   -0.000000   0.000000  -0.000000   0.000000   0.000010   0.000005
    22  H    0.000000  -0.000000   0.000000  -0.000000  -0.000000  -0.000001
    23  C    0.000243  -0.000597   0.000006   0.000006   0.530391   0.314897
    24  O    0.000000  -0.000094   0.000000  -0.000000  -0.056107  -0.000058
    25  H    0.000004   0.000606  -0.000005  -0.000000   0.325309   0.004818
              13         14         15         16         17         18
     1  C   -0.000227  -0.000013   0.000005   0.000000  -0.000018   0.000000
     2  C    0.000813   0.000185  -0.000279  -0.000010   0.000307   0.000008
     3  C    0.010481   0.000496   0.000146   0.000004  -0.000004  -0.000012
     4  C   -0.000368   0.000007   0.000028  -0.000000   0.000001  -0.000000
     5  C    0.000007  -0.000000  -0.000000   0.000000  -0.000000   0.000000
     6  C    0.000004  -0.000000   0.000000  -0.000000   0.000000  -0.000000
     7  H   -0.000005   0.000002  -0.000000   0.000000   0.000000   0.000000
     8  H    0.000023   0.000000  -0.000004   0.000000   0.000000  -0.000000
     9  H   -0.000000   0.000000   0.000000  -0.000000   0.000000   0.000000
    10  H   -0.000000  -0.000000   0.000000  -0.000000  -0.000000  -0.000000
    11  N   -0.029021   0.003613  -0.008140  -0.000063   0.000226  -0.000445
    12  S   -0.067387  -0.015796   0.005742   0.000629   0.008861  -0.000242
    13  C    5.427339   0.425613   0.196892  -0.008697  -0.036326  -0.040384
    14  C    0.425613   4.883443   0.005228   0.537459   0.396404  -0.058617
    15  C    0.196892   0.005228   4.733372  -0.051949   0.005408   0.457498
    16  C   -0.008697   0.537459  -0.051949   4.757074  -0.029950  -0.020297
    17  H   -0.036326   0.396404   0.005408  -0.029950   0.657214  -0.000727
    18  C   -0.040384  -0.058617   0.457498  -0.020297  -0.000727   4.907629
    19  C   -0.053635  -0.020586  -0.004518   0.480823   0.007535   0.503670
    20  H    0.008816  -0.036022  -0.000162   0.400197  -0.011200   0.007868
    21  H    0.014942  -0.000680  -0.026242   0.007370   0.000047   0.374338
    22  H   -0.001738   0.009825   0.008362  -0.045008  -0.000187  -0.040056
    23  C    0.374072  -0.088410  -0.075203   0.005825  -0.023154   0.009977
    24  O   -0.101194   0.006537   0.630584  -0.000167  -0.000070  -0.061773
    25  H   -0.036266  -0.000931  -0.013582   0.000061  -0.000091   0.003333
              19         20         21         22         23         24
     1  C   -0.000000  -0.000000  -0.000000   0.000000   0.003612   0.000002
     2  C    0.000000  -0.000000  -0.000000  -0.000000  -0.044765  -0.000132
     3  C    0.000001  -0.000000  -0.000001  -0.000000  -0.117961  -0.000303
     4  C    0.000000  -0.000000  -0.000000  -0.000000   0.000737  -0.000003
     5  C   -0.000000  -0.000000  -0.000000   0.000000   0.000239   0.000000
     6  C    0.000000  -0.000000   0.000000  -0.000000  -0.000236  -0.000000
     7  H   -0.000000   0.000000  -0.000000   0.000000   0.000243   0.000000
     8  H    0.000000   0.000000   0.000000  -0.000000  -0.000597  -0.000094
     9  H   -0.000000   0.000000  -0.000000   0.000000   0.000006   0.000000
    10  H   -0.000000   0.000000   0.000000  -0.000000   0.000006  -0.000000
    11  N    0.000025   0.000001   0.000010  -0.000000   0.530391  -0.056107
    12  S    0.000027   0.000021   0.000005  -0.000001   0.314897  -0.000058
    13  C   -0.053635   0.008816   0.014942  -0.001738   0.374072  -0.101194
    14  C   -0.020586  -0.036022  -0.000680   0.009825  -0.088410   0.006537
    15  C   -0.004518  -0.000162  -0.026242   0.008362  -0.075203   0.630584
    16  C    0.480823   0.400197   0.007370  -0.045008   0.005825  -0.000167
    17  H    0.007535  -0.011200   0.000047  -0.000187  -0.023154  -0.000070
    18  C    0.503670   0.007868   0.374338  -0.040056   0.009977  -0.061773
    19  C    4.744277  -0.045570  -0.045308   0.403104   0.000573   0.003662
    20  H   -0.045570   0.681250  -0.000135  -0.011997  -0.000392   0.000001
    21  H   -0.045308  -0.000135   0.673395  -0.012242  -0.000474   0.004205
    22  H    0.403104  -0.011997  -0.012242   0.668955  -0.000002  -0.000060
    23  C    0.000573  -0.000392  -0.000474  -0.000002   5.067916  -0.009572
    24  O    0.003662   0.000001   0.004205  -0.000060  -0.009572   7.873605
    25  H   -0.000333  -0.000001   0.000001   0.000006   0.018213   0.123438
              25
     1  C    0.000129
     2  C    0.007932
     3  C   -0.036125
     4  C   -0.002700
     5  C   -0.000053
     6  C   -0.000006
     7  H    0.000004
     8  H    0.000606
     9  H   -0.000005
    10  H   -0.000000
[...]
 .00000025,-0.00723941,0.01541269,0.00000027,0.00811118,-0.00227875,0.0
 0000006,0.00026343,0.00629045,0.00000011,-0.00325025,-0.00270919,-0.00
 000004,0.00003432,0.00013167,0.,-0.00009539,-0.00010360,-0.00000002,-0
 .00003926,0.00010329,-0.00000001,-0.00007061,-0.00000757,0.00000002,0.
 00884416,-0.01313913,-0.00000031,0.00191010,-0.00285587,0.00000023,0.0
 4860989,0.02318321,-0.00000097,0.04324599,-0.21343308,0.00000203,0.024
 58841,-0.00647818,-0.00000024,0.04810563,0.63609928,0.00000002,0.00000
 002,-0.00001442,0.00000016,0.00000008,0.00024558,0.00000021,-0.0000003
 5,-0.00039213,-0.00000017,0.00000006,-0.00031324,0.,-0.00000011,0.0000
 0559,0.00000003,0.00000006,-0.00000430,0.,0.,-0.00002606,0.,0.,-0.0000
 1978,0.,0.,0.00002775,0.,0.,0.00002983,-0.00000023,0.00000027,0.002590
 07,-0.00000006,0.00000013,-0.00081593,0.00000015,-0.00000066,0.0027950
 4,0.00000019,0.00000161,-0.05154408,-0.00000082,0.00000005,-0.00495007
 ,-0.00000583,-0.00001081,0.12440982,0.00024083,-0.00001789,0.,-0.00063
 681,0.00020802,-0.00000015,0.00030046,-0.00017479,0.,-0.00007063,0.000
 11583,0.00000002,0.00006691,-0.00009497,0.,0.00002021,-0.00002501,0.00
 000001,-0.00001661,-0.00000828,0.,0.00002962,0.00000078,0.,0.00001165,
 -0.00000521,0.,0.00003274,-0.00001261,0.,0.00065116,0.00079368,-0.0000
 0004,-0.00548769,0.00436299,0.00000010,-0.00245312,-0.02858211,0.00000
 040,-0.07731149,-0.07116880,0.00000173,-0.00470412,0.00266520,0.000000
 20,0.00961130,0.02348993,-0.00000041,0.08355838,0.00022085,0.00003742,
 0.,-0.00022443,0.00093709,0.00000008,0.00055018,-0.00028254,0.00000001
 ,0.00003232,0.00016951,0.,0.00003196,0.00009687,0.,-0.00014867,-0.0001
 0055,0.,-0.00003634,0.00000359,0.,0.00005586,-0.00000653,0.,0.00000446
 ,0.00000224,0.,0.00002834,-0.00000331,0.,-0.00008573,0.00064040,-0.000
 00004,0.00420851,-0.00331916,-0.00000008,0.00094124,-0.00531329,0.0000
 0013,-0.06999795,-0.32260614,0.00000586,-0.00020382,0.00265433,0.00000
 017,-0.00903908,-0.01698197,0.00000042,0.06980086,0.34611421,-0.000000
 04,0.,-0.00002144,0.00000002,-0.00000006,-0.00068744,-0.00000008,0.000
 00006,0.00050646,0.,-0.00000002,0.00015325,0.,0.,-0.00002239,0.0000000
 2,0.00000001,0.00001919,0.,0.,0.00002054,0.,0.,0.00000782,0.,0.,-0.000
 00495,0.,0.,0.00000092,-0.00000006,-0.00000025,-0.00238712,0.00000015,
 -0.00000019,0.00234871,-0.00000050,0.00000065,0.00604756,0.00000224,0.
 00000612,-0.03395999,0.00000010,-0.00000010,0.00881917,-0.00000015,0.0
 0000032,0.00375129,-0.00000179,-0.00000643,0.01924717,-0.00063036,-0.0
 0016032,-0.00000006,-0.00589865,-0.00306727,-0.00000016,-0.00520124,0.
 01423443,0.00000048,0.00606853,-0.00179920,0.,-0.00006608,0.00322629,0
 .00000004,-0.00012777,-0.00197498,-0.00000004,-0.00007707,0.00010687,0
 .,0.00001925,-0.00004735,0.,0.00009211,0.00001071,0.,0.00004588,-0.000
 05239,0.00000002,0.01295404,-0.00276374,-0.00000056,-0.00000818,-0.003
 23235,0.00000022,0.02078575,0.01760956,-0.00000078,-0.03988090,0.01864
 512,0.00000028,-0.15676944,0.08854198,-0.00000334,0.00062653,-0.082127
 74,0.00000192,-0.00054467,-0.00003684,0.00000002,0.67078062,0.00047909
 ,-0.00011967,0.,-0.00045259,-0.00034241,0.,0.00042620,-0.00039987,0.,-
 0.00050251,0.00017471,0.,0.00011773,-0.00020934,0.,-0.00017666,0.00007
 084,0.,-0.00000937,0.00002128,0.,-0.00000137,-0.00000260,0.,-0.0000037
 1,-0.00000483,0.,0.00002585,-0.00000260,0.,0.00070237,0.00036446,0.000
 00005,0.00157424,-0.00157163,-0.00000008,0.01918858,-0.02744692,0.0000
 0079,0.00303613,-0.00008445,-0.00000012,0.09277978,-0.22517752,0.00000
 438,-0.03475388,-0.01444673,0.00000066,-0.00030877,0.00063670,-0.00000
 007,0.04571547,0.71126817,0.,-0.00000004,0.00015334,-0.00000003,0.,0.0
 0040433,-0.00000012,-0.00000002,0.00131257,0.,0.,-0.00011693,0.,0.0000
 0002,-0.00007541,-0.00000002,0.,-0.00009653,0.,0.,0.00011572,0.,0.,0.0
 0006806,0.,0.,0.00000257,0.,0.,-0.00005050,-0.00000004,-0.00000046,-0.
 00371216,0.,-0.00000004,0.00142768,-0.00000034,0.00000030,0.01274265,0
 .00000012,-0.00000021,-0.00482825,-0.00000356,0.00000432,-0.06652611,0
 .00000087,0.00000101,0.00663062,0.,-0.00000005,-0.00173680,-0.00000289
 ,-0.00001577,0.10873506,0.00029638,0.00099488,0.00000007,0.00743232,0.
 00294591,0.00000025,0.00703650,-0.01628682,-0.00000036,-0.00731023,0.0
 0220088,-0.00000003,0.00001622,-0.00457197,-0.00000007,0.00121986,0.00
 249006,0.00000004,0.00003758,-0.00008945,0.,0.00004029,0.00007120,0.00
 000001,-0.00006807,-0.00003105,0.,-0.00000219,0.00004180,-0.00000002,-
 0.01412970,0.01011618,0.00000012,0.00049678,0.00182254,-0.00000024,-0.
 01240237,-0.01380159,0.00000029,0.05531409,0.01124781,-0.00000075,-0.0
 6021040,0.01152023,0.00000079,-0.13787742,0.00386891,0.00000048,-0.003
 59823,0.00453336,-0.00000005,-0.32002909,-0.08723550,0.00000281,0.6864
 1490,-0.00000128,0.00121848,0.00000005,0.00434380,0.00149457,0.0000000
 5,0.00420828,-0.00783201,-0.00000025,-0.00439407,0.00135790,-0.0000000
 2,-0.00007087,-0.00322394,-0.00000005,0.00143205,0.00127286,0.00000003
 ,-0.00002934,-0.00005582,0.,0.00006685,0.00003498,0.,0.00001430,-0.000
 05458,0.,0.00004842,0.00001398,0.,-0.00293317,0.00811702,0.00000053,-0
 .00171625,0.00116680,-0.00000009,-0.02900940,-0.01082884,0.00000061,0.
 06360559,-0.05349425,0.00000079,-0.01155126,0.02471084,-0.00000033,-0.
 08810036,-0.31022718,0.00000630,0.00322758,-0.00055995,-0.00000002,-0.
 02293052,-0.13642031,0.00000239,-0.05563204,0.68457634,-0.00000002,0.,
 0.00013541,-0.00000011,-0.00000004,-0.00051441,-0.00000008,0.00000025,
 -0.00108223,0.00000013,-0.00000004,0.00007374,0.,0.00000007,0.00009269
 ,0.,-0.00000003,0.00001377,0.,0.,-0.00005561,0.,0.,-0.00011663,0.,0.,0
 .00000308,0.,0.,0.00001520,0.00000009,-0.00000012,0.00136202,0.0000000
 3,-0.00000010,0.00067465,0.00000075,0.00000033,-0.00157989,-0.00000153
 ,0.00000117,0.00880361,0.00000032,-0.00000088,0.00203618,0.00000251,0.
 00000588,-0.05933886,-0.00000002,0.00000006,0.00386215,0.00000163,0.00
 000260,-0.04960528,-0.00000085,-0.00001354,0.11449611,0.00005011,-0.00
 011083,0.,-0.00009457,0.00013955,0.,-0.00003590,-0.00010241,0.,0.00002
 552,0.00002443,0.,0.00000686,0.00009431,0.,-0.00014082,0.00000646,0.,0
 .00000674,0.00000536,0.,-0.00000293,-0.00000305,0.,-0.00001028,0.00000
 827,0.,-0.00000970,0.00000554,0.,-0.00021612,0.00043209,0.00000002,0.0
 0007563,0.00000207,0.,-0.00059363,0.00374330,-0.00000004,-0.01590080,-
 0.01012209,0.00000036,0.00050253,0.00047757,-0.00000002,-0.32243127,-0
 .08254602,0.00000372,0.00067280,0.00008900,-0.00000001,0.00158727,-0.0
 0091662,0.00000006,-0.00217472,0.00198043,-0.00000002,0.33898602,0.000
 02335,-0.00002357,0.,-0.00010533,-0.00007889,0.,0.00000558,0.00024913,
 0.00000002,0.00007222,-0.00006689,0.,0.00001535,0.00006799,0.,-0.00003
 884,-0.00003489,0.,0.00000127,-0.00000053,0.,-0.00000182,-0.00000021,0
 .,0.00000113,-0.00000264,0.,0.00000031,-0.00000073,0.,0.00035398,-0.00
 041519,-0.00000002,0.00004080,0.00003393,0.,0.00350604,-0.00327230,0.0
 0000009,0.02081982,0.00935067,-0.00000023,0.00077753,-0.00071104,-0.00
 000003,-0.08282439,-0.08512464,0.00000163,-0.00015399,0.00092535,-0.00
 000005,-0.00016926,-0.00547990,0.00000028,-0.02928680,-0.00193875,0.00
 000034,0.08795012,0.08453765,0.,0.,-0.00002493,0.00000001,0.,0.0000917
 6,0.,-0.00000003,0.00043506,-0.00000001,0.,0.00008113,0.,0.,-0.0000583
 5,0.,0.,0.00001085,0.,0.,0.00000932,0.,0.,0.00003704,0.,0.,-0.00002022
 ,0.,0.,-0.00000450,0.,0.,0.00003360,0.,0.00000002,-0.00028770,0.,0.000
 00013,0.00458695,-0.00000014,-0.00000010,0.00547791,-0.00000006,0.0000
 0002,-0.00152155,0.00000349,0.00000171,-0.03537946,-0.00000002,-0.0000
 0007,-0.00250893,0.00000002,0.00000028,0.00632075,0.00000068,0.0000001
 2,0.00606912,-0.00000402,-0.00000190,0.02194446,-0.00010571,0.00003778
 ,0.,0.00011159,0.00005443,0.,-0.00011308,0.00007596,0.,0.00003272,-0.0
 0000458,0.,-0.00001817,-0.00002236,0.,0.00006781,0.00000713,0.,0.00000
 058,-0.00000516,0.,-0.00000347,-0.00000035,0.,0.00000202,-0.00000104,0
 .,-0.00000349,-0.00000077,0.,0.00028351,-0.00028692,0.,-0.00031058,0.0
 0017696,0.,-0.00419481,0.00286494,-0.00000004,-0.00006335,0.00023498,0
 .00000001,0.00828807,0.02311257,-0.00000058,-0.00565536,-0.00023034,0.
 00000004,0.00010928,-0.00007377,0.,-0.07256066,-0.06830959,0.00000168,
 -0.00076304,-0.02869012,0.00000077,-0.00023806,-0.00142470,0.00000003,
 0.07128385,0.00004800,0.00004443,0.,-0.00011634,-0.00009970,-0.0000000
 1,0.00006522,0.00007133,0.,0.00000449,-0.00000635,0.,0.00000259,-0.000
 02822,0.,0.00004279,-0.00002612,0.,-0.00000580,0.00000268,0.,0.0000070
 2,0.00000201,0.,0.00000713,-0.00000326,0.,0.00000987,-0.00000373,0.,-0
 .00009647,0.00012943,0.00000002,0.00020176,-0.00021706,-0.00000003,0.0
 0402209,-0.00158544,0.00000015,0.00014311,0.00039228,-0.00000004,-0.01
 059100,-0.01633494,0.00000041,-0.00107937,0.00118555,0.00000017,-0.000
 04351,-0.00010424,0.,-0.06647954,-0.33094881,0.00000836,0.00245027,-0.
 00268632,0.00000015,0.00005307,-0.00026619,-0.00000001,0.07312031,0.34
 758068,-0.00000002,0.00000003,-0.00030460,0.00000008,0.00000001,-0.000
 21159,0.00000005,-0.00000007,0.00004749,-0.00000005,0.00000002,-0.0000
 0278,0.,-0.00000004,-0.00003540,0.00000003,0.00000001,0.00006890,0.,0.
 ,-0.00002931,0.,0.,0.00003398,0.,0.,-0.00000258,0.,0.,0.00005593,0.000
 00004,0.00000017,0.00051735,-0.00000007,0.00000002,-0.00078387,-0.0000
 0024,-0.00000007,0.00319803,0.00000015,-0.00000003,-0.00012090,0.00000
 056,0.00000083,0.00370256,0.00000003,0.00000024,0.00581293,0.,0.,0.000
 06105,0.00000173,0.00000804,-0.03167211,-0.00000008,0.00000017,0.00403
 555,0.,0.,-0.00040536,-0.00000190,-0.00000898,0.02138688,0.00004646,-0
 .00005024,0.,-0.00004484,0.00010715,0.,0.00013088,-0.00005815,0.,-0.00
 001853,0.00001025,0.,0.00001133,0.00004044,0.,-0.00007894,0.00000172,0
 .,0.00000168,0.00000379,0.,0.00000252,-0.00000300,0.,-0.00000655,0.000
 00325,0.,-0.00000441,0.00000401,0.,0.00010917,0.00050081,-0.00000001,-
 0.00003478,0.00011460,0.00000002,-0.00018313,-0.00058561,0.00000003,0.
 00076311,-0.00197256,0.00000003,-0.00232162,-0.00414681,0.00000018,0.0
 0820357,-0.00765815,0.00000016,0.00028711,-0.00030512,-0.00000001,-0.0
 1568371,0.02287673,-0.00000061,-0.21289200,0.14451741,-0.00000298,0.00
 067821,0.00036309,-0.00000001,0.00105865,-0.00027847,-0.00000002,0.222
 13253,-0.00001274,0.00009983,0.,0.00022412,0.00011038,0.,0.00024774,-0
 .00046105,0.,-0.00022828,0.00008175,0.,-0.00000432,-0.00020259,0.,0.00
 012646,0.00007021,0.,-0.00000747,-0.00000514,0.,0.00000935,0.00000407,
 0.,0.00000602,-0.00000468,0.,0.00000900,-0.00000359,0.,-0.00033130,0.0
 0026330,-0.00000002,-0.00012517,0.00002816,0.,-0.00080232,0.00013013,-
 0.00000001,-0.00243115,-0.00463737,0.00000028,-0.00254707,-0.00054282,
 0.00000018,0.02446914,-0.01424272,0.00000030,0.00114003,-0.00100653,0.
 ,-0.00881465,0.00944569,-0.00000019,0.14323992,-0.19181789,0.00000369,
 -0.00015229,0.00103154,-0.00000013,0.00032895,0.00064228,-0.00000010,-
 0.15401361,0.20026711,0.,-0.00000001,0.00000066,-0.00000004,-0.0000000
 2,0.00007115,-0.00000005,0.00000010,0.00012231,0.00000005,-0.00000002,
 0.00001669,0.,0.00000004,-0.00000386,-0.00000002,-0.00000002,-0.000002
 89,0.,0.,0.00000539,0.,0.,0.00001730,0.,0.,-0.00000100,0.,0.,-0.000011
 43,0.00000007,-0.00000008,-0.00020428,0.00000002,0.00000001,-0.0001225
 1,0.00000003,0.00000008,-0.00103535,0.,0.00000030,0.00573887,0.0000002
 5,0.00000008,0.00666026,-0.00000061,0.00000017,0.00290857,-0.00000003,
 0.00000004,0.00067934,-0.00000003,-0.00000024,0.00358212,-0.00000274,0
 .00000388,-0.03305291,-0.00000004,-0.00000011,-0.00390612,-0.00000001,
 -0.00000013,-0.00357790,0.00000324,-0.00000399,0.02297190,-0.00369711,
 -0.00624705,-0.00000016,-0.00747270,0.02076072,0.00000031,-0.06398103,
 0.04428330,0.00000112,0.00717226,-0.00324009,0.00000003,-0.00080086,0.
 00516224,0.00000008,-0.00520244,-0.00168003,0.,0.00028588,-0.00060391,
 -0.00000002,-0.00073600,-0.00008917,0.00000001,0.00012019,-0.00008542,
 0.,-0.00065977,-0.00002870,-0.00000002,-0.35489244,-0.04635751,-0.0000
 0344,-0.05152095,-0.05541282,-0.00000111,-0.19137355,0.09251171,0.0000
 0135,-0.04747779,0.03049876,0.00000063,0.03724165,0.02023853,-0.000000
 49,-0.00263797,-0.01116355,0.00000015,0.00005889,0.00047530,0.00000021
 ,-0.00407420,-0.00436696,0.00000047,-0.00037183,0.00387048,-0.00000025
 ,-0.00066912,0.00056507,0.,0.00073296,-0.00099622,-0.00000008,0.000030
 50,-0.00004438,0.00000003,0.71667252,0.00008119,0.00088483,-0.00000006
 ,0.02745099,-0.02508058,-0.00000055,0.02690292,0.00676630,0.00000048,-
 0.00065024,-0.00698243,-0.00000022,-0.00061797,-0.00165920,-0.00000009
 ,0.00163814,-0.00064104,-0.00000003,-0.00002025,-0.00048406,0.,-0.0004
 7886,0.00019023,0.00000005,0.00028191,-0.00056450,0.,-0.00015151,0.000
 03953,0.,-0.03548944,-0.12153713,-0.00000270,-0.02254765,-0.15877700,-
 0.00000295,0.08080623,-0.19333414,-0.00000213,0.02059740,0.01478694,-0
 .00000031,0.02199797,-0.04728977,-0.00000035,-0.00571410,0.00103342,0.
 00000029,-0.00219823,-0.00062001,-0.00000022,-0.01316595,-0.00373090,0
 .00000011,0.00733487,0.00077231,-0.00000004,-0.00091656,0.00103931,-0.
 00000002,0.00074527,-0.00042276,0.00000011,-0.00002397,0.00033306,-0.0
 0000008,-0.07808773,0.53189774,0.00000008,-0.00000009,0.00125375,0.000
 00050,-0.00000041,-0.00054329,0.00000030,0.00000013,0.00670435,0.,-0.0
 0000022,0.00195818,0.00000002,0.00000002,0.00104945,-0.00000010,-0.000
 00003,0.00089819,0.,0.,-0.00050102,0.,0.00000002,-0.00054326,0.,0.,-0.
 00047143,0.,0.,-0.00022008,-0.00000149,-0.00000267,-0.03099570,-0.0000
 0052,-0.00000315,-0.02006303,0.00000184,-0.00000194,-0.03432281,0.0000
 0091,-0.00000034,0.00913554,-0.00000060,-0.00000062,0.00392133,-0.0000
 0005,0.00000016,0.00354844,-0.00000003,-0.00000010,-0.00242652,-0.0000
 0022,0.00000006,0.00000865,0.00000041,-0.00000007,-0.00069659,-0.00000
 002,-0.00000002,-0.00096282,-0.00000001,0.00000009,0.00187091,-0.00000
 002,0.,-0.00021472,0.00000050,0.00000963,0.06129108,-0.00014907,0.0012
 9726,-0.00000001,-0.00093875,0.00109679,0.00000008,0.00683777,0.000980
 20,0.00000009,0.00017337,0.00004324,-0.00000002,-0.00013426,-0.0007367
 7,-0.00000003,0.00138534,-0.00004113,0.,-0.00015304,0.00019005,0.,0.00
 022198,0.00001954,0.00000001,0.00003060,0.00002090,0.,0.00006889,0.000
 00114,0.,0.00132781,0.02762435,-0.00000034,-0.00054317,-0.00106437,0.0
 0000001,-0.02568323,-0.04955622,0.00000160,0.00622846,-0.00424897,0.00
 000010,-0.42564332,-0.10292180,0.00001040,-0.00973776,-0.00619350,0.00
 000024,-0.00112820,-0.00110825,0.00000003,-0.09278245,0.01032893,0.000
 00178,0.01321028,0.01618864,-0.00000035,-0.00015782,-0.00049544,0.0000
 0003,0.00211845,-0.00050265,-0.00000027,-0.00241455,-0.00026727,-0.000
 00009,-0.01804672,0.00601919,0.00000028,0.54032798,-0.00041060,-0.0002
 3609,0.,0.00000229,-0.00224237,-0.00000012,-0.00647965,0.00158825,0.00
 000009,0.00084983,-0.00055885,0.,0.00005944,0.00062893,0.00000001,-0.0
 0006356,-0.00054786,-0.00000001,0.00004564,-0.00016580,0.,0.00008984,0
 .00004433,0.,0.00009542,-0.00007628,0.,0.00002835,-0.00004436,0.,0.014
 01576,-0.02449357,0.00000041,0.00007145,0.00034738,0.,-0.04594995,-0.0
 2285159,0.00000166,-0.00171666,-0.00997127,0.00000016,-0.10687135,-0.1
 2625333,0.00000478,0.00038125,-0.00488846,0.00000012,-0.00231534,-0.00
 071560,-0.00000003,0.02232916,0.02521919,-0.00000058,0.00533172,0.0002
 6030,0.00000017,-0.00013412,0.00028550,-0.00000004,-0.00202264,0.00283
 308,-0.00000021,0.00123812,0.00055067,-0.00000003,0.00103512,0.0107759
 9,-0.00000008,0.13138240,0.14971162,0.00000005,0.,0.00024867,0.0000000
 7,0.00000019,-0.00013851,0.00000046,-0.00000026,-0.00051490,-0.0000001
 0,0.00000004,0.00009534,0.,-0.00000005,0.00015081,-0.00000002,0.000000
 06,0.00002235,0.,0.,-0.00008995,0.,0.,-0.00015609,0.,0.,-0.00001212,0.
 ,0.,-0.00005440,-0.00000091,0.00000108,0.00739290,0.00000007,0.0000001
 9,-0.00077835,0.00000129,0.00000185,0.01692693,-0.00000013,0.00000023,
 0.00228500,0.00001127,0.00000507,-0.05913828,0.00000037,0.00000041,0.0
 0018995,0.,-0.00000001,-0.00217255,0.00000132,-0.00000070,0.01540218,-
 0.00000071,-0.00000038,0.00435083,0.,0.,0.00003403,0.00000001,-0.00000
 016,-0.00349979,-0.00000002,-0.00000002,-0.00056593,0.00000019,-0.0000
 0038,-0.00297672,-0.00001416,-0.00000599,0.03216210,0.00094478,0.00006
 369,-0.00000003,-0.00416912,0.00248799,0.00000005,0.00962412,0.0120940
 8,0.00000099,0.00112092,-0.00019202,-0.00000003,-0.00008008,0.00021272
 ,-0.00000002,-0.00025743,-0.00008899,0.,-0.00007965,0.00023838,0.,-0.0
 0057123,-0.00029583,-0.00000004,-0.00001169,0.00000838,0.,-0.00002826,
 -0.00003729,0.,-0.08003757,-0.05426769,-0.00000359,-0.00401178,-0.0041
 9657,-0.00000003,0.00161308,-0.00053352,0.00000015,-0.00167571,0.00018
 924,-0.00000001,-0.01344854,0.00127155,0.00000009,0.00134888,-0.001414
 91,0.00000005,0.00030024,0.00028775,-0.00000009,0.00137448,-0.00021356
 ,-0.00000018,0.00031409,0.00155486,-0.00000002,0.00008407,0.00000490,0
 .,-0.00005973,0.00001164,0.00000005,0.00022735,-0.00001870,0.,-0.00870
 038,-0.03379361,-0.00000175,0.00558140,-0.01099194,0.00000096,0.090597
 75,0.00028634,0.00035269,-0.00000005,0.00309492,0.00442496,-0.00000012
 ,0.00821566,-0.00845347,0.00000008,-0.00287465,0.00223381,0.00000007,-
 0.00037298,-0.00204046,-0.00000001,0.00040778,0.00119990,0.00000003,-0
 .00000710,0.00018813,0.,0.00026681,-0.00019584,0.,-0.00017165,0.000158
 89,0.,-0.00003946,0.00010096,0.,-0.06912589,-0.27349958,-0.00001449,0.
 00238851,0.00753910,-0.00000006,-0.00858944,0.00413795,-0.00000025,0.0
 0906475,-0.00290618,0.00000009,0.02238845,0.01030751,-0.00000127,-0.00
 554913,0.00811157,-0.00000022,-0.00069539,-0.00059790,0.00000025,-0.00
 359747,-0.00081255,0.00000057,-0.00327531,-0.00585654,0.00000009,-0.00
 000757,-0.00010472,0.00000001,0.00031305,-0.00015060,-0.00000017,-0.00
 068568,-0.00013380,0.00000004,-0.01099771,-0.00739614,-0.00000034,-0.0
 2805626,0.00080020,-0.00000118,0.08761945,0.26259210,0.00000003,0.0000
 0006,0.00086622,-0.00000011,0.00000009,0.00246075,-0.00000004,0.000001
 21,-0.00803365,0.00000022,-0.00000004,-0.00077956,-0.00000004,0.000000
 09,-0.00015691,0.,-0.00000006,-0.00012253,0.,0.00000001,-0.00000267,-0
 .00000002,0.,-0.00010725,0.,0.,0.00007644,0.,0.,0.00002245,-0.00000463
 ,-0.00001754,-0.02287712,0.00000014,0.00000020,0.00245944,-0.00000017,
 0.00000027,-0.00256926,0.00000022,0.00000004,0.00006134,-0.00000041,-0
 .00000044,0.00063832,-0.00000005,0.00000014,-0.00014713,0.00000002,0.0
 0000001,0.00040352,0.00000038,0.00000010,0.00151380,-0.00000007,-0.000
 00017,0.00001831,0.,0.,-0.00005203,-0.00000001,0.,-0.00014537,0.000000
 02,0.,-0.00007565,0.00000050,-0.00000056,0.00329814,0.00000057,-0.0000
 0031,-0.00916347,0.00000345,0.00001691,0.03241387\\-0.00191483,-0.0024
 1251,0.,-0.00344900,-0.00451488,-0.00000009,-0.00590232,0.00052097,-0.
 00000044,0.00145440,-0.00218868,-0.00000015,-0.00013640,0.00023793,-0.
 00000008,-0.00212701,-0.00204553,-0.00000007,-0.00010802,-0.00028830,0
 .00000005,-0.00002704,-0.00010170,0.00000005,-0.00002183,-0.00024531,0
 .00000001,-0.00020079,-0.00021492,0.00000004,0.01044488,-0.00527600,-0
 .00000272,-0.00139265,-0.00196210,0.00000041,0.00592978,-0.00286554,-0
 .00000202,-0.00433401,-0.00045333,-0.00000032,-0.00950374,-0.00146458,
 0.00000638,0.00170424,-0.00650457,0.00000048,-0.00000031,-0.00009916,0
 .00000008,0.00109036,-0.00039632,-0.00000202,0.00256174,-0.00060259,-0
 .00000018,0.00010945,-0.00020864,-0.00000007,0.00000196,0.00005818,0.0
 0000006,0.00019401,-0.00003374,-0.00000004,0.00644589,0.00431051,0.000
 00019,0.00460536,0.00835167,-0.00000363,-0.00542412,0.01839915,0.00000
 406\\\@
 The archive entry for this job was punched.


 THE MOLECULE ALSO HAS A BODY.  WHEN THIS BODY IS HIT, THE MOLECULE
 FEELS HURT ALL OVER -- A. KITAIGORODSKI
 Job cpu time:       0 days  2 hours 49 minutes 30.2 seconds.
 Elapsed time:       0 days  0 hours 17 minutes 27.8 seconds.
 File lengths (MBytes):  RWF=   1376 Int=      0 D2E=      0 Chk=     48 Scr=      8
 Normal termination of Gaussian 16 at Tue Jul 14 16:55:25 2020.
