 Entering Gaussian System, Link 0=g16
 Initial command:
 /gpfs/loomis/apps/avx/software/Gaussian/16-C.01_AVX/g16/l1.exe "/home/fas/batista/pev4/scratch60/gauss-scratch/Gau-201608.inp" -scrdir="/home/fas/batista/pev4/scratch60/gauss-scratch/"
 Entering Link 1 = /gpfs/loomis/apps/avx/software/Gaussian/16-C.01_AVX/g16/l1.exe PID=    201609.
  
 Copyright (c) 1988-2019, Gaussian, Inc.  All Rights Reserved.
  
 This is part of the Gaussian(R) 16 program.  It is based on
 the Gaussian(R) 09 system (copyright 2009, Gaussian, Inc.),
 the Gaussian(R) 03 system (copyright 2003, Gaussian, Inc.),
 the Gaussian(R) 98 system (copyright 1998, Gaussian, Inc.),
 the Gaussian(R) 94 system (copyright 1995, Gaussian, Inc.),
 the Gaussian 92(TM) system (copyright 1992, Gaussian, Inc.),
 the Gaussian 90(TM) system (copyright 1990, Gaussian, Inc.),
 the Gaussian 88(TM) system (copyright 1988, Gaussian, Inc.),
 the Gaussian 86(TM) system (copyright 1986, Carnegie Mellon
 University), and the Gaussian 82(TM) system (copyright 1983,
 Carnegie Mellon University). Gaussian is a federally registered
 trademark of Gaussian, Inc.
  
 This software contains proprietary and confidential information,
 including trade secrets, belonging to Gaussian, Inc.
  
 This software is provided under written license and may be
 used, copied, transmitted, or stored only in accord with that
 written license.
  
 The following legend is applicable only to US Government
 contracts under FAR:
  
                    RESTRICTED RIGHTS LEGEND
  
 Use, reproduction and disclosure by the US Government is
 subject to restrictions as set forth in subparagraphs (a)
 and (c) of the Commercial Computer Software - Restricted
 Rights clause in FAR 52.227-19.
  
 Gaussian, Inc.
 340 Quinnipiac St., Bldg. 40, Wallingford CT 06492
  
  
 ---------------------------------------------------------------
 Warning -- This program may not be used in any manner that
 competes with the business of Gaussian, Inc. or will provide
 assistance to any competitor of Gaussian, Inc.  The licensee
 of this program is prohibited from giving any competitor of
 Gaussian, Inc. access to this program.  By using this program,
 the user acknowledges that Gaussian, Inc. is engaged in the
 business of creating and licensing software in the field of
 computational chemistry and represents and warrants to the
 licensee that it is not a competitor of Gaussian, Inc. and that
 it will not use this program in any manner prohibited above.
 ---------------------------------------------------------------
  

 Cite this work as:
 Gaussian 16, Revision C.01,
 M. J. Frisch, G. W. Trucks, H. B. Schlegel, G. E. Scuseria, 
 M. A. Robb, J. R. Cheeseman, G. Scalmani, V. Barone, 
 G. A. Petersson, H. Nakatsuji, X. Li, M. Caricato, A. V. Marenich, 
 J. Bloino, B. G. Janesko, R. Gomperts, B. Mennucci, H. P. Hratchian, 
 J. V. Ortiz, A. F. Izmaylov, J. L. Sonnenberg, D. Williams-Young, 
 F. Ding, F. Lipparini, F. Egidi, J. Goings, B. Peng, A. Petrone, 
 T. Henderson, D. Ranasinghe, V. G. Zakrzewski, J. Gao, N. Rega, 
 G. Zheng, W. Liang, M. Hada, M. Ehara, K. Toyota, R. Fukuda, 
 J. Hasegawa, M. Ishida, T. Nakajima, Y. Honda, O. Kitao, H. Nakai, 
 T. Vreven, K. Throssell, J. A. Montgomery, Jr., J. E. Peralta, 
 F. Ogliaro, M. J. Bearpark, J. J. Heyd, E. N. Brothers, K. N. Kudin, 
 V. N. Staroverov, T. A. Keith, R. Kobayashi, J. Normand, 
 K. Raghavachari, A. P. Rendell, J. C. Burant, S. S. Iyengar, 
 J. Tomasi, M. Cossi, J. M. Millam, M. Klene, C. Adamo, R. Cammi, 
 J. W. Ochterski, R. L. Martin, K. Morokuma, O. Farkas, 
 J. B. Foresman, and D. J. Fox, Gaussian, Inc., Wallingford CT, 2019.
 
 ******************************************
 Gaussian 16:  ES64L-G16RevC.01  3-Jul-2019
                13-Jul-2020 
 ******************************************
 %chk=config_8_7.chk
 %mem=58GB
 %nprocshared=10
 Will use up to   10 processors via shared memory.
 ----------------------------------------------------------------------
 #p opt=addgic freq td wb97xd/cc-pvdz nosymm int=ultrafine scrf=(solven
 t=CarbonTetraChloride)
 ----------------------------------------------------------------------
 1/18=20,19=15,26=6,38=1,145=903/1,3;
 2/9=110,12=2,15=1,17=6,18=5,40=1/2;
 3/5=16,11=9,25=1,30=1,70=2201,71=1,72=11,74=-58,75=-5/1,2,3,8;
 4//1;
 5/5=2,38=5,53=11/2;
 8/6=1,10=1/1;
 9/15=2,42=1,70=2/14;
 10/5=4,31=1/2;
 6/7=2,8=2,9=2,10=2/1;
 7/12=6,13=5,30=1/1,2,3,16;
 1/18=20,19=15,26=6,145=903/3(2);
 2/9=110,15=1/2;
 99//99;
 2/9=110,15=1/2;
 3/5=16,11=9,25=1,30=1,70=2205,71=1,72=11,74=-58,75=-5/1,2,3,8;
 4/5=5,16=3,69=1/1;
 5/5=2,38=5,53=11/2;
 8/6=1,10=1/1;
 9/15=2,42=1,49=4,70=2/14;
 10/5=4,31=1/2;
 7/12=6,13=5,30=1/1,2,3,16;
 1/18=20,19=15,26=6,145=903/3(-8);
 2/9=110,15=1/2;
 6/7=2,8=2,9=2,10=2/1;
 99/9=10/99;
 Leave Link    1 at Mon Jul 13 15:21:59 2020, MaxMem=  7784628224 cpu:               4.4 elap:               0.5
 (Enter /gpfs/loomis/apps/avx/software/Gaussian/16-C.01_AVX/g16/l101.exe)
 ------------------------------------------------
 NM 2D-scan of HBT TD-WB97XD pVDZ in CTC Relaxed.
 ------------------------------------------------
 Symbolic Z-matrix:
 Charge =  0 Multiplicity = 1
 C                     1.67721  -3.26332  -0.00002 
 C                     1.00369  -2.04358  -0.00002 
 C                     1.71133  -0.81078  -0.00002 
 C                     3.11573  -0.81579  -0.00002 
 C                     3.77692  -2.03552  -0.00002 
 C                     3.07215  -3.24968  -0.00002 
 H                     1.12774  -4.20553  -0.00002 
 H                     3.66059   0.12874  -0.00002 
 H                     4.86819  -2.04971  -0.00002 
 H                     3.6186   -4.19362  -0.00002 
 N                     0.90232   0.2852   -0.00002 
 S                    -0.73304  -1.75672  -0.00002 
 C                    -1.38804   1.0256    0. 
 C                    -2.77079   0.83547  0. 
 C                    -0.87088   2.41872   0.00003 
 C                    -3.64845   1.93727   0.00002 
 H                    -3.18272  -0.17599  -0.00002 
 C                    -1.79737   3.49276   0.00006 
 C                    -3.1704    3.25682   0.00005 
 H                    -4.72384   1.7523    0.00002 
 H                    -1.3811    4.50097   0.00008 
 H                    -3.87191   4.09132   0.00008 
 C                    -0.42197  -0.01957  -0.00002 
 O                     0.38991   2.63745   0.00004 
 H                     0.97125   1.38751   0. 
 
 Initializing the GIC definitions file.
 Number of initial coordinates =   134
 Number of input entries/lines =    52
 Number of additional coordinates =     2
 Number of removed coordinates =     0
 Number of frozen coordinates =     2
 Number of final active and frozen coordinates =   136
 ITRead=  0  0  0  0  0  0  0  0  0  0  0  0  0  0  0  0  0  0  0  0
 ITRead=  0  0  0  0  0
 MicOpt= -1 -1 -1 -1 -1 -1 -1 -1 -1 -1 -1 -1 -1 -1 -1 -1 -1 -1 -1 -1
 MicOpt= -1 -1 -1 -1 -1
 NAtoms=     25 NQM=       25 NQMF=       0 NMMI=      0 NMMIF=      0
                NMic=       0 NMicF=      0.
                    Isotopes and Nuclear Properties:
 (Nuclear quadrupole moments (NQMom) in fm**2, nuclear magnetic moments (NMagM)
  in nuclear magnetons)

  Atom         1           2           3           4           5           6           7           8           9          10
 IAtWgt=          12          12          12          12          12          12           1           1           1           1
 AtmWgt=  12.0000000  12.0000000  12.0000000  12.0000000  12.0000000  12.0000000   1.0078250   1.0078250   1.0078250   1.0078250
 NucSpn=           0           0           0           0           0           0           1           1           1           1
 AtZEff=  -0.0000000  -0.0000000  -0.0000000  -0.0000000  -0.0000000  -0.0000000  -0.0000000  -0.0000000  -0.0000000  -0.0000000
 NQMom=    0.0000000   0.0000000   0.0000000   0.0000000   0.0000000   0.0000000   0.0000000   0.0000000   0.0000000   0.0000000
 NMagM=    0.0000000   0.0000000   0.0000000   0.0000000   0.0000000   0.0000000   2.7928460   2.7928460   2.7928460   2.7928460
 AtZNuc=   6.0000000   6.0000000   6.0000000   6.0000000   6.0000000   6.0000000   1.0000000   1.0000000   1.0000000   1.0000000

  Atom        11          12          13          14          15          16          17          18          19          20
 IAtWgt=          14          32          12          12          12          12           1          12          12           1
 AtmWgt=  14.0030740  31.9720718  12.0000000  12.0000000  12.0000000  12.0000000   1.0078250  12.0000000  12.0000000   1.0078250
 NucSpn=           2           0           0           0           0           0           1           0           0           1
 AtZEff=  -0.0000000  -0.0000000  -0.0000000  -0.0000000  -0.0000000  -0.0000000  -0.0000000  -0.0000000  -0.0000000  -0.0000000
 NQMom=    2.0440000   0.0000000   0.0000000   0.0000000   0.0000000   0.0000000   0.0000000   0.0000000   0.0000000   0.0000000
 NMagM=    0.4037610   0.0000000   0.0000000   0.0000000   0.0000000   0.0000000   2.7928460   0.0000000   0.0000000   2.7928460
 AtZNuc=   7.0000000  16.0000000   6.0000000   6.0000000   6.0000000   6.0000000   1.0000000   6.0000000   6.0000000   1.0000000

  Atom        21          22          23          24          25
 IAtWgt=           1           1          12          16           1
 AtmWgt=   1.0078250   1.0078250  12.0000000  15.9949146   1.0078250
 NucSpn=           1           1           0           0           1
 AtZEff=  -0.0000000  -0.0000000  -0.0000000  -0.0000000  -0.0000000
 NQMom=    0.0000000   0.0000000   0.0000000   0.0000000   0.0000000
 NMagM=    2.7928460   2.7928460   0.0000000   0.0000000   2.7928460
 AtZNuc=   1.0000000   1.0000000   6.0000000   8.0000000   1.0000000
 Leave Link  101 at Mon Jul 13 15:22:02 2020, MaxMem=  7784628224 cpu:              32.1 elap:               3.3
 (Enter /gpfs/loomis/apps/avx/software/Gaussian/16-C.01_AVX/g16/l103.exe)

 GradGradGradGradGradGradGradGradGradGradGradGradGradGradGradGradGradGrad
 Berny optimization.
 Initialization pass.
                           ----------------------------
                           !    Initial Parameters    !
                           ! (Angstroms and Degrees)  !
 --------------------------                            --------------------------
 ! Name  Definition              Value          Derivative Info.                !
 --------------------------------------------------------------------------------
 ! R1    R(1,2)                  1.3933         estimate D2E/DX2                !
 ! R2    R(1,6)                  1.395          estimate D2E/DX2                !
 ! R3    R(1,7)                  1.0907         estimate D2E/DX2                !
 ! R4    R(2,3)                  1.4215         estimate D2E/DX2                !
 ! R5    R(2,12)                 1.7603         estimate D2E/DX2                !
 ! R6    R(3,4)                  1.4044         estimate D2E/DX2                !
 ! R7    R(3,11)                 1.3622         estimate D2E/DX2                !
 ! R8    R(4,5)                  1.3874         estimate D2E/DX2                !
 ! R9    R(4,8)                  1.0904         estimate D2E/DX2                !
 ! R10   R(5,6)                  1.4039         estimate D2E/DX2                !
 ! R11   R(5,9)                  1.0914         estimate D2E/DX2                !
 ! R12   R(6,10)                 1.0907         estimate D2E/DX2                !
 ! R13   R(11,23)                1.3589         estimate D2E/DX2                !
 ! R14   R(11,25)                1.1045         estimate D2E/DX2                !
 ! R15   R(12,23)                1.7648         estimate D2E/DX2                !
 ! R16   R(13,14)                1.3958         estimate D2E/DX2                !
 ! R17   R(13,15)                1.486          estimate D2E/DX2                !
 ! R18   R(13,23)                1.4233         estimate D2E/DX2                !
 ! R19   R(14,16)                1.4086         estimate D2E/DX2                !
 ! R20   R(14,17)                1.0921         estimate D2E/DX2                !
 ! R21   R(15,18)                1.4184         estimate D2E/DX2                !
 ! R22   R(15,24)                1.2796         estimate D2E/DX2                !
 ! R23   R(16,19)                1.4035         estimate D2E/DX2                !
 ! R24   R(16,20)                1.0912         estimate D2E/DX2                !
 ! R25   R(18,19)                1.3932         estimate D2E/DX2                !
 ! R26   R(18,21)                1.0908         estimate D2E/DX2                !
 ! R27   R(19,22)                1.0902         estimate D2E/DX2                !
 ! A1    A(2,1,6)              118.3468         estimate D2E/DX2                !
 ! A2    A(2,1,7)              120.8441         estimate D2E/DX2                !
 ! A3    A(6,1,7)              120.8091         estimate D2E/DX2                !
 ! A4    A(1,2,3)              121.2371         estimate D2E/DX2                !
 ! A5    A(1,2,12)             128.2857         estimate D2E/DX2                !
 ! A6    A(3,2,12)             110.4771         estimate D2E/DX2                !
 ! A7    A(2,3,4)              119.6518         estimate D2E/DX2                !
 ! A8    A(2,3,11)             113.7106         estimate D2E/DX2                !
 ! A9    A(4,3,11)             126.6376         estimate D2E/DX2                !
 ! A10   A(3,4,5)              118.6655         estimate D2E/DX2                !
 ! A11   A(3,4,8)              119.7741         estimate D2E/DX2                !
 ! A12   A(5,4,8)              121.5604         estimate D2E/DX2                !
 ! A13   A(4,5,6)              121.4054         estimate D2E/DX2                !
 ! A14   A(4,5,9)              119.206          estimate D2E/DX2                !
 ! A15   A(6,5,9)              119.3886         estimate D2E/DX2                !
 ! A16   A(1,6,5)              120.6934         estimate D2E/DX2                !
 ! A17   A(1,6,10)             119.5068         estimate D2E/DX2                !
 ! A18   A(5,6,10)             119.7998         estimate D2E/DX2                !
 ! A19   A(3,11,23)            113.4731         estimate D2E/DX2                !
 ! A20   A(3,11,25)            139.9888         estimate D2E/DX2                !
 ! A21   A(23,11,25)           106.5381         estimate D2E/DX2                !
 ! A22   A(2,12,23)             89.2269         estimate D2E/DX2                !
 ! A23   A(14,13,15)           118.1957         estimate D2E/DX2                !
 ! A24   A(14,13,23)           124.9185         estimate D2E/DX2                !
 ! A25   A(15,13,23)           116.8858         estimate D2E/DX2                !
 ! A26   A(13,14,16)           120.7105         estimate D2E/DX2                !
 ! A27   A(13,14,17)           119.9887         estimate D2E/DX2                !
 ! A28   A(16,14,17)           119.3009         estimate D2E/DX2                !
 ! A29   A(13,15,18)           118.852          estimate D2E/DX2                !
 ! A30   A(13,15,24)           120.2085         estimate D2E/DX2                !
 ! A31   A(18,15,24)           120.9395         estimate D2E/DX2                !
 ! A32   A(14,16,19)           121.5454         estimate D2E/DX2                !
 ! A33   A(14,16,20)           118.7802         estimate D2E/DX2                !
 ! A34   A(19,16,20)           119.6745         estimate D2E/DX2                !
 ! A35   A(15,18,19)           121.0314         estimate D2E/DX2                !
 ! A36   A(15,18,21)           116.7837         estimate D2E/DX2                !
 ! A37   A(19,18,21)           122.1849         estimate D2E/DX2                !
 ! A38   A(16,19,18)           119.6651         estimate D2E/DX2                !
 ! A39   A(16,19,22)           120.0335         estimate D2E/DX2                !
 ! A40   A(18,19,22)           120.3014         estimate D2E/DX2                !
 ! A41   A(11,23,12)           113.1123         estimate D2E/DX2                !
 ! A42   A(11,23,13)           119.7877         estimate D2E/DX2                !
 ! A43   A(12,23,13)           127.1            estimate D2E/DX2                !
 ! D1    D(6,1,2,3)              0.0            estimate D2E/DX2                !
 ! D2    D(6,1,2,12)          -180.0            estimate D2E/DX2                !
 ! D3    D(7,1,2,3)            179.9999         estimate D2E/DX2                !
 ! D4    D(7,1,2,12)             0.0            estimate D2E/DX2                !
 ! D5    D(2,1,6,5)              0.0            estimate D2E/DX2                !
 ! D6    D(2,1,6,10)           180.0            estimate D2E/DX2                !
 ! D7    D(7,1,6,5)           -180.0            estimate D2E/DX2                !
 ! D8    D(7,1,6,10)             0.0            estimate D2E/DX2                !
 ! D9    D(1,2,3,4)              0.0            estimate D2E/DX2                !
 ! D10   D(1,2,3,11)           180.0            estimate D2E/DX2                !
 ! D11   D(12,2,3,4)           180.0            estimate D2E/DX2                !
 ! D12   D(12,2,3,11)           -0.0001         estimate D2E/DX2                !
 ! D13   D(1,2,12,23)          179.9999         estimate D2E/DX2                !
 ! D14   D(3,2,12,23)           -0.0001         estimate D2E/DX2                !
 ! D15   D(2,3,4,5)              0.0            estimate D2E/DX2                !
 ! D16   D(2,3,4,8)            180.0            estimate D2E/DX2                !
 ! D17   D(11,3,4,5)          -180.0            estimate D2E/DX2                !
 ! D18   D(11,3,4,8)             0.0            estimate D2E/DX2                !
 ! D19   D(2,3,11,23)            0.0002         estimate D2E/DX2                !
 ! D20   D(2,3,11,25)          179.998          estimate D2E/DX2                !
 ! D21   D(4,3,11,23)         -179.9998         estimate D2E/DX2                !
 ! D22   D(4,3,11,25)           -0.0021         estimate D2E/DX2                !
 ! D23   D(3,4,5,6)              0.0            estimate D2E/DX2                !
 ! D24   D(3,4,5,9)           -180.0            estimate D2E/DX2                !
 ! D25   D(8,4,5,6)           -180.0            estimate D2E/DX2                !
 ! D26   D(8,4,5,9)              0.0            estimate D2E/DX2                !
 ! D27   D(4,5,6,1)              0.0            estimate D2E/DX2                !
 ! D28   D(4,5,6,10)          -180.0            estimate D2E/DX2                !
 ! D29   D(9,5,6,1)           -180.0            estimate D2E/DX2                !
 ! D30   D(9,5,6,10)             0.0            estimate D2E/DX2                !
 ! D31   D(3,11,23,12)          -0.0003         estimate D2E/DX2                !
 ! D32   D(3,11,23,13)         179.9991         estimate D2E/DX2                !
 ! D33   D(25,11,23,12)       -179.9988         estimate D2E/DX2                !
 ! D34   D(25,11,23,13)          0.0006         estimate D2E/DX2                !
 ! D35   D(2,12,23,11)           0.0002         estimate D2E/DX2                !
 ! D36   D(2,12,23,13)        -179.9992         estimate D2E/DX2                !
 ! D37   D(15,13,14,16)         -0.0001         estimate D2E/DX2                !
 ! D38   D(15,13,14,17)        179.9999         estimate D2E/DX2                !
 ! D39   D(23,13,14,16)        179.9998         estimate D2E/DX2                !
 ! D40   D(23,13,14,17)         -0.0002         estimate D2E/DX2                !
 ! D41   D(14,13,15,18)          0.0001         estimate D2E/DX2                !
 ! D42   D(14,13,15,24)        180.0            estimate D2E/DX2                !
 ! D43   D(23,13,15,18)       -179.9998         estimate D2E/DX2                !
 ! D44   D(23,13,15,24)          0.0001         estimate D2E/DX2                !
 ! D45   D(14,13,23,11)        179.9995         estimate D2E/DX2                !
 ! D46   D(14,13,23,12)         -0.0012         estimate D2E/DX2                !
 ! D47   D(15,13,23,11)         -0.0006         estimate D2E/DX2                !
 ! D48   D(15,13,23,12)        179.9987         estimate D2E/DX2                !
 ! D49   D(13,14,16,19)          0.0            estimate D2E/DX2                !
 ! D50   D(13,14,16,20)       -179.9999         estimate D2E/DX2                !
 ! D51   D(17,14,16,19)       -180.0            estimate D2E/DX2                !
 ! D52   D(17,14,16,20)          0.0001         estimate D2E/DX2                !
 ! D53   D(13,15,18,19)          0.0001         estimate D2E/DX2                !
 ! D54   D(13,15,18,21)        179.9999         estimate D2E/DX2                !
 ! D55   D(24,15,18,19)       -179.9998         estimate D2E/DX2                !
 ! D56   D(24,15,18,21)          0.0            estimate D2E/DX2                !
 ! D57   D(14,16,19,18)          0.0001         estimate D2E/DX2                !
 ! D58   D(14,16,19,22)       -179.9999         estimate D2E/DX2                !
 ! D59   D(20,16,19,18)       -179.9999         estimate D2E/DX2                !
 ! D60   D(20,16,19,22)          0.0001         estimate D2E/DX2                !
 ! D61   D(15,18,19,16)         -0.0002         estimate D2E/DX2                !
 ! D62   D(15,18,19,22)        179.9999         estimate D2E/DX2                !
 ! D63   D(21,18,19,16)       -179.9999         estimate D2E/DX2                !
 ! D64   D(21,18,19,22)          0.0001         estimate D2E/DX2                !
 ! Qtot  GIC-1                  20.0            Frozen                          !
 ! Ptot  GIC-2                 -20.0            Frozen                          !
 --------------------------------------------------------------------------------
 NOTE: GIC-type coordinates are in arbitrary units.
 Trust Radius=3.00D-01 FncErr=5.00D-06 GrdErr=5.00D-06 EigMax=2.50D+02 EigMin=1.00D-04
 Number of steps in this run=    146 maximum allowed number of steps=    150.
 GradGradGradGradGradGradGradGradGradGradGradGradGradGradGradGradGradGrad

 Leave Link  103 at Mon Jul 13 15:22:02 2020, MaxMem=  7784628224 cpu:               0.2 elap:               0.0
 (Enter /gpfs/loomis/apps/avx/software/Gaussian/16-C.01_AVX/g16/l202.exe)
                          Input orientation:                          
 ---------------------------------------------------------------------
 Center     Atomic      Atomic             Coordinates (Angstroms)
 Number     Number       Type             X           Y           Z
 ---------------------------------------------------------------------
      1          6           0        1.677207   -3.263315   -0.000022
      2          6           0        1.003692   -2.043583   -0.000021
      3          6           0        1.711330   -0.810782   -0.000021
      4          6           0        3.115735   -0.815791   -0.000022
      5          6           0        3.776922   -2.035520   -0.000022
      6          6           0        3.072148   -3.249683   -0.000022
      7          1           0        1.127743   -4.205527   -0.000021
      8          1           0        3.660588    0.128743   -0.000022
      9          1           0        4.868194   -2.049709   -0.000023
     10          1           0        3.618596   -4.193619   -0.000022
     11          7           0        0.902322    0.285199   -0.000021
     12         16           0       -0.733035   -1.756723   -0.000020
     13          6           0       -1.388043    1.025603    0.000003
     14          6           0       -2.770789    0.835468   -0.000001
     15          6           0       -0.870880    2.418721    0.000032
     16          6           0       -3.648454    1.937271    0.000025
     17          1           0       -3.182721   -0.175994   -0.000024
     18          6           0       -1.797370    3.492762    0.000056
     19          6           0       -3.170398    3.256825    0.000054
     20          1           0       -4.723844    1.752298    0.000022
     21          1           0       -1.381104    4.500970    0.000079
     22          1           0       -3.871908    4.091321    0.000075
     23          6           0       -0.421969   -0.019567   -0.000016
     24          8           0        0.389907    2.637453    0.000037
     25          1           0        0.971249    1.387513    0.000004
 ---------------------------------------------------------------------
                    Distance matrix (angstroms):
                    1          2          3          4          5
     1  C    0.000000
     2  C    1.393330   0.000000
     3  C    2.452771   1.421461   0.000000
     4  C    2.838968   2.442989   1.404413   0.000000
     5  C    2.432342   2.773241   2.401386   1.387411   0.000000
     6  C    1.395008   2.394407   2.792859   2.434282   1.403886
     7  H    1.090721   2.165499   3.444542   3.929684   3.424482
     8  H    3.929359   3.431923   2.163865   1.090417   2.167388
     9  H    3.413977   3.864506   3.391272   2.143284   1.091364
    10  H    2.152779   3.385317   3.883458   3.415053   2.163898
    11  N    3.632135   2.330988   1.362229   2.472119   3.694464
    12  S    2.842374   1.760259   2.621016   3.962118   4.518566
    13  C    5.271677   3.891054   3.602558   4.865670   6.003944
    14  C    6.048528   4.747173   4.774885   6.113740   7.149482
    15  C    6.227221   4.840060   4.134912   5.133728   6.437571
    16  C    7.443707   6.122881   6.023212   7.302986   8.421359
    17  H    5.757642   4.584097   4.935047   6.330867   7.203781
    18  C    7.597188   6.204601   5.552609   6.534694   7.850773
    19  C    8.124746   6.746655   6.354266   7.490104   8.733509
    20  H    8.132025   6.871200   6.926821   8.249490   9.306482
    21  H    8.344903   6.965518   6.146370   6.963441   8.326521
    22  H    9.213216   7.836359   7.429883   8.538553   9.800142
    23  C    3.863734   2.475712   2.275299   3.626199   4.657763
    24  O    6.039554   4.721105   3.692761   4.399435   5.771356
    25  H    4.704103   3.431250   2.319530   3.074633   4.425942
                    6          7          8          9         10
     6  C    0.000000
     7  H    2.166644   0.000000
     8  H    3.429289   5.020079   0.000000
     9  H    2.160027   4.317235   2.490776   0.000000
    10  H    1.090697   2.490881   4.322566   2.481500   0.000000
    11  N    4.147714   4.496380   2.762699   4.602166   5.238125
    12  S    4.087585   3.075571   4.781099   5.608886   4.987500
    13  C    6.178299   5.804645   5.127673   6.971229   7.232338
    14  C    7.129402   6.372612   6.470090   8.165678   8.131172
    15  C    6.904945   6.919187   5.077223   7.273502   7.992398
    16  C    8.489463   7.781133   7.529467   9.403686   9.507778
    17  H    6.969286   5.900613   6.850090   8.266077   7.899318
    18  C    8.317017   8.235286   6.411391   8.668836   9.402826
    19  C    9.016874   8.611661   7.513139   9.632147  10.079660
    20  H    9.262684   8.350854   8.540178  10.318064  10.244522
    21  H    8.938908   9.060762   6.673457   9.053459  10.029600
    22  H   10.104961   9.686805   8.511199  10.681836  11.169059
    23  C    4.758414   4.463616   4.085250   5.666330   5.809378
    24  O    6.469373   6.882643   4.122012   6.482634   7.555658
    25  H    5.090910   5.595229   2.969351   5.196217   6.177174
                   11         12         13         14         15
    11  N    0.000000
    12  S    2.616073   0.000000
    13  C    2.407067   2.858386   0.000000
    14  C    3.714100   3.297256   1.395757   0.000000
    15  C    2.774195   4.177718   1.486013   2.473124   0.000000
    16  C    4.841375   4.705875   2.437334   1.408640   2.818992
    17  H    4.110994   2.915418   2.159793   1.092128   3.475219
    18  C    4.192469   5.356295   2.500884   2.829974   1.418432
    19  C    5.041588   5.574621   2.855720   2.454110   2.447489
    20  H    5.814304   5.314112   3.414038   2.157546   3.910173
    21  H    4.794451   6.291162   3.475374   3.920093   2.143850
    22  H    6.105721   6.637178   3.945657   3.437010   3.435660
    23  C    1.358908   1.764786   1.423264   2.499608   2.479268
    24  O    2.407419   4.535392   2.399826   3.638289   1.279620
    25  H    1.104466   3.576423   2.386888   3.782538   2.111120
                   16         17         18         19         20
    16  C    0.000000
    17  H    2.163977   0.000000
    18  C    2.417863   3.921602   0.000000
    19  C    1.403481   3.432841   1.393152   0.000000
    20  H    1.091182   2.468476   3.404918   2.162590   0.000000
    21  H    3.422489   5.011967   1.090762   2.179328   4.327714
    22  H    2.165609   4.322609   2.159162   1.090183   2.489342
    23  C    3.773516   2.765179   3.772027   4.276518   4.652487
    24  O    4.098611   4.547433   2.348560   3.613778   5.189793
    25  H    4.652300   4.438470   3.478121   4.543959   5.706764
                   21         22         23         24         25
    21  H    0.000000
    22  H    2.524265   0.000000
    23  C    4.621169   5.366701   0.000000
    24  O    2.570832   4.502976   2.778291   0.000000
    25  H    3.902202   5.546778   1.980134   1.378517   0.000000
 Symmetry turned off by external request.
 Stoichiometry    C13H9NOS
 Framework group  C1[X(C13H9NOS)]
 Deg. of freedom    69
 Full point group                 C1      NOp   1
 Rotational constants (GHZ):           1.3788559           0.2858590           0.2367723
 Leave Link  202 at Mon Jul 13 15:22:03 2020, MaxMem=  7784628224 cpu:               0.2 elap:               0.0
 (Enter /gpfs/loomis/apps/avx/software/Gaussian/16-C.01_AVX/g16/l301.exe)
 Standard basis: CC-pVDZ (5D, 7F)
 Ernie: Thresh=  0.10000D-02 Tol=  0.10000D-05 Strict=F.
 Ernie:  40 primitive shells out of 425 were deleted.
   273 basis functions,   629 primitive gaussians,   289 cartesian basis functions
    59 alpha electrons       59 beta electrons
       nuclear repulsion energy      1098.3849601779 Hartrees.
 IExCor= 4639 DFT=T Ex+Corr=wB97XD ExCW=0 ScaHFX=  1.000000
 ScaDFX=  1.000000  1.000000  1.000000  1.000000 ScalE2=  1.000000  1.000000
 IRadAn=      5 IRanWt=     -1 IRanGd=            0 ICorTp=0 IEmpDi=121
 HFx  wShort=  0.000000 wLong=  0.200000 cFull=  0.222036 cShort=  0.000000 cLong=  0.777964
 DFx  wShort=  0.000000 wLong=  0.200000 cFull=  0.000000 cShort=  0.000000 cLong=  1.000000
 NAtoms=   25 NActive=   25 NUniq=   25 SFac= 1.00D+00 NAtFMM=   60 NAOKFM=F Big=F
 Integral buffers will be    131072 words long.
 Raffenetti 1 integral format.
 Two-electron integral symmetry is turned off.
 R6Disp:  Grimme-D2 Dispersion energy=       -0.0139979234 Hartrees.
 Nuclear repulsion after empirical dispersion term =     1098.3709622545 Hartrees.
 ------------------------------------------------------------------------------
 Polarizable Continuum Model (PCM)
 =================================
 Model                : PCM.
 Atomic radii         : UFF (Universal Force Field).
 Polarization charges : Total charges.
 Charge compensation  : None.
 Solution method      : On-the-fly selection.
 Cavity type          : Scaled VdW (van der Waals Surface) (Alpha=1.100).
 Cavity algorithm     : GePol (No added spheres)
                        Default sphere list used, NSphG=   25.
                        Lebedev-Laikov grids with approx.  5.0 points / Ang**2.
                        Smoothing algorithm: York/Karplus (Gamma=1.0000).
                        Polarization charges: spherical gaussians, with
                                              point-specific exponents (IZeta= 3).
                        Self-potential: point-specific (ISelfS= 7).
                        Self-field    : sphere-specific E.n sum rule (ISelfD= 2).
 1st derivatives      : Analytical E(r).r(x)/FMM algorithm (CHGder, D1EAlg=3).
                        Cavity 1st derivative terms included.
 Solvent              : CarbonTetraChloride, Eps=   2.228000 Eps(inf)=   2.131892
 ------------------------------------------------------------------------------
 GePol: Number of generator spheres                  =      25
 GePol: Total number of spheres                      =      25
 GePol: Number of exposed spheres                    =      25 (100.00%)
 GePol: Number of points                             =    2195
 GePol: Average weight of points                     =       0.12
 GePol: Minimum weight of points                     =   0.14D-10
 GePol: Maximum weight of points                     =    0.20577
 GePol: Number of points with low weight             =     142
 GePol: Fraction of low-weight points (<1% of avg)   =       6.47%
 GePol: Cavity surface area                          =    273.912 Ang**2
 GePol: Cavity volume                                =    293.267 Ang**3
 Leave Link  301 at Mon Jul 13 15:22:03 2020, MaxMem=  7784628224 cpu:               0.8 elap:               0.1
 (Enter /gpfs/loomis/apps/avx/software/Gaussian/16-C.01_AVX/g16/l302.exe)
 NPDir=0 NMtPBC=     1 NCelOv=     1 NCel=       1 NClECP=     1 NCelD=      1
         NCelK=      1 NCelE2=     1 NClLst=     1 CellRange=     0.0.
 One-electron integrals computed using PRISM.
 NBasis=   273 RedAO= T EigKep=  3.07D-04  NBF=   273
 NBsUse=   273 1.00D-06 EigRej= -1.00D+00 NBFU=   273
 Precomputing XC quadrature grid using
 IXCGrd= 4 IRadAn=           5 IRanWt=          -1 IRanGd=           0 AccXCQ= 0.00D+00.
 Generated NRdTot=       0 NPtTot=           0 NUsed=           0 NTot=          32
 NSgBfM=   288   288   288   288   288 MxSgAt=    25 MxSgA2=    25.
 Leave Link  302 at Mon Jul 13 15:22:03 2020, MaxMem=  7784628224 cpu:               3.0 elap:               0.3
 (Enter /gpfs/loomis/apps/avx/software/Gaussian/16-C.01_AVX/g16/l303.exe)
 DipDrv:  MaxL=1.
 Leave Link  303 at Mon Jul 13 15:22:03 2020, MaxMem=  7784628224 cpu:               0.6 elap:               0.1
 (Enter /gpfs/loomis/apps/avx/software/Gaussian/16-C.01_AVX/g16/l308.exe)
 Leave Link  308 at Mon Jul 13 15:22:03 2020, MaxMem=  7784628224 cpu:               0.7 elap:               0.1
 (Enter /gpfs/loomis/apps/avx/software/Gaussian/16-C.01_AVX/g16/l401.exe)
 ExpMin= 1.22D-01 ExpMax= 1.11D+05 ExpMxC= 1.07D+03 IAcc=3 IRadAn=         5 AccDes= 0.00D+00
 Harris functional with IExCor= 4639 and IRadAn=       5 diagonalized for initial guess.
 HarFok:  IExCor= 4639 AccDes= 0.00D+00 IRadAn=         5 IDoV= 1 UseB2=F ITyADJ=14
 ICtDFT=  3500011 ScaDFX=  1.000000  1.000000  1.000000  1.000000
 FoFCou: FMM=F IPFlag=           0 FMFlag=      100000 FMFlg1=           0
         NFxFlg=           0 DoJE=T BraDBF=F KetDBF=T FulRan=T
         wScrn=  0.000000 ICntrl=       500 IOpCl=  0 I1Cent=   200000004 NGrid=           0
         NMat0=    1 NMatS0=      1 NMatT0=    0 NMatD0=    1 NMtDS0=    0 NMtDT0=    0
 Symmetry not used in FoFCou.
 Harris En= -994.458575660335    
 JPrj=0 DoOrth=F DoCkMO=F.
 Leave Link  401 at Mon Jul 13 15:22:05 2020, MaxMem=  7784628224 cpu:              13.5 elap:               1.4
 (Enter /gpfs/loomis/apps/avx/software/Gaussian/16-C.01_AVX/g16/l502.exe)
 Two-electron integral symmetry not used.
 Closed shell SCF:
 Using DIIS extrapolation, IDIIS=  1040.
 NGot=  7784628224 LenX=  7784455381 LenY=  7784371419
 Requested convergence on RMS density matrix=1.00D-08 within 128 cycles.
 Requested convergence on MAX density matrix=1.00D-06.
 Requested convergence on             energy=1.00D-06.
 No special actions if energy rises.
 Fock matrices will be formed incrementally for  20 cycles.

 Cycle   1  Pass 1  IDiag  1:
 FoFJK:  IHMeth= 1 ICntrl=       0 DoSepK=T KAlg= 0 I1Cent=           0 FoldK=F
 IRaf=         1 NMat=       1 IRICut=       1 DoRegI=T DoRafI=F ISym2E= 0 IDoP0=0 IntGTp=1.
 FoFCou: FMM=F IPFlag=           0 FMFlag=      100000 FMFlg1=           0
         NFxFlg=           0 DoJE=T BraDBF=F KetDBF=F FulRan=T
         wScrn=  0.000000 ICntrl=       500 IOpCl=  0 I1Cent=           0 NGrid=           0
         NMat0=    1 NMatS0=      1 NMatT0=    0 NMatD0=    1 NMtDS0=    0 NMtDT0=    0
 Symmetry not used in FoFCou.
 Inv3:  Mode=1 IEnd=    14454075.
 Iteration    1 A*A^-1 deviation from unit magnitude is 4.44D-15 for   2184.
 Iteration    1 A*A^-1 deviation from orthogonality  is 2.11D-15 for   2184   2086.
 Iteration    1 A^-1*A deviation from unit magnitude is 5.11D-15 for   2184.
 Iteration    1 A^-1*A deviation from orthogonality  is 2.18D-15 for   2180   1917.
 E= -1028.56240961143    
 DIIS: error= 3.91D-02 at cycle   1 NSaved=   1.
 NSaved= 1 IEnMin= 1 EnMin= -1028.56240961143     IErMin= 1 ErrMin= 3.91D-02
 ErrMax= 3.91D-02  0.00D+00 EMaxC= 1.00D-01 BMatC= 3.96D-01 BMatP= 3.96D-01
 IDIUse=3 WtCom= 6.09D-01 WtEn= 3.91D-01
 Coeff-Com:  0.100D+01
 Coeff-En:   0.100D+01
 Coeff:      0.100D+01
 Gap=     0.329 Goal=   None    Shift=    0.000
 GapD=    0.329 DampG=1.000 DampE=0.500 DampFc=0.5000 IDamp=-1.
 Damping current iteration by 5.00D-01
 RMSDP=3.59D-03 MaxDP=2.32D-01              OVMax= 1.84D-01

 Cycle   2  Pass 1  IDiag  1:
 RMSU=  1.79D-03    CP:  9.94D-01
 E= -1028.68331695974     Delta-E=       -0.120907348312 Rises=F Damp=T
 DIIS: error= 1.13D-02 at cycle   2 NSaved=   2.
 NSaved= 2 IEnMin= 2 EnMin= -1028.68331695974     IErMin= 2 ErrMin= 1.13D-02
 ErrMax= 1.13D-02  0.00D+00 EMaxC= 1.00D-01 BMatC= 5.83D-02 BMatP= 3.96D-01
 IDIUse=3 WtCom= 8.87D-01 WtEn= 1.13D-01
 Coeff-Com: -0.279D+00 0.128D+01
 Coeff-En:   0.000D+00 0.100D+01
 Coeff:     -0.247D+00 0.125D+01
 Gap=     0.293 Goal=   None    Shift=    0.000
 RMSDP=1.16D-03 MaxDP=2.54D-02 DE=-1.21D-01 OVMax= 1.22D-01

 Cycle   3  Pass 1  IDiag  1:
 RMSU=  1.11D-03    CP:  9.92D-01  1.18D+00
 E= -1028.79153607439     Delta-E=       -0.108219114651 Rises=F Damp=F
 DIIS: error= 7.25D-03 at cycle   3 NSaved=   3.
 NSaved= 3 IEnMin= 3 EnMin= -1028.79153607439     IErMin= 3 ErrMin= 7.25D-03
 ErrMax= 7.25D-03  0.00D+00 EMaxC= 1.00D-01 BMatC= 1.54D-02 BMatP= 5.83D-02
 IDIUse=3 WtCom= 9.28D-01 WtEn= 7.25D-02
 Coeff-Com: -0.203D+00 0.495D+00 0.708D+00
 Coeff-En:   0.000D+00 0.000D+00 0.100D+01
 Coeff:     -0.188D+00 0.459D+00 0.729D+00
 Gap=     0.247 Goal=   None    Shift=    0.000
 RMSDP=5.55D-04 MaxDP=2.10D-02 DE=-1.08D-01 OVMax= 4.11D-02

 Cycle   4  Pass 1  IDiag  1:
 RMSU=  4.41D-04    CP:  9.90D-01  1.33D+00  8.35D-01
 E= -1028.80606332921     Delta-E=       -0.014527254823 Rises=F Damp=F
 DIIS: error= 2.26D-03 at cycle   4 NSaved=   4.
 NSaved= 4 IEnMin= 4 EnMin= -1028.80606332921     IErMin= 4 ErrMin= 2.26D-03
 ErrMax= 2.26D-03  0.00D+00 EMaxC= 1.00D-01 BMatC= 1.99D-03 BMatP= 1.54D-02
 IDIUse=3 WtCom= 9.77D-01 WtEn= 2.26D-02
 Coeff-Com: -0.714D-01 0.141D+00 0.350D+00 0.580D+00
 Coeff-En:   0.000D+00 0.000D+00 0.000D+00 0.100D+01
 Coeff:     -0.698D-01 0.138D+00 0.342D+00 0.589D+00
 Gap=     0.247 Goal=   None    Shift=    0.000
 RMSDP=1.78D-04 MaxDP=1.04D-02 DE=-1.45D-02 OVMax= 1.22D-02

 Cycle   5  Pass 1  IDiag  1:
 RMSU=  1.10D-04    CP:  9.90D-01  1.35D+00  9.10D-01  7.49D-01
 E= -1028.80819471068     Delta-E=       -0.002131381469 Rises=F Damp=F
 DIIS: error= 4.64D-04 at cycle   5 NSaved=   5.
 NSaved= 5 IEnMin= 5 EnMin= -1028.80819471068     IErMin= 5 ErrMin= 4.64D-04
 ErrMax= 4.64D-04  0.00D+00 EMaxC= 1.00D-01 BMatC= 5.73D-05 BMatP= 1.99D-03
 IDIUse=3 WtCom= 9.95D-01 WtEn= 4.64D-03
 Coeff-Com: -0.165D-02-0.293D-02 0.335D-01 0.157D+00 0.814D+00
 Coeff-En:   0.000D+00 0.000D+00 0.000D+00 0.000D+00 0.100D+01
 Coeff:     -0.164D-02-0.292D-02 0.333D-01 0.156D+00 0.815D+00
 Gap=     0.247 Goal=   None    Shift=    0.000
 RMSDP=5.48D-05 MaxDP=1.79D-03 DE=-2.13D-03 OVMax= 5.51D-03

 Cycle   6  Pass 1  IDiag  1:
 RMSU=  3.51D-05    CP:  9.90D-01  1.35D+00  9.28D-01  8.30D-01  1.09D+00
 E= -1028.80832055358     Delta-E=       -0.000125842899 Rises=F Damp=F
 DIIS: error= 2.19D-04 at cycle   6 NSaved=   6.
 NSaved= 6 IEnMin= 6 EnMin= -1028.80832055358     IErMin= 6 ErrMin= 2.19D-04
 ErrMax= 2.19D-04  0.00D+00 EMaxC= 1.00D-01 BMatC= 1.11D-05 BMatP= 5.73D-05
 IDIUse=3 WtCom= 9.98D-01 WtEn= 2.19D-03
 Coeff-Com:  0.155D-01-0.320D-01-0.612D-01-0.667D-01 0.230D+00 0.915D+00
 Coeff-En:   0.000D+00 0.000D+00 0.000D+00 0.000D+00 0.000D+00 0.100D+01
 Coeff:      0.154D-01-0.319D-01-0.611D-01-0.666D-01 0.229D+00 0.915D+00
 Gap=     0.248 Goal=   None    Shift=    0.000
 RMSDP=3.32D-05 MaxDP=1.56D-03 DE=-1.26D-04 OVMax= 3.72D-03

 Cycle   7  Pass 1  IDiag  1:
 RMSU=  1.66D-05    CP:  9.90D-01  1.35D+00  9.38D-01  8.62D-01  1.27D+00
                    CP:  1.30D+00
 E= -1028.80835391013     Delta-E=       -0.000033356550 Rises=F Damp=F
 DIIS: error= 1.24D-04 at cycle   7 NSaved=   7.
 NSaved= 7 IEnMin= 7 EnMin= -1028.80835391013     IErMin= 7 ErrMin= 1.24D-04
 ErrMax= 1.24D-04  0.00D+00 EMaxC= 1.00D-01 BMatC= 2.28D-06 BMatP= 1.11D-05
 IDIUse=3 WtCom= 9.99D-01 WtEn= 1.24D-03
 Coeff-Com:  0.663D-02-0.126D-01-0.291D-01-0.493D-01-0.114D-01 0.382D+00
 Coeff-Com:  0.714D+00
 Coeff-En:   0.000D+00 0.000D+00 0.000D+00 0.000D+00 0.000D+00 0.000D+00
 Coeff-En:   0.100D+01
 Coeff:      0.662D-02-0.126D-01-0.291D-01-0.492D-01-0.114D-01 0.381D+00
 Coeff:      0.714D+00
 Gap=     0.248 Goal=   None    Shift=    0.000
 RMSDP=1.17D-05 MaxDP=4.83D-04 DE=-3.34D-05 OVMax= 1.52D-03

 Cycle   8  Pass 1  IDiag  1:
 RMSU=  6.93D-06    CP:  9.90D-01  1.35D+00  9.40D-01  8.67D-01  1.30D+00
                    CP:  1.50D+00  1.17D+00
 E= -1028.80835944432     Delta-E=       -0.000005534185 Rises=F Damp=F
 DIIS: error= 5.14D-05 at cycle   8 NSaved=   8.
 NSaved= 8 IEnMin= 8 EnMin= -1028.80835944432     IErMin= 8 ErrMin= 5.14D-05
 ErrMax= 5.14D-05  0.00D+00 EMaxC= 1.00D-01 BMatC= 3.92D-07 BMatP= 2.28D-06
 IDIUse=1 WtCom= 1.00D+00 WtEn= 0.00D+00
 Coeff-Com: -0.152D-02 0.332D-02 0.611D-02 0.258D-02-0.412D-01-0.101D+00
 Coeff-Com:  0.208D+00 0.924D+00
 Coeff:     -0.152D-02 0.332D-02 0.611D-02 0.258D-02-0.412D-01-0.101D+00
 Coeff:      0.208D+00 0.924D+00
 Gap=     0.248 Goal=   None    Shift=    0.000
 RMSDP=6.79D-06 MaxDP=1.77D-04 DE=-5.53D-06 OVMax= 1.06D-03

 Cycle   9  Pass 1  IDiag  1:
 RMSU=  2.83D-06    CP:  9.90D-01  1.35D+00  9.40D-01  8.67D-01  1.32D+00
                    CP:  1.61D+00  1.43D+00  1.24D+00
 E= -1028.80836087972     Delta-E=       -0.000001435408 Rises=F Damp=F
 DIIS: error= 2.32D-05 at cycle   9 NSaved=   9.
 NSaved= 9 IEnMin= 9 EnMin= -1028.80836087972     IErMin= 9 ErrMin= 2.32D-05
 ErrMax= 2.32D-05  0.00D+00 EMaxC= 1.00D-01 BMatC= 6.04D-08 BMatP= 3.92D-07
 IDIUse=1 WtCom= 1.00D+00 WtEn= 0.00D+00
 Coeff-Com: -0.116D-02 0.228D-02 0.529D-02 0.695D-02-0.829D-02-0.877D-01
 Coeff-Com: -0.432D-01 0.236D+00 0.890D+00
 Coeff:     -0.116D-02 0.228D-02 0.529D-02 0.695D-02-0.829D-02-0.877D-01
 Coeff:     -0.432D-01 0.236D+00 0.890D+00
 Gap=     0.248 Goal=   None    Shift=    0.000
 RMSDP=3.25D-06 MaxDP=9.14D-05 DE=-1.44D-06 OVMax= 5.75D-04

 Cycle  10  Pass 1  IDiag  1:
 RMSU=  1.35D-06    CP:  9.90D-01  1.35D+00  9.40D-01  8.67D-01  1.33D+00
                    CP:  1.65D+00  1.53D+00  1.45D+00  1.30D+00
 E= -1028.80836118728     Delta-E=       -0.000000307553 Rises=F Damp=F
 DIIS: error= 1.11D-05 at cycle  10 NSaved=  10.
 NSaved=10 IEnMin=10 EnMin= -1028.80836118728     IErMin=10 ErrMin= 1.11D-05
 ErrMax= 1.11D-05  0.00D+00 EMaxC= 1.00D-01 BMatC= 2.39D-08 BMatP= 6.04D-08
 IDIUse=1 WtCom= 1.00D+00 WtEn= 0.00D+00
 Coeff-Com: -0.910D-04 0.109D-03 0.779D-03 0.224D-02 0.643D-02-0.153D-01
 Coeff-Com: -0.634D-01-0.135D+00 0.402D+00 0.802D+00
 Coeff:     -0.910D-04 0.109D-03 0.779D-03 0.224D-02 0.643D-02-0.153D-01
 Coeff:     -0.634D-01-0.135D+00 0.402D+00 0.802D+00
 Gap=     0.248 Goal=   None    Shift=    0.000
 RMSDP=1.78D-06 MaxDP=4.03D-05 DE=-3.08D-07 OVMax= 2.84D-04

 Cycle  11  Pass 1  IDiag  1:
 RMSU=  6.36D-07    CP:  9.90D-01  1.35D+00  9.40D-01  8.68D-01  1.33D+00
                    CP:  1.67D+00  1.58D+00  1.56D+00  1.66D+00  1.12D+00
 E= -1028.80836126619     Delta-E=       -0.000000078913 Rises=F Damp=F
 DIIS: error= 5.04D-06 at cycle  11 NSaved=  11.
 NSaved=11 IEnMin=11 EnMin= -1028.80836126619     IErMin=11 ErrMin= 5.04D-06
 ErrMax= 5.04D-06  0.00D+00 EMaxC= 1.00D-01 BMatC= 3.01D-09 BMatP= 2.39D-08
 IDIUse=1 WtCom= 1.00D+00 WtEn= 0.00D+00
 Coeff-Com:  0.285D-03-0.586D-03-0.105D-02-0.102D-02 0.512D-02 0.138D-01
 Coeff-Com: -0.108D-01-0.998D-01-0.165D-01 0.238D+00 0.872D+00
 Coeff:      0.285D-03-0.586D-03-0.105D-02-0.102D-02 0.512D-02 0.138D-01
 Coeff:     -0.108D-01-0.998D-01-0.165D-01 0.238D+00 0.872D+00
 Gap=     0.248 Goal=   None    Shift=    0.000
 RMSDP=6.72D-07 MaxDP=2.24D-05 DE=-7.89D-08 OVMax= 1.28D-04

 Cycle  12  Pass 1  IDiag  1:
 RMSU=  2.44D-07    CP:  9.90D-01  1.35D+00  9.40D-01  8.68D-01  1.33D+00
                    CP:  1.67D+00  1.60D+00  1.59D+00  1.80D+00  1.37D+00
                    CP:  1.11D+00
 E= -1028.80836127895     Delta-E=       -0.000000012762 Rises=F Damp=F
 DIIS: error= 1.28D-06 at cycle  12 NSaved=  12.
 NSaved=12 IEnMin=12 EnMin= -1028.80836127895     IErMin=12 ErrMin= 1.28D-06
 ErrMax= 1.28D-06  0.00D+00 EMaxC= 1.00D-01 BMatC= 9.27D-10 BMatP= 3.01D-09
 IDIUse=1 WtCom= 1.00D+00 WtEn= 0.00D+00
 Coeff-Com:  0.135D-03-0.264D-03-0.574D-03-0.904D-03 0.115D-02 0.890D-02
 Coeff-Com:  0.773D-02-0.199D-01-0.877D-01-0.914D-01 0.374D+00 0.809D+00
 Coeff:      0.135D-03-0.264D-03-0.574D-03-0.904D-03 0.115D-02 0.890D-02
 Coeff:      0.773D-02-0.199D-01-0.877D-01-0.914D-01 0.374D+00 0.809D+00
 Gap=     0.248 Goal=   None    Shift=    0.000
 RMSDP=3.59D-07 MaxDP=9.09D-06 DE=-1.28D-08 OVMax= 5.49D-05

 Cycle  13  Pass 1  IDiag  1:
 RMSU=  9.49D-08    CP:  9.90D-01  1.35D+00  9.40D-01  8.68D-01  1.33D+00
                    CP:  1.68D+00  1.60D+00  1.60D+00  1.88D+00  1.46D+00
                    CP:  1.36D+00  1.07D+00
 E= -1028.80836128151     Delta-E=       -0.000000002553 Rises=F Damp=F
 DIIS: error= 5.69D-07 at cycle  13 NSaved=  13.
 NSaved=13 IEnMin=13 EnMin= -1028.80836128151     IErMin=13 ErrMin= 5.69D-07
 ErrMax= 5.69D-07  0.00D+00 EMaxC= 1.00D-01 BMatC= 5.92D-11 BMatP= 9.27D-10
 IDIUse=1 WtCom= 1.00D+00 WtEn= 0.00D+00
 Coeff-Com:  0.104D-05 0.143D-05-0.217D-04-0.140D-03-0.207D-03 0.862D-03
 Coeff-Com:  0.339D-02 0.694D-02-0.189D-01-0.598D-01-0.160D-02 0.222D+00
 Coeff-Com:  0.848D+00
 Coeff:      0.104D-05 0.143D-05-0.217D-04-0.140D-03-0.207D-03 0.862D-03
 Coeff:      0.339D-02 0.694D-02-0.189D-01-0.598D-01-0.160D-02 0.222D+00
 Coeff:      0.848D+00
 Gap=     0.248 Goal=   None    Shift=    0.000
 RMSDP=7.90D-08 MaxDP=2.39D-06 DE=-2.55D-09 OVMax= 1.10D-05

 Cycle  14  Pass 1  IDiag  1:
 RMSU=  3.87D-08    CP:  9.90D-01  1.35D+00  9.40D-01  8.68D-01  1.33D+00
                    CP:  1.68D+00  1.60D+00  1.60D+00  1.89D+00  1.48D+00
                    CP:  1.41D+00  1.20D+00  1.06D+00
 E= -1028.80836128166     Delta-E=       -0.000000000160 Rises=F Damp=F
 DIIS: error= 2.31D-07 at cycle  14 NSaved=  14.
 NSaved=14 IEnMin=14 EnMin= -1028.80836128166     IErMin=14 ErrMin= 2.31D-07
 ErrMax= 2.31D-07  0.00D+00 EMaxC= 1.00D-01 BMatC= 1.50D-11 BMatP= 5.92D-11
 IDIUse=1 WtCom= 1.00D+00 WtEn= 0.00D+00
 Coeff-Com: -0.142D-04 0.294D-04 0.537D-04 0.335D-04-0.212D-03-0.533D-03
 Coeff-Com:  0.715D-03 0.542D-02 0.119D-02-0.175D-01-0.417D-01 0.393D-02
 Coeff-Com:  0.394D+00 0.654D+00
 Coeff:     -0.142D-04 0.294D-04 0.537D-04 0.335D-04-0.212D-03-0.533D-03
 Coeff:      0.715D-03 0.542D-02 0.119D-02-0.175D-01-0.417D-01 0.393D-02
 Coeff:      0.394D+00 0.654D+00
 Gap=     0.248 Goal=   None    Shift=    0.000
 RMSDP=2.33D-08 MaxDP=6.05D-07 DE=-1.60D-10 OVMax= 2.02D-06

 Cycle  15  Pass 1  IDiag  1:
 RMSU=  1.42D-08    CP:  9.90D-01  1.35D+00  9.40D-01  8.68D-01  1.33D+00
                    CP:  1.68D+00  1.60D+00  1.60D+00  1.89D+00  1.48D+00
                    CP:  1.43D+00  1.23D+00  1.19D+00  9.28D-01
 E= -1028.80836128168     Delta-E=       -0.000000000019 Rises=F Damp=F
 DIIS: error= 6.99D-08 at cycle  15 NSaved=  15.
 NSaved=15 IEnMin=15 EnMin= -1028.80836128168     IErMin=15 ErrMin= 6.99D-08
 ErrMax= 6.99D-08  0.00D+00 EMaxC= 1.00D-01 BMatC= 1.04D-12 BMatP= 1.50D-11
 IDIUse=1 WtCom= 1.00D+00 WtEn= 0.00D+00
 Coeff-Com: -0.385D-05 0.724D-05 0.189D-04 0.345D-04-0.261D-04-0.337D-03
 Coeff-Com: -0.531D-03 0.817D-04 0.408D-02 0.730D-02-0.915D-02-0.427D-01
 Coeff-Com: -0.407D-01 0.145D+00 0.937D+00
 Coeff:     -0.385D-05 0.724D-05 0.189D-04 0.345D-04-0.261D-04-0.337D-03
 Coeff:     -0.531D-03 0.817D-04 0.408D-02 0.730D-02-0.915D-02-0.427D-01
 Coeff:     -0.407D-01 0.145D+00 0.937D+00
 Gap=     0.248 Goal=   None    Shift=    0.000
 RMSDP=9.86D-09 MaxDP=1.95D-07 DE=-1.86D-11 OVMax= 1.08D-06

 Error on total polarization charges =  0.00852
 SCF Done:  E(RwB97XD) =  -1028.80836128     A.U. after   15 cycles
            NFock= 15  Conv=0.99D-08     -V/T= 2.0049
 KE= 1.023755196572D+03 PE=-4.608759421643D+03 EE= 1.457824901535D+03
 Leave Link  502 at Mon Jul 13 15:23:28 2020, MaxMem=  7784628224 cpu:             821.7 elap:              83.0
 (Enter /gpfs/loomis/apps/avx/software/Gaussian/16-C.01_AVX/g16/l801.exe)
 DoSCS=F DFT=T ScalE2(SS,OS)=  1.000000  1.000000
 ExpMin= 1.22D-01 ExpMax= 1.11D+05 ExpMxC= 1.07D+03 IAcc=3 IRadAn=         5 AccDes= 0.00D+00
 HarFok:  IExCor=  205 AccDes= 0.00D+00 IRadAn=         5 IDoV=-2 UseB2=F ITyADJ=14
 ICtDFT= 12500011 ScaDFX=  1.000000  1.000000  1.000000  1.000000
 Largest valence mixing into a core orbital is  9.53D-05
 Largest core mixing into a valence orbital is  3.05D-05
 Range of M.O.s used for correlation:    21   273
 NBasis=   273 NAE=    59 NBE=    59 NFC=    20 NFV=     0
 NROrb=    253 NOA=    39 NOB=    39 NVA=   214 NVB=   214

 **** Warning!!: The largest alpha MO coefficient is  0.11084579D+02

 Leave Link  801 at Mon Jul 13 15:23:28 2020, MaxMem=  7784628224 cpu:               1.9 elap:               0.2
 (Enter /gpfs/loomis/apps/avx/software/Gaussian/16-C.01_AVX/g16/l914.exe)
 RHF ground state
 Keep R1, R2, and R3 ints in memory in canonical form, NReq=4262515490.
 FoFCou: FMM=F IPFlag=           0 FMFlag=           0 FMFlg1=           0
         NFxFlg=           0 DoJE=F BraDBF=F KetDBF=F FulRan=T
         wScrn=  0.000000 ICntrl=       600 IOpCl=  0 I1Cent=           0 NGrid=           0
         NMat0=    1 NMatS0=  37401 NMatT0=    0 NMatD0=    1 NMtDS0=    0 NMtDT0=    0
 Symmetry not used in FoFCou.
 Two-electron integral symmetry not used.
 MDV=  7784628224 DFT=T DoStab=F Mixed=T DoRPA=T DoScal=F NonHer=T
 NEqPCM:  Using equilibrium solvation (IEInf=0, Eps=   2.2280, EpsInf=   2.1319)
 Making orbital integer symmetry assigments:
    12 initial guesses have been made.
 Convergence on wavefunction:    0.000001000000000
 Davidson Disk Diagonalization:  ConvIn= 1.00D-06 SkipCon=T Conv= 1.00D-06.
 Max sub-space:  2000 roots to seek:    12 dimension of matrix:        16692
 Iteration     1 Dimension    12 NMult     0 NNew     12
 CISAX will form    12 AO SS matrices at one time.
 NMat=    12 NSing=    12 JSym2X= 0.
 New state      2 was old state      5
 New state      3 was old state      2
 Excitation Energies [eV] at current iteration:
 Root      1 :     3.628436641401577
 Root      2 :     4.353810176655354
 Root      3 :     4.900161687908408
 Root      4 :     5.229350791271673
 Root      5 :     5.575843602132434
 Root      6 :     5.908945241595741
 Root      7 :     6.156545986025820
 Root      8 :     6.348858069835480
 Root      9 :     6.653529626584053
 Root     10 :     6.911641386425774
 Root     11 :     7.123917214818611
 Root     12 :     7.433156970750773
 Iteration     2 Dimension    18 NMult    12 NNew      6
 CISAX will form     6 AO SS matrices at one time.
 NMat=     6 NSing=     6 JSym2X= 0.
 Root      1 not converged, maximum delta is    0.048668281114573
 Root      2 not converged, maximum delta is    0.097354255902787
 Root      3 not converged, maximum delta is    0.074050255055985
 Excitation Energies [eV] at current iteration:
 Root      1 :     3.126628567582259   Change is   -0.501808073819318
 Root      2 :     4.144001743398131   Change is   -0.209808433257223
 Root      3 :     4.395703258322361   Change is   -0.504458429586047
 Iteration     3 Dimension    24 NMult    18 NNew      6
 CISAX will form     6 AO SS matrices at one time.
 NMat=     6 NSing=     6 JSym2X= 0.
 Root      1 not converged, maximum delta is    0.021282289917510
 Root      2 not converged, maximum delta is    0.031998191062197
 Root      3 not converged, maximum delta is    0.019918749491797
 Excitation Energies [eV] at current iteration:
 Root      1 :     3.089384399666901   Change is   -0.037244167915358
 Root      2 :     4.124605639923200   Change is   -0.019396103474931
 Root      3 :     4.369863735778149   Change is   -0.025839522544213
 Iteration     4 Dimension    30 NMult    24 NNew      6
 CISAX will form     6 AO SS matrices at one time.
 NMat=     6 NSing=     6 JSym2X= 0.
 Root      1 not converged, maximum delta is    0.007935524479861
 Root      2 not converged, maximum delta is    0.010389098271662
 Root      3 not converged, maximum delta is    0.008973716281053
 Excitation Energies [eV] at current iteration:
 Root      1 :     3.083811417552748   Change is   -0.005572982114153
 Root      2 :     4.122781860128790   Change is   -0.001823779794409
 Root      3 :     4.365093249837412   Change is   -0.004770485940737
 Iteration     5 Dimension    36 NMult    30 NNew      6
 CISAX will form     6 AO SS matrices at one time.
 NMat=     6 NSing=     6 JSym2X= 0.
 Root      1 not converged, maximum delta is    0.002454359754541
 Root      2 not converged, maximum delta is    0.001895249675967
 Root      3 not converged, maximum delta is    0.002562508663843
 Excitation Energies [eV] at current iteration:
 Root      1 :     3.083175521862021   Change is   -0.000635895690727
 Root      2 :     4.122628424331888   Change is   -0.000153435796902
 Root      3 :     4.364601933679859   Change is   -0.000491316157553
 Iteration     6 Dimension    42 NMult    36 NNew      6
 CISAX will form     6 AO SS matrices at one time.
 NMat=     6 NSing=     6 JSym2X= 0.
 Root      1 not converged, maximum delta is    0.000313292079555
 Root      2 not converged, maximum delta is    0.000254132300509
 Root      3 not converged, maximum delta is    0.001162901581581
 Excitation Energies [eV] at current iteration:
 Root      1 :     3.083133755720694   Change is   -0.000041766141327
 Root      2 :     4.122619757704111   Change is   -0.000008666627778
 Root      3 :     4.364544023852310   Change is   -0.000057909827549
 Iteration     7 Dimension    48 NMult    42 NNew      6
 CISAX will form     6 AO SS matrices at one time.
 NMat=     6 NSing=     6 JSym2X= 0.
 Root      1 not converged, maximum delta is    0.000094921617890
 Root      2 not converged, maximum delta is    0.000111346026019
 Root      3 not converged, maximum delta is    0.000433230373369
 Excitation Energies [eV] at current iteration:
 Root      1 :     3.083130733000748   Change is   -0.000003022719946
 Root      2 :     4.122619116183399   Change is   -0.000000641520712
 Root      3 :     4.364535665917808   Change is   -0.000008357934503
 Iteration     8 Dimension    54 NMult    48 NNew      6
 CISAX will form     6 AO SS matrices at one time.
 NMat=     6 NSing=     6 JSym2X= 0.
 Root      1 not converged, maximum delta is    0.000027869654467
 Root      2 not converged, maximum delta is    0.000030746030230
 Root      3 not converged, maximum delta is    0.000142108375743
 Excitation Energies [eV] at current iteration:
 Root      1 :     3.083130554958732   Change is   -0.000000178042016
 Root      2 :     4.122619062573164   Change is   -0.000000053610235
 Root      3 :     4.364534879064979   Change is   -0.000000786852829
 Iteration     9 Dimension    60 NMult    54 NNew      6
 CISAX will form     6 AO SS matrices at one time.
 NMat=     6 NSing=     6 JSym2X= 0.
 Root      1 not converged, maximum delta is    0.000005349613381
 Root      2 not converged, maximum delta is    0.000006912296915
 Root      3 not converged, maximum delta is    0.000060064808370
 Excitation Energies [eV] at current iteration:
 Root      1 :     3.083130545475485   Change is   -0.000000009483247
 Root      2 :     4.122619059132752   Change is   -0.000000003440412
 Root      3 :     4.364534794188153   Change is   -0.000000084876826
 Iteration    10 Dimension    66 NMult    60 NNew      6
 CISAX will form     6 AO SS matrices at one time.
 NMat=     6 NSing=     6 JSym2X= 0.
 Root      1 not converged, maximum delta is    0.000001788057471
 Root      2 not converged, maximum delta is    0.000003659225503
 Root      3 not converged, maximum delta is    0.000029214014196
 Excitation Energies [eV] at current iteration:
 Root      1 :     3.083130544878832   Change is   -0.000000000596652
 Root      2 :     4.122619058837910   Change is   -0.000000000294842
 Root      3 :     4.364534778672368   Change is   -0.000000015515784
 Iteration    11 Dimension    72 NMult    66 NNew      6
 CISAX will form     6 AO SS matrices at one time.
 NMat=     6 NSing=     6 JSym2X= 0.
 Root      1 has converged.
 Root      2 not converged, maximum delta is    0.000001397734449
 Root      3 not converged, maximum delta is    0.000007140339321
 Excitation Energies [eV] at current iteration:
 Root      1 :     3.083130544835504   Change is   -0.000000000043329
 Root      2 :     4.122619058795317   Change is   -0.000000000042593
 Root      3 :     4.364534776855492   Change is   -0.000000001816876
 Iteration    12 Dimension    76 NMult    72 NNew      4
 CISAX will form     4 AO SS matrices at one time.
 NMat=     4 NSing=     4 JSym2X= 0.
 Root      1 has converged.
 Root      2 has converged.
 Root      3 not converged, maximum delta is    0.000001113175926
 Excitation Energies [eV] at current iteration:
 Root      1 :     3.083130544835158   Change is   -0.000000000000347
 Root      2 :     4.122619058789794   Change is   -0.000000000005523
 Root      3 :     4.364534776724192   Change is   -0.000000000131301
 Iteration    13 Dimension    78 NMult    76 NNew      2
 CISAX will form     2 AO SS matrices at one time.
 NMat=     2 NSing=     2 JSym2X= 0.
 Root      1 has converged.
 Root      2 has converged.
 Root      3 has converged.
 Excitation Energies [eV] at current iteration:
 Root      1 :     3.083130544834944   Change is   -0.000000000000213
 Root      2 :     4.122619058789794   Change is    0.000000000000000
 Root      3 :     4.364534776716205   Change is   -0.000000000007986
 Convergence achieved on expansion vectors.
 ***********************************************************************
 Excited states from <AA,BB:AA,BB> singles matrix:
 ***********************************************************************
 
 1PDM for each excited state written to RWF  633
 Ground to excited state transition densities written to RWF  633
 Ground to excited state transition electric dipole moments (Au):
       state          X           Y           Z        Dip. S.      Osc.
         1         1.1969     -2.1492     -0.0000      6.0517      0.4571
         2         0.0000      0.0000      0.0053      0.0000      0.0000
         3        -1.6831      0.9339      0.0000      3.7051      0.3962
 Ground to excited state transition velocity dipole moments (Au):
       state          X           Y           Z        Dip. S.      Osc.
         1        -0.1307      0.2453      0.0000      0.0772      0.4544
         2        -0.0000     -0.0000     -0.0007      0.0000      0.0000
         3         0.2648     -0.1399     -0.0000      0.0897      0.3727
 Ground to excited state transition magnetic dipole moments (Au):
       state          X           Y           Z
         1         0.0000      0.0000     -1.0814
         2         0.1815      0.0266      0.0000
         3        -0.0000      0.0000     -1.0803
 Ground to excited state transition velocity quadrupole moments (Au):
       state          XX          YY          ZZ          XY          XZ          YZ
         1        -0.0346      0.6046     -0.0134     -0.2474     -0.0000      0.0000
         2         0.0000     -0.0000      0.0000      0.0000     -0.0116      0.0036
         3        -0.3810      0.5643     -0.0004      0.0255     -0.0000      0.0000
 <0|del|b> * <b|rxdel|0> + <0|del|b> * <b|delr+rdel|0>
 Rotatory Strengths (R) in cgs (10**-40 erg-esu-cm/Gauss)
       state          XX          YY          ZZ    R(velocity)    E-M Angle
         1         0.0124     -0.0189      0.0208      0.0048       90.00
         2        -0.0005     -0.0004     -0.0005     -0.0005       90.00
         3        -0.0005      0.0030     -0.0066     -0.0014       90.00
 1/2[<0|r|b>*<b|rxdel|0> + (<0|rxdel|b>*<b|r|0>)*]
 Rotatory Strengths (R) in cgs (10**-40 erg-esu-cm/Gauss)
       state          XX          YY          ZZ     R(length)
         1        -0.0075      0.0470     -0.0255      0.0047
         2        -0.0008     -0.0006     -0.0001     -0.0005
         3        -0.0034     -0.0061      0.0056     -0.0013
  1/2[<0|del|b>*<b|r|0> + (<0|r|b>*<b|del|0>)*] (Au)
       state          X           Y           Z        Dip. S.   Osc.(frdel)
         1        -0.1564     -0.5271     -0.0000      0.6835      0.4557
         2        -0.0000     -0.0000     -0.0000      0.0000      0.0000
         3        -0.4456     -0.1306     -0.0000      0.5763      0.3842

 Excitation energies and oscillator strengths:
 
 Excited state symmetry could not be determined.
 Excited State   1:      Singlet-?Sym    3.0831 eV  402.14 nm  f=0.4571  <S**2>=0.000
      59 -> 60         0.69519
 This state for optimization and/or second-order correction.
 Total Energy, E(TD-HF/TD-DFT) =  -1028.69505832    
 Copying the excited state density for this state as the 1-particle RhoCI density.
 
 Excited state symmetry could not be determined.
 Excited State   2:      Singlet-?Sym    4.1226 eV  300.74 nm  f=0.0000  <S**2>=0.000
      56 -> 60         0.68589
      56 -> 62         0.10835
      56 -> 64         0.11576
 
 Excited state symmetry could not be determined.
 Excited State   3:      Singlet-?Sym    4.3645 eV  284.07 nm  f=0.3962  <S**2>=0.000
      58 -> 60         0.67632
 SavETr:  write IOETrn=   770 NScale= 10 NData=  16 NLR=1 NState=    3 LETran=      64.
 The selected state is a singlet.
 CISGrd: IGrad=2 NXY=2 DFT=T
 CISAX will form     1 AO SS matrices at one time.
 NMat=     1 NSing=     1 JSym2X= 0.
 GePol: Maximum number of non-zero 1st derivatives   =     264
 Leave Link  914 at Mon Jul 13 15:26:33 2020, MaxMem=  7784628224 cpu:            1825.4 elap:             185.3
 (Enter /gpfs/loomis/apps/avx/software/Gaussian/16-C.01_AVX/g16/l1002.exe)
 Minotr:  Closed shell wavefunction.
          Computing CIS/TDA/TD derivatives.
          Using Z-Vector for PSCF gradient.
          Skipping F1 and S1 gradient terms here.
          IDoAtm=1111111111111111111111111
 NEqPCM:  Using equilibrium solvation (IEInf=0, Eps=   2.2280, EpsInf=   2.1319)
          Frozen-core window.
          Direct CPHF calculation.
          Differentiating once with respect to electric field.
                with respect to dipole field.
          Differentiating once with respect to nuclear coordinates.
          Requested convergence is 1.0D-10 RMS, and 1.0D-09 maximum.
          NewPWx=F KeepS1=T KeepF1=T KeepIn=T MapXYZ=F SortEE=F KeepMc=T.
 Keep R1 ints in memory in canonical form, NReq=1421535538.
 FoFCou: FMM=F IPFlag=           0 FMFlag=           0 FMFlg1=           0
         NFxFlg=           0 DoJE=F BraDBF=F KetDBF=F FulRan=T
         wScrn=  0.000000 ICntrl=       600 IOpCl=  0 I1Cent=           0 NGrid=           0
         NMat0=    1 NMatS0=  37401 NMatT0=    0 NMatD0=    1 NMtDS0=    0 NMtDT0=    0
 Symmetry not used in FoFCou.
 Two-electron integral symmetry not used.
          MDV=    7784628224 using IRadAn=       5.
          Solving linear equations separately, MaxMat=       0.
          There are     1 degrees of freedom in the 1st order CPHF.  IDoFFX=0 NUNeed=     1.
 LinEq1:  Iter=  0 NonCon=     1 RMS=6.20D-03 Max=4.17D-01 NDo=     1
 AX will form     1 AO Fock derivatives at one time.
 LinEq1:  Iter=  1 NonCon=     1 RMS=2.78D-03 Max=1.54D-01 NDo=     1
 LinEq1:  Iter=  2 NonCon=     1 RMS=1.67D-03 Max=5.22D-02 NDo=     1
 LinEq1:  Iter=  3 NonCon=     1 RMS=6.60D-04 Max=1.53D-02 NDo=     1
 LinEq1:  Iter=  4 NonCon=     1 RMS=3.76D-04 Max=1.16D-02 NDo=     1
 LinEq1:  Iter=  5 NonCon=     1 RMS=1.86D-04 Max=6.83D-03 NDo=     1
 LinEq1:  Iter=  6 NonCon=     1 RMS=7.88D-05 Max=2.81D-03 NDo=     1
 LinEq1:  Iter=  7 NonCon=     1 RMS=4.18D-05 Max=1.47D-03 NDo=     1
 LinEq1:  Iter=  8 NonCon=     1 RMS=1.57D-05 Max=4.01D-04 NDo=     1
 LinEq1:  Iter=  9 NonCon=     1 RMS=8.27D-06 Max=2.40D-04 NDo=     1
 LinEq1:  Iter= 10 NonCon=     1 RMS=3.11D-06 Max=6.98D-05 NDo=     1
 LinEq1:  Iter= 11 NonCon=     1 RMS=1.69D-06 Max=6.52D-05 NDo=     1
 LinEq1:  Iter= 12 NonCon=     1 RMS=8.31D-07 Max=2.65D-05 NDo=     1
 LinEq1:  Iter= 13 NonCon=     1 RMS=3.97D-07 Max=9.91D-06 NDo=     1
 LinEq1:  Iter= 14 NonCon=     1 RMS=1.72D-07 Max=4.99D-06 NDo=     1
 LinEq1:  Iter= 15 NonCon=     1 RMS=9.15D-08 Max=2.31D-06 NDo=     1
 LinEq1:  Iter= 16 NonCon=     1 RMS=3.79D-08 Max=1.24D-06 NDo=     1
 LinEq1:  Iter= 17 NonCon=     1 RMS=1.74D-08 Max=6.19D-07 NDo=     1
 LinEq1:  Iter= 18 NonCon=     1 RMS=6.58D-09 Max=1.75D-07 NDo=     1
 LinEq1:  Iter= 19 NonCon=     1 RMS=3.21D-09 Max=1.05D-07 NDo=     1
 LinEq1:  Iter= 20 NonCon=     1 RMS=1.50D-09 Max=3.98D-08 NDo=     1
 LinEq1:  Iter= 21 NonCon=     1 RMS=4.07D-10 Max=1.13D-08 NDo=     1
 LinEq1:  Iter= 22 NonCon=     1 RMS=1.74D-10 Max=4.67D-09 NDo=     1
 LinEq1:  Iter= 23 NonCon=     1 RMS=7.49D-11 Max=1.75D-09 NDo=     1
 LinEq1:  Iter= 24 NonCon=     0 RMS=2.15D-11 Max=4.97D-10 NDo=     1
 Linear equations converged to 1.000D-10 1.000D-09 after    24 iterations.
 End of Minotr F.D. properties file   721 does not exist.
 End of Minotr F.D. properties file   722 does not exist.
 End of Minotr F.D. properties file   788 does not exist.
 Leave Link 1002 at Mon Jul 13 15:28:14 2020, MaxMem=  7784628224 cpu:             751.9 elap:             101.2
 (Enter /gpfs/loomis/apps/avx/software/Gaussian/16-C.01_AVX/g16/l601.exe)
 Copying SCF densities to generalized density rwf, IOpCl= 0 IROHF=0.

 **********************************************************************

            Population analysis using the SCF Density.

 **********************************************************************

 Alpha  occ. eigenvalues --  -89.10263 -19.22583 -14.50499 -10.41332 -10.36937
 Alpha  occ. eigenvalues --  -10.36514 -10.35982 -10.33106 -10.32487 -10.32212
 Alpha  occ. eigenvalues --  -10.32124 -10.31750 -10.31362 -10.31150 -10.29530
 Alpha  occ. eigenvalues --  -10.28898  -8.12224  -6.07092  -6.06735  -6.06253
 Alpha  occ. eigenvalues --   -1.12994  -1.09822  -0.97842  -0.95269  -0.92982
 Alpha  occ. eigenvalues --   -0.89069  -0.86175  -0.83828  -0.81738  -0.75992
 Alpha  occ. eigenvalues --   -0.71959  -0.71647  -0.68526  -0.68015  -0.64512
 Alpha  occ. eigenvalues --   -0.60867  -0.59513  -0.57181  -0.55327  -0.55282
 Alpha  occ. eigenvalues --   -0.54614  -0.53587  -0.52926  -0.50888  -0.49737
 Alpha  occ. eigenvalues --   -0.49106  -0.47952  -0.46649  -0.45199  -0.45176
 Alpha  occ. eigenvalues --   -0.44166  -0.43176  -0.41976  -0.40623  -0.36687
 Alpha  occ. eigenvalues --   -0.33370  -0.33215  -0.31323  -0.26716
 Alpha virt. eigenvalues --   -0.01875   0.04091   0.06187   0.06505   0.08682
 Alpha virt. eigenvalues --    0.10521   0.13489   0.14796   0.16236   0.17615
 Alpha virt. eigenvalues --    0.18896   0.20514   0.21371   0.21664   0.22887
 Alpha virt. eigenvalues --    0.23672   0.23874   0.25114   0.28601   0.29445
 Alpha virt. eigenvalues --    0.31649   0.33388   0.35458   0.35840   0.36683
 Alpha virt. eigenvalues --    0.38478   0.38943   0.40288   0.42215   0.43431
 Alpha virt. eigenvalues --    0.46607   0.48142   0.50265   0.51217   0.51528
 Alpha virt. eigenvalues --    0.52640   0.53021   0.53356   0.54840   0.54909
 Alpha virt. eigenvalues --    0.56111   0.56176   0.56506   0.56832   0.58030
 Alpha virt. eigenvalues --    0.58275   0.58380   0.59146   0.59551   0.59936
 Alpha virt. eigenvalues --    0.60513   0.61168   0.61999   0.62417   0.62980
 Alpha virt. eigenvalues --    0.64993   0.65765   0.66964   0.68005   0.68763
 Alpha virt. eigenvalues --    0.70293   0.70801   0.72089   0.72400   0.72915
 Alpha virt. eigenvalues --    0.73189   0.74898   0.75200   0.76167   0.77400
 Alpha virt. eigenvalues --    0.79135   0.79247   0.80113   0.81746   0.82130
 Alpha virt. eigenvalues --    0.83086   0.88294   0.88762   0.90888   0.92757
 Alpha virt. eigenvalues --    0.94133   0.94753   0.95821   0.96565   0.97066
 Alpha virt. eigenvalues --    0.98684   0.98870   1.00014   1.00384   1.01341
 Alpha virt. eigenvalues --    1.02625   1.05117   1.06039   1.06489   1.07409
 Alpha virt. eigenvalues --    1.08068   1.08728   1.10320   1.11157   1.11454
 Alpha virt. eigenvalues --    1.12333   1.12521   1.13123   1.14930   1.15172
 Alpha virt. eigenvalues --    1.16440   1.19075   1.20133   1.23502   1.23600
 Alpha virt. eigenvalues --    1.26564   1.27611   1.33117   1.33786   1.34078
 Alpha virt. eigenvalues --    1.34729   1.36719   1.38331   1.40872   1.46266
 Alpha virt. eigenvalues --    1.49164   1.49656   1.52739   1.53547   1.55032
 Alpha virt. eigenvalues --    1.56694   1.56957   1.57468   1.58898   1.59604
 Alpha virt. eigenvalues --    1.60091   1.60716   1.65280   1.66096   1.67681
 Alpha virt. eigenvalues --    1.68458   1.69828   1.70339   1.71172   1.71173
 Alpha virt. eigenvalues --    1.71731   1.72320   1.73308   1.73666   1.75119
 Alpha virt. eigenvalues --    1.77860   1.80065   1.80424   1.80951   1.82551
 Alpha virt. eigenvalues --    1.83027   1.84160   1.84941   1.85286   1.85606
 Alpha virt. eigenvalues --    1.86831   1.89027   1.90346   1.91612   1.91955
 Alpha virt. eigenvalues --    1.92690   1.93386   1.94814   1.95339   1.96916
 Alpha virt. eigenvalues --    1.97511   2.00298   2.01117   2.03116   2.04280
 Alpha virt. eigenvalues --    2.05087   2.07456   2.09478   2.10487   2.13585
 Alpha virt. eigenvalues --    2.15142   2.16989   2.17214   2.21287   2.24001
 Alpha virt. eigenvalues --    2.27110   2.30176   2.32219   2.38590   2.40433
 Alpha virt. eigenvalues --    2.40907   2.42548   2.45681   2.46966   2.47670
 Alpha virt. eigenvalues --    2.48683   2.50951   2.52977   2.53256   2.61823
 Alpha virt. eigenvalues --    2.62261   2.70613   2.74248   2.74596   2.80053
 Alpha virt. eigenvalues --    2.81891   2.83459   2.85958   2.87901   2.89856
 Alpha virt. eigenvalues --    2.92657   3.02240   3.13107   3.24458   3.42028
 Alpha virt. eigenvalues --    3.48495   3.57333   3.58648   3.79839
          Condensed to atoms (all electrons):
               1          2          3          4          5          6
     1  C    4.722848   0.486788   0.004310  -0.050374  -0.012889   0.519982
     2  C    0.486788   5.330870   0.316034  -0.052766  -0.066400  -0.009613
     3  C    0.004310   0.316034   4.820561   0.515959  -0.003822  -0.064568
     4  C   -0.050374  -0.052766   0.515959   4.773520   0.522390  -0.015005
     5  C   -0.012889  -0.066400  -0.003822   0.522390   4.720538   0.497471
     6  C    0.519982  -0.009613  -0.064568  -0.015005   0.497471   4.736530
     7  H    0.403942  -0.040194   0.008784  -0.000536   0.008143  -0.038429
     8  H   -0.000632   0.010933  -0.026815   0.393481  -0.041692   0.007469
     9  H    0.008667  -0.000426   0.008345  -0.038451   0.405241  -0.044195
    10  H   -0.042184   0.009580  -0.000547   0.008678  -0.043133   0.407040
    11  N    0.004593  -0.044364   0.394239  -0.047200   0.002761   0.000292
    12  S   -0.064292   0.335583  -0.118911   0.004977   0.000244   0.003688
    13  C   -0.000189   0.001916   0.011570  -0.000617   0.000010   0.000000
    14  C   -0.000004   0.000074   0.000220   0.000006  -0.000000  -0.000000
    15  C    0.000002  -0.000327   0.000764   0.000077  -0.000000   0.000000
    16  C    0.000000  -0.000002   0.000004  -0.000000   0.000000   0.000000
    17  H   -0.000004   0.000079  -0.000000  -0.000000   0.000000  -0.000000
    18  C    0.000000   0.000008  -0.000029  -0.000000  -0.000000  -0.000000
    19  C   -0.000000   0.000000   0.000001  -0.000000   0.000000   0.000000
    20  H   -0.000000  -0.000000  -0.000000   0.000000   0.000000  -0.000000
    21  H   -0.000000   0.000000   0.000000  -0.000000  -0.000000   0.000000
    22  H    0.000000  -0.000000  -0.000000  -0.000000   0.000000  -0.000000
    23  C    0.003475  -0.048746  -0.110217   0.002193   0.000246  -0.000202
    24  O    0.000002  -0.000164  -0.000900  -0.000028  -0.000000  -0.000000
    25  H    0.000077   0.006965  -0.025273  -0.004100  -0.000082  -0.000002
               7          8          9         10         11         12
     1  C    0.403942  -0.000632   0.008667  -0.042184   0.004593  -0.064292
     2  C   -0.040194   0.010933  -0.000426   0.009580  -0.044364   0.335583
     3  C    0.008784  -0.026815   0.008345  -0.000547   0.394239  -0.118911
     4  C   -0.000536   0.393481  -0.038451   0.008678  -0.047200   0.004977
     5  C    0.008143  -0.041692   0.405241  -0.043133   0.002761   0.000244
     6  C   -0.038429   0.007469  -0.044195   0.407040   0.000292   0.003688
     7  H    0.652740   0.000030  -0.000142  -0.011820  -0.000099  -0.006821
     8  H    0.000030   0.643892  -0.011893  -0.000121  -0.003678  -0.000227
     9  H   -0.000142  -0.011893   0.660010  -0.012262  -0.000114   0.000022
    10  H   -0.011820  -0.000121  -0.012262   0.659792   0.000003  -0.000139
    11  N   -0.000099  -0.003678  -0.000114   0.000003   6.237764  -0.055376
    12  S   -0.006821  -0.000227   0.000022  -0.000139  -0.055376  15.438522
    13  C    0.000005   0.000047  -0.000000  -0.000000  -0.028247  -0.062617
    14  C    0.000000   0.000001   0.000000  -0.000000   0.003148  -0.006793
    15  C   -0.000000  -0.000004   0.000000   0.000000  -0.005031   0.003884
    16  C   -0.000000  -0.000000  -0.000000   0.000000  -0.000093  -0.000011
    17  H    0.000001   0.000000  -0.000000  -0.000000   0.000240   0.006468
    18  C   -0.000000  -0.000000  -0.000000  -0.000000  -0.000567  -0.000116
    19  C    0.000000   0.000000  -0.000000  -0.000000   0.000051   0.000020
    20  H   -0.000000  -0.000000   0.000000   0.000000   0.000001   0.000001
    21  H   -0.000000   0.000000  -0.000000   0.000000   0.000022   0.000004
    22  H    0.000000  -0.000000  -0.000000  -0.000000  -0.000000  -0.000000
    23  C    0.000131  -0.000704   0.000006   0.000004   0.529124   0.324140
    24  O   -0.000000  -0.000256   0.000000  -0.000000  -0.077459  -0.000318
    25  H    0.000003   0.001090  -0.000009  -0.000000   0.283028   0.003252
              13         14         15         16         17         18
     1  C   -0.000189  -0.000004   0.000002   0.000000  -0.000004   0.000000
     2  C    0.001916   0.000074  -0.000327  -0.000002   0.000079   0.000008
     3  C    0.011570   0.000220   0.000764   0.000004  -0.000000  -0.000029
     4  C   -0.000617   0.000006   0.000077  -0.000000  -0.000000  -0.000000
     5  C    0.000010  -0.000000  -0.000000   0.000000   0.000000  -0.000000
     6  C    0.000000  -0.000000   0.000000   0.000000  -0.000000  -0.000000
     7  H    0.000005   0.000000  -0.000000  -0.000000   0.000001  -0.000000
     8  H    0.000047   0.000001  -0.000004  -0.000000   0.000000  -0.000000
     9  H   -0.000000   0.000000   0.000000  -0.000000  -0.000000  -0.000000
    10  H   -0.000000  -0.000000   0.000000   0.000000  -0.000000  -0.000000
    11  N   -0.028247   0.003148  -0.005031  -0.000093   0.000240  -0.000567
    12  S   -0.062617  -0.006793   0.003884  -0.000011   0.006468  -0.000116
    13  C    5.405833   0.447191   0.216093  -0.006554  -0.041109  -0.039846
    14  C    0.447191   4.829298   0.008188   0.536012   0.399905  -0.058455
    15  C    0.216093   0.008188   4.745324  -0.058496   0.006946   0.490620
    16  C   -0.006554   0.536012  -0.058496   4.764196  -0.033554  -0.019755
    17  H   -0.041109   0.399905   0.006946  -0.033554   0.679983  -0.000809
    18  C   -0.039846  -0.058455   0.490620  -0.019755  -0.000809   4.843233
    19  C   -0.051210  -0.017866  -0.010321   0.481699   0.008401   0.509338
    20  H    0.009076  -0.036239  -0.000188   0.400575  -0.012528   0.008322
    21  H    0.014690  -0.000632  -0.022658   0.007571   0.000050   0.373549
    22  H   -0.001402   0.009439   0.008962  -0.045991  -0.000182  -0.039994
    23  C    0.351187  -0.094325  -0.078569   0.006817  -0.020083   0.008315
    24  O   -0.086293   0.005629   0.592310  -0.000072  -0.000069  -0.062923
    25  H   -0.028572  -0.000561  -0.022891   0.000029  -0.000046   0.003911
              19         20         21         22         23         24
     1  C   -0.000000  -0.000000  -0.000000   0.000000   0.003475   0.000002
     2  C    0.000000  -0.000000   0.000000  -0.000000  -0.048746  -0.000164
     3  C    0.000001  -0.000000   0.000000  -0.000000  -0.110217  -0.000900
     4  C   -0.000000   0.000000  -0.000000  -0.000000   0.002193  -0.000028
     5  C    0.000000   0.000000  -0.000000   0.000000   0.000246  -0.000000
     6  C    0.000000  -0.000000   0.000000  -0.000000  -0.000202  -0.000000
     7  H    0.000000  -0.000000  -0.000000   0.000000   0.000131  -0.000000
     8  H    0.000000  -0.000000   0.000000  -0.000000  -0.000704  -0.000256
     9  H   -0.000000   0.000000  -0.000000  -0.000000   0.000006   0.000000
    10  H   -0.000000   0.000000   0.000000  -0.000000   0.000004  -0.000000
    11  N    0.000051   0.000001   0.000022  -0.000000   0.529124  -0.077459
    12  S    0.000020   0.000001   0.000004  -0.000000   0.324140  -0.000318
    13  C   -0.051210   0.009076   0.014690  -0.001402   0.351187  -0.086293
    14  C   -0.017866  -0.036239  -0.000632   0.009439  -0.094325   0.005629
    15  C   -0.010321  -0.000188  -0.022658   0.008962  -0.078569   0.592310
    16  C    0.481699   0.400575   0.007571  -0.045991   0.006817  -0.000072
    17  H    0.008401  -0.012528   0.000050  -0.000182  -0.020083  -0.000069
    18  C    0.509338   0.008322   0.373549  -0.039994   0.008315  -0.062923
    19  C    4.735365  -0.047428  -0.047083   0.403990   0.000451   0.004102
    20  H   -0.047428   0.687090  -0.000168  -0.012428  -0.000372   0.000001
    21  H   -0.047083  -0.000168   0.676211  -0.012569  -0.000437   0.005095
    22  H    0.403990  -0.012428  -0.012569   0.673456   0.000007  -0.000081
    23  C    0.000451  -0.000372  -0.000437   0.000007   5.078418  -0.011337
    24  O    0.004102   0.000001   0.005095  -0.000081  -0.011337   7.862810
    25  H   -0.000376  -0.000001   0.000013   0.000009   0.005343   0.162556
              25
     1  C    0.000077
     2  C    0.006965
     3  C   -0.025273
     4  C   -0.004100
     5  C   -0.000082
     6  C   -0.000002
     7  H    0.000003
     8  H    0.001090
     9  H   -0.000009
    10  H   -0.000000
    11  N    0.283028
    12  S    0.003252
    13  C   -0.028572
    14  C   -0.000561
    15  C   -0.022891
    16  C    0.000029
    17  H   -0.000046
    18  C    0.003911
    19  C   -0.000376
    20  H   -0.000001
    21  H    0.000013
    22  H    0.000009
    23  C    0.005343
    24  O    0.162556
    25  H    0.439793
 Mulliken charges:
               1
     1  C    0.015882
     2  C   -0.235829
     3  C    0.270289
     4  C   -0.012202
     5  C    0.010975
     6  C   -0.000457
     7  H    0.024264
     8  H    0.029079
     9  H    0.025200
    10  H    0.025109
    11  N   -0.193039
    12  S    0.194817
    13  C   -0.110963
    14  C   -0.024234
    15  C    0.125318
    16  C   -0.032371
    17  H    0.006312
    18  C   -0.014799
    19  C    0.030867
    20  H    0.004286
    21  H    0.006340
    22  H    0.016785
    23  C    0.055133
    24  O   -0.392606
    25  H    0.175844
 Sum of Mulliken charges =  -0.00000
 Mulliken charges with hydrogens summed into heavy atoms:
               1
     1  C    0.040146
[...]
 054206,-0.00198170,-0.00000011,-0.00013378,0.00796566,0.,-0.00332626,-
 0.00310927,0.,0.00003189,0.00017950,0.00000001,-0.00008073,-0.00011596
 ,0.00000001,-0.00009682,0.00013261,0.,-0.00006316,-0.00005162,-0.00000
 002,0.01076400,-0.01818807,-0.00000016,0.00302185,-0.00391853,0.000000
 04,0.05809160,0.01758202,0.00000085,0.03420130,-0.23086306,-0.00000319
 ,0.01713130,-0.00730408,0.00000058,0.03657797,0.61615846,0.,-0.0000000
 5,-0.00003980,-0.00000022,-0.00000010,-0.00004487,-0.00000024,0.000000
 37,-0.00036361,0.00000023,-0.00000004,-0.00024114,0.,0.00000017,-0.000
 01048,-0.00000007,-0.00000007,0.00001119,0.,0.,-0.00002843,0.,0.,-0.00
 001386,0.,0.,0.00001899,0.,0.,0.00003390,0.00000022,-0.00000041,0.0024
 8647,0.00000007,-0.00000012,-0.00028851,0.00000102,0.00000044,0.002070
 66,-0.00000009,-0.00000286,-0.05225540,0.00000053,0.,-0.00482607,0.000
 00330,0.00001053,0.12744120,0.00021891,0.00004008,0.,-0.00060857,0.000
 18914,0.00000003,0.00038024,-0.00016831,0.,-0.00004462,0.00009203,0.,0
 .00005750,-0.00002330,0.,-0.00001107,-0.00004920,0.,-0.00001664,-0.000
 00388,0.,0.00003048,0.00000332,0.,0.00000826,-0.00000222,0.,0.00003058
 ,-0.00000417,0.,0.00044763,0.00079194,0.00000004,-0.00063968,0.0013639
 6,-0.00000007,-0.00621969,-0.02920280,-0.00000061,-0.09797155,-0.09974
 274,-0.00000217,-0.00464657,0.00314554,0.00000002,0.01081292,0.0195516
 7,0.00000044,0.10074465,0.00003532,-0.00002804,0.,-0.00019711,0.000428
 22,0.,0.00022030,0.00007942,0.,0.00000413,0.00003568,0.,0.00001491,0.0
 0005753,0.,-0.00007970,-0.00002552,0.,-0.00001022,0.00001340,0.,0.0000
 1347,-0.00000403,0.,-0.00000209,0.00000081,0.,-0.00000126,0.00000214,0
 .,0.00010914,0.00057005,0.00000005,-0.00033301,-0.00027436,-0.00000006
 ,0.00128610,-0.00100779,-0.00000011,-0.09803603,-0.30054929,-0.0000055
 6,0.00061938,0.00189885,-0.00000013,-0.01246391,-0.01777584,-0.0000004
 8,0.10481288,0.31794763,0.,0.00000001,-0.00001791,0.00000003,0.0000000
 2,-0.00030976,0.00000004,-0.00000004,0.00041541,-0.00000002,0.,0.00008
 191,0.,-0.00000002,0.00000135,0.00000001,0.,0.00000986,0.,0.,0.0000145
 6,0.,0.,0.00001348,0.,0.,-0.00000164,0.,0.,-0.00000608,0.00000005,0.00
 000018,-0.00214564,-0.00000009,-0.00000001,0.00079190,0.00000002,-0.00
 000031,0.00557540,-0.00000225,-0.00000558,-0.03410050,-0.00000003,-0.0
 0000013,0.00862901,-0.00000015,-0.00000039,0.00300698,0.00000238,0.000
 00624,0.02118565,-0.00123802,0.00025018,0.00000010,-0.00499071,-0.0039
 8865,0.,-0.00632768,0.01324220,-0.00000020,0.00659787,-0.00125080,-0.0
 0000004,-0.00028023,0.00345405,0.00000002,0.00032974,-0.00180408,-0.00
 000002,-0.00010829,0.00010675,0.,0.00005761,-0.00002966,0.,0.00007967,
 0.00003134,0.,0.00007483,-0.00006199,-0.00000002,0.01347743,0.00035482
 ,0.00000070,0.00045422,-0.00417490,0.00000011,0.02422241,0.01487924,0.
 00000055,-0.03426704,0.02445701,0.00000021,-0.14523486,0.08154219,0.00
 000214,-0.01457705,-0.07996107,-0.00000197,-0.00070769,0.00018263,0.00
 000001,0.71253603,0.00059053,-0.00003888,-0.00000003,0.00009292,-0.000
 03822,0.,0.00101194,-0.00143808,0.00000001,-0.00117688,0.00024300,0.00
 000001,0.00016179,-0.00054770,0.,-0.00022335,0.00019689,0.,-0.00000122
 ,0.00000911,0.,-0.00001694,-0.00000006,0.,-0.00001280,-0.00001018,0.,0
 .00001570,0.00001048,0.,0.00004553,0.00034533,-0.00000007,0.00127117,-
 0.00096510,-0.00000009,0.01387347,-0.03179748,-0.00000068,0.00559293,-
 0.00343786,-0.00000001,0.09397111,-0.25169273,-0.00000453,-0.03526968,
 -0.00261648,-0.00000025,-0.00014145,0.00071123,0.00000002,0.04805782,0
 .70175477,0.00000004,0.,0.00016555,0.00000002,0.00000009,0.00054298,0.
 00000021,-0.00000014,0.00149584,-0.00000008,0.,-0.00025197,0.00000002,
 -0.00000003,-0.00004131,-0.00000002,0.00000003,-0.00010857,0.,0.,0.000
 11568,0.,0.,0.00007296,0.,0.,0.00002337,0.,0.,-0.00006299,-0.00000003,
 0.00000069,-0.00576821,0.,-0.00000016,0.00174929,0.00000044,-0.0000009
 4,0.01167818,-0.00000031,0.00000035,-0.00381717,0.00000218,-0.00000464
 ,-0.06644448,-0.00000087,-0.00000088,0.00621654,0.,0.00000005,-0.00146
 617,0.00000469,0.00001534,0.10737643,0.00124709,0.00056673,-0.00000010
 ,0.00730241,0.00512164,-0.00000007,0.01011500,-0.01749364,0.00000005,-
 0.00921662,0.00174856,0.00000008,0.00036702,-0.00556540,0.,0.00073698,
 0.00266641,0.00000002,0.00006026,-0.00010782,-0.00000001,0.00001827,0.
 00006494,0.,-0.00005334,-0.00005822,0.,-0.00002857,0.00007327,0.000000
 02,-0.01617036,0.01182361,-0.00000003,-0.00023481,0.00365939,-0.000000
 14,-0.01794677,-0.01620816,-0.00000056,0.06247542,-0.00587100,0.000000
 16,-0.05447089,0.02129633,-0.00000058,-0.14843623,-0.01096454,-0.00000
 049,-0.00238318,0.00455900,0.00000006,-0.34944020,-0.06223716,-0.00000
 236,0.68997126,0.00002629,0.00093810,-0.00000004,0.00297224,0.00140246
 ,0.00000002,0.00390136,-0.00474281,0.00000010,-0.00361005,0.00074701,0
 .00000003,0.00007936,-0.00278205,0.,0.00122903,0.00088174,0.,-0.000029
 06,-0.00003952,0.,0.00003667,0.00001528,0.,0.00004002,-0.00005708,0.,0
 .00003354,0.00003012,0.,-0.00045830,0.00801866,-0.00000030,-0.00178660
 ,0.00093471,-0.00000002,-0.02738168,-0.00800258,-0.00000028,0.04613509
 ,-0.06013024,-0.00000124,0.00576073,0.02278613,0.00000003,-0.10228971,
 -0.29366968,-0.00000581,0.00345605,-0.00140894,-0.00000009,-0.00460365
 ,-0.12438542,-0.00000192,-0.05483135,0.69263206,0.,0.00000001,0.000156
 49,0.00000007,0.00000002,-0.00036335,0.00000005,-0.00000010,-0.0011573
 6,-0.00000009,0.00000002,0.00010029,0.,-0.00000007,0.00008824,0.000000
 03,0.00000001,0.00001446,0.,0.,-0.00005392,0.,0.,-0.00011240,0.,0.,-0.
 00000413,0.,0.,0.00000520,-0.00000002,0.00000005,0.00197138,-0.0000000
 3,0.00000007,0.00019080,-0.00000073,-0.00000027,-0.00135309,0.00000121
 ,-0.00000143,0.00804557,-0.00000011,0.00000097,0.00242794,-0.00000269,
 -0.00000568,-0.05881490,0.00000004,-0.00000007,0.00410792,-0.00000130,
 -0.00000233,-0.04841304,0.00000104,0.00001352,0.11155369,0.00006267,-0
 .00009419,0.,-0.00011454,0.00010613,0.,-0.00002043,-0.00006506,0.,0.00
 001901,0.00001950,0.,0.00000647,0.00009349,0.,-0.00013852,-0.00000379,
 0.,0.00000557,0.00000737,0.,-0.00000137,-0.00000517,0.,-0.00001150,0.0
 0000627,0.,-0.00000889,0.00000428,0.,-0.00015259,0.00041605,0.,0.00005
 708,-0.00000696,0.,0.00025115,0.00329214,0.00000004,-0.01429136,-0.007
 02520,-0.00000019,0.00061533,0.00032766,0.00000002,-0.33844939,-0.0503
 8877,-0.00000207,0.00073683,0.00009576,0.00000001,0.00140286,-0.001864
 95,-0.00000007,-0.00568917,0.00224798,0.00000003,0.35615289,0.00000437
 ,0.00000002,0.,-0.00007040,-0.00010044,0.,0.00000158,0.00024027,-0.000
 00001,0.00008464,-0.00006048,0.,0.00001161,0.00006060,0.,-0.00001240,-
 0.00003408,0.,-0.00000032,-0.00000095,0.,-0.00000006,0.00000041,0.,0.0
 0000296,-0.00000317,0.,0.00000210,-0.00000170,0.,0.00042791,-0.0003964
 4,0.00000001,0.00002883,0.00001246,0.,0.00326890,-0.00416413,-0.000000
 16,0.02381967,0.00761970,0.00000012,0.00057058,-0.00091304,0.00000002,
 -0.05058340,-0.06857623,-0.00000086,-0.00019491,0.00089455,0.00000008,
 -0.00110727,-0.00539356,-0.00000027,-0.02905257,0.00113456,-0.00000020
 ,0.05361318,0.06750052,0.,0.,-0.00001193,0.,0.,0.00005516,0.00000001,0
 .,0.00049494,0.,0.,0.00008405,0.,0.,-0.00006158,0.,0.,0.00000838,0.,0.
 ,0.00001075,0.,0.,0.00003512,0.,0.,-0.00001884,0.,0.,-0.00000541,-0.00
 000002,0.,-0.00030932,0.,0.,-0.00013073,-0.00000004,-0.00000016,0.0048
 5557,0.00000043,-0.00000006,0.00605201,0.00000001,0.,-0.00144007,-0.00
 000188,-0.00000076,-0.03661732,0.,0.00000007,-0.00275315,0.00000003,-0
 .00000026,0.00596936,-0.00000076,-0.00000020,0.00667602,0.00000223,0.0
 0000114,0.02213774,-0.00009450,0.00002560,0.,0.00006805,0.00004892,0.,
 -0.00011378,0.00007783,0.,0.00004602,-0.00000027,0.,-0.00002018,-0.000
 02047,0.,0.00006914,0.00000499,0.,0.00000108,-0.00000439,0.,-0.0000047
 5,0.00000113,0.,0.00000320,-0.00000040,0.,-0.00000215,-0.00000190,0.,0
 .00019396,-0.00038207,-0.00000003,-0.00027119,0.00010058,0.00000002,-0
 .00331733,0.00285504,0.00000001,0.00010851,0.00021209,0.,0.00872475,0.
 02008143,0.00000059,-0.00579905,0.00066212,-0.00000005,0.00009653,-0.0
 0010536,0.,-0.09634940,-0.10214372,-0.00000296,-0.00374795,-0.02826205
 ,-0.00000079,-0.00039325,-0.00141010,-0.00000003,0.09715816,0.00005711
 ,0.00004311,0.00000001,-0.00011773,-0.00009286,0.,0.00010573,0.0000604
 0,0.,-0.00000260,-0.00000723,0.,0.00000667,-0.00002199,0.,0.00003000,-
 0.00002188,0.,-0.00000696,0.00000326,0.,0.00000702,0.00000245,0.,0.000
 00644,-0.00000217,0.,0.00000972,-0.00000181,0.,-0.00024735,0.00040798,
 0.,0.00026650,-0.00021754,0.,0.00403584,-0.00205375,-0.00000010,0.0002
 4399,0.00031890,0.00000003,-0.01331953,-0.01809499,-0.00000069,-0.0002
 0458,0.00128857,-0.00000016,-0.00007940,-0.00006323,0.,-0.09942106,-0.
 30768031,-0.00000767,0.00250449,0.00104536,-0.00000012,0.00008853,-0.0
 0007294,0.00000002,0.10815274,0.32258380,0.,0.,-0.00033636,-0.00000005
 ,-0.00000002,-0.00016883,-0.00000004,0.00000006,0.00028373,0.00000004,
 0.,0.00000746,0.,0.00000003,-0.00005720,-0.00000001,-0.00000001,0.0000
 5322,0.,0.,-0.00001332,0.,0.,0.00004771,0.,0.,-0.00000492,0.,0.,0.0000
 6308,0.00000002,-0.00000012,0.00028969,0.00000004,0.,-0.00057167,0.000
 00014,-0.00000006,0.00316475,0.,0.00000002,-0.00028948,-0.00000059,-0.
 00000060,0.00397554,-0.00000004,-0.00000015,0.00613442,0.,0.,-0.000177
 16,-0.00000290,-0.00000787,-0.03217934,0.00000012,-0.00000010,0.004435
 01,0.,0.,-0.00052165,0.00000319,0.00000847,0.02162131,0.00004032,-0.00
 002513,0.,-0.00002473,0.00010097,0.,0.00018163,-0.00007154,0.,-0.00004
 610,0.00000895,0.,0.00001072,0.00001426,0.,-0.00005617,0.00000495,0.,0
 .00000049,0.00000466,0.,0.00000363,-0.00000377,0.,-0.00000640,0.000002
 00,0.,-0.00000380,0.00000345,0.,0.00017380,0.00069581,0.00000003,-0.00
 004327,0.00012515,-0.00000001,-0.00027381,-0.00058363,-0.00000002,-0.0
 0006012,-0.00257427,-0.00000007,-0.00301986,-0.00365987,-0.00000011,0.
 00998751,-0.01077546,-0.00000022,0.00036529,-0.00047702,0.,-0.01331938
 ,0.02589930,0.00000056,-0.17916286,0.14315899,0.00000276,0.00069958,0.
 00038673,0.00000002,0.00109878,-0.00031638,0.00000002,0.18578885,-0.00
 000073,0.00007955,0.,0.00025216,0.00014316,0.,0.00030744,-0.00051459,0
 .,-0.00028606,0.00005986,0.,0.00000430,-0.00023487,0.,0.00011849,0.000
 08519,0.,-0.00000433,-0.00000742,0.,0.00000492,0.00000671,0.,0.0000070
 8,-0.00000457,0.,0.00000684,-0.00000147,0.,-0.00047466,0.00023799,0.00
 000001,-0.00009861,0.00011208,0.,-0.00084767,0.00031811,0.00000002,-0.
 00285890,-0.00383275,-0.00000023,-0.00224588,0.00014506,-0.00000016,0.
 02127218,-0.01560749,-0.00000032,0.00094803,-0.00104009,-0.00000003,-0
 .00597342,0.00764267,0.00000011,0.14210836,-0.22646279,-0.00000410,-0.
 00010761,0.00097134,0.00000012,0.00029444,0.00059056,0.00000010,-0.152
 58169,0.23672798,0.,0.,0.00000574,0.00000003,0.,0.00007104,0.00000003,
 -0.00000005,0.00003568,-0.00000003,0.,0.00001582,0.,-0.00000002,0.0000
 0184,0.00000001,0.,-0.00000156,0.,0.,0.00000222,0.,0.,0.00001131,0.,0.
 ,-0.00000023,0.,0.,-0.00001091,-0.00000002,0.00000003,0.00002538,0.,0.
 00000002,-0.00020173,-0.00000001,-0.00000001,-0.00115823,0.,-0.0000002
 4,0.00542314,-0.00000020,-0.00000017,0.00687456,0.00000057,-0.00000034
 ,0.00245226,0.00000002,-0.00000005,0.00079572,-0.00000007,0.00000017,0
 .00365154,0.00000257,-0.00000413,-0.03244270,0.00000001,0.00000011,-0.
 00369692,0.00000003,0.00000013,-0.00365777,-0.00000294,0.00000446,0.02
 266979,-0.00242340,-0.00739874,-0.00000005,-0.01113161,0.01972276,0.00
 000014,-0.07269865,0.04070600,0.00000048,0.01140020,-0.00260800,-0.000
 00005,-0.00132140,0.00789151,0.,-0.00642222,-0.00278371,0.00000004,0.0
 0039815,-0.00052863,0.,-0.00061425,-0.00017694,0.00000001,0.00004670,0
 .00003604,0.,-0.00065415,-0.00014021,0.00000001,-0.35235236,-0.0606185
 2,0.00000149,-0.04689518,-0.04127488,0.00000037,-0.18373005,0.09865216
 ,0.00000165,-0.03849269,0.03489103,0.00000053,0.03493349,0.01175134,0.
 00000063,-0.00346338,-0.01202082,-0.00000018,0.00027050,0.00035858,-0.
 00000012,-0.00674329,-0.00587768,-0.00000048,0.00322277,0.00299412,0.0
 0000022,-0.00063271,0.00061329,0.,0.00069807,-0.00103941,-0.00000002,-
 0.00009329,0.00018084,-0.00000002,0.69598556,-0.00072103,0.00079034,-0
 .00000002,0.03036939,-0.01913173,-0.00000007,0.02362744,0.00674783,-0.
 00000030,0.00045762,-0.00657258,0.00000013,-0.00069712,-0.00218907,0.,
 0.00223250,-0.00046699,-0.00000002,0.00007807,-0.00059965,0.,-0.000418
 66,0.00015465,0.,0.00038291,-0.00050019,-0.00000002,-0.00018643,0.0000
 1933,0.00000002,-0.04823302,-0.11746651,-0.00000015,-0.01052606,-0.144
 81457,0.00000101,0.07671344,-0.19969765,-0.00000197,0.02134410,0.01089
 126,0.,0.01918326,-0.05117345,-0.00000088,-0.00474137,0.00084150,-0.00
 000019,-0.00174295,0.00035277,0.00000014,-0.01492504,-0.00004507,-0.00
 000002,0.00884978,0.00092147,0.00000008,-0.00066914,0.00108982,0.00000
 003,0.00050608,-0.00049733,-0.00000012,0.00010781,0.00029712,0.0000000
 5,-0.07538030,0.52306229,0.00000004,0.00000005,0.00113105,-0.00000019,
 -0.00000019,-0.00070955,0.00000013,0.00000009,0.00636386,0.00000007,0.
 00000003,0.00267276,0.00000002,0.,0.00111738,0.00000004,-0.00000002,0.
 00075207,0.,0.00000001,-0.00037302,0.,0.,-0.00068548,0.,0.,-0.00052409
 ,0.,0.,-0.00020478,0.00000290,0.00000047,-0.03368325,0.00000026,0.0000
 0022,-0.01898777,0.00000067,-0.00000133,-0.03524943,0.,0.00000034,0.00
 808150,0.00000091,-0.00000128,0.00433071,0.00000009,-0.00000064,0.0038
 3824,0.,0.00000004,-0.00235868,-0.00000086,0.00000016,-0.00028820,0.00
 000068,0.00000030,-0.00079037,0.,0.00000003,-0.00096320,0.,-0.00000006
 ,0.00181349,0.00000002,0.00000002,-0.00011166,-0.00000458,0.00000155,0
 .06363232,0.00016391,0.00130563,0.00000003,-0.00023025,0.00285999,-0.0
 0000011,0.01024721,-0.00107849,-0.00000005,-0.00085146,0.00004587,0.00
 000002,-0.00014922,-0.00116645,0.00000001,0.00128378,0.00038392,-0.000
 00001,-0.00019723,0.00020595,0.,0.00028215,0.00002763,0.,-0.00000433,0
 .00004666,0.,0.00005018,0.00003411,0.,0.00233296,0.04664339,0.00000160
 ,0.00045381,0.00113328,0.00000005,-0.03629469,-0.03478976,-0.00000174,
 0.01052139,-0.00639356,-0.00000015,-0.44213305,-0.07707456,-0.00000816
 ,-0.01131494,0.00115233,-0.00000011,-0.00136161,-0.00088889,0.,-0.0863
 1934,0.01941789,-0.00000114,0.01042686,0.00872513,0.00000030,-0.000191
 39,-0.00041397,0.,0.00193718,-0.00085899,0.00000012,-0.00243821,0.0000
 1632,0.00000005,-0.01376386,0.00358981,-0.00000007,0.56063159,-0.00099
 946,-0.00070030,0.,0.00018052,-0.00494152,0.00000013,-0.01419309,0.000
 98586,-0.00000018,0.00191873,-0.00076311,-0.00000002,0.00006348,0.0014
 7673,0.,-0.00017191,-0.00097806,0.,0.00017234,-0.00031199,0.,0.0000641
 8,0.00010706,0.,0.00016688,-0.00010640,0.,0.00005069,-0.00007623,0.,0.
 02436065,-0.06537488,-0.00000246,0.00021856,-0.00145500,0.,-0.03678489
 ,-0.01399413,-0.00000134,-0.00602428,-0.00794772,-0.00000021,-0.078005
 82,-0.11286872,-0.00000279,0.00128546,-0.00657997,-0.00000018,-0.00200
 401,-0.00009020,0.00000008,0.03698506,0.01980390,0.00000053,0.00473024
 ,-0.00053646,-0.00000018,-0.00003869,0.00038743,0.00000003,-0.00131980
 ,0.00295081,0.00000025,0.00164121,0.00040740,0.00000005,0.00570463,0.0
 1183476,0.00000040,0.08204840,0.16665324,-0.00000012,-0.00000003,0.000
 30649,-0.00000001,-0.00000039,-0.00055597,-0.00000094,0.00000025,-0.00
 078258,0.00000020,-0.00000004,0.00025678,-0.00000002,0.00000010,0.0001
 8509,0.00000005,-0.00000009,0.00005823,0.,-0.00000002,-0.00011356,0.,0
 .,-0.00020617,0.00000001,0.,-0.00003766,0.,0.,-0.00007027,0.00000143,-
 0.00000364,0.01579340,0.,-0.00000009,-0.00165015,-0.00000128,-0.000001
 23,0.01518075,-0.00000011,-0.00000035,0.00226042,-0.00000837,-0.000002
 89,-0.05701925,-0.00000025,-0.00000028,0.00013490,-0.00000004,0.000000
 04,-0.00188198,-0.00000070,0.00000057,0.01673485,0.00000048,0.00000019
 ,0.00367953,0.,0.,0.00014412,-0.00000003,0.00000015,-0.00360617,0.0000
 0002,0.00000002,-0.00056923,0.00000030,0.00000047,-0.00269702,0.000010
 69,0.00000517,0.03258920,0.00062500,0.00012640,-0.00000001,-0.00406432
 ,0.00087232,0.00000002,0.00547856,0.01380683,0.00000019,0.00178079,-0.
 00018618,-0.00000002,-0.00001455,0.00056069,0.,-0.00027899,-0.00030359
 ,0.,-0.00008319,0.00016970,0.,-0.00063796,-0.00028569,0.,0.00002351,-0
 .00002277,0.,-0.00001477,-0.00005942,0.,-0.07016789,-0.03688342,-0.000
 00059,-0.00361331,-0.00470538,-0.00000006,0.00228200,-0.00257842,-0.00
 000015,-0.00301353,0.00106579,0.00000005,-0.02045987,0.00937866,0.0000
 0031,0.00141489,-0.00280538,-0.00000007,0.00041055,0.00028301,0.000000
 06,0.00067053,-0.00103627,0.00000018,0.00103762,0.00245587,0.,0.000085
 68,0.00000907,0.,-0.00008989,0.00009921,-0.00000002,0.00019738,-0.0000
 4183,0.,-0.00552294,-0.02920112,-0.00000012,-0.00308143,-0.02004910,-0
 .00000132,0.09703613,0.00157891,0.00070347,0.00000001,0.00251877,0.009
 03321,-0.00000015,0.02194933,-0.00998167,0.00000013,-0.00500282,0.0026
 3065,0.00000007,-0.00045392,-0.00343883,0.00000002,0.00034711,0.001843
 47,0.,-0.00019038,0.00041279,0.00000001,0.00032550,-0.00038262,-0.0000
 0001,-0.00030578,0.00022718,0.,-0.00010902,0.00016441,0.,-0.04954775,-
 0.16383437,-0.00000049,0.00294281,0.01090095,-0.00000003,-0.01734005,0
 .01112448,0.00000052,0.01644722,-0.00705241,-0.00000028,0.03795346,0.0
 1114467,0.00000121,-0.00665169,0.01600334,0.00000039,-0.00103530,-0.00
 072494,-0.00000017,-0.00624171,-0.00063023,-0.00000053,-0.00738289,-0.
 00927008,-0.00000022,-0.00004880,-0.00019450,0.00000002,0.00062755,-0.
 00046715,0.00000013,-0.00108547,-0.00011873,-0.00000003,-0.01365444,-0
 .01384833,-0.00000021,-0.04497165,0.01211750,0.00000210,0.06933102,0.1
 3363773,0.00000002,0.00000013,0.00066963,-0.00000003,0.00000019,0.0025
 1620,0.00000084,0.00000047,-0.00602972,0.00000002,0.00000003,-0.001021
 33,-0.00000005,-0.00000007,-0.00027289,0.00000009,0.,-0.00008773,-0.00
 000002,0.00000002,-0.00003229,0.,-0.00000002,0.00009733,0.,0.,0.000088
 33,0.,0.,0.00005210,-0.00000118,-0.00000047,-0.02972497,0.00000016,0.0
 0000039,0.00220758,-0.00000034,0.00000019,-0.00387986,0.00000025,-0.00
 000025,0.00014838,0.00000117,0.00000077,0.00150890,-0.00000011,0.00000
 028,-0.00030135,-0.00000005,-0.00000003,0.00058950,-0.00000047,-0.0000
 0017,0.00304892,-0.00000015,-0.00000006,0.00005273,0.,0.,0.00000690,0.
 00000003,0.,-0.00030552,-0.00000005,0.,-0.00018509,-0.00000034,0.00000
 030,0.00389313,-0.00000132,0.00000073,-0.01813376,0.00000157,-0.000002
 45,0.04509488\\0.00025553,-0.00216704,-0.00000004,-0.00254977,-0.00473
 409,-0.00000018,-0.00620063,-0.00032029,0.00000061,-0.00001457,-0.0000
 8713,-0.00000001,0.00043694,0.00277266,0.00000010,0.00031796,0.0001294
 6,-0.00000016,0.00021754,-0.00028653,0.,-0.00021882,0.00012224,-0.0000
 0006,0.00005506,0.00018750,-0.00000004,0.00011592,0.00006677,0.,0.0069
 4087,-0.00543964,0.00000085,-0.00247707,-0.00743941,0.00000023,0.00360
 707,-0.00307626,0.,-0.00473095,0.00104935,0.00000032,-0.00732739,-0.00
 176776,-0.00000167,0.00158668,-0.00264635,-0.00000059,-0.00028932,0.00
 006311,0.00000007,0.00282708,-0.00011291,0.00000049,0.00363131,0.00147
 823,0.00000032,0.00006503,0.00008486,0.00000008,0.00028427,-0.00003312
 ,-0.00000003,0.00031885,0.00014502,0.00000002,0.00344000,0.00197247,-0
 .00000044,0.00420445,0.00520570,0.00000147,-0.00449601,0.01483316,-0.0
 0000135\\\@
 The archive entry for this job was punched.


 OLD HORSE! OLD HORSE! WHAT BROUGHT YOU HERE?
 FROM SACARAP' TO PORTLAND PIER
 I'VE CARTED STONE THIS MANY A YEAR;
 TILL, KILLED BY BLOWS AND SORE ABUSE,
 THEY SALTED ME DOWN FOR SAILORS' USE.
 THE SAILORS THEY DO ME DESPISE;
 THEY TURN ME OVER AND DAMN MY EYES;
 CUT OFF MY MEAT, AND SCRAPE MY BONES,
 AND PITCH ME OVER TO DAVY JONES.

    SAILORS' COMPLAINT ABOUT THE BEEF
    SERVED ON SHIPBOARD, CIRCA 1835.
 Job cpu time:       0 days  2 hours 53 minutes 49.6 seconds.
 Elapsed time:       0 days  0 hours 17 minutes 59.3 seconds.
 File lengths (MBytes):  RWF=   1380 Int=      0 D2E=      0 Chk=     48 Scr=      8
 Normal termination of Gaussian 16 at Mon Jul 13 16:06:53 2020.
