 Entering Gaussian System, Link 0=g16
 Initial command:
 /gpfs/loomis/apps/avx/software/Gaussian/16-C.01_AVX/g16/l1.exe "/home/fas/batista/pev4/scratch60/gauss-scratch/Gau-57966.inp" -scrdir="/home/fas/batista/pev4/scratch60/gauss-scratch/"
 Entering Link 1 = /gpfs/loomis/apps/avx/software/Gaussian/16-C.01_AVX/g16/l1.exe PID=     57967.
  
 Copyright (c) 1988-2019, Gaussian, Inc.  All Rights Reserved.
  
 This is part of the Gaussian(R) 16 program.  It is based on
 the Gaussian(R) 09 system (copyright 2009, Gaussian, Inc.),
 the Gaussian(R) 03 system (copyright 2003, Gaussian, Inc.),
 the Gaussian(R) 98 system (copyright 1998, Gaussian, Inc.),
 the Gaussian(R) 94 system (copyright 1995, Gaussian, Inc.),
 the Gaussian 92(TM) system (copyright 1992, Gaussian, Inc.),
 the Gaussian 90(TM) system (copyright 1990, Gaussian, Inc.),
 the Gaussian 88(TM) system (copyright 1988, Gaussian, Inc.),
 the Gaussian 86(TM) system (copyright 1986, Carnegie Mellon
 University), and the Gaussian 82(TM) system (copyright 1983,
 Carnegie Mellon University). Gaussian is a federally registered
 trademark of Gaussian, Inc.
  
 This software contains proprietary and confidential information,
 including trade secrets, belonging to Gaussian, Inc.
  
 This software is provided under written license and may be
 used, copied, transmitted, or stored only in accord with that
 written license.
  
 The following legend is applicable only to US Government
 contracts under FAR:
  
                    RESTRICTED RIGHTS LEGEND
  
 Use, reproduction and disclosure by the US Government is
 subject to restrictions as set forth in subparagraphs (a)
 and (c) of the Commercial Computer Software - Restricted
 Rights clause in FAR 52.227-19.
  
 Gaussian, Inc.
 340 Quinnipiac St., Bldg. 40, Wallingford CT 06492
  
  
 ---------------------------------------------------------------
 Warning -- This program may not be used in any manner that
 competes with the business of Gaussian, Inc. or will provide
 assistance to any competitor of Gaussian, Inc.  The licensee
 of this program is prohibited from giving any competitor of
 Gaussian, Inc. access to this program.  By using this program,
 the user acknowledges that Gaussian, Inc. is engaged in the
 business of creating and licensing software in the field of
 computational chemistry and represents and warrants to the
 licensee that it is not a competitor of Gaussian, Inc. and that
 it will not use this program in any manner prohibited above.
 ---------------------------------------------------------------
  

 Cite this work as:
 Gaussian 16, Revision C.01,
 M. J. Frisch, G. W. Trucks, H. B. Schlegel, G. E. Scuseria, 
 M. A. Robb, J. R. Cheeseman, G. Scalmani, V. Barone, 
 G. A. Petersson, H. Nakatsuji, X. Li, M. Caricato, A. V. Marenich, 
 J. Bloino, B. G. Janesko, R. Gomperts, B. Mennucci, H. P. Hratchian, 
 J. V. Ortiz, A. F. Izmaylov, J. L. Sonnenberg, D. Williams-Young, 
 F. Ding, F. Lipparini, F. Egidi, J. Goings, B. Peng, A. Petrone, 
 T. Henderson, D. Ranasinghe, V. G. Zakrzewski, J. Gao, N. Rega, 
 G. Zheng, W. Liang, M. Hada, M. Ehara, K. Toyota, R. Fukuda, 
 J. Hasegawa, M. Ishida, T. Nakajima, Y. Honda, O. Kitao, H. Nakai, 
 T. Vreven, K. Throssell, J. A. Montgomery, Jr., J. E. Peralta, 
 F. Ogliaro, M. J. Bearpark, J. J. Heyd, E. N. Brothers, K. N. Kudin, 
 V. N. Staroverov, T. A. Keith, R. Kobayashi, J. Normand, 
 K. Raghavachari, A. P. Rendell, J. C. Burant, S. S. Iyengar, 
 J. Tomasi, M. Cossi, J. M. Millam, M. Klene, C. Adamo, R. Cammi, 
 J. W. Ochterski, R. L. Martin, K. Morokuma, O. Farkas, 
 J. B. Foresman, and D. J. Fox, Gaussian, Inc., Wallingford CT, 2019.
 
 ******************************************
 Gaussian 16:  ES64L-G16RevC.01  3-Jul-2019
                13-Jul-2020 
 ******************************************
 %chk=config_10_5.chk
 %mem=58GB
 %nprocshared=10
 Will use up to   10 processors via shared memory.
 ----------------------------------------------------------------------
 #p opt=addgic freq td wb97xd/cc-pvdz nosymm int=ultrafine scrf=(solven
 t=CarbonTetraChloride)
 ----------------------------------------------------------------------
 1/18=20,19=15,26=6,38=1,145=903/1,3;
 2/9=110,12=2,15=1,17=6,18=5,40=1/2;
 3/5=16,11=9,25=1,30=1,70=2201,71=1,72=11,74=-58,75=-5/1,2,3,8;
 4//1;
 5/5=2,38=5,53=11/2;
 8/6=1,10=1/1;
 9/15=2,42=1,70=2/14;
 10/5=4,31=1/2;
 6/7=2,8=2,9=2,10=2/1;
 7/12=6,13=5,30=1/1,2,3,16;
 1/18=20,19=15,26=6,145=903/3(2);
 2/9=110,15=1/2;
 99//99;
 2/9=110,15=1/2;
 3/5=16,11=9,25=1,30=1,70=2205,71=1,72=11,74=-58,75=-5/1,2,3,8;
 4/5=5,16=3,69=1/1;
 5/5=2,38=5,53=11/2;
 8/6=1,10=1/1;
 9/15=2,42=1,49=4,70=2/14;
 10/5=4,31=1/2;
 7/12=6,13=5,30=1/1,2,3,16;
 1/18=20,19=15,26=6,145=903/3(-8);
 2/9=110,15=1/2;
 6/7=2,8=2,9=2,10=2/1;
 99/9=10/99;
 Leave Link    1 at Mon Jul 13 16:17:55 2020, MaxMem=  7784628224 cpu:               4.4 elap:               0.5
 (Enter /gpfs/loomis/apps/avx/software/Gaussian/16-C.01_AVX/g16/l101.exe)
 ------------------------------------------------
 NM 2D-scan of HBT TD-WB97XD pVDZ in CTC Relaxed.
 ------------------------------------------------
 Symbolic Z-matrix:
 Charge =  0 Multiplicity = 1
 C                     1.70662  -3.26363  -0.00002 
 C                     1.00743  -2.05581  -0.00002 
 C                     1.69972  -0.81832  -0.00002 
 C                     3.09737  -0.78924  -0.00002 
 C                     3.78506  -1.9964   -0.00002 
 C                     3.10294  -3.22102  -0.00002 
 H                     1.17796  -4.21833  -0.00002 
 H                     3.62125   0.16757  -0.00002 
 H                     4.87669  -1.98786  -0.00002 
 H                     3.66705  -4.15487  -0.00002 
 N                     0.86689   0.27073  -0.00002 
 S                    -0.73926  -1.78918  -0.00002 
 C                    -1.40774   1.01921   0. 
 C                    -2.7855    0.85757  -0.00001 
 C                    -0.85492   2.40747   0.00003 
 C                    -3.64883   1.98306   0.00002 
 H                    -3.22294  -0.14453  -0.00003 
 C                    -1.7717    3.49728   0.00006 
 C                    -3.14966   3.28932   0.00006 
 H                    -4.72693   1.81362   0.00002 
 H                    -1.33144   4.4961    0.00008 
 H                    -3.8356    4.1371    0.00008 
 C                    -0.4533   -0.04716  -0.00001 
 O                     0.3943    2.61254   0.00003 
 H                     1.02397   1.15862  0. 
 
 Initializing the GIC definitions file.
 Number of initial coordinates =   134
 Number of input entries/lines =    52
 Number of additional coordinates =     2
 Number of removed coordinates =     0
 Number of frozen coordinates =     2
 Number of final active and frozen coordinates =   136
 ITRead=  0  0  0  0  0  0  0  0  0  0  0  0  0  0  0  0  0  0  0  0
 ITRead=  0  0  0  0  0
 MicOpt= -1 -1 -1 -1 -1 -1 -1 -1 -1 -1 -1 -1 -1 -1 -1 -1 -1 -1 -1 -1
 MicOpt= -1 -1 -1 -1 -1
 NAtoms=     25 NQM=       25 NQMF=       0 NMMI=      0 NMMIF=      0
                NMic=       0 NMicF=      0.
                    Isotopes and Nuclear Properties:
 (Nuclear quadrupole moments (NQMom) in fm**2, nuclear magnetic moments (NMagM)
  in nuclear magnetons)

  Atom         1           2           3           4           5           6           7           8           9          10
 IAtWgt=          12          12          12          12          12          12           1           1           1           1
 AtmWgt=  12.0000000  12.0000000  12.0000000  12.0000000  12.0000000  12.0000000   1.0078250   1.0078250   1.0078250   1.0078250
 NucSpn=           0           0           0           0           0           0           1           1           1           1
 AtZEff=  -0.0000000  -0.0000000  -0.0000000  -0.0000000  -0.0000000  -0.0000000  -0.0000000  -0.0000000  -0.0000000  -0.0000000
 NQMom=    0.0000000   0.0000000   0.0000000   0.0000000   0.0000000   0.0000000   0.0000000   0.0000000   0.0000000   0.0000000
 NMagM=    0.0000000   0.0000000   0.0000000   0.0000000   0.0000000   0.0000000   2.7928460   2.7928460   2.7928460   2.7928460
 AtZNuc=   6.0000000   6.0000000   6.0000000   6.0000000   6.0000000   6.0000000   1.0000000   1.0000000   1.0000000   1.0000000

  Atom        11          12          13          14          15          16          17          18          19          20
 IAtWgt=          14          32          12          12          12          12           1          12          12           1
 AtmWgt=  14.0030740  31.9720718  12.0000000  12.0000000  12.0000000  12.0000000   1.0078250  12.0000000  12.0000000   1.0078250
 NucSpn=           2           0           0           0           0           0           1           0           0           1
 AtZEff=  -0.0000000  -0.0000000  -0.0000000  -0.0000000  -0.0000000  -0.0000000  -0.0000000  -0.0000000  -0.0000000  -0.0000000
 NQMom=    2.0440000   0.0000000   0.0000000   0.0000000   0.0000000   0.0000000   0.0000000   0.0000000   0.0000000   0.0000000
 NMagM=    0.4037610   0.0000000   0.0000000   0.0000000   0.0000000   0.0000000   2.7928460   0.0000000   0.0000000   2.7928460
 AtZNuc=   7.0000000  16.0000000   6.0000000   6.0000000   6.0000000   6.0000000   1.0000000   6.0000000   6.0000000   1.0000000

  Atom        21          22          23          24          25
 IAtWgt=           1           1          12          16           1
 AtmWgt=   1.0078250   1.0078250  12.0000000  15.9949146   1.0078250
 NucSpn=           1           1           0           0           1
 AtZEff=  -0.0000000  -0.0000000  -0.0000000  -0.0000000  -0.0000000
 NQMom=    0.0000000   0.0000000   0.0000000   0.0000000   0.0000000
 NMagM=    2.7928460   2.7928460   0.0000000   0.0000000   2.7928460
 AtZNuc=   1.0000000   1.0000000   6.0000000   8.0000000   1.0000000
 Leave Link  101 at Mon Jul 13 16:17:58 2020, MaxMem=  7784628224 cpu:              33.9 elap:               3.4
 (Enter /gpfs/loomis/apps/avx/software/Gaussian/16-C.01_AVX/g16/l103.exe)

 GradGradGradGradGradGradGradGradGradGradGradGradGradGradGradGradGradGrad
 Berny optimization.
 Initialization pass.
                           ----------------------------
                           !    Initial Parameters    !
                           ! (Angstroms and Degrees)  !
 --------------------------                            --------------------------
 ! Name  Definition              Value          Derivative Info.                !
 --------------------------------------------------------------------------------
 ! R1    R(1,2)                  1.3956         estimate D2E/DX2                !
 ! R2    R(1,6)                  1.397          estimate D2E/DX2                !
 ! R3    R(1,7)                  1.0913         estimate D2E/DX2                !
 ! R4    R(2,3)                  1.418          estimate D2E/DX2                !
 ! R5    R(2,12)                 1.7669         estimate D2E/DX2                !
 ! R6    R(3,4)                  1.398          estimate D2E/DX2                !
 ! R7    R(3,11)                 1.371          estimate D2E/DX2                !
 ! R8    R(4,5)                  1.3893         estimate D2E/DX2                !
 ! R9    R(4,8)                  1.0908         estimate D2E/DX2                !
 ! R10   R(5,6)                  1.4018         estimate D2E/DX2                !
 ! R11   R(5,9)                  1.0917         estimate D2E/DX2                !
 ! R12   R(6,10)                 1.091          estimate D2E/DX2                !
 ! R13   R(11,23)                1.3579         estimate D2E/DX2                !
 ! R14   R(11,25)                0.9017         estimate D2E/DX2                !
 ! R15   R(12,23)                1.7653         estimate D2E/DX2                !
 ! R16   R(13,14)                1.3872         estimate D2E/DX2                !
 ! R17   R(13,15)                1.4943         estimate D2E/DX2                !
 ! R18   R(13,23)                1.4311         estimate D2E/DX2                !
 ! R19   R(14,16)                1.4185         estimate D2E/DX2                !
 ! R20   R(14,17)                1.0934         estimate D2E/DX2                !
 ! R21   R(15,18)                1.4241         estimate D2E/DX2                !
 ! R22   R(15,24)                1.2659         estimate D2E/DX2                !
 ! R23   R(16,19)                1.3984         estimate D2E/DX2                !
 ! R24   R(16,20)                1.0913         estimate D2E/DX2                !
 ! R25   R(18,19)                1.3936         estimate D2E/DX2                !
 ! R26   R(18,21)                1.0915         estimate D2E/DX2                !
 ! R27   R(19,22)                1.0905         estimate D2E/DX2                !
 ! A1    A(2,1,6)              118.3176         estimate D2E/DX2                !
 ! A2    A(2,1,7)              120.9594         estimate D2E/DX2                !
 ! A3    A(6,1,7)              120.723          estimate D2E/DX2                !
 ! A4    A(1,2,3)              120.7105         estimate D2E/DX2                !
 ! A5    A(1,2,12)             128.7446         estimate D2E/DX2                !
 ! A6    A(3,2,12)             110.545          estimate D2E/DX2                !
 ! A7    A(2,3,4)              120.4155         estimate D2E/DX2                !
 ! A8    A(2,3,11)             113.37           estimate D2E/DX2                !
 ! A9    A(4,3,11)             126.2145         estimate D2E/DX2                !
 ! A10   A(3,4,5)              118.4774         estimate D2E/DX2                !
 ! A11   A(3,4,8)              119.8934         estimate D2E/DX2                !
 ! A12   A(5,4,8)              121.6292         estimate D2E/DX2                !
 ! A13   A(4,5,6)              121.2127         estimate D2E/DX2                !
 ! A14   A(4,5,9)              119.2204         estimate D2E/DX2                !
 ! A15   A(6,5,9)              119.5669         estimate D2E/DX2                !
 ! A16   A(1,6,5)              120.8663         estimate D2E/DX2                !
 ! A17   A(1,6,10)             119.3869         estimate D2E/DX2                !
 ! A18   A(5,6,10)             119.7468         estimate D2E/DX2                !
 ! A19   A(3,11,23)            113.8674         estimate D2E/DX2                !
 ! A20   A(3,11,25)            132.5616         estimate D2E/DX2                !
 ! A21   A(23,11,25)           113.5711         estimate D2E/DX2                !
 ! A22   A(2,12,23)             89.3565         estimate D2E/DX2                !
 ! A23   A(14,13,15)           118.4045         estimate D2E/DX2                !
 ! A24   A(14,13,23)           125.1385         estimate D2E/DX2                !
 ! A25   A(15,13,23)           116.4571         estimate D2E/DX2                !
 ! A26   A(13,14,16)           120.7995         estimate D2E/DX2                !
 ! A27   A(13,14,17)           120.274          estimate D2E/DX2                !
 ! A28   A(16,14,17)           118.9265         estimate D2E/DX2                !
 ! A29   A(13,15,18)           118.2158         estimate D2E/DX2                !
 ! A30   A(13,15,24)           121.0356         estimate D2E/DX2                !
 ! A31   A(18,15,24)           120.7487         estimate D2E/DX2                !
 ! A32   A(14,16,19)           121.5955         estimate D2E/DX2                !
 ! A33   A(14,16,20)           118.5592         estimate D2E/DX2                !
 ! A34   A(19,16,20)           119.8453         estimate D2E/DX2                !
 ! A35   A(15,18,19)           121.4886         estimate D2E/DX2                !
 ! A36   A(15,18,21)           116.1422         estimate D2E/DX2                !
 ! A37   A(19,18,21)           122.3693         estimate D2E/DX2                !
 ! A38   A(16,19,18)           119.4962         estimate D2E/DX2                !
 ! A39   A(16,19,22)           120.1101         estimate D2E/DX2                !
 ! A40   A(18,19,22)           120.3937         estimate D2E/DX2                !
 ! A41   A(11,23,12)           112.8612         estimate D2E/DX2                !
 ! A42   A(11,23,13)           118.2911         estimate D2E/DX2                !
 ! A43   A(12,23,13)           128.8478         estimate D2E/DX2                !
 ! D1    D(6,1,2,3)              0.0            estimate D2E/DX2                !
 ! D2    D(6,1,2,12)          -179.9999         estimate D2E/DX2                !
 ! D3    D(7,1,2,3)            179.9999         estimate D2E/DX2                !
 ! D4    D(7,1,2,12)             0.0            estimate D2E/DX2                !
 ! D5    D(2,1,6,5)              0.0            estimate D2E/DX2                !
 ! D6    D(2,1,6,10)           180.0            estimate D2E/DX2                !
 ! D7    D(7,1,6,5)           -179.9999         estimate D2E/DX2                !
 ! D8    D(7,1,6,10)             0.0            estimate D2E/DX2                !
 ! D9    D(1,2,3,4)              0.0            estimate D2E/DX2                !
 ! D10   D(1,2,3,11)           180.0            estimate D2E/DX2                !
 ! D11   D(12,2,3,4)           180.0            estimate D2E/DX2                !
 ! D12   D(12,2,3,11)           -0.0001         estimate D2E/DX2                !
 ! D13   D(1,2,12,23)          179.9999         estimate D2E/DX2                !
 ! D14   D(3,2,12,23)            0.0            estimate D2E/DX2                !
 ! D15   D(2,3,4,5)              0.0            estimate D2E/DX2                !
 ! D16   D(2,3,4,8)            180.0            estimate D2E/DX2                !
 ! D17   D(11,3,4,5)          -180.0            estimate D2E/DX2                !
 ! D18   D(11,3,4,8)             0.0001         estimate D2E/DX2                !
 ! D19   D(2,3,11,23)            0.0002         estimate D2E/DX2                !
 ! D20   D(2,3,11,25)          179.9988         estimate D2E/DX2                !
 ! D21   D(4,3,11,23)         -179.9998         estimate D2E/DX2                !
 ! D22   D(4,3,11,25)           -0.0012         estimate D2E/DX2                !
 ! D23   D(3,4,5,6)              0.0            estimate D2E/DX2                !
 ! D24   D(3,4,5,9)           -180.0            estimate D2E/DX2                !
 ! D25   D(8,4,5,6)           -180.0            estimate D2E/DX2                !
 ! D26   D(8,4,5,9)              0.0            estimate D2E/DX2                !
 ! D27   D(4,5,6,1)              0.0            estimate D2E/DX2                !
 ! D28   D(4,5,6,10)          -180.0            estimate D2E/DX2                !
 ! D29   D(9,5,6,1)            180.0            estimate D2E/DX2                !
 ! D30   D(9,5,6,10)             0.0            estimate D2E/DX2                !
 ! D31   D(3,11,23,12)          -0.0002         estimate D2E/DX2                !
 ! D32   D(3,11,23,13)         179.9993         estimate D2E/DX2                !
 ! D33   D(25,11,23,12)       -179.9991         estimate D2E/DX2                !
 ! D34   D(25,11,23,13)          0.0004         estimate D2E/DX2                !
 ! D35   D(2,12,23,11)           0.0002         estimate D2E/DX2                !
 ! D36   D(2,12,23,13)        -179.9993         estimate D2E/DX2                !
 ! D37   D(15,13,14,16)         -0.0004         estimate D2E/DX2                !
 ! D38   D(15,13,14,17)        179.9997         estimate D2E/DX2                !
 ! D39   D(23,13,14,16)        179.9995         estimate D2E/DX2                !
 ! D40   D(23,13,14,17)         -0.0004         estimate D2E/DX2                !
 ! D41   D(14,13,15,18)          0.0004         estimate D2E/DX2                !
 ! D42   D(14,13,15,24)       -179.9996         estimate D2E/DX2                !
 ! D43   D(23,13,15,18)       -179.9995         estimate D2E/DX2                !
 ! D44   D(23,13,15,24)          0.0004         estimate D2E/DX2                !
 ! D45   D(14,13,23,11)        179.9993         estimate D2E/DX2                !
 ! D46   D(14,13,23,12)         -0.0012         estimate D2E/DX2                !
 ! D47   D(15,13,23,11)         -0.0008         estimate D2E/DX2                !
 ! D48   D(15,13,23,12)        179.9987         estimate D2E/DX2                !
 ! D49   D(13,14,16,19)          0.0001         estimate D2E/DX2                !
 ! D50   D(13,14,16,20)       -179.9998         estimate D2E/DX2                !
 ! D51   D(17,14,16,19)       -180.0            estimate D2E/DX2                !
 ! D52   D(17,14,16,20)          0.0001         estimate D2E/DX2                !
 ! D53   D(13,15,18,19)         -0.0001         estimate D2E/DX2                !
 ! D54   D(13,15,18,21)        179.9998         estimate D2E/DX2                !
 ! D55   D(24,15,18,19)        180.0            estimate D2E/DX2                !
 ! D56   D(24,15,18,21)         -0.0001         estimate D2E/DX2                !
 ! D57   D(14,16,19,18)          0.0002         estimate D2E/DX2                !
 ! D58   D(14,16,19,22)       -179.9998         estimate D2E/DX2                !
 ! D59   D(20,16,19,18)       -179.9998         estimate D2E/DX2                !
 ! D60   D(20,16,19,22)          0.0001         estimate D2E/DX2                !
 ! D61   D(15,18,19,16)         -0.0002         estimate D2E/DX2                !
 ! D62   D(15,18,19,22)        179.9998         estimate D2E/DX2                !
 ! D63   D(21,18,19,16)        179.9999         estimate D2E/DX2                !
 ! D64   D(21,18,19,22)          0.0            estimate D2E/DX2                !
 ! Qtot  GIC-1                  40.0            Frozen                          !
 ! Ptot  GIC-2                 -60.0            Frozen                          !
 --------------------------------------------------------------------------------
 NOTE: GIC-type coordinates are in arbitrary units.
 Trust Radius=3.00D-01 FncErr=5.00D-06 GrdErr=5.00D-06 EigMax=2.50D+02 EigMin=1.00D-04
 Number of steps in this run=    146 maximum allowed number of steps=    150.
 GradGradGradGradGradGradGradGradGradGradGradGradGradGradGradGradGradGrad

 Leave Link  103 at Mon Jul 13 16:17:58 2020, MaxMem=  7784628224 cpu:               0.1 elap:               0.0
 (Enter /gpfs/loomis/apps/avx/software/Gaussian/16-C.01_AVX/g16/l202.exe)
                          Input orientation:                          
 ---------------------------------------------------------------------
 Center     Atomic      Atomic             Coordinates (Angstroms)
 Number     Number       Type             X           Y           Z
 ---------------------------------------------------------------------
      1          6           0        1.706616   -3.263630   -0.000023
      2          6           0        1.007433   -2.055806   -0.000021
      3          6           0        1.699720   -0.818316   -0.000020
      4          6           0        3.097371   -0.789244   -0.000020
      5          6           0        3.785058   -1.996404   -0.000022
      6          6           0        3.102935   -3.221017   -0.000024
      7          1           0        1.177965   -4.218326   -0.000023
      8          1           0        3.621252    0.167573   -0.000019
      9          1           0        4.876686   -1.987856   -0.000022
     10          1           0        3.667052   -4.154875   -0.000025
     11          7           0        0.866895    0.270733   -0.000019
     12         16           0       -0.739261   -1.789180   -0.000019
     13          6           0       -1.407744    1.019212    0.000002
     14          6           0       -2.785497    0.857575   -0.000006
     15          6           0       -0.854922    2.407467    0.000031
     16          6           0       -3.648828    1.983061    0.000023
     17          1           0       -3.222945   -0.144529   -0.000033
     18          6           0       -1.771695    3.497284    0.000060
     19          6           0       -3.149662    3.289315    0.000058
     20          1           0       -4.726930    1.813624    0.000019
     21          1           0       -1.331443    4.496098    0.000084
     22          1           0       -3.835604    4.137101    0.000083
     23          6           0       -0.453295   -0.047162   -0.000015
     24          8           0        0.394304    2.612538    0.000033
     25          1           0        1.023969    1.158621   -0.000004
 ---------------------------------------------------------------------
                    Distance matrix (angstroms):
                    1          2          3          4          5
     1  C    0.000000
     2  C    1.395599   0.000000
     3  C    2.445324   1.417971   0.000000
     4  C    2.838447   2.443771   1.397953   0.000000
     5  C    2.434293   2.778260   2.395104   1.389298   0.000000
     6  C    1.396969   2.397675   2.782442   2.431779   1.401773
     7  H    1.091291   2.169234   3.439811   3.929723   3.425474
     8  H    3.929247   3.431539   2.159690   1.090848   2.170167
     9  H    3.417154   3.869849   3.385400   2.145374   1.091661
    10  H    2.153515   3.388166   3.873373   3.413504   2.161695
    11  N    3.632747   2.330779   1.370994   2.469529   3.695346
    12  S    2.855927   1.766927   2.625111   3.964797   4.529062
    13  C    5.295468   3.910091   3.610103   4.854542   6.004926
    14  C    6.096180   4.782688   4.788088   6.109022   7.163616
    15  C    6.222766   4.836235   4.114836   5.083265   6.397147
    16  C    7.497236   6.163864   6.037772   7.293619   8.432011
    17  H    5.833469   4.642098   4.968563   6.353113   7.248554
    18  C    7.603197   6.209699   5.538513   6.487074   7.813969
    19  C    8.156257   6.771392   6.355245   7.460567   8.719470
    20  H    8.195671   6.917760   6.944706   8.245884   9.325784
    21  H    8.333257   6.956851   6.118083   6.895595   8.266266
    22  H    9.245919   7.861749   7.429399   8.504999   9.782350
    23  C    3.874388   2.483621   2.286953   3.627384   4.665102
    24  O    6.020923   4.708435   3.670813   4.344962   5.721849
    25  H    4.474629   3.214469   2.089239   2.844850   4.192588
                    6          7          8          9         10
     6  C    0.000000
     7  H    2.167980   0.000000
     8  H    3.428001   5.020534   0.000000
     9  H    2.160295   4.319205   2.494391   0.000000
    10  H    1.091017   2.489896   4.322690   2.481771   0.000000
    11  N    4.146347   4.499824   2.756288   4.602135   5.237068
    12  S    4.100321   3.094593   4.779431   5.619460   5.001211
    13  C    6.190781   5.841036   5.100597   6.966815   7.247395
    14  C    7.162998   6.440016   6.443798   8.173464   8.170682
    15  C    6.880731   6.930639   5.005323   7.222893   7.969478
    16  C    8.524596   7.858444   7.493335   9.404923   9.549679
    17  H    7.034311   5.996985   6.851309   8.306736   7.972134
    18  C    8.300457   8.260214   6.338049   8.619033   9.388051
    19  C    9.026593   8.665623   7.455907   9.605768  10.093738
    20  H    9.308835   8.441102   8.508915  10.328634  10.299608
    21  H    8.900425   9.068534   6.577638   8.976776   9.991210
    22  H   10.113616   9.744179   8.447595  10.649840  11.182429
    23  C    4.766564   4.478796   4.080202   5.672300   5.818124
    24  O    6.431722   6.875669   4.048586   6.423034   7.517231
    25  H    4.848023   5.379152   2.779938   4.974308   5.934570
                   11         12         13         14         15
    11  N    0.000000
    12  S    2.612083   0.000000
    13  C    2.394620   2.886856   0.000000
    14  C    3.699237   3.345504   1.387203   0.000000
    15  C    2.744137   4.198241   1.494276   2.475739   0.000000
    16  C    4.829475   4.763968   2.439562   1.418471   2.825957
    17  H    4.110867   2.978852   2.156212   1.093423   3.481410
    18  C    4.168068   5.386337   2.504656   2.827695   1.424140
    19  C    5.024397   5.621490   2.861406   2.458857   2.458350
    20  H    5.802706   5.374170   3.412929   2.164068   3.917281
    21  H    4.763024   6.313113   3.477723   3.918306   2.142301
    22  H    6.087881   6.686415   3.951675   3.443547   3.446171
    23  C    1.357925   1.765334   1.431128   2.501542   2.487269
    24  O    2.389016   4.545338   2.405424   3.631946   1.265947
    25  H    0.901675   3.434896   2.435706   3.821343   2.256070
                   16         17         18         19         20
    16  C    0.000000
    17  H    2.169797   0.000000
    18  C    2.411742   3.920322   0.000000
    19  C    1.398380   3.434626   1.393572   0.000000
    20  H    1.091335   2.469076   3.401194   2.159963   0.000000
    21  H    3.418425   5.011307   1.091536   2.182256   4.327239
    22  H    2.162122   4.325241   2.160806   1.090531   2.488575
    23  C    3.785926   2.771360   3.781703   4.289810   4.661167
    24  O    4.091841   4.548177   2.339729   3.608008   5.183175
    25  H    4.744970   4.442351   3.644871   4.686049   5.788080
                   21         22         23         24         25
    21  H    0.000000
    22  H    2.529763   0.000000
    23  C    4.627349   5.380341   0.000000
    24  O    2.554604   4.496267   2.791493   0.000000
    25  H    4.084938   5.699719   1.906888   1.584410   0.000000
 Symmetry turned off by external request.
 Stoichiometry    C13H9NOS
 Framework group  C1[X(C13H9NOS)]
 Deg. of freedom    69
 Full point group                 C1      NOp   1
 Rotational constants (GHZ):           1.3729888           0.2856204           0.2364352
 Leave Link  202 at Mon Jul 13 16:17:58 2020, MaxMem=  7784628224 cpu:               0.1 elap:               0.0
 (Enter /gpfs/loomis/apps/avx/software/Gaussian/16-C.01_AVX/g16/l301.exe)
 Standard basis: CC-pVDZ (5D, 7F)
 Ernie: Thresh=  0.10000D-02 Tol=  0.10000D-05 Strict=F.
 Ernie:  40 primitive shells out of 425 were deleted.
   273 basis functions,   629 primitive gaussians,   289 cartesian basis functions
    59 alpha electrons       59 beta electrons
       nuclear repulsion energy      1098.2555563035 Hartrees.
 IExCor= 4639 DFT=T Ex+Corr=wB97XD ExCW=0 ScaHFX=  1.000000
 ScaDFX=  1.000000  1.000000  1.000000  1.000000 ScalE2=  1.000000  1.000000
 IRadAn=      5 IRanWt=     -1 IRanGd=            0 ICorTp=0 IEmpDi=121
 HFx  wShort=  0.000000 wLong=  0.200000 cFull=  0.222036 cShort=  0.000000 cLong=  0.777964
 DFx  wShort=  0.000000 wLong=  0.200000 cFull=  0.000000 cShort=  0.000000 cLong=  1.000000
 NAtoms=   25 NActive=   25 NUniq=   25 SFac= 1.00D+00 NAtFMM=   60 NAOKFM=F Big=F
 Integral buffers will be    131072 words long.
 Raffenetti 1 integral format.
 Two-electron integral symmetry is turned off.
 R6Disp:  Grimme-D2 Dispersion energy=       -0.0140864723 Hartrees.
 Nuclear repulsion after empirical dispersion term =     1098.2414698312 Hartrees.
 ------------------------------------------------------------------------------
 Polarizable Continuum Model (PCM)
 =================================
 Model                : PCM.
 Atomic radii         : UFF (Universal Force Field).
 Polarization charges : Total charges.
 Charge compensation  : None.
 Solution method      : On-the-fly selection.
 Cavity type          : Scaled VdW (van der Waals Surface) (Alpha=1.100).
 Cavity algorithm     : GePol (No added spheres)
                        Default sphere list used, NSphG=   25.
                        Lebedev-Laikov grids with approx.  5.0 points / Ang**2.
                        Smoothing algorithm: York/Karplus (Gamma=1.0000).
                        Polarization charges: spherical gaussians, with
                                              point-specific exponents (IZeta= 3).
                        Self-potential: point-specific (ISelfS= 7).
                        Self-field    : sphere-specific E.n sum rule (ISelfD= 2).
 1st derivatives      : Analytical E(r).r(x)/FMM algorithm (CHGder, D1EAlg=3).
                        Cavity 1st derivative terms included.
 Solvent              : CarbonTetraChloride, Eps=   2.228000 Eps(inf)=   2.131892
 ------------------------------------------------------------------------------
 GePol: Number of generator spheres                  =      25
 GePol: Total number of spheres                      =      25
 GePol: Number of exposed spheres                    =      25 (100.00%)
 GePol: Number of points                             =    2205
 GePol: Average weight of points                     =       0.12
 GePol: Minimum weight of points                     =   0.17D-10
 GePol: Maximum weight of points                     =    0.20577
 GePol: Number of points with low weight             =     167
 GePol: Fraction of low-weight points (<1% of avg)   =       7.57%
 GePol: Cavity surface area                          =    274.603 Ang**2
 GePol: Cavity volume                                =    293.647 Ang**3
 Leave Link  301 at Mon Jul 13 16:17:59 2020, MaxMem=  7784628224 cpu:               0.8 elap:               0.1
 (Enter /gpfs/loomis/apps/avx/software/Gaussian/16-C.01_AVX/g16/l302.exe)
 NPDir=0 NMtPBC=     1 NCelOv=     1 NCel=       1 NClECP=     1 NCelD=      1
         NCelK=      1 NCelE2=     1 NClLst=     1 CellRange=     0.0.
 One-electron integrals computed using PRISM.
 NBasis=   273 RedAO= T EigKep=  3.05D-04  NBF=   273
 NBsUse=   273 1.00D-06 EigRej= -1.00D+00 NBFU=   273
 Precomputing XC quadrature grid using
 IXCGrd= 4 IRadAn=           5 IRanWt=          -1 IRanGd=           0 AccXCQ= 0.00D+00.
 Generated NRdTot=       0 NPtTot=           0 NUsed=           0 NTot=          32
 NSgBfM=   288   288   288   288   288 MxSgAt=    25 MxSgA2=    25.
 Leave Link  302 at Mon Jul 13 16:17:59 2020, MaxMem=  7784628224 cpu:               2.8 elap:               0.3
 (Enter /gpfs/loomis/apps/avx/software/Gaussian/16-C.01_AVX/g16/l303.exe)
 DipDrv:  MaxL=1.
 Leave Link  303 at Mon Jul 13 16:17:59 2020, MaxMem=  7784628224 cpu:               0.4 elap:               0.1
 (Enter /gpfs/loomis/apps/avx/software/Gaussian/16-C.01_AVX/g16/l308.exe)
 Leave Link  308 at Mon Jul 13 16:17:59 2020, MaxMem=  7784628224 cpu:               0.5 elap:               0.1
 (Enter /gpfs/loomis/apps/avx/software/Gaussian/16-C.01_AVX/g16/l401.exe)
 ExpMin= 1.22D-01 ExpMax= 1.11D+05 ExpMxC= 1.07D+03 IAcc=3 IRadAn=         5 AccDes= 0.00D+00
 Harris functional with IExCor= 4639 and IRadAn=       5 diagonalized for initial guess.
 HarFok:  IExCor= 4639 AccDes= 0.00D+00 IRadAn=         5 IDoV= 1 UseB2=F ITyADJ=14
 ICtDFT=  3500011 ScaDFX=  1.000000  1.000000  1.000000  1.000000
 FoFCou: FMM=F IPFlag=           0 FMFlag=      100000 FMFlg1=           0
         NFxFlg=           0 DoJE=T BraDBF=F KetDBF=T FulRan=T
         wScrn=  0.000000 ICntrl=       500 IOpCl=  0 I1Cent=   200000004 NGrid=           0
         NMat0=    1 NMatS0=      1 NMatT0=    0 NMatD0=    1 NMtDS0=    0 NMtDT0=    0
 Symmetry not used in FoFCou.
 Harris En= -994.429449972650    
 JPrj=0 DoOrth=F DoCkMO=F.
 Leave Link  401 at Mon Jul 13 16:18:00 2020, MaxMem=  7784628224 cpu:              14.1 elap:               1.4
 (Enter /gpfs/loomis/apps/avx/software/Gaussian/16-C.01_AVX/g16/l502.exe)
 Two-electron integral symmetry not used.
 Closed shell SCF:
 Using DIIS extrapolation, IDIIS=  1040.
 NGot=  7784628224 LenX=  7784455381 LenY=  7784371419
 Requested convergence on RMS density matrix=1.00D-08 within 128 cycles.
 Requested convergence on MAX density matrix=1.00D-06.
 Requested convergence on             energy=1.00D-06.
 No special actions if energy rises.
 Fock matrices will be formed incrementally for  20 cycles.

 Cycle   1  Pass 1  IDiag  1:
 FoFJK:  IHMeth= 1 ICntrl=       0 DoSepK=T KAlg= 0 I1Cent=           0 FoldK=F
 IRaf=         1 NMat=       1 IRICut=       1 DoRegI=T DoRafI=F ISym2E= 0 IDoP0=0 IntGTp=1.
 FoFCou: FMM=F IPFlag=           0 FMFlag=      100000 FMFlg1=           0
         NFxFlg=           0 DoJE=T BraDBF=F KetDBF=F FulRan=T
         wScrn=  0.000000 ICntrl=       500 IOpCl=  0 I1Cent=           0 NGrid=           0
         NMat0=    1 NMatS0=      1 NMatT0=    0 NMatD0=    1 NMtDS0=    0 NMtDT0=    0
 Symmetry not used in FoFCou.
 Inv3:  Mode=1 IEnd=    14586075.
 Iteration    1 A*A^-1 deviation from unit magnitude is 4.88D-15 for   2193.
 Iteration    1 A*A^-1 deviation from orthogonality  is 2.45D-15 for   2189   2012.
 Iteration    1 A^-1*A deviation from unit magnitude is 5.11D-15 for   2191.
 Iteration    1 A^-1*A deviation from orthogonality  is 1.95D-15 for   2189   2012.
 E= -1028.53280787965    
 DIIS: error= 3.95D-02 at cycle   1 NSaved=   1.
 NSaved= 1 IEnMin= 1 EnMin= -1028.53280787965     IErMin= 1 ErrMin= 3.95D-02
 ErrMax= 3.95D-02  0.00D+00 EMaxC= 1.00D-01 BMatC= 3.95D-01 BMatP= 3.95D-01
 IDIUse=3 WtCom= 6.05D-01 WtEn= 3.95D-01
 Coeff-Com:  0.100D+01
 Coeff-En:   0.100D+01
 Coeff:      0.100D+01
 Gap=     0.312 Goal=   None    Shift=    0.000
 GapD=    0.312 DampG=1.000 DampE=0.500 DampFc=0.5000 IDamp=-1.
 Damping current iteration by 5.00D-01
 RMSDP=3.66D-03 MaxDP=2.45D-01              OVMax= 2.08D-01

 Cycle   2  Pass 1  IDiag  1:
 RMSU=  1.83D-03    CP:  9.94D-01
 E= -1028.65469607517     Delta-E=       -0.121888195527 Rises=F Damp=T
 DIIS: error= 1.17D-02 at cycle   2 NSaved=   2.
 NSaved= 2 IEnMin= 2 EnMin= -1028.65469607517     IErMin= 2 ErrMin= 1.17D-02
 ErrMax= 1.17D-02  0.00D+00 EMaxC= 1.00D-01 BMatC= 5.84D-02 BMatP= 3.95D-01
 IDIUse=3 WtCom= 8.83D-01 WtEn= 1.17D-01
 Coeff-Com: -0.280D+00 0.128D+01
 Coeff-En:   0.000D+00 0.100D+01
 Coeff:     -0.247D+00 0.125D+01
 Gap=     0.281 Goal=   None    Shift=    0.000
 RMSDP=1.17D-03 MaxDP=2.71D-02 DE=-1.22D-01 OVMax= 1.47D-01

 Cycle   3  Pass 1  IDiag  1:
 RMSU=  1.13D-03    CP:  9.93D-01  1.16D+00
 E= -1028.76503878553     Delta-E=       -0.110342710360 Rises=F Damp=F
 DIIS: error= 7.02D-03 at cycle   3 NSaved=   3.
 NSaved= 3 IEnMin= 3 EnMin= -1028.76503878553     IErMin= 3 ErrMin= 7.02D-03
 ErrMax= 7.02D-03  0.00D+00 EMaxC= 1.00D-01 BMatC= 1.58D-02 BMatP= 5.84D-02
 IDIUse=3 WtCom= 9.30D-01 WtEn= 7.02D-02
 Coeff-Com: -0.204D+00 0.501D+00 0.703D+00
 Coeff-En:   0.000D+00 0.000D+00 0.100D+01
 Coeff:     -0.190D+00 0.465D+00 0.724D+00
 Gap=     0.236 Goal=   None    Shift=    0.000
 RMSDP=5.62D-04 MaxDP=1.91D-02 DE=-1.10D-01 OVMax= 4.72D-02

 Cycle   4  Pass 1  IDiag  1:
 RMSU=  4.44D-04    CP:  9.91D-01  1.32D+00  8.42D-01
 E= -1028.78061379440     Delta-E=       -0.015575008863 Rises=F Damp=F
 DIIS: error= 2.36D-03 at cycle   4 NSaved=   4.
 NSaved= 4 IEnMin= 4 EnMin= -1028.78061379440     IErMin= 4 ErrMin= 2.36D-03
 ErrMax= 2.36D-03  0.00D+00 EMaxC= 1.00D-01 BMatC= 1.94D-03 BMatP= 1.58D-02
 IDIUse=3 WtCom= 9.76D-01 WtEn= 2.36D-02
 Coeff-Com: -0.715D-01 0.141D+00 0.341D+00 0.589D+00
 Coeff-En:   0.000D+00 0.000D+00 0.000D+00 0.100D+01
 Coeff:     -0.698D-01 0.138D+00 0.333D+00 0.599D+00
 Gap=     0.238 Goal=   None    Shift=    0.000
 RMSDP=1.77D-04 MaxDP=1.01D-02 DE=-1.56D-02 OVMax= 1.41D-02

 Cycle   5  Pass 1  IDiag  1:
 RMSU=  1.13D-04    CP:  9.91D-01  1.33D+00  9.17D-01  7.66D-01
 E= -1028.78276360372     Delta-E=       -0.002149809328 Rises=F Damp=F
 DIIS: error= 5.61D-04 at cycle   5 NSaved=   5.
 NSaved= 5 IEnMin= 5 EnMin= -1028.78276360372     IErMin= 5 ErrMin= 5.61D-04
 ErrMax= 5.61D-04  0.00D+00 EMaxC= 1.00D-01 BMatC= 6.04D-05 BMatP= 1.94D-03
 IDIUse=3 WtCom= 9.94D-01 WtEn= 5.61D-03
 Coeff-Com:  0.250D-03-0.694D-02 0.218D-01 0.149D+00 0.836D+00
 Coeff-En:   0.000D+00 0.000D+00 0.000D+00 0.000D+00 0.100D+01
 Coeff:      0.249D-03-0.690D-02 0.217D-01 0.148D+00 0.837D+00
 Gap=     0.239 Goal=   None    Shift=    0.000
 RMSDP=6.04D-05 MaxDP=1.95D-03 DE=-2.15D-03 OVMax= 6.58D-03

 Cycle   6  Pass 1  IDiag  1:
 RMSU=  3.81D-05    CP:  9.91D-01  1.33D+00  9.34D-01  8.55D-01  1.12D+00
 E= -1028.78291102890     Delta-E=       -0.000147425179 Rises=F Damp=F
 DIIS: error= 2.44D-04 at cycle   6 NSaved=   6.
 NSaved= 6 IEnMin= 6 EnMin= -1028.78291102890     IErMin= 6 ErrMin= 2.44D-04
 ErrMax= 2.44D-04  0.00D+00 EMaxC= 1.00D-01 BMatC= 1.06D-05 BMatP= 6.04D-05
 IDIUse=3 WtCom= 9.98D-01 WtEn= 2.44D-03
 Coeff-Com:  0.174D-01-0.353D-01-0.694D-01-0.891D-01 0.185D+00 0.992D+00
 Coeff-En:   0.000D+00 0.000D+00 0.000D+00 0.000D+00 0.000D+00 0.100D+01
 Coeff:      0.174D-01-0.352D-01-0.693D-01-0.889D-01 0.184D+00 0.992D+00
 Gap=     0.240 Goal=   None    Shift=    0.000
 RMSDP=3.97D-05 MaxDP=1.82D-03 DE=-1.47D-04 OVMax= 4.70D-03

 Cycle   7  Pass 1  IDiag  1:
 RMSU=  1.81D-05    CP:  9.90D-01  1.33D+00  9.47D-01  8.92D-01  1.33D+00
                    CP:  1.38D+00
 E= -1028.78295194038     Delta-E=       -0.000040911481 Rises=F Damp=F
 DIIS: error= 7.46D-05 at cycle   7 NSaved=   7.
 NSaved= 7 IEnMin= 7 EnMin= -1028.78295194038     IErMin= 7 ErrMin= 7.46D-05
 ErrMax= 7.46D-05  0.00D+00 EMaxC= 1.00D-01 BMatC= 1.84D-06 BMatP= 1.06D-05
 IDIUse=1 WtCom= 1.00D+00 WtEn= 0.00D+00
 Coeff-Com:  0.557D-02-0.104D-01-0.230D-01-0.455D-01-0.262D-01 0.340D+00
 Coeff-Com:  0.759D+00
 Coeff:      0.557D-02-0.104D-01-0.230D-01-0.455D-01-0.262D-01 0.340D+00
 Coeff:      0.759D+00
 Gap=     0.240 Goal=   None    Shift=    0.000
 RMSDP=1.20D-05 MaxDP=4.32D-04 DE=-4.09D-05 OVMax= 1.56D-03

 Cycle   8  Pass 1  IDiag  1:
 RMSU=  6.84D-06    CP:  9.90D-01  1.33D+00  9.48D-01  8.96D-01  1.37D+00
                    CP:  1.59D+00  1.21D+00
 E= -1028.78295721755     Delta-E=       -0.000005277170 Rises=F Damp=F
 DIIS: error= 5.48D-05 at cycle   8 NSaved=   8.
 NSaved= 8 IEnMin= 8 EnMin= -1028.78295721755     IErMin= 8 ErrMin= 5.48D-05
 ErrMax= 5.48D-05  0.00D+00 EMaxC= 1.00D-01 BMatC= 3.88D-07 BMatP= 1.84D-06
 IDIUse=1 WtCom= 1.00D+00 WtEn= 0.00D+00
 Coeff-Com: -0.197D-02 0.414D-02 0.886D-02 0.567D-02-0.409D-01-0.126D+00
 Coeff-Com:  0.220D+00 0.930D+00
 Coeff:     -0.197D-02 0.414D-02 0.886D-02 0.567D-02-0.409D-01-0.126D+00
 Coeff:      0.220D+00 0.930D+00
 Gap=     0.240 Goal=   None    Shift=    0.000
 RMSDP=7.59D-06 MaxDP=1.80D-04 DE=-5.28D-06 OVMax= 1.23D-03

 Cycle   9  Pass 1  IDiag  1:
 RMSU=  2.91D-06    CP:  9.90D-01  1.33D+00  9.48D-01  8.95D-01  1.39D+00
                    CP:  1.70D+00  1.48D+00  1.23D+00
 E= -1028.78295887391     Delta-E=       -0.000001656357 Rises=F Damp=F
 DIIS: error= 1.81D-05 at cycle   9 NSaved=   9.
 NSaved= 9 IEnMin= 9 EnMin= -1028.78295887391     IErMin= 9 ErrMin= 1.81D-05
 ErrMax= 1.81D-05  0.00D+00 EMaxC= 1.00D-01 BMatC= 6.20D-08 BMatP= 3.88D-07
 IDIUse=1 WtCom= 1.00D+00 WtEn= 0.00D+00
 Coeff-Com: -0.981D-03 0.188D-02 0.468D-02 0.659D-02-0.404D-02-0.772D-01
 Coeff-Com: -0.854D-01 0.179D+00 0.975D+00
 Coeff:     -0.981D-03 0.188D-02 0.468D-02 0.659D-02-0.404D-02-0.772D-01
 Coeff:     -0.854D-01 0.179D+00 0.975D+00
 Gap=     0.240 Goal=   None    Shift=    0.000
 RMSDP=3.94D-06 MaxDP=9.74D-05 DE=-1.66D-06 OVMax= 6.25D-04

 Cycle  10  Pass 1  IDiag  1:
 RMSU=  1.29D-06    CP:  9.90D-01  1.33D+00  9.48D-01  8.96D-01  1.40D+00
                    CP:  1.75D+00  1.59D+00  1.50D+00  1.38D+00
 E= -1028.78295921316     Delta-E=       -0.000000339253 Rises=F Damp=F
 DIIS: error= 9.95D-06 at cycle  10 NSaved=  10.
 NSaved=10 IEnMin=10 EnMin= -1028.78295921316     IErMin=10 ErrMin= 9.95D-06
 ErrMax= 9.95D-06  0.00D+00 EMaxC= 1.00D-01 BMatC= 1.59D-08 BMatP= 6.20D-08
 IDIUse=1 WtCom= 1.00D+00 WtEn= 0.00D+00
 Coeff-Com:  0.188D-03-0.439D-03-0.456D-03 0.579D-03 0.845D-02 0.102D-02
 Coeff-Com: -0.753D-01-0.120D+00 0.363D+00 0.823D+00
 Coeff:      0.188D-03-0.439D-03-0.456D-03 0.579D-03 0.845D-02 0.102D-02
 Coeff:     -0.753D-01-0.120D+00 0.363D+00 0.823D+00
 Gap=     0.240 Goal=   None    Shift=    0.000
 RMSDP=1.43D-06 MaxDP=3.68D-05 DE=-3.39D-07 OVMax= 2.64D-04

 Cycle  11  Pass 1  IDiag  1:
 RMSU=  4.83D-07    CP:  9.90D-01  1.33D+00  9.48D-01  8.96D-01  1.40D+00
                    CP:  1.76D+00  1.63D+00  1.59D+00  1.67D+00  1.17D+00
 E= -1028.78295927117     Delta-E=       -0.000000058009 Rises=F Damp=F
 DIIS: error= 2.65D-06 at cycle  11 NSaved=  11.
 NSaved=11 IEnMin=11 EnMin= -1028.78295927117     IErMin=11 ErrMin= 2.65D-06
 ErrMax= 2.65D-06  0.00D+00 EMaxC= 1.00D-01 BMatC= 2.55D-09 BMatP= 1.59D-08
 IDIUse=1 WtCom= 1.00D+00 WtEn= 0.00D+00
 Coeff-Com:  0.266D-03-0.537D-03-0.104D-02-0.125D-02 0.384D-02 0.150D-01
 Coeff-Com: -0.102D-01-0.753D-01-0.711D-01 0.205D+00 0.935D+00
 Coeff:      0.266D-03-0.537D-03-0.104D-02-0.125D-02 0.384D-02 0.150D-01
 Coeff:     -0.102D-01-0.753D-01-0.711D-01 0.205D+00 0.935D+00
 Gap=     0.240 Goal=   None    Shift=    0.000
 RMSDP=7.67D-07 MaxDP=2.24D-05 DE=-5.80D-08 OVMax= 1.18D-04

 Cycle  12  Pass 1  IDiag  1:
 RMSU=  2.38D-07    CP:  9.90D-01  1.33D+00  9.48D-01  8.96D-01  1.40D+00
                    CP:  1.77D+00  1.64D+00  1.64D+00  1.81D+00  1.44D+00
                    CP:  1.21D+00
 E= -1028.78295928121     Delta-E=       -0.000000010034 Rises=F Damp=F
 DIIS: error= 2.12D-06 at cycle  12 NSaved=  12.
 NSaved=12 IEnMin=12 EnMin= -1028.78295928121     IErMin=12 ErrMin= 2.12D-06
 ErrMax= 2.12D-06  0.00D+00 EMaxC= 1.00D-01 BMatC= 6.75D-10 BMatP= 2.55D-09
 IDIUse=1 WtCom= 1.00D+00 WtEn= 0.00D+00
 Coeff-Com:  0.111D-03-0.216D-03-0.457D-03-0.784D-03 0.876D-03 0.745D-02
 Coeff-Com:  0.612D-02-0.161D-01-0.820D-01-0.343D-01 0.444D+00 0.676D+00
 Coeff:      0.111D-03-0.216D-03-0.457D-03-0.784D-03 0.876D-03 0.745D-02
 Coeff:      0.612D-02-0.161D-01-0.820D-01-0.343D-01 0.444D+00 0.676D+00
 Gap=     0.240 Goal=   None    Shift=    0.000
 RMSDP=1.84D-07 MaxDP=8.81D-06 DE=-1.00D-08 OVMax= 2.81D-05

 Cycle  13  Pass 1  IDiag  1:
 RMSU=  9.54D-08    CP:  9.90D-01  1.33D+00  9.48D-01  8.96D-01  1.40D+00
                    CP:  1.77D+00  1.64D+00  1.65D+00  1.84D+00  1.49D+00
                    CP:  1.39D+00  8.32D-01
 E= -1028.78295928240     Delta-E=       -0.000000001195 Rises=F Damp=F
 DIIS: error= 5.92D-07 at cycle  13 NSaved=  13.
 NSaved=13 IEnMin=13 EnMin= -1028.78295928240     IErMin=13 ErrMin= 5.92D-07
 ErrMax= 5.92D-07  0.00D+00 EMaxC= 1.00D-01 BMatC= 9.98D-11 BMatP= 6.75D-10
 IDIUse=1 WtCom= 1.00D+00 WtEn= 0.00D+00
 Coeff-Com: -0.166D-04 0.357D-04 0.605D-04-0.241D-04-0.326D-03-0.118D-03
 Coeff-Com:  0.350D-02 0.777D-02-0.162D-01-0.541D-01-0.418D-01 0.262D+00
 Coeff-Com:  0.839D+00
 Coeff:     -0.166D-04 0.357D-04 0.605D-04-0.241D-04-0.326D-03-0.118D-03
 Coeff:      0.350D-02 0.777D-02-0.162D-01-0.541D-01-0.418D-01 0.262D+00
 Coeff:      0.839D+00
 Gap=     0.240 Goal=   None    Shift=    0.000
 RMSDP=1.00D-07 MaxDP=2.40D-06 DE=-1.20D-09 OVMax= 1.27D-05

 Cycle  14  Pass 1  IDiag  1:
 RMSU=  3.36D-08    CP:  9.90D-01  1.33D+00  9.48D-01  8.96D-01  1.40D+00
                    CP:  1.77D+00  1.64D+00  1.65D+00  1.86D+00  1.52D+00
                    CP:  1.46D+00  1.02D+00  1.07D+00
 E= -1028.78295928261     Delta-E=       -0.000000000205 Rises=F Damp=F
 DIIS: error= 1.35D-07 at cycle  14 NSaved=  14.
 NSaved=14 IEnMin=14 EnMin= -1028.78295928261     IErMin=14 ErrMin= 1.35D-07
 ErrMax= 1.35D-07  0.00D+00 EMaxC= 1.00D-01 BMatC= 6.12D-12 BMatP= 9.98D-11
 IDIUse=1 WtCom= 1.00D+00 WtEn= 0.00D+00
 Coeff-Com: -0.121D-04 0.243D-04 0.502D-04 0.503D-04-0.153D-03-0.633D-03
 Coeff-Com:  0.322D-03 0.362D-02 0.370D-02-0.828D-02-0.530D-01 0.247D-01
 Coeff-Com:  0.239D+00 0.791D+00
 Coeff:     -0.121D-04 0.243D-04 0.502D-04 0.503D-04-0.153D-03-0.633D-03
 Coeff:      0.322D-03 0.362D-02 0.370D-02-0.828D-02-0.530D-01 0.247D-01
 Coeff:      0.239D+00 0.791D+00
 Gap=     0.240 Goal=   None    Shift=    0.000
 RMSDP=1.73D-08 MaxDP=4.12D-07 DE=-2.05D-10 OVMax= 1.87D-06

 Cycle  15  Pass 1  IDiag  1:
 RMSU=  1.15D-08    CP:  9.90D-01  1.33D+00  9.48D-01  8.96D-01  1.40D+00
                    CP:  1.77D+00  1.64D+00  1.65D+00  1.86D+00  1.53D+00
                    CP:  1.46D+00  1.04D+00  1.17D+00  1.11D+00
 E= -1028.78295928262     Delta-E=       -0.000000000015 Rises=F Damp=F
 DIIS: error= 8.15D-08 at cycle  15 NSaved=  15.
 NSaved=15 IEnMin=15 EnMin= -1028.78295928262     IErMin=15 ErrMin= 8.15D-08
 ErrMax= 8.15D-08  0.00D+00 EMaxC= 1.00D-01 BMatC= 9.48D-13 BMatP= 6.12D-12
 IDIUse=1 WtCom= 1.00D+00 WtEn= 0.00D+00
 Coeff-Com: -0.240D-05 0.433D-05 0.117D-04 0.302D-04-0.102D-04-0.274D-03
 Coeff-Com: -0.574D-03-0.512D-04 0.408D-02 0.749D-02-0.151D-01-0.411D-01
 Coeff-Com: -0.728D-01 0.216D+00 0.903D+00
 Coeff:     -0.240D-05 0.433D-05 0.117D-04 0.302D-04-0.102D-04-0.274D-03
 Coeff:     -0.574D-03-0.512D-04 0.408D-02 0.749D-02-0.151D-01-0.411D-01
 Coeff:     -0.728D-01 0.216D+00 0.903D+00
 Gap=     0.240 Goal=   None    Shift=    0.000
 RMSDP=1.16D-08 MaxDP=3.44D-07 DE=-1.52D-11 OVMax= 1.65D-06

 Cycle  16  Pass 1  IDiag  1:
 RMSU=  4.53D-09    CP:  9.90D-01  1.33D+00  9.48D-01  8.96D-01  1.40D+00
                    CP:  1.77D+00  1.64D+00  1.65D+00  1.86D+00  1.53D+00
                    CP:  1.47D+00  1.06D+00  1.22D+00  1.29D+00  1.13D+00
 E= -1028.78295928262     Delta-E=        0.000000000004 Rises=F Damp=F
 DIIS: error= 2.75D-08 at cycle  16 NSaved=  16.
 NSaved=16 IEnMin=15 EnMin= -1028.78295928262     IErMin=16 ErrMin= 2.75D-08
 ErrMax= 2.75D-08  0.00D+00 EMaxC= 1.00D-01 BMatC= 1.43D-13 BMatP= 9.48D-13
 IDIUse=1 WtCom= 1.00D+00 WtEn= 0.00D+00
 Coeff-Com:  0.614D-06-0.132D-05-0.200D-05 0.219D-05 0.948D-05-0.674D-05
 Coeff-Com: -0.166D-03-0.311D-03 0.530D-03 0.273D-02 0.675D-03-0.114D-01
 Coeff-Com: -0.369D-01-0.551D-01 0.245D+00 0.855D+00
 Coeff:      0.614D-06-0.132D-05-0.200D-05 0.219D-05 0.948D-05-0.674D-05
 Coeff:     -0.166D-03-0.311D-03 0.530D-03 0.273D-02 0.675D-03-0.114D-01
 Coeff:     -0.369D-01-0.551D-01 0.245D+00 0.855D+00
 Gap=     0.240 Goal=   None    Shift=    0.000
 RMSDP=3.24D-09 MaxDP=1.18D-07 DE= 4.09D-12 OVMax= 3.55D-07

 Error on total polarization charges =  0.00840
 SCF Done:  E(RwB97XD) =  -1028.78295928     A.U. after   16 cycles
            NFock= 16  Conv=0.32D-08     -V/T= 2.0047
 KE= 1.024003258309D+03 PE=-4.608487984012D+03 EE= 1.457460296589D+03
 Leave Link  502 at Mon Jul 13 16:19:33 2020, MaxMem=  7784628224 cpu:             914.9 elap:              92.2
 (Enter /gpfs/loomis/apps/avx/software/Gaussian/16-C.01_AVX/g16/l801.exe)
 DoSCS=F DFT=T ScalE2(SS,OS)=  1.000000  1.000000
 ExpMin= 1.22D-01 ExpMax= 1.11D+05 ExpMxC= 1.07D+03 IAcc=3 IRadAn=         5 AccDes= 0.00D+00
 HarFok:  IExCor=  205 AccDes= 0.00D+00 IRadAn=         5 IDoV=-2 UseB2=F ITyADJ=14
 ICtDFT= 12500011 ScaDFX=  1.000000  1.000000  1.000000  1.000000
 Largest valence mixing into a core orbital is  9.55D-05
 Largest core mixing into a valence orbital is  3.12D-05
 Range of M.O.s used for correlation:    21   273
 NBasis=   273 NAE=    59 NBE=    59 NFC=    20 NFV=     0
 NROrb=    253 NOA=    39 NOB=    39 NVA=   214 NVB=   214
 Leave Link  801 at Mon Jul 13 16:19:33 2020, MaxMem=  7784628224 cpu:               1.0 elap:               0.1
 (Enter /gpfs/loomis/apps/avx/software/Gaussian/16-C.01_AVX/g16/l914.exe)
 RHF ground state
 Keep R1, R2, and R3 ints in memory in canonical form, NReq=4262515490.
 FoFCou: FMM=F IPFlag=           0 FMFlag=           0 FMFlg1=           0
         NFxFlg=           0 DoJE=F BraDBF=F KetDBF=F FulRan=T
         wScrn=  0.000000 ICntrl=       600 IOpCl=  0 I1Cent=           0 NGrid=           0
         NMat0=    1 NMatS0=  37401 NMatT0=    0 NMatD0=    1 NMtDS0=    0 NMtDT0=    0
 Symmetry not used in FoFCou.
 Two-electron integral symmetry not used.
 MDV=  7784628224 DFT=T DoStab=F Mixed=T DoRPA=T DoScal=F NonHer=T
 NEqPCM:  Using equilibrium solvation (IEInf=0, Eps=   2.2280, EpsInf=   2.1319)
 Making orbital integer symmetry assigments:
    12 initial guesses have been made.
 Convergence on wavefunction:    0.000001000000000
 Davidson Disk Diagonalization:  ConvIn= 1.00D-06 SkipCon=T Conv= 1.00D-06.
 Max sub-space:  2000 roots to seek:    12 dimension of matrix:        16692
 Iteration     1 Dimension    12 NMult     0 NNew     12
 CISAX will form    12 AO SS matrices at one time.
 NMat=    12 NSing=    12 JSym2X= 0.
 New state      2 was old state      4
 New state      3 was old state      2
 Excitation Energies [eV] at current iteration:
 Root      1 :     3.485217164831099
 Root      2 :     3.870951268894836
 Root      3 :     4.875962856831632
 Root      4 :     5.213352572690245
 Root      5 :     5.287261651790200
 Root      6 :     5.749787180198653
 Root      7 :     5.967071770365115
 Root      8 :     6.398004718315405
 Root      9 :     6.487757952431480
 Root     10 :     6.836424178195418
 Root     11 :     6.960393765987837
 Root     12 :     7.201683950261226
 Iteration     2 Dimension    18 NMult    12 NNew      6
 CISAX will form     6 AO SS matrices at one time.
 NMat=     6 NSing=     6 JSym2X= 0.
 Root      1 not converged, maximum delta is    0.046606570601138
 Root      2 not converged, maximum delta is    0.109956576393346
 Root      3 not converged, maximum delta is    0.080672283309390
 Excitation Energies [eV] at current iteration:
 Root      1 :     2.970978966950316   Change is   -0.514238197880783
 Root      2 :     3.656938150357646   Change is   -0.214013118537191
 Root      3 :     4.404568189787964   Change is   -0.471394667043667
 Iteration     3 Dimension    24 NMult    18 NNew      6
 CISAX will form     6 AO SS matrices at one time.
 NMat=     6 NSing=     6 JSym2X= 0.
 Root      1 not converged, maximum delta is    0.016274416733384
 Root      2 not converged, maximum delta is    0.031294144898497
 Root      3 not converged, maximum delta is    0.027433960815553
 Excitation Energies [eV] at current iteration:
 Root      1 :     2.939187742338456   Change is   -0.031791224611860
 Root      2 :     3.635908691011535   Change is   -0.021029459346110
 Root      3 :     4.375224423291378   Change is   -0.029343766496586
 Iteration     4 Dimension    30 NMult    24 NNew      6
 CISAX will form     6 AO SS matrices at one time.
 NMat=     6 NSing=     6 JSym2X= 0.
 Root      1 not converged, maximum delta is    0.008525704339679
 Root      2 not converged, maximum delta is    0.010135430244605
 Root      3 not converged, maximum delta is    0.016707020617429
 Excitation Energies [eV] at current iteration:
 Root      1 :     2.934170996589259   Change is   -0.005016745749197
 Root      2 :     3.633974146419478   Change is   -0.001934544592058
 Root      3 :     4.368795567242516   Change is   -0.006428856048862
 Iteration     5 Dimension    36 NMult    30 NNew      6
 CISAX will form     6 AO SS matrices at one time.
 NMat=     6 NSing=     6 JSym2X= 0.
 Root      1 not converged, maximum delta is    0.001955277061638
 Root      2 not converged, maximum delta is    0.001497837823992
 Root      3 not converged, maximum delta is    0.008654840248969
 Excitation Energies [eV] at current iteration:
 Root      1 :     2.933516528415862   Change is   -0.000654468173397
 Root      2 :     3.633849842494358   Change is   -0.000124303925120
 Root      3 :     4.367444933121942   Change is   -0.001350634120574
 Iteration     6 Dimension    42 NMult    36 NNew      6
 CISAX will form     6 AO SS matrices at one time.
 NMat=     6 NSing=     6 JSym2X= 0.
 Root      1 not converged, maximum delta is    0.000407574049632
 Root      2 not converged, maximum delta is    0.000309209693206
 Root      3 not converged, maximum delta is    0.002314151573430
 Excitation Energies [eV] at current iteration:
 Root      1 :     2.933471447476910   Change is   -0.000045080938952
 Root      2 :     3.633843933090910   Change is   -0.000005909403447
 Root      3 :     4.367264239960425   Change is   -0.000180693161517
 Iteration     7 Dimension    48 NMult    42 NNew      6
 CISAX will form     6 AO SS matrices at one time.
 NMat=     6 NSing=     6 JSym2X= 0.
 Root      1 not converged, maximum delta is    0.000094132205621
 Root      2 not converged, maximum delta is    0.000131719235125
 Root      3 not converged, maximum delta is    0.000542201201277
 Excitation Energies [eV] at current iteration:
 Root      1 :     2.933467955784236   Change is   -0.000003491692674
 Root      2 :     3.633843415115674   Change is   -0.000000517975237
 Root      3 :     4.367242291536533   Change is   -0.000021948423892
 Iteration     8 Dimension    54 NMult    48 NNew      6
 CISAX will form     6 AO SS matrices at one time.
 NMat=     6 NSing=     6 JSym2X= 0.
 Root      1 not converged, maximum delta is    0.000023953413376
 Root      2 not converged, maximum delta is    0.000016937040411
 Root      3 not converged, maximum delta is    0.000209914551478
 Excitation Energies [eV] at current iteration:
 Root      1 :     2.933467804393802   Change is   -0.000000151390434
 Root      2 :     3.633843388870348   Change is   -0.000000026245326
 Root      3 :     4.367240039907414   Change is   -0.000002251629119
 Iteration     9 Dimension    60 NMult    54 NNew      6
 CISAX will form     6 AO SS matrices at one time.
 NMat=     6 NSing=     6 JSym2X= 0.
 Root      1 not converged, maximum delta is    0.000009279597480
 Root      2 not converged, maximum delta is    0.000003729436337
 Root      3 not converged, maximum delta is    0.000063419865934
 Excitation Energies [eV] at current iteration:
 Root      1 :     2.933467790521079   Change is   -0.000000013872723
 Root      2 :     3.633843387633381   Change is   -0.000000001236967
 Root      3 :     4.367239815716907   Change is   -0.000000224190507
 Iteration    10 Dimension    66 NMult    60 NNew      6
 CISAX will form     6 AO SS matrices at one time.
 NMat=     6 NSing=     6 JSym2X= 0.
 Root      1 not converged, maximum delta is    0.000002373032624
 Root      2 not converged, maximum delta is    0.000002192437936
 Root      3 not converged, maximum delta is    0.000030750581620
 Excitation Energies [eV] at current iteration:
 Root      1 :     2.933467789763702   Change is   -0.000000000757377
 Root      2 :     3.633843387520923   Change is   -0.000000000112458
 Root      3 :     4.367239778077043   Change is   -0.000000037639864
 Iteration    11 Dimension    72 NMult    66 NNew      6
 CISAX will form     6 AO SS matrices at one time.
 NMat=     6 NSing=     6 JSym2X= 0.
 Root      1 has converged.
 Root      2 has converged.
 Root      3 not converged, maximum delta is    0.000009776440405
 Excitation Energies [eV] at current iteration:
 Root      1 :     2.933467789710036   Change is   -0.000000000053666
 Root      2 :     3.633843387506399   Change is   -0.000000000014524
 Root      3 :     4.367239774414802   Change is   -0.000000003662241
 Iteration    12 Dimension    74 NMult    72 NNew      2
 CISAX will form     2 AO SS matrices at one time.
 NMat=     2 NSing=     2 JSym2X= 0.
 Root      1 has converged.
 Root      2 has converged.
 Root      3 not converged, maximum delta is    0.000002095904733
 Excitation Energies [eV] at current iteration:
 Root      1 :     2.933467789709252   Change is   -0.000000000000785
 Root      2 :     3.633843387506512   Change is    0.000000000000113
 Root      3 :     4.367239774096739   Change is   -0.000000000318064
 Iteration    13 Dimension    76 NMult    74 NNew      2
 CISAX will form     2 AO SS matrices at one time.
 NMat=     2 NSing=     2 JSym2X= 0.
 Root      1 has converged.
 Root      2 has converged.
 Root      3 has converged.
 Excitation Energies [eV] at current iteration:
 Root      1 :     2.933467789709167   Change is   -0.000000000000084
 Root      2 :     3.633843387506422   Change is   -0.000000000000091
 Root      3 :     4.367239774065416   Change is   -0.000000000031323
 Convergence achieved on expansion vectors.
 ***********************************************************************
 Excited states from <AA,BB:AA,BB> singles matrix:
 ***********************************************************************
 
 1PDM for each excited state written to RWF  633
 Ground to excited state transition densities written to RWF  633
 Ground to excited state transition electric dipole moments (Au):
       state          X           Y           Z        Dip. S.      Osc.
         1         1.1471     -2.2266     -0.0000      6.2735      0.4509
         2        -0.0000      0.0000     -0.0016      0.0000      0.0000
         3        -1.6905      1.0232      0.0000      3.9049      0.4178
 Ground to excited state transition velocity dipole moments (Au):
       state          X           Y           Z        Dip. S.      Osc.
         1        -0.1190      0.2423      0.0000      0.0729      0.4508
         2         0.0000     -0.0000      0.0004      0.0000      0.0000
         3         0.2661     -0.1538     -0.0000      0.0945      0.3925
 Ground to excited state transition magnetic dipole moments (Au):
       state          X           Y           Z
         1         0.0000      0.0000     -1.1620
         2         0.3508      0.0035      0.0000
         3        -0.0000      0.0000     -0.9791
 Ground to excited state transition velocity quadrupole moments (Au):
       state          XX          YY          ZZ          XY          XZ          YZ
         1        -0.0211      0.6328     -0.0124     -0.2566     -0.0000      0.0000
         2         0.0000     -0.0000      0.0000      0.0000     -0.0071      0.0169
         3        -0.4094      0.4938      0.0016      0.0826     -0.0000      0.0000
 <0|del|b> * <b|rxdel|0> + <0|del|b> * <b|delr+rdel|0>
 Rotatory Strengths (R) in cgs (10**-40 erg-esu-cm/Gauss)
       state          XX          YY          ZZ    R(velocity)    E-M Angle
         1         0.0128     -0.0217      0.0214      0.0042       90.00
         2        -0.0002      0.0026      0.0024      0.0016       90.00
         3        -0.0015      0.0020     -0.0072     -0.0022       90.00
 1/2[<0|r|b>*<b|rxdel|0> + (<0|rxdel|b>*<b|r|0>)*]
 Rotatory Strengths (R) in cgs (10**-40 erg-esu-cm/Gauss)
       state          XX          YY          ZZ     R(length)
         1        -0.0101      0.0515     -0.0289      0.0042
         2         0.0049     -0.0001      0.0000      0.0016
         3        -0.0044     -0.0069      0.0052     -0.0020
  1/2[<0|del|b>*<b|r|0> + (<0|r|b>*<b|del|0>)*] (Au)
       state          X           Y           Z        Dip. S.   Osc.(frdel)
         1        -0.1365     -0.5396     -0.0000      0.6761      0.4507
         2        -0.0000     -0.0000     -0.0000      0.0000      0.0000
         3        -0.4499     -0.1574     -0.0000      0.6073      0.4048

 Excitation energies and oscillator strengths:
 
 Excited state symmetry could not be determined.
 Excited State   1:      Singlet-?Sym    2.9335 eV  422.65 nm  f=0.4509  <S**2>=0.000
      59 -> 60         0.69765
 This state for optimization and/or second-order correction.
 Total Energy, E(TD-HF/TD-DFT) =  -1028.67515632    
 Copying the excited state density for this state as the 1-particle RhoCI density.
 
 Excited state symmetry could not be determined.
 Excited State   2:      Singlet-?Sym    3.6338 eV  341.19 nm  f=0.0000  <S**2>=0.000
      57 -> 60         0.68369
      57 -> 62         0.11614
      57 -> 64         0.11889
 
 Excited state symmetry could not be determined.
 Excited State   3:      Singlet-?Sym    4.3672 eV  283.90 nm  f=0.4178  <S**2>=0.000
      58 -> 60         0.68154
 SavETr:  write IOETrn=   770 NScale= 10 NData=  16 NLR=1 NState=    3 LETran=      64.
 The selected state is a singlet.
 CISGrd: IGrad=2 NXY=2 DFT=T
 CISAX will form     1 AO SS matrices at one time.
 NMat=     1 NSing=     1 JSym2X= 0.
 GePol: Maximum number of non-zero 1st derivatives   =     268
 Leave Link  914 at Mon Jul 13 16:22:42 2020, MaxMem=  7784628224 cpu:            1869.6 elap:             189.5
 (Enter /gpfs/loomis/apps/avx/software/Gaussian/16-C.01_AVX/g16/l1002.exe)
 Minotr:  Closed shell wavefunction.
          Computing CIS/TDA/TD derivatives.
          Using Z-Vector for PSCF gradient.
          Skipping F1 and S1 gradient terms here.
          IDoAtm=1111111111111111111111111
 NEqPCM:  Using equilibrium solvation (IEInf=0, Eps=   2.2280, EpsInf=   2.1319)
          Frozen-core window.
          Direct CPHF calculation.
          Differentiating once with respect to electric field.
                with respect to dipole field.
          Differentiating once with respect to nuclear coordinates.
          Requested convergence is 1.0D-10 RMS, and 1.0D-09 maximum.
          NewPWx=F KeepS1=T KeepF1=T KeepIn=T MapXYZ=F SortEE=F KeepMc=T.
 Keep R1 ints in memory in canonical form, NReq=1421629226.
 FoFCou: FMM=F IPFlag=           0 FMFlag=           0 FMFlg1=           0
         NFxFlg=           0 DoJE=F BraDBF=F KetDBF=F FulRan=T
         wScrn=  0.000000 ICntrl=       600 IOpCl=  0 I1Cent=           0 NGrid=           0
         NMat0=    1 NMatS0=  37401 NMatT0=    0 NMatD0=    1 NMtDS0=    0 NMtDT0=    0
 Symmetry not used in FoFCou.
 Two-electron integral symmetry not used.
          MDV=    7784628224 using IRadAn=       5.
          Solving linear equations separately, MaxMat=       0.
          There are     1 degrees of freedom in the 1st order CPHF.  IDoFFX=0 NUNeed=     1.
 LinEq1:  Iter=  0 NonCon=     1 RMS=6.66D-03 Max=5.14D-01 NDo=     1
 AX will form     1 AO Fock derivatives at one time.
 LinEq1:  Iter=  1 NonCon=     1 RMS=3.07D-03 Max=1.72D-01 NDo=     1
 LinEq1:  Iter=  2 NonCon=     1 RMS=1.67D-03 Max=4.23D-02 NDo=     1
 LinEq1:  Iter=  3 NonCon=     1 RMS=7.37D-04 Max=1.98D-02 NDo=     1
 LinEq1:  Iter=  4 NonCon=     1 RMS=4.42D-04 Max=1.29D-02 NDo=     1
 LinEq1:  Iter=  5 NonCon=     1 RMS=2.16D-04 Max=6.87D-03 NDo=     1
 LinEq1:  Iter=  6 NonCon=     1 RMS=8.93D-05 Max=3.91D-03 NDo=     1
 LinEq1:  Iter=  7 NonCon=     1 RMS=4.72D-05 Max=1.67D-03 NDo=     1
 LinEq1:  Iter=  8 NonCon=     1 RMS=1.76D-05 Max=5.55D-04 NDo=     1
 LinEq1:  Iter=  9 NonCon=     1 RMS=8.69D-06 Max=2.43D-04 NDo=     1
 LinEq1:  Iter= 10 NonCon=     1 RMS=3.15D-06 Max=6.53D-05 NDo=     1
 LinEq1:  Iter= 11 NonCon=     1 RMS=1.68D-06 Max=7.64D-05 NDo=     1
 LinEq1:  Iter= 12 NonCon=     1 RMS=7.31D-07 Max=2.07D-05 NDo=     1
 LinEq1:  Iter= 13 NonCon=     1 RMS=3.64D-07 Max=9.55D-06 NDo=     1
 LinEq1:  Iter= 14 NonCon=     1 RMS=1.27D-07 Max=3.09D-06 NDo=     1
 LinEq1:  Iter= 15 NonCon=     1 RMS=6.72D-08 Max=1.80D-06 NDo=     1
 LinEq1:  Iter= 16 NonCon=     1 RMS=3.00D-08 Max=1.05D-06 NDo=     1
 LinEq1:  Iter= 17 NonCon=     1 RMS=1.44D-08 Max=4.89D-07 NDo=     1
 LinEq1:  Iter= 18 NonCon=     1 RMS=6.10D-09 Max=1.74D-07 NDo=     1
 LinEq1:  Iter= 19 NonCon=     1 RMS=2.65D-09 Max=8.16D-08 NDo=     1
 LinEq1:  Iter= 20 NonCon=     1 RMS=1.33D-09 Max=3.16D-08 NDo=     1
 LinEq1:  Iter= 21 NonCon=     1 RMS=4.07D-10 Max=1.33D-08 NDo=     1
 LinEq1:  Iter= 22 NonCon=     1 RMS=1.81D-10 Max=5.50D-09 NDo=     1
 LinEq1:  Iter= 23 NonCon=     1 RMS=7.55D-11 Max=1.87D-09 NDo=     1
 LinEq1:  Iter= 24 NonCon=     0 RMS=2.06D-11 Max=4.99D-10 NDo=     1
 Linear equations converged to 1.000D-10 1.000D-09 after    24 iterations.
 End of Minotr F.D. properties file   721 does not exist.
 End of Minotr F.D. properties file   722 does not exist.
 End of Minotr F.D. properties file   788 does not exist.
 Leave Link 1002 at Mon Jul 13 16:24:21 2020, MaxMem=  7784628224 cpu:             756.5 elap:              99.0
 (Enter /gpfs/loomis/apps/avx/software/Gaussian/16-C.01_AVX/g16/l601.exe)
 Copying SCF densities to generalized density rwf, IOpCl= 0 IROHF=0.

 **********************************************************************

            Population analysis using the SCF Density.

 **********************************************************************

 Alpha  occ. eigenvalues --  -89.10772 -19.20924 -14.50981 -10.41874 -10.37464
 Alpha  occ. eigenvalues --  -10.36455 -10.35905 -10.33485 -10.32830 -10.32533
 Alpha  occ. eigenvalues --  -10.32405 -10.31532 -10.31135 -10.30784 -10.29284
 Alpha  occ. eigenvalues --  -10.28410  -8.12705  -6.07587  -6.07221  -6.06717
 Alpha  occ. eigenvalues --   -1.13879  -1.09359  -0.98539  -0.95389  -0.93361
 Alpha  occ. eigenvalues --   -0.89207  -0.86730  -0.83923  -0.81232  -0.76294
 Alpha  occ. eigenvalues --   -0.74350  -0.72071  -0.69193  -0.67770  -0.65449
 Alpha  occ. eigenvalues --   -0.60819  -0.59717  -0.56752  -0.55949  -0.55896
 Alpha  occ. eigenvalues --   -0.54939  -0.53656  -0.53131  -0.50785  -0.49221
 Alpha  occ. eigenvalues --   -0.48821  -0.48594  -0.46889  -0.45397  -0.44861
 Alpha  occ. eigenvalues --   -0.44327  -0.43002  -0.42260  -0.40219  -0.36790
 Alpha  occ. eigenvalues --   -0.33662  -0.31772  -0.31522  -0.26001
 Alpha virt. eigenvalues --   -0.01968   0.03691   0.05773   0.06039   0.09253
 Alpha virt. eigenvalues --    0.10476   0.12978   0.14619   0.16235   0.17440
 Alpha virt. eigenvalues --    0.18982   0.20236   0.21249   0.21281   0.23046
 Alpha virt. eigenvalues --    0.23626   0.23913   0.25457   0.28830   0.29880
 Alpha virt. eigenvalues --    0.30927   0.33570   0.35630   0.35866   0.36562
 Alpha virt. eigenvalues --    0.38425   0.39039   0.40001   0.42096   0.44469
 Alpha virt. eigenvalues --    0.46427   0.48628   0.50399   0.51047   0.51389
 Alpha virt. eigenvalues --    0.52745   0.52880   0.53078   0.54293   0.55556
 Alpha virt. eigenvalues --    0.56257   0.56313   0.56496   0.56574   0.57755
 Alpha virt. eigenvalues --    0.57963   0.59068   0.59471   0.59615   0.60092
 Alpha virt. eigenvalues --    0.60574   0.61521   0.61664   0.62360   0.62995
 Alpha virt. eigenvalues --    0.64659   0.66373   0.67110   0.68643   0.68882
 Alpha virt. eigenvalues --    0.70118   0.70673   0.72017   0.72104   0.72896
 Alpha virt. eigenvalues --    0.74170   0.75089   0.75850   0.76219   0.78197
 Alpha virt. eigenvalues --    0.79085   0.79262   0.80933   0.81836   0.82952
 Alpha virt. eigenvalues --    0.83011   0.87735   0.88926   0.91346   0.92336
 Alpha virt. eigenvalues --    0.93609   0.94518   0.95843   0.96648   0.97331
 Alpha virt. eigenvalues --    0.98679   0.99322   1.00048   1.00456   1.01138
 Alpha virt. eigenvalues --    1.02573   1.04976   1.05796   1.06075   1.07264
 Alpha virt. eigenvalues --    1.08036   1.08673   1.10265   1.11230   1.11353
 Alpha virt. eigenvalues --    1.11981   1.12570   1.13332   1.14597   1.15467
 Alpha virt. eigenvalues --    1.17002   1.18566   1.20224   1.23898   1.23944
 Alpha virt. eigenvalues --    1.26893   1.27167   1.32201   1.32733   1.33885
 Alpha virt. eigenvalues --    1.34848   1.36235   1.38362   1.40946   1.45195
 Alpha virt. eigenvalues --    1.49196   1.49343   1.53174   1.54732   1.54889
 Alpha virt. eigenvalues --    1.56512   1.57113   1.57472   1.57859   1.59772
 Alpha virt. eigenvalues --    1.60049   1.61921   1.63248   1.65036   1.67710
 Alpha virt. eigenvalues --    1.68390   1.69857   1.70847   1.71408   1.71970
 Alpha virt. eigenvalues --    1.72026   1.73173   1.73572   1.74230   1.74942
 Alpha virt. eigenvalues --    1.78284   1.79151   1.80263   1.81778   1.81929
 Alpha virt. eigenvalues --    1.82856   1.84334   1.84652   1.85395   1.86193
 Alpha virt. eigenvalues --    1.86717   1.89585   1.91235   1.91994   1.92437
 Alpha virt. eigenvalues --    1.93088   1.93467   1.95096   1.96499   1.98087
 Alpha virt. eigenvalues --    2.00101   2.00335   2.01744   2.04690   2.05530
 Alpha virt. eigenvalues --    2.05919   2.06919   2.09809   2.10025   2.12864
 Alpha virt. eigenvalues --    2.16973   2.17554   2.22023   2.23910   2.24744
 Alpha virt. eigenvalues --    2.27227   2.29940   2.34905   2.38284   2.40011
 Alpha virt. eigenvalues --    2.40457   2.42434   2.46578   2.48681   2.50092
 Alpha virt. eigenvalues --    2.52355   2.53672   2.54706   2.59400   2.62423
 Alpha virt. eigenvalues --    2.63369   2.69365   2.73578   2.76037   2.80026
 Alpha virt. eigenvalues --    2.81764   2.82376   2.84774   2.87008   2.89974
 Alpha virt. eigenvalues --    2.93018   3.01510   3.15850   3.32197   3.47632
 Alpha virt. eigenvalues --    3.51159   3.56899   3.60316   3.76213
          Condensed to atoms (all electrons):
               1          2          3          4          5          6
     1  C    4.727040   0.484873   0.006231  -0.050117  -0.012081   0.515892
     2  C    0.484873   5.369223   0.285514  -0.064363  -0.067724  -0.007903
     3  C    0.006231   0.285514   4.855459   0.524212  -0.003340  -0.066392
     4  C   -0.050117  -0.064363   0.524212   4.790119   0.520708  -0.016238
     5  C   -0.012081  -0.067724  -0.003340   0.520708   4.717270   0.500083
     6  C    0.515892  -0.007903  -0.066392  -0.016238   0.500083   4.736160
     7  H    0.404868  -0.041219   0.008944  -0.000515   0.008110  -0.037808
     8  H   -0.000592   0.010636  -0.024161   0.393257  -0.040823   0.007296
     9  H    0.008488  -0.000320   0.008145  -0.038373   0.405535  -0.043388
    10  H   -0.042250   0.009590  -0.000592   0.008749  -0.042946   0.407416
    11  N    0.003850  -0.037468   0.408082  -0.054802   0.002518   0.000399
    12  S   -0.063009   0.336745  -0.129069   0.003853   0.000202   0.003759
    13  C   -0.000198   0.000788   0.014419  -0.000425   0.000013  -0.000001
    14  C   -0.000004   0.000020   0.000290   0.000007  -0.000000  -0.000000
    15  C    0.000001  -0.000202   0.000539   0.000046  -0.000001   0.000000
    16  C    0.000000  -0.000001   0.000004  -0.000000   0.000000   0.000000
    17  H   -0.000003   0.000065  -0.000003  -0.000000   0.000000  -0.000000
    18  C    0.000000   0.000010  -0.000048  -0.000001  -0.000000   0.000000
    19  C   -0.000000   0.000000   0.000002  -0.000000   0.000000   0.000000
    20  H   -0.000000  -0.000000  -0.000000   0.000000  -0.000000  -0.000000
    21  H   -0.000000   0.000000  -0.000000  -0.000000  -0.000000   0.000000
    22  H    0.000000  -0.000000  -0.000000  -0.000000   0.000000  -0.000000
    23  C    0.003307  -0.051282  -0.100530   0.004137   0.000266  -0.000280
    24  O    0.000002  -0.000228  -0.000872   0.000067  -0.000000  -0.000000
    25  H    0.000202   0.011949  -0.030263  -0.011590  -0.000220  -0.000019
               7          8          9         10         11         12
     1  C    0.404868  -0.000592   0.008488  -0.042250   0.003850  -0.063009
     2  C   -0.041219   0.010636  -0.000320   0.009590  -0.037468   0.336745
     3  C    0.008944  -0.024161   0.008145  -0.000592   0.408082  -0.129069
     4  C   -0.000515   0.393257  -0.038373   0.008749  -0.054802   0.003853
     5  C    0.008110  -0.040823   0.405535  -0.042946   0.002518   0.000202
     6  C   -0.037808   0.007296  -0.043388   0.407416   0.000399   0.003759
     7  H    0.648877   0.000028  -0.000137  -0.011818  -0.000102  -0.006536
     8  H    0.000028   0.637658  -0.011469  -0.000121  -0.005235  -0.000245
     9  H   -0.000137  -0.011469   0.656144  -0.012182  -0.000108   0.000022
    10  H   -0.011818  -0.000121  -0.012182   0.657272   0.000004  -0.000128
    11  N   -0.000102  -0.005235  -0.000108   0.000004   5.915214  -0.046707
    12  S   -0.006536  -0.000245   0.000022  -0.000128  -0.046707  15.433160
    13  C    0.000006   0.000057  -0.000000  -0.000000  -0.030632  -0.064141
    14  C    0.000000   0.000001   0.000000  -0.000000   0.003283  -0.005712
    15  C   -0.000000  -0.000004   0.000000   0.000000  -0.001980   0.003800
    16  C   -0.000000  -0.000000  -0.000000   0.000000  -0.000092  -0.000029
    17  H    0.000001   0.000000  -0.000000  -0.000000   0.000249   0.005661
    18  C    0.000000  -0.000000  -0.000000  -0.000000  -0.000587  -0.000087
    19  C    0.000000   0.000000  -0.000000   0.000000   0.000043   0.000016
    20  H   -0.000000  -0.000000   0.000000   0.000000   0.000001  -0.000000
    21  H   -0.000000   0.000000  -0.000000   0.000000   0.000013   0.000003
    22  H    0.000000  -0.000000  -0.000000  -0.000000  -0.000000  -0.000000
    23  C    0.000145  -0.000649   0.000007   0.000004   0.513358   0.316427
    24  O    0.000000  -0.000256   0.000000  -0.000000  -0.051394  -0.000231
    25  H    0.000006   0.001073  -0.000015  -0.000000   0.367808   0.004636
              13         14         15         16         17         18
     1  C   -0.000198  -0.000004   0.000001   0.000000  -0.000003   0.000000
     2  C    0.000788   0.000020  -0.000202  -0.000001   0.000065   0.000010
     3  C    0.014419   0.000290   0.000539   0.000004  -0.000003  -0.000048
     4  C   -0.000425   0.000007   0.000046  -0.000000  -0.000000  -0.000001
     5  C    0.000013  -0.000000  -0.000001   0.000000   0.000000  -0.000000
     6  C   -0.000001  -0.000000   0.000000   0.000000  -0.000000   0.000000
     7  H    0.000006   0.000000  -0.000000  -0.000000   0.000001   0.000000
     8  H    0.000057   0.000001  -0.000004  -0.000000   0.000000  -0.000000
     9  H   -0.000000   0.000000   0.000000  -0.000000  -0.000000  -0.000000
    10  H   -0.000000  -0.000000   0.000000   0.000000  -0.000000  -0.000000
    11  N   -0.030632   0.003283  -0.001980  -0.000092   0.000249  -0.000587
    12  S   -0.064141  -0.005712   0.003800  -0.000029   0.005661  -0.000087
    13  C    5.480092   0.431143   0.182865  -0.005161  -0.042905  -0.039562
    14  C    0.431143   4.845636   0.013499   0.537311   0.400810  -0.062118
    15  C    0.182865   0.013499   4.732053  -0.057763   0.006746   0.474727
    16  C   -0.005161   0.537311  -0.057763   4.774447  -0.033594  -0.018581
    17  H   -0.042905   0.400810   0.006746  -0.033594   0.684919  -0.000947
    18  C   -0.039562  -0.062118   0.474727  -0.018581  -0.000947   4.882210
    19  C   -0.050610  -0.016672  -0.009206   0.473710   0.008517   0.497649
    20  H    0.009162  -0.036559  -0.000192   0.400231  -0.012482   0.008363
    21  H    0.015422  -0.000674  -0.022726   0.007691   0.000053   0.371393
    22  H   -0.001510   0.009417   0.008791  -0.046776  -0.000190  -0.038848
    23  C    0.342289  -0.098687  -0.074936   0.006787  -0.019788   0.010217
    24  O   -0.089510   0.006103   0.639061  -0.000143  -0.000073  -0.066950
    25  H   -0.042421  -0.000628  -0.012223   0.000059  -0.000069   0.004194
              19         20         21         22         23         24
     1  C   -0.000000  -0.000000  -0.000000   0.000000   0.003307   0.000002
     2  C    0.000000  -0.000000   0.000000  -0.000000  -0.051282  -0.000228
     3  C    0.000002  -0.000000  -0.000000  -0.000000  -0.100530  -0.000872
     4  C   -0.000000   0.000000  -0.000000  -0.000000   0.004137   0.000067
     5  C    0.000000  -0.000000  -0.000000   0.000000   0.000266  -0.000000
     6  C    0.000000  -0.000000   0.000000  -0.000000  -0.000280  -0.000000
     7  H    0.000000  -0.000000  -0.000000   0.000000   0.000145   0.000000
     8  H    0.000000  -0.000000   0.000000  -0.000000  -0.000649  -0.000256
     9  H   -0.000000   0.000000  -0.000000  -0.000000   0.000007   0.000000
    10  H    0.000000   0.000000   0.000000  -0.000000   0.000004  -0.000000
    11  N    0.000043   0.000001   0.000013  -0.000000   0.513358  -0.051394
    12  S    0.000016  -0.000000   0.000003  -0.000000   0.316427  -0.000231
    13  C   -0.050610   0.009162   0.015422  -0.001510   0.342289  -0.089510
    14  C   -0.016672  -0.036559  -0.000674   0.009417  -0.098687   0.006103
    15  C   -0.009206  -0.000192  -0.022726   0.008791  -0.074936   0.639061
    16  C    0.473710   0.400231   0.007691  -0.046776   0.006787  -0.000143
    17  H    0.008517  -0.012482   0.000053  -0.000190  -0.019788  -0.000073
    18  C    0.497649   0.008363   0.371393  -0.038848   0.010217  -0.066950
    19  C    4.751993  -0.047690  -0.047906   0.402828   0.000201   0.004915
    20  H   -0.047690   0.689649  -0.000176  -0.012547  -0.000365   0.000001
    21  H   -0.047906  -0.000176   0.681752  -0.012707  -0.000456   0.006049
    22  H    0.402828  -0.012547  -0.012707   0.677310   0.000011  -0.000089
    23  C    0.000201  -0.000365  -0.000456   0.000011   5.115972  -0.017000
    24  O    0.004915   0.000001   0.006049  -0.000089  -0.017000   7.873164
    25  H   -0.000416  -0.000001   0.000011   0.000007   0.015357   0.099349
              25
     1  C    0.000202
     2  C    0.011949
     3  C   -0.030263
     4  C   -0.011590
     5  C   -0.000220
     6  C   -0.000019
     7  H    0.000006
     8  H    0.001073
     9  H   -0.000015
    10  H   -0.000000
    11  N    0.367808
    12  S    0.004636
    13  C   -0.042421
    14  C   -0.000628
    15  C   -0.012223
    16  C    0.000059
    17  H   -0.000069
    18  C    0.004194
[...]
 00000004,0.00861516,-0.00108089,-0.00000010,-0.00031094,0.00594063,-0.
 00000004,-0.00206088,-0.00238480,0.,-0.00001776,0.00015705,0.00000002,
 -0.00003860,-0.00006920,0.00000002,-0.00003669,0.00009643,0.00000002,-
 0.00002475,-0.00005995,-0.00000003,0.00750753,-0.01233503,-0.00000017,
 0.00250355,-0.00257505,0.00000002,0.05724472,0.01389580,0.00000121,0.0
 2134044,-0.21561030,-0.00000617,0.02084741,-0.01112056,0.00000055,0.06
 239460,0.61763665,-0.00000004,-0.00000007,-0.00006037,-0.00000033,-0.0
 0000019,-0.00007553,-0.00000043,0.00000060,-0.00043970,0.00000037,-0.0
 0000004,-0.00021799,-0.00000002,0.00000024,-0.00000567,-0.00000007,-0.
 00000010,0.00002081,0.,0.,-0.00003481,0.,0.,-0.00001534,0.,0.,0.000016
 85,0.,0.,0.00003204,0.00000027,-0.00000055,0.00239107,0.00000013,-0.00
 000016,-0.00046688,0.00000134,0.00000119,0.00176123,0.00000029,-0.0000
 0566,-0.05376402,0.00000099,-0.00000039,-0.00504731,0.00000573,0.00001
 925,0.12488938,0.00018573,0.00006075,0.,-0.00052370,0.00022373,0.00000
 004,0.00037765,-0.00017087,-0.00000002,-0.00008010,0.00008490,0.,0.000
 05466,-0.00006265,0.,0.00002128,-0.00003068,0.,-0.00001597,-0.00000504
 ,0.,0.00003035,0.00000421,0.,0.00000988,-0.00000304,0.,0.00002902,-0.0
 0000351,0.,0.00059308,0.00067284,0.00000009,-0.00057196,0.00131546,-0.
 00000024,-0.00708984,-0.02972267,-0.00000129,-0.10172097,-0.10275944,-
 0.00000460,-0.00442000,0.00350998,-0.00000016,0.01087366,0.01915747,0.
 00000079,0.10521471,0.00000221,-0.00003756,0.,-0.00012313,0.00038544,-
 0.00000002,0.00018401,0.00005574,-0.00000003,-0.00002319,0.00001864,0.
 ,0.00001206,0.00003813,0.,-0.00007329,0.00000137,0.,-0.00000497,0.0000
 1345,0.,0.00000880,-0.00000403,0.,-0.00000454,0.00000082,0.,-0.0000069
 2,0.00000306,0.,0.00008614,0.00038394,0.00000011,-0.00042566,-0.000024
 16,-0.00000017,0.00117495,-0.00055975,-0.00000020,-0.10107923,-0.29560
 786,-0.00001118,0.00055816,0.00199553,-0.00000033,-0.01306287,-0.01755
 992,-0.00000089,0.10840555,0.31248865,0.00000002,0.00000003,0.00002012
 ,0.00000009,0.00000009,-0.00022635,0.00000017,-0.00000020,0.00051336,-
 0.00000012,0.00000002,0.00005682,0.,-0.00000008,-0.00000219,0.00000003
 ,0.00000003,-0.00000850,0.,0.,0.00002637,0.,0.,0.00002442,0.,0.,0.0000
 0039,0.,0.,-0.00001100,0.00000008,0.00000041,-0.00212801,-0.00000030,-
 0.00000008,0.00115261,0.00000037,-0.00000115,0.00712619,-0.00000485,-0
 .00001107,-0.03573122,-0.00000025,0.00000016,0.00929568,-0.00000034,-0
 .00000068,0.00340634,0.00000525,0.00001256,0.02117717,-0.00149528,0.00
 032151,0.00000012,-0.00452324,-0.00402675,0.00000012,-0.00588982,0.011
 63985,-0.00000036,0.00585430,-0.00071028,-0.00000003,-0.00032795,0.002
 57638,0.,0.00086898,-0.00142642,-0.00000002,-0.00012175,0.00009420,0.,
 0.00007000,-0.00000812,0.,0.00010125,0.00001665,0.,0.00009270,-0.00006
 384,-0.00000003,0.01193344,0.00024108,0.00000049,0.00090751,-0.0036040
 5,0.00000006,0.02582008,0.01100056,0.00000076,-0.03589680,0.02335589,0
 .00000041,-0.12782452,0.06820565,0.00000245,-0.01723014,-0.08460187,-0
 .00000332,-0.00066429,0.00042631,0.00000008,0.68837634,0.00072045,-0.0
 0002938,-0.00000003,0.00033738,0.00023956,-0.00000002,0.00124052,-0.00
 196667,0.00000007,-0.00137136,0.00017288,0.,0.00017247,-0.00055527,0.,
 -0.00033768,0.00022826,0.,0.00000905,0.00000162,0.,-0.00001491,-0.0000
 0107,0.,-0.00002234,-0.00000560,0.,0.00000779,0.00001558,0.,-0.0009567
 9,0.00029281,-0.00000013,0.00118584,-0.00053111,-0.00000006,0.01042920
 ,-0.02997926,-0.00000104,0.00872637,-0.00554715,-0.00000007,0.07542977
 ,-0.23747440,-0.00000622,-0.03621305,0.00255341,-0.00000032,-0.0001274
 5,0.00076360,0.00000004,0.05815096,0.68039937,0.00000008,0.00000002,0.
 00022027,0.00000011,0.00000014,0.00053188,0.00000032,-0.00000037,0.001
 26549,-0.00000020,0.00000001,-0.00021847,0.00000003,-0.00000009,-0.000
 04513,-0.00000003,0.00000005,-0.00013414,0.,0.,0.00012653,0.,0.,0.0000
 8828,0.,0.,0.00002325,0.,0.,-0.00006961,-0.00000030,0.00000069,-0.0046
 5249,0.,-0.00000011,0.00204809,0.00000036,-0.00000149,0.01261934,0.,0.
 00000047,-0.00471662,0.00000258,-0.00000644,-0.06755863,-0.00000140,-0
 .00000073,0.00722600,0.00000005,0.00000012,-0.00198822,0.00000355,0.00
 002176,0.10790135,0.00158309,0.00037295,-0.00000012,0.00620548,0.00463
 890,-0.00000022,0.00874388,-0.01472975,0.00000023,-0.00789102,0.000938
 08,0.00000007,0.00045987,-0.00411665,0.00000001,-0.00010221,0.00202648
 ,0.00000002,0.00008603,-0.00009875,-0.00000002,0.00000006,0.00003737,0
 .,-0.00007955,-0.00003802,-0.00000001,-0.00004866,0.00007300,0.0000000
 3,-0.01285825,0.00888862,0.00000008,-0.00049416,0.00248696,-0.00000006
 ,-0.01730860,-0.01398583,-0.00000069,0.06100906,-0.00473283,0.00000048
 ,-0.05449685,0.02216054,0.00000001,-0.15217770,-0.02027196,-0.00000122
 ,-0.00241627,0.00451873,0.00000007,-0.33359236,-0.05704033,-0.00000246
 ,0.67047521,0.00003885,0.00094179,-0.00000005,0.00293727,0.00130156,-0
 .00000002,0.00350628,-0.00448442,0.00000016,-0.00347809,0.00054333,0.0
 0000003,0.00015816,-0.00258916,0.,0.00108313,0.00089138,0.,-0.00000952
 ,-0.00004743,0.,0.00002675,0.00000949,0.,0.00002447,-0.00005175,0.,0.0
 0002470,0.00003437,0.,0.00006183,0.00565084,-0.00000043,-0.00176492,0.
 00060445,0.00000002,-0.02994577,-0.00433030,-0.00000050,0.04780703,-0.
 05948201,-0.00000215,0.00105802,0.02248266,0.00000027,-0.11365064,-0.3
 0906329,-0.00001025,0.00347309,-0.00190587,-0.00000020,0.00908899,-0.1
 2444164,-0.00000278,-0.05388754,0.71032827,0.,0.00000004,0.00013396,0.
 00000011,0.00000001,-0.00031242,0.00000006,-0.00000011,-0.00105545,-0.
 00000012,0.00000002,0.00010094,0.,-0.00000010,0.00008876,0.00000005,0.
 00000002,0.00002309,0.,0.,-0.00005915,0.,0.,-0.00011666,0.,0.,-0.00000
 560,0.,0.,0.00000411,0.00000009,0.00000005,0.00154389,-0.00000007,0.00
 000006,0.00005048,-0.00000139,-0.00000023,-0.00116046,0.00000221,-0.00
 000255,0.00773602,0.00000012,0.00000120,0.00164460,-0.00000484,-0.0000
 0988,-0.05773901,0.00000007,-0.00000021,0.00384958,-0.00000049,-0.0000
 0307,-0.04906928,-0.00000035,0.00002315,0.11299394,0.00007225,-0.00009
 598,0.,-0.00011553,0.00011214,0.,-0.00001801,-0.00006632,0.,0.00002036
 ,0.00001375,0.,0.00000435,0.00009987,0.,-0.00014505,-0.00000933,0.,0.0
 0000519,0.00000730,0.,0.00000064,-0.00000512,0.,-0.00001093,0.00000604
 ,0.,-0.00000868,0.00000382,0.,-0.00015316,0.00038359,0.,0.00004244,0.0
 0000731,0.,0.00036913,0.00313079,0.00000012,-0.01393200,-0.00675169,-0
 .00000040,0.00062071,0.00036009,0.00000003,-0.33927633,-0.04937055,-0.
 00000356,0.00071065,0.00011755,0.,0.00131993,-0.00199309,-0.00000013,-
 0.00591229,0.00249339,0.00000005,0.35681803,0.00000041,0.00000628,0.,-
 0.00004715,-0.00009265,0.,0.00001134,0.00020342,-0.00000002,0.00006516
 ,-0.00005267,0.,0.00001075,0.00004317,0.,-0.00000133,-0.00002825,0.,-0
 .00000068,-0.00000154,0.,0.00000059,0.00000104,0.,0.00000367,-0.000003
 53,0.,0.00000264,-0.00000176,0.,0.00040836,-0.00041062,0.00000002,0.00
 002563,0.00002507,0.,0.00294472,-0.00428912,-0.00000029,0.02408334,0.0
 0713176,0.00000024,0.00052537,-0.00087783,0.00000004,-0.04911125,-0.06
 784132,-0.00000165,-0.00021834,0.00089256,0.00000012,-0.00125685,-0.00
 531977,-0.00000048,-0.02894320,0.00177386,-0.00000032,0.05229435,0.066
 69844,0.,0.,-0.00000098,-0.00000002,-0.00000002,0.00006768,0.,0.000000
 05,0.00047125,0.00000003,0.,0.00006004,0.,0.00000002,-0.00005789,0.,0.
 ,0.00000403,0.,0.,0.00001274,0.,0.,0.00003552,0.,0.,-0.00001559,0.,0.,
 -0.00000808,0.00000003,-0.00000003,-0.00006316,0.,-0.00000001,-0.00012
 197,0.00000003,-0.00000026,0.00424700,0.00000070,0.00000011,0.00518105
 ,0.,-0.00000007,-0.00151823,-0.00000343,-0.00000178,-0.03523481,0.0000
 0001,0.00000014,-0.00237487,0.00000003,-0.00000044,0.00643113,-0.00000
 120,-0.00000014,0.00666275,0.00000385,0.00000206,0.02166085,-0.0001060
 5,0.00002782,0.,0.00008243,0.00004686,0.,-0.00010197,0.00007730,0.,0.0
 0004391,0.00000760,0.,-0.00002052,-0.00003282,0.,0.00008184,0.00001096
 ,0.,0.00000045,-0.00000411,0.,-0.00000541,0.00000099,0.,0.00000330,-0.
 00000056,0.,-0.00000218,-0.00000194,0.,0.00018467,-0.00025022,-0.00000
 003,-0.00027534,0.00010656,0.00000002,-0.00307632,0.00285429,0.0000000
 8,0.00003265,0.00028443,0.,0.00888894,0.01962600,0.00000081,-0.0059138
 3,0.00070480,0.,0.00008372,-0.00010759,-0.00000001,-0.09881053,-0.1042
 0379,-0.00000410,-0.00446096,-0.02834539,-0.00000113,-0.00042388,-0.00
 142354,-0.00000006,0.10038063,0.00004715,0.00005100,0.00000002,-0.0001
 1499,-0.00012273,0.00000001,0.00007412,0.00005995,0.,-0.00000365,-0.00
 000516,0.,0.00000963,-0.00002931,0.,0.00004234,-0.00001857,0.,-0.00000
 692,0.00000242,0.,0.00000715,0.00000303,0.,0.00000713,-0.00000289,0.,0
 .00001079,-0.00000168,0.,-0.00020640,0.00024618,-0.00000002,0.00029691
 ,-0.00022848,0.00000003,0.00399554,-0.00244720,-0.00000014,0.00042973,
 0.00031278,0.00000003,-0.01420218,-0.01810022,-0.00000094,-0.00015565,
 0.00138538,-0.00000018,-0.00007802,-0.00005614,-0.00000001,-0.10199687
 ,-0.30345573,-0.00001059,0.00268601,0.00131127,-0.00000018,0.00009316,
 -0.00006089,0.00000004,0.11078373,0.31855928,0.,-0.00000002,-0.0003510
 7,-0.00000009,-0.00000003,-0.00025809,-0.00000007,0.00000009,0.0001557
 1,0.00000007,0.,0.00001985,0.,0.00000005,-0.00005582,-0.00000003,-0.00
 000002,0.00006972,0.,0.,-0.00002517,0.,0.,0.00003981,0.,0.,-0.00000696
 ,0.,0.,0.00007092,-0.00000006,-0.00000019,0.00061441,0.00000007,0.0000
 0001,-0.00076691,0.00000017,0.00000009,0.00257464,0.00000006,-0.000000
 10,-0.00011016,-0.00000115,-0.00000101,0.00425067,-0.00000003,-0.00000
 017,0.00568307,-0.00000002,0.,0.00007523,-0.00000375,-0.00001087,-0.03
 172074,0.00000010,-0.00000006,0.00451450,0.,0.00000002,-0.00049658,0.0
 0000450,0.00001172,0.02108277,0.00004166,-0.00002013,0.,0.00000915,0.0
 0010951,0.,0.00018414,-0.00012614,-0.00000001,-0.00007636,0.00000744,0
 .,0.00001250,-0.00000386,0.,-0.00005160,0.00001300,0.,0.00000114,0.000
 00350,0.,0.00000577,-0.00000341,0.,-0.00000605,0.00000145,0.,-0.000003
 77,0.00000351,0.,0.00017106,0.00053539,0.00000004,-0.00006415,0.000125
 22,-0.00000002,-0.00043250,-0.00047187,-0.00000005,0.00015471,-0.00264
 357,-0.00000012,-0.00278058,-0.00387733,-0.00000010,0.01018141,-0.0108
 7428,-0.00000041,0.00038328,-0.00049420,0.,-0.01271431,0.02611251,0.00
 000092,-0.17261506,0.14160248,0.00000489,0.00071347,0.00039481,0.00000
 005,0.00107293,-0.00034281,-0.00000002,0.17810544,-0.00000018,0.000066
 33,0.,0.00018593,0.00009916,-0.00000001,0.00022483,-0.00036212,0.,-0.0
 0020814,0.00003151,0.,0.00000689,-0.00016818,0.,0.00008837,0.00005812,
 0.,-0.00000304,-0.00000666,0.,0.00000211,0.00000561,0.,0.00000586,-0.0
 0000352,0.,0.00000575,-0.00000149,0.,-0.00032918,0.00010133,0.00000002
 ,-0.00009140,0.00006151,0.,-0.00060353,0.00033969,0.00000004,-0.003142
 35,-0.00368198,-0.00000040,-0.00220285,0.00032540,-0.00000023,0.020973
 31,-0.01585691,-0.00000063,0.00093630,-0.00107549,-0.00000006,-0.00548
 886,0.00708645,0.00000015,0.14025275,-0.23226237,-0.00000737,-0.000121
 36,0.00098381,0.00000021,0.00028102,0.00061059,0.00000015,-0.15091345,
 0.24295496,0.,0.00000001,0.00000463,0.00000004,0.,0.00008221,0.0000000
 4,-0.00000005,0.00011745,-0.00000003,0.,0.00000641,0.,-0.00000003,-0.0
 0000018,0.00000002,0.00000001,-0.00000484,0.,0.,0.00000645,0.,0.,0.000
 01281,0.,0.,0.00000029,0.,0.,-0.00001003,0.00000003,0.00000007,-0.0001
 7819,-0.00000003,0.,-0.00012272,0.00000005,-0.00000002,-0.00089010,-0.
 00000018,-0.00000038,0.00600148,-0.00000020,-0.00000026,0.00661428,0.0
 0000089,-0.00000075,0.00298455,0.00000004,-0.00000007,0.00059920,-0.00
 000005,0.00000026,0.00339117,0.00000466,-0.00000737,-0.03327834,0.0000
 0004,0.00000021,-0.00402666,0.00000002,0.00000017,-0.00347283,-0.00000
 521,0.00000808,0.02320538,-0.00175411,-0.00734193,0.00000001,-0.006938
 04,0.02134123,0.00000003,-0.06178021,0.03243657,0.00000070,0.00795712,
 -0.00232177,-0.00000006,-0.00125827,0.00571313,-0.00000003,-0.00579987
 ,-0.00226607,0.00000004,0.00034400,-0.00060743,0.,-0.00065525,-0.00010
 772,-0.00000001,0.00013580,-0.00005080,0.,-0.00063934,-0.00019086,0.00
 000002,-0.36314276,-0.05195716,0.00000363,-0.04781715,-0.04178298,0.00
 000083,-0.16154519,0.07724753,0.00000169,-0.03694938,0.03411314,0.0000
 0063,0.04011061,0.01043667,0.00000007,-0.00435429,-0.01005583,-0.00000
 024,0.00021752,0.00056887,-0.00000033,-0.00661905,-0.00386088,-0.00000
 039,0.00119258,0.00358861,0.00000029,-0.00055649,0.00068012,-0.0000000
 2,0.00059490,-0.00107424,0.00000007,0.00000436,0.00003822,-0.00000009,
 0.67367357,-0.00045814,-0.00020572,-0.00000006,0.02538133,-0.01775859,
 0.00000007,0.01943260,0.01085771,-0.00000052,0.00140921,-0.00627633,0.
 00000012,-0.00053502,-0.00129973,0.00000003,0.00155602,-0.00076476,0.,
 0.00013007,-0.00050680,0.,-0.00043421,0.00008175,0.,0.00032861,-0.0004
 7109,0.,-0.00021859,0.00002796,0.00000001,-0.03896108,-0.12605230,0.00
 000005,-0.00629257,-0.15866592,0.00000145,0.05458909,-0.18147791,-0.00
 000184,0.02338235,0.00896837,0.00000021,0.01625105,-0.04941985,-0.0000
 0080,-0.00420144,0.00127926,-0.00000054,-0.00161588,0.00042763,0.00000
 045,-0.01424957,-0.00140476,0.00000004,0.00905434,-0.00024438,0.,-0.00
 062518,0.00099526,0.00000005,0.00060421,-0.00057783,-0.00000023,0.0000
 6498,0.00035932,0.00000010,-0.05961618,0.51405769,-0.00000003,0.000000
 13,0.00088094,-0.00000021,-0.00000024,-0.00093402,0.00000021,0.,0.0051
 0520,0.00000001,0.00000011,0.00199166,0.00000001,-0.00000007,0.0011928
 5,0.00000016,0.00000003,0.00068734,0.,0.,-0.00032677,0.,0.,-0.00065393
 ,0.,0.,-0.00045785,0.00000001,0.,-0.00019728,0.00000510,0.00000102,-0.
 02949297,0.00000054,0.00000096,-0.01729466,0.00000061,-0.00000143,-0.0
 3382754,-0.00000003,0.00000068,0.00725591,0.00000090,-0.00000124,0.003
 41258,0.00000006,-0.00000069,0.00468120,0.00000004,0.00000014,-0.00320
 520,-0.00000064,0.00000002,-0.00065142,0.00000036,0.00000027,-0.000577
 29,0.00000002,0.00000007,-0.00097878,0.,-0.00000012,0.00206306,0.00000
 003,0.00000002,-0.00036426,-0.00000707,0.00000023,0.06337608,-0.000274
 75,0.00126966,0.00000006,-0.00047465,0.00125483,-0.00000010,0.00709350
 ,0.00014564,-0.00000023,-0.00036652,-0.00010094,0.00000004,-0.00002072
 ,-0.00088491,0.00000003,0.00141294,0.00018650,-0.00000001,-0.00017350,
 0.00015733,0.,0.00031314,0.00005746,-0.00000002,0.00003885,0.00001426,
 0.,0.00008311,0.00001750,-0.00000001,0.00625318,0.03350850,0.00000153,
 0.00047256,-0.00051582,-0.00000008,-0.03491676,-0.04386395,-0.00000106
 ,0.00556354,-0.00509197,-0.00000020,-0.49932910,-0.07756691,-0.0000020
 9,-0.01058171,-0.00465804,-0.00000022,-0.00157147,-0.00083652,-0.00000
 006,-0.09081683,0.02416129,0.00000084,0.01480470,0.01313569,0.00000047
 ,-0.00021921,-0.00045020,0.00000002,0.00177861,-0.00032246,0.00000019,
 -0.00245517,0.00016719,-0.00000003,-0.01774439,0.00645239,-0.00000003,
 0.62007148,-0.00066102,-0.00039376,0.,0.00047839,-0.00320706,0.0000001
 4,-0.00899591,-0.00021699,0.00000002,0.00107673,-0.00040972,-0.0000000
 2,0.00000438,0.00078122,0.,0.00001256,-0.00058637,0.,0.00010910,-0.000
 22127,0.,0.00008775,0.00004207,0.,0.00011598,-0.00007438,0.,0.00003359
 ,-0.00004761,0.,0.01706984,-0.04084313,-0.00000196,0.00028646,0.000016
 61,0.00000002,-0.04236212,-0.01237298,-0.00000036,-0.00304603,-0.00958
 142,-0.00000061,-0.07860592,-0.10486138,-0.00000116,0.00084814,-0.0036
 9508,-0.00000007,-0.00226679,-0.00020968,-0.00000012,0.03680983,0.0192
 5203,-0.00000019,0.00318655,-0.00158567,-0.00000032,-0.00006359,0.0003
 6920,0.00000007,-0.00137920,0.00277580,0.00000044,0.00152859,0.0003274
 9,0.00000007,0.00383127,0.01073953,0.00000033,0.07989703,0.15082986,-0
 .00000007,-0.00000003,0.00024441,0.00000007,-0.00000026,-0.00039275,-0
 .00000060,0.00000005,-0.00062419,0.00000009,0.,0.00019584,-0.00000002,
 0.00000003,0.00019976,0.00000003,-0.00000004,0.00006090,0.,-0.00000002
 ,-0.00010758,0.,0.,-0.00023660,0.,0.,-0.00003563,0.,0.,-0.00006856,0.0
 0000088,-0.00000243,0.01219492,0.,0.00000009,-0.00161099,-0.00000097,-
 0.00000134,0.01606930,-0.00000017,-0.00000028,0.00247753,-0.00000167,-
 0.00000078,-0.05660509,-0.00000004,-0.00000024,0.00006849,0.,0.0000000
 6,-0.00184058,0.00000087,0.00000015,0.01769917,0.00000025,0.00000004,0
 .00376079,0.,0.,0.00013559,-0.00000014,0.00000018,-0.00381326,0.000000
 04,0.00000002,-0.00058344,0.00000030,0.00000045,-0.00255998,0.00000163
 ,0.00000404,0.02454430,0.00118578,0.00052824,-0.00000003,-0.00396047,0
 .00388715,-0.00000004,0.01279943,0.02072087,0.00000009,0.00122562,0.00
 040471,0.,-0.00008616,-0.00005994,0.,-0.00024252,-0.00007491,0.,-0.000
 18744,0.00028987,0.,-0.00034888,-0.00056539,-0.00000005,0.00000423,-0.
 00001715,0.,-0.00003677,-0.00006191,0.,-0.10112639,-0.10482003,-0.0000
 0059,-0.00415700,-0.00319420,0.00000002,0.00164271,-0.00086564,-0.0000
 0018,-0.00069301,0.00015395,0.00000001,-0.01267600,0.00433568,0.000000
 28,0.00066934,-0.00057215,-0.00000005,0.00028937,0.00017880,0.00000008
 ,0.00118232,-0.00054192,0.00000015,-0.00010602,0.00097313,-0.00000002,
 0.00007440,0.00000127,0.00000001,-0.00003199,0.00002083,-0.00000003,0.
 00015853,-0.00006420,0.,-0.00667666,-0.03142840,-0.00000004,0.00105918
 ,-0.00799560,-0.00000049,0.11003842,0.00051066,-0.00005612,0.00000004,
 0.00292902,0.00418163,-0.00000014,0.00708870,-0.01436738,-0.00000001,-
 0.00335991,0.00237036,0.00000007,-0.00026185,-0.00195142,0.00000004,-0
 .00008564,0.00117450,-0.00000002,0.00000160,0.00016242,0.,0.00047565,0
 .00009657,0.,-0.00021914,0.00017160,0.,-0.00005908,0.00010409,0.,-0.10
 534578,-0.35145969,-0.00000087,0.00285561,0.00849135,-0.00000012,-0.00
 878697,0.00570564,0.00000060,0.00782422,-0.00402442,-0.00000017,0.0261
 3499,0.00751418,0.00000036,-0.00440367,0.00823571,0.00000040,-0.000779
 89,-0.00042808,-0.00000027,-0.00449437,-0.00029375,-0.00000019,-0.0034
 7640,-0.00538499,-0.00000021,-0.00002092,-0.00014393,0.00000001,0.0003
 3259,-0.00021086,0.00000014,-0.00073133,0.00000742,-0.00000007,-0.0087
 6151,-0.00266850,-0.00000022,-0.02613353,-0.00682731,0.00000030,0.1187
 6696,0.34960097,-0.00000002,0.00000013,0.00066204,-0.00000002,0.000000
 13,0.00321878,0.00000039,0.00000055,-0.00210810,0.00000008,0.00000002,
 -0.00138511,-0.00000004,-0.00000003,-0.00047051,0.00000008,0.,-0.00005
 529,-0.00000002,0.00000002,-0.00005835,-0.00000003,0.,0.00011746,0.,0.
 ,0.00010873,0.,0.,0.00003409,-0.00000102,-0.00000204,-0.02023290,0.000
 00016,0.00000029,0.00325233,-0.00000013,0.00000002,-0.00265767,-0.0000
 0007,-0.00000010,-0.00007607,0.00000083,0.00000034,0.00111332,-0.00000
 003,0.00000002,-0.00005960,-0.00000004,-0.00000001,0.00019267,-0.00000
 026,-0.00000005,0.00125283,0.,0.,0.00026625,0.,0.,-0.00007202,0.000000
 01,0.,-0.00013677,-0.00000003,0.,-0.00009470,-0.00000008,0.00000074,0.
 00087514,-0.00000065,-0.00000035,-0.00917233,0.00000087,0.00000032,0.0
 2548579\\0.00161246,0.00135205,-0.00000006,0.00202124,0.00238703,-0.00
 000006,0.00299063,-0.00052069,0.,-0.00087869,0.00151816,0.00000012,0.0
 0022387,0.00053760,0.,0.00152886,0.00154328,-0.00000006,0.00010567,0.0
 0014125,0.,-0.00004649,0.00010988,0.00000001,0.00002438,0.00018585,0.,
 0.00013942,0.00014164,0.,-0.00653390,0.00222513,0.00000087,0.00051136,
 0.00017218,0.,-0.00363435,0.00152300,-0.00000012,0.00230014,0.00051061
 ,-0.00000020,0.00593188,0.00074385,-0.00000018,-0.00103603,0.00423351,
 -0.00000006,-0.00004830,0.00009952,0.00000005,-0.00057453,0.00027558,0
 .00000017,-0.00097900,0.00094043,0.00000021,-0.00006248,0.00020907,0.0
 0000004,0.00012637,-0.00001349,0.,-0.00009838,0.00006775,0.,-0.0041612
 4,-0.00308336,-0.00000005,-0.00272071,-0.00513875,-0.00000023,0.003257
 84,-0.01016107,-0.00000044\\\@
 The archive entry for this job was punched.


 The impersonal hand of government can
 never replace the helping hand of a neighbor.
                        -- Hubert H. Humphrey
 Job cpu time:       0 days  2 hours 58 minutes 39.5 seconds.
 Elapsed time:       0 days  0 hours 18 minutes 23.8 seconds.
 File lengths (MBytes):  RWF=   1380 Int=      0 D2E=      0 Chk=     48 Scr=      8
 Normal termination of Gaussian 16 at Mon Jul 13 17:10:04 2020.
