 Entering Gaussian System, Link 0=g16
 Initial command:
 /gpfs/loomis/apps/avx/software/Gaussian/16-C.01_AVX/g16/l1.exe "/home/fas/batista/pev4/scratch60/gauss-scratch/Gau-100208.inp" -scrdir="/home/fas/batista/pev4/scratch60/gauss-scratch/"
 Entering Link 1 = /gpfs/loomis/apps/avx/software/Gaussian/16-C.01_AVX/g16/l1.exe PID=    100209.
  
 Copyright (c) 1988-2019, Gaussian, Inc.  All Rights Reserved.
  
 This is part of the Gaussian(R) 16 program.  It is based on
 the Gaussian(R) 09 system (copyright 2009, Gaussian, Inc.),
 the Gaussian(R) 03 system (copyright 2003, Gaussian, Inc.),
 the Gaussian(R) 98 system (copyright 1998, Gaussian, Inc.),
 the Gaussian(R) 94 system (copyright 1995, Gaussian, Inc.),
 the Gaussian 92(TM) system (copyright 1992, Gaussian, Inc.),
 the Gaussian 90(TM) system (copyright 1990, Gaussian, Inc.),
 the Gaussian 88(TM) system (copyright 1988, Gaussian, Inc.),
 the Gaussian 86(TM) system (copyright 1986, Carnegie Mellon
 University), and the Gaussian 82(TM) system (copyright 1983,
 Carnegie Mellon University). Gaussian is a federally registered
 trademark of Gaussian, Inc.
  
 This software contains proprietary and confidential information,
 including trade secrets, belonging to Gaussian, Inc.
  
 This software is provided under written license and may be
 used, copied, transmitted, or stored only in accord with that
 written license.
  
 The following legend is applicable only to US Government
 contracts under FAR:
  
                    RESTRICTED RIGHTS LEGEND
  
 Use, reproduction and disclosure by the US Government is
 subject to restrictions as set forth in subparagraphs (a)
 and (c) of the Commercial Computer Software - Restricted
 Rights clause in FAR 52.227-19.
  
 Gaussian, Inc.
 340 Quinnipiac St., Bldg. 40, Wallingford CT 06492
  
  
 ---------------------------------------------------------------
 Warning -- This program may not be used in any manner that
 competes with the business of Gaussian, Inc. or will provide
 assistance to any competitor of Gaussian, Inc.  The licensee
 of this program is prohibited from giving any competitor of
 Gaussian, Inc. access to this program.  By using this program,
 the user acknowledges that Gaussian, Inc. is engaged in the
 business of creating and licensing software in the field of
 computational chemistry and represents and warrants to the
 licensee that it is not a competitor of Gaussian, Inc. and that
 it will not use this program in any manner prohibited above.
 ---------------------------------------------------------------
  

 Cite this work as:
 Gaussian 16, Revision C.01,
 M. J. Frisch, G. W. Trucks, H. B. Schlegel, G. E. Scuseria, 
 M. A. Robb, J. R. Cheeseman, G. Scalmani, V. Barone, 
 G. A. Petersson, H. Nakatsuji, X. Li, M. Caricato, A. V. Marenich, 
 J. Bloino, B. G. Janesko, R. Gomperts, B. Mennucci, H. P. Hratchian, 
 J. V. Ortiz, A. F. Izmaylov, J. L. Sonnenberg, D. Williams-Young, 
 F. Ding, F. Lipparini, F. Egidi, J. Goings, B. Peng, A. Petrone, 
 T. Henderson, D. Ranasinghe, V. G. Zakrzewski, J. Gao, N. Rega, 
 G. Zheng, W. Liang, M. Hada, M. Ehara, K. Toyota, R. Fukuda, 
 J. Hasegawa, M. Ishida, T. Nakajima, Y. Honda, O. Kitao, H. Nakai, 
 T. Vreven, K. Throssell, J. A. Montgomery, Jr., J. E. Peralta, 
 F. Ogliaro, M. J. Bearpark, J. J. Heyd, E. N. Brothers, K. N. Kudin, 
 V. N. Staroverov, T. A. Keith, R. Kobayashi, J. Normand, 
 K. Raghavachari, A. P. Rendell, J. C. Burant, S. S. Iyengar, 
 J. Tomasi, M. Cossi, J. M. Millam, M. Klene, C. Adamo, R. Cammi, 
 J. W. Ochterski, R. L. Martin, K. Morokuma, O. Farkas, 
 J. B. Foresman, and D. J. Fox, Gaussian, Inc., Wallingford CT, 2019.
 
 ******************************************
 Gaussian 16:  ES64L-G16RevC.01  3-Jul-2019
                13-Jul-2020 
 ******************************************
 %chk=config_3_13.chk
 %mem=58GB
 %nprocshared=10
 Will use up to   10 processors via shared memory.
 ----------------------------------------------------------------------
 #p opt=addgic freq td wb97xd/cc-pvdz nosymm int=ultrafine scrf=(solven
 t=CarbonTetraChloride)
 ----------------------------------------------------------------------
 1/18=20,19=15,26=6,38=1,145=903/1,3;
 2/9=110,12=2,15=1,17=6,18=5,40=1/2;
 3/5=16,11=9,25=1,30=1,70=2201,71=1,72=11,74=-58,75=-5/1,2,3,8;
 4//1;
 5/5=2,38=5,53=11/2;
 8/6=1,10=1/1;
 9/15=2,42=1,70=2/14;
 10/5=4,31=1/2;
 6/7=2,8=2,9=2,10=2/1;
 7/12=6,13=5,30=1/1,2,3,16;
 1/18=20,19=15,26=6,145=903/3(2);
 2/9=110,15=1/2;
 99//99;
 2/9=110,15=1/2;
 3/5=16,11=9,25=1,30=1,70=2205,71=1,72=11,74=-58,75=-5/1,2,3,8;
 4/5=5,16=3,69=1/1;
 5/5=2,38=5,53=11/2;
 8/6=1,10=1/1;
 9/15=2,42=1,49=4,70=2/14;
 10/5=4,31=1/2;
 7/12=6,13=5,30=1/1,2,3,16;
 1/18=20,19=15,26=6,145=903/3(-8);
 2/9=110,15=1/2;
 6/7=2,8=2,9=2,10=2/1;
 99/9=10/99;
 Leave Link    1 at Mon Jul 13 16:38:32 2020, MaxMem=  7784628224 cpu:               5.6 elap:               0.6
 (Enter /gpfs/loomis/apps/avx/software/Gaussian/16-C.01_AVX/g16/l101.exe)
 ------------------------------------------------
 NM 2D-scan of HBT TD-WB97XD pVDZ in CTC Relaxed.
 ------------------------------------------------
 Symbolic Z-matrix:
 Charge =  0 Multiplicity = 1
 C                     1.58934  -3.26109  -0.00002 
 C                     0.99425  -2.00427  -0.00002 
 C                     1.74947  -0.78824  -0.00003 
 C                     3.17051  -0.89491  -0.00003 
 C                     3.7524   -2.15386  -0.00002 
 C                     2.98018  -3.33526  -0.00002 
 H                     0.97622  -4.16514  -0.00002 
 H                     3.77972   0.01188  -0.00003 
 H                     4.84254  -2.23543  -0.00002 
 H                     3.4731   -4.30966  -0.00001 
 N                     1.00466   0.3313   -0.00003 
 S                    -0.71394  -1.65819  -0.00002 
 C                    -1.33167   1.0465    0.00001 
 C                    -2.72394   0.76886   0.00001 
 C                    -0.91394   2.45351   0.00003 
 C                    -3.64829   1.80239   0.00003 
 H                    -3.06122  -0.27022   0. 
 C                    -1.87557   3.47931   0.00005 
 C                    -3.23441   3.15898   0.00004 
 H                    -4.71512   1.56867   0.00003 
 H                    -1.53098   4.51568   0.00006 
 H                    -3.98267   3.95357   0.00005 
 C                    -0.33079   0.06138  -0.00002 
 O                     0.37477   2.70941   0.00005 
 H                     0.8463    1.96284   0.00003 
 
 Initializing the GIC definitions file.
 Number of initial coordinates =   131
 Number of input entries/lines =    52
 Number of additional coordinates =     2
 Number of removed coordinates =     0
 Number of frozen coordinates =     2
 Number of final active and frozen coordinates =   133
 ITRead=  0  0  0  0  0  0  0  0  0  0  0  0  0  0  0  0  0  0  0  0
 ITRead=  0  0  0  0  0
 MicOpt= -1 -1 -1 -1 -1 -1 -1 -1 -1 -1 -1 -1 -1 -1 -1 -1 -1 -1 -1 -1
 MicOpt= -1 -1 -1 -1 -1
 NAtoms=     25 NQM=       25 NQMF=       0 NMMI=      0 NMMIF=      0
                NMic=       0 NMicF=      0.
                    Isotopes and Nuclear Properties:
 (Nuclear quadrupole moments (NQMom) in fm**2, nuclear magnetic moments (NMagM)
  in nuclear magnetons)

  Atom         1           2           3           4           5           6           7           8           9          10
 IAtWgt=          12          12          12          12          12          12           1           1           1           1
 AtmWgt=  12.0000000  12.0000000  12.0000000  12.0000000  12.0000000  12.0000000   1.0078250   1.0078250   1.0078250   1.0078250
 NucSpn=           0           0           0           0           0           0           1           1           1           1
 AtZEff=  -0.0000000  -0.0000000  -0.0000000  -0.0000000  -0.0000000  -0.0000000  -0.0000000  -0.0000000  -0.0000000  -0.0000000
 NQMom=    0.0000000   0.0000000   0.0000000   0.0000000   0.0000000   0.0000000   0.0000000   0.0000000   0.0000000   0.0000000
 NMagM=    0.0000000   0.0000000   0.0000000   0.0000000   0.0000000   0.0000000   2.7928460   2.7928460   2.7928460   2.7928460
 AtZNuc=   6.0000000   6.0000000   6.0000000   6.0000000   6.0000000   6.0000000   1.0000000   1.0000000   1.0000000   1.0000000

  Atom        11          12          13          14          15          16          17          18          19          20
 IAtWgt=          14          32          12          12          12          12           1          12          12           1
 AtmWgt=  14.0030740  31.9720718  12.0000000  12.0000000  12.0000000  12.0000000   1.0078250  12.0000000  12.0000000   1.0078250
 NucSpn=           2           0           0           0           0           0           1           0           0           1
 AtZEff=  -0.0000000  -0.0000000  -0.0000000  -0.0000000  -0.0000000  -0.0000000  -0.0000000  -0.0000000  -0.0000000  -0.0000000
 NQMom=    2.0440000   0.0000000   0.0000000   0.0000000   0.0000000   0.0000000   0.0000000   0.0000000   0.0000000   0.0000000
 NMagM=    0.4037610   0.0000000   0.0000000   0.0000000   0.0000000   0.0000000   2.7928460   0.0000000   0.0000000   2.7928460
 AtZNuc=   7.0000000  16.0000000   6.0000000   6.0000000   6.0000000   6.0000000   1.0000000   6.0000000   6.0000000   1.0000000

  Atom        21          22          23          24          25
 IAtWgt=           1           1          12          16           1
 AtmWgt=   1.0078250   1.0078250  12.0000000  15.9949146   1.0078250
 NucSpn=           1           1           0           0           1
 AtZEff=  -0.0000000  -0.0000000  -0.0000000  -0.0000000  -0.0000000
 NQMom=    0.0000000   0.0000000   0.0000000   0.0000000   0.0000000
 NMagM=    2.7928460   2.7928460   0.0000000   0.0000000   2.7928460
 AtZNuc=   1.0000000   1.0000000   6.0000000   8.0000000   1.0000000
 Leave Link  101 at Mon Jul 13 16:38:35 2020, MaxMem=  7784628224 cpu:              31.9 elap:               3.2
 (Enter /gpfs/loomis/apps/avx/software/Gaussian/16-C.01_AVX/g16/l103.exe)

 GradGradGradGradGradGradGradGradGradGradGradGradGradGradGradGradGradGrad
 Berny optimization.
 Initialization pass.
                           ----------------------------
                           !    Initial Parameters    !
                           ! (Angstroms and Degrees)  !
 --------------------------                            --------------------------
 ! Name  Definition              Value          Derivative Info.                !
 --------------------------------------------------------------------------------
 ! R1    R(1,2)                  1.3906         estimate D2E/DX2                !
 ! R2    R(1,6)                  1.3928         estimate D2E/DX2                !
 ! R3    R(1,7)                  1.0923         estimate D2E/DX2                !
 ! R4    R(2,3)                  1.4315         estimate D2E/DX2                !
 ! R5    R(2,12)                 1.7429         estimate D2E/DX2                !
 ! R6    R(3,4)                  1.425          estimate D2E/DX2                !
 ! R7    R(3,11)                 1.3447         estimate D2E/DX2                !
 ! R8    R(4,5)                  1.3869         estimate D2E/DX2                !
 ! R9    R(4,8)                  1.0924         estimate D2E/DX2                !
 ! R10   R(5,6)                  1.4114         estimate D2E/DX2                !
 ! R11   R(5,9)                  1.0932         estimate D2E/DX2                !
 ! R12   R(6,10)                 1.092          estimate D2E/DX2                !
 ! R13   R(11,23)                1.3625         estimate D2E/DX2                !
 ! R14   R(12,23)                1.7617         estimate D2E/DX2                !
 ! R15   R(13,14)                1.4197         estimate D2E/DX2                !
 ! R16   R(13,15)                1.4677         estimate D2E/DX2                !
 ! R17   R(13,23)                1.4043         estimate D2E/DX2                !
 ! R18   R(14,16)                1.3866         estimate D2E/DX2                !
 ! R19   R(14,17)                1.0925         estimate D2E/DX2                !
 ! R20   R(15,18)                1.4061         estimate D2E/DX2                !
 ! R21   R(15,24)                1.3139         estimate D2E/DX2                !
 ! R22   R(16,19)                1.4183         estimate D2E/DX2                !
 ! R23   R(16,20)                1.0921         estimate D2E/DX2                !
 ! R24   R(18,19)                1.3961         estimate D2E/DX2                !
 ! R25   R(18,21)                1.0922         estimate D2E/DX2                !
 ! R26   R(19,22)                1.0915         estimate D2E/DX2                !
 ! R27   R(24,25)                0.883          estimate D2E/DX2                !
 ! A1    A(2,1,6)              118.3893         estimate D2E/DX2                !
 ! A2    A(2,1,7)              120.5183         estimate D2E/DX2                !
 ! A3    A(6,1,7)              121.0924         estimate D2E/DX2                !
 ! A4    A(1,2,3)              122.821          estimate D2E/DX2                !
 ! A5    A(1,2,12)             126.7902         estimate D2E/DX2                !
 ! A6    A(3,2,12)             110.3888         estimate D2E/DX2                !
 ! A7    A(2,3,4)              117.5492         estimate D2E/DX2                !
 ! A8    A(2,3,11)             114.523          estimate D2E/DX2                !
 ! A9    A(4,3,11)             127.9278         estimate D2E/DX2                !
 ! A10   A(3,4,5)              119.0996         estimate D2E/DX2                !
 ! A11   A(3,4,8)              119.6015         estimate D2E/DX2                !
 ! A12   A(5,4,8)              121.2989         estimate D2E/DX2                !
 ! A13   A(4,5,6)              122.0227         estimate D2E/DX2                !
 ! A14   A(4,5,9)              119.0858         estimate D2E/DX2                !
 ! A15   A(6,5,9)              118.8915         estimate D2E/DX2                !
 ! A16   A(1,6,5)              120.1182         estimate D2E/DX2                !
 ! A17   A(1,6,10)             119.8856         estimate D2E/DX2                !
 ! A18   A(5,6,10)             119.9961         estimate D2E/DX2                !
 ! A19   A(3,11,23)            112.2082         estimate D2E/DX2                !
 ! A20   A(2,12,23)             88.8922         estimate D2E/DX2                !
 ! A21   A(14,13,15)           117.8133         estimate D2E/DX2                !
 ! A22   A(14,13,23)           124.177          estimate D2E/DX2                !
 ! A23   A(15,13,23)           118.0097         estimate D2E/DX2                !
 ! A24   A(13,14,16)           120.5305         estimate D2E/DX2                !
 ! A25   A(13,14,17)           119.2606         estimate D2E/DX2                !
 ! A26   A(16,14,17)           120.2089         estimate D2E/DX2                !
 ! A27   A(13,15,18)           120.3135         estimate D2E/DX2                !
 ! A28   A(13,15,24)           117.7669         estimate D2E/DX2                !
 ! A29   A(18,15,24)           121.9196         estimate D2E/DX2                !
 ! A30   A(14,16,19)           121.2257         estimate D2E/DX2                !
 ! A31   A(14,16,20)           119.4511         estimate D2E/DX2                !
 ! A32   A(19,16,20)           119.3231         estimate D2E/DX2                !
 ! A33   A(15,18,19)           119.8863         estimate D2E/DX2                !
 ! A34   A(15,18,21)           118.4579         estimate D2E/DX2                !
 ! A35   A(19,18,21)           121.6559         estimate D2E/DX2                !
 ! A36   A(16,19,18)           120.2307         estimate D2E/DX2                !
 ! A37   A(16,19,22)           119.754          estimate D2E/DX2                !
 ! A38   A(18,19,22)           120.0153         estimate D2E/DX2                !
 ! A39   A(11,23,12)           113.9877         estimate D2E/DX2                !
 ! A40   A(11,23,13)           124.028          estimate D2E/DX2                !
 ! A41   A(12,23,13)           121.9843         estimate D2E/DX2                !
 ! A42   A(15,24,25)           111.0454         estimate D2E/DX2                !
 ! D1    D(6,1,2,3)              0.0            estimate D2E/DX2                !
 ! D2    D(6,1,2,12)           180.0            estimate D2E/DX2                !
 ! D3    D(7,1,2,3)            179.9999         estimate D2E/DX2                !
 ! D4    D(7,1,2,12)            -0.0001         estimate D2E/DX2                !
 ! D5    D(2,1,6,5)             -0.0001         estimate D2E/DX2                !
 ! D6    D(2,1,6,10)           179.9999         estimate D2E/DX2                !
 ! D7    D(7,1,6,5)            180.0            estimate D2E/DX2                !
 ! D8    D(7,1,6,10)             0.0            estimate D2E/DX2                !
 ! D9    D(1,2,3,4)              0.0001         estimate D2E/DX2                !
 ! D10   D(1,2,3,11)          -180.0            estimate D2E/DX2                !
 ! D11   D(12,2,3,4)          -179.9999         estimate D2E/DX2                !
 ! D12   D(12,2,3,11)            0.0            estimate D2E/DX2                !
 ! D13   D(1,2,12,23)          179.9997         estimate D2E/DX2                !
 ! D14   D(3,2,12,23)           -0.0003         estimate D2E/DX2                !
 ! D15   D(2,3,4,5)             -0.0001         estimate D2E/DX2                !
 ! D16   D(2,3,4,8)            179.9999         estimate D2E/DX2                !
 ! D17   D(11,3,4,5)           180.0            estimate D2E/DX2                !
 ! D18   D(11,3,4,8)             0.0            estimate D2E/DX2                !
 ! D19   D(2,3,11,23)            0.0003         estimate D2E/DX2                !
 ! D20   D(4,3,11,23)         -179.9998         estimate D2E/DX2                !
 ! D21   D(3,4,5,6)              0.0            estimate D2E/DX2                !
 ! D22   D(3,4,5,9)           -179.9999         estimate D2E/DX2                !
 ! D23   D(8,4,5,6)            180.0            estimate D2E/DX2                !
 ! D24   D(8,4,5,9)              0.0            estimate D2E/DX2                !
 ! D25   D(4,5,6,1)              0.0001         estimate D2E/DX2                !
 ! D26   D(4,5,6,10)          -180.0            estimate D2E/DX2                !
 ! D27   D(9,5,6,1)           -179.9999         estimate D2E/DX2                !
 ! D28   D(9,5,6,10)             0.0            estimate D2E/DX2                !
 ! D29   D(3,11,23,12)          -0.0006         estimate D2E/DX2                !
 ! D30   D(3,11,23,13)         179.9986         estimate D2E/DX2                !
 ! D31   D(2,12,23,11)           0.0005         estimate D2E/DX2                !
 ! D32   D(2,12,23,13)        -179.9987         estimate D2E/DX2                !
 ! D33   D(15,13,14,16)          0.0007         estimate D2E/DX2                !
 ! D34   D(15,13,14,17)       -179.9996         estimate D2E/DX2                !
 ! D35   D(23,13,14,16)       -179.9994         estimate D2E/DX2                !
 ! D36   D(23,13,14,17)          0.0003         estimate D2E/DX2                !
 ! D37   D(14,13,15,18)         -0.0009         estimate D2E/DX2                !
 ! D38   D(14,13,15,24)        179.9989         estimate D2E/DX2                !
 ! D39   D(23,13,15,18)        179.9992         estimate D2E/DX2                !
 ! D40   D(23,13,15,24)         -0.001          estimate D2E/DX2                !
 ! D41   D(14,13,23,11)        179.9999         estimate D2E/DX2                !
 ! D42   D(14,13,23,12)         -0.001          estimate D2E/DX2                !
 ! D43   D(15,13,23,11)         -0.0002         estimate D2E/DX2                !
 ! D44   D(15,13,23,12)        179.9989         estimate D2E/DX2                !
 ! D45   D(13,14,16,19)         -0.0002         estimate D2E/DX2                !
 ! D46   D(13,14,16,20)        179.9998         estimate D2E/DX2                !
 ! D47   D(17,14,16,19)       -179.9999         estimate D2E/DX2                !
 ! D48   D(17,14,16,20)          0.0001         estimate D2E/DX2                !
 ! D49   D(13,15,18,19)          0.0005         estimate D2E/DX2                !
 ! D50   D(13,15,18,21)       -180.0            estimate D2E/DX2                !
 ! D51   D(24,15,18,19)       -179.9993         estimate D2E/DX2                !
 ! D52   D(24,15,18,21)          0.0003         estimate D2E/DX2                !
 ! D53   D(13,15,24,25)          0.0012         estimate D2E/DX2                !
 ! D54   D(18,15,24,25)       -179.999          estimate D2E/DX2                !
 ! D55   D(14,16,19,18)         -0.0002         estimate D2E/DX2                !
 ! D56   D(14,16,19,22)        179.9999         estimate D2E/DX2                !
 ! D57   D(20,16,19,18)        179.9998         estimate D2E/DX2                !
 ! D58   D(20,16,19,22)          0.0            estimate D2E/DX2                !
 ! D59   D(15,18,19,16)          0.0001         estimate D2E/DX2                !
 ! D60   D(15,18,19,22)        179.9999         estimate D2E/DX2                !
 ! D61   D(21,18,19,16)       -179.9995         estimate D2E/DX2                !
 ! D62   D(21,18,19,22)          0.0004         estimate D2E/DX2                !
 ! Qtot  GIC-1                 -30.0            Frozen                          !
 ! Ptot  GIC-2                 100.0            Frozen                          !
 --------------------------------------------------------------------------------
 NOTE: GIC-type coordinates are in arbitrary units.
 Trust Radius=3.00D-01 FncErr=5.00D-06 GrdErr=5.00D-06 EigMax=2.50D+02 EigMin=1.00D-04
 Number of steps in this run=    143 maximum allowed number of steps=    150.
 GradGradGradGradGradGradGradGradGradGradGradGradGradGradGradGradGradGrad

 Leave Link  103 at Mon Jul 13 16:38:35 2020, MaxMem=  7784628224 cpu:               0.1 elap:               0.0
 (Enter /gpfs/loomis/apps/avx/software/Gaussian/16-C.01_AVX/g16/l202.exe)
                          Input orientation:                          
 ---------------------------------------------------------------------
 Center     Atomic      Atomic             Coordinates (Angstroms)
 Number     Number       Type             X           Y           Z
 ---------------------------------------------------------------------
      1          6           0        1.589339   -3.261092   -0.000019
      2          6           0        0.994254   -2.004275   -0.000022
      3          6           0        1.749466   -0.788239   -0.000025
      4          6           0        3.170510   -0.894912   -0.000027
      5          6           0        3.752402   -2.153857   -0.000023
      6          6           0        2.980181   -3.335257   -0.000018
      7          1           0        0.976219   -4.165142   -0.000016
      8          1           0        3.779722    0.011881   -0.000031
      9          1           0        4.842545   -2.235425   -0.000024
     10          1           0        3.473099   -4.309664   -0.000015
     11          7           0        1.004663    0.331303   -0.000028
     12         16           0       -0.713938   -1.658188   -0.000024
     13          6           0       -1.331667    1.046496    0.000008
     14          6           0       -2.723944    0.768858    0.000015
     15          6           0       -0.913936    2.453510    0.000034
     16          6           0       -3.648287    1.802388    0.000030
     17          1           0       -3.061221   -0.270224    0.000003
     18          6           0       -1.875566    3.479305    0.000046
     19          6           0       -3.234411    3.158977    0.000043
     20          1           0       -4.715124    1.568670    0.000031
     21          1           0       -1.530983    4.515683    0.000065
     22          1           0       -3.982673    3.953575    0.000053
     23          6           0       -0.330795    0.061382   -0.000020
     24          8           0        0.374768    2.709409    0.000050
     25          1           0        0.846304    1.962838    0.000026
 ---------------------------------------------------------------------
                    Distance matrix (angstroms):
                    1          2          3          4          5
     1  C    0.000000
     2  C    1.390581   0.000000
     3  C    2.478032   1.431465   0.000000
     4  C    2.845858   2.442699   1.425042   0.000000
     5  C    2.429982   2.762201   2.424183   1.386918   0.000000
     6  C    1.392818   2.390695   2.828774   2.447756   1.411394
     7  H    1.092347   2.160943   3.464302   3.938187   3.428186
     8  H    3.938290   3.438564   2.182231   1.092435   2.165910
     9  H    3.411061   3.855227   3.414891   2.143053   1.093190
    10  H    2.155935   3.385188   3.920631   3.428133   2.173825
    11  N    3.639663   2.335601   1.344658   2.488875   3.704874
    12  S    2.806134   1.742899   2.612504   3.958728   4.493760
    13  C    5.204573   3.836288   3.586033   4.902924   6.007496
    14  C    5.902957   4.638454   4.736660   6.124762   7.105302
    15  C    6.238834   4.849024   4.195551   5.281537   6.557632
    16  C    7.285023   6.003655   5.987244   7.332900   8.391786
    17  H    5.529285   4.410647   4.838497   6.262963   7.069196
    18  C    7.578820   6.189145   5.599356   6.678073   7.962822
    19  C    8.030307   6.673887   6.357636   7.580041   8.777343
    20  H    7.941842   6.735201   6.880839   8.261505   9.249660
    21  H    8.379417   6.991900   6.236420   7.167885   8.508637
    22  H    9.115851   7.763103   7.439235   8.641519   9.855562
    23  C    3.837414   2.454117   2.247074   3.629550   4.645404
    24  O    6.092787   4.754217   3.758103   4.561502   5.921129
    25  H    5.276509   3.969871   2.895536   3.683568   5.039105
                    6          7          8          9         10
     6  C    0.000000
     7  H    2.169002   0.000000
     8  H    3.441309   5.030622   0.000000
     9  H    2.162876   4.321143   2.485956   0.000000
    10  H    1.091988   2.501059   4.332410   2.485528   0.000000
    11  N    4.164893   4.496535   2.793383   4.617081   5.256592
    12  S    4.056979   3.023484   4.793967   5.586386   4.955967
    13  C    6.147503   5.699782   5.215048   6.992274   7.195431
    14  C    7.027147   6.167298   6.547571   8.141097   8.012161
    15  C    6.976673   6.883258   5.290745   7.424499   8.061427
    16  C    8.386417   7.549668   7.640762   9.402030   9.384633
    17  H    6.774435   5.609930   6.846758   8.144417   7.682084
    18  C    8.367589   8.159060   6.633650   8.819930   9.448612
    19  C    8.988672   8.448202   7.687800   9.712712  10.038490
    20  H    9.125033   8.078861   8.636319  10.286893  10.079773
    21  H    9.054715   9.035640   6.963319   9.284359  10.145323
    22  H   10.080100   9.513369   8.705845  10.779063  11.129675
    23  C    4.743386   4.424002   4.110815   5.660279   5.794450
    24  O    6.582261   6.900811   4.344004   6.664264   7.672486
    25  H    5.711676   6.129357   3.522950   5.796150   6.800319
                   11         12         13         14         15
    11  N    0.000000
    12  S    2.629004   0.000000
    13  C    2.443345   2.774329   0.000000
    14  C    3.754192   3.151297   1.419689   0.000000
    15  C    2.860906   4.116559   1.467715   2.472686   0.000000
    16  C    4.879963   4.537179   2.436822   1.386577   2.810807
    17  H    4.110139   2.726936   2.173732   1.092450   3.468365
    18  C    4.266806   5.267183   2.492867   2.840118   1.406054
    19  C    5.095634   5.436714   2.843063   2.444022   2.425342
    20  H    5.852097   5.140243   3.423514   2.145810   3.902815
    21  H    4.892702   6.227699   3.474908   3.932156   2.152511
    22  H    6.163958   6.494344   3.934329   3.424445   3.415749
    23  C    1.362462   1.761738   1.404349   2.495533   2.462180
    24  O    2.460113   4.501242   2.382687   3.656193   1.313865
    25  H    1.639203   3.942865   2.362888   3.764606   1.827349
                   16         17         18         19         20
    16  C    0.000000
    17  H    2.154152   0.000000
    18  C    2.440203   3.932524   0.000000
    19  C    1.418318   3.433571   1.396091   0.000000
    20  H    1.092138   2.473242   3.422516   2.172921   0.000000
    21  H    3.441649   5.024593   1.092161   2.177686   4.338622
    22  H    2.177020   4.323141   2.159823   1.091459   2.494845
    23  C    3.746580   2.750489   3.750802   4.245713   4.636191
    24  O    4.124034   4.547992   2.378391   3.637070   5.216156
    25  H    4.497454   4.500591   3.115806   4.252409   5.575379
                   21         22         23         24         25
    21  H    0.000000
    22  H    2.515304   0.000000
    23  C    4.613160   5.337170   0.000000
    24  O    2.625740   4.531583   2.740413   0.000000
    25  H    3.488339   5.223222   2.236313   0.883014   0.000000
 Symmetry turned off by external request.
 Stoichiometry    C13H9NOS
 Framework group  C1[X(C13H9NOS)]
 Deg. of freedom    69
 Full point group                 C1      NOp   1
 Rotational constants (GHZ):           1.3911624           0.2863223           0.2374513
 Leave Link  202 at Mon Jul 13 16:38:35 2020, MaxMem=  7784628224 cpu:               0.3 elap:               0.0
 (Enter /gpfs/loomis/apps/avx/software/Gaussian/16-C.01_AVX/g16/l301.exe)
 Standard basis: CC-pVDZ (5D, 7F)
 Ernie: Thresh=  0.10000D-02 Tol=  0.10000D-05 Strict=F.
 Ernie:  40 primitive shells out of 425 were deleted.
   273 basis functions,   629 primitive gaussians,   289 cartesian basis functions
    59 alpha electrons       59 beta electrons
       nuclear repulsion energy      1099.7627531662 Hartrees.
 IExCor= 4639 DFT=T Ex+Corr=wB97XD ExCW=0 ScaHFX=  1.000000
 ScaDFX=  1.000000  1.000000  1.000000  1.000000 ScalE2=  1.000000  1.000000
 IRadAn=      5 IRanWt=     -1 IRanGd=            0 ICorTp=0 IEmpDi=121
 HFx  wShort=  0.000000 wLong=  0.200000 cFull=  0.222036 cShort=  0.000000 cLong=  0.777964
 DFx  wShort=  0.000000 wLong=  0.200000 cFull=  0.000000 cShort=  0.000000 cLong=  1.000000
 NAtoms=   25 NActive=   25 NUniq=   25 SFac= 1.00D+00 NAtFMM=   60 NAOKFM=F Big=F
 Integral buffers will be    131072 words long.
 Raffenetti 1 integral format.
 Two-electron integral symmetry is turned off.
 R6Disp:  Grimme-D2 Dispersion energy=       -0.0138691885 Hartrees.
 Nuclear repulsion after empirical dispersion term =     1099.7488839777 Hartrees.
 ------------------------------------------------------------------------------
 Polarizable Continuum Model (PCM)
 =================================
 Model                : PCM.
 Atomic radii         : UFF (Universal Force Field).
 Polarization charges : Total charges.
 Charge compensation  : None.
 Solution method      : On-the-fly selection.
 Cavity type          : Scaled VdW (van der Waals Surface) (Alpha=1.100).
 Cavity algorithm     : GePol (No added spheres)
                        Default sphere list used, NSphG=   25.
                        Lebedev-Laikov grids with approx.  5.0 points / Ang**2.
                        Smoothing algorithm: York/Karplus (Gamma=1.0000).
                        Polarization charges: spherical gaussians, with
                                              point-specific exponents (IZeta= 3).
                        Self-potential: point-specific (ISelfS= 7).
                        Self-field    : sphere-specific E.n sum rule (ISelfD= 2).
 1st derivatives      : Analytical E(r).r(x)/FMM algorithm (CHGder, D1EAlg=3).
                        Cavity 1st derivative terms included.
 Solvent              : CarbonTetraChloride, Eps=   2.228000 Eps(inf)=   2.131892
 ------------------------------------------------------------------------------
 GePol: Number of generator spheres                  =      25
 GePol: Total number of spheres                      =      25
 GePol: Number of exposed spheres                    =      25 (100.00%)
 GePol: Number of points                             =    2189
 GePol: Average weight of points                     =       0.12
 GePol: Minimum weight of points                     =   0.17D-10
 GePol: Maximum weight of points                     =    0.20577
 GePol: Number of points with low weight             =     147
 GePol: Fraction of low-weight points (<1% of avg)   =       6.72%
 GePol: Cavity surface area                          =    271.862 Ang**2
 GePol: Cavity volume                                =    291.934 Ang**3
 Leave Link  301 at Mon Jul 13 16:38:36 2020, MaxMem=  7784628224 cpu:               0.8 elap:               0.1
 (Enter /gpfs/loomis/apps/avx/software/Gaussian/16-C.01_AVX/g16/l302.exe)
 NPDir=0 NMtPBC=     1 NCelOv=     1 NCel=       1 NClECP=     1 NCelD=      1
         NCelK=      1 NCelE2=     1 NClLst=     1 CellRange=     0.0.
 One-electron integrals computed using PRISM.
 NBasis=   273 RedAO= T EigKep=  3.20D-04  NBF=   273
 NBsUse=   273 1.00D-06 EigRej= -1.00D+00 NBFU=   273
 Precomputing XC quadrature grid using
 IXCGrd= 4 IRadAn=           5 IRanWt=          -1 IRanGd=           0 AccXCQ= 0.00D+00.
 Generated NRdTot=       0 NPtTot=           0 NUsed=           0 NTot=          32
 NSgBfM=   288   288   288   288   288 MxSgAt=    25 MxSgA2=    25.
 Leave Link  302 at Mon Jul 13 16:38:36 2020, MaxMem=  7784628224 cpu:               2.6 elap:               0.3
 (Enter /gpfs/loomis/apps/avx/software/Gaussian/16-C.01_AVX/g16/l303.exe)
 DipDrv:  MaxL=1.
 Leave Link  303 at Mon Jul 13 16:38:36 2020, MaxMem=  7784628224 cpu:               0.5 elap:               0.1
 (Enter /gpfs/loomis/apps/avx/software/Gaussian/16-C.01_AVX/g16/l308.exe)
 Leave Link  308 at Mon Jul 13 16:38:36 2020, MaxMem=  7784628224 cpu:               0.8 elap:               0.1
 (Enter /gpfs/loomis/apps/avx/software/Gaussian/16-C.01_AVX/g16/l401.exe)
 ExpMin= 1.22D-01 ExpMax= 1.11D+05 ExpMxC= 1.07D+03 IAcc=3 IRadAn=         5 AccDes= 0.00D+00
 Harris functional with IExCor= 4639 and IRadAn=       5 diagonalized for initial guess.
 HarFok:  IExCor= 4639 AccDes= 0.00D+00 IRadAn=         5 IDoV= 1 UseB2=F ITyADJ=14
 ICtDFT=  3500011 ScaDFX=  1.000000  1.000000  1.000000  1.000000
 FoFCou: FMM=F IPFlag=           0 FMFlag=      100000 FMFlg1=           0
         NFxFlg=           0 DoJE=T BraDBF=F KetDBF=T FulRan=T
         wScrn=  0.000000 ICntrl=       500 IOpCl=  0 I1Cent=   200000004 NGrid=           0
         NMat0=    1 NMatS0=      1 NMatT0=    0 NMatD0=    1 NMtDS0=    0 NMtDT0=    0
 Symmetry not used in FoFCou.
 Harris En= -994.429569776638    
 JPrj=0 DoOrth=F DoCkMO=F.
 Leave Link  401 at Mon Jul 13 16:38:37 2020, MaxMem=  7784628224 cpu:              13.5 elap:               1.4
 (Enter /gpfs/loomis/apps/avx/software/Gaussian/16-C.01_AVX/g16/l502.exe)
 Two-electron integral symmetry not used.
 Closed shell SCF:
 Using DIIS extrapolation, IDIIS=  1040.
 NGot=  7784628224 LenX=  7784455381 LenY=  7784371419
 Requested convergence on RMS density matrix=1.00D-08 within 128 cycles.
 Requested convergence on MAX density matrix=1.00D-06.
 Requested convergence on             energy=1.00D-06.
 No special actions if energy rises.
 Fock matrices will be formed incrementally for  20 cycles.

 Cycle   1  Pass 1  IDiag  1:
 FoFJK:  IHMeth= 1 ICntrl=       0 DoSepK=T KAlg= 0 I1Cent=           0 FoldK=F
 IRaf=         1 NMat=       1 IRICut=       1 DoRegI=T DoRafI=F ISym2E= 0 IDoP0=0 IntGTp=1.
 FoFCou: FMM=F IPFlag=           0 FMFlag=      100000 FMFlg1=           0
         NFxFlg=           0 DoJE=T BraDBF=F KetDBF=F FulRan=T
         wScrn=  0.000000 ICntrl=       500 IOpCl=  0 I1Cent=           0 NGrid=           0
         NMat0=    1 NMatS0=      1 NMatT0=    0 NMatD0=    1 NMtDS0=    0 NMtDT0=    0
 Symmetry not used in FoFCou.
 Inv3:  Mode=1 IEnd=    14375163.
 Iteration    1 A*A^-1 deviation from unit magnitude is 6.44D-15 for   2167.
 Iteration    1 A*A^-1 deviation from orthogonality  is 2.33D-15 for   2179   2089.
 Iteration    1 A^-1*A deviation from unit magnitude is 6.22D-15 for   2167.
 Iteration    1 A^-1*A deviation from orthogonality  is 2.92D-15 for   1115    640.
 E= -1028.58588698744    
 DIIS: error= 2.63D-02 at cycle   1 NSaved=   1.
 NSaved= 1 IEnMin= 1 EnMin= -1028.58588698744     IErMin= 1 ErrMin= 2.63D-02
 ErrMax= 2.63D-02  0.00D+00 EMaxC= 1.00D-01 BMatC= 3.77D-01 BMatP= 3.77D-01
 IDIUse=3 WtCom= 7.37D-01 WtEn= 2.63D-01
 Coeff-Com:  0.100D+01
 Coeff-En:   0.100D+01
 Coeff:      0.100D+01
 Gap=     0.357 Goal=   None    Shift=    0.000
 GapD=    0.357 DampG=1.000 DampE=0.500 DampFc=0.5000 IDamp=-1.
 Damping current iteration by 5.00D-01
 RMSDP=3.42D-03 MaxDP=2.22D-01              OVMax= 1.71D-01

 Cycle   2  Pass 1  IDiag  1:
 RMSU=  1.71D-03    CP:  9.93D-01
 E= -1028.69679806527     Delta-E=       -0.110911077835 Rises=F Damp=T
 DIIS: error= 1.20D-02 at cycle   2 NSaved=   2.
 NSaved= 2 IEnMin= 2 EnMin= -1028.69679806527     IErMin= 2 ErrMin= 1.20D-02
 ErrMax= 1.20D-02  0.00D+00 EMaxC= 1.00D-01 BMatC= 5.70D-02 BMatP= 3.77D-01
 IDIUse=3 WtCom= 8.80D-01 WtEn= 1.20D-01
 Coeff-Com: -0.323D+00 0.132D+01
 Coeff-En:   0.000D+00 0.100D+01
 Coeff:     -0.285D+00 0.128D+01
 Gap=     0.306 Goal=   None    Shift=    0.000
 RMSDP=1.11D-03 MaxDP=2.15D-02 DE=-1.11D-01 OVMax= 1.12D-01

 Cycle   3  Pass 1  IDiag  1:
 RMSU=  1.05D-03    CP:  9.91D-01  1.22D+00
 E= -1028.79419489613     Delta-E=       -0.097396830852 Rises=F Damp=F
 DIIS: error= 5.52D-03 at cycle   3 NSaved=   3.
 NSaved= 3 IEnMin= 3 EnMin= -1028.79419489613     IErMin= 3 ErrMin= 5.52D-03
 ErrMax= 5.52D-03  0.00D+00 EMaxC= 1.00D-01 BMatC= 1.11D-02 BMatP= 5.70D-02
 IDIUse=3 WtCom= 9.45D-01 WtEn= 5.52D-02
 Coeff-Com: -0.202D+00 0.469D+00 0.733D+00
 Coeff-En:   0.000D+00 0.000D+00 0.100D+01
 Coeff:     -0.191D+00 0.443D+00 0.748D+00
 Gap=     0.265 Goal=   None    Shift=    0.000
 RMSDP=4.75D-04 MaxDP=1.48D-02 DE=-9.74D-02 OVMax= 3.73D-02

 Cycle   4  Pass 1  IDiag  1:
 RMSU=  3.56D-04    CP:  9.89D-01  1.38D+00  8.66D-01
 E= -1028.80514955150     Delta-E=       -0.010954655371 Rises=F Damp=F
 DIIS: error= 1.94D-03 at cycle   4 NSaved=   4.
 NSaved= 4 IEnMin= 4 EnMin= -1028.80514955150     IErMin= 4 ErrMin= 1.94D-03
 ErrMax= 1.94D-03  0.00D+00 EMaxC= 1.00D-01 BMatC= 1.34D-03 BMatP= 1.11D-02
 IDIUse=3 WtCom= 9.81D-01 WtEn= 1.94D-02
 Coeff-Com: -0.739D-01 0.146D+00 0.356D+00 0.572D+00
 Coeff-En:   0.000D+00 0.000D+00 0.000D+00 0.100D+01
 Coeff:     -0.725D-01 0.144D+00 0.349D+00 0.580D+00
 Gap=     0.264 Goal=   None    Shift=    0.000
 RMSDP=1.44D-04 MaxDP=7.36D-03 DE=-1.10D-02 OVMax= 1.05D-02

 Cycle   5  Pass 1  IDiag  1:
 RMSU=  9.70D-05    CP:  9.89D-01  1.39D+00  9.27D-01  7.62D-01
 E= -1028.80658477486     Delta-E=       -0.001435223367 Rises=F Damp=F
 DIIS: error= 4.14D-04 at cycle   5 NSaved=   5.
 NSaved= 5 IEnMin= 5 EnMin= -1028.80658477486     IErMin= 5 ErrMin= 4.14D-04
 ErrMax= 4.14D-04  0.00D+00 EMaxC= 1.00D-01 BMatC= 5.85D-05 BMatP= 1.34D-03
 IDIUse=3 WtCom= 9.96D-01 WtEn= 4.14D-03
 Coeff-Com: -0.366D-02 0.159D-02 0.483D-01 0.191D+00 0.763D+00
 Coeff-En:   0.000D+00 0.000D+00 0.000D+00 0.000D+00 0.100D+01
 Coeff:     -0.365D-02 0.158D-02 0.481D-01 0.190D+00 0.764D+00
 Gap=     0.264 Goal=   None    Shift=    0.000
 RMSDP=4.92D-05 MaxDP=1.60D-03 DE=-1.44D-03 OVMax= 4.45D-03

 Cycle   6  Pass 1  IDiag  1:
 RMSU=  3.34D-05    CP:  9.89D-01  1.39D+00  9.45D-01  8.47D-01  1.04D+00
 E= -1028.80668788222     Delta-E=       -0.000103107353 Rises=F Damp=F
 DIIS: error= 1.60D-04 at cycle   6 NSaved=   6.
 NSaved= 6 IEnMin= 6 EnMin= -1028.80668788222     IErMin= 6 ErrMin= 1.60D-04
 ErrMax= 1.60D-04  0.00D+00 EMaxC= 1.00D-01 BMatC= 9.06D-06 BMatP= 5.85D-05
 IDIUse=3 WtCom= 9.98D-01 WtEn= 1.60D-03
 Coeff-Com:  0.147D-01-0.306D-01-0.548D-01-0.447D-01 0.236D+00 0.879D+00
 Coeff-En:   0.000D+00 0.000D+00 0.000D+00 0.000D+00 0.000D+00 0.100D+01
 Coeff:      0.147D-01-0.305D-01-0.547D-01-0.447D-01 0.236D+00 0.879D+00
 Gap=     0.265 Goal=   None    Shift=    0.000
 RMSDP=2.87D-05 MaxDP=1.50D-03 DE=-1.03D-04 OVMax= 2.38D-03

 Cycle   7  Pass 1  IDiag  1:
 RMSU=  1.58D-05    CP:  9.89D-01  1.39D+00  9.56D-01  8.82D-01  1.20D+00
                    CP:  1.15D+00
 E= -1028.80671288913     Delta-E=       -0.000025006917 Rises=F Damp=F
 DIIS: error= 8.26D-05 at cycle   7 NSaved=   7.
 NSaved= 7 IEnMin= 7 EnMin= -1028.80671288913     IErMin= 7 ErrMin= 8.26D-05
 ErrMax= 8.26D-05  0.00D+00 EMaxC= 1.00D-01 BMatC= 1.99D-06 BMatP= 9.06D-06
 IDIUse=1 WtCom= 1.00D+00 WtEn= 0.00D+00
 Coeff-Com:  0.687D-02-0.132D-01-0.304D-01-0.464D-01-0.176D-01 0.375D+00
 Coeff-Com:  0.726D+00
 Coeff:      0.687D-02-0.132D-01-0.304D-01-0.464D-01-0.176D-01 0.375D+00
 Coeff:      0.726D+00
 Gap=     0.265 Goal=   None    Shift=    0.000
 RMSDP=1.01D-05 MaxDP=5.10D-04 DE=-2.50D-05 OVMax= 1.11D-03

 Cycle   8  Pass 1  IDiag  1:
 RMSU=  6.08D-06    CP:  9.89D-01  1.39D+00  9.58D-01  8.89D-01  1.24D+00
                    CP:  1.33D+00  1.10D+00
 E= -1028.80671681718     Delta-E=       -0.000003928046 Rises=F Damp=F
 DIIS: error= 2.76D-05 at cycle   8 NSaved=   8.
 NSaved= 8 IEnMin= 8 EnMin= -1028.80671681718     IErMin= 8 ErrMin= 2.76D-05
 ErrMax= 2.76D-05  0.00D+00 EMaxC= 1.00D-01 BMatC= 1.91D-07 BMatP= 1.99D-06
 IDIUse=1 WtCom= 1.00D+00 WtEn= 0.00D+00
 Coeff-Com: -0.109D-02 0.244D-02 0.297D-02-0.841D-03-0.393D-01-0.539D-01
 Coeff-Com:  0.185D+00 0.905D+00
 Coeff:     -0.109D-02 0.244D-02 0.297D-02-0.841D-03-0.393D-01-0.539D-01
 Coeff:      0.185D+00 0.905D+00
 Gap=     0.265 Goal=   None    Shift=    0.000
 RMSDP=4.23D-06 MaxDP=1.33D-04 DE=-3.93D-06 OVMax= 5.71D-04

 Cycle   9  Pass 1  IDiag  1:
 RMSU=  1.99D-06    CP:  9.89D-01  1.39D+00  9.58D-01  8.89D-01  1.25D+00
                    CP:  1.39D+00  1.28D+00  1.13D+00
 E= -1028.80671737924     Delta-E=       -0.000000562057 Rises=F Damp=F
 DIIS: error= 1.41D-05 at cycle   9 NSaved=   9.
 NSaved= 9 IEnMin= 9 EnMin= -1028.80671737924     IErMin= 9 ErrMin= 1.41D-05
 ErrMax= 1.41D-05  0.00D+00 EMaxC= 1.00D-01 BMatC= 4.08D-08 BMatP= 1.91D-07
 IDIUse=1 WtCom= 1.00D+00 WtEn= 0.00D+00
 Coeff-Com: -0.120D-02 0.241D-02 0.462D-02 0.551D-02-0.134D-01-0.683D-01
 Coeff-Com: -0.108D-01 0.350D+00 0.732D+00
 Coeff:     -0.120D-02 0.241D-02 0.462D-02 0.551D-02-0.134D-01-0.683D-01
 Coeff:     -0.108D-01 0.350D+00 0.732D+00
 Gap=     0.265 Goal=   None    Shift=    0.000
 RMSDP=1.61D-06 MaxDP=5.38D-05 DE=-5.62D-07 OVMax= 1.49D-04

 Cycle  10  Pass 1  IDiag  1:
 RMSU=  8.97D-07    CP:  9.89D-01  1.39D+00  9.58D-01  8.89D-01  1.25D+00
                    CP:  1.40D+00  1.33D+00  1.28D+00  1.08D+00
 E= -1028.80671747402     Delta-E=       -0.000000094786 Rises=F Damp=F
 DIIS: error= 7.20D-06 at cycle  10 NSaved=  10.
 NSaved=10 IEnMin=10 EnMin= -1028.80671747402     IErMin=10 ErrMin= 7.20D-06
 ErrMax= 7.20D-06  0.00D+00 EMaxC= 1.00D-01 BMatC= 7.39D-09 BMatP= 4.08D-08
 IDIUse=1 WtCom= 1.00D+00 WtEn= 0.00D+00
 Coeff-Com: -0.230D-03 0.422D-03 0.111D-02 0.242D-02 0.231D-02-0.199D-01
 Coeff-Com: -0.391D-01-0.390D-01 0.273D+00 0.819D+00
 Coeff:     -0.230D-03 0.422D-03 0.111D-02 0.242D-02 0.231D-02-0.199D-01
 Coeff:     -0.391D-01-0.390D-01 0.273D+00 0.819D+00
 Gap=     0.265 Goal=   None    Shift=    0.000
 RMSDP=8.78D-07 MaxDP=2.81D-05 DE=-9.48D-08 OVMax= 1.36D-04

 Cycle  11  Pass 1  IDiag  1:
 RMSU=  4.14D-07    CP:  9.89D-01  1.39D+00  9.58D-01  8.89D-01  1.25D+00
                    CP:  1.41D+00  1.36D+00  1.33D+00  1.31D+00  1.12D+00
 E= -1028.80671749953     Delta-E=       -0.000000025510 Rises=F Damp=F
 DIIS: error= 3.32D-06 at cycle  11 NSaved=  11.
 NSaved=11 IEnMin=11 EnMin= -1028.80671749953     IErMin=11 ErrMin= 3.32D-06
 ErrMax= 3.32D-06  0.00D+00 EMaxC= 1.00D-01 BMatC= 1.60D-09 BMatP= 7.39D-09
 IDIUse=1 WtCom= 1.00D+00 WtEn= 0.00D+00
 Coeff-Com:  0.144D-03-0.302D-03-0.490D-03-0.992D-04 0.322D-02 0.407D-02
 Coeff-Com: -0.729D-02-0.644D-01-0.598D-01 0.288D+00 0.837D+00
 Coeff:      0.144D-03-0.302D-03-0.490D-03-0.992D-04 0.322D-02 0.407D-02
 Coeff:     -0.729D-02-0.644D-01-0.598D-01 0.288D+00 0.837D+00
 Gap=     0.265 Goal=   None    Shift=    0.000
 RMSDP=3.77D-07 MaxDP=8.63D-06 DE=-2.55D-08 OVMax= 5.98D-05

 Cycle  12  Pass 1  IDiag  1:
 RMSU=  1.57D-07    CP:  9.89D-01  1.39D+00  9.58D-01  8.89D-01  1.25D+00
                    CP:  1.41D+00  1.36D+00  1.35D+00  1.41D+00  1.36D+00
                    CP:  1.16D+00
 E= -1028.80671750485     Delta-E=       -0.000000005318 Rises=F Damp=F
 DIIS: error= 9.37D-07 at cycle  12 NSaved=  12.
 NSaved=12 IEnMin=12 EnMin= -1028.80671750485     IErMin=12 ErrMin= 9.37D-07
 ErrMax= 9.37D-07  0.00D+00 EMaxC= 1.00D-01 BMatC= 2.56D-10 BMatP= 1.60D-09
 IDIUse=1 WtCom= 1.00D+00 WtEn= 0.00D+00
 Coeff-Com:  0.986D-04-0.193D-03-0.429D-03-0.603D-03 0.686D-03 0.564D-02
 Coeff-Com:  0.751D-02-0.975D-02-0.995D-01-0.980D-01 0.198D+00 0.997D+00
 Coeff:      0.986D-04-0.193D-03-0.429D-03-0.603D-03 0.686D-03 0.564D-02
 Coeff:      0.751D-02-0.975D-02-0.995D-01-0.980D-01 0.198D+00 0.997D+00
 Gap=     0.265 Goal=   None    Shift=    0.000
 RMSDP=2.31D-07 MaxDP=5.32D-06 DE=-5.32D-09 OVMax= 3.60D-05

 Cycle  13  Pass 1  IDiag  1:
 RMSU=  6.59D-08    CP:  9.89D-01  1.39D+00  9.58D-01  8.89D-01  1.25D+00
                    CP:  1.41D+00  1.36D+00  1.36D+00  1.46D+00  1.51D+00
                    CP:  1.44D+00  1.31D+00
 E= -1028.80671750617     Delta-E=       -0.000000001318 Rises=F Damp=F
 DIIS: error= 3.37D-07 at cycle  13 NSaved=  13.
 NSaved=13 IEnMin=13 EnMin= -1028.80671750617     IErMin=13 ErrMin= 3.37D-07
 ErrMax= 3.37D-07  0.00D+00 EMaxC= 1.00D-01 BMatC= 3.03D-11 BMatP= 2.56D-10
 IDIUse=1 WtCom= 1.00D+00 WtEn= 0.00D+00
 Coeff-Com: -0.214D-05 0.678D-05-0.156D-04-0.108D-03-0.206D-03 0.558D-03
 Coeff-Com:  0.301D-02 0.829D-02-0.144D-01-0.561D-01-0.955D-01 0.225D+00
 Coeff-Com:  0.929D+00
 Coeff:     -0.214D-05 0.678D-05-0.156D-04-0.108D-03-0.206D-03 0.558D-03
 Coeff:      0.301D-02 0.829D-02-0.144D-01-0.561D-01-0.955D-01 0.225D+00
 Coeff:      0.929D+00
 Gap=     0.265 Goal=   None    Shift=    0.000
 RMSDP=6.58D-08 MaxDP=1.44D-06 DE=-1.32D-09 OVMax= 9.35D-06

 Cycle  14  Pass 1  IDiag  1:
 RMSU=  2.52D-08    CP:  9.89D-01  1.39D+00  9.58D-01  8.89D-01  1.25D+00
                    CP:  1.41D+00  1.36D+00  1.36D+00  1.47D+00  1.54D+00
                    CP:  1.51D+00  1.52D+00  1.21D+00
 E= -1028.80671750629     Delta-E=       -0.000000000125 Rises=F Damp=F
 DIIS: error= 1.11D-07 at cycle  14 NSaved=  14.
 NSaved=14 IEnMin=14 EnMin= -1028.80671750629     IErMin=14 ErrMin= 1.11D-07
 ErrMax= 1.11D-07  0.00D+00 EMaxC= 1.00D-01 BMatC= 4.38D-12 BMatP= 3.03D-11
 IDIUse=1 WtCom= 1.00D+00 WtEn= 0.00D+00
 Coeff-Com: -0.108D-04 0.220D-04 0.393D-04 0.239D-04-0.128D-03-0.405D-03
 Coeff-Com:  0.235D-03 0.360D-02 0.421D-02-0.705D-02-0.514D-01-0.204D-01
 Coeff-Com:  0.322D+00 0.750D+00
 Coeff:     -0.108D-04 0.220D-04 0.393D-04 0.239D-04-0.128D-03-0.405D-03
 Coeff:      0.235D-03 0.360D-02 0.421D-02-0.705D-02-0.514D-01-0.204D-01
 Coeff:      0.322D+00 0.750D+00
 Gap=     0.265 Goal=   None    Shift=    0.000
 RMSDP=1.57D-08 MaxDP=3.54D-07 DE=-1.25D-10 OVMax= 2.16D-06

 Cycle  15  Pass 1  IDiag  1:
 RMSU=  9.07D-09    CP:  9.89D-01  1.39D+00  9.58D-01  8.89D-01  1.25D+00
                    CP:  1.41D+00  1.36D+00  1.36D+00  1.48D+00  1.54D+00
                    CP:  1.53D+00  1.56D+00  1.34D+00  1.05D+00
 E= -1028.80671750631     Delta-E=       -0.000000000017 Rises=F Damp=F
 DIIS: error= 4.19D-08 at cycle  15 NSaved=  15.
 NSaved=15 IEnMin=15 EnMin= -1028.80671750631     IErMin=15 ErrMin= 4.19D-08
 ErrMax= 4.19D-08  0.00D+00 EMaxC= 1.00D-01 BMatC= 6.39D-13 BMatP= 4.38D-12
 IDIUse=1 WtCom= 1.00D+00 WtEn= 0.00D+00
 Coeff-Com: -0.266D-05 0.492D-05 0.150D-04 0.268D-04-0.623D-05-0.255D-03
 Coeff-Com: -0.546D-03-0.330D-03 0.415D-02 0.898D-02 0.757D-03-0.527D-01
 Coeff-Com: -0.761D-01 0.217D+00 0.899D+00
 Coeff:     -0.266D-05 0.492D-05 0.150D-04 0.268D-04-0.623D-05-0.255D-03
 Coeff:     -0.546D-03-0.330D-03 0.415D-02 0.898D-02 0.757D-03-0.527D-01
 Coeff:     -0.761D-01 0.217D+00 0.899D+00
 Gap=     0.265 Goal=   None    Shift=    0.000
 RMSDP=8.10D-09 MaxDP=1.76D-07 DE=-1.68D-11 OVMax= 9.09D-07

 Error on total polarization charges =  0.00825
 SCF Done:  E(RwB97XD) =  -1028.80671751     A.U. after   15 cycles
            NFock= 15  Conv=0.81D-08     -V/T= 2.0047
 KE= 1.023962264500D+03 PE=-4.611813924977D+03 EE= 1.459296058993D+03
 Leave Link  502 at Mon Jul 13 16:40:00 2020, MaxMem=  7784628224 cpu:             816.1 elap:              82.6
 (Enter /gpfs/loomis/apps/avx/software/Gaussian/16-C.01_AVX/g16/l801.exe)
 DoSCS=F DFT=T ScalE2(SS,OS)=  1.000000  1.000000
 ExpMin= 1.22D-01 ExpMax= 1.11D+05 ExpMxC= 1.07D+03 IAcc=3 IRadAn=         5 AccDes= 0.00D+00
 HarFok:  IExCor=  205 AccDes= 0.00D+00 IRadAn=         5 IDoV=-2 UseB2=F ITyADJ=14
 ICtDFT= 12500011 ScaDFX=  1.000000  1.000000  1.000000  1.000000
 Largest valence mixing into a core orbital is  9.46D-05
 Largest core mixing into a valence orbital is  3.40D-05
 Range of M.O.s used for correlation:    21   273
 NBasis=   273 NAE=    59 NBE=    59 NFC=    20 NFV=     0
 NROrb=    253 NOA=    39 NOB=    39 NVA=   214 NVB=   214

 **** Warning!!: The largest alpha MO coefficient is  0.10715555D+02

 Leave Link  801 at Mon Jul 13 16:40:00 2020, MaxMem=  7784628224 cpu:               1.1 elap:               0.1
 (Enter /gpfs/loomis/apps/avx/software/Gaussian/16-C.01_AVX/g16/l914.exe)
 RHF ground state
 Keep R1, R2, and R3 ints in memory in canonical form, NReq=4262515490.
 FoFCou: FMM=F IPFlag=           0 FMFlag=           0 FMFlg1=           0
         NFxFlg=           0 DoJE=F BraDBF=F KetDBF=F FulRan=T
         wScrn=  0.000000 ICntrl=       600 IOpCl=  0 I1Cent=           0 NGrid=           0
         NMat0=    1 NMatS0=  37401 NMatT0=    0 NMatD0=    1 NMtDS0=    0 NMtDT0=    0
 Symmetry not used in FoFCou.
 Two-electron integral symmetry not used.
 MDV=  7784628224 DFT=T DoStab=F Mixed=T DoRPA=T DoScal=F NonHer=T
 NEqPCM:  Using equilibrium solvation (IEInf=0, Eps=   2.2280, EpsInf=   2.1319)
 Making orbital integer symmetry assigments:
    12 initial guesses have been made.
 Convergence on wavefunction:    0.000001000000000
 Davidson Disk Diagonalization:  ConvIn= 1.00D-06 SkipCon=T Conv= 1.00D-06.
 Max sub-space:  2000 roots to seek:    12 dimension of matrix:        16692
 Iteration     1 Dimension    12 NMult     0 NNew     12
 CISAX will form    12 AO SS matrices at one time.
 NMat=    12 NSing=    12 JSym2X= 0.
 New state      2 was old state      3
 New state      3 was old state      2
 Excitation Energies [eV] at current iteration:
 Root      1 :     4.091741963433413
 Root      2 :     4.976601005426474
 Root      3 :     5.056052668624455
 Root      4 :     5.330645336433089
 Root      5 :     6.034941132461302
 Root      6 :     6.193277246568215
 Root      7 :     6.321609690508863
 Root      8 :     6.539762144752685
 Root      9 :     6.926468464278011
 Root     10 :     7.189671468207438
 Root     11 :     7.524893065117146
 Root     12 :     7.630420950582539
 Iteration     2 Dimension    18 NMult    12 NNew      6
 CISAX will form     6 AO SS matrices at one time.
 NMat=     6 NSing=     6 JSym2X= 0.
 Root      1 not converged, maximum delta is    0.047185786259353
 Root      2 not converged, maximum delta is    0.350947572702027
 Root      3 not converged, maximum delta is    0.344038691944121
 Excitation Energies [eV] at current iteration:
 Root      1 :     3.605612525278298   Change is   -0.486129438155115
 Root      2 :     4.489690403430148   Change is   -0.486910601996325
 Root      3 :     4.626222965798720   Change is   -0.429829702825735
 Iteration     3 Dimension    24 NMult    18 NNew      6
 CISAX will form     6 AO SS matrices at one time.
 NMat=     6 NSing=     6 JSym2X= 0.
 Root      1 not converged, maximum delta is    0.024037905983291
 Root      2 not converged, maximum delta is    0.035261717438045
 Root      3 not converged, maximum delta is    0.028873463903550
 Excitation Energies [eV] at current iteration:
 Root      1 :     3.570847417297450   Change is   -0.034765107980848
 Root      2 :     4.445655770454502   Change is   -0.044034632975647
 Root      3 :     4.581220511939535   Change is   -0.045002453859185
 Iteration     4 Dimension    30 NMult    24 NNew      6
 CISAX will form     6 AO SS matrices at one time.
 NMat=     6 NSing=     6 JSym2X= 0.
 Root      1 not converged, maximum delta is    0.007642843209304
 Root      2 not converged, maximum delta is    0.011096584599780
 Root      3 not converged, maximum delta is    0.006094425199714
 Excitation Energies [eV] at current iteration:
 Root      1 :     3.567376897997551   Change is   -0.003470519299899
 Root      2 :     4.439587712620540   Change is   -0.006068057833963
 Root      3 :     4.576330293313622   Change is   -0.004890218625913
 Iteration     5 Dimension    36 NMult    30 NNew      6
 CISAX will form     6 AO SS matrices at one time.
 NMat=     6 NSing=     6 JSym2X= 0.
 Root      1 not converged, maximum delta is    0.002525078183464
 Root      2 not converged, maximum delta is    0.003015710601019
 Root      3 not converged, maximum delta is    0.003713981804060
 Excitation Energies [eV] at current iteration:
 Root      1 :     3.567037436428800   Change is   -0.000339461568751
 Root      2 :     4.439018300392167   Change is   -0.000569412228373
 Root      3 :     4.575627305232250   Change is   -0.000702988081372
 Iteration     6 Dimension    42 NMult    36 NNew      6
 CISAX will form     6 AO SS matrices at one time.
 NMat=     6 NSing=     6 JSym2X= 0.
 Root      1 not converged, maximum delta is    0.000535389508217
 Root      2 not converged, maximum delta is    0.000464755368753
 Root      3 not converged, maximum delta is    0.000887733166213
 Excitation Energies [eV] at current iteration:
 Root      1 :     3.567004677682939   Change is   -0.000032758745861
 Root      2 :     4.438980978954187   Change is   -0.000037321437980
 Root      3 :     4.575558175614651   Change is   -0.000069129617599
 Iteration     7 Dimension    48 NMult    42 NNew      6
 CISAX will form     6 AO SS matrices at one time.
 NMat=     6 NSing=     6 JSym2X= 0.
 Root      1 not converged, maximum delta is    0.000117414785920
 Root      2 not converged, maximum delta is    0.000208268110719
 Root      3 not converged, maximum delta is    0.000242174830450
 Excitation Energies [eV] at current iteration:
 Root      1 :     3.567002511044278   Change is   -0.000002166638661
 Root      2 :     4.438976872892714   Change is   -0.000004106061473
 Root      3 :     4.575553120250970   Change is   -0.000005055363681
 Iteration     8 Dimension    54 NMult    48 NNew      6
 CISAX will form     6 AO SS matrices at one time.
 NMat=     6 NSing=     6 JSym2X= 0.
 Root      1 not converged, maximum delta is    0.000021907474042
 Root      2 not converged, maximum delta is    0.000063746774722
 Root      3 not converged, maximum delta is    0.000074644574650
 Excitation Energies [eV] at current iteration:
 Root      1 :     3.567002388357469   Change is   -0.000000122686809
 Root      2 :     4.438976552924327   Change is   -0.000000319968387
 Root      3 :     4.575552661185558   Change is   -0.000000459065412
 Iteration     9 Dimension    60 NMult    54 NNew      6
 CISAX will form     6 AO SS matrices at one time.
 NMat=     6 NSing=     6 JSym2X= 0.
 Root      1 not converged, maximum delta is    0.000004568247020
 Root      2 not converged, maximum delta is    0.000018122424123
 Root      3 not converged, maximum delta is    0.000015256048000
 Excitation Energies [eV] at current iteration:
 Root      1 :     3.567002380246103   Change is   -0.000000008111366
 Root      2 :     4.438976525233342   Change is   -0.000000027690986
 Root      3 :     4.575552621717583   Change is   -0.000000039467975
 Iteration    10 Dimension    66 NMult    60 NNew      6
 CISAX will form     6 AO SS matrices at one time.
 NMat=     6 NSing=     6 JSym2X= 0.
 Root      1 has converged.
 Root      2 not converged, maximum delta is    0.000002693949955
 Root      3 not converged, maximum delta is    0.000003289726054
 Excitation Energies [eV] at current iteration:
 Root      1 :     3.567002379957189   Change is   -0.000000000288913
 Root      2 :     4.438976524163915   Change is   -0.000000001069426
 Root      3 :     4.575552619678885   Change is   -0.000000002038698
 Iteration    11 Dimension    70 NMult    66 NNew      4
 CISAX will form     4 AO SS matrices at one time.
 NMat=     4 NSing=     4 JSym2X= 0.
 Root      1 has converged.
 Root      2 has converged.
 Root      3 has converged.
 Excitation Energies [eV] at current iteration:
 Root      1 :     3.567002379953824   Change is   -0.000000000003365
 Root      2 :     4.438976524101968   Change is   -0.000000000061947
 Root      3 :     4.575552619597334   Change is   -0.000000000081551
 Convergence achieved on expansion vectors.
 ***********************************************************************
 Excited states from <AA,BB:AA,BB> singles matrix:
 ***********************************************************************
 
 1PDM for each excited state written to RWF  633
 Ground to excited state transition densities written to RWF  633
 Ground to excited state transition electric dipole moments (Au):
       state          X           Y           Z        Dip. S.      Osc.
         1        -1.8257      2.2695      0.0000      8.4838      0.7414
         2         1.2166     -0.3326     -0.0000      1.5908      0.1730
         3        -0.8201     -0.0882      0.0000      0.6804      0.0763
 Ground to excited state transition velocity dipole moments (Au):
       state          X           Y           Z        Dip. S.      Osc.
         1         0.2329     -0.2954     -0.0000      0.1415      0.7197
         2        -0.1947      0.0462      0.0000      0.0400      0.1636
         3         0.1369      0.0146     -0.0000      0.0190      0.0752
 Ground to excited state transition magnetic dipole moments (Au):
       state          X           Y           Z
         1        -0.0000     -0.0000      0.4242
         2         0.0000     -0.0000      1.2382
         3         0.0000     -0.0000      0.1628
 Ground to excited state transition velocity quadrupole moments (Au):
       state          XX          YY          ZZ          XY          XZ          YZ
         1        -0.0113     -0.4221      0.0113      0.2309      0.0000     -0.0000
         2         0.2783     -0.7784      0.0066      0.1725     -0.0000     -0.0000
         3         0.4955     -0.0454     -0.0270     -0.2988     -0.0000     -0.0000
 <0|del|b> * <b|rxdel|0> + <0|del|b> * <b|delr+rdel|0>
 Rotatory Strengths (R) in cgs (10**-40 erg-esu-cm/Gauss)
       state          XX          YY          ZZ    R(velocity)    E-M Angle
         1         0.0145     -0.0103      0.0189      0.0077       90.00
         2        -0.0003      0.0023     -0.0055     -0.0012       90.00
         3        -0.0001      0.0018      0.0024      0.0014       90.00
 1/2[<0|r|b>*<b|rxdel|0> + (<0|rxdel|b>*<b|r|0>)*]
 Rotatory Strengths (R) in cgs (10**-40 erg-esu-cm/Gauss)
       state          XX          YY          ZZ     R(length)
         1        -0.0029      0.0352     -0.0094      0.0077
         2        -0.0027     -0.0015      0.0014     -0.0009
         3         0.0048     -0.0006     -0.0002      0.0013
  1/2[<0|del|b>*<b|r|0> + (<0|r|b>*<b|del|0>)*] (Au)
       state          X           Y           Z        Dip. S.   Osc.(frdel)
         1        -0.4251     -0.6705     -0.0000      1.0956      0.7304
         2        -0.2368     -0.0154     -0.0000      0.2522      0.1681
         3        -0.1123     -0.0013     -0.0000      0.1136      0.0757

 Excitation energies and oscillator strengths:
 
 Excited state symmetry could not be determined.
 Excited State   1:      Singlet-?Sym    3.5670 eV  347.59 nm  f=0.7414  <S**2>=0.000
      59 -> 60         0.68708
 This state for optimization and/or second-order correction.
 Total Energy, E(TD-HF/TD-DFT) =  -1028.67563258    
 Copying the excited state density for this state as the 1-particle RhoCI density.
 
 Excited state symmetry could not be determined.
 Excited State   2:      Singlet-?Sym    4.4390 eV  279.31 nm  f=0.1730  <S**2>=0.000
      57 -> 60         0.48816
      58 -> 60        -0.43702
      59 -> 62        -0.17071
 
 Excited state symmetry could not be determined.
 Excited State   3:      Singlet-?Sym    4.5756 eV  270.97 nm  f=0.0763  <S**2>=0.000
      57 -> 60         0.41147
      58 -> 60         0.47350
      58 -> 63        -0.10462
      59 -> 61         0.21112
 SavETr:  write IOETrn=   770 NScale= 10 NData=  16 NLR=1 NState=    3 LETran=      64.
 The selected state is a singlet.
 CISGrd: IGrad=2 NXY=2 DFT=T
 CISAX will form     1 AO SS matrices at one time.
 NMat=     1 NSing=     1 JSym2X= 0.
 GePol: Maximum number of non-zero 1st derivatives   =     256
 Leave Link  914 at Mon Jul 13 16:42:37 2020, MaxMem=  7784628224 cpu:            1545.3 elap:             157.3
 (Enter /gpfs/loomis/apps/avx/software/Gaussian/16-C.01_AVX/g16/l1002.exe)
 Minotr:  Closed shell wavefunction.
          Computing CIS/TDA/TD derivatives.
          Using Z-Vector for PSCF gradient.
          Skipping F1 and S1 gradient terms here.
          IDoAtm=1111111111111111111111111
 NEqPCM:  Using equilibrium solvation (IEInf=0, Eps=   2.2280, EpsInf=   2.1319)
          Frozen-core window.
          Direct CPHF calculation.
          Differentiating once with respect to electric field.
                with respect to dipole field.
          Differentiating once with respect to nuclear coordinates.
          Requested convergence is 1.0D-10 RMS, and 1.0D-09 maximum.
          NewPWx=F KeepS1=T KeepF1=T KeepIn=T MapXYZ=F SortEE=F KeepMc=T.
 Keep R1 ints in memory in canonical form, NReq=1421479471.
 FoFCou: FMM=F IPFlag=           0 FMFlag=           0 FMFlg1=           0
         NFxFlg=           0 DoJE=F BraDBF=F KetDBF=F FulRan=T
         wScrn=  0.000000 ICntrl=       600 IOpCl=  0 I1Cent=           0 NGrid=           0
         NMat0=    1 NMatS0=  37401 NMatT0=    0 NMatD0=    1 NMtDS0=    0 NMtDT0=    0
 Symmetry not used in FoFCou.
 Two-electron integral symmetry not used.
          MDV=    7784628224 using IRadAn=       5.
          Solving linear equations separately, MaxMat=       0.
          There are     1 degrees of freedom in the 1st order CPHF.  IDoFFX=0 NUNeed=     1.
 LinEq1:  Iter=  0 NonCon=     1 RMS=3.68D-03 Max=1.49D-01 NDo=     1
 AX will form     1 AO Fock derivatives at one time.
 LinEq1:  Iter=  1 NonCon=     1 RMS=1.43D-03 Max=6.67D-02 NDo=     1
 LinEq1:  Iter=  2 NonCon=     1 RMS=8.03D-04 Max=2.83D-02 NDo=     1
 LinEq1:  Iter=  3 NonCon=     1 RMS=3.12D-04 Max=1.06D-02 NDo=     1
 LinEq1:  Iter=  4 NonCon=     1 RMS=1.68D-04 Max=7.63D-03 NDo=     1
 LinEq1:  Iter=  5 NonCon=     1 RMS=9.11D-05 Max=3.16D-03 NDo=     1
 LinEq1:  Iter=  6 NonCon=     1 RMS=3.89D-05 Max=1.22D-03 NDo=     1
 LinEq1:  Iter=  7 NonCon=     1 RMS=2.65D-05 Max=8.82D-04 NDo=     1
 LinEq1:  Iter=  8 NonCon=     1 RMS=9.31D-06 Max=2.94D-04 NDo=     1
 LinEq1:  Iter=  9 NonCon=     1 RMS=5.12D-06 Max=1.50D-04 NDo=     1
 LinEq1:  Iter= 10 NonCon=     1 RMS=1.79D-06 Max=6.56D-05 NDo=     1
 LinEq1:  Iter= 11 NonCon=     1 RMS=8.70D-07 Max=3.34D-05 NDo=     1
 LinEq1:  Iter= 12 NonCon=     1 RMS=4.26D-07 Max=1.18D-05 NDo=     1
 LinEq1:  Iter= 13 NonCon=     1 RMS=1.79D-07 Max=4.73D-06 NDo=     1
 LinEq1:  Iter= 14 NonCon=     1 RMS=7.97D-08 Max=2.86D-06 NDo=     1
 LinEq1:  Iter= 15 NonCon=     1 RMS=3.19D-08 Max=7.84D-07 NDo=     1
 LinEq1:  Iter= 16 NonCon=     1 RMS=1.33D-08 Max=3.42D-07 NDo=     1
 LinEq1:  Iter= 17 NonCon=     1 RMS=6.41D-09 Max=1.93D-07 NDo=     1
 LinEq1:  Iter= 18 NonCon=     1 RMS=2.46D-09 Max=8.78D-08 NDo=     1
 LinEq1:  Iter= 19 NonCon=     1 RMS=1.05D-09 Max=3.61D-08 NDo=     1
 LinEq1:  Iter= 20 NonCon=     1 RMS=6.00D-10 Max=1.53D-08 NDo=     1
 LinEq1:  Iter= 21 NonCon=     1 RMS=1.94D-10 Max=4.46D-09 NDo=     1
 LinEq1:  Iter= 22 NonCon=     1 RMS=8.78D-11 Max=1.97D-09 NDo=     1
 LinEq1:  Iter= 23 NonCon=     0 RMS=3.51D-11 Max=6.28D-10 NDo=     1
 Linear equations converged to 1.000D-10 1.000D-09 after    23 iterations.
 End of Minotr F.D. properties file   721 does not exist.
 End of Minotr F.D. properties file   722 does not exist.
 End of Minotr F.D. properties file   788 does not exist.
 Leave Link 1002 at Mon Jul 13 16:44:14 2020, MaxMem=  7784628224 cpu:             713.6 elap:              96.0
 (Enter /gpfs/loomis/apps/avx/software/Gaussian/16-C.01_AVX/g16/l601.exe)
 Copying SCF densities to generalized density rwf, IOpCl= 0 IROHF=0.

 **********************************************************************

            Population analysis using the SCF Density.

 **********************************************************************

 Alpha  occ. eigenvalues --  -89.08659 -19.28058 -14.46527 -10.39299 -10.38403
 Alpha  occ. eigenvalues --  -10.34917 -10.34422 -10.32488 -10.32419 -10.32254
 Alpha  occ. eigenvalues --  -10.31982 -10.31526 -10.31340 -10.31279 -10.30872
 Alpha  occ. eigenvalues --  -10.30757  -8.10699  -6.05534  -6.05195  -6.04767
 Alpha  occ. eigenvalues --   -1.19732  -1.08009  -0.96857  -0.95714  -0.91868
 Alpha  occ. eigenvalues --   -0.88769  -0.85346  -0.84598  -0.82488  -0.76335
 Alpha  occ. eigenvalues --   -0.71753  -0.70171  -0.69902  -0.68306  -0.64368
 Alpha  occ. eigenvalues --   -0.60349  -0.59249  -0.58578  -0.56060  -0.54632
 Alpha  occ. eigenvalues --   -0.53905  -0.53438  -0.52820  -0.50689  -0.50685
 Alpha  occ. eigenvalues --   -0.49257  -0.47816  -0.45964  -0.45691  -0.44847
 Alpha  occ. eigenvalues --   -0.43795  -0.43133  -0.42172  -0.39798  -0.37155
 Alpha  occ. eigenvalues --   -0.36434  -0.32032  -0.31579  -0.28236
 Alpha virt. eigenvalues --   -0.01737   0.05243   0.06838   0.07049   0.07913
 Alpha virt. eigenvalues --    0.11223   0.14316   0.15283   0.16770   0.18073
 Alpha virt. eigenvalues --    0.18586   0.21273   0.21746   0.22320   0.22806
 Alpha virt. eigenvalues --    0.23851   0.24019   0.24432   0.28307   0.30563
 Alpha virt. eigenvalues --    0.32344   0.33490   0.35003   0.36150   0.37203
 Alpha virt. eigenvalues --    0.37984   0.38766   0.40820   0.43606   0.45022
 Alpha virt. eigenvalues --    0.46861   0.48716   0.50903   0.51323   0.51586
 Alpha virt. eigenvalues --    0.52292   0.53490   0.54370   0.55108   0.55889
 Alpha virt. eigenvalues --    0.55968   0.56393   0.57306   0.57877   0.58180
 Alpha virt. eigenvalues --    0.58733   0.58894   0.59199   0.59734   0.60206
 Alpha virt. eigenvalues --    0.60719   0.60866   0.62234   0.62555   0.63504
 Alpha virt. eigenvalues --    0.64980   0.66095   0.66528   0.67860   0.69213
 Alpha virt. eigenvalues --    0.70941   0.71109   0.72509   0.72794   0.73286
 Alpha virt. eigenvalues --    0.73422   0.74381   0.75556   0.76055   0.78676
 Alpha virt. eigenvalues --    0.79008   0.79183   0.80320   0.81830   0.82141
 Alpha virt. eigenvalues --    0.84386   0.90242   0.90496   0.92622   0.94041
 Alpha virt. eigenvalues --    0.95123   0.95242   0.95731   0.97146   0.97282
 Alpha virt. eigenvalues --    0.98134   0.99048   1.00413   1.00780   1.02189
 Alpha virt. eigenvalues --    1.02523   1.05570   1.06554   1.07438   1.08193
 Alpha virt. eigenvalues --    1.08537   1.09014   1.09233   1.10805   1.11352
 Alpha virt. eigenvalues --    1.12346   1.12885   1.13752   1.14947   1.15729
 Alpha virt. eigenvalues --    1.16305   1.19815   1.20239   1.21919   1.22520
 Alpha virt. eigenvalues --    1.25203   1.29656   1.33119   1.34615   1.35518
 Alpha virt. eigenvalues --    1.35973   1.36814   1.38752   1.41806   1.45952
 Alpha virt. eigenvalues --    1.48279   1.48970   1.50992   1.52088   1.53524
 Alpha virt. eigenvalues --    1.55062   1.56271   1.56554   1.57178   1.57350
 Alpha virt. eigenvalues --    1.58504   1.59792   1.61989   1.65928   1.66794
 Alpha virt. eigenvalues --    1.68192   1.69241   1.69986   1.70189   1.71212
 Alpha virt. eigenvalues --    1.72587   1.72599   1.72744   1.73623   1.74763
 Alpha virt. eigenvalues --    1.75920   1.77339   1.79879   1.81234   1.82353
 Alpha virt. eigenvalues --    1.82797   1.83365   1.85005   1.85153   1.85280
 Alpha virt. eigenvalues --    1.86672   1.88289   1.88712   1.89546   1.92142
 Alpha virt. eigenvalues --    1.92424   1.93127   1.93536   1.94672   1.96359
 Alpha virt. eigenvalues --    2.00353   2.00484   2.03119   2.03498   2.04919
 Alpha virt. eigenvalues --    2.05280   2.08023   2.08827   2.11615   2.12361
 Alpha virt. eigenvalues --    2.16220   2.17797   2.20416   2.24411   2.24758
 Alpha virt. eigenvalues --    2.26244   2.28268   2.36705   2.38106   2.41598
 Alpha virt. eigenvalues --    2.41971   2.42065   2.46192   2.47160   2.47672
 Alpha virt. eigenvalues --    2.48103   2.50494   2.53250   2.54724   2.62565
 Alpha virt. eigenvalues --    2.63598   2.72525   2.74348   2.75713   2.80025
 Alpha virt. eigenvalues --    2.81614   2.84088   2.87071   2.90537   2.94039
 Alpha virt. eigenvalues --    3.01384   3.06161   3.14210   3.16418   3.31992
 Alpha virt. eigenvalues --    3.48611   3.56552   3.68918   4.06412
          Condensed to atoms (all electrons):
               1          2          3          4          5          6
     1  C    4.753518   0.454581   0.012587  -0.054617  -0.013910   0.521972
     2  C    0.454581   5.322257   0.337961  -0.031211  -0.067964  -0.006338
     3  C    0.012587   0.337961   4.765500   0.485145  -0.003822  -0.064295
     4  C   -0.054617  -0.031211   0.485145   4.781942   0.525147  -0.011605
     5  C   -0.013910  -0.067964  -0.003822   0.525147   4.738123   0.489152
     6  C    0.521972  -0.006338  -0.064295  -0.011605   0.489152   4.745461
     7  H    0.400455  -0.036872   0.008337  -0.000522   0.008038  -0.040052
     8  H   -0.001024   0.012338  -0.034513   0.393666  -0.043997   0.008047
     9  H    0.009113  -0.000821   0.008759  -0.039187   0.404575  -0.045964
    10  H   -0.042411   0.009573  -0.000520   0.008442  -0.043243   0.405830
    11  N    0.008489  -0.063936   0.496039  -0.040501   0.003155  -0.000116
    12  S   -0.070581   0.342307  -0.102177   0.007478   0.000240   0.003902
    13  C   -0.000198   0.003521   0.007274  -0.000612   0.000009   0.000004
    14  C   -0.000012   0.000053   0.000383   0.000007  -0.000000  -0.000000
    15  C    0.000007  -0.000112  -0.000896   0.000012  -0.000000   0.000000
    16  C    0.000000  -0.000005   0.000006  -0.000000   0.000000  -0.000000
    17  H   -0.000007   0.000139  -0.000001   0.000000   0.000000   0.000000
    18  C    0.000000   0.000007  -0.000031  -0.000000  -0.000000  -0.000000
    19  C   -0.000000   0.000000   0.000002   0.000000   0.000000   0.000000
    20  H   -0.000000  -0.000000  -0.000000   0.000000   0.000000  -0.000000
    21  H   -0.000000  -0.000000   0.000001   0.000000   0.000000   0.000000
    22  H    0.000000  -0.000000  -0.000000  -0.000000   0.000000  -0.000000
    23  C    0.004797  -0.055083  -0.129264  -0.000821   0.000294  -0.000197
    24  O    0.000001  -0.000020  -0.001855  -0.000049  -0.000000  -0.000000
    25  H   -0.000070   0.002181  -0.003738  -0.000491  -0.000012   0.000010
               7          8          9         10         11         12
     1  C    0.400455  -0.001024   0.009113  -0.042411   0.008489  -0.070581
     2  C   -0.036872   0.012338  -0.000821   0.009573  -0.063936   0.342307
     3  C    0.008337  -0.034513   0.008759  -0.000520   0.496039  -0.102177
     4  C   -0.000522   0.393666  -0.039187   0.008442  -0.040501   0.007478
     5  C    0.008038  -0.043997   0.404575  -0.043243   0.003155   0.000240
     6  C   -0.040052   0.008047  -0.045964   0.405830  -0.000116   0.003902
     7  H    0.662621   0.000035  -0.000159  -0.011546  -0.000109  -0.007535
     8  H    0.000035   0.661890  -0.012870  -0.000115  -0.001131  -0.000125
     9  H   -0.000159  -0.012870   0.669646  -0.012270  -0.000097   0.000020
    10  H   -0.011546  -0.000115  -0.012270   0.665902  -0.000000  -0.000166
    11  N   -0.000109  -0.001131  -0.000097  -0.000000   6.494529  -0.076397
    12  S   -0.007535  -0.000125   0.000020  -0.000166  -0.076397  15.496614
    13  C    0.000002   0.000036  -0.000000  -0.000000  -0.013248  -0.062694
    14  C    0.000001   0.000001   0.000000  -0.000000   0.003748  -0.010030
    15  C   -0.000000  -0.000028   0.000000   0.000000  -0.023584   0.005278
    16  C    0.000000   0.000000  -0.000000   0.000000  -0.000080   0.000166
    17  H    0.000002   0.000000  -0.000000  -0.000000   0.000217   0.008630
    18  C   -0.000000  -0.000000  -0.000000  -0.000000  -0.000582  -0.000173
    19  C    0.000000   0.000000  -0.000000  -0.000000   0.000038   0.000023
    20  H    0.000000  -0.000000   0.000000   0.000000   0.000001   0.000006
    21  H   -0.000000   0.000000  -0.000000   0.000000   0.000007   0.000003
    22  H    0.000000  -0.000000  -0.000000  -0.000000  -0.000000  -0.000000
    23  C    0.000111  -0.000968   0.000007   0.000004   0.535942   0.307751
    24  O   -0.000000  -0.000113   0.000000  -0.000000  -0.051598  -0.000167
    25  H    0.000001   0.001069  -0.000003   0.000000   0.079915   0.002929
              13         14         15         16         17         18
     1  C   -0.000198  -0.000012   0.000007   0.000000  -0.000007   0.000000
     2  C    0.003521   0.000053  -0.000112  -0.000005   0.000139   0.000007
     3  C    0.007274   0.000383  -0.000896   0.000006  -0.000001  -0.000031
     4  C   -0.000612   0.000007   0.000012  -0.000000   0.000000  -0.000000
     5  C    0.000009  -0.000000  -0.000000   0.000000   0.000000  -0.000000
     6  C    0.000004  -0.000000   0.000000  -0.000000   0.000000  -0.000000
     7  H    0.000002   0.000001  -0.000000   0.000000   0.000002  -0.000000
     8  H    0.000036   0.000001  -0.000028   0.000000   0.000000  -0.000000
     9  H   -0.000000   0.000000   0.000000  -0.000000  -0.000000  -0.000000
    10  H   -0.000000  -0.000000   0.000000   0.000000  -0.000000  -0.000000
    11  N   -0.013248   0.003748  -0.023584  -0.000080   0.000217  -0.000582
    12  S   -0.062694  -0.010030   0.005278   0.000166   0.008630  -0.000173
    13  C    5.311670   0.493373   0.274010  -0.010364  -0.035834  -0.061445
    14  C    0.493373   4.804267  -0.013523   0.531508   0.399431  -0.053625
    15  C    0.274010  -0.013523   4.832379  -0.059883   0.007183   0.489731
    16  C   -0.010364   0.531508  -0.059883   4.733371  -0.034014  -0.017364
    17  H   -0.035834   0.399431   0.007183  -0.034014   0.661526  -0.000655
    18  C   -0.061445  -0.053625   0.489731  -0.017364  -0.000655   4.818341
    19  C   -0.050423  -0.020216  -0.009156   0.494301   0.008099   0.516481
    20  H    0.008740  -0.035058  -0.000237   0.401686  -0.012317   0.008229
    21  H    0.012260  -0.000426  -0.024072   0.007047   0.000041   0.380332
    22  H   -0.001133   0.009380   0.009013  -0.043120  -0.000159  -0.042246
    23  C    0.323193  -0.087445  -0.073553   0.006985  -0.021964   0.007660
    24  O   -0.092377   0.003771   0.526644  -0.000007  -0.000055  -0.055211
    25  H   -0.039848  -0.001143  -0.004957  -0.000010   0.000012   0.006455
              19         20         21         22         23         24
     1  C   -0.000000  -0.000000  -0.000000   0.000000   0.004797   0.000001
     2  C    0.000000  -0.000000  -0.000000  -0.000000  -0.055083  -0.000020
     3  C    0.000002  -0.000000   0.000001  -0.000000  -0.129264  -0.001855
     4  C    0.000000   0.000000   0.000000  -0.000000  -0.000821  -0.000049
     5  C    0.000000   0.000000   0.000000   0.000000   0.000294  -0.000000
     6  C    0.000000  -0.000000   0.000000  -0.000000  -0.000197  -0.000000
     7  H    0.000000   0.000000  -0.000000   0.000000   0.000111  -0.000000
     8  H    0.000000  -0.000000   0.000000  -0.000000  -0.000968  -0.000113
     9  H   -0.000000   0.000000  -0.000000  -0.000000   0.000007   0.000000
    10  H   -0.000000   0.000000   0.000000  -0.000000   0.000004  -0.000000
    11  N    0.000038   0.000001   0.000007  -0.000000   0.535942  -0.051598
    12  S    0.000023   0.000006   0.000003  -0.000000   0.307751  -0.000167
    13  C   -0.050423   0.008740   0.012260  -0.001133   0.323193  -0.092377
    14  C   -0.020216  -0.035058  -0.000426   0.009380  -0.087445   0.003771
    15  C   -0.009156  -0.000237  -0.024072   0.009013  -0.073553   0.526644
    16  C    0.494301   0.401686   0.007047  -0.043120   0.006985  -0.000007
    17  H    0.008099  -0.012317   0.000041  -0.000159  -0.021964  -0.000055
    18  C    0.516481   0.008229   0.380332  -0.042246   0.007660  -0.055211
    19  C    4.721047  -0.046294  -0.043139   0.406744   0.000829   0.002524
    20  H   -0.046294   0.674153  -0.000138  -0.011810  -0.000364   0.000003
    21  H   -0.043139  -0.000138   0.655704  -0.011962  -0.000423   0.002092
    22  H    0.406744  -0.011810  -0.011962   0.660161  -0.000005  -0.000052
    23  C    0.000829  -0.000364  -0.000423  -0.000005   5.100928   0.000131
    24  O    0.002524   0.000003   0.002092  -0.000052   0.000131   7.348538
    25  H   -0.000083  -0.000001   0.000079   0.000007   0.002018   0.397190
              25
     1  C   -0.000070
     2  C    0.002181
     3  C   -0.003738
     4  C   -0.000491
     5  C   -0.000012
     6  C    0.000010
     7  H    0.000001
     8  H    0.001069
     9  H   -0.000003
    10  H    0.000000
    11  N    0.079915
    12  S    0.002929
    13  C   -0.039848
    14  C   -0.001143
    15  C   -0.004957
    16  C   -0.000010
    17  H    0.000012
    18  C    0.006455
    19  C   -0.000083
    20  H   -0.000001
    21  H    0.000079
    22  H    0.000007
    23  C    0.002018
    24  O    0.397190
    25  H    0.496731
 Mulliken charges:
               1
     1  C    0.017310
     2  C   -0.222556
     3  C    0.219118
     4  C   -0.022224
     5  C    0.004216
     6  C   -0.005814
     7  H    0.017194
     8  H    0.017803
     9  H    0.019250
    10  H    0.020520
    11  N   -0.350701
    12  S    0.154698
    13  C   -0.065917
    14  C   -0.024445
    15  C    0.065742
    16  C   -0.010221
    17  H    0.019726
    18  C    0.004097
    19  C    0.019221
    20  H    0.013402
    21  H    0.022594
    22  H    0.025184
    23  C    0.079435
    24  O   -0.079390
    25  H    0.061757
 Sum of Mulliken charges =  -0.00000
 Mulliken charges with hydrogens summed into heavy atoms:
               1
     1  C    0.034504
     2  C   -0.222556
     3  C    0.219118
     4  C   -0.004420
     5  C    0.023467
     6  C    0.014706
    11  N   -0.350701
    12  S    0.154698
    13  C   -0.065917
    14  C   -0.004719
    15  C    0.065742
    16  C    0.003181
    18  C    0.026691
    19  C    0.044405
    23  C    0.079435
    24  O   -0.017633
 Electronic spatial extent (au):  <R**2>=           4332.4870
 Charge=             -0.0000 electrons
 Dipole moment (field-independent basis, Debye):
    X=             -0.8173    Y=             -1.7687    Z=              0.0000  Tot=              1.9484
 Quadrupole moment (field-independent basis, Debye-Ang):
   XX=            -83.1480   YY=            -88.3164   ZZ=           -104.2532
   XY=             -7.2538   XZ=             -0.0001   YZ=              0.0000
 Traceless Quadrupole moment (field-independent basis, Debye-Ang):
   XX=              8.7578   YY=              3.5895   ZZ=            -12.3473
   XY=             -7.2538   XZ=             -0.0001   YZ=              0.0000
 Octapole moment (field-independent basis, Debye-Ang**2):
  XXX=              4.1946  YYY=            -13.3550  ZZZ=              0.0000  XYY=             -8.4035
  XXY=              5.2842  XXZ=              0.0002  XZZ=              0.8580  YZZ=              3.8896
  YYZ=              0.0003  XYZ=             -0.0005
 Hexadecapole moment (field-independent basis, Debye-Ang**3):
[...]
 0.,-0.00005567,-0.00009214,0.00000001,-0.00009667,0.00010002,0.,-0.000
 01722,-0.00002793,0.,0.01314728,-0.01068361,-0.00000007,0.00086264,-0.
 00404775,-0.00000007,0.04715325,0.03538476,0.00000006,0.08401097,-0.24
 975062,-0.00000322,-0.00172690,-0.01841384,-0.00000045,-0.00084870,0.6
 4662756,-0.00000003,0.,-0.00009979,-0.00000009,-0.00000007,-0.00015289
 ,-0.00000013,0.00000023,-0.00009953,0.00000013,-0.00000003,-0.00012917
 ,0.,0.00000007,-0.00005281,-0.00000001,-0.00000002,0.00003376,0.,0.,-0
 .00004363,0.,0.,-0.00005618,0.,0.,-0.00000806,0.,0.,0.00008722,0.00000
 025,-0.00000026,0.00192467,0.00000003,-0.00000008,0.00011280,0.0000011
 1,0.00000019,0.00311638,0.00000348,-0.00000442,-0.05240419,-0.00000010
 ,-0.00000032,-0.00359220,-0.00000765,0.00000680,0.13080893,0.00025155,
 -0.00010639,0.,-0.00114928,-0.00000780,-0.00000005,0.00012605,0.000483
 14,0.,0.00030352,0.00003565,0.,0.00011385,0.00027849,0.,-0.00017115,-0
 .00018729,0.,-0.00001444,0.00000760,0.,0.00002061,-0.00000605,0.,0.000
 00226,0.00000017,0.,0.00002990,-0.00000768,0.,0.00072214,0.00016780,-0
 .00000003,-0.00202704,0.00202995,0.00000007,-0.00425725,-0.02842184,-0
 .00000024,-0.08604740,-0.08607565,-0.00000012,-0.00580036,0.00228953,0
 .00000021,0.01041175,0.02122760,0.00000012,0.08910302,0.00012257,-0.00
 010634,0.,-0.00056689,0.00023267,0.,-0.00005962,0.00075455,0.00000002,
 0.00045103,-0.00005836,0.,0.00007216,0.00052683,0.,-0.00034795,-0.0002
 7318,0.,-0.00001127,0.00001770,0.,0.00001432,-0.00001586,0.,-0.0000101
 4,0.00000577,0.,0.00000281,0.00000390,0.,0.00078985,-0.00006164,0.,0.0
 0134494,-0.00156594,-0.00000001,0.00243596,-0.00262633,-0.00000004,-0.
 08612427,-0.31690437,-0.00000168,-0.00027186,0.00175522,-0.00000004,-0
 .01020120,-0.01757010,-0.00000005,0.08860284,0.33649873,-0.00000001,0.
 ,-0.00003603,-0.00000002,-0.00000002,-0.00038240,-0.00000004,0.0000000
 8,0.00011696,0.00000004,-0.00000002,0.00010013,0.,0.00000003,0.0000066
 7,-0.00000001,-0.00000001,0.00002258,0.,0.,0.00001006,0.,0.,0.00003109
 ,0.,0.,0.00000467,0.,0.,-0.00002348,0.00000008,-0.00000003,-0.00123038
 ,0.00000005,-0.00000006,0.00079618,0.00000026,0.00000030,0.00230447,-0
 .00000033,-0.00000143,-0.03012399,0.00000003,-0.00000006,0.00567433,-0
 .00000013,-0.00000065,0.00284893,-0.00000003,0.00000187,0.01998904,-0.
 00245145,0.00218636,-0.00000002,0.00211302,-0.00119676,0.00000006,-0.0
 0112637,0.00428510,0.00000022,0.00152981,-0.00004076,-0.00000004,-0.00
 052094,-0.00153730,-0.00000003,0.00352217,0.00022024,0.00000002,-0.000
 15204,0.00000970,0.,0.00017059,0.00005610,0.00000001,0.00015115,-0.000
 04504,0.,0.00010779,-0.00005078,0.,0.00663258,0.00578894,-0.00000030,-
 0.00198066,-0.00091464,-0.00000005,0.01376008,0.02390667,0.00000034,-0
 .01476579,0.02163916,0.00000063,-0.18903117,0.07921317,0.00000270,-0.0
 0816321,-0.05481241,-0.00000056,-0.00022982,0.00020037,0.,0.72227009,0
 .00014866,-0.00057990,-0.00000001,-0.00425277,-0.00349289,-0.00000009,
 -0.00273218,0.00721843,0.00000005,0.00308312,-0.00088953,0.00000004,0.
 00056259,0.00304947,0.00000004,-0.00157711,-0.00146012,-0.00000003,0.0
 0001657,0.00011566,0.,-0.00012137,-0.00007807,0.,-0.00006042,0.0000238
 9,0.,0.00000546,-0.00000258,0.,0.00904543,-0.00397273,0.00000009,0.001
 29777,-0.00519932,-0.00000002,0.02661283,-0.03505519,-0.00000080,-0.00
 746559,0.00259180,0.00000009,0.12069833,-0.25663352,-0.00000470,-0.032
 82615,-0.01553845,0.00000014,-0.00045287,0.00025668,-0.00000002,0.0382
 7066,0.73085603,0.00000001,-0.00000006,0.00025502,-0.00000025,-0.00000
 019,0.00077023,-0.00000017,0.00000034,0.00143787,0.00000018,-0.0000000
 3,-0.00040877,0.00000002,0.00000019,-0.00003300,-0.00000010,-0.0000001
 0,-0.00007447,0.,0.,0.00004878,0.,0.,0.00005634,0.,0.,0.00003966,0.,0.
 ,-0.00008348,0.00000026,-0.00000055,-0.00358749,0.00000008,-0.00000017
 ,-0.00025084,0.00000067,-0.00000090,0.01095447,-0.00000011,-0.00000015
 ,-0.00158036,0.00000277,-0.00000371,-0.06526130,-0.00000021,0.00000024
 ,0.00540788,-0.00000002,0.,-0.00063988,-0.00000770,0.00000757,0.111919
 36,0.00266384,-0.00124975,0.00000003,0.00220602,0.00420209,0.00000004,
 0.00705332,-0.01347910,-0.00000030,-0.00641446,0.00159487,-0.00000001,
 0.00026615,-0.00265315,-0.00000002,-0.00165136,0.00155603,0.00000001,0
 .00009713,-0.00005161,0.,-0.00003397,0.00001787,0.,-0.00009902,-0.0000
 0421,0.,-0.00006275,0.00006548,0.,-0.01636818,0.00568847,-0.00000001,0
 .00261141,0.00326616,0.00000006,-0.01340418,-0.02283255,-0.00000041,0.
 04433639,-0.00135809,-0.00000059,-0.04515825,0.03138863,0.00000127,-0.
 13806581,-0.02168588,0.00000058,-0.00280581,0.00444583,0.00000022,-0.3
 6463239,-0.07571999,0.00000265,0.72359103,0.00047663,-0.00098402,0.,-0
 .00519536,-0.00328155,-0.00000012,-0.00247965,0.00864577,0.00000002,0.
 00381085,-0.00120335,0.00000004,0.00052824,0.00419632,0.00000006,-0.00
 229933,-0.00243278,-0.00000004,0.00003833,0.00012062,0.,-0.00012498,-0
 .00014044,0.,-0.00007051,0.00002961,0.,-0.00004112,0.00002903,0.,0.009
 42138,-0.00332967,0.00000012,-0.00079471,-0.00348296,0.00000006,-0.010
 36028,-0.01553822,-0.00000006,0.02540458,-0.05803321,-0.00000132,0.012
 40936,0.03551185,0.00000036,-0.08310049,-0.29733621,-0.00000227,0.0031
 4632,-0.00101974,-0.00000011,-0.03374366,-0.13190532,-0.00000038,-0.03
 771740,0.68014120,-0.00000004,0.00000002,0.00012376,-0.00000005,-0.000
 00007,-0.00040736,-0.00000008,0.00000022,-0.00087125,0.00000010,-0.000
 00003,0.00008227,0.,0.00000006,0.00008209,0.00000001,-0.00000003,0.000
 00137,0.,0.,-0.00002863,0.,0.,-0.00010954,0.,0.,-0.00000163,0.,0.,0.00
 001551,0.00000027,-0.00000004,0.00117366,-0.00000005,-0.00000006,0.000
 51835,-0.00000010,0.00000021,-0.00416088,-0.00000008,-0.00000093,0.009
 05411,0.00000075,-0.00000024,0.00178327,-0.00000010,-0.00000290,-0.060
 50623,0.00000016,-0.00000009,0.00600265,0.00000298,-0.00000005,-0.0501
 1350,-0.00000761,0.00000790,0.11700353,0.00004389,-0.00008149,0.,-0.00
 009670,0.00007677,0.,0.00001240,-0.00009637,0.,-0.00000880,0.00002943,
 0.,0.00002428,0.00009010,0.,-0.00014609,0.00000827,0.,0.00000755,0.000
 00887,0.,-0.00000532,-0.00000731,0.,-0.00001381,0.00000685,0.,-0.00000
 840,0.00000591,0.,-0.00022410,0.00041622,0.,0.00007306,-0.00007218,0.,
 -0.00016227,0.00345591,0.00000012,-0.01481678,-0.00830165,0.00000019,0
 .00055653,0.00023614,-0.00000001,-0.33306832,-0.06206611,0.00000297,0.
 00079198,0.00005932,-0.00000006,0.00157505,-0.00139649,0.00000003,-0.0
 0438360,0.00188810,0.00000015,0.35028248,-0.00001763,0.00000462,0.,-0.
 00008555,-0.00013274,0.,-0.00002250,0.00027515,0.,0.00010791,-0.000070
 78,0.,0.00002108,0.00007864,0.,-0.00001397,-0.00003078,0.,0.00000091,0
 .00000039,0.,-0.00000161,-0.00000096,0.,0.00000049,-0.00000256,0.,0.00
 000148,-0.00000085,0.,0.00049034,-0.00042686,0.,0.00003271,-0.00003419
 ,0.,0.00356298,-0.00337659,-0.00000017,0.02264823,0.00892930,-0.000000
 29,0.00049879,-0.00124970,-0.00000001,-0.06269667,-0.07295751,0.000000
 37,-0.00016015,0.00082646,0.00000005,-0.00052711,-0.00548761,-0.000000
 13,-0.02964525,-0.00128563,0.00000028,0.06655335,0.07268751,0.,0.,-0.0
 0004868,0.,0.,0.00004517,0.,-0.00000001,0.00052274,0.,0.,0.00015476,0.
 ,0.,-0.00007644,0.,0.,0.00001988,0.,0.,0.00000670,0.,0.,0.00003978,0.,
 0.,-0.00003097,0.,0.,0.00000134,0.00000002,0.00000002,-0.00098555,-0.0
 0000001,0.,-0.00009799,0.00000015,-0.00000018,0.00733543,0.00000055,0.
 00000020,0.00638456,0.00000003,0.00000002,-0.00100962,0.00000299,0.000
 00038,-0.03834574,-0.00000006,0.00000002,-0.00420775,0.,-0.00000014,0.
 00475050,-0.00000028,-0.00000015,0.00520339,-0.00000333,-0.00000020,0.
 02398035,-0.00011690,0.00004889,0.,0.00012625,0.00006204,0.,-0.0001095
 7,0.00006428,0.,0.00003845,-0.00000093,0.,-0.00002577,-0.00004133,0.,0
 .00009846,0.00001505,0.,0.,-0.00000551,0.,-0.00000299,0.00000260,0.,0.
 00000352,-0.00000058,0.,-0.00000234,-0.00000191,0.,0.00023896,-0.00026
 640,0.00000003,-0.00030643,0.00018225,0.,-0.00399348,0.00279305,0.0000
 0015,0.00006372,0.00019584,0.,0.00889207,0.02204630,0.00000021,-0.0056
 7569,0.00030161,0.00000016,0.00013201,-0.00007723,0.,-0.08493622,-0.08
 706465,-0.00000034,-0.00226699,-0.02882562,-0.00000027,-0.00031134,-0.
 00141960,-0.00000002,0.08411755,0.00011371,0.00001094,0.,-0.00002653,0
 .00006664,0.,0.00017640,-0.00018555,0.,-0.00011047,0.00002002,0.,-0.00
 001999,-0.00010299,0.,0.00003439,0.00000141,0.,-0.00000658,-0.00000214
 ,0.,0.00001114,0.00000446,0.,0.00000971,-0.00000302,0.,0.00000799,-0.0
 0000255,0.,-0.00042831,0.00037872,-0.00000002,0.00022745,-0.00005350,0
 .,0.00371902,-0.00077668,-0.00000012,0.00032052,0.00020224,0.,-0.01129
 012,-0.01764861,-0.00000011,-0.00069699,0.00160921,-0.00000003,-0.0000
 5421,-0.00007875,0.,-0.08437172,-0.32175579,-0.00000239,0.00158719,-0.
 00099164,-0.00000006,0.00006656,-0.00014750,0.,0.09225703,0.33756663,0
 .00000001,0.,-0.00031047,0.00000002,0.00000002,-0.00005331,0.00000002,
 -0.00000005,0.00031936,-0.00000003,0.,-0.00000791,0.,-0.00000001,-0.00
 004920,0.,0.,0.00003282,0.,0.,-0.00000419,0.,0.,0.00004756,0.,0.,-0.00
 000215,0.,0.,0.00005629,-0.00000008,0.00000002,-0.00020949,0.,0.000000
 01,-0.00012119,0.00000016,-0.00000020,0.00453133,0.00000004,0.,-0.0006
 7143,-0.00000017,-0.00000038,0.00368041,0.00000012,0.,0.00686924,0.,0.
 ,-0.00065674,-0.00000016,-0.00000235,-0.03279819,0.,0.00000025,0.00325
 760,0.,0.00000002,-0.00015601,0.00000029,0.00000257,0.02301244,0.00001
 818,-0.00007320,0.,-0.00032703,-0.00013236,0.,-0.00012774,0.00052377,0
 .00000001,0.00026470,-0.00007836,0.,0.00004019,0.00028814,0.,-0.000173
 33,-0.00011318,0.,0.00000359,0.00001144,0.,-0.00000575,-0.00001127,0.,
 -0.00001094,0.00000530,0.,-0.00000490,0.00000339,0.,0.00061128,0.00001
 729,-0.00000002,-0.00002113,-0.00014186,0.,0.00050781,-0.00056942,0.,-
 0.00074932,-0.00220268,0.00000001,-0.00382556,-0.00305464,0.00000008,0
 .00959105,-0.00979692,-0.00000019,0.00031615,-0.00043121,0.,-0.0137652
 9,0.02345718,0.00000045,-0.19630538,0.14555647,0.00000385,0.00061695,0
 .00033831,-0.00000004,0.00108208,-0.00014924,-0.00000007,0.20432126,0.
 00008004,0.00004439,0.,0.00029213,0.00031822,0.,0.00045617,-0.00083846
 ,0.,-0.00042370,0.00013079,0.,-0.00002547,-0.00033951,0.,0.00012115,0.
 00012196,0.,-0.00000649,-0.00001043,0.,0.00001163,0.00000997,0.,0.0000
 0949,-0.00000551,0.,0.00000660,-0.00000180,0.,-0.00091473,0.00046768,-
 0.00000001,-0.00001883,0.00030267,0.,-0.00150625,0.00003484,0.00000003
 ,-0.00244683,-0.00436296,-0.00000007,-0.00195367,-0.00018333,-0.000000
 08,0.02248139,-0.01462673,-0.00000047,0.00105374,-0.00094467,-0.000000
 03,-0.00818801,0.00892402,0.00000012,0.14574618,-0.21074590,-0.0000040
 0,-0.00015266,0.00101714,0.00000004,0.00032159,0.00063663,0.00000006,-
 0.15507762,0.21993917,0.00000001,0.,0.00004598,0.00000002,0.00000003,0
 .00003466,0.00000002,-0.00000005,-0.00013018,-0.00000003,0.,0.00002576
 ,0.,-0.00000002,0.00001116,0.,0.00000001,-0.00000593,0.,0.,0.00000807,
 0.,0.,0.00002124,0.,0.,0.00000169,0.,0.,-0.00002795,-0.00000006,0.0000
 0006,0.00032328,0.,0.00000003,-0.00017726,-0.00000005,0.00000007,-0.00
 146568,-0.00000003,-0.00000005,0.00406894,0.00000012,-0.00000007,0.007
 11581,0.00000020,-0.00000020,0.00292597,0.00000003,-0.00000003,0.00080
 448,0.00000018,-0.00000015,0.00433659,0.00000385,-0.00000402,-0.032574
 02,-0.00000006,0.00000004,-0.00285602,-0.00000006,0.00000004,-0.004016
 08,-0.00000415,0.00000438,0.02204910,-0.01037114,-0.00212305,-0.000000
 08,-0.00795352,0.00879104,0.00000010,-0.09608061,0.06050406,-0.0000001
 4,0.02426279,-0.00682460,0.00000013,0.00004150,0.01440562,0.00000016,-
 0.00458646,-0.00195170,-0.00000009,0.00034303,-0.00044397,0.,-0.000484
 85,-0.00018284,0.,-0.00024552,0.00026214,0.,-0.00056944,-0.00008859,0.
 ,-0.28545636,-0.05049472,-0.00000247,-0.05202984,-0.03804883,-0.000000
 50,-0.20598345,0.13615404,0.00000240,-0.05454915,0.04118610,0.00000108
 ,0.00863930,0.00447505,0.,0.00310047,-0.01811462,-0.00000027,0.0000613
 6,-0.00048545,-0.00000007,-0.00180157,-0.01579733,-0.00000024,0.007330
 10,-0.00472572,-0.00000012,-0.00070665,0.00045600,0.00000002,0.0008654
 7,-0.00060094,0.00000003,-0.00052408,0.00080075,0.00000004,0.66848737,
 -0.00739637,0.00756106,0.00000011,0.04843604,-0.02436651,0.00000014,0.
 02746066,-0.01215360,-0.00000008,-0.00175063,-0.00540250,-0.00000013,-
 0.00132339,-0.00761860,-0.00000010,0.00993467,0.00312165,0.00000008,-0
 .00015678,-0.00089358,0.,0.00012456,0.00045449,0.,0.00046431,-0.000561
 06,0.00000001,0.00000419,-0.00003977,0.,-0.05572127,-0.09293794,-0.000
 00086,-0.02333388,-0.12341682,-0.00000126,0.11137158,-0.23342929,-0.00
 000299,0.01929603,0.01225110,0.00000003,0.03394069,-0.04453106,-0.0000
 0075,-0.00656434,-0.00184815,0.00000007,-0.00164295,0.00068580,0.00000
 005,-0.01668700,0.00543409,0.00000035,0.00706598,0.00853281,-0.0000000
 6,-0.00070096,0.00110110,0.00000003,0.00039734,-0.00060491,0.,0.000444
 61,-0.00011937,-0.00000003,-0.12848621,0.51537260,-0.00000015,0.000000
 09,0.00242769,0.00000048,-0.00000018,-0.00297349,-0.00000034,0.0000002
 8,0.00402416,0.00000011,-0.00000017,0.00562736,-0.00000004,-0.00000005
 ,0.00094476,0.00000011,0.,0.00099190,0.,0.,-0.00042140,0.,0.00000002,-
 0.00081789,0.00000001,0.,-0.00085684,0.,0.,-0.00034786,-0.00000189,-0.
 00000081,-0.03878870,-0.00000046,-0.00000146,-0.02074637,0.00000090,-0
 .00000206,-0.04129581,0.00000079,-0.00000004,0.00816552,0.00000065,-0.
 00000117,0.00676207,-0.00000003,-0.00000002,0.00182362,0.,0.,-0.000661
 11,-0.00000067,0.00000012,0.00019695,0.00000054,0.00000008,-0.00093064
 ,0.,0.00000002,-0.00060664,0.,-0.00000002,0.00127526,0.,0.,0.00018433,
 0.00000006,0.00000512,0.07593596,0.00211649,0.00213757,0.00000005,0.00
 925276,0.01171404,0.00000034,0.01838994,-0.01961123,-0.00000018,-0.010
 67499,0.00308228,-0.00000016,-0.00172704,-0.00996457,-0.00000013,0.004
 45976,0.00388894,0.00000007,-0.00028110,-0.00005747,0.,0.00053257,0.00
 017387,0.,0.00019698,-0.00004316,0.00000001,0.00007942,0.00003345,0.,-
 0.02119491,0.04592214,-0.00000144,0.00041904,0.01040136,0.00000001,-0.
 04951143,-0.01704937,0.00000077,0.02869718,-0.01128293,-0.00000034,-0.
 38097770,-0.09769828,0.00000550,-0.01161677,0.01460257,0.00000028,-0.0
 0029632,-0.00008293,0.00000005,-0.07060213,0.01210916,0.00000209,0.001
 95132,0.00667849,0.00000012,-0.00009322,-0.00010688,-0.00000003,0.0022
 6117,-0.00097956,-0.00000017,-0.00134406,-0.00069300,-0.00000002,0.008
 35508,-0.00941282,-0.00000042,0.56730669,-0.00074924,-0.00123085,-0.00
 000004,-0.00168674,-0.00525543,-0.00000020,-0.01342694,0.00261735,0.00
 000012,0.00253100,-0.00108069,0.00000008,0.00030842,0.00245035,0.00000
 004,-0.00098329,-0.00142948,-0.00000002,0.00016722,-0.00029064,0.,-0.0
 0001347,0.00012135,0.,0.00013696,-0.00008642,0.,0.00003404,-0.00007944
 ,0.,0.02225743,-0.05186934,0.00000129,0.00068691,-0.00256041,0.0000000
 4,-0.03734139,-0.00842832,0.00000009,-0.00383686,-0.00726538,-0.000000
 03,-0.06620723,-0.13643509,-0.00000135,-0.00001187,-0.00121900,0.00000
 004,-0.00198002,-0.00030148,0.00000002,0.04355733,0.01890911,-0.000000
 30,-0.00011411,-0.00853606,-0.00000002,-0.00005977,0.00041329,0.,-0.00
 137734,0.00216410,0.00000002,0.00156642,0.00064497,-0.00000004,0.00778
 066,0.00904942,0.00000017,-0.02781342,0.41125289,-0.00000007,-0.000000
 01,0.00038275,-0.00000003,-0.00000017,-0.00066013,-0.00000054,0.000000
 27,-0.00030654,0.00000016,-0.00000008,0.00028305,0.00000004,0.00000014
 ,0.00015719,-0.00000006,-0.00000001,0.00002339,0.,0.,-0.00003882,0.,0.
 ,-0.00014312,0.,0.,-0.00003196,0.,0.,-0.00008954,0.00000050,-0.0000007
 6,0.01069236,-0.00000007,-0.00000011,-0.00073508,0.00000057,0.00000013
 ,0.01458712,-0.00000039,0.00000008,0.00214018,0.00000728,-0.00000049,-
 0.04568463,0.00000019,-0.00000019,-0.00048978,-0.00000002,0.00000004,-
 0.00099369,0.00000236,0.00000024,0.00858491,0.00000009,-0.00000037,0.0
 0409672,0.,0.00000001,-0.00004612,-0.00000014,0.00000013,-0.00338910,0
 .00000010,0.00000003,0.00006709,-0.00000003,-0.00000007,-0.00268510,-0
 .00001604,0.00001295,0.04212530,-0.00102359,-0.00063419,-0.00000003,-0
 .00374252,-0.00418610,-0.00000013,-0.00769118,0.00999677,0.00000001,0.
 00444886,-0.00121057,0.00000008,0.00048650,0.00352561,0.00000005,-0.00
 128615,-0.00136164,-0.00000003,0.00010956,-0.00000483,0.,-0.00041175,-
 0.00005845,-0.00000001,-0.00001974,0.00000046,0.,-0.00001886,-0.000059
 31,0.,-0.00730675,-0.01628739,0.00000102,-0.00171402,-0.00509107,-0.00
 000009,0.00777360,0.00010361,-0.00000023,-0.00736350,0.00286935,0.0000
 0008,-0.05106623,0.03212786,0.00000258,0.00180190,-0.00337341,-0.00000
 007,0.00041271,0.00012803,0.,0.00232670,-0.00584083,-0.00000007,-0.000
 45455,0.00012006,0.00000008,0.00006121,-0.00001565,0.,-0.00017203,0.00
 020355,0.,-0.00018875,0.00002639,0.,-0.00014383,-0.00576409,0.00000034
 ,-0.09569873,0.07657532,0.00000608,0.16088115,0.00344729,0.00095105,0.
 00000011,0.00565894,0.01268731,0.00000038,0.02548676,-0.01759495,-0.00
 000058,-0.00981189,0.00384270,-0.00000014,-0.00138761,-0.00776201,-0.0
 0000011,0.00186157,0.00318284,0.00000005,-0.00027500,0.00027823,0.,0.0
 0031114,-0.00011075,0.,-0.00010485,0.00011636,0.00000001,-0.00005780,0
 .00014424,0.,-0.02936376,0.02539882,-0.00000193,0.00209793,0.01005487,
 0.00000013,-0.02055277,0.00105452,0.00000028,0.01839804,-0.00595385,-0
 .00000018,0.03024168,0.01970001,0.00000020,-0.00425878,0.00913926,0.00
 000014,-0.00021994,-0.00003754,0.00000004,-0.01721859,0.00467184,0.000
 00028,-0.00011371,0.00303948,-0.00000010,0.00003318,-0.00012934,-0.000
 00002,0.00039321,-0.00030738,0.00000002,-0.00038036,-0.00041376,0.,-0.
 00644693,-0.01564100,0.00000007,0.08405174,-0.22155479,-0.00001176,-0.
 08178949,0.17524382,0.00000001,-0.00000008,0.00009961,0.00000009,-0.00
 000004,0.00083665,-0.00000001,-0.00000062,-0.00204234,-0.00000018,0.00
 000005,-0.00046057,0.00000002,-0.00000010,-0.00006148,0.,0.00000005,-0
 .00003118,0.,-0.00000001,-0.00002850,-0.00000002,0.00000001,0.00006365
 ,0.,0.,0.00004485,0.,0.,0.00005198,0.00000042,0.00000114,-0.01152637,-
 0.00000007,-0.00000020,0.00077759,-0.00000028,-0.00000001,-0.00435306,
 -0.00000003,-0.00000005,0.00017993,0.00000012,-0.00000076,-0.00134204,
 0.00000007,0.,0.00002081,-0.00000002,-0.00000001,0.00024322,0.00000002
 ,-0.00000002,0.00607271,-0.00000009,-0.00000003,0.00130540,0.,0.,0.000
 02295,0.,0.,-0.00063684,-0.00000001,0.00000002,-0.00077102,0.,0.000000
 37,0.00277226,0.00000962,-0.00001284,-0.02784646,-0.00000966,0.0000131
 3,0.03660825\\-0.00040040,0.00014279,-0.00000004,0.00014311,0.00029652
 ,-0.00000017,0.00030938,0.00032179,0.00000050,0.00022559,-0.00031094,0
 .,-0.00014082,-0.00057473,-0.00000002,-0.00034813,-0.00033586,0.000000
 01,-0.00006260,0.00002552,0.00000002,0.00005871,-0.00004615,0.,-0.0000
 1234,-0.00006322,0.,-0.00005164,-0.00003736,0.,0.00029953,0.00045974,0
 .00000137,0.00033286,0.00140259,0.,0.00007001,0.00030527,-0.00000031,0
 .00042139,-0.00031951,0.00000018,0.00018857,0.00024838,0.00000091,-0.0
 0008083,-0.00035108,-0.00000015,0.00005291,-0.00003391,0.00000007,-0.0
 0035894,-0.00008583,-0.00000060,-0.00043413,-0.00049285,-0.00000007,0.
 00000540,-0.00007043,0.00000002,-0.00008812,0.00001964,0.00000004,-0.0
 0003112,-0.00003103,0.00000008,0.00002471,0.00006063,-0.00000054,-0.00
 031037,0.00010912,0.00000224,0.00018726,-0.00063907,-0.00000354\\\@
 The archive entry for this job was punched.


 THERE IS AN OLD, OLD RECIPE IN MAINE FOR STEWING COOT. PLACE THE
 BIRD IN A KETTLE OF WATER WITH A RED BUILDING BRICK FREE OF MORTAR AND
 BLEMISHES. PARBOIL THE COOT AND BRICK TOGETHER FOR THREE HOURS.
 POUR OFF THE WATER, REFILL THE KETTLE, AND AGAIN PARBOIL FOR THREE HOURS.
 ONCE AGAIN POUR OFF THE WATER, FOR THE LAST TIME ADD FRESH WATER,
 AND LET THE COOT AND BRICK SIMMER TOGETHER OVERNIGHT. IN THE MORNING,
 THROW AWAY THE COOT AND EAT THE BRICK.
 Job cpu time:       0 days  2 hours 50 minutes 28.2 seconds.
 Elapsed time:       0 days  0 hours 17 minutes 35.4 seconds.
 File lengths (MBytes):  RWF=   1376 Int=      0 D2E=      0 Chk=     48 Scr=      8
 Normal termination of Gaussian 16 at Mon Jul 13 17:31:24 2020.
