 Entering Gaussian System, Link 0=g16
 Initial command:
 /gpfs/loomis/apps/avx/software/Gaussian/16-C.01_AVX/g16/l1.exe "/home/fas/batista/pev4/scratch60/gauss-scratch/Gau-53541.inp" -scrdir="/home/fas/batista/pev4/scratch60/gauss-scratch/"
 Entering Link 1 = /gpfs/loomis/apps/avx/software/Gaussian/16-C.01_AVX/g16/l1.exe PID=     53542.
  
 Copyright (c) 1988-2019, Gaussian, Inc.  All Rights Reserved.
  
 This is part of the Gaussian(R) 16 program.  It is based on
 the Gaussian(R) 09 system (copyright 2009, Gaussian, Inc.),
 the Gaussian(R) 03 system (copyright 2003, Gaussian, Inc.),
 the Gaussian(R) 98 system (copyright 1998, Gaussian, Inc.),
 the Gaussian(R) 94 system (copyright 1995, Gaussian, Inc.),
 the Gaussian 92(TM) system (copyright 1992, Gaussian, Inc.),
 the Gaussian 90(TM) system (copyright 1990, Gaussian, Inc.),
 the Gaussian 88(TM) system (copyright 1988, Gaussian, Inc.),
 the Gaussian 86(TM) system (copyright 1986, Carnegie Mellon
 University), and the Gaussian 82(TM) system (copyright 1983,
 Carnegie Mellon University). Gaussian is a federally registered
 trademark of Gaussian, Inc.
  
 This software contains proprietary and confidential information,
 including trade secrets, belonging to Gaussian, Inc.
  
 This software is provided under written license and may be
 used, copied, transmitted, or stored only in accord with that
 written license.
  
 The following legend is applicable only to US Government
 contracts under FAR:
  
                    RESTRICTED RIGHTS LEGEND
  
 Use, reproduction and disclosure by the US Government is
 subject to restrictions as set forth in subparagraphs (a)
 and (c) of the Commercial Computer Software - Restricted
 Rights clause in FAR 52.227-19.
  
 Gaussian, Inc.
 340 Quinnipiac St., Bldg. 40, Wallingford CT 06492
  
  
 ---------------------------------------------------------------
 Warning -- This program may not be used in any manner that
 competes with the business of Gaussian, Inc. or will provide
 assistance to any competitor of Gaussian, Inc.  The licensee
 of this program is prohibited from giving any competitor of
 Gaussian, Inc. access to this program.  By using this program,
 the user acknowledges that Gaussian, Inc. is engaged in the
 business of creating and licensing software in the field of
 computational chemistry and represents and warrants to the
 licensee that it is not a competitor of Gaussian, Inc. and that
 it will not use this program in any manner prohibited above.
 ---------------------------------------------------------------
  

 Cite this work as:
 Gaussian 16, Revision C.01,
 M. J. Frisch, G. W. Trucks, H. B. Schlegel, G. E. Scuseria, 
 M. A. Robb, J. R. Cheeseman, G. Scalmani, V. Barone, 
 G. A. Petersson, H. Nakatsuji, X. Li, M. Caricato, A. V. Marenich, 
 J. Bloino, B. G. Janesko, R. Gomperts, B. Mennucci, H. P. Hratchian, 
 J. V. Ortiz, A. F. Izmaylov, J. L. Sonnenberg, D. Williams-Young, 
 F. Ding, F. Lipparini, F. Egidi, J. Goings, B. Peng, A. Petrone, 
 T. Henderson, D. Ranasinghe, V. G. Zakrzewski, J. Gao, N. Rega, 
 G. Zheng, W. Liang, M. Hada, M. Ehara, K. Toyota, R. Fukuda, 
 J. Hasegawa, M. Ishida, T. Nakajima, Y. Honda, O. Kitao, H. Nakai, 
 T. Vreven, K. Throssell, J. A. Montgomery, Jr., J. E. Peralta, 
 F. Ogliaro, M. J. Bearpark, J. J. Heyd, E. N. Brothers, K. N. Kudin, 
 V. N. Staroverov, T. A. Keith, R. Kobayashi, J. Normand, 
 K. Raghavachari, A. P. Rendell, J. C. Burant, S. S. Iyengar, 
 J. Tomasi, M. Cossi, J. M. Millam, M. Klene, C. Adamo, R. Cammi, 
 J. W. Ochterski, R. L. Martin, K. Morokuma, O. Farkas, 
 J. B. Foresman, and D. J. Fox, Gaussian, Inc., Wallingford CT, 2019.
 
 ******************************************
 Gaussian 16:  ES64L-G16RevC.01  3-Jul-2019
                13-Jul-2020 
 ******************************************
 %chk=config_7_7.chk
 %mem=58GB
 %nprocshared=10
 Will use up to   10 processors via shared memory.
 ----------------------------------------------------------------------
 #p opt=addgic freq td wb97xd/cc-pvdz nosymm int=ultrafine scrf=(solven
 t=CarbonTetraChloride)
 ----------------------------------------------------------------------
 1/18=20,19=15,26=6,38=1,145=903/1,3;
 2/9=110,12=2,15=1,17=6,18=5,40=1/2;
 3/5=16,11=9,25=1,30=1,70=2201,71=1,72=11,74=-58,75=-5/1,2,3,8;
 4//1;
 5/5=2,38=5,53=11/2;
 8/6=1,10=1/1;
 9/15=2,42=1,70=2/14;
 10/5=4,31=1/2;
 6/7=2,8=2,9=2,10=2/1;
 7/12=6,13=5,30=1/1,2,3,16;
 1/18=20,19=15,26=6,145=903/3(2);
 2/9=110,15=1/2;
 99//99;
 2/9=110,15=1/2;
 3/5=16,11=9,25=1,30=1,70=2205,71=1,72=11,74=-58,75=-5/1,2,3,8;
 4/5=5,16=3,69=1/1;
 5/5=2,38=5,53=11/2;
 8/6=1,10=1/1;
 9/15=2,42=1,49=4,70=2/14;
 10/5=4,31=1/2;
 7/12=6,13=5,30=1/1,2,3,16;
 1/18=20,19=15,26=6,145=903/3(-8);
 2/9=110,15=1/2;
 6/7=2,8=2,9=2,10=2/1;
 99/9=10/99;
 Leave Link    1 at Mon Jul 13 14:54:29 2020, MaxMem=  7784628224 cpu:               4.6 elap:               0.5
 (Enter /gpfs/loomis/apps/avx/software/Gaussian/16-C.01_AVX/g16/l101.exe)
 ------------------------------------------------
 NM 2D-scan of HBT TD-WB97XD pVDZ in CTC Relaxed.
 ------------------------------------------------
 Symbolic Z-matrix:
 Charge =  0 Multiplicity = 1
 C                     1.67685  -3.2646   -0.00002 
 C                     1.00191  -2.04623  -0.00002 
 C                     1.70802  -0.81072  -0.00002 
 C                     3.11605  -0.81631  -0.00002 
 C                     3.77703  -2.03453  -0.00002 
 C                     3.07175  -3.25011  -0.00002 
 H                     1.1286   -4.20751  -0.00002 
 H                     3.65946   0.12912  -0.00002 
 H                     4.86837  -2.04955  -0.00002 
 H                     3.61872  -4.19381  -0.00002 
 N                     0.90626   0.2825   -0.00002 
 S                    -0.73345  -1.75788  -0.00002 
 C                    -1.38532   1.02388   0. 
 C                    -2.77351   0.83576  0. 
 C                    -0.8757    2.41769   0.00003 
 C                    -3.6475    1.93478   0.00002 
 H                    -3.18355  -0.17616  -0.00002 
 C                    -1.7962    3.49265   0.00006 
 C                    -3.1686    3.2572    0.00005 
 H                    -4.72331   1.75195   0.00002 
 H                    -1.38021   4.50088   0.00008 
 H                    -3.87005   4.09173   0.00008 
 C                    -0.41917  -0.01773  -0.00002 
 O                     0.39185   2.64024   0.00004 
 H                     0.93803   1.49886   0.00001 
 
 Add virtual bond connecting atoms H25        and N11        Dist= 2.30D+00.
 Add virtual bond connecting atoms H25        and O24        Dist= 2.39D+00.
 Initializing the GIC definitions file.
 Number of initial coordinates =   142
 Number of input entries/lines =    52
 Number of additional coordinates =     2
 Number of removed coordinates =     0
 Number of frozen coordinates =     2
 Number of final active and frozen coordinates =   144
 ITRead=  0  0  0  0  0  0  0  0  0  0  0  0  0  0  0  0  0  0  0  0
 ITRead=  0  0  0  0  0
 MicOpt= -1 -1 -1 -1 -1 -1 -1 -1 -1 -1 -1 -1 -1 -1 -1 -1 -1 -1 -1 -1
 MicOpt= -1 -1 -1 -1 -1
 NAtoms=     25 NQM=       25 NQMF=       0 NMMI=      0 NMMIF=      0
                NMic=       0 NMicF=      0.
                    Isotopes and Nuclear Properties:
 (Nuclear quadrupole moments (NQMom) in fm**2, nuclear magnetic moments (NMagM)
  in nuclear magnetons)

  Atom         1           2           3           4           5           6           7           8           9          10
 IAtWgt=          12          12          12          12          12          12           1           1           1           1
 AtmWgt=  12.0000000  12.0000000  12.0000000  12.0000000  12.0000000  12.0000000   1.0078250   1.0078250   1.0078250   1.0078250
 NucSpn=           0           0           0           0           0           0           1           1           1           1
 AtZEff=  -0.0000000  -0.0000000  -0.0000000  -0.0000000  -0.0000000  -0.0000000  -0.0000000  -0.0000000  -0.0000000  -0.0000000
 NQMom=    0.0000000   0.0000000   0.0000000   0.0000000   0.0000000   0.0000000   0.0000000   0.0000000   0.0000000   0.0000000
 NMagM=    0.0000000   0.0000000   0.0000000   0.0000000   0.0000000   0.0000000   2.7928460   2.7928460   2.7928460   2.7928460
 AtZNuc=   6.0000000   6.0000000   6.0000000   6.0000000   6.0000000   6.0000000   1.0000000   1.0000000   1.0000000   1.0000000

  Atom        11          12          13          14          15          16          17          18          19          20
 IAtWgt=          14          32          12          12          12          12           1          12          12           1
 AtmWgt=  14.0030740  31.9720718  12.0000000  12.0000000  12.0000000  12.0000000   1.0078250  12.0000000  12.0000000   1.0078250
 NucSpn=           2           0           0           0           0           0           1           0           0           1
 AtZEff=  -0.0000000  -0.0000000  -0.0000000  -0.0000000  -0.0000000  -0.0000000  -0.0000000  -0.0000000  -0.0000000  -0.0000000
 NQMom=    2.0440000   0.0000000   0.0000000   0.0000000   0.0000000   0.0000000   0.0000000   0.0000000   0.0000000   0.0000000
 NMagM=    0.4037610   0.0000000   0.0000000   0.0000000   0.0000000   0.0000000   2.7928460   0.0000000   0.0000000   2.7928460
 AtZNuc=   7.0000000  16.0000000   6.0000000   6.0000000   6.0000000   6.0000000   1.0000000   6.0000000   6.0000000   1.0000000

  Atom        21          22          23          24          25
 IAtWgt=           1           1          12          16           1
 AtmWgt=   1.0078250   1.0078250  12.0000000  15.9949146   1.0078250
 NucSpn=           1           1           0           0           1
 AtZEff=  -0.0000000  -0.0000000  -0.0000000  -0.0000000  -0.0000000
 NQMom=    0.0000000   0.0000000   0.0000000   0.0000000   0.0000000
 NMagM=    2.7928460   2.7928460   0.0000000   0.0000000   2.7928460
 AtZNuc=   1.0000000   1.0000000   6.0000000   8.0000000   1.0000000
 Leave Link  101 at Mon Jul 13 14:54:33 2020, MaxMem=  7784628224 cpu:              32.4 elap:               3.3
 (Enter /gpfs/loomis/apps/avx/software/Gaussian/16-C.01_AVX/g16/l103.exe)

 GradGradGradGradGradGradGradGradGradGradGradGradGradGradGradGradGradGrad
 Berny optimization.
 Initialization pass.
                           ----------------------------
                           !    Initial Parameters    !
                           ! (Angstroms and Degrees)  !
 --------------------------                            --------------------------
 ! Name  Definition              Value          Derivative Info.                !
 --------------------------------------------------------------------------------
 ! R1    R(1,2)                  1.3928         estimate D2E/DX2                !
 ! R2    R(1,6)                  1.395          estimate D2E/DX2                !
 ! R3    R(1,7)                  1.0907         estimate D2E/DX2                !
 ! R4    R(2,3)                  1.423          estimate D2E/DX2                !
 ! R5    R(2,12)                 1.7592         estimate D2E/DX2                !
 ! R6    R(3,4)                  1.408          estimate D2E/DX2                !
 ! R7    R(3,11)                 1.3557         estimate D2E/DX2                !
 ! R8    R(4,5)                  1.386          estimate D2E/DX2                !
 ! R9    R(4,8)                  1.0905         estimate D2E/DX2                !
 ! R10   R(5,6)                  1.4054         estimate D2E/DX2                !
 ! R11   R(5,9)                  1.0914         estimate D2E/DX2                !
 ! R12   R(6,10)                 1.0908         estimate D2E/DX2                !
 ! R13   R(11,23)                1.359          estimate D2E/DX2                !
 ! R14   R(11,25)                1.2168         estimate D2E/DX2                !
 ! R15   R(12,23)                1.7683         estimate D2E/DX2                !
 ! R16   R(13,14)                1.4009         estimate D2E/DX2                !
 ! R17   R(13,15)                1.4841         estimate D2E/DX2                !
 ! R18   R(13,23)                1.4207         estimate D2E/DX2                !
 ! R19   R(14,16)                1.4042         estimate D2E/DX2                !
 ! R20   R(14,17)                1.0918         estimate D2E/DX2                !
 ! R21   R(15,18)                1.4152         estimate D2E/DX2                !
 ! R22   R(15,24)                1.2869         estimate D2E/DX2                !
 ! R23   R(16,19)                1.4065         estimate D2E/DX2                !
 ! R24   R(16,20)                1.0912         estimate D2E/DX2                !
 ! R25   R(18,19)                1.3924         estimate D2E/DX2                !
 ! R26   R(18,21)                1.0907         estimate D2E/DX2                !
 ! R27   R(19,22)                1.0902         estimate D2E/DX2                !
 ! R28   R(24,25)                1.2653         estimate D2E/DX2                !
 ! A1    A(2,1,6)              118.3898         estimate D2E/DX2                !
 ! A2    A(2,1,7)              120.8399         estimate D2E/DX2                !
 ! A3    A(6,1,7)              120.7703         estimate D2E/DX2                !
 ! A4    A(1,2,3)              121.2662         estimate D2E/DX2                !
 ! A5    A(1,2,12)             128.4188         estimate D2E/DX2                !
 ! A6    A(3,2,12)             110.315          estimate D2E/DX2                !
 ! A7    A(2,3,4)              119.5214         estimate D2E/DX2                !
 ! A8    A(2,3,11)             113.9951         estimate D2E/DX2                !
 ! A9    A(4,3,11)             126.4835         estimate D2E/DX2                !
 ! A10   A(3,4,5)              118.7108         estimate D2E/DX2                !
 ! A11   A(3,4,8)              119.6619         estimate D2E/DX2                !
 ! A12   A(5,4,8)              121.6273         estimate D2E/DX2                !
 ! A13   A(4,5,6)              121.3941         estimate D2E/DX2                !
 ! A14   A(4,5,9)              119.2717         estimate D2E/DX2                !
 ! A15   A(6,5,9)              119.3341         estimate D2E/DX2                !
 ! A16   A(1,6,5)              120.7177         estimate D2E/DX2                !
 ! A17   A(1,6,10)             119.5016         estimate D2E/DX2                !
 ! A18   A(5,6,10)             119.7808         estimate D2E/DX2                !
 ! A19   A(3,11,23)            113.4932         estimate D2E/DX2                !
 ! A20   A(3,11,25)            142.2478         estimate D2E/DX2                !
 ! A21   A(23,11,25)           104.259          estimate D2E/DX2                !
 ! A22   A(2,12,23)             89.1961         estimate D2E/DX2                !
 ! A23   A(14,13,15)           117.8015         estimate D2E/DX2                !
 ! A24   A(14,13,23)           125.1299         estimate D2E/DX2                !
 ! A25   A(15,13,23)           117.0686         estimate D2E/DX2                !
 ! A26   A(13,14,16)           120.7757         estimate D2E/DX2                !
 ! A27   A(13,14,17)           119.7758         estimate D2E/DX2                !
 ! A28   A(16,14,17)           119.4485         estimate D2E/DX2                !
 ! A29   A(13,15,18)           119.3421         estimate D2E/DX2                !
 ! A30   A(13,15,24)           120.0421         estimate D2E/DX2                !
 ! A31   A(18,15,24)           120.6158         estimate D2E/DX2                !
 ! A32   A(14,16,19)           121.5993         estimate D2E/DX2                !
 ! A33   A(14,16,20)           118.8478         estimate D2E/DX2                !
 ! A34   A(19,16,20)           119.5529         estimate D2E/DX2                !
 ! A35   A(15,18,19)           120.839          estimate D2E/DX2                !
 ! A36   A(15,18,21)           117.0052         estimate D2E/DX2                !
 ! A37   A(19,18,21)           122.1559         estimate D2E/DX2                !
 ! A38   A(16,19,18)           119.6425         estimate D2E/DX2                !
 ! A39   A(16,19,22)           120.0437         estimate D2E/DX2                !
 ! A40   A(18,19,22)           120.3138         estimate D2E/DX2                !
 ! A41   A(11,23,12)           113.0007         estimate D2E/DX2                !
 ! A42   A(11,23,13)           120.0845         estimate D2E/DX2                !
 ! A43   A(12,23,13)           126.9148         estimate D2E/DX2                !
 ! A44   A(15,24,25)           105.6142         estimate D2E/DX2                !
 ! A45   A(11,25,24)           152.9316         estimate D2E/DX2                !
 ! D1    D(6,1,2,3)              0.0            estimate D2E/DX2                !
 ! D2    D(6,1,2,12)          -180.0            estimate D2E/DX2                !
 ! D3    D(7,1,2,3)            179.9999         estimate D2E/DX2                !
 ! D4    D(7,1,2,12)             0.0            estimate D2E/DX2                !
 ! D5    D(2,1,6,5)              0.0            estimate D2E/DX2                !
 ! D6    D(2,1,6,10)           180.0            estimate D2E/DX2                !
 ! D7    D(7,1,6,5)           -180.0            estimate D2E/DX2                !
 ! D8    D(7,1,6,10)             0.0            estimate D2E/DX2                !
 ! D9    D(1,2,3,4)              0.0            estimate D2E/DX2                !
 ! D10   D(1,2,3,11)           180.0            estimate D2E/DX2                !
 ! D11   D(12,2,3,4)           180.0            estimate D2E/DX2                !
 ! D12   D(12,2,3,11)           -0.0001         estimate D2E/DX2                !
 ! D13   D(1,2,12,23)          179.9999         estimate D2E/DX2                !
 ! D14   D(3,2,12,23)           -0.0001         estimate D2E/DX2                !
 ! D15   D(2,3,4,5)              0.0            estimate D2E/DX2                !
 ! D16   D(2,3,4,8)            180.0            estimate D2E/DX2                !
 ! D17   D(11,3,4,5)          -180.0            estimate D2E/DX2                !
 ! D18   D(11,3,4,8)             0.0            estimate D2E/DX2                !
 ! D19   D(2,3,11,23)            0.0002         estimate D2E/DX2                !
 ! D20   D(2,3,11,25)          179.9978         estimate D2E/DX2                !
 ! D21   D(4,3,11,23)         -179.9998         estimate D2E/DX2                !
 ! D22   D(4,3,11,25)           -0.0022         estimate D2E/DX2                !
 ! D23   D(3,4,5,6)              0.0            estimate D2E/DX2                !
 ! D24   D(3,4,5,9)           -180.0            estimate D2E/DX2                !
 ! D25   D(8,4,5,6)           -180.0            estimate D2E/DX2                !
 ! D26   D(8,4,5,9)              0.0            estimate D2E/DX2                !
 ! D27   D(4,5,6,1)              0.0            estimate D2E/DX2                !
 ! D28   D(4,5,6,10)          -180.0            estimate D2E/DX2                !
 ! D29   D(9,5,6,1)           -180.0            estimate D2E/DX2                !
 ! D30   D(9,5,6,10)             0.0            estimate D2E/DX2                !
 ! D31   D(3,11,23,12)          -0.0003         estimate D2E/DX2                !
 ! D32   D(3,11,23,13)         179.9991         estimate D2E/DX2                !
 ! D33   D(25,11,23,12)       -179.9988         estimate D2E/DX2                !
 ! D34   D(25,11,23,13)          0.0007         estimate D2E/DX2                !
 ! D35   D(3,11,25,24)        -179.9979         estimate D2E/DX2                !
 ! D36   D(23,11,25,24)         -0.0002         estimate D2E/DX2                !
 ! D37   D(2,12,23,11)           0.0002         estimate D2E/DX2                !
 ! D38   D(2,12,23,13)        -179.9992         estimate D2E/DX2                !
 ! D39   D(15,13,14,16)         -0.0001         estimate D2E/DX2                !
 ! D40   D(15,13,14,17)        179.9999         estimate D2E/DX2                !
 ! D41   D(23,13,14,16)        179.9998         estimate D2E/DX2                !
 ! D42   D(23,13,14,17)         -0.0002         estimate D2E/DX2                !
 ! D43   D(14,13,15,18)          0.0001         estimate D2E/DX2                !
 ! D44   D(14,13,15,24)        180.0            estimate D2E/DX2                !
 ! D45   D(23,13,15,18)       -179.9998         estimate D2E/DX2                !
 ! D46   D(23,13,15,24)          0.0001         estimate D2E/DX2                !
 ! D47   D(14,13,23,11)        179.9995         estimate D2E/DX2                !
 ! D48   D(14,13,23,12)         -0.0012         estimate D2E/DX2                !
 ! D49   D(15,13,23,11)         -0.0007         estimate D2E/DX2                !
 ! D50   D(15,13,23,12)        179.9987         estimate D2E/DX2                !
 ! D51   D(13,14,16,19)          0.0            estimate D2E/DX2                !
 ! D52   D(13,14,16,20)       -179.9999         estimate D2E/DX2                !
 ! D53   D(17,14,16,19)       -180.0            estimate D2E/DX2                !
 ! D54   D(17,14,16,20)          0.0001         estimate D2E/DX2                !
 ! D55   D(13,15,18,19)          0.0            estimate D2E/DX2                !
 ! D56   D(13,15,18,21)        179.9999         estimate D2E/DX2                !
 ! D57   D(24,15,18,19)       -179.9998         estimate D2E/DX2                !
 ! D58   D(24,15,18,21)          0.0            estimate D2E/DX2                !
 ! D59   D(13,15,24,25)          0.0003         estimate D2E/DX2                !
 ! D60   D(18,15,24,25)       -179.9998         estimate D2E/DX2                !
 ! D61   D(14,16,19,18)          0.0001         estimate D2E/DX2                !
 ! D62   D(14,16,19,22)       -179.9999         estimate D2E/DX2                !
 ! D63   D(20,16,19,18)       -179.9999         estimate D2E/DX2                !
 ! D64   D(20,16,19,22)          0.0001         estimate D2E/DX2                !
 ! D65   D(15,18,19,16)         -0.0001         estimate D2E/DX2                !
 ! D66   D(15,18,19,22)        179.9999         estimate D2E/DX2                !
 ! D67   D(21,18,19,16)       -179.9999         estimate D2E/DX2                !
 ! D68   D(21,18,19,22)          0.0001         estimate D2E/DX2                !
 ! D69   D(15,24,25,11)         -0.0003         estimate D2E/DX2                !
 ! Qtot  GIC-1                  10.0            Frozen                          !
 ! Ptot  GIC-2                 -20.0            Frozen                          !
 --------------------------------------------------------------------------------
 NOTE: GIC-type coordinates are in arbitrary units.
 Trust Radius=3.00D-01 FncErr=5.00D-06 GrdErr=5.00D-06 EigMax=2.50D+02 EigMin=1.00D-04
 Number of steps in this run=    150 maximum allowed number of steps=    150.
 GradGradGradGradGradGradGradGradGradGradGradGradGradGradGradGradGradGrad

 Leave Link  103 at Mon Jul 13 14:54:33 2020, MaxMem=  7784628224 cpu:               0.2 elap:               0.0
 (Enter /gpfs/loomis/apps/avx/software/Gaussian/16-C.01_AVX/g16/l202.exe)
                          Input orientation:                          
 ---------------------------------------------------------------------
 Center     Atomic      Atomic             Coordinates (Angstroms)
 Number     Number       Type             X           Y           Z
 ---------------------------------------------------------------------
      1          6           0        1.676845   -3.264596   -0.000022
      2          6           0        1.001909   -2.046225   -0.000021
      3          6           0        1.708023   -0.810723   -0.000021
      4          6           0        3.116050   -0.816312   -0.000022
      5          6           0        3.777034   -2.034534   -0.000022
      6          6           0        3.071753   -3.250106   -0.000022
      7          1           0        1.128603   -4.207514   -0.000021
      8          1           0        3.659461    0.129115   -0.000022
      9          1           0        4.868366   -2.049552   -0.000023
     10          1           0        3.618724   -4.193805   -0.000022
     11          7           0        0.906263    0.282495   -0.000021
     12         16           0       -0.733454   -1.757884   -0.000020
     13          6           0       -1.385316    1.023883    0.000003
     14          6           0       -2.773509    0.835760   -0.000001
     15          6           0       -0.875696    2.417693    0.000032
     16          6           0       -3.647500    1.934785    0.000025
     17          1           0       -3.183548   -0.176157   -0.000024
     18          6           0       -1.796199    3.492652    0.000056
     19          6           0       -3.168595    3.257201    0.000054
     20          1           0       -4.723308    1.751949    0.000022
     21          1           0       -1.380210    4.500876    0.000079
     22          1           0       -3.870055    4.091726    0.000075
     23          6           0       -0.419167   -0.017733   -0.000016
     24          8           0        0.391854    2.640241    0.000037
     25          1           0        0.938032    1.498864    0.000007
 ---------------------------------------------------------------------
                    Distance matrix (angstroms):
                    1          2          3          4          5
     1  C    0.000000
     2  C    1.392827   0.000000
     3  C    2.454071   1.423047   0.000000
     4  C    2.839966   2.445870   1.408038   0.000000
     5  C    2.433895   2.775149   2.403855   1.385989   0.000000
     6  C    1.394983   2.394490   2.794700   2.434197   1.405359
     7  H    1.090717   2.164998   3.445855   3.930674   3.425788
     8  H    3.930400   3.434340   2.165965   1.090471   2.166842
     9  H    3.414987   3.866459   3.394476   2.142777   1.091436
    10  H    2.152748   3.385236   3.885360   3.414695   2.165066
    11  N    3.629828   2.330684   1.355708   2.467901   3.689166
    12  S    2.842486   1.759155   2.618764   3.962984   4.518964
    13  C    5.269524   3.889012   3.596460   4.862984   6.000314
    14  C    6.051328   4.749697   4.774415   6.116882   7.151797
    15  C    6.229276   4.842723   4.135006   5.137395   6.439738
    16  C    7.441923   6.120902   6.018259   7.301653   8.418978
    17  H    5.758635   4.584234   4.932559   6.332040   7.204392
    18  C    7.597529   6.205528   5.549650   6.534322   7.849249
    19  C    8.124786   6.746810   6.350545   7.489344   8.731794
    20  H    8.131893   6.870534   6.923099   8.249333   9.305550
    21  H    8.345546   6.966995   6.144124   6.963393   8.325188
    22  H    9.213228   7.836484   7.426234   8.537827   9.798420
    23  C    3.864633   2.476740   2.270192   3.624292   4.655705
    24  O    6.043038   4.726006   3.693434   4.401023   5.771739
    25  H    4.820415   3.545665   2.434559   3.178648   4.532641
                    6          7          8          9         10
     6  C    0.000000
     7  H    2.166209   0.000000
     8  H    3.429947   5.021115   0.000000
     9  H    2.160822   4.317711   2.491594   0.000000
    10  H    1.090755   2.490159   4.323113   2.481820   0.000000
    11  N    4.143503   4.495510   2.757467   4.597467   5.233995
    12  S    4.087337   3.077002   4.781053   5.609408   4.987501
    13  C    6.175148   5.804076   5.123513   6.968109   7.229432
    14  C    7.131717   6.376605   6.471665   8.168432   8.133706
    15  C    6.906975   6.921747   5.079886   7.276711   7.994481
    16  C    8.487134   7.780680   7.526760   9.401857   9.505663
    17  H    6.969788   5.903091   6.849815   8.266978   7.900152
    18  C    8.316354   8.236930   6.409182   8.667898   9.402288
    19  C    9.015930   8.613239   7.510478   9.630908  10.078949
    20  H    9.261940   8.352248   8.538407  10.317539  10.244095
    21  H    8.938551   9.062571   6.671624   9.052779  10.029298
    22  H   10.104018   9.688341   8.508577  10.680604  11.168341
    23  C    4.757600   4.466526   4.081271   5.664477   5.808971
    24  O    6.471325   6.887274   4.121045   6.483311   7.557571
    25  H    5.206292   5.709559   3.046701   5.295166   6.292265
                   11         12         13         14         15
    11  N    0.000000
    12  S    2.617598   0.000000
    13  C    2.408525   2.857124   0.000000
    14  C    3.721132   3.299820   1.400882   0.000000
    15  C    2.781088   4.178000   1.484055   2.470669   0.000000
    16  C    4.844256   4.703984   2.438692   1.404178   2.813556
    17  H    4.115448   2.916302   2.161882   1.091837   3.471921
    18  C    4.196238   5.357010   2.502727   2.830938   1.415225
    19  C    5.045131   5.575034   2.857936   2.453461   2.441754
    20  H    5.818192   5.313931   3.416470   2.154325   3.904783
    21  H    4.798197   6.292088   3.476996   3.921014   2.143405
    22  H    6.109292   6.637485   3.947858   3.435655   3.430535
    23  C    1.359008   1.768306   1.420707   2.504271   2.477845
    24  O    2.413210   4.539804   2.402279   3.643579   1.286938
    25  H    1.216784   3.660639   2.371403   3.770310   2.033189
                   16         17         18         19         20
    16  C    0.000000
    17  H    2.161325   0.000000
    18  C    2.419558   3.922358   0.000000
    19  C    1.406462   3.433391   1.392447   0.000000
    20  H    1.091234   2.467479   3.405585   2.164005   0.000000
    21  H    3.424241   5.012651   1.090671   2.178313   4.328153
    22  H    2.168392   4.322744   2.158649   1.090173   2.490501
    23  C    3.772858   2.768917   3.770811   4.276044   4.653751
    24  O    4.100493   4.551438   2.348229   3.613508   5.191718
    25  H    4.606205   4.448945   3.383964   4.467229   5.666994
                   21         22         23         24         25
    21  H    0.000000
    22  H    2.523238   0.000000
    23  C    4.619678   5.366216   0.000000
    24  O    2.569469   4.502296   2.778952   0.000000
    25  H    3.792930   5.462658   2.035204   1.265327   0.000000
 Symmetry turned off by external request.
 Stoichiometry    C13H9NOS
 Framework group  C1[X(C13H9NOS)]
 Deg. of freedom    69
 Full point group                 C1      NOp   1
 Rotational constants (GHZ):           1.3765537           0.2858802           0.2367189
 Leave Link  202 at Mon Jul 13 14:54:33 2020, MaxMem=  7784628224 cpu:               0.2 elap:               0.0
 (Enter /gpfs/loomis/apps/avx/software/Gaussian/16-C.01_AVX/g16/l301.exe)
 Standard basis: CC-pVDZ (5D, 7F)
 Ernie: Thresh=  0.10000D-02 Tol=  0.10000D-05 Strict=F.
 Ernie:  40 primitive shells out of 425 were deleted.
   273 basis functions,   629 primitive gaussians,   289 cartesian basis functions
    59 alpha electrons       59 beta electrons
       nuclear repulsion energy      1098.0168827133 Hartrees.
 IExCor= 4639 DFT=T Ex+Corr=wB97XD ExCW=0 ScaHFX=  1.000000
 ScaDFX=  1.000000  1.000000  1.000000  1.000000 ScalE2=  1.000000  1.000000
 IRadAn=      5 IRanWt=     -1 IRanGd=            0 ICorTp=0 IEmpDi=121
 HFx  wShort=  0.000000 wLong=  0.200000 cFull=  0.222036 cShort=  0.000000 cLong=  0.777964
 DFx  wShort=  0.000000 wLong=  0.200000 cFull=  0.000000 cShort=  0.000000 cLong=  1.000000
 NAtoms=   25 NActive=   25 NUniq=   25 SFac= 1.00D+00 NAtFMM=   60 NAOKFM=F Big=F
 Integral buffers will be    131072 words long.
 Raffenetti 1 integral format.
 Two-electron integral symmetry is turned off.
 R6Disp:  Grimme-D2 Dispersion energy=       -0.0139766093 Hartrees.
 Nuclear repulsion after empirical dispersion term =     1098.0029061039 Hartrees.
 ------------------------------------------------------------------------------
 Polarizable Continuum Model (PCM)
 =================================
 Model                : PCM.
 Atomic radii         : UFF (Universal Force Field).
 Polarization charges : Total charges.
 Charge compensation  : None.
 Solution method      : On-the-fly selection.
 Cavity type          : Scaled VdW (van der Waals Surface) (Alpha=1.100).
 Cavity algorithm     : GePol (No added spheres)
                        Default sphere list used, NSphG=   25.
                        Lebedev-Laikov grids with approx.  5.0 points / Ang**2.
                        Smoothing algorithm: York/Karplus (Gamma=1.0000).
                        Polarization charges: spherical gaussians, with
                                              point-specific exponents (IZeta= 3).
                        Self-potential: point-specific (ISelfS= 7).
                        Self-field    : sphere-specific E.n sum rule (ISelfD= 2).
 1st derivatives      : Analytical E(r).r(x)/FMM algorithm (CHGder, D1EAlg=3).
                        Cavity 1st derivative terms included.
 Solvent              : CarbonTetraChloride, Eps=   2.228000 Eps(inf)=   2.131892
 ------------------------------------------------------------------------------
 GePol: Number of generator spheres                  =      25
 GePol: Total number of spheres                      =      25
 GePol: Number of exposed spheres                    =      25 (100.00%)
 GePol: Number of points                             =    2195
 GePol: Average weight of points                     =       0.12
 GePol: Minimum weight of points                     =   0.65D-09
 GePol: Maximum weight of points                     =    0.20577
 GePol: Number of points with low weight             =     147
 GePol: Fraction of low-weight points (<1% of avg)   =       6.70%
 GePol: Cavity surface area                          =    274.165 Ang**2
 GePol: Cavity volume                                =    293.478 Ang**3
 Leave Link  301 at Mon Jul 13 14:54:33 2020, MaxMem=  7784628224 cpu:               1.0 elap:               0.1
 (Enter /gpfs/loomis/apps/avx/software/Gaussian/16-C.01_AVX/g16/l302.exe)
 NPDir=0 NMtPBC=     1 NCelOv=     1 NCel=       1 NClECP=     1 NCelD=      1
         NCelK=      1 NCelE2=     1 NClLst=     1 CellRange=     0.0.
 One-electron integrals computed using PRISM.
 NBasis=   273 RedAO= T EigKep=  3.09D-04  NBF=   273
 NBsUse=   273 1.00D-06 EigRej= -1.00D+00 NBFU=   273
 Precomputing XC quadrature grid using
 IXCGrd= 4 IRadAn=           5 IRanWt=          -1 IRanGd=           0 AccXCQ= 0.00D+00.
 Generated NRdTot=       0 NPtTot=           0 NUsed=           0 NTot=          32
 NSgBfM=   288   288   288   288   288 MxSgAt=    25 MxSgA2=    25.
 Leave Link  302 at Mon Jul 13 14:54:33 2020, MaxMem=  7784628224 cpu:               2.8 elap:               0.3
 (Enter /gpfs/loomis/apps/avx/software/Gaussian/16-C.01_AVX/g16/l303.exe)
 DipDrv:  MaxL=1.
 Leave Link  303 at Mon Jul 13 14:54:33 2020, MaxMem=  7784628224 cpu:               0.6 elap:               0.1
 (Enter /gpfs/loomis/apps/avx/software/Gaussian/16-C.01_AVX/g16/l308.exe)
 Leave Link  308 at Mon Jul 13 14:54:33 2020, MaxMem=  7784628224 cpu:               0.5 elap:               0.1
 (Enter /gpfs/loomis/apps/avx/software/Gaussian/16-C.01_AVX/g16/l401.exe)
 ExpMin= 1.22D-01 ExpMax= 1.11D+05 ExpMxC= 1.07D+03 IAcc=3 IRadAn=         5 AccDes= 0.00D+00
 Harris functional with IExCor= 4639 and IRadAn=       5 diagonalized for initial guess.
 HarFok:  IExCor= 4639 AccDes= 0.00D+00 IRadAn=         5 IDoV= 1 UseB2=F ITyADJ=14
 ICtDFT=  3500011 ScaDFX=  1.000000  1.000000  1.000000  1.000000
 FoFCou: FMM=F IPFlag=           0 FMFlag=      100000 FMFlg1=           0
         NFxFlg=           0 DoJE=T BraDBF=F KetDBF=T FulRan=T
         wScrn=  0.000000 ICntrl=       500 IOpCl=  0 I1Cent=   200000004 NGrid=           0
         NMat0=    1 NMatS0=      1 NMatT0=    0 NMatD0=    1 NMtDS0=    0 NMtDT0=    0
 Symmetry not used in FoFCou.
 Harris En= -994.459961678362    
 JPrj=0 DoOrth=F DoCkMO=F.
 Leave Link  401 at Mon Jul 13 14:54:35 2020, MaxMem=  7784628224 cpu:              13.7 elap:               1.4
 (Enter /gpfs/loomis/apps/avx/software/Gaussian/16-C.01_AVX/g16/l502.exe)
 Two-electron integral symmetry not used.
 Closed shell SCF:
 Using DIIS extrapolation, IDIIS=  1040.
 NGot=  7784628224 LenX=  7784455381 LenY=  7784371419
 Requested convergence on RMS density matrix=1.00D-08 within 128 cycles.
 Requested convergence on MAX density matrix=1.00D-06.
 Requested convergence on             energy=1.00D-06.
 No special actions if energy rises.
 Fock matrices will be formed incrementally for  20 cycles.

 Cycle   1  Pass 1  IDiag  1:
 FoFJK:  IHMeth= 1 ICntrl=       0 DoSepK=T KAlg= 0 I1Cent=           0 FoldK=F
 IRaf=         1 NMat=       1 IRICut=       1 DoRegI=T DoRafI=F ISym2E= 0 IDoP0=0 IntGTp=1.
 FoFCou: FMM=F IPFlag=           0 FMFlag=      100000 FMFlg1=           0
         NFxFlg=           0 DoJE=T BraDBF=F KetDBF=F FulRan=T
         wScrn=  0.000000 ICntrl=       500 IOpCl=  0 I1Cent=           0 NGrid=           0
         NMat0=    1 NMatS0=      1 NMatT0=    0 NMatD0=    1 NMtDS0=    0 NMtDT0=    0
 Symmetry not used in FoFCou.
 Inv3:  Mode=1 IEnd=    14454075.
 Iteration    1 A*A^-1 deviation from unit magnitude is 4.22D-15 for   2192.
 Iteration    1 A*A^-1 deviation from orthogonality  is 2.15D-15 for   2192   2080.
 Iteration    1 A^-1*A deviation from unit magnitude is 4.88D-15 for   2192.
 Iteration    1 A^-1*A deviation from orthogonality  is 2.45D-15 for   1116    625.
 E= -1028.56882206680    
 DIIS: error= 3.79D-02 at cycle   1 NSaved=   1.
 NSaved= 1 IEnMin= 1 EnMin= -1028.56882206680     IErMin= 1 ErrMin= 3.79D-02
 ErrMax= 3.79D-02  0.00D+00 EMaxC= 1.00D-01 BMatC= 3.94D-01 BMatP= 3.94D-01
 IDIUse=3 WtCom= 6.21D-01 WtEn= 3.79D-01
 Coeff-Com:  0.100D+01
 Coeff-En:   0.100D+01
 Coeff:      0.100D+01
 Gap=     0.338 Goal=   None    Shift=    0.000
 GapD=    0.338 DampG=1.000 DampE=0.500 DampFc=0.5000 IDamp=-1.
 Damping current iteration by 5.00D-01
 RMSDP=3.56D-03 MaxDP=2.28D-01              OVMax= 1.81D-01

 Cycle   2  Pass 1  IDiag  1:
 RMSU=  1.77D-03    CP:  9.93D-01
 E= -1028.68859620261     Delta-E=       -0.119774135817 Rises=F Damp=T
 DIIS: error= 1.18D-02 at cycle   2 NSaved=   2.
 NSaved= 2 IEnMin= 2 EnMin= -1028.68859620261     IErMin= 2 ErrMin= 1.18D-02
 ErrMax= 1.18D-02  0.00D+00 EMaxC= 1.00D-01 BMatC= 5.80D-02 BMatP= 3.94D-01
 IDIUse=3 WtCom= 8.82D-01 WtEn= 1.18D-01
 Coeff-Com: -0.285D+00 0.128D+01
 Coeff-En:   0.000D+00 0.100D+01
 Coeff:     -0.251D+00 0.125D+01
 Gap=     0.298 Goal=   None    Shift=    0.000
 RMSDP=1.15D-03 MaxDP=2.48D-02 DE=-1.20D-01 OVMax= 1.19D-01

 Cycle   3  Pass 1  IDiag  1:
 RMSU=  1.10D-03    CP:  9.92D-01  1.19D+00
 E= -1028.79528319473     Delta-E=       -0.106686992121 Rises=F Damp=F
 DIIS: error= 6.02D-03 at cycle   3 NSaved=   3.
 NSaved= 3 IEnMin= 3 EnMin= -1028.79528319473     IErMin= 3 ErrMin= 6.02D-03
 ErrMax= 6.02D-03  0.00D+00 EMaxC= 1.00D-01 BMatC= 1.42D-02 BMatP= 5.80D-02
 IDIUse=3 WtCom= 9.40D-01 WtEn= 6.02D-02
 Coeff-Com: -0.201D+00 0.485D+00 0.716D+00
 Coeff-En:   0.000D+00 0.000D+00 0.100D+01
 Coeff:     -0.189D+00 0.456D+00 0.733D+00
 Gap=     0.254 Goal=   None    Shift=    0.000
 RMSDP=5.35D-04 MaxDP=1.76D-02 DE=-1.07D-01 OVMax= 3.86D-02

 Cycle   4  Pass 1  IDiag  1:
 RMSU=  4.25D-04    CP:  9.89D-01  1.34D+00  8.43D-01
 E= -1028.80861460172     Delta-E=       -0.013331406981 Rises=F Damp=F
 DIIS: error= 2.08D-03 at cycle   4 NSaved=   4.
 NSaved= 4 IEnMin= 4 EnMin= -1028.80861460172     IErMin= 4 ErrMin= 2.08D-03
 ErrMax= 2.08D-03  0.00D+00 EMaxC= 1.00D-01 BMatC= 1.78D-03 BMatP= 1.42D-02
 IDIUse=3 WtCom= 9.79D-01 WtEn= 2.08D-02
 Coeff-Com: -0.716D-01 0.142D+00 0.350D+00 0.579D+00
 Coeff-En:   0.000D+00 0.000D+00 0.000D+00 0.100D+01
 Coeff:     -0.701D-01 0.139D+00 0.343D+00 0.588D+00
 Gap=     0.252 Goal=   None    Shift=    0.000
 RMSDP=1.71D-04 MaxDP=1.02D-02 DE=-1.33D-02 OVMax= 1.34D-02

 Cycle   5  Pass 1  IDiag  1:
 RMSU=  1.07D-04    CP:  9.89D-01  1.36D+00  9.14D-01  7.48D-01
 E= -1028.81049751938     Delta-E=       -0.001882917660 Rises=F Damp=F
 DIIS: error= 4.31D-04 at cycle   5 NSaved=   5.
 NSaved= 5 IEnMin= 5 EnMin= -1028.81049751938     IErMin= 5 ErrMin= 4.31D-04
 ErrMax= 4.31D-04  0.00D+00 EMaxC= 1.00D-01 BMatC= 5.41D-05 BMatP= 1.78D-03
 IDIUse=3 WtCom= 9.96D-01 WtEn= 4.31D-03
 Coeff-Com: -0.227D-02-0.155D-02 0.367D-01 0.161D+00 0.806D+00
 Coeff-En:   0.000D+00 0.000D+00 0.000D+00 0.000D+00 0.100D+01
 Coeff:     -0.226D-02-0.154D-02 0.365D-01 0.161D+00 0.807D+00
 Gap=     0.253 Goal=   None    Shift=    0.000
 RMSDP=5.23D-05 MaxDP=1.58D-03 DE=-1.88D-03 OVMax= 5.05D-03

 Cycle   6  Pass 1  IDiag  1:
 RMSU=  3.37D-05    CP:  9.89D-01  1.36D+00  9.31D-01  8.27D-01  1.07D+00
 E= -1028.81061076778     Delta-E=       -0.000113248400 Rises=F Damp=F
 DIIS: error= 1.88D-04 at cycle   6 NSaved=   6.
 NSaved= 6 IEnMin= 6 EnMin= -1028.81061076778     IErMin= 6 ErrMin= 1.88D-04
 ErrMax= 1.88D-04  0.00D+00 EMaxC= 1.00D-01 BMatC= 1.03D-05 BMatP= 5.41D-05
 IDIUse=3 WtCom= 9.98D-01 WtEn= 1.88D-03
 Coeff-Com:  0.147D-01-0.305D-01-0.577D-01-0.591D-01 0.233D+00 0.900D+00
 Coeff-En:   0.000D+00 0.000D+00 0.000D+00 0.000D+00 0.000D+00 0.100D+01
 Coeff:      0.146D-01-0.304D-01-0.575D-01-0.590D-01 0.233D+00 0.900D+00
 Gap=     0.254 Goal=   None    Shift=    0.000
 RMSDP=3.03D-05 MaxDP=1.49D-03 DE=-1.13D-04 OVMax= 3.09D-03

 Cycle   7  Pass 1  IDiag  1:
 RMSU=  1.57D-05    CP:  9.89D-01  1.36D+00  9.41D-01  8.56D-01  1.24D+00
                    CP:  1.26D+00
 E= -1028.81063956099     Delta-E=       -0.000028793209 Rises=F Damp=F
 DIIS: error= 1.33D-04 at cycle   7 NSaved=   7.
 NSaved= 7 IEnMin= 7 EnMin= -1028.81063956099     IErMin= 7 ErrMin= 1.33D-04
 ErrMax= 1.33D-04  0.00D+00 EMaxC= 1.00D-01 BMatC= 2.31D-06 BMatP= 1.03D-05
 IDIUse=3 WtCom= 9.99D-01 WtEn= 1.33D-03
 Coeff-Com:  0.672D-02-0.129D-01-0.300D-01-0.486D-01-0.101D-01 0.397D+00
 Coeff-Com:  0.698D+00
 Coeff-En:   0.000D+00 0.000D+00 0.000D+00 0.000D+00 0.000D+00 0.000D+00
 Coeff-En:   0.100D+01
 Coeff:      0.671D-02-0.128D-01-0.300D-01-0.486D-01-0.101D-01 0.396D+00
 Coeff:      0.699D+00
 Gap=     0.254 Goal=   None    Shift=    0.000
 RMSDP=1.09D-05 MaxDP=4.65D-04 DE=-2.88D-05 OVMax= 1.36D-03

 Cycle   8  Pass 1  IDiag  1:
 RMSU=  6.60D-06    CP:  9.89D-01  1.36D+00  9.44D-01  8.63D-01  1.28D+00
                    CP:  1.45D+00  1.13D+00
 E= -1028.81064448059     Delta-E=       -0.000004919610 Rises=F Damp=F
 DIIS: error= 4.62D-05 at cycle   8 NSaved=   8.
 NSaved= 8 IEnMin= 8 EnMin= -1028.81064448059     IErMin= 8 ErrMin= 4.62D-05
 ErrMax= 4.62D-05  0.00D+00 EMaxC= 1.00D-01 BMatC= 3.39D-07 BMatP= 2.31D-06
 IDIUse=1 WtCom= 1.00D+00 WtEn= 0.00D+00
 Coeff-Com: -0.123D-02 0.275D-02 0.435D-02 0.110D-02-0.399D-01-0.799D-01
 Coeff-Com:  0.211D+00 0.901D+00
 Coeff:     -0.123D-02 0.275D-02 0.435D-02 0.110D-02-0.399D-01-0.799D-01
 Coeff:      0.211D+00 0.901D+00
 Gap=     0.254 Goal=   None    Shift=    0.000
 RMSDP=5.71D-06 MaxDP=1.61D-04 DE=-4.92D-06 OVMax= 8.62D-04

 Cycle   9  Pass 1  IDiag  1:
 RMSU=  2.56D-06    CP:  9.89D-01  1.36D+00  9.43D-01  8.62D-01  1.29D+00
                    CP:  1.54D+00  1.37D+00  1.21D+00
 E= -1028.81064557567     Delta-E=       -0.000001095074 Rises=F Damp=F
 DIIS: error= 2.05D-05 at cycle   9 NSaved=   9.
 NSaved= 9 IEnMin= 9 EnMin= -1028.81064557567     IErMin= 9 ErrMin= 2.05D-05
 ErrMax= 2.05D-05  0.00D+00 EMaxC= 1.00D-01 BMatC= 5.26D-08 BMatP= 3.39D-07
 IDIUse=1 WtCom= 1.00D+00 WtEn= 0.00D+00
 Coeff-Com: -0.118D-02 0.234D-02 0.511D-02 0.682D-02-0.964D-02-0.863D-01
 Coeff-Com: -0.284D-01 0.256D+00 0.856D+00
 Coeff:     -0.118D-02 0.234D-02 0.511D-02 0.682D-02-0.964D-02-0.863D-01
 Coeff:     -0.284D-01 0.256D+00 0.856D+00
 Gap=     0.254 Goal=   None    Shift=    0.000
 RMSDP=2.69D-06 MaxDP=6.69D-05 DE=-1.10D-06 OVMax= 4.60D-04

 Cycle  10  Pass 1  IDiag  1:
 RMSU=  1.22D-06    CP:  9.89D-01  1.36D+00  9.43D-01  8.62D-01  1.29D+00
                    CP:  1.57D+00  1.46D+00  1.39D+00  1.26D+00
 E= -1028.81064581116     Delta-E=       -0.000000235492 Rises=F Damp=F
 DIIS: error= 9.06D-06 at cycle  10 NSaved=  10.
 NSaved=10 IEnMin=10 EnMin= -1028.81064581116     IErMin=10 ErrMin= 9.06D-06
 ErrMax= 9.06D-06  0.00D+00 EMaxC= 1.00D-01 BMatC= 1.75D-08 BMatP= 5.26D-08
 IDIUse=1 WtCom= 1.00D+00 WtEn= 0.00D+00
 Coeff-Com: -0.154D-03 0.244D-03 0.984D-03 0.247D-02 0.540D-02-0.190D-01
 Coeff-Com: -0.531D-01-0.118D+00 0.350D+00 0.831D+00
 Coeff:     -0.154D-03 0.244D-03 0.984D-03 0.247D-02 0.540D-02-0.190D-01
 Coeff:     -0.531D-01-0.118D+00 0.350D+00 0.831D+00
 Gap=     0.254 Goal=   None    Shift=    0.000
 RMSDP=1.52D-06 MaxDP=3.52D-05 DE=-2.35D-07 OVMax= 2.49D-04

 Cycle  11  Pass 1  IDiag  1:
 RMSU=  5.72D-07    CP:  9.89D-01  1.36D+00  9.43D-01  8.63D-01  1.30D+00
                    CP:  1.59D+00  1.50D+00  1.49D+00  1.61D+00  1.18D+00
 E= -1028.81064587544     Delta-E=       -0.000000064284 Rises=F Damp=F
 DIIS: error= 4.87D-06 at cycle  11 NSaved=  11.
 NSaved=11 IEnMin=11 EnMin= -1028.81064587544     IErMin=11 ErrMin= 4.87D-06
 ErrMax= 4.87D-06  0.00D+00 EMaxC= 1.00D-01 BMatC= 2.48D-09 BMatP= 1.75D-08
 IDIUse=1 WtCom= 1.00D+00 WtEn= 0.00D+00
 Coeff-Com:  0.259D-03-0.533D-03-0.954D-03-0.897D-03 0.469D-02 0.118D-01
 Coeff-Com: -0.648D-02-0.936D-01-0.481D-01 0.229D+00 0.905D+00
 Coeff:      0.259D-03-0.533D-03-0.954D-03-0.897D-03 0.469D-02 0.118D-01
 Coeff:     -0.648D-02-0.936D-01-0.481D-01 0.229D+00 0.905D+00
 Gap=     0.254 Goal=   None    Shift=    0.000
 RMSDP=6.39D-07 MaxDP=1.96D-05 DE=-6.43D-08 OVMax= 1.23D-04

 Cycle  12  Pass 1  IDiag  1:
 RMSU=  2.23D-07    CP:  9.89D-01  1.36D+00  9.43D-01  8.63D-01  1.30D+00
                    CP:  1.59D+00  1.51D+00  1.52D+00  1.75D+00  1.46D+00
                    CP:  1.15D+00
 E= -1028.81064588731     Delta-E=       -0.000000011863 Rises=F Damp=F
 DIIS: error= 1.23D-06 at cycle  12 NSaved=  12.
 NSaved=12 IEnMin=12 EnMin= -1028.81064588731     IErMin=12 ErrMin= 1.23D-06
 ErrMax= 1.23D-06  0.00D+00 EMaxC= 1.00D-01 BMatC= 7.32D-10 BMatP= 2.48D-09
 IDIUse=1 WtCom= 1.00D+00 WtEn= 0.00D+00
 Coeff-Com:  0.129D-03-0.254D-03-0.555D-03-0.872D-03 0.109D-02 0.843D-02
 Coeff-Com:  0.869D-02-0.178D-01-0.935D-01-0.109D+00 0.363D+00 0.841D+00
 Coeff:      0.129D-03-0.254D-03-0.555D-03-0.872D-03 0.109D-02 0.843D-02
 Coeff:      0.869D-02-0.178D-01-0.935D-01-0.109D+00 0.363D+00 0.841D+00
 Gap=     0.254 Goal=   None    Shift=    0.000
 RMSDP=3.39D-07 MaxDP=7.68D-06 DE=-1.19D-08 OVMax= 5.33D-05

 Cycle  13  Pass 1  IDiag  1:
 RMSU=  8.93D-08    CP:  9.89D-01  1.36D+00  9.43D-01  8.63D-01  1.30D+00
                    CP:  1.59D+00  1.52D+00  1.53D+00  1.83D+00  1.57D+00
                    CP:  1.42D+00  1.11D+00
 E= -1028.81064588963     Delta-E=       -0.000000002320 Rises=F Damp=F
 DIIS: error= 5.68D-07 at cycle  13 NSaved=  13.
 NSaved=13 IEnMin=13 EnMin= -1028.81064588963     IErMin=13 ErrMin= 5.68D-07
 ErrMax= 5.68D-07  0.00D+00 EMaxC= 1.00D-01 BMatC= 5.37D-11 BMatP= 7.32D-10
 IDIUse=1 WtCom= 1.00D+00 WtEn= 0.00D+00
 Coeff-Com:  0.271D-05-0.201D-05-0.317D-04-0.150D-03-0.181D-03 0.908D-03
 Coeff-Com:  0.354D-02 0.707D-02-0.174D-01-0.646D-01-0.980D-02 0.242D+00
 Coeff-Com:  0.839D+00
 Coeff:      0.271D-05-0.201D-05-0.317D-04-0.150D-03-0.181D-03 0.908D-03
 Coeff:      0.354D-02 0.707D-02-0.174D-01-0.646D-01-0.980D-02 0.242D+00
 Coeff:      0.839D+00
 Gap=     0.254 Goal=   None    Shift=    0.000
 RMSDP=7.34D-08 MaxDP=2.04D-06 DE=-2.32D-09 OVMax= 1.07D-05

 Cycle  14  Pass 1  IDiag  1:
 RMSU=  3.63D-08    CP:  9.89D-01  1.36D+00  9.43D-01  8.63D-01  1.30D+00
                    CP:  1.59D+00  1.52D+00  1.53D+00  1.85D+00  1.59D+00
                    CP:  1.48D+00  1.25D+00  1.06D+00
 E= -1028.81064588976     Delta-E=       -0.000000000133 Rises=F Damp=F
 DIIS: error= 1.87D-07 at cycle  14 NSaved=  14.
 NSaved=14 IEnMin=14 EnMin= -1028.81064588976     IErMin=14 ErrMin= 1.87D-07
 ErrMax= 1.87D-07  0.00D+00 EMaxC= 1.00D-01 BMatC= 1.35D-11 BMatP= 5.37D-11
 IDIUse=1 WtCom= 1.00D+00 WtEn= 0.00D+00
 Coeff-Com: -0.133D-04 0.275D-04 0.487D-04 0.261D-04-0.194D-03-0.480D-03
 Coeff-Com:  0.719D-03 0.524D-02 0.245D-02-0.182D-01-0.445D-01 0.121D-01
 Coeff-Com:  0.394D+00 0.649D+00
 Coeff:     -0.133D-04 0.275D-04 0.487D-04 0.261D-04-0.194D-03-0.480D-03
 Coeff:      0.719D-03 0.524D-02 0.245D-02-0.182D-01-0.445D-01 0.121D-01
 Coeff:      0.394D+00 0.649D+00
 Gap=     0.254 Goal=   None    Shift=    0.000
 RMSDP=2.22D-08 MaxDP=5.84D-07 DE=-1.33D-10 OVMax= 2.04D-06

 Cycle  15  Pass 1  IDiag  1:
 RMSU=  1.34D-08    CP:  9.89D-01  1.36D+00  9.43D-01  8.63D-01  1.30D+00
                    CP:  1.59D+00  1.52D+00  1.54D+00  1.85D+00  1.60D+00
                    CP:  1.49D+00  1.28D+00  1.19D+00  9.07D-01
 E= -1028.81064588979     Delta-E=       -0.000000000025 Rises=F Damp=F
 DIIS: error= 7.15D-08 at cycle  15 NSaved=  15.
 NSaved=15 IEnMin=15 EnMin= -1028.81064588979     IErMin=15 ErrMin= 7.15D-08
 ErrMax= 7.15D-08  0.00D+00 EMaxC= 1.00D-01 BMatC= 9.42D-13 BMatP= 1.35D-11
 IDIUse=1 WtCom= 1.00D+00 WtEn= 0.00D+00
 Coeff-Com: -0.387D-05 0.731D-05 0.192D-04 0.325D-04-0.247D-04-0.334D-03
 Coeff-Com: -0.510D-03 0.280D-04 0.402D-02 0.731D-02-0.876D-02-0.419D-01
 Coeff-Com: -0.363D-01 0.158D+00 0.918D+00
 Coeff:     -0.387D-05 0.731D-05 0.192D-04 0.325D-04-0.247D-04-0.334D-03
 Coeff:     -0.510D-03 0.280D-04 0.402D-02 0.731D-02-0.876D-02-0.419D-01
 Coeff:     -0.363D-01 0.158D+00 0.918D+00
 Gap=     0.254 Goal=   None    Shift=    0.000
 RMSDP=9.04D-09 MaxDP=2.12D-07 DE=-2.55D-11 OVMax= 9.87D-07

 Error on total polarization charges =  0.00834
 SCF Done:  E(RwB97XD) =  -1028.81064589     A.U. after   15 cycles
            NFock= 15  Conv=0.90D-08     -V/T= 2.0050
 KE= 1.023701293911D+03 PE=-4.608063891098D+03 EE= 1.457549045193D+03
 Leave Link  502 at Mon Jul 13 14:55:58 2020, MaxMem=  7784628224 cpu:             828.5 elap:              83.6
 (Enter /gpfs/loomis/apps/avx/software/Gaussian/16-C.01_AVX/g16/l801.exe)
 DoSCS=F DFT=T ScalE2(SS,OS)=  1.000000  1.000000
 ExpMin= 1.22D-01 ExpMax= 1.11D+05 ExpMxC= 1.07D+03 IAcc=3 IRadAn=         5 AccDes= 0.00D+00
 HarFok:  IExCor=  205 AccDes= 0.00D+00 IRadAn=         5 IDoV=-2 UseB2=F ITyADJ=14
 ICtDFT= 12500011 ScaDFX=  1.000000  1.000000  1.000000  1.000000
 Largest valence mixing into a core orbital is  9.53D-05
 Largest core mixing into a valence orbital is  2.92D-05
 Range of M.O.s used for correlation:    21   273
 NBasis=   273 NAE=    59 NBE=    59 NFC=    20 NFV=     0
 NROrb=    253 NOA=    39 NOB=    39 NVA=   214 NVB=   214

 **** Warning!!: The largest alpha MO coefficient is  0.11379418D+02

 Leave Link  801 at Mon Jul 13 14:55:59 2020, MaxMem=  7784628224 cpu:               0.9 elap:               0.1
 (Enter /gpfs/loomis/apps/avx/software/Gaussian/16-C.01_AVX/g16/l914.exe)
 RHF ground state
 Keep R1, R2, and R3 ints in memory in canonical form, NReq=4262515490.
 FoFCou: FMM=F IPFlag=           0 FMFlag=           0 FMFlg1=           0
         NFxFlg=           0 DoJE=F BraDBF=F KetDBF=F FulRan=T
         wScrn=  0.000000 ICntrl=       600 IOpCl=  0 I1Cent=           0 NGrid=           0
         NMat0=    1 NMatS0=  37401 NMatT0=    0 NMatD0=    1 NMtDS0=    0 NMtDT0=    0
 Symmetry not used in FoFCou.
 Two-electron integral symmetry not used.
 MDV=  7784628224 DFT=T DoStab=F Mixed=T DoRPA=T DoScal=F NonHer=T
 NEqPCM:  Using equilibrium solvation (IEInf=0, Eps=   2.2280, EpsInf=   2.1319)
 Making orbital integer symmetry assigments:
    12 initial guesses have been made.
 Convergence on wavefunction:    0.000001000000000
 Davidson Disk Diagonalization:  ConvIn= 1.00D-06 SkipCon=T Conv= 1.00D-06.
 Max sub-space:  2000 roots to seek:    12 dimension of matrix:        16692
 Iteration     1 Dimension    12 NMult     0 NNew     12
 CISAX will form    12 AO SS matrices at one time.
 NMat=    12 NSing=    12 JSym2X= 0.
 New state      2 was old state      5
 New state      3 was old state      2
 Excitation Energies [eV] at current iteration:
 Root      1 :     3.739777286538664
 Root      2 :     4.694738992553238
 Root      3 :     4.951146837843561
 Root      4 :     5.194211821115297
 Root      5 :     5.746952044028324
 Root      6 :     6.042465064445474
 Root      7 :     6.298624413636962
 Root      8 :     6.345446405731973
 Root      9 :     6.838259609583740
 Root     10 :     7.043364545386437
 Root     11 :     7.192595079607209
 Root     12 :     7.945762584700615
 Iteration     2 Dimension    18 NMult    12 NNew      6
 CISAX will form     6 AO SS matrices at one time.
 NMat=     6 NSing=     6 JSym2X= 0.
 Root      1 not converged, maximum delta is    0.047991067305093
 New state      2 was old state      3
 Root      2 not converged, maximum delta is    0.076110105339900
 New state      3 was old state      2
 Root      3 not converged, maximum delta is    0.081433620455189
 Excitation Energies [eV] at current iteration:
 Root      1 :     3.241704945232669   Change is   -0.498072341305995
 Root      2 :     4.405627308073175   Change is   -0.545519529770386
 Root      3 :     4.487321512435265   Change is   -0.207417480117972
 Iteration     3 Dimension    24 NMult    18 NNew      6
 CISAX will form     6 AO SS matrices at one time.
 NMat=     6 NSing=     6 JSym2X= 0.
 Root      1 not converged, maximum delta is    0.019128604706358
 Root      2 not converged, maximum delta is    0.017237444941101
 Root      3 not converged, maximum delta is    0.030186088254578
 Excitation Energies [eV] at current iteration:
 Root      1 :     3.208460031475084   Change is   -0.033244913757585
 Root      2 :     4.376489525454500   Change is   -0.029137782618675
 Root      3 :     4.469769633257292   Change is   -0.017551879177973
 Iteration     4 Dimension    30 NMult    24 NNew      6
 CISAX will form     6 AO SS matrices at one time.
 NMat=     6 NSing=     6 JSym2X= 0.
 Root      1 not converged, maximum delta is    0.008021302404807
 Root      2 not converged, maximum delta is    0.008648458020057
 Root      3 not converged, maximum delta is    0.009735214092570
 Excitation Energies [eV] at current iteration:
 Root      1 :     3.203214742095127   Change is   -0.005245289379957
 Root      2 :     4.371033030821578   Change is   -0.005456494632922
 Root      3 :     4.468144316847757   Change is   -0.001625316409536
 Iteration     5 Dimension    36 NMult    30 NNew      6
 CISAX will form     6 AO SS matrices at one time.
 NMat=     6 NSing=     6 JSym2X= 0.
 Root      1 not converged, maximum delta is    0.003121444780826
 Root      2 not converged, maximum delta is    0.002943185543233
 Root      3 not converged, maximum delta is    0.002022359728861
 Excitation Energies [eV] at current iteration:
 Root      1 :     3.202702986081980   Change is   -0.000511756013146
 Root      2 :     4.370517797494682   Change is   -0.000515233326896
 Root      3 :     4.467994734581566   Change is   -0.000149582266190
 Iteration     6 Dimension    42 NMult    36 NNew      6
 CISAX will form     6 AO SS matrices at one time.
 NMat=     6 NSing=     6 JSym2X= 0.
 Root      1 not converged, maximum delta is    0.000488517113123
 Root      2 not converged, maximum delta is    0.000888106584009
 Root      3 not converged, maximum delta is    0.000268790037916
 Excitation Energies [eV] at current iteration:
 Root      1 :     3.202648454672182   Change is   -0.000054531409799
 Root      2 :     4.370449943171805   Change is   -0.000067854322877
 Root      3 :     4.467984085512369   Change is   -0.000010649069197
 Iteration     7 Dimension    48 NMult    42 NNew      6
 CISAX will form     6 AO SS matrices at one time.
 NMat=     6 NSing=     6 JSym2X= 0.
 Root      1 not converged, maximum delta is    0.000160740242942
 Root      2 not converged, maximum delta is    0.000515787902090
 Root      3 not converged, maximum delta is    0.000078726464725
 Excitation Energies [eV] at current iteration:
 Root      1 :     3.202645100685507   Change is   -0.000003353986675
 Root      2 :     4.370441757007001   Change is   -0.000008186164805
 Root      3 :     4.467983493593753   Change is   -0.000000591918616
 Iteration     8 Dimension    54 NMult    48 NNew      6
 CISAX will form     6 AO SS matrices at one time.
 NMat=     6 NSing=     6 JSym2X= 0.
 Root      1 not converged, maximum delta is    0.000031914777922
 Root      2 not converged, maximum delta is    0.000123115921066
 Root      3 not converged, maximum delta is    0.000038323384372
 Excitation Energies [eV] at current iteration:
 Root      1 :     3.202644837587982   Change is   -0.000000263097525
 Root      2 :     4.370440988583095   Change is   -0.000000768423906
 Root      3 :     4.467983440596351   Change is   -0.000000052997402
 Iteration     9 Dimension    60 NMult    54 NNew      6
 CISAX will form     6 AO SS matrices at one time.
 NMat=     6 NSing=     6 JSym2X= 0.
 Root      1 not converged, maximum delta is    0.000009413463232
 Root      2 not converged, maximum delta is    0.000064074522069
 Root      3 not converged, maximum delta is    0.000011514709782
 Excitation Energies [eV] at current iteration:
 Root      1 :     3.202644821687727   Change is   -0.000000015900255
 Root      2 :     4.370440897858930   Change is   -0.000000090724165
 Root      3 :     4.467983435760533   Change is   -0.000000004835819
 Iteration    10 Dimension    66 NMult    60 NNew      6
 CISAX will form     6 AO SS matrices at one time.
 NMat=     6 NSing=     6 JSym2X= 0.
 Root      1 not converged, maximum delta is    0.000002056630471
 Root      2 not converged, maximum delta is    0.000039785810963
 Root      3 not converged, maximum delta is    0.000003692264323
 Excitation Energies [eV] at current iteration:
 Root      1 :     3.202644820633978   Change is   -0.000000001053749
 Root      2 :     4.370440881941266   Change is   -0.000000015917664
 Root      3 :     4.467983435352640   Change is   -0.000000000407892
 Iteration    11 Dimension    72 NMult    66 NNew      6
 CISAX will form     6 AO SS matrices at one time.
 NMat=     6 NSing=     6 JSym2X= 0.
 Root      1 has converged.
 Root      2 not converged, maximum delta is    0.000011161178664
 Root      3 not converged, maximum delta is    0.000001742043425
 Excitation Energies [eV] at current iteration:
 Root      1 :     3.202644820562362   Change is   -0.000000000071616
 Root      2 :     4.370440880072730   Change is   -0.000000001868537
 Root      3 :     4.467983435299375   Change is   -0.000000000053266
 Iteration    12 Dimension    76 NMult    72 NNew      4
 CISAX will form     4 AO SS matrices at one time.
 NMat=     4 NSing=     4 JSym2X= 0.
 Root      1 has converged.
 Root      2 not converged, maximum delta is    0.000001415435255
 Root      3 has converged.
 Excitation Energies [eV] at current iteration:
 Root      1 :     3.202644820562131   Change is   -0.000000000000231
 Root      2 :     4.370440879934044   Change is   -0.000000000138685
 Root      3 :     4.467983435289825   Change is   -0.000000000009550
 Iteration    13 Dimension    78 NMult    76 NNew      2
 CISAX will form     2 AO SS matrices at one time.
 NMat=     2 NSing=     2 JSym2X= 0.
 Root      1 has converged.
 Root      2 has converged.
 Root      3 has converged.
 Excitation Energies [eV] at current iteration:
 Root      1 :     3.202644820562080   Change is   -0.000000000000051
 Root      2 :     4.370440879924018   Change is   -0.000000000010025
 Root      3 :     4.467983435289806   Change is   -0.000000000000018
 Convergence achieved on expansion vectors.
 ***********************************************************************
 Excited states from <AA,BB:AA,BB> singles matrix:
 ***********************************************************************
 
 1PDM for each excited state written to RWF  633
 Ground to excited state transition densities written to RWF  633
 Ground to excited state transition electric dipole moments (Au):
       state          X           Y           Z        Dip. S.      Osc.
         1         1.2692     -2.1306     -0.0000      6.1501      0.4826
         2        -1.6751      0.8605      0.0000      3.5467      0.3798
         3        -0.0001      0.0001      0.0103      0.0001      0.0000
 Ground to excited state transition velocity dipole moments (Au):
       state          X           Y           Z        Dip. S.      Osc.
         1        -0.1441      0.2517      0.0000      0.0841      0.4764
         2         0.2639     -0.1286     -0.0000      0.0862      0.3576
         3         0.0000     -0.0000     -0.0023      0.0000      0.0000
 Ground to excited state transition magnetic dipole moments (Au):
       state          X           Y           Z
         1         0.0000      0.0000     -1.0179
         2        -0.0000      0.0000     -1.1078
         3         0.0291      0.0494     -0.0000
 Ground to excited state transition velocity quadrupole moments (Au):
       state          XX          YY          ZZ          XY          XZ          YZ
         1        -0.0528      0.5867     -0.0134     -0.2414     -0.0000      0.0000
         2        -0.3412      0.5976     -0.0024     -0.0182     -0.0000      0.0000
         3        -0.0000      0.0000      0.0000      0.0000     -0.0165     -0.0129
 <0|del|b> * <b|rxdel|0> + <0|del|b> * <b|delr+rdel|0>
 Rotatory Strengths (R) in cgs (10**-40 erg-esu-cm/Gauss)
       state          XX          YY          ZZ    R(velocity)    E-M Angle
         1         0.0131     -0.0178      0.0208      0.0054       90.00
         2        -0.0007      0.0009     -0.0086     -0.0028       90.00
         3        -0.0014      0.0007      0.0002     -0.0002       90.00
 1/2[<0|r|b>*<b|rxdel|0> + (<0|rxdel|b>*<b|r|0>)*]
 Rotatory Strengths (R) in cgs (10**-40 erg-esu-cm/Gauss)
       state          XX          YY          ZZ     R(length)
         1        -0.0067      0.0461     -0.0234      0.0053
         2        -0.0073     -0.0048      0.0043     -0.0026
         3         0.0014     -0.0024      0.0003     -0.0002
  1/2[<0|del|b>*<b|r|0> + (<0|r|b>*<b|del|0>)*] (Au)
       state          X           Y           Z        Dip. S.   Osc.(frdel)
         1        -0.1828     -0.5363     -0.0000      0.7191      0.4794
         2        -0.4420     -0.1106     -0.0000      0.5527      0.3684
         3        -0.0000     -0.0000     -0.0000      0.0000      0.0000

 Excitation energies and oscillator strengths:
 
 Excited state symmetry could not be determined.
 Excited State   1:      Singlet-?Sym    3.2026 eV  387.13 nm  f=0.4826  <S**2>=0.000
      59 -> 60         0.69392
 This state for optimization and/or second-order correction.
 Total Energy, E(TD-HF/TD-DFT) =  -1028.69295086    
 Copying the excited state density for this state as the 1-particle RhoCI density.
 
 Excited state symmetry could not be determined.
 Excited State   2:      Singlet-?Sym    4.3704 eV  283.69 nm  f=0.3798  <S**2>=0.000
      57 -> 60        -0.11061
      58 -> 60         0.67025
 
 Excited state symmetry could not be determined.
 Excited State   3:      Singlet-?Sym    4.4680 eV  277.49 nm  f=0.0000  <S**2>=0.000
      56 -> 60         0.68788
      56 -> 64        -0.10709
 SavETr:  write IOETrn=   770 NScale= 10 NData=  16 NLR=1 NState=    3 LETran=      64.
 The selected state is a singlet.
 CISGrd: IGrad=2 NXY=2 DFT=T
 CISAX will form     1 AO SS matrices at one time.
 NMat=     1 NSing=     1 JSym2X= 0.
 GePol: Maximum number of non-zero 1st derivatives   =     264
 Leave Link  914 at Mon Jul 13 14:59:00 2020, MaxMem=  7784628224 cpu:            1783.2 elap:             181.3
 (Enter /gpfs/loomis/apps/avx/software/Gaussian/16-C.01_AVX/g16/l1002.exe)
 Minotr:  Closed shell wavefunction.
          Computing CIS/TDA/TD derivatives.
          Using Z-Vector for PSCF gradient.
          Skipping F1 and S1 gradient terms here.
          IDoAtm=1111111111111111111111111
 NEqPCM:  Using equilibrium solvation (IEInf=0, Eps=   2.2280, EpsInf=   2.1319)
          Frozen-core window.
          Direct CPHF calculation.
          Differentiating once with respect to electric field.
                with respect to dipole field.
          Differentiating once with respect to nuclear coordinates.
          Requested convergence is 1.0D-10 RMS, and 1.0D-09 maximum.
          NewPWx=F KeepS1=T KeepF1=T KeepIn=T MapXYZ=F SortEE=F KeepMc=T.
 Keep R1 ints in memory in canonical form, NReq=1421535568.
 FoFCou: FMM=F IPFlag=           0 FMFlag=           0 FMFlg1=           0
         NFxFlg=           0 DoJE=F BraDBF=F KetDBF=F FulRan=T
         wScrn=  0.000000 ICntrl=       600 IOpCl=  0 I1Cent=           0 NGrid=           0
         NMat0=    1 NMatS0=  37401 NMatT0=    0 NMatD0=    1 NMtDS0=    0 NMtDT0=    0
 Symmetry not used in FoFCou.
 Two-electron integral symmetry not used.
          MDV=    7784628224 using IRadAn=       5.
          Solving linear equations separately, MaxMat=       0.
          There are     1 degrees of freedom in the 1st order CPHF.  IDoFFX=0 NUNeed=     1.
 LinEq1:  Iter=  0 NonCon=     1 RMS=5.76D-03 Max=3.38D-01 NDo=     1
 AX will form     1 AO Fock derivatives at one time.
 LinEq1:  Iter=  1 NonCon=     1 RMS=2.49D-03 Max=1.29D-01 NDo=     1
 LinEq1:  Iter=  2 NonCon=     1 RMS=1.55D-03 Max=5.16D-02 NDo=     1
 LinEq1:  Iter=  3 NonCon=     1 RMS=5.81D-04 Max=1.40D-02 NDo=     1
 LinEq1:  Iter=  4 NonCon=     1 RMS=3.23D-04 Max=1.02D-02 NDo=     1
 LinEq1:  Iter=  5 NonCon=     1 RMS=1.62D-04 Max=7.01D-03 NDo=     1
 LinEq1:  Iter=  6 NonCon=     1 RMS=7.14D-05 Max=2.79D-03 NDo=     1
 LinEq1:  Iter=  7 NonCon=     1 RMS=3.77D-05 Max=1.28D-03 NDo=     1
 LinEq1:  Iter=  8 NonCon=     1 RMS=1.58D-05 Max=4.68D-04 NDo=     1
 LinEq1:  Iter=  9 NonCon=     1 RMS=8.82D-06 Max=2.61D-04 NDo=     1
 LinEq1:  Iter= 10 NonCon=     1 RMS=3.72D-06 Max=1.15D-04 NDo=     1
 LinEq1:  Iter= 11 NonCon=     1 RMS=2.08D-06 Max=9.55D-05 NDo=     1
 LinEq1:  Iter= 12 NonCon=     1 RMS=1.01D-06 Max=3.24D-05 NDo=     1
 LinEq1:  Iter= 13 NonCon=     1 RMS=4.07D-07 Max=1.15D-05 NDo=     1
 LinEq1:  Iter= 14 NonCon=     1 RMS=1.85D-07 Max=5.32D-06 NDo=     1
 LinEq1:  Iter= 15 NonCon=     1 RMS=9.22D-08 Max=3.22D-06 NDo=     1
 LinEq1:  Iter= 16 NonCon=     1 RMS=3.76D-08 Max=1.17D-06 NDo=     1
 LinEq1:  Iter= 17 NonCon=     1 RMS=1.73D-08 Max=6.83D-07 NDo=     1
 LinEq1:  Iter= 18 NonCon=     1 RMS=6.29D-09 Max=1.75D-07 NDo=     1
 LinEq1:  Iter= 19 NonCon=     1 RMS=3.22D-09 Max=9.56D-08 NDo=     1
 LinEq1:  Iter= 20 NonCon=     1 RMS=1.47D-09 Max=4.55D-08 NDo=     1
 LinEq1:  Iter= 21 NonCon=     1 RMS=3.70D-10 Max=8.14D-09 NDo=     1
 LinEq1:  Iter= 22 NonCon=     1 RMS=1.49D-10 Max=3.25D-09 NDo=     1
 LinEq1:  Iter= 23 NonCon=     1 RMS=6.59D-11 Max=1.41D-09 NDo=     1
 LinEq1:  Iter= 24 NonCon=     0 RMS=2.04D-11 Max=6.18D-10 NDo=     1
 Linear equations converged to 1.000D-10 1.000D-09 after    24 iterations.
 End of Minotr F.D. properties file   721 does not exist.
 End of Minotr F.D. properties file   722 does not exist.
 End of Minotr F.D. properties file   788 does not exist.
 Leave Link 1002 at Mon Jul 13 15:00:38 2020, MaxMem=  7784628224 cpu:             748.1 elap:              98.4
 (Enter /gpfs/loomis/apps/avx/software/Gaussian/16-C.01_AVX/g16/l601.exe)
 Copying SCF densities to generalized density rwf, IOpCl= 0 IROHF=0.

 **********************************************************************

            Population analysis using the SCF Density.

 **********************************************************************

 Alpha  occ. eigenvalues --  -89.09958 -19.24089 -14.49537 -10.40965 -10.36982
 Alpha  occ. eigenvalues --  -10.36399 -10.35650 -10.32865 -10.32219 -10.31989
 Alpha  occ. eigenvalues --  -10.31929 -10.31909 -10.31662 -10.31384 -10.29751
 Alpha  occ. eigenvalues --  -10.29275  -8.11917  -6.06779  -6.06425  -6.05955
 Alpha  occ. eigenvalues --   -1.13534  -1.09731  -0.97439  -0.95335  -0.92654
 Alpha  occ. eigenvalues --   -0.88978  -0.85789  -0.83839  -0.82050  -0.75914
 Alpha  occ. eigenvalues --   -0.71522  -0.71078  -0.68526  -0.68076  -0.63835
 Alpha  occ. eigenvalues --   -0.60851  -0.59327  -0.57609  -0.55378  -0.54844
 Alpha  occ. eigenvalues --   -0.54383  -0.53461  -0.52732  -0.51018  -0.49944
 Alpha  occ. eigenvalues --   -0.49408  -0.47455  -0.46449  -0.45445  -0.45053
 Alpha  occ. eigenvalues --   -0.44084  -0.43116  -0.42020  -0.40699  -0.36616
 Alpha  occ. eigenvalues --   -0.34586  -0.32911  -0.31234  -0.27199
 Alpha virt. eigenvalues --   -0.01821   0.04366   0.06484   0.06778   0.08252
 Alpha virt. eigenvalues --    0.10597   0.13598   0.14899   0.16201   0.17735
 Alpha virt. eigenvalues --    0.18831   0.20693   0.21477   0.21958   0.22717
 Alpha virt. eigenvalues --    0.23683   0.23853   0.24821   0.28368   0.29737
 Alpha virt. eigenvalues --    0.31951   0.33228   0.35353   0.35853   0.36805
 Alpha virt. eigenvalues --    0.38424   0.38760   0.40519   0.42595   0.43254
 Alpha virt. eigenvalues --    0.46812   0.47949   0.50097   0.51365   0.51596
 Alpha virt. eigenvalues --    0.52490   0.53133   0.53600   0.54672   0.55087
 Alpha virt. eigenvalues --    0.56094   0.56131   0.56555   0.57083   0.58194
 Alpha virt. eigenvalues --    0.58306   0.58420   0.58990   0.59521   0.60156
 Alpha virt. eigenvalues --    0.60407   0.60940   0.62130   0.62360   0.63005
 Alpha virt. eigenvalues --    0.65207   0.65296   0.66858   0.67731   0.68868
 Alpha virt. eigenvalues --    0.70326   0.70606   0.72033   0.72557   0.72632
 Alpha virt. eigenvalues --    0.72969   0.74710   0.75201   0.76171   0.77401
 Alpha virt. eigenvalues --    0.79138   0.79190   0.80021   0.81846   0.82107
 Alpha virt. eigenvalues --    0.83103   0.88486   0.88928   0.90842   0.92964
 Alpha virt. eigenvalues --    0.94396   0.94932   0.96007   0.96430   0.96969
 Alpha virt. eigenvalues --    0.98643   0.98795   1.00033   1.00274   1.01477
 Alpha virt. eigenvalues --    1.02605   1.05155   1.06096   1.06943   1.07470
 Alpha virt. eigenvalues --    1.08119   1.08669   1.10220   1.11128   1.11705
 Alpha virt. eigenvalues --    1.12236   1.12408   1.13126   1.15116   1.15155
 Alpha virt. eigenvalues --    1.16127   1.19231   1.20113   1.23122   1.23491
 Alpha virt. eigenvalues --    1.26291   1.27923   1.33363   1.34052   1.34402
 Alpha virt. eigenvalues --    1.34742   1.36678   1.38341   1.41034   1.46632
 Alpha virt. eigenvalues --    1.49158   1.49681   1.51167   1.53848   1.55140
 Alpha virt. eigenvalues --    1.56669   1.56770   1.57337   1.58894   1.59415
 Alpha virt. eigenvalues --    1.59889   1.60036   1.65031   1.66715   1.67341
 Alpha virt. eigenvalues --    1.68594   1.69628   1.70046   1.70086   1.71160
 Alpha virt. eigenvalues --    1.71800   1.72455   1.73413   1.73572   1.75245
 Alpha virt. eigenvalues --    1.77349   1.79692   1.80588   1.80869   1.83164
 Alpha virt. eigenvalues --    1.83219   1.83840   1.84798   1.85030   1.85226
 Alpha virt. eigenvalues --    1.87226   1.88748   1.89454   1.90220   1.92193
 Alpha virt. eigenvalues --    1.92368   1.93208   1.93479   1.95023   1.96050
 Alpha virt. eigenvalues --    1.97828   2.00297   2.01458   2.02738   2.04094
 Alpha virt. eigenvalues --    2.04820   2.07709   2.09408   2.10749   2.13434
 Alpha virt. eigenvalues --    2.15044   2.15900   2.17124   2.20974   2.24097
 Alpha virt. eigenvalues --    2.26970   2.30857   2.30982   2.38751   2.40317
 Alpha virt. eigenvalues --    2.41164   2.42585   2.43120   2.45807   2.47092
 Alpha virt. eigenvalues --    2.48480   2.50760   2.52667   2.53164   2.61972
 Alpha virt. eigenvalues --    2.62399   2.71112   2.74000   2.74698   2.80166
 Alpha virt. eigenvalues --    2.81850   2.83920   2.85635   2.89887   2.90675
 Alpha virt. eigenvalues --    2.92853   3.02703   3.11140   3.21363   3.39694
 Alpha virt. eigenvalues --    3.47629   3.57074   3.61136   3.84735
          Condensed to atoms (all electrons):
               1          2          3          4          5          6
     1  C    4.724937   0.483221   0.004126  -0.050633  -0.013215   0.522242
     2  C    0.483221   5.319645   0.330221  -0.048448  -0.065605  -0.010285
     3  C    0.004126   0.330221   4.793861   0.509968  -0.004690  -0.063841
     4  C   -0.050633  -0.048448   0.509968   4.771014   0.523262  -0.014916
     5  C   -0.013215  -0.065605  -0.004690   0.523262   4.723275   0.495775
     6  C    0.522242  -0.010285  -0.063841  -0.014916   0.495775   4.738214
     7  H    0.403325  -0.039778   0.008654  -0.000525   0.008139  -0.038665
     8  H   -0.000679   0.011117  -0.027854   0.393361  -0.042296   0.007564
     9  H    0.008702  -0.000468   0.008426  -0.038609   0.405086  -0.044533
    10  H   -0.042131   0.009586  -0.000542   0.008674  -0.043312   0.406720
    11  N    0.005291  -0.050046   0.408513  -0.042766   0.002918   0.000235
    12  S   -0.064133   0.337083  -0.114526   0.005483   0.000250   0.003626
    13  C   -0.000180   0.002552   0.010087  -0.000680   0.000009   0.000001
    14  C   -0.000005   0.000084   0.000172   0.000006  -0.000000  -0.000000
    15  C    0.000002  -0.000352   0.000824   0.000077  -0.000000   0.000000
    16  C    0.000000  -0.000002   0.000004  -0.000000   0.000000   0.000000
    17  H   -0.000004   0.000075   0.000001  -0.000000   0.000000  -0.000000
    18  C    0.000000   0.000007  -0.000024  -0.000000  -0.000000  -0.000000
    19  C   -0.000000   0.000000   0.000001  -0.000000   0.000000   0.000000
    20  H   -0.000000  -0.000000  -0.000000   0.000000   0.000000  -0.000000
    21  H   -0.000000   0.000000   0.000001  -0.000000   0.000000   0.000000
    22  H    0.000000  -0.000000  -0.000000  -0.000000   0.000000  -0.000000
    23  C    0.003628  -0.049595  -0.113774   0.001591   0.000238  -0.000177
    24  O    0.000002  -0.000117  -0.001328  -0.000064  -0.000001  -0.000000
    25  H    0.000016   0.005378  -0.019006  -0.002583  -0.000050   0.000005
               7          8          9         10         11         12
     1  C    0.403325  -0.000679   0.008702  -0.042131   0.005291  -0.064133
     2  C   -0.039778   0.011117  -0.000468   0.009586  -0.050046   0.337083
     3  C    0.008654  -0.027854   0.008426  -0.000542   0.408513  -0.114526
     4  C   -0.000525   0.393361  -0.038609   0.008674  -0.042766   0.005483
     5  C    0.008139  -0.042296   0.405086  -0.043312   0.002918   0.000250
     6  C   -0.038665   0.007564  -0.044533   0.406720   0.000235   0.003626
     7  H    0.655097   0.000031  -0.000144  -0.011872  -0.000105  -0.006825
     8  H    0.000031   0.647841  -0.012034  -0.000123  -0.003000  -0.000211
     9  H   -0.000144  -0.012034   0.662361  -0.012291  -0.000114   0.000022
    10  H   -0.011872  -0.000123  -0.012291   0.661538   0.000002  -0.000142
    11  N   -0.000105  -0.003000  -0.000114   0.000002   6.374687  -0.060427
    12  S   -0.006825  -0.000211   0.000022  -0.000142  -0.060427  15.445305
    13  C    0.000005   0.000048  -0.000000  -0.000000  -0.024295  -0.061908
    14  C    0.000000   0.000001   0.000000  -0.000000   0.003124  -0.006717
    15  C   -0.000000  -0.000009   0.000000   0.000000  -0.008102   0.003832
    16  C   -0.000000  -0.000000  -0.000000   0.000000  -0.000094  -0.000022
    17  H    0.000001   0.000000  -0.000000  -0.000000   0.000233   0.006546
    18  C   -0.000000  -0.000000  -0.000000  -0.000000  -0.000595  -0.000120
    19  C    0.000000   0.000000  -0.000000  -0.000000   0.000054   0.000021
    20  H    0.000000  -0.000000   0.000000   0.000000   0.000001   0.000001
    21  H   -0.000000   0.000000  -0.000000   0.000000   0.000025   0.000004
    22  H    0.000000  -0.000000  -0.000000  -0.000000  -0.000000  -0.000000
    23  C    0.000114  -0.000760   0.000007   0.000004   0.530189   0.324803
    24  O   -0.000000  -0.000255   0.000000  -0.000000  -0.084871  -0.000344
    25  H    0.000002   0.001183  -0.000007  -0.000000   0.223785   0.002949
              13         14         15         16         17         18
     1  C   -0.000180  -0.000005   0.000002   0.000000  -0.000004   0.000000
     2  C    0.002552   0.000084  -0.000352  -0.000002   0.000075   0.000007
     3  C    0.010087   0.000172   0.000824   0.000004   0.000001  -0.000024
     4  C   -0.000680   0.000006   0.000077  -0.000000  -0.000000  -0.000000
     5  C    0.000009  -0.000000  -0.000000   0.000000   0.000000  -0.000000
     6  C    0.000001  -0.000000   0.000000   0.000000  -0.000000  -0.000000
     7  H    0.000005   0.000000  -0.000000  -0.000000   0.000001  -0.000000
     8  H    0.000048   0.000001  -0.000009  -0.000000   0.000000  -0.000000
     9  H   -0.000000   0.000000   0.000000  -0.000000  -0.000000  -0.000000
    10  H   -0.000000  -0.000000   0.000000   0.000000  -0.000000  -0.000000
    11  N   -0.024295   0.003124  -0.008102  -0.000094   0.000233  -0.000595
    12  S   -0.061908  -0.006717   0.003832  -0.000022   0.006546  -0.000120
    13  C    5.366331   0.459675   0.240239  -0.007162  -0.040241  -0.040880
    14  C    0.459675   4.817797   0.004853   0.533710   0.400106  -0.056807
    15  C    0.240239   0.004853   4.753089  -0.059382   0.007128   0.497876
    16  C   -0.007162   0.533710  -0.059382   4.759417  -0.033980  -0.019719
    17  H   -0.040241   0.400106   0.007128  -0.033980   0.677444  -0.000761
    18  C   -0.040880  -0.056807   0.497876  -0.019719  -0.000761   4.825289
    19  C   -0.051123  -0.018015  -0.010411   0.485998   0.008377   0.513017
    20  H    0.008997  -0.036084  -0.000197   0.400820  -0.012574   0.008330
    21  H    0.014025  -0.000585  -0.022694   0.007470   0.000048   0.375205
    22  H   -0.001305   0.009362   0.009021  -0.045383  -0.000174  -0.040646
    23  C    0.346028  -0.092934  -0.079103   0.006921  -0.020054   0.007661
    24  O   -0.084665   0.005149   0.566123  -0.000039  -0.000066  -0.061123
    25  H   -0.023916  -0.000559  -0.026717   0.000006  -0.000029   0.003888
              19         20         21         22         23         24
     1  C   -0.000000  -0.000000  -0.000000   0.000000   0.003628   0.000002
     2  C    0.000000  -0.000000   0.000000  -0.000000  -0.049595  -0.000117
     3  C    0.000001  -0.000000   0.000001  -0.000000  -0.113774  -0.001328
     4  C   -0.000000   0.000000  -0.000000  -0.000000   0.001591  -0.000064
     5  C    0.000000   0.000000   0.000000   0.000000   0.000238  -0.000001
     6  C    0.000000  -0.000000   0.000000  -0.000000  -0.000177  -0.000000
     7  H    0.000000   0.000000  -0.000000   0.000000   0.000114  -0.000000
     8  H    0.000000  -0.000000   0.000000  -0.000000  -0.000760  -0.000255
     9  H   -0.000000   0.000000  -0.000000  -0.000000   0.000007   0.000000
    10  H   -0.000000   0.000000   0.000000  -0.000000   0.000004  -0.000000
    11  N    0.000054   0.000001   0.000025  -0.000000   0.530189  -0.084871
    12  S    0.000021   0.000001   0.000004  -0.000000   0.324803  -0.000344
    13  C   -0.051123   0.008997   0.014025  -0.001305   0.346028  -0.084665
    14  C   -0.018015  -0.036084  -0.000585   0.009362  -0.092934   0.005149
    15  C   -0.010411  -0.000197  -0.022694   0.009021  -0.079103   0.566123
    16  C    0.485998   0.400820   0.007470  -0.045383   0.006921  -0.000039
    17  H    0.008377  -0.012574   0.000048  -0.000174  -0.020054  -0.000066
    18  C    0.513017   0.008330   0.375205  -0.040646   0.007661  -0.061123
    19  C    4.727637  -0.047258  -0.046390   0.404809   0.000507   0.003704
    20  H   -0.047258   0.684809  -0.000165  -0.012313  -0.000367   0.000002
    21  H   -0.046390  -0.000165   0.671789  -0.012397  -0.000426   0.004474
    22  H    0.404809  -0.012313  -0.012397   0.670570   0.000005  -0.000076
    23  C    0.000507  -0.000367  -0.000426   0.000005   5.074357  -0.007749
    24  O    0.003704   0.000002   0.004474  -0.000076  -0.007749   7.808251
    25  H   -0.000320  -0.000001   0.000010   0.000009  -0.000172   0.212583
              25
     1  C    0.000016
     2  C    0.005378
     3  C   -0.019006
     4  C   -0.002583
     5  C   -0.000050
     6  C    0.000005
     7  H    0.000002
     8  H    0.001183
     9  H   -0.000007
    10  H   -0.000000
    11  N    0.223785
    12  S    0.002949
    13  C   -0.023916
    14  C   -0.000559
    15  C   -0.026717
    16  C    0.000006
    17  H   -0.000029
[...]
 06638,0.,0.00005911,0.00003917,0.,0.00006163,-0.00003712,0.,0.00004743
 ,0.00000729,0.,-0.00377506,0.00929920,0.00000015,-0.00187368,0.0009701
 4,0.,-0.04506380,0.02193751,0.00000022,-0.19129421,0.12912274,0.000001
 88,0.00825087,0.00009111,0.00000003,0.72801471,-0.00011155,-0.00257808
 ,0.00000004,-0.01132127,-0.00567864,0.00000005,-0.01288098,0.01976092,
 0.00000010,0.01212534,-0.00247535,-0.00000009,0.00002611,0.00934461,0.
 00000006,-0.00391155,-0.00351439,-0.00000002,0.00006016,0.00021703,0.,
 -0.00011560,-0.00014483,0.,-0.00014406,0.00015165,0.,-0.00007897,-0.00
 005123,0.,0.01447239,-0.02162439,-0.00000032,0.00314069,-0.00504040,-0
 .00000004,0.05860870,0.02127805,0.00000052,0.03937705,-0.23728085,-0.0
 0000307,0.00973942,-0.00572326,0.00000020,0.02488824,0.61508637,-0.000
 00001,-0.00000004,-0.00003798,-0.00000020,-0.00000010,-0.00007319,-0.0
 0000024,0.00000036,-0.00026639,0.00000022,-0.00000004,-0.00023279,0.,0
 .00000017,-0.00001882,-0.00000006,-0.00000006,0.00001080,0.,0.,-0.0000
 2628,0.,0.,-0.00001587,0.,0.,0.00001643,0.,0.,0.00003828,0.00000026,-0
 .00000039,0.00232764,0.00000005,-0.00000011,-0.00011333,0.00000087,0.0
 0000043,0.00203713,0.00000032,-0.00000290,-0.05208956,0.00000024,-0.00
 000002,-0.00469945,0.00000165,0.00000873,0.12967473,0.00023055,0.00001
 036,0.,-0.00068585,0.00017736,0.00000002,0.00035690,-0.00009870,0.,0.0
 0000618,0.00008542,0.,0.00006205,0.00003264,0.,-0.00004983,-0.00007028
 ,0.,-0.00001618,-0.00000200,0.,0.00002921,0.00000219,0.,0.00000646,-0.
 00000128,0.,0.00002922,-0.00000424,0.,0.00036189,0.00071991,0.00000003
 ,-0.00064973,0.00136293,-0.00000003,-0.00614709,-0.02919591,-0.0000005
 3,-0.09845669,-0.10044486,-0.00000193,-0.00479706,0.00306319,0.,0.0108
 4667,0.01937847,0.00000037,0.10111212,0.00003285,-0.00003274,0.,-0.000
 22861,0.00036656,0.,0.00017843,0.00017415,0.,0.00005031,0.00002673,0.,
 0.00001588,0.00009691,0.,-0.00009318,-0.00004935,0.,-0.00000987,0.0000
 1428,0.,0.00001203,-0.00000586,0.,-0.00000272,0.00000109,0.,-0.0000015
 8,0.00000232,0.,0.00017079,0.00054068,0.00000005,-0.00022004,-0.000455
 89,0.,0.00158217,-0.00089004,-0.00000009,-0.09917964,-0.30164039,-0.00
 000503,0.00074476,0.00174735,-0.00000012,-0.01233506,-0.01789717,-0.00
 000039,0.10555234,0.31902876,0.,0.,-0.00003435,0.,0.00000002,-0.000305
 92,0.00000003,-0.00000003,0.00031176,-0.00000001,0.,0.00008686,0.,0.,0
 .00000420,0.,0.,0.00001661,0.,0.,0.00000806,0.,0.,0.00001204,0.,0.,-0.
 00000149,0.,0.,-0.00000497,0.,0.00000008,-0.00184360,-0.00000004,0.000
 00002,0.00055097,0.00000006,-0.00000022,0.00467479,-0.00000195,-0.0000
 0507,-0.03294164,0.,-0.00000007,0.00811597,-0.00000019,-0.00000031,0.0
 0264715,0.00000208,0.00000556,0.02107979,-0.00148561,0.00046892,0.0000
 0005,-0.00440340,-0.00393734,0.,-0.00627524,0.01318964,-0.00000002,0.0
 0656351,-0.00128477,-0.00000003,-0.00026203,0.00332307,0.00000003,0.00
 056979,-0.00171879,-0.00000002,-0.00010900,0.00011042,0.,0.00005807,-0
 .00003165,0.,0.00007350,0.00003033,0.,0.00007350,-0.00005776,0.,0.0141
 8645,0.00128424,0.00000021,-0.00005818,-0.00429282,0.,0.02264740,0.017
 95593,0.00000042,-0.02961423,0.02475389,0.00000027,-0.15563292,0.07999
 100,0.00000136,-0.01503779,-0.07237449,-0.00000136,-0.00067837,0.00005
 974,0.,0.71929466,0.00054784,-0.00007721,-0.00000001,-0.00041696,-0.00
 046214,0.,0.00061828,-0.00038850,0.,-0.00075766,0.00017178,0.,0.000177
 22,-0.00023037,0.,-0.00031372,0.00000695,0.,-0.00000506,0.00001973,0.,
 -0.00002980,-0.00000670,0.,-0.00001091,-0.00000985,0.,0.00001776,0.000
 00677,0.,0.00144043,0.00015311,0.00000004,0.00130267,-0.00156904,-0.00
 000006,0.01626939,-0.03487471,-0.00000068,0.00245500,-0.00198777,0.000
 00003,0.09994107,-0.25694111,-0.00000348,-0.03424270,-0.00606074,-0.00
 000025,-0.00016460,0.00068360,0.00000003,0.04458464,0.70926942,0.00000
 003,0.,0.00012779,0.00000002,0.00000004,0.00067669,0.00000010,-0.00000
 010,0.00177611,-0.00000006,0.,-0.00033052,0.00000001,-0.00000003,-0.00
 004444,-0.00000001,0.00000002,-0.00010396,0.,0.,0.00010987,0.,0.,0.000
 07842,0.,0.,0.00003028,0.,0.,-0.00006303,-0.00000003,0.00000034,-0.006
 47434,0.,-0.00000007,0.00129667,0.00000026,-0.00000075,0.01159910,-0.0
 0000003,0.00000014,-0.00300871,0.00000169,-0.00000361,-0.06609897,-0.0
 0000065,-0.00000041,0.00562757,0.,0.00000004,-0.00116616,0.00000174,0.
 00001119,0.10845813,0.00156880,0.00047683,-0.00000005,0.00750269,0.005
 84131,-0.00000003,0.01135594,-0.01915538,-0.00000006,-0.01012870,0.002
 05697,0.00000007,0.00030531,-0.00621078,-0.00000005,0.00077677,0.00291
 817,0.00000003,0.00005359,-0.00012164,0.,0.00003313,0.00007779,0.,-0.0
 0004063,-0.00006328,0.,-0.00002635,0.00007584,0.,-0.01933382,0.0132177
 4,0.00000019,0.00018113,0.00463138,0.,-0.01894154,-0.01887283,-0.00000
 038,0.06209858,-0.00814384,0.00000003,-0.04924413,0.02265197,0.0000001
 1,-0.14735103,-0.01181350,-0.00000031,-0.00228836,0.00458544,0.0000000
 5,-0.35800535,-0.05961586,-0.00000126,0.69666373,0.00007952,0.00077893
 ,-0.00000001,0.00210590,0.00094645,0.00000002,0.00337195,-0.00326935,0
 .00000005,-0.00290564,0.00064400,0.00000001,0.00003849,-0.00222815,-0.
 00000002,0.00100850,0.00053220,0.,-0.00003562,-0.00002702,0.,0.0000316
 9,0.00000283,0.,0.00004484,-0.00005148,0.,0.00003083,0.00002620,0.,0.0
 0029372,0.00773266,-0.00000005,-0.00160272,0.00059939,-0.00000002,-0.0
 2359680,-0.01124038,-0.00000025,0.03974810,-0.06044855,-0.00000114,0.0
 1333687,0.02351764,0.00000025,-0.09803186,-0.28927609,-0.00000441,0.00
 345987,-0.00124385,-0.00000009,-0.01148655,-0.12241904,-0.00000139,-0.
 05173463,0.68985085,0.,0.00000001,0.00017610,0.00000004,0.00000001,-0.
 00036964,0.00000005,-0.00000004,-0.00113797,-0.00000005,0.00000001,0.0
 0009945,0.,-0.00000004,0.00008933,0.00000002,0.,0.00000871,0.,0.,-0.00
 004666,0.,0.,-0.00011058,0.,0.,-0.00000337,0.,0.,0.00000169,0.00000003
 ,0.00000010,0.00191889,-0.00000003,0.00000002,0.00027157,-0.00000048,-
 0.00000023,-0.00179552,0.00000082,-0.00000122,0.00831033,0.00000017,0.
 00000054,0.00251308,-0.00000190,-0.00000437,-0.05899954,0.00000005,-0.
 00000010,0.00439349,-0.00000049,-0.00000149,-0.04834043,-0.00000035,0.
 00001077,0.11077549,0.00006091,-0.00009100,0.,-0.00011179,0.00009999,0
 .,-0.00000950,-0.00006732,0.,0.00001216,0.00002090,0.,0.00000994,0.000
 09172,0.,-0.00013898,-0.00000263,0.,0.00000585,0.00000816,0.,-0.000002
 15,-0.00000550,0.,-0.00001215,0.00000616,0.,-0.00000883,0.00000463,0.,
 -0.00015670,0.00042570,0.,0.00005704,-0.00003072,0.,0.00027893,0.00329
 378,0.00000005,-0.01410859,-0.00687995,-0.00000017,0.00059273,0.000264
 14,0.,-0.33923823,-0.04808167,-0.00000141,0.00075901,0.00007942,0.,0.0
 0143746,-0.00187632,-0.00000005,-0.00588959,0.00218497,0.00000002,0.35
 689023,0.00000057,0.00000035,0.,-0.00007872,-0.00011053,0.,-0.00000609
 ,0.00025780,0.,0.00009670,-0.00006316,0.,0.00001278,0.00006905,0.,-0.0
 0001313,-0.00003686,0.,-0.00000032,-0.00000058,0.,-0.00000013,0.000000
 22,0.,0.00000272,-0.00000307,0.,0.00000212,-0.00000174,0.,0.00045441,-
 0.00038512,0.00000001,0.00002924,-0.00000054,0.,0.00339943,-0.00411641
 ,-0.00000016,0.02384394,0.00773960,0.00000008,0.00052693,-0.00102914,0
 .,-0.04841600,-0.06785825,-0.00000067,-0.00019074,0.00089010,0.0000000
 7,-0.00111506,-0.00538357,-0.00000021,-0.02903995,0.00106199,-0.000000
 14,0.05126353,0.06675089,0.,0.,-0.00001970,0.,0.,0.00004497,0.,0.00000
 001,0.00051400,0.00000001,0.,0.00010390,0.,0.,-0.00006556,0.,0.,0.0000
 1143,0.,0.,0.00000945,0.,0.,0.00003506,0.,0.,-0.00002219,0.,0.,-0.0000
 0323,0.,-0.00000002,-0.00052398,0.,0.,-0.00011816,0.00000003,-0.000000
 16,0.00540637,0.00000036,0.00000001,0.00662583,0.,0.,-0.00132238,-0.00
 000136,-0.00000068,-0.03763565,0.,0.00000007,-0.00306499,0.,-0.0000002
 0,0.00552891,-0.00000056,-0.00000009,0.00675105,0.00000153,0.00000090,
 0.02245411,-0.00009575,0.00002473,0.,0.00007204,0.00005041,0.,-0.00012
 808,0.00007194,0.,0.00004843,-0.00000144,0.,-0.00002147,-0.00001994,0.
 ,0.00006994,0.00000553,0.,0.00000127,-0.00000500,0.,-0.00000485,0.0000
 0143,0.,0.00000332,-0.00000032,0.,-0.00000221,-0.00000193,0.,0.0002160
 2,-0.00045548,-0.00000002,-0.00027420,0.00011243,0.,-0.00345754,0.0029
 6778,0.00000003,0.00020694,0.00015667,0.,0.00897078,0.02006928,0.00000
 039,-0.00581207,0.00075972,0.,0.00010696,-0.00010203,0.,-0.09733600,-0
 .10275415,-0.00000196,-0.00375715,-0.02831632,-0.00000055,-0.00039181,
 -0.00140759,-0.00000003,0.09776415,0.00006617,0.00003625,0.,-0.0001195
 2,-0.00006792,0.,0.00012566,0.00004899,0.,-0.00000704,-0.00000766,0.,0
 .00000498,-0.00002132,0.,0.00002302,-0.00002205,0.,-0.00000669,0.00000
 328,0.,0.00000815,0.00000204,0.,0.00000622,-0.00000199,0.,0.00000903,-
 0.00000158,0.,-0.00029371,0.00050746,0.00000001,0.00026196,-0.00018640
 ,0.,0.00400961,-0.00178163,-0.00000009,0.00016983,0.00030871,0.0000000
 2,-0.01325536,-0.01810966,-0.00000044,-0.00016882,0.00125622,-0.000000
 11,-0.00008358,-0.00006162,0.,-0.10010191,-0.30770856,-0.00000525,0.00
 236852,0.00113468,-0.00000007,0.00009226,-0.00006278,0.00000001,0.1088
 3832,0.32261744,0.,0.,-0.00034029,-0.00000002,0.,-0.00014235,-0.000000
 01,0.00000002,0.00031331,0.00000001,0.,0.00000822,0.,0.00000001,-0.000
 05867,0.,0.,0.00004806,0.,0.,-0.00001005,0.,0.,0.00004922,0.,0.,-0.000
 00498,0.,0.,0.00006359,0.,-0.00000004,0.00014978,0.00000002,0.,-0.0004
 0507,0.00000008,-0.00000004,0.00342066,0.,0.,-0.00039664,-0.00000038,-
 0.00000042,0.00369281,0.,-0.00000010,0.00641487,0.,0.,-0.00032405,-0.0
 0000187,-0.00000533,-0.03226678,0.00000003,-0.00000006,0.00439540,0.,0
 .,-0.00053670,0.00000213,0.00000577,0.02185732,0.00003930,-0.00002929,
 0.,-0.00007159,0.00007325,0.,0.00015244,0.00001985,0.,-0.00000266,0.00
 000089,0.,0.00001140,0.00004868,0.,-0.00006818,-0.00001226,0.,0.000000
 19,0.00000626,0.,0.00000237,-0.00000455,0.,-0.00000682,0.00000246,0.,-
 0.00000377,0.00000326,0.,0.00021709,0.00069708,0.00000002,-0.00003406,
 0.00008497,0.,-0.00008674,-0.00066694,-0.00000001,-0.00040853,-0.00254
 375,-0.00000005,-0.00321540,-0.00341233,-0.00000006,0.01012175,-0.0111
 7502,-0.00000019,0.00036490,-0.00048710,0.,-0.01329428,0.02569194,0.00
 000046,-0.17857466,0.14349397,0.00000249,0.00069183,0.00038157,0.00000
 001,0.00110863,-0.00028441,0.,0.18537044,0.00001268,0.00008314,0.,0.00
 030569,0.00020312,0.,0.00039859,-0.00066067,0.,-0.00036200,0.00008035,
 0.,-0.00000023,-0.00029422,0.,0.00013530,0.00011004,0.,-0.00000491,-0.
 00000906,0.,0.00000666,0.00000789,0.,0.00000812,-0.00000510,0.,0.00000
 699,-0.00000119,0.,-0.00066431,0.00037720,0.,-0.00008895,0.00018832,0.
 ,-0.00108691,0.00034101,0.00000003,-0.00266252,-0.00385517,-0.00000017
 ,-0.00217566,0.00002931,-0.00000013,0.02103950,-0.01547326,-0.00000030
 ,0.00094603,-0.00101298,-0.00000003,-0.00611834,0.00772924,0.00000008,
 0.14253432,-0.22765055,-0.00000352,-0.00009667,0.00096526,0.00000009,0
 .00029105,0.00059152,0.00000008,-0.15267886,0.23787727,0.,0.,0.0000158
 1,0.00000001,0.,0.00005333,0.00000001,-0.00000002,-0.00006713,-0.00000
 001,0.,0.00002580,0.,-0.00000001,0.00000546,0.,0.,-0.00000039,0.,0.,-0
 .00000020,0.,0.,0.00000908,0.,0.,-0.00000066,0.,0.,-0.00001270,-0.0000
 0002,0.,0.00029886,0.,0.00000001,-0.00022655,-0.00000002,0.00000002,-0
 .00132126,-0.00000003,-0.00000018,0.00487906,-0.00000008,-0.00000013,0
 .00695720,0.00000042,-0.00000029,0.00226841,0.00000002,-0.00000004,0.0
 0091662,-0.00000008,0.00000010,0.00378886,0.00000240,-0.00000354,-0.03
 183040,0.,0.00000008,-0.00340143,0.00000001,0.00000009,-0.00379321,-0.
 00000265,0.00000386,0.02225232,-0.00311759,-0.00741554,-0.00000004,-0.
 01356041,0.01760095,0.00000016,-0.08004817,0.04557156,0.00000074,0.015
 36618,-0.00327706,-0.00000010,-0.00123094,0.01071161,0.00000006,-0.007
 30344,-0.00349145,0.,0.00040999,-0.00048187,0.,-0.00057775,-0.00021862
 ,0.,-0.00004051,0.00011476,0.,-0.00066513,-0.00012840,0.,-0.33913597,-
 0.06320500,0.00000066,-0.04564279,-0.04013622,-0.00000010,-0.19425882,
 0.11149071,0.00000147,-0.03962375,0.03694409,0.00000051,0.02869616,0.0
 1024176,0.00000022,-0.00222906,-0.01424124,-0.00000024,0.00029753,0.00
 015107,-0.00000003,-0.00710308,-0.00832312,-0.00000025,0.00586248,0.00
 154066,0.00000005,-0.00066574,0.00057560,0.,0.00079910,-0.00099465,-0.
 00000001,-0.00020544,0.00039812,0.,0.69564666,-0.00163895,0.00200756,-
 0.00000003,0.03480469,-0.01973341,-0.00000023,0.02523300,0.00240222,-0
 .00000014,-0.00050027,-0.00621369,-0.00000002,-0.00090723,-0.00360450,
 -0.00000003,0.00366807,0.00011530,-0.00000001,0.00001390,-0.00067657,0
 .,-0.00031380,0.00021833,0.,0.00043521,-0.00051245,0.,-0.00014934,0.00
 001287,0.00000001,-0.05490964,-0.10903839,-0.00000053,-0.01315800,-0.1
 4481411,-0.00000044,0.08864932,-0.21110701,-0.00000209,0.01966012,0.01
 108969,0.00000004,0.02234434,-0.05134938,-0.00000075,-0.00484008,0.000
 36809,-0.00000012,-0.00160412,0.00047518,0.00000008,-0.01525014,0.0017
 3479,0.00000003,0.00828666,0.00247968,0.00000008,-0.00063218,0.0011217
 0,0.00000004,0.00040940,-0.00051849,-0.00000007,0.00020254,0.00016989,
 0.00000001,-0.08727067,0.53335419,-0.00000001,0.00000003,0.00135064,0.
 00000022,-0.00000019,-0.00084508,0.00000037,-0.00000010,0.00592287,-0.
 00000003,-0.00000004,0.00335701,0.,-0.00000007,0.00108475,0.00000007,0
 .00000001,0.00080003,0.,0.,-0.00039453,0.,0.,-0.00071271,0.,0.,-0.0005
 9004,0.,0.,-0.00022606,0.00000131,-0.00000027,-0.03548226,0.00000002,-
 0.00000063,-0.01931647,0.00000122,-0.00000205,-0.03688707,0.00000003,0
 .00000014,0.00840999,0.00000039,-0.00000078,0.00529435,0.,-0.00000023,
 0.00329224,-0.00000001,0.00000005,-0.00187044,-0.00000028,0.00000004,-
 0.00016348,0.00000015,0.00000015,-0.00092299,0.,0.00000003,-0.00096390
 ,0.,-0.00000004,0.00172888,0.,0.,0.00002034,-0.00000316,0.00000408,0.0
 6582416,0.00059564,0.00151382,0.,0.00113282,0.00513998,-0.00000003,0.0
 1392034,-0.00396019,-0.00000004,-0.00246151,0.00046819,0.00000004,-0.0
 0033401,-0.00246059,0.,0.00161162,0.00100811,0.,-0.00022672,0.00022678
 ,0.,0.00031392,0.00003005,0.,-0.00002250,0.00006011,0.,0.00003043,0.00
 005569,0.,-0.00200308,0.05937585,0.00000138,0.00050638,0.00373386,0.00
 000006,-0.04374443,-0.02449315,-0.00000069,0.01715057,-0.00884316,-0.0
 0000017,-0.43276118,-0.07448533,-0.00000273,-0.01193480,0.00861194,0.0
 0000013,-0.00130482,-0.00087730,-0.00000002,-0.07618446,0.01717681,-0.
 00000007,0.00519957,0.00362554,0.00000008,-0.00014741,-0.00033883,0.,0
 .00208779,-0.00086453,0.00000004,-0.00229758,-0.00014353,0.,-0.0088466
 1,-0.00026648,0.00000004,0.55088311,-0.00137189,-0.00116276,0.,-0.0002
 7943,-0.00697443,0.00000003,-0.01931556,0.00149962,-0.00000011,0.00289
 897,-0.00110330,-0.00000003,0.00016937,0.00241161,0.00000001,-0.000517
 50,-0.00143183,-0.00000001,0.00024477,-0.00041220,0.,0.00004177,0.0001
 6552,0.,0.00020689,-0.00013146,0.,0.00006215,-0.00010428,0.,0.03290135
 ,-0.09110290,-0.00000227,0.00032163,-0.00286411,-0.00000002,-0.0331429
 6,-0.01317502,-0.00000055,-0.00922528,-0.00644035,-0.00000016,-0.07048
 186,-0.11581303,-0.00000132,0.00172257,-0.00848118,-0.00000016,-0.0018
 5772,0.00003404,0.00000003,0.04100000,0.01878327,0.00000017,0.00484939
 ,-0.00131746,-0.00000012,-0.00001300,0.00042327,0.00000001,-0.00150899
 ,0.00267456,0.00000014,0.00180714,0.00050819,0.00000003,0.00820346,0.0
 1291163,0.00000021,0.07296450,0.19687289,-0.00000005,-0.00000003,0.000
 37812,0.,-0.00000020,-0.00080423,-0.00000048,0.00000006,-0.00076373,0.
 00000009,-0.00000002,0.00035455,0.,0.00000005,0.00018621,0.00000001,-0
 .00000005,0.00005847,0.,0.,-0.00010593,0.,0.,-0.00019633,0.,0.,-0.0000
 4478,0.,0.,-0.00008295,0.00000083,-0.00000240,0.01913489,0.,-0.0000000
 3,-0.00150893,-0.00000064,-0.00000065,0.01552435,-0.00000012,-0.000000
 17,0.00203222,-0.00000269,-0.00000129,-0.05427955,-0.00000006,-0.00000
 013,0.00015746,-0.00000002,0.00000003,-0.00191129,0.00000035,0.0000001
 8,0.01436972,0.00000014,-0.00000004,0.00363306,0.,0.,0.00014800,-0.000
 00005,0.00000009,-0.00342120,0.00000002,0.00000001,-0.00046205,0.00000
 019,0.00000030,-0.00300922,0.00000318,0.00000338,0.03861968,0.00007515
 ,-0.00025668,0.,-0.00382621,-0.00128639,0.00000002,-0.00106622,0.01188
 893,0.00000020,0.00257396,-0.00048735,-0.00000003,0.00005943,0.0013922
 3,0.,-0.00051491,-0.00064109,0.,0.00000488,0.00006095,0.,-0.00054523,-
 0.00021807,0.,0.00004835,-0.00003447,0.,-0.00000260,-0.00007721,0.,-0.
 05244303,-0.02899673,-0.00000061,-0.00312610,-0.00561834,-0.00000004,0
 .00426516,-0.00404413,-0.00000010,-0.00567509,0.00217514,0.00000004,-0
 .03045842,0.01684550,0.00000024,0.00183815,-0.00493834,-0.00000008,0.0
 0050434,0.00032193,0.00000002,0.00057559,-0.00171216,0.00000006,0.0019
 7960,0.00331470,0.00000004,0.00008538,0.00001702,0.,-0.00017424,0.0001
 9647,0.,0.00018936,-0.00000016,0.,-0.00282290,-0.02226638,-0.00000035,
 -0.01116307,-0.02967976,-0.00000072,0.09961869,0.00271935,0.00127249,-
 0.00000003,0.00302982,0.01289704,-0.00000005,0.03238604,-0.01227661,0.
 00000019,-0.00738125,0.00332570,0.00000009,-0.00073930,-0.00545406,-0.
 00000002,0.00087829,0.00262953,0.00000001,-0.00032446,0.00056246,0.,0.
 00027965,-0.00032545,0.,-0.00035383,0.00025891,0.,-0.00013552,0.000212
 70,0.,-0.04307220,-0.03908437,0.00000001,0.00298199,0.01295099,0.00000
 008,-0.02503794,0.01515104,0.00000037,0.02414945,-0.00955823,-0.000000
 21,0.04579183,0.01314276,0.00000054,-0.00727891,0.02169516,0.00000040,
 -0.00107266,-0.00079185,-0.00000008,-0.00898221,-0.00043935,-0.0000002
 5,-0.00980066,-0.01013559,-0.00000020,-0.00005840,-0.00022848,0.000000
 02,0.00081450,-0.00062948,0.00000005,-0.00121935,-0.00029955,-0.000000
 01,-0.01436048,-0.02089310,-0.00000034,-0.05725815,0.01422972,0.000000
 91,0.06404440,0.00178761,0.00000005,0.00000008,0.00054502,-0.00000001,
 0.00000024,0.00208699,0.00000067,0.00000031,-0.00546947,-0.00000002,0.
 00000003,-0.00091004,-0.00000004,-0.00000006,-0.00018212,0.00000004,0.
 00000001,-0.00008105,-0.00000002,0.00000002,-0.00003938,0.00000001,-0.
 00000001,0.00007103,0.,0.,0.00007838,0.,0.,0.00005561,-0.00000109,-0.0
 0000066,-0.02995594,0.00000012,0.00000032,0.00172327,-0.00000047,0.000
 00035,-0.00465621,0.00000041,-0.00000022,0.00022630,0.00000096,0.00000
 042,0.00125996,-0.00000013,0.00000037,-0.00030388,-0.00000003,-0.00000
 003,0.00065059,-0.00000027,-0.00000011,0.00459270,-0.00000016,-0.00000
 013,0.00021944,0.,0.,0.00004481,0.00000002,0.,-0.00044214,-0.00000003,
 0.,-0.00037518,-0.00000014,-0.00000021,0.00429896,-0.00000120,0.000000
 74,-0.02800655,0.00000134,-0.00000146,0.05456889\\0.00001609,-0.001532
 10,0.,-0.00204736,-0.00344765,0.00000014,-0.00421097,0.00010905,-0.000
 00017,0.00007192,-0.00020095,-0.00000003,0.00024626,0.00186485,-0.0000
 0002,0.00006723,-0.00001906,0.00000002,0.00015832,-0.00021920,0.,-0.00
 016454,0.00009502,0.00000002,0.00002683,0.00010555,0.,0.00008095,0.000
 03691,0.,0.00478435,-0.00429290,-0.00000017,-0.00162612,-0.00522761,-0
 .00000002,0.00296998,-0.00214295,-0.00000001,-0.00352040,0.00071711,-0
 .00000001,-0.00550684,-0.00142618,-0.00000048,0.00113216,-0.00218357,-
 0.00000020,-0.00013812,0.00003176,0.,0.00187512,-0.00007155,0.00000020
 ,0.00251484,0.00098114,0.00000011,0.00005713,0.00004856,0.00000002,0.0
 0014464,-0.00000792,0.,0.00025685,0.00012615,0.00000001,0.00279529,0.0
 0171115,0.00000012,0.00315044,0.00390398,0.00000016,-0.00313407,0.0110
 4040,0.00000031\\\@
 The archive entry for this job was punched.


 THE SCIENTIFIC THEORIST IS NOT TO BE ENVIED. FOR NATURE, OR MORE
 PRECISELY EXPERIMENT, IS AN INEXORABLE AND NOT VERY FRIENDLY JUDGE OF HIS
 WORK.  IT NEVER SAYS "YES" TO A THEORY. IN THE MOST FAVORABLE CASES
 IT SAYS "MAYBE", AND IN THE GREAT MAJORITY OF CASES SIMPLY "NO"...
 PROBABLY EVERY THEORY WILL SOME DAY EXPERIENCE ITS "NO" - MOST
 THEORIES, SOON AFTER CONCEPTION.  -- A.EINSTEIN, NOV 11, 1922.
 Job cpu time:       0 days  2 hours 49 minutes  2.5 seconds.
 Elapsed time:       0 days  0 hours 17 minutes 25.4 seconds.
 File lengths (MBytes):  RWF=   1380 Int=      0 D2E=      0 Chk=     48 Scr=      8
 Normal termination of Gaussian 16 at Mon Jul 13 15:42:54 2020.
