 Entering Gaussian System, Link 0=g16
 Initial command:
 /gpfs/loomis/apps/avx/software/Gaussian/16-C.01_AVX/g16/l1.exe "/home/fas/batista/pev4/scratch60/gauss-scratch/Gau-185526.inp" -scrdir="/home/fas/batista/pev4/scratch60/gauss-scratch/"
 Entering Link 1 = /gpfs/loomis/apps/avx/software/Gaussian/16-C.01_AVX/g16/l1.exe PID=    185527.
  
 Copyright (c) 1988-2019, Gaussian, Inc.  All Rights Reserved.
  
 This is part of the Gaussian(R) 16 program.  It is based on
 the Gaussian(R) 09 system (copyright 2009, Gaussian, Inc.),
 the Gaussian(R) 03 system (copyright 2003, Gaussian, Inc.),
 the Gaussian(R) 98 system (copyright 1998, Gaussian, Inc.),
 the Gaussian(R) 94 system (copyright 1995, Gaussian, Inc.),
 the Gaussian 92(TM) system (copyright 1992, Gaussian, Inc.),
 the Gaussian 90(TM) system (copyright 1990, Gaussian, Inc.),
 the Gaussian 88(TM) system (copyright 1988, Gaussian, Inc.),
 the Gaussian 86(TM) system (copyright 1986, Carnegie Mellon
 University), and the Gaussian 82(TM) system (copyright 1983,
 Carnegie Mellon University). Gaussian is a federally registered
 trademark of Gaussian, Inc.
  
 This software contains proprietary and confidential information,
 including trade secrets, belonging to Gaussian, Inc.
  
 This software is provided under written license and may be
 used, copied, transmitted, or stored only in accord with that
 written license.
  
 The following legend is applicable only to US Government
 contracts under FAR:
  
                    RESTRICTED RIGHTS LEGEND
  
 Use, reproduction and disclosure by the US Government is
 subject to restrictions as set forth in subparagraphs (a)
 and (c) of the Commercial Computer Software - Restricted
 Rights clause in FAR 52.227-19.
  
 Gaussian, Inc.
 340 Quinnipiac St., Bldg. 40, Wallingford CT 06492
  
  
 ---------------------------------------------------------------
 Warning -- This program may not be used in any manner that
 competes with the business of Gaussian, Inc. or will provide
 assistance to any competitor of Gaussian, Inc.  The licensee
 of this program is prohibited from giving any competitor of
 Gaussian, Inc. access to this program.  By using this program,
 the user acknowledges that Gaussian, Inc. is engaged in the
 business of creating and licensing software in the field of
 computational chemistry and represents and warrants to the
 licensee that it is not a competitor of Gaussian, Inc. and that
 it will not use this program in any manner prohibited above.
 ---------------------------------------------------------------
  

 Cite this work as:
 Gaussian 16, Revision C.01,
 M. J. Frisch, G. W. Trucks, H. B. Schlegel, G. E. Scuseria, 
 M. A. Robb, J. R. Cheeseman, G. Scalmani, V. Barone, 
 G. A. Petersson, H. Nakatsuji, X. Li, M. Caricato, A. V. Marenich, 
 J. Bloino, B. G. Janesko, R. Gomperts, B. Mennucci, H. P. Hratchian, 
 J. V. Ortiz, A. F. Izmaylov, J. L. Sonnenberg, D. Williams-Young, 
 F. Ding, F. Lipparini, F. Egidi, J. Goings, B. Peng, A. Petrone, 
 T. Henderson, D. Ranasinghe, V. G. Zakrzewski, J. Gao, N. Rega, 
 G. Zheng, W. Liang, M. Hada, M. Ehara, K. Toyota, R. Fukuda, 
 J. Hasegawa, M. Ishida, T. Nakajima, Y. Honda, O. Kitao, H. Nakai, 
 T. Vreven, K. Throssell, J. A. Montgomery, Jr., J. E. Peralta, 
 F. Ogliaro, M. J. Bearpark, J. J. Heyd, E. N. Brothers, K. N. Kudin, 
 V. N. Staroverov, T. A. Keith, R. Kobayashi, J. Normand, 
 K. Raghavachari, A. P. Rendell, J. C. Burant, S. S. Iyengar, 
 J. Tomasi, M. Cossi, J. M. Millam, M. Klene, C. Adamo, R. Cammi, 
 J. W. Ochterski, R. L. Martin, K. Morokuma, O. Farkas, 
 J. B. Foresman, and D. J. Fox, Gaussian, Inc., Wallingford CT, 2019.
 
 ******************************************
 Gaussian 16:  ES64L-G16RevC.01  3-Jul-2019
                13-Jul-2020 
 ******************************************
 %chk=config_10_7.chk
 %mem=58GB
 %nprocshared=10
 Will use up to   10 processors via shared memory.
 ----------------------------------------------------------------------
 #p opt=addgic freq td wb97xd/cc-pvdz nosymm int=ultrafine scrf=(solven
 t=CarbonTetraChloride)
 ----------------------------------------------------------------------
 1/18=20,19=15,26=6,38=1,145=903/1,3;
 2/9=110,12=2,15=1,17=6,18=5,40=1/2;
 3/5=16,11=9,25=1,30=1,70=2201,71=1,72=11,74=-58,75=-5/1,2,3,8;
 4//1;
 5/5=2,38=5,53=11/2;
 8/6=1,10=1/1;
 9/15=2,42=1,70=2/14;
 10/5=4,31=1/2;
 6/7=2,8=2,9=2,10=2/1;
 7/12=6,13=5,30=1/1,2,3,16;
 1/18=20,19=15,26=6,145=903/3(2);
 2/9=110,15=1/2;
 99//99;
 2/9=110,15=1/2;
 3/5=16,11=9,25=1,30=1,70=2205,71=1,72=11,74=-58,75=-5/1,2,3,8;
 4/5=5,16=3,69=1/1;
 5/5=2,38=5,53=11/2;
 8/6=1,10=1/1;
 9/15=2,42=1,49=4,70=2/14;
 10/5=4,31=1/2;
 7/12=6,13=5,30=1/1,2,3,16;
 1/18=20,19=15,26=6,145=903/3(-8);
 2/9=110,15=1/2;
 6/7=2,8=2,9=2,10=2/1;
 99/9=10/99;
 Leave Link    1 at Mon Jul 13 16:30:01 2020, MaxMem=  7784628224 cpu:               3.8 elap:               0.5
 (Enter /gpfs/loomis/apps/avx/software/Gaussian/16-C.01_AVX/g16/l101.exe)
 ------------------------------------------------
 NM 2D-scan of HBT TD-WB97XD pVDZ in CTC Relaxed.
 ------------------------------------------------
 Symbolic Z-matrix:
 Charge =  0 Multiplicity = 1
 C                     1.67793  -3.26075  -0.00002 
 C                     1.00726  -2.0383   -0.00002 
 C                     1.71794  -0.8109   -0.00002 
 C                     3.1151   -0.81475  -0.00002 
 C                     3.7767   -2.03749  -0.00002 
 C                     3.07294  -3.24884  -0.00002 
 H                     1.12602  -4.20155  -0.00002 
 H                     3.66284   0.128    -0.00002 
 H                     4.86785  -2.05002  -0.00002 
 H                     3.61834  -4.19325  -0.00002 
 N                     0.89444   0.29061  -0.00002 
 S                    -0.7322   -1.7544   -0.00002 
 C                    -1.3935    1.02904   0. 
 C                    -2.76535   0.83489  0. 
 C                    -0.86125   2.42078   0.00003 
 C                    -3.65036   1.94224   0.00003 
 H                    -3.18107  -0.17567  -0.00002 
 C                    -1.79971   3.49298   0.00006 
 C                    -3.174     3.25607   0.00005 
 H                    -4.72492   1.753     0.00002 
 H                    -1.38289   4.50116   0.00008 
 H                    -3.87561   4.09051   0.00008 
 C                    -0.42757  -0.02324  -0.00002 
 O                     0.38601   2.63188   0.00004 
 H                     1.03768   1.16481  0. 
 
 Initializing the GIC definitions file.
 Number of initial coordinates =   134
 Number of input entries/lines =    52
 Number of additional coordinates =     2
 Number of removed coordinates =     0
 Number of frozen coordinates =     2
 Number of final active and frozen coordinates =   136
 ITRead=  0  0  0  0  0  0  0  0  0  0  0  0  0  0  0  0  0  0  0  0
 ITRead=  0  0  0  0  0
 MicOpt= -1 -1 -1 -1 -1 -1 -1 -1 -1 -1 -1 -1 -1 -1 -1 -1 -1 -1 -1 -1
 MicOpt= -1 -1 -1 -1 -1
 NAtoms=     25 NQM=       25 NQMF=       0 NMMI=      0 NMMIF=      0
                NMic=       0 NMicF=      0.
                    Isotopes and Nuclear Properties:
 (Nuclear quadrupole moments (NQMom) in fm**2, nuclear magnetic moments (NMagM)
  in nuclear magnetons)

  Atom         1           2           3           4           5           6           7           8           9          10
 IAtWgt=          12          12          12          12          12          12           1           1           1           1
 AtmWgt=  12.0000000  12.0000000  12.0000000  12.0000000  12.0000000  12.0000000   1.0078250   1.0078250   1.0078250   1.0078250
 NucSpn=           0           0           0           0           0           0           1           1           1           1
 AtZEff=  -0.0000000  -0.0000000  -0.0000000  -0.0000000  -0.0000000  -0.0000000  -0.0000000  -0.0000000  -0.0000000  -0.0000000
 NQMom=    0.0000000   0.0000000   0.0000000   0.0000000   0.0000000   0.0000000   0.0000000   0.0000000   0.0000000   0.0000000
 NMagM=    0.0000000   0.0000000   0.0000000   0.0000000   0.0000000   0.0000000   2.7928460   2.7928460   2.7928460   2.7928460
 AtZNuc=   6.0000000   6.0000000   6.0000000   6.0000000   6.0000000   6.0000000   1.0000000   1.0000000   1.0000000   1.0000000

  Atom        11          12          13          14          15          16          17          18          19          20
 IAtWgt=          14          32          12          12          12          12           1          12          12           1
 AtmWgt=  14.0030740  31.9720718  12.0000000  12.0000000  12.0000000  12.0000000   1.0078250  12.0000000  12.0000000   1.0078250
 NucSpn=           2           0           0           0           0           0           1           0           0           1
 AtZEff=  -0.0000000  -0.0000000  -0.0000000  -0.0000000  -0.0000000  -0.0000000  -0.0000000  -0.0000000  -0.0000000  -0.0000000
 NQMom=    2.0440000   0.0000000   0.0000000   0.0000000   0.0000000   0.0000000   0.0000000   0.0000000   0.0000000   0.0000000
 NMagM=    0.4037610   0.0000000   0.0000000   0.0000000   0.0000000   0.0000000   2.7928460   0.0000000   0.0000000   2.7928460
 AtZNuc=   7.0000000  16.0000000   6.0000000   6.0000000   6.0000000   6.0000000   1.0000000   6.0000000   6.0000000   1.0000000

  Atom        21          22          23          24          25
 IAtWgt=           1           1          12          16           1
 AtmWgt=   1.0078250   1.0078250  12.0000000  15.9949146   1.0078250
 NucSpn=           1           1           0           0           1
 AtZEff=  -0.0000000  -0.0000000  -0.0000000  -0.0000000  -0.0000000
 NQMom=    0.0000000   0.0000000   0.0000000   0.0000000   0.0000000
 NMagM=    2.7928460   2.7928460   0.0000000   0.0000000   2.7928460
 AtZNuc=   1.0000000   1.0000000   6.0000000   8.0000000   1.0000000
 Leave Link  101 at Mon Jul 13 16:30:04 2020, MaxMem=  7784628224 cpu:              27.9 elap:               3.2
 (Enter /gpfs/loomis/apps/avx/software/Gaussian/16-C.01_AVX/g16/l103.exe)

 GradGradGradGradGradGradGradGradGradGradGradGradGradGradGradGradGradGrad
 Berny optimization.
 Initialization pass.
                           ----------------------------
                           !    Initial Parameters    !
                           ! (Angstroms and Degrees)  !
 --------------------------                            --------------------------
 ! Name  Definition              Value          Derivative Info.                !
 --------------------------------------------------------------------------------
 ! R1    R(1,2)                  1.3943         estimate D2E/DX2                !
 ! R2    R(1,6)                  1.3951         estimate D2E/DX2                !
 ! R3    R(1,7)                  1.0907         estimate D2E/DX2                !
 ! R4    R(2,3)                  1.4183         estimate D2E/DX2                !
 ! R5    R(2,12)                 1.7625         estimate D2E/DX2                !
 ! R6    R(3,4)                  1.3972         estimate D2E/DX2                !
 ! R7    R(3,11)                 1.3753         estimate D2E/DX2                !
 ! R8    R(4,5)                  1.3903         estimate D2E/DX2                !
 ! R9    R(4,8)                  1.0903         estimate D2E/DX2                !
 ! R10   R(5,6)                  1.4009         estimate D2E/DX2                !
 ! R11   R(5,9)                  1.0912         estimate D2E/DX2                !
 ! R12   R(6,10)                 1.0906         estimate D2E/DX2                !
 ! R13   R(11,23)                1.3588         estimate D2E/DX2                !
 ! R14   R(11,25)                0.8859         estimate D2E/DX2                !
 ! R15   R(12,23)                1.7578         estimate D2E/DX2                !
 ! R16   R(13,14)                1.3855         estimate D2E/DX2                !
 ! R17   R(13,15)                1.49           estimate D2E/DX2                !
 ! R18   R(13,23)                1.4284         estimate D2E/DX2                !
 ! R19   R(14,16)                1.4176         estimate D2E/DX2                !
 ! R20   R(14,17)                1.0927         estimate D2E/DX2                !
 ! R21   R(15,18)                1.4249         estimate D2E/DX2                !
 ! R22   R(15,24)                1.265          estimate D2E/DX2                !
 ! R23   R(16,19)                1.3975         estimate D2E/DX2                !
 ! R24   R(16,20)                1.0911         estimate D2E/DX2                !
 ! R25   R(18,19)                1.3946         estimate D2E/DX2                !
 ! R26   R(18,21)                1.0909         estimate D2E/DX2                !
 ! R27   R(19,22)                1.0902         estimate D2E/DX2                !
 ! A1    A(2,1,6)              118.2608         estimate D2E/DX2                !
 ! A2    A(2,1,7)              120.8524         estimate D2E/DX2                !
 ! A3    A(6,1,7)              120.8868         estimate D2E/DX2                !
 ! A4    A(1,2,3)              121.1781         estimate D2E/DX2                !
 ! A5    A(1,2,12)             128.0199         estimate D2E/DX2                !
 ! A6    A(3,2,12)             110.8019         estimate D2E/DX2                !
 ! A7    A(2,3,4)              119.9137         estimate D2E/DX2                !
 ! A8    A(2,3,11)             113.1461         estimate D2E/DX2                !
 ! A9    A(4,3,11)             126.9403         estimate D2E/DX2                !
 ! A10   A(3,4,5)              118.5746         estimate D2E/DX2                !
 ! A11   A(3,4,8)              119.9987         estimate D2E/DX2                !
 ! A12   A(5,4,8)              121.4266         estimate D2E/DX2                !
 ! A13   A(4,5,6)              121.4278         estimate D2E/DX2                !
 ! A14   A(4,5,9)              119.0747         estimate D2E/DX2                !
 ! A15   A(6,5,9)              119.4976         estimate D2E/DX2                !
 ! A16   A(1,6,5)              120.645          estimate D2E/DX2                !
 ! A17   A(1,6,10)             119.5172         estimate D2E/DX2                !
 ! A18   A(5,6,10)             119.8378         estimate D2E/DX2                !
 ! A19   A(3,11,23)            113.4276         estimate D2E/DX2                !
 ! A20   A(3,11,25)            133.9121         estimate D2E/DX2                !
 ! A21   A(23,11,25)           112.6602         estimate D2E/DX2                !
 ! A22   A(2,12,23)             89.2898         estimate D2E/DX2                !
 ! A23   A(14,13,15)           118.9843         estimate D2E/DX2                !
 ! A24   A(14,13,23)           124.4942         estimate D2E/DX2                !
 ! A25   A(15,13,23)           116.5215         estimate D2E/DX2                !
 ! A26   A(13,14,16)           120.5767         estimate D2E/DX2                !
 ! A27   A(13,14,17)           120.4167         estimate D2E/DX2                !
 ! A28   A(16,14,17)           119.0066         estimate D2E/DX2                !
 ! A29   A(13,15,18)           117.8768         estimate D2E/DX2                !
 ! A30   A(13,15,24)           120.5351         estimate D2E/DX2                !
 ! A31   A(18,15,24)           121.5881         estimate D2E/DX2                !
 ! A32   A(14,16,19)           121.4384         estimate D2E/DX2                !
 ! A33   A(14,16,20)           118.644          estimate D2E/DX2                !
 ! A34   A(19,16,20)           119.9177         estimate D2E/DX2                !
 ! A35   A(15,18,19)           121.4136         estimate D2E/DX2                !
 ! A36   A(15,18,21)           116.3434         estimate D2E/DX2                !
 ! A37   A(19,18,21)           122.243          estimate D2E/DX2                !
 ! A38   A(16,19,18)           119.7103         estimate D2E/DX2                !
 ! A39   A(16,19,22)           120.013          estimate D2E/DX2                !
 ! A40   A(18,19,22)           120.2767         estimate D2E/DX2                !
 ! A41   A(11,23,12)           113.3346         estimate D2E/DX2                !
 ! A42   A(11,23,13)           119.1951         estimate D2E/DX2                !
 ! A43   A(12,23,13)           127.4703         estimate D2E/DX2                !
 ! D1    D(6,1,2,3)              0.0            estimate D2E/DX2                !
 ! D2    D(6,1,2,12)          -179.9999         estimate D2E/DX2                !
 ! D3    D(7,1,2,3)            179.9999         estimate D2E/DX2                !
 ! D4    D(7,1,2,12)             0.0            estimate D2E/DX2                !
 ! D5    D(2,1,6,5)              0.0            estimate D2E/DX2                !
 ! D6    D(2,1,6,10)           180.0            estimate D2E/DX2                !
 ! D7    D(7,1,6,5)           -180.0            estimate D2E/DX2                !
 ! D8    D(7,1,6,10)             0.0            estimate D2E/DX2                !
 ! D9    D(1,2,3,4)              0.0            estimate D2E/DX2                !
 ! D10   D(1,2,3,11)           180.0            estimate D2E/DX2                !
 ! D11   D(12,2,3,4)          -180.0            estimate D2E/DX2                !
 ! D12   D(12,2,3,11)           -0.0001         estimate D2E/DX2                !
 ! D13   D(1,2,12,23)          179.9999         estimate D2E/DX2                !
 ! D14   D(3,2,12,23)           -0.0001         estimate D2E/DX2                !
 ! D15   D(2,3,4,5)             -0.0001         estimate D2E/DX2                !
 ! D16   D(2,3,4,8)            180.0            estimate D2E/DX2                !
 ! D17   D(11,3,4,5)          -180.0            estimate D2E/DX2                !
 ! D18   D(11,3,4,8)             0.0            estimate D2E/DX2                !
 ! D19   D(2,3,11,23)            0.0002         estimate D2E/DX2                !
 ! D20   D(2,3,11,25)          179.9984         estimate D2E/DX2                !
 ! D21   D(4,3,11,23)         -179.9998         estimate D2E/DX2                !
 ! D22   D(4,3,11,25)           -0.0017         estimate D2E/DX2                !
 ! D23   D(3,4,5,6)              0.0            estimate D2E/DX2                !
 ! D24   D(3,4,5,9)           -180.0            estimate D2E/DX2                !
 ! D25   D(8,4,5,6)           -180.0            estimate D2E/DX2                !
 ! D26   D(8,4,5,9)              0.0            estimate D2E/DX2                !
 ! D27   D(4,5,6,1)              0.0            estimate D2E/DX2                !
 ! D28   D(4,5,6,10)          -180.0            estimate D2E/DX2                !
 ! D29   D(9,5,6,1)           -180.0            estimate D2E/DX2                !
 ! D30   D(9,5,6,10)             0.0            estimate D2E/DX2                !
 ! D31   D(3,11,23,12)          -0.0003         estimate D2E/DX2                !
 ! D32   D(3,11,23,13)         179.9991         estimate D2E/DX2                !
 ! D33   D(25,11,23,12)       -179.9989         estimate D2E/DX2                !
 ! D34   D(25,11,23,13)          0.0006         estimate D2E/DX2                !
 ! D35   D(2,12,23,11)           0.0002         estimate D2E/DX2                !
 ! D36   D(2,12,23,13)        -179.9992         estimate D2E/DX2                !
 ! D37   D(15,13,14,16)         -0.0001         estimate D2E/DX2                !
 ! D38   D(15,13,14,17)        179.9999         estimate D2E/DX2                !
 ! D39   D(23,13,14,16)        179.9998         estimate D2E/DX2                !
 ! D40   D(23,13,14,17)         -0.0002         estimate D2E/DX2                !
 ! D41   D(14,13,15,18)          0.0001         estimate D2E/DX2                !
 ! D42   D(14,13,15,24)        180.0            estimate D2E/DX2                !
 ! D43   D(23,13,15,18)       -179.9998         estimate D2E/DX2                !
 ! D44   D(23,13,15,24)          0.0001         estimate D2E/DX2                !
 ! D45   D(14,13,23,11)        179.9995         estimate D2E/DX2                !
 ! D46   D(14,13,23,12)         -0.0012         estimate D2E/DX2                !
 ! D47   D(15,13,23,11)         -0.0006         estimate D2E/DX2                !
 ! D48   D(15,13,23,12)        179.9987         estimate D2E/DX2                !
 ! D49   D(13,14,16,19)          0.0            estimate D2E/DX2                !
 ! D50   D(13,14,16,20)       -179.9999         estimate D2E/DX2                !
 ! D51   D(17,14,16,19)       -180.0            estimate D2E/DX2                !
 ! D52   D(17,14,16,20)          0.0001         estimate D2E/DX2                !
 ! D53   D(13,15,18,19)          0.0001         estimate D2E/DX2                !
 ! D54   D(13,15,18,21)        179.9998         estimate D2E/DX2                !
 ! D55   D(24,15,18,19)       -179.9998         estimate D2E/DX2                !
 ! D56   D(24,15,18,21)         -0.0001         estimate D2E/DX2                !
 ! D57   D(14,16,19,18)          0.0001         estimate D2E/DX2                !
 ! D58   D(14,16,19,22)       -179.9999         estimate D2E/DX2                !
 ! D59   D(20,16,19,18)       -179.9999         estimate D2E/DX2                !
 ! D60   D(20,16,19,22)          0.0001         estimate D2E/DX2                !
 ! D61   D(15,18,19,16)         -0.0002         estimate D2E/DX2                !
 ! D62   D(15,18,19,22)        179.9999         estimate D2E/DX2                !
 ! D63   D(21,18,19,16)       -179.9999         estimate D2E/DX2                !
 ! D64   D(21,18,19,22)          0.0001         estimate D2E/DX2                !
 ! Qtot  GIC-1                  40.0            Frozen                          !
 ! Ptot  GIC-2                 -20.0            Frozen                          !
 --------------------------------------------------------------------------------
 NOTE: GIC-type coordinates are in arbitrary units.
 Trust Radius=3.00D-01 FncErr=5.00D-06 GrdErr=5.00D-06 EigMax=2.50D+02 EigMin=1.00D-04
 Number of steps in this run=    146 maximum allowed number of steps=    150.
 GradGradGradGradGradGradGradGradGradGradGradGradGradGradGradGradGradGrad

 Leave Link  103 at Mon Jul 13 16:30:04 2020, MaxMem=  7784628224 cpu:               0.2 elap:               0.0
 (Enter /gpfs/loomis/apps/avx/software/Gaussian/16-C.01_AVX/g16/l202.exe)
                          Input orientation:                          
 ---------------------------------------------------------------------
 Center     Atomic      Atomic             Coordinates (Angstroms)
 Number     Number       Type             X           Y           Z
 ---------------------------------------------------------------------
      1          6           0        1.677929   -3.260754   -0.000022
      2          6           0        1.007259   -2.038300   -0.000021
      3          6           0        1.717944   -0.810900   -0.000021
      4          6           0        3.115103   -0.814750   -0.000022
      5          6           0        3.776698   -2.037492   -0.000022
      6          6           0        3.072938   -3.248836   -0.000022
      7          1           0        1.126024   -4.201553   -0.000021
      8          1           0        3.662841    0.127998   -0.000022
      9          1           0        4.867848   -2.050023   -0.000023
     10          1           0        3.618339   -4.193246   -0.000022
     11          7           0        0.894440    0.290608   -0.000021
     12         16           0       -0.732197   -1.754399   -0.000020
     13          6           0       -1.393497    1.029044    0.000003
     14          6           0       -2.765349    0.834885   -0.000001
     15          6           0       -0.861248    2.420776    0.000032
     16          6           0       -3.650364    1.942244    0.000025
     17          1           0       -3.181066   -0.175667   -0.000024
     18          6           0       -1.799712    3.492982    0.000056
     19          6           0       -3.174004    3.256071    0.000054
     20          1           0       -4.724918    1.752997    0.000022
     21          1           0       -1.382893    4.501160    0.000080
     22          1           0       -3.875614    4.090511    0.000075
     23          6           0       -0.427574   -0.023237   -0.000016
     24          8           0        0.386013    2.631877    0.000037
     25          1           0        1.037682    1.164811   -0.000003
 ---------------------------------------------------------------------
                    Distance matrix (angstroms):
                    1          2          3          4          5
     1  C    0.000000
     2  C    1.394343   0.000000
     3  C    2.450181   1.418303   0.000000
     4  C    2.836971   2.437228   1.397164   0.000000
     5  C    2.429239   2.769440   2.396456   1.390254   0.000000
     6  C    1.395060   2.394249   2.789183   2.434451   1.400940
     7  H    1.090734   2.166511   3.441933   3.927705   3.421876
     8  H    3.927279   3.427093   2.159665   1.090317   2.168481
     9  H    3.411958   3.860607   3.384867   2.144298   1.091222
    10  H    2.152843   3.385489   3.879661   3.415769   2.161562
    11  N    3.636760   2.331638   1.375310   2.480557   3.705059
    12  S    2.842149   1.762472   2.625526   3.960387   4.517774
    13  C    5.275985   3.895153   3.614755   4.871042   6.011203
    14  C    6.042928   4.742126   4.775827   6.107455   7.144854
    15  C    6.223118   4.834735   4.134725   5.126402   6.433249
    16  C    7.447274   6.126841   6.033120   7.305653   8.426124
    17  H    5.755657   4.583826   4.940023   6.328521   7.202561
    18  C    7.596508   6.202754   5.558534   6.535439   7.853821
    19  C    8.124670   6.746356   6.361714   7.491626   8.736938
    20  H    8.132290   6.872538   6.934265   8.249803   9.308345
    21  H    8.343616   6.962568   6.150867   6.963539   8.329187
    22  H    9.213193   7.836119   7.437185   8.540007   9.803587
    23  C    3.861950   2.473706   2.285533   3.630022   4.661881
    24  O    6.032590   4.711316   3.691443   4.396268   5.770594
    25  H    4.471637   3.203255   2.089542   2.869554   4.213900
                    6          7          8          9         10
     6  C    0.000000
     7  H    2.167520   0.000000
     8  H    3.427972   5.018013   0.000000
     9  H    2.158438   4.316286   2.489140   0.000000
    10  H    1.090584   2.492329   4.321473   2.480862   0.000000
    11  N    4.156142   4.498126   2.773173   4.611564   5.246386
    12  S    4.088080   3.072711   4.781191   5.607843   4.987499
    13  C    6.184601   5.805784   5.135994   6.977470   7.238149
    14  C    7.124771   6.364628   6.466940   8.160171   8.126105
    15  C    6.900892   6.914079   5.071904   7.267089   7.988240
    16  C    8.494122   7.782039   7.534883   9.407345   9.512008
    17  H    6.968281   5.895658   6.850641   8.264274   7.897649
    18  C    8.318343   8.231999   6.415809   8.670713   9.403902
    19  C    9.018764   8.608508   7.518464   9.634626  10.081084
    20  H    9.264172   8.348065   8.543718  10.319114  10.245377
    21  H    8.939623   9.057145   6.677124   9.054820  10.030205
    22  H   10.106849   9.683735   8.516444  10.684301  11.170495
    23  C    4.760050   4.457802   4.093210   5.670041   5.810197
    24  O    6.465474   6.873382   4.123956   6.481283   7.551837
    25  H    4.860303   5.367091   2.822488   5.000533   5.947147
                   11         12         13         14         15
    11  N    0.000000
    12  S    2.613045   0.000000
    13  C    2.404151   2.860921   0.000000
    14  C    3.700039   3.292127   1.385524   0.000000
    15  C    2.760445   4.177169   1.490036   2.478033   0.000000
    16  C    4.835612   4.709657   2.434622   1.417567   2.829870
    17  H    4.102093   2.913650   2.155628   1.092720   3.481820
    18  C    4.184932   5.354866   2.497199   2.828061   1.424901
    19  C    5.034502   5.573799   2.851291   2.455431   2.458975
    20  H    5.806528   5.314475   3.409175   2.163987   3.920953
    21  H    4.786961   6.289310   3.472132   3.918259   2.144787
    22  H    6.098580   6.636569   3.941255   3.439737   3.445928
    23  C    1.358757   1.757759   1.428391   2.490294   2.482191
    24  O    2.395838   4.526568   2.394938   3.627707   1.264999
    25  H    0.885861   3.413834   2.434967   3.817315   2.276704
                   16         17         18         19         20
    16  C    0.000000
    17  H    2.169283   0.000000
    18  C    2.414477   3.920092   0.000000
    19  C    1.397519   3.431746   1.394562   0.000000
    20  H    1.091091   2.470470   3.403582   2.159760   0.000000
    21  H    3.418987   5.010602   1.090945   2.181358   4.326837
    22  H    2.160043   4.322346   2.160187   1.090205   2.487023
    23  C    3.774850   2.757708   3.774461   4.277469   4.649964
    24  O    4.094867   4.539423   2.349233   3.614324   5.185946
    25  H    4.752071   4.426592   3.670312   4.702305   5.792540
                   21         22         23         24         25
    21  H    0.000000
    22  H    2.526319   0.000000
    23  C    4.624154   5.367672   0.000000
    24  O    2.573567   4.504340   2.776969   0.000000
    25  H    4.121943   5.718409   1.886381   1.605290   0.000000
 Symmetry turned off by external request.
 Stoichiometry    C13H9NOS
 Framework group  C1[X(C13H9NOS)]
 Deg. of freedom    69
 Full point group                 C1      NOp   1
 Rotational constants (GHZ):           1.3833984           0.2858054           0.2368691
 Leave Link  202 at Mon Jul 13 16:30:04 2020, MaxMem=  7784628224 cpu:               0.2 elap:               0.1
 (Enter /gpfs/loomis/apps/avx/software/Gaussian/16-C.01_AVX/g16/l301.exe)
 Standard basis: CC-pVDZ (5D, 7F)
 Ernie: Thresh=  0.10000D-02 Tol=  0.10000D-05 Strict=F.
 Ernie:  40 primitive shells out of 425 were deleted.
   273 basis functions,   629 primitive gaussians,   289 cartesian basis functions
    59 alpha electrons       59 beta electrons
       nuclear repulsion energy      1099.4896504352 Hartrees.
 IExCor= 4639 DFT=T Ex+Corr=wB97XD ExCW=0 ScaHFX=  1.000000
 ScaDFX=  1.000000  1.000000  1.000000  1.000000 ScalE2=  1.000000  1.000000
 IRadAn=      5 IRanWt=     -1 IRanGd=            0 ICorTp=0 IEmpDi=121
 HFx  wShort=  0.000000 wLong=  0.200000 cFull=  0.222036 cShort=  0.000000 cLong=  0.777964
 DFx  wShort=  0.000000 wLong=  0.200000 cFull=  0.000000 cShort=  0.000000 cLong=  1.000000
 NAtoms=   25 NActive=   25 NUniq=   25 SFac= 1.00D+00 NAtFMM=   60 NAOKFM=F Big=F
 Integral buffers will be    131072 words long.
 Raffenetti 1 integral format.
 Two-electron integral symmetry is turned off.
 R6Disp:  Grimme-D2 Dispersion energy=       -0.0140691132 Hartrees.
 Nuclear repulsion after empirical dispersion term =     1099.4755813220 Hartrees.
 ------------------------------------------------------------------------------
 Polarizable Continuum Model (PCM)
 =================================
 Model                : PCM.
 Atomic radii         : UFF (Universal Force Field).
 Polarization charges : Total charges.
 Charge compensation  : None.
 Solution method      : On-the-fly selection.
 Cavity type          : Scaled VdW (van der Waals Surface) (Alpha=1.100).
 Cavity algorithm     : GePol (No added spheres)
                        Default sphere list used, NSphG=   25.
                        Lebedev-Laikov grids with approx.  5.0 points / Ang**2.
                        Smoothing algorithm: York/Karplus (Gamma=1.0000).
                        Polarization charges: spherical gaussians, with
                                              point-specific exponents (IZeta= 3).
                        Self-potential: point-specific (ISelfS= 7).
                        Self-field    : sphere-specific E.n sum rule (ISelfD= 2).
 1st derivatives      : Analytical E(r).r(x)/FMM algorithm (CHGder, D1EAlg=3).
                        Cavity 1st derivative terms included.
 Solvent              : CarbonTetraChloride, Eps=   2.228000 Eps(inf)=   2.131892
 ------------------------------------------------------------------------------
 GePol: Number of generator spheres                  =      25
 GePol: Total number of spheres                      =      25
 GePol: Number of exposed spheres                    =      25 (100.00%)
 GePol: Number of points                             =    2201
 GePol: Average weight of points                     =       0.12
 GePol: Minimum weight of points                     =   0.25D-10
 GePol: Maximum weight of points                     =    0.20577
 GePol: Number of points with low weight             =     155
 GePol: Fraction of low-weight points (<1% of avg)   =       7.04%
 GePol: Cavity surface area                          =    273.837 Ang**2
 GePol: Cavity volume                                =    292.983 Ang**3
 Leave Link  301 at Mon Jul 13 16:30:04 2020, MaxMem=  7784628224 cpu:               1.0 elap:               0.2
 (Enter /gpfs/loomis/apps/avx/software/Gaussian/16-C.01_AVX/g16/l302.exe)
 NPDir=0 NMtPBC=     1 NCelOv=     1 NCel=       1 NClECP=     1 NCelD=      1
         NCelK=      1 NCelE2=     1 NClLst=     1 CellRange=     0.0.
 One-electron integrals computed using PRISM.
 NBasis=   273 RedAO= T EigKep=  3.03D-04  NBF=   273
 NBsUse=   273 1.00D-06 EigRej= -1.00D+00 NBFU=   273
 Precomputing XC quadrature grid using
 IXCGrd= 4 IRadAn=           5 IRanWt=          -1 IRanGd=           0 AccXCQ= 0.00D+00.
 Generated NRdTot=       0 NPtTot=           0 NUsed=           0 NTot=          32
 NSgBfM=   288   288   288   288   288 MxSgAt=    25 MxSgA2=    25.
 Leave Link  302 at Mon Jul 13 16:30:06 2020, MaxMem=  7784628224 cpu:               7.6 elap:               1.2
 (Enter /gpfs/loomis/apps/avx/software/Gaussian/16-C.01_AVX/g16/l303.exe)
 DipDrv:  MaxL=1.
 Leave Link  303 at Mon Jul 13 16:30:06 2020, MaxMem=  7784628224 cpu:               0.6 elap:               0.2
 (Enter /gpfs/loomis/apps/avx/software/Gaussian/16-C.01_AVX/g16/l308.exe)
 Leave Link  308 at Mon Jul 13 16:30:06 2020, MaxMem=  7784628224 cpu:               0.8 elap:               0.2
 (Enter /gpfs/loomis/apps/avx/software/Gaussian/16-C.01_AVX/g16/l401.exe)
 ExpMin= 1.22D-01 ExpMax= 1.11D+05 ExpMxC= 1.07D+03 IAcc=3 IRadAn=         5 AccDes= 0.00D+00
 Harris functional with IExCor= 4639 and IRadAn=       5 diagonalized for initial guess.
 HarFok:  IExCor= 4639 AccDes= 0.00D+00 IRadAn=         5 IDoV= 1 UseB2=F ITyADJ=14
 ICtDFT=  3500011 ScaDFX=  1.000000  1.000000  1.000000  1.000000
 FoFCou: FMM=F IPFlag=           0 FMFlag=      100000 FMFlg1=           0
         NFxFlg=           0 DoJE=T BraDBF=F KetDBF=T FulRan=T
         wScrn=  0.000000 ICntrl=       500 IOpCl=  0 I1Cent=   200000004 NGrid=           0
         NMat0=    1 NMatS0=      1 NMatT0=    0 NMatD0=    1 NMtDS0=    0 NMtDT0=    0
 Symmetry not used in FoFCou.
 Harris En= -994.422178705362    
 JPrj=0 DoOrth=F DoCkMO=F.
 Leave Link  401 at Mon Jul 13 16:30:08 2020, MaxMem=  7784628224 cpu:              13.8 elap:               1.8
 (Enter /gpfs/loomis/apps/avx/software/Gaussian/16-C.01_AVX/g16/l502.exe)
 Two-electron integral symmetry not used.
 Closed shell SCF:
 Using DIIS extrapolation, IDIIS=  1040.
 NGot=  7784628224 LenX=  7784455381 LenY=  7784371419
 Requested convergence on RMS density matrix=1.00D-08 within 128 cycles.
 Requested convergence on MAX density matrix=1.00D-06.
 Requested convergence on             energy=1.00D-06.
 No special actions if energy rises.
 Fock matrices will be formed incrementally for  20 cycles.

 Cycle   1  Pass 1  IDiag  1:
 FoFJK:  IHMeth= 1 ICntrl=       0 DoSepK=T KAlg= 0 I1Cent=           0 FoldK=F
 IRaf=         1 NMat=       1 IRICut=       1 DoRegI=T DoRafI=F ISym2E= 0 IDoP0=0 IntGTp=1.
 FoFCou: FMM=F IPFlag=           0 FMFlag=      100000 FMFlg1=           0
         NFxFlg=           0 DoJE=T BraDBF=F KetDBF=F FulRan=T
         wScrn=  0.000000 ICntrl=       500 IOpCl=  0 I1Cent=           0 NGrid=           0
         NMat0=    1 NMatS0=      1 NMatT0=    0 NMatD0=    1 NMtDS0=    0 NMtDT0=    0
 Symmetry not used in FoFCou.
 Inv3:  Mode=1 IEnd=    14533203.
 Iteration    1 A*A^-1 deviation from unit magnitude is 7.33D-15 for   2184.
 Iteration    1 A*A^-1 deviation from orthogonality  is 2.80D-15 for   2184   2010.
 Iteration    1 A^-1*A deviation from unit magnitude is 7.33D-15 for   2184.
 Iteration    1 A^-1*A deviation from orthogonality  is 2.16D-15 for   2188   2112.
 E= -1028.52913875709    
 DIIS: error= 3.91D-02 at cycle   1 NSaved=   1.
 NSaved= 1 IEnMin= 1 EnMin= -1028.52913875709     IErMin= 1 ErrMin= 3.91D-02
 ErrMax= 3.91D-02  0.00D+00 EMaxC= 1.00D-01 BMatC= 3.94D-01 BMatP= 3.94D-01
 IDIUse=3 WtCom= 6.09D-01 WtEn= 3.91D-01
 Coeff-Com:  0.100D+01
 Coeff-En:   0.100D+01
 Coeff:      0.100D+01
 Gap=     0.311 Goal=   None    Shift=    0.000
 GapD=    0.311 DampG=1.000 DampE=0.500 DampFc=0.5000 IDamp=-1.
 Damping current iteration by 5.00D-01
 RMSDP=3.66D-03 MaxDP=2.45D-01              OVMax= 2.08D-01

 Cycle   2  Pass 1  IDiag  1:
 RMSU=  1.83D-03    CP:  9.94D-01
 E= -1028.65068217673     Delta-E=       -0.121543419638 Rises=F Damp=T
 DIIS: error= 1.17D-02 at cycle   2 NSaved=   2.
 NSaved= 2 IEnMin= 2 EnMin= -1028.65068217673     IErMin= 2 ErrMin= 1.17D-02
 ErrMax= 1.17D-02  0.00D+00 EMaxC= 1.00D-01 BMatC= 5.84D-02 BMatP= 3.94D-01
 IDIUse=3 WtCom= 8.83D-01 WtEn= 1.17D-01
 Coeff-Com: -0.281D+00 0.128D+01
 Coeff-En:   0.000D+00 0.100D+01
 Coeff:     -0.248D+00 0.125D+01
 Gap=     0.280 Goal=   None    Shift=    0.000
 RMSDP=1.17D-03 MaxDP=2.68D-02 DE=-1.22D-01 OVMax= 1.47D-01

 Cycle   3  Pass 1  IDiag  1:
 RMSU=  1.13D-03    CP:  9.93D-01  1.16D+00
 E= -1028.76067174228     Delta-E=       -0.109989565550 Rises=F Damp=F
 DIIS: error= 6.85D-03 at cycle   3 NSaved=   3.
 NSaved= 3 IEnMin= 3 EnMin= -1028.76067174228     IErMin= 3 ErrMin= 6.85D-03
 ErrMax= 6.85D-03  0.00D+00 EMaxC= 1.00D-01 BMatC= 1.57D-02 BMatP= 5.84D-02
 IDIUse=3 WtCom= 9.31D-01 WtEn= 6.85D-02
 Coeff-Com: -0.204D+00 0.501D+00 0.704D+00
 Coeff-En:   0.000D+00 0.000D+00 0.100D+01
 Coeff:     -0.190D+00 0.466D+00 0.724D+00
 Gap=     0.237 Goal=   None    Shift=    0.000
 RMSDP=5.60D-04 MaxDP=1.88D-02 DE=-1.10D-01 OVMax= 4.70D-02

 Cycle   4  Pass 1  IDiag  1:
 RMSU=  4.43D-04    CP:  9.91D-01  1.32D+00  8.41D-01
 E= -1028.77615400668     Delta-E=       -0.015482264400 Rises=F Damp=F
 DIIS: error= 2.29D-03 at cycle   4 NSaved=   4.
 NSaved= 4 IEnMin= 4 EnMin= -1028.77615400668     IErMin= 4 ErrMin= 2.29D-03
 ErrMax= 2.29D-03  0.00D+00 EMaxC= 1.00D-01 BMatC= 1.93D-03 BMatP= 1.57D-02
 IDIUse=3 WtCom= 9.77D-01 WtEn= 2.29D-02
 Coeff-Com: -0.716D-01 0.141D+00 0.341D+00 0.589D+00
 Coeff-En:   0.000D+00 0.000D+00 0.000D+00 0.100D+01
 Coeff:     -0.700D-01 0.138D+00 0.333D+00 0.599D+00
 Gap=     0.238 Goal=   None    Shift=    0.000
 RMSDP=1.77D-04 MaxDP=1.00D-02 DE=-1.55D-02 OVMax= 1.40D-02

 Cycle   5  Pass 1  IDiag  1:
 RMSU=  1.13D-04    CP:  9.91D-01  1.33D+00  9.16D-01  7.66D-01
 E= -1028.77827984873     Delta-E=       -0.002125842050 Rises=F Damp=F
 DIIS: error= 5.61D-04 at cycle   5 NSaved=   5.
 NSaved= 5 IEnMin= 5 EnMin= -1028.77827984873     IErMin= 5 ErrMin= 5.61D-04
 ErrMax= 5.61D-04  0.00D+00 EMaxC= 1.00D-01 BMatC= 6.04D-05 BMatP= 1.93D-03
 IDIUse=3 WtCom= 9.94D-01 WtEn= 5.61D-03
 Coeff-Com:  0.440D-04-0.652D-02 0.229D-01 0.150D+00 0.833D+00
 Coeff-En:   0.000D+00 0.000D+00 0.000D+00 0.000D+00 0.100D+01
 Coeff:      0.437D-04-0.649D-02 0.228D-01 0.149D+00 0.834D+00
 Gap=     0.239 Goal=   None    Shift=    0.000
 RMSDP=6.04D-05 MaxDP=1.96D-03 DE=-2.13D-03 OVMax= 6.45D-03

 Cycle   6  Pass 1  IDiag  1:
 RMSU=  3.82D-05    CP:  9.91D-01  1.33D+00  9.33D-01  8.55D-01  1.12D+00
 E= -1028.77842558013     Delta-E=       -0.000145731400 Rises=F Damp=F
 DIIS: error= 2.55D-04 at cycle   6 NSaved=   6.
 NSaved= 6 IEnMin= 6 EnMin= -1028.77842558013     IErMin= 6 ErrMin= 2.55D-04
 ErrMax= 2.55D-04  0.00D+00 EMaxC= 1.00D-01 BMatC= 1.05D-05 BMatP= 6.04D-05
 IDIUse=3 WtCom= 9.97D-01 WtEn= 2.55D-03
 Coeff-Com:  0.175D-01-0.355D-01-0.695D-01-0.891D-01 0.183D+00 0.994D+00
 Coeff-En:   0.000D+00 0.000D+00 0.000D+00 0.000D+00 0.000D+00 0.100D+01
 Coeff:      0.175D-01-0.354D-01-0.694D-01-0.889D-01 0.182D+00 0.994D+00
 Gap=     0.240 Goal=   None    Shift=    0.000
 RMSDP=3.98D-05 MaxDP=1.85D-03 DE=-1.46D-04 OVMax= 4.85D-03

 Cycle   7  Pass 1  IDiag  1:
 RMSU=  1.83D-05    CP:  9.91D-01  1.33D+00  9.46D-01  8.92D-01  1.34D+00
                    CP:  1.37D+00
 E= -1028.77846634286     Delta-E=       -0.000040762737 Rises=F Damp=F
 DIIS: error= 7.66D-05 at cycle   7 NSaved=   7.
 NSaved= 7 IEnMin= 7 EnMin= -1028.77846634286     IErMin= 7 ErrMin= 7.66D-05
 ErrMax= 7.66D-05  0.00D+00 EMaxC= 1.00D-01 BMatC= 2.04D-06 BMatP= 1.05D-05
 IDIUse=1 WtCom= 1.00D+00 WtEn= 0.00D+00
 Coeff-Com:  0.597D-02-0.112D-01-0.245D-01-0.475D-01-0.266D-01 0.369D+00
 Coeff-Com:  0.735D+00
 Coeff:      0.597D-02-0.112D-01-0.245D-01-0.475D-01-0.266D-01 0.369D+00
 Coeff:      0.735D+00
 Gap=     0.240 Goal=   None    Shift=    0.000
 RMSDP=1.23D-05 MaxDP=4.39D-04 DE=-4.08D-05 OVMax= 1.45D-03

 Cycle   8  Pass 1  IDiag  1:
 RMSU=  7.33D-06    CP:  9.90D-01  1.33D+00  9.47D-01  8.97D-01  1.37D+00
                    CP:  1.58D+00  1.18D+00
 E= -1028.77847167427     Delta-E=       -0.000005331408 Rises=F Damp=F
 DIIS: error= 5.98D-05 at cycle   8 NSaved=   8.
 NSaved= 8 IEnMin= 8 EnMin= -1028.77847167427     IErMin= 8 ErrMin= 5.98D-05
 ErrMax= 5.98D-05  0.00D+00 EMaxC= 1.00D-01 BMatC= 3.78D-07 BMatP= 2.04D-06
 IDIUse=1 WtCom= 1.00D+00 WtEn= 0.00D+00
 Coeff-Com: -0.170D-02 0.364D-02 0.776D-02 0.391D-02-0.411D-01-0.106D+00
 Coeff-Com:  0.214D+00 0.920D+00
 Coeff:     -0.170D-02 0.364D-02 0.776D-02 0.391D-02-0.411D-01-0.106D+00
 Coeff:      0.214D+00 0.920D+00
 Gap=     0.240 Goal=   None    Shift=    0.000
 RMSDP=7.55D-06 MaxDP=1.89D-04 DE=-5.33D-06 OVMax= 1.27D-03

 Cycle   9  Pass 1  IDiag  1:
 RMSU=  3.11D-06    CP:  9.90D-01  1.33D+00  9.47D-01  8.96D-01  1.39D+00
                    CP:  1.69D+00  1.44D+00  1.18D+00
 E= -1028.77847333207     Delta-E=       -0.000001657796 Rises=F Damp=F
 DIIS: error= 1.73D-05 at cycle   9 NSaved=   9.
 NSaved= 9 IEnMin= 9 EnMin= -1028.77847333207     IErMin= 9 ErrMin= 1.73D-05
 ErrMax= 1.73D-05  0.00D+00 EMaxC= 1.00D-01 BMatC= 1.02D-07 BMatP= 3.78D-07
 IDIUse=1 WtCom= 1.00D+00 WtEn= 0.00D+00
 Coeff-Com: -0.135D-02 0.265D-02 0.624D-02 0.786D-02-0.108D-01-0.958D-01
 Coeff-Com: -0.673D-01 0.328D+00 0.830D+00
 Coeff:     -0.135D-02 0.265D-02 0.624D-02 0.786D-02-0.108D-01-0.958D-01
 Coeff:     -0.673D-01 0.328D+00 0.830D+00
 Gap=     0.240 Goal=   None    Shift=    0.000
 RMSDP=3.94D-06 MaxDP=1.20D-04 DE=-1.66D-06 OVMax= 5.65D-04

 Cycle  10  Pass 1  IDiag  1:
 RMSU=  1.55D-06    CP:  9.90D-01  1.33D+00  9.47D-01  8.96D-01  1.40D+00
                    CP:  1.74D+00  1.55D+00  1.45D+00  1.22D+00
 E= -1028.77847369495     Delta-E=       -0.000000362883 Rises=F Damp=F
 DIIS: error= 1.15D-05 at cycle  10 NSaved=  10.
 NSaved=10 IEnMin=10 EnMin= -1028.77847369495     IErMin=10 ErrMin= 1.15D-05
 ErrMax= 1.15D-05  0.00D+00 EMaxC= 1.00D-01 BMatC= 2.20D-08 BMatP= 1.02D-07
 IDIUse=1 WtCom= 1.00D+00 WtEn= 0.00D+00
 Coeff-Com:  0.721D-04-0.216D-03 0.698D-04 0.131D-02 0.769D-02-0.748D-02
 Coeff-Com: -0.886D-01-0.776D-01 0.346D+00 0.819D+00
 Coeff:      0.721D-04-0.216D-03 0.698D-04 0.131D-02 0.769D-02-0.748D-02
 Coeff:     -0.886D-01-0.776D-01 0.346D+00 0.819D+00
 Gap=     0.240 Goal=   None    Shift=    0.000
 RMSDP=1.72D-06 MaxDP=5.55D-05 DE=-3.63D-07 OVMax= 3.17D-04

 Cycle  11  Pass 1  IDiag  1:
 RMSU=  6.02D-07    CP:  9.90D-01  1.33D+00  9.47D-01  8.96D-01  1.40D+00
                    CP:  1.76D+00  1.59D+00  1.55D+00  1.53D+00  1.11D+00
 E= -1028.77847377517     Delta-E=       -0.000000080214 Rises=F Damp=F
 DIIS: error= 3.79D-06 at cycle  11 NSaved=  11.
 NSaved=11 IEnMin=11 EnMin= -1028.77847377517     IErMin=11 ErrMin= 3.79D-06
 ErrMax= 3.79D-06  0.00D+00 EMaxC= 1.00D-01 BMatC= 4.84D-09 BMatP= 2.20D-08
 IDIUse=1 WtCom= 1.00D+00 WtEn= 0.00D+00
 Coeff-Com:  0.293D-03-0.604D-03-0.109D-02-0.102D-02 0.543D-02 0.147D-01
 Coeff-Com: -0.262D-01-0.859D-01-0.361D-01 0.313D+00 0.818D+00
 Coeff:      0.293D-03-0.604D-03-0.109D-02-0.102D-02 0.543D-02 0.147D-01
 Coeff:     -0.262D-01-0.859D-01-0.361D-01 0.313D+00 0.818D+00
 Gap=     0.240 Goal=   None    Shift=    0.000
 RMSDP=7.93D-07 MaxDP=2.09D-05 DE=-8.02D-08 OVMax= 1.24D-04

 Cycle  12  Pass 1  IDiag  1:
 RMSU=  2.49D-07    CP:  9.90D-01  1.33D+00  9.47D-01  8.97D-01  1.40D+00
                    CP:  1.77D+00  1.60D+00  1.60D+00  1.64D+00  1.36D+00
                    CP:  1.14D+00
 E= -1028.77847378925     Delta-E=       -0.000000014084 Rises=F Damp=F
 DIIS: error= 1.47D-06 at cycle  12 NSaved=  12.
 NSaved=12 IEnMin=12 EnMin= -1028.77847378925     IErMin=12 ErrMin= 1.47D-06
 ErrMax= 1.47D-06  0.00D+00 EMaxC= 1.00D-01 BMatC= 6.24D-10 BMatP= 4.84D-09
 IDIUse=1 WtCom= 1.00D+00 WtEn= 0.00D+00
 Coeff-Com:  0.124D-03-0.240D-03-0.508D-03-0.855D-03 0.933D-03 0.830D-02
 Coeff-Com:  0.630D-02-0.168D-01-0.879D-01-0.364D-01 0.284D+00 0.844D+00
 Coeff:      0.124D-03-0.240D-03-0.508D-03-0.855D-03 0.933D-03 0.830D-02
 Coeff:      0.630D-02-0.168D-01-0.879D-01-0.364D-01 0.284D+00 0.844D+00
 Gap=     0.240 Goal=   None    Shift=    0.000
 RMSDP=3.06D-07 MaxDP=7.53D-06 DE=-1.41D-08 OVMax= 5.00D-05

 Cycle  13  Pass 1  IDiag  1:
 RMSU=  9.26D-08    CP:  9.90D-01  1.33D+00  9.47D-01  8.97D-01  1.40D+00
                    CP:  1.77D+00  1.60D+00  1.62D+00  1.69D+00  1.45D+00
                    CP:  1.35D+00  1.07D+00
 E= -1028.77847379140     Delta-E=       -0.000000002147 Rises=F Damp=F
 DIIS: error= 4.28D-07 at cycle  13 NSaved=  13.
 NSaved=13 IEnMin=13 EnMin= -1028.77847379140     IErMin=13 ErrMin= 4.28D-07
 ErrMax= 4.28D-07  0.00D+00 EMaxC= 1.00D-01 BMatC= 6.39D-11 BMatP= 6.24D-10
 IDIUse=1 WtCom= 1.00D+00 WtEn= 0.00D+00
 Coeff-Com: -0.161D-04 0.348D-04 0.585D-04-0.255D-04-0.328D-03-0.808D-04
 Coeff-Com:  0.338D-02 0.738D-02-0.120D-01-0.408D-01-0.715D-01 0.167D+00
 Coeff-Com:  0.947D+00
 Coeff:     -0.161D-04 0.348D-04 0.585D-04-0.255D-04-0.328D-03-0.808D-04
 Coeff:      0.338D-02 0.738D-02-0.120D-01-0.408D-01-0.715D-01 0.167D+00
 Coeff:      0.947D+00
 Gap=     0.240 Goal=   None    Shift=    0.000
 RMSDP=9.71D-08 MaxDP=2.06D-06 DE=-2.15D-09 OVMax= 1.28D-05

 Cycle  14  Pass 1  IDiag  1:
 RMSU=  3.33D-08    CP:  9.90D-01  1.33D+00  9.47D-01  8.97D-01  1.40D+00
                    CP:  1.77D+00  1.60D+00  1.62D+00  1.70D+00  1.48D+00
                    CP:  1.41D+00  1.24D+00  1.19D+00
 E= -1028.77847379159     Delta-E=       -0.000000000189 Rises=F Damp=F
 DIIS: error= 1.37D-07 at cycle  14 NSaved=  14.
 NSaved=14 IEnMin=14 EnMin= -1028.77847379159     IErMin=14 ErrMin= 1.37D-07
 ErrMax= 1.37D-07  0.00D+00 EMaxC= 1.00D-01 BMatC= 5.81D-12 BMatP= 6.39D-11
 IDIUse=1 WtCom= 1.00D+00 WtEn= 0.00D+00
 Coeff-Com: -0.120D-04 0.241D-04 0.496D-04 0.517D-04-0.149D-03-0.626D-03
 Coeff-Com:  0.186D-03 0.333D-02 0.425D-02-0.415D-02-0.398D-01-0.259D-01
 Coeff-Com:  0.255D+00 0.808D+00
 Coeff:     -0.120D-04 0.241D-04 0.496D-04 0.517D-04-0.149D-03-0.626D-03
 Coeff:      0.186D-03 0.333D-02 0.425D-02-0.415D-02-0.398D-01-0.259D-01
 Coeff:      0.255D+00 0.808D+00
 Gap=     0.240 Goal=   None    Shift=    0.000
 RMSDP=1.74D-08 MaxDP=4.12D-07 DE=-1.89D-10 OVMax= 1.93D-06

 Cycle  15  Pass 1  IDiag  1:
 RMSU=  1.13D-08    CP:  9.90D-01  1.33D+00  9.47D-01  8.97D-01  1.40D+00
                    CP:  1.77D+00  1.60D+00  1.62D+00  1.70D+00  1.49D+00
                    CP:  1.41D+00  1.26D+00  1.30D+00  1.13D+00
 E= -1028.77847379160     Delta-E=       -0.000000000011 Rises=F Damp=F
 DIIS: error= 7.97D-08 at cycle  15 NSaved=  15.
 NSaved=15 IEnMin=15 EnMin= -1028.77847379160     IErMin=15 ErrMin= 7.97D-08
 ErrMax= 7.97D-08  0.00D+00 EMaxC= 1.00D-01 BMatC= 8.68D-13 BMatP= 5.81D-12
 IDIUse=1 WtCom= 1.00D+00 WtEn= 0.00D+00
 Coeff-Com: -0.233D-05 0.419D-05 0.113D-04 0.298D-04-0.714D-05-0.272D-03
 Coeff-Com: -0.583D-03-0.784D-04 0.350D-02 0.594D-02-0.216D-02-0.448D-01
 Coeff-Com: -0.797D-01 0.215D+00 0.903D+00
 Coeff:     -0.233D-05 0.419D-05 0.113D-04 0.298D-04-0.714D-05-0.272D-03
 Coeff:     -0.583D-03-0.784D-04 0.350D-02 0.594D-02-0.216D-02-0.448D-01
 Coeff:     -0.797D-01 0.215D+00 0.903D+00
 Gap=     0.240 Goal=   None    Shift=    0.000
 RMSDP=1.13D-08 MaxDP=3.38D-07 DE=-1.11D-11 OVMax= 1.60D-06

 Cycle  16  Pass 1  IDiag  1:
 RMSU=  4.44D-09    CP:  9.90D-01  1.33D+00  9.47D-01  8.97D-01  1.40D+00
                    CP:  1.77D+00  1.60D+00  1.62D+00  1.70D+00  1.49D+00
                    CP:  1.42D+00  1.28D+00  1.36D+00  1.30D+00  1.13D+00
 E= -1028.77847379160     Delta-E=       -0.000000000009 Rises=F Damp=F
 DIIS: error= 2.70D-08 at cycle  16 NSaved=  16.
 NSaved=16 IEnMin=16 EnMin= -1028.77847379160     IErMin=16 ErrMin= 2.70D-08
 ErrMax= 2.70D-08  0.00D+00 EMaxC= 1.00D-01 BMatC= 1.31D-13 BMatP= 8.68D-13
 IDIUse=1 WtCom= 1.00D+00 WtEn= 0.00D+00
 Coeff-Com:  0.696D-06-0.147D-05-0.239D-05 0.124D-05 0.101D-04-0.225D-06
 Coeff-Com: -0.145D-03-0.304D-03 0.298D-03 0.173D-02 0.340D-02-0.817D-02
 Coeff-Com: -0.375D-01-0.623D-01 0.230D+00 0.873D+00
 Coeff:      0.696D-06-0.147D-05-0.239D-05 0.124D-05 0.101D-04-0.225D-06
 Coeff:     -0.145D-03-0.304D-03 0.298D-03 0.173D-02 0.340D-02-0.817D-02
 Coeff:     -0.375D-01-0.623D-01 0.230D+00 0.873D+00
 Gap=     0.240 Goal=   None    Shift=    0.000
 RMSDP=3.18D-09 MaxDP=1.17D-07 DE=-8.64D-12 OVMax= 3.55D-07

 Error on total polarization charges =  0.00847
 SCF Done:  E(RwB97XD) =  -1028.77847379     A.U. after   16 cycles
            NFock= 16  Conv=0.32D-08     -V/T= 2.0046
 KE= 1.024078630457D+03 PE=-4.610995732838D+03 EE= 1.458663047267D+03
 Leave Link  502 at Mon Jul 13 16:31:37 2020, MaxMem=  7784628224 cpu:             880.9 elap:              89.2
 (Enter /gpfs/loomis/apps/avx/software/Gaussian/16-C.01_AVX/g16/l801.exe)
 DoSCS=F DFT=T ScalE2(SS,OS)=  1.000000  1.000000
 ExpMin= 1.22D-01 ExpMax= 1.11D+05 ExpMxC= 1.07D+03 IAcc=3 IRadAn=         5 AccDes= 0.00D+00
 HarFok:  IExCor=  205 AccDes= 0.00D+00 IRadAn=         5 IDoV=-2 UseB2=F ITyADJ=14
 ICtDFT= 12500011 ScaDFX=  1.000000  1.000000  1.000000  1.000000
 Largest valence mixing into a core orbital is  9.53D-05
 Largest core mixing into a valence orbital is  3.16D-05
 Range of M.O.s used for correlation:    21   273
 NBasis=   273 NAE=    59 NBE=    59 NFC=    20 NFV=     0
 NROrb=    253 NOA=    39 NOB=    39 NVA=   214 NVB=   214
 Leave Link  801 at Mon Jul 13 16:31:38 2020, MaxMem=  7784628224 cpu:               4.3 elap:               0.6
 (Enter /gpfs/loomis/apps/avx/software/Gaussian/16-C.01_AVX/g16/l914.exe)
 RHF ground state
 Keep R1, R2, and R3 ints in memory in canonical form, NReq=4262515490.
 FoFCou: FMM=F IPFlag=           0 FMFlag=           0 FMFlg1=           0
         NFxFlg=           0 DoJE=F BraDBF=F KetDBF=F FulRan=T
         wScrn=  0.000000 ICntrl=       600 IOpCl=  0 I1Cent=           0 NGrid=           0
         NMat0=    1 NMatS0=  37401 NMatT0=    0 NMatD0=    1 NMtDS0=    0 NMtDT0=    0
 Symmetry not used in FoFCou.
 Two-electron integral symmetry not used.
 MDV=  7784628224 DFT=T DoStab=F Mixed=T DoRPA=T DoScal=F NonHer=T
 NEqPCM:  Using equilibrium solvation (IEInf=0, Eps=   2.2280, EpsInf=   2.1319)
 Making orbital integer symmetry assigments:
    12 initial guesses have been made.
 Convergence on wavefunction:    0.000001000000000
 Davidson Disk Diagonalization:  ConvIn= 1.00D-06 SkipCon=T Conv= 1.00D-06.
 Max sub-space:  2000 roots to seek:    12 dimension of matrix:        16692
 Iteration     1 Dimension    12 NMult     0 NNew     12
 CISAX will form    12 AO SS matrices at one time.
 NMat=    12 NSing=    12 JSym2X= 0.
 New state      2 was old state      4
 New state      3 was old state      2
 Excitation Energies [eV] at current iteration:
 Root      1 :     3.482537731860125
 Root      2 :     3.854483213632857
 Root      3 :     4.875947731354689
 Root      4 :     5.226585722790588
 Root      5 :     5.295429754024839
 Root      6 :     5.750318598614188
 Root      7 :     5.951735154391417
 Root      8 :     6.401931907160557
 Root      9 :     6.497178000703842
 Root     10 :     6.833321897320169
 Root     11 :     6.969128937247541
 Root     12 :     7.205388073222982
 Iteration     2 Dimension    18 NMult    12 NNew      6
 CISAX will form     6 AO SS matrices at one time.
 NMat=     6 NSing=     6 JSym2X= 0.
 Root      1 not converged, maximum delta is    0.045850918410200
 Root      2 not converged, maximum delta is    0.110234209569048
 Root      3 not converged, maximum delta is    0.080344797168390
 Excitation Energies [eV] at current iteration:
 Root      1 :     2.969140923184799   Change is   -0.513396808675326
 Root      2 :     3.641613254454049   Change is   -0.212869959178808
 Root      3 :     4.405920804631331   Change is   -0.470026926723357
 Iteration     3 Dimension    24 NMult    18 NNew      6
 CISAX will form     6 AO SS matrices at one time.
 NMat=     6 NSing=     6 JSym2X= 0.
 Root      1 not converged, maximum delta is    0.016094410851023
 Root      2 not converged, maximum delta is    0.031016716374377
 Root      3 not converged, maximum delta is    0.027431590553908
 Excitation Energies [eV] at current iteration:
 Root      1 :     2.937795916890315   Change is   -0.031345006294485
 Root      2 :     3.620823466673163   Change is   -0.020789787780886
 Root      3 :     4.376767244268286   Change is   -0.029153560363046
 Iteration     4 Dimension    30 NMult    24 NNew      6
 CISAX will form     6 AO SS matrices at one time.
 NMat=     6 NSing=     6 JSym2X= 0.
 Root      1 not converged, maximum delta is    0.008525978139765
 Root      2 not converged, maximum delta is    0.010224717182499
 Root      3 not converged, maximum delta is    0.016835960665116
 Excitation Energies [eV] at current iteration:
 Root      1 :     2.932856919926922   Change is   -0.004938996963393
 Root      2 :     3.618884634176906   Change is   -0.001938832496258
 Root      3 :     4.370416010144484   Change is   -0.006351234123801
 Iteration     5 Dimension    36 NMult    30 NNew      6
 CISAX will form     6 AO SS matrices at one time.
 NMat=     6 NSing=     6 JSym2X= 0.
 Root      1 not converged, maximum delta is    0.001935580263854
 Root      2 not converged, maximum delta is    0.001476463809184
 Root      3 not converged, maximum delta is    0.008895518380159
 Excitation Energies [eV] at current iteration:
 Root      1 :     2.932215807546375   Change is   -0.000641112380547
 Root      2 :     3.618763000133537   Change is   -0.000121634043369
 Root      3 :     4.369058124577039   Change is   -0.001357885567445
 Iteration     6 Dimension    42 NMult    36 NNew      6
 CISAX will form     6 AO SS matrices at one time.
 NMat=     6 NSing=     6 JSym2X= 0.
 Root      1 not converged, maximum delta is    0.000399061223144
 Root      2 not converged, maximum delta is    0.000323189430207
 Root      3 not converged, maximum delta is    0.002367805082843
 Excitation Energies [eV] at current iteration:
 Root      1 :     2.932171747948428   Change is   -0.000044059597947
 Root      2 :     3.618757167941049   Change is   -0.000005832192488
 Root      3 :     4.368876298799576   Change is   -0.000181825777463
 Iteration     7 Dimension    48 NMult    42 NNew      6
 CISAX will form     6 AO SS matrices at one time.
 NMat=     6 NSing=     6 JSym2X= 0.
 Root      1 not converged, maximum delta is    0.000098050089688
 Root      2 not converged, maximum delta is    0.000132155533408
 Root      3 not converged, maximum delta is    0.000524286112206
 Excitation Energies [eV] at current iteration:
 Root      1 :     2.932168217152859   Change is   -0.000003530795570
 Root      2 :     3.618756652010481   Change is   -0.000000515930567
 Root      3 :     4.368855014681312   Change is   -0.000021284118264
 Iteration     8 Dimension    54 NMult    48 NNew      6
 CISAX will form     6 AO SS matrices at one time.
 NMat=     6 NSing=     6 JSym2X= 0.
 Root      1 not converged, maximum delta is    0.000025547986045
 Root      2 not converged, maximum delta is    0.000015699834133
 Root      3 not converged, maximum delta is    0.000198329488003
 Excitation Energies [eV] at current iteration:
 Root      1 :     2.932168053771790   Change is   -0.000000163381069
 Root      2 :     3.618756627508404   Change is   -0.000000024502077
 Root      3 :     4.368852877980832   Change is   -0.000002136700480
 Iteration     9 Dimension    60 NMult    54 NNew      6
 CISAX will form     6 AO SS matrices at one time.
 NMat=     6 NSing=     6 JSym2X= 0.
 Root      1 not converged, maximum delta is    0.000009783674592
 Root      2 not converged, maximum delta is    0.000003288554323
 Root      3 not converged, maximum delta is    0.000050605986772
 Excitation Energies [eV] at current iteration:
 Root      1 :     2.932168039077085   Change is   -0.000000014694704
 Root      2 :     3.618756626450539   Change is   -0.000000001057866
 Root      3 :     4.368852688927206   Change is   -0.000000189053626
 Iteration    10 Dimension    66 NMult    60 NNew      6
 CISAX will form     6 AO SS matrices at one time.
 NMat=     6 NSing=     6 JSym2X= 0.
 Root      1 not converged, maximum delta is    0.000002680310455
 Root      2 not converged, maximum delta is    0.000001953908793
 Root      3 not converged, maximum delta is    0.000027589433066
 Excitation Energies [eV] at current iteration:
 Root      1 :     2.932168038242273   Change is   -0.000000000834813
 Root      2 :     3.618756626357104   Change is   -0.000000000093435
 Root      3 :     4.368852659391189   Change is   -0.000000029536017
 Iteration    11 Dimension    72 NMult    66 NNew      6
 CISAX will form     6 AO SS matrices at one time.
 NMat=     6 NSing=     6 JSym2X= 0.
 Root      1 has converged.
 Root      2 has converged.
 Root      3 not converged, maximum delta is    0.000008447296067
 Excitation Energies [eV] at current iteration:
 Root      1 :     2.932168038177901   Change is   -0.000000000064371
 Root      2 :     3.618756626345450   Change is   -0.000000000011654
 Root      3 :     4.368852656397127   Change is   -0.000000002994061
 Iteration    12 Dimension    74 NMult    72 NNew      2
 CISAX will form     2 AO SS matrices at one time.
 NMat=     2 NSing=     2 JSym2X= 0.
 Root      1 has converged.
 Root      2 has converged.
 Root      3 not converged, maximum delta is    0.000001799327043
 Excitation Energies [eV] at current iteration:
 Root      1 :     2.932168038176387   Change is   -0.000000000001514
 Root      2 :     3.618756626345426   Change is   -0.000000000000023
 Root      3 :     4.368852656146395   Change is   -0.000000000250733
 Iteration    13 Dimension    76 NMult    74 NNew      2
 CISAX will form     2 AO SS matrices at one time.
 NMat=     2 NSing=     2 JSym2X= 0.
 Root      1 has converged.
 Root      2 has converged.
 Root      3 has converged.
 Excitation Energies [eV] at current iteration:
 Root      1 :     2.932168038176246   Change is   -0.000000000000140
 Root      2 :     3.618756626345336   Change is   -0.000000000000091
 Root      3 :     4.368852656122272   Change is   -0.000000000024122
 Convergence achieved on expansion vectors.
 ***********************************************************************
 Excited states from <AA,BB:AA,BB> singles matrix:
 ***********************************************************************
 
 1PDM for each excited state written to RWF  633
 Ground to excited state transition densities written to RWF  633
 Ground to excited state transition electric dipole moments (Au):
       state          X           Y           Z        Dip. S.      Osc.
         1         1.1494     -2.2254     -0.0000      6.2734      0.4507
         2        -0.0000      0.0000     -0.0016      0.0000      0.0000
         3        -1.6629      1.0183      0.0000      3.8021      0.4070
 Ground to excited state transition velocity dipole moments (Au):
       state          X           Y           Z        Dip. S.      Osc.
         1        -0.1194      0.2425      0.0000      0.0730      0.4519
         2         0.0000     -0.0000      0.0005      0.0000      0.0000
         3         0.2618     -0.1533     -0.0000      0.0921      0.3822
 Ground to excited state transition magnetic dipole moments (Au):
       state          X           Y           Z
         1         0.0000      0.0000     -1.1443
         2         0.3583      0.0057      0.0000
         3        -0.0000      0.0000     -1.0159
 Ground to excited state transition velocity quadrupole moments (Au):
       state          XX          YY          ZZ          XY          XZ          YZ
         1        -0.0030      0.6362     -0.0127     -0.2638     -0.0000      0.0000
         2         0.0000     -0.0000      0.0000      0.0000     -0.0073      0.0173
         3        -0.4347      0.5129      0.0025      0.0849      0.0000      0.0000
 <0|del|b> * <b|rxdel|0> + <0|del|b> * <b|delr+rdel|0>
 Rotatory Strengths (R) in cgs (10**-40 erg-esu-cm/Gauss)
       state          XX          YY          ZZ    R(velocity)    E-M Angle
         1         0.0106     -0.0211      0.0201      0.0032       90.00
         2        -0.0002      0.0023      0.0021      0.0014       90.00
         3        -0.0001      0.0026     -0.0070     -0.0015       90.00
 1/2[<0|r|b>*<b|rxdel|0> + (<0|rxdel|b>*<b|r|0>)*]
 Rotatory Strengths (R) in cgs (10**-40 erg-esu-cm/Gauss)
       state          XX          YY          ZZ     R(length)
         1        -0.0096      0.0477     -0.0285      0.0032
         2         0.0044     -0.0002      0.0000      0.0014
         3        -0.0044     -0.0058      0.0065     -0.0012
  1/2[<0|del|b>*<b|r|0> + (<0|r|b>*<b|del|0>)*] (Au)
       state          X           Y           Z        Dip. S.   Osc.(frdel)
         1        -0.1372     -0.5396     -0.0000      0.6768      0.4512
         2        -0.0000     -0.0000     -0.0000      0.0000      0.0000
         3        -0.4354     -0.1561     -0.0000      0.5915      0.3943

 Excitation energies and oscillator strengths:
 
 Excited state symmetry could not be determined.
 Excited State   1:      Singlet-?Sym    2.9322 eV  422.84 nm  f=0.4507  <S**2>=0.000
      59 -> 60         0.69784
 This state for optimization and/or second-order correction.
 Total Energy, E(TD-HF/TD-DFT) =  -1028.67071860    
 Copying the excited state density for this state as the 1-particle RhoCI density.
 
 Excited state symmetry could not be determined.
 Excited State   2:      Singlet-?Sym    3.6188 eV  342.62 nm  f=0.0000  <S**2>=0.000
      57 -> 60         0.68380
      57 -> 62         0.11584
      57 -> 64         0.11817
 
 Excited state symmetry could not be determined.
 Excited State   3:      Singlet-?Sym    4.3689 eV  283.79 nm  f=0.4070  <S**2>=0.000
      58 -> 60         0.68207
 SavETr:  write IOETrn=   770 NScale= 10 NData=  16 NLR=1 NState=    3 LETran=      64.
 The selected state is a singlet.
 CISGrd: IGrad=2 NXY=2 DFT=T
 CISAX will form     1 AO SS matrices at one time.
 NMat=     1 NSing=     1 JSym2X= 0.
 GePol: Maximum number of non-zero 1st derivatives   =     264
 Leave Link  914 at Mon Jul 13 16:34:41 2020, MaxMem=  7784628224 cpu:            1791.4 elap:             183.6
 (Enter /gpfs/loomis/apps/avx/software/Gaussian/16-C.01_AVX/g16/l1002.exe)
 Minotr:  Closed shell wavefunction.
          Computing CIS/TDA/TD derivatives.
          Using Z-Vector for PSCF gradient.
          Skipping F1 and S1 gradient terms here.
          IDoAtm=1111111111111111111111111
 NEqPCM:  Using equilibrium solvation (IEInf=0, Eps=   2.2280, EpsInf=   2.1319)
          Frozen-core window.
          Direct CPHF calculation.
          Differentiating once with respect to electric field.
                with respect to dipole field.
          Differentiating once with respect to nuclear coordinates.
          Requested convergence is 1.0D-10 RMS, and 1.0D-09 maximum.
          NewPWx=F KeepS1=T KeepF1=T KeepIn=T MapXYZ=F SortEE=F KeepMc=T.
 Keep R1 ints in memory in canonical form, NReq=1421591874.
 FoFCou: FMM=F IPFlag=           0 FMFlag=           0 FMFlg1=           0
         NFxFlg=           0 DoJE=F BraDBF=F KetDBF=F FulRan=T
         wScrn=  0.000000 ICntrl=       600 IOpCl=  0 I1Cent=           0 NGrid=           0
         NMat0=    1 NMatS0=  37401 NMatT0=    0 NMatD0=    1 NMtDS0=    0 NMtDT0=    0
 Symmetry not used in FoFCou.
 Two-electron integral symmetry not used.
          MDV=    7784628224 using IRadAn=       5.
          Solving linear equations separately, MaxMat=       0.
          There are     1 degrees of freedom in the 1st order CPHF.  IDoFFX=0 NUNeed=     1.
 LinEq1:  Iter=  0 NonCon=     1 RMS=6.69D-03 Max=5.18D-01 NDo=     1
 AX will form     1 AO Fock derivatives at one time.
 LinEq1:  Iter=  1 NonCon=     1 RMS=3.08D-03 Max=1.73D-01 NDo=     1
 LinEq1:  Iter=  2 NonCon=     1 RMS=1.67D-03 Max=4.20D-02 NDo=     1
 LinEq1:  Iter=  3 NonCon=     1 RMS=7.39D-04 Max=2.00D-02 NDo=     1
 LinEq1:  Iter=  4 NonCon=     1 RMS=4.41D-04 Max=1.26D-02 NDo=     1
 LinEq1:  Iter=  5 NonCon=     1 RMS=2.16D-04 Max=6.84D-03 NDo=     1
 LinEq1:  Iter=  6 NonCon=     1 RMS=8.92D-05 Max=3.96D-03 NDo=     1
 LinEq1:  Iter=  7 NonCon=     1 RMS=4.68D-05 Max=1.62D-03 NDo=     1
 LinEq1:  Iter=  8 NonCon=     1 RMS=1.74D-05 Max=5.61D-04 NDo=     1
 LinEq1:  Iter=  9 NonCon=     1 RMS=8.54D-06 Max=2.38D-04 NDo=     1
 LinEq1:  Iter= 10 NonCon=     1 RMS=3.10D-06 Max=6.44D-05 NDo=     1
 LinEq1:  Iter= 11 NonCon=     1 RMS=1.63D-06 Max=7.29D-05 NDo=     1
 LinEq1:  Iter= 12 NonCon=     1 RMS=7.05D-07 Max=1.90D-05 NDo=     1
 LinEq1:  Iter= 13 NonCon=     1 RMS=3.56D-07 Max=9.68D-06 NDo=     1
 LinEq1:  Iter= 14 NonCon=     1 RMS=1.22D-07 Max=3.08D-06 NDo=     1
 LinEq1:  Iter= 15 NonCon=     1 RMS=6.39D-08 Max=1.69D-06 NDo=     1
 LinEq1:  Iter= 16 NonCon=     1 RMS=2.87D-08 Max=9.78D-07 NDo=     1
 LinEq1:  Iter= 17 NonCon=     1 RMS=1.36D-08 Max=4.67D-07 NDo=     1
 LinEq1:  Iter= 18 NonCon=     1 RMS=5.95D-09 Max=1.73D-07 NDo=     1
 LinEq1:  Iter= 19 NonCon=     1 RMS=2.58D-09 Max=8.04D-08 NDo=     1
 LinEq1:  Iter= 20 NonCon=     1 RMS=1.29D-09 Max=3.06D-08 NDo=     1
 LinEq1:  Iter= 21 NonCon=     1 RMS=4.01D-10 Max=1.30D-08 NDo=     1
 LinEq1:  Iter= 22 NonCon=     1 RMS=1.75D-10 Max=5.37D-09 NDo=     1
 LinEq1:  Iter= 23 NonCon=     1 RMS=7.37D-11 Max=1.76D-09 NDo=     1
 LinEq1:  Iter= 24 NonCon=     0 RMS=2.05D-11 Max=5.07D-10 NDo=     1
 Linear equations converged to 1.000D-10 1.000D-09 after    24 iterations.
 End of Minotr F.D. properties file   721 does not exist.
 End of Minotr F.D. properties file   722 does not exist.
 End of Minotr F.D. properties file   788 does not exist.
 Leave Link 1002 at Mon Jul 13 16:36:20 2020, MaxMem=  7784628224 cpu:             750.6 elap:              98.9
 (Enter /gpfs/loomis/apps/avx/software/Gaussian/16-C.01_AVX/g16/l601.exe)
 Copying SCF densities to generalized density rwf, IOpCl= 0 IROHF=0.

 **********************************************************************

            Population analysis using the SCF Density.

 **********************************************************************

 Alpha  occ. eigenvalues --  -89.10691 -19.20828 -14.51018 -10.41780 -10.37591
 Alpha  occ. eigenvalues --  -10.36423 -10.35821 -10.33440 -10.32870 -10.32534
 Alpha  occ. eigenvalues --  -10.32397 -10.31496 -10.30969 -10.30780 -10.29264
 Alpha  occ. eigenvalues --  -10.28404  -8.12656  -6.07533  -6.07169  -6.06670
 Alpha  occ. eigenvalues --   -1.13958  -1.09295  -0.98663  -0.95552  -0.93425
 Alpha  occ. eigenvalues --   -0.89237  -0.86865  -0.83898  -0.81264  -0.76425
 Alpha  occ. eigenvalues --   -0.74472  -0.72146  -0.69175  -0.67828  -0.65570
 Alpha  occ. eigenvalues --   -0.60851  -0.59743  -0.56758  -0.56032  -0.55937
 Alpha  occ. eigenvalues --   -0.54984  -0.53724  -0.53130  -0.50714  -0.49199
 Alpha  occ. eigenvalues --   -0.48842  -0.48635  -0.46925  -0.45425  -0.44868
 Alpha  occ. eigenvalues --   -0.44291  -0.43044  -0.42323  -0.40196  -0.36800
 Alpha  occ. eigenvalues --   -0.33685  -0.31701  -0.31538  -0.25990
 Alpha virt. eigenvalues --   -0.01943   0.03690   0.05698   0.06117   0.09295
 Alpha virt. eigenvalues --    0.10532   0.13355   0.14643   0.16315   0.17441
 Alpha virt. eigenvalues --    0.18955   0.20231   0.21275   0.21279   0.23102
 Alpha virt. eigenvalues --    0.23637   0.24023   0.25558   0.28762   0.29829
 Alpha virt. eigenvalues --    0.30929   0.33717   0.35642   0.35866   0.36604
 Alpha virt. eigenvalues --    0.38339   0.39228   0.39958   0.41961   0.44475
 Alpha virt. eigenvalues --    0.46530   0.48579   0.50699   0.51000   0.51408
 Alpha virt. eigenvalues --    0.52821   0.52885   0.53019   0.54351   0.55546
 Alpha virt. eigenvalues --    0.56286   0.56393   0.56481   0.56709   0.57790
 Alpha virt. eigenvalues --    0.58016   0.58980   0.59490   0.59598   0.60198
 Alpha virt. eigenvalues --    0.60703   0.61515   0.61737   0.62497   0.62992
 Alpha virt. eigenvalues --    0.64703   0.66488   0.67097   0.68660   0.68983
 Alpha virt. eigenvalues --    0.70216   0.70755   0.72028   0.72201   0.72967
 Alpha virt. eigenvalues --    0.74266   0.75141   0.76161   0.76178   0.78325
 Alpha virt. eigenvalues --    0.79001   0.79399   0.81127   0.81652   0.83149
 Alpha virt. eigenvalues --    0.83339   0.88065   0.89002   0.91437   0.92445
 Alpha virt. eigenvalues --    0.93761   0.94495   0.95875   0.96826   0.97419
 Alpha virt. eigenvalues --    0.98677   0.99317   1.00168   1.00592   1.01215
 Alpha virt. eigenvalues --    1.02639   1.05073   1.05975   1.05988   1.07295
 Alpha virt. eigenvalues --    1.08181   1.08872   1.10251   1.11237   1.11331
 Alpha virt. eigenvalues --    1.12441   1.12590   1.13353   1.14646   1.15348
 Alpha virt. eigenvalues --    1.17044   1.18825   1.20222   1.23632   1.24023
 Alpha virt. eigenvalues --    1.26969   1.27142   1.32196   1.33268   1.33760
 Alpha virt. eigenvalues --    1.34737   1.36590   1.38270   1.40958   1.45361
 Alpha virt. eigenvalues --    1.49217   1.49350   1.53227   1.54840   1.54855
 Alpha virt. eigenvalues --    1.56511   1.57207   1.57520   1.57884   1.59740
 Alpha virt. eigenvalues --    1.60222   1.61945   1.63130   1.65255   1.67704
 Alpha virt. eigenvalues --    1.68532   1.69966   1.71247   1.71565   1.71928
 Alpha virt. eigenvalues --    1.72046   1.73339   1.73572   1.74309   1.74977
 Alpha virt. eigenvalues --    1.78491   1.79089   1.80399   1.81887   1.81958
 Alpha virt. eigenvalues --    1.83007   1.84580   1.84745   1.85420   1.86456
 Alpha virt. eigenvalues --    1.86650   1.89650   1.91362   1.92013   1.92343
 Alpha virt. eigenvalues --    1.93606   1.93639   1.95372   1.96412   1.98140
 Alpha virt. eigenvalues --    2.00254   2.00421   2.01743   2.04771   2.05054
 Alpha virt. eigenvalues --    2.06470   2.07027   2.10007   2.10154   2.13539
 Alpha virt. eigenvalues --    2.17262   2.17578   2.22202   2.24016   2.25191
 Alpha virt. eigenvalues --    2.27292   2.29860   2.34749   2.38282   2.40143
 Alpha virt. eigenvalues --    2.40527   2.42584   2.46669   2.48794   2.50273
 Alpha virt. eigenvalues --    2.52456   2.54113   2.55953   2.60512   2.62940
 Alpha virt. eigenvalues --    2.64053   2.69689   2.73869   2.76198   2.80059
 Alpha virt. eigenvalues --    2.81951   2.82489   2.84623   2.87406   2.90478
 Alpha virt. eigenvalues --    2.93137   3.01891   3.16165   3.31959   3.48301
 Alpha virt. eigenvalues --    3.51420   3.57761   3.62045   3.76902
          Condensed to atoms (all electrons):
               1          2          3          4          5          6
     1  C    4.726885   0.486152   0.007279  -0.050953  -0.011785   0.514041
     2  C    0.486152   5.367567   0.281069  -0.062369  -0.069695  -0.006463
     3  C    0.007279   0.281069   4.871854   0.523436  -0.002326  -0.067274
     4  C   -0.050953  -0.062369   0.523436   4.787712   0.520034  -0.014856
     5  C   -0.011785  -0.069695  -0.002326   0.520034   4.719141   0.500194
     6  C    0.514041  -0.006463  -0.067274  -0.014856   0.500194   4.735028
     7  H    0.404773  -0.040766   0.009102  -0.000548   0.008151  -0.038302
     8  H   -0.000594   0.010769  -0.024919   0.393583  -0.041023   0.007356
     9  H    0.008604  -0.000356   0.008206  -0.038285   0.405526  -0.043642
    10  H   -0.042393   0.009592  -0.000565   0.008699  -0.042844   0.407548
    11  N    0.003797  -0.036257   0.401565  -0.054819   0.002448   0.000386
    12  S   -0.064916   0.336466  -0.130038   0.003983   0.000188   0.003939
    13  C   -0.000213   0.000460   0.014722  -0.000377   0.000013  -0.000001
    14  C   -0.000005   0.000033   0.000340   0.000007  -0.000000  -0.000000
    15  C    0.000002  -0.000201   0.000399   0.000037  -0.000001   0.000000
    16  C    0.000000  -0.000002   0.000004  -0.000000   0.000000   0.000000
    17  H   -0.000004   0.000086  -0.000002   0.000000   0.000000   0.000000
    18  C    0.000000   0.000010  -0.000045  -0.000001  -0.000000   0.000000
    19  C   -0.000000   0.000000   0.000002  -0.000000   0.000000   0.000000
    20  H   -0.000000  -0.000000  -0.000000   0.000000   0.000000  -0.000000
    21  H   -0.000000   0.000000  -0.000001  -0.000000  -0.000000   0.000000
    22  H    0.000000  -0.000000  -0.000000  -0.000000   0.000000  -0.000000
    23  C    0.003334  -0.051175  -0.100799   0.003790   0.000298  -0.000301
    24  O    0.000002  -0.000223  -0.000721   0.000065   0.000000  -0.000000
    25  H    0.000218   0.012534  -0.033518  -0.011358  -0.000224  -0.000019
               7          8          9         10         11         12
     1  C    0.404773  -0.000594   0.008604  -0.042393   0.003797  -0.064916
     2  C   -0.040766   0.010769  -0.000356   0.009592  -0.036257   0.336466
     3  C    0.009102  -0.024919   0.008206  -0.000565   0.401565  -0.130038
     4  C   -0.000548   0.393583  -0.038285   0.008699  -0.054819   0.003983
     5  C    0.008151  -0.041023   0.405526  -0.042844   0.002448   0.000188
     6  C   -0.038302   0.007356  -0.043642   0.407548   0.000386   0.003939
     7  H    0.649671   0.000028  -0.000140  -0.011740  -0.000100  -0.006883
     8  H    0.000028   0.638724  -0.011676  -0.000118  -0.005119  -0.000244
     9  H   -0.000140  -0.011676   0.656639  -0.012228  -0.000107   0.000022
    10  H   -0.011740  -0.000118  -0.012228   0.657364   0.000005  -0.000134
    11  N   -0.000100  -0.005119  -0.000107   0.000005   5.897642  -0.046506
    12  S   -0.006883  -0.000244   0.000022  -0.000134  -0.046506  15.437456
    13  C    0.000005   0.000050  -0.000000  -0.000000  -0.029248  -0.066024
    14  C    0.000000   0.000001   0.000000  -0.000000   0.003422  -0.006661
    15  C   -0.000000  -0.000004   0.000000   0.000000  -0.003272   0.004123
    16  C   -0.000000  -0.000000  -0.000000  -0.000000  -0.000090   0.000011
    17  H    0.000001   0.000000  -0.000000  -0.000000   0.000254   0.006265
    18  C    0.000000  -0.000000  -0.000000  -0.000000  -0.000587  -0.000102
    19  C    0.000000   0.000000  -0.000000   0.000000   0.000038   0.000017
    20  H    0.000000  -0.000000   0.000000   0.000000   0.000001   0.000000
    21  H   -0.000000   0.000000  -0.000000   0.000000   0.000011   0.000003
    22  H    0.000000  -0.000000  -0.000000  -0.000000  -0.000000  -0.000000
    23  C    0.000169  -0.000648   0.000007   0.000004   0.513663   0.315689
    24  O    0.000000  -0.000230   0.000000  -0.000000  -0.047597  -0.000196
    25  H    0.000006   0.000982  -0.000014  -0.000000   0.371975   0.005078
              13         14         15         16         17         18
     1  C   -0.000213  -0.000005   0.000002   0.000000  -0.000004   0.000000
     2  C    0.000460   0.000033  -0.000201  -0.000002   0.000086   0.000010
     3  C    0.014722   0.000340   0.000399   0.000004  -0.000002  -0.000045
     4  C   -0.000377   0.000007   0.000037  -0.000000   0.000000  -0.000001
     5  C    0.000013  -0.000000  -0.000001   0.000000   0.000000  -0.000000
     6  C   -0.000001  -0.000000   0.000000   0.000000   0.000000   0.000000
     7  H    0.000005   0.000000  -0.000000  -0.000000   0.000001   0.000000
     8  H    0.000050   0.000001  -0.000004  -0.000000   0.000000  -0.000000
     9  H   -0.000000   0.000000   0.000000  -0.000000  -0.000000  -0.000000
    10  H   -0.000000  -0.000000   0.000000  -0.000000  -0.000000  -0.000000
    11  N   -0.029248   0.003422  -0.003272  -0.000090   0.000254  -0.000587
    12  S   -0.066024  -0.006661   0.004123   0.000011   0.006265  -0.000102
    13  C    5.485915   0.429491   0.176147  -0.004781  -0.042711  -0.039893
    14  C    0.429491   4.851294   0.012772   0.537980   0.400265  -0.062686
    15  C    0.176147   0.012772   4.733490  -0.057219   0.006599   0.469979
    16  C   -0.004781   0.537980  -0.057219   4.770679  -0.032956  -0.018264
    17  H   -0.042711   0.400265   0.006599  -0.032956   0.683522  -0.000943
    18  C   -0.039893  -0.062686   0.469979  -0.018264  -0.000943   4.890050
    19  C   -0.051645  -0.017008  -0.007580   0.474453   0.008484   0.497509
    20  H    0.009193  -0.036566  -0.000177   0.400228  -0.012404   0.008367
    21  H    0.015645  -0.000663  -0.023158   0.007712   0.000054   0.371284
    22  H   -0.001573   0.009566   0.008767  -0.046797  -0.000195  -0.039048
    23  C    0.343732  -0.098818  -0.073055   0.006679  -0.020252   0.010505
    24  O   -0.092446   0.006247   0.646681  -0.000153  -0.000074  -0.067011
    25  H   -0.044996  -0.000710  -0.010541   0.000063  -0.000075   0.004104
              19         20         21         22         23         24
     1  C   -0.000000  -0.000000  -0.000000   0.000000   0.003334   0.000002
     2  C    0.000000  -0.000000   0.000000  -0.000000  -0.051175  -0.000223
     3  C    0.000002  -0.000000  -0.000001  -0.000000  -0.100799  -0.000721
     4  C   -0.000000   0.000000  -0.000000  -0.000000   0.003790   0.000065
     5  C    0.000000   0.000000  -0.000000   0.000000   0.000298   0.000000
     6  C    0.000000  -0.000000   0.000000  -0.000000  -0.000301  -0.000000
     7  H    0.000000   0.000000  -0.000000   0.000000   0.000169   0.000000
     8  H    0.000000  -0.000000   0.000000  -0.000000  -0.000648  -0.000230
     9  H   -0.000000   0.000000  -0.000000  -0.000000   0.000007   0.000000
    10  H    0.000000   0.000000   0.000000  -0.000000   0.000004  -0.000000
    11  N    0.000038   0.000001   0.000011  -0.000000   0.513663  -0.047597
    12  S    0.000017   0.000000   0.000003  -0.000000   0.315689  -0.000196
    13  C   -0.051645   0.009193   0.015645  -0.001573   0.343732  -0.092446
    14  C   -0.017008  -0.036566  -0.000663   0.009566  -0.098818   0.006247
    15  C   -0.007580  -0.000177  -0.023158   0.008767  -0.073055   0.646681
    16  C    0.474453   0.400228   0.007712  -0.046797   0.006679  -0.000153
    17  H    0.008484  -0.012404   0.000054  -0.000195  -0.020252  -0.000074
    18  C    0.497509   0.008367   0.371284  -0.039048   0.010505  -0.067011
    19  C    4.750680  -0.047619  -0.047854   0.402877   0.000252   0.004817
    20  H   -0.047619   0.690022  -0.000173  -0.012615  -0.000378   0.000001
    21  H   -0.047854  -0.000173   0.682817  -0.012829  -0.000469   0.005868
    22  H    0.402877  -0.012615  -0.012829   0.677818   0.000011  -0.000085
    23  C    0.000252  -0.000378  -0.000469   0.000011   5.115758  -0.016929
    24  O    0.004817   0.000001   0.005868  -0.000085  -0.016929   7.868837
    25  H   -0.000403  -0.000001   0.000009   0.000006   0.019701   0.095302
              25
     1  C    0.000218
     2  C    0.012534
     3  C   -0.033518
     4  C   -0.011358
     5  C   -0.000224
     6  C   -0.000019
     7  H    0.000006
     8  H    0.000982
     9  H   -0.000014
    10  H   -0.000000
    11  N    0.371975
    12  S    0.005078
    13  C   -0.044996
    14  C   -0.000710
    15  C   -0.010541
    16  C    0.000063
    17  H   -0.000075
    18  C    0.004104
[...]
 735993,-0.01177632,-0.00000019,0.00242809,-0.00247500,0.00000005,0.056
 00651,0.01518344,0.00000130,0.02307495,-0.21359868,-0.00000592,0.02175
 417,-0.01106673,0.00000071,0.06384604,0.62107353,-0.00000003,-0.000000
 07,-0.00005779,-0.00000032,-0.00000016,-0.00005566,-0.00000039,0.00000
 057,-0.00044614,0.00000035,-0.00000005,-0.00023058,-0.00000002,0.00000
 023,-0.00000391,-0.00000007,-0.00000010,0.00002148,0.,0.,-0.00003629,0
 .,0.,-0.00001668,0.,0.,0.00001848,0.,0.,0.00003236,0.00000024,-0.00000
 053,0.00239109,0.00000013,-0.00000015,-0.00053057,0.00000125,0.0000011
 9,0.00189091,0.00000024,-0.00000534,-0.05367577,0.00000093,-0.00000037
 ,-0.00508450,0.00000539,0.00001810,0.12461782,0.00020767,0.00005971,0.
 ,-0.00056510,0.00022906,0.00000006,0.00038559,-0.00019517,-0.00000002,
 -0.00007618,0.00009611,0.,0.00005607,-0.00005867,0.,0.00001492,-0.0000
 3764,0.,-0.00001724,-0.00000539,0.,0.00003265,0.00000430,0.,0.00000988
 ,-0.00000324,0.,0.00003171,-0.00000410,0.,0.00057486,0.00067127,0.0000
 0008,-0.00037924,0.00110570,-0.00000016,-0.00640911,-0.02983323,-0.000
 00127,-0.09720100,-0.09844557,-0.00000419,-0.00441084,0.00349135,-0.00
 000013,0.01074954,0.01968364,0.00000079,0.10012800,0.00001876,-0.00003
 094,0.,-0.00016045,0.00044622,-0.00000004,0.00022383,0.00004469,-0.000
 00003,-0.00002501,0.00003051,0.,0.00001556,0.00003491,0.,-0.00007318,-
 0.00000347,0.,-0.00000812,0.00001352,0.,0.00001227,-0.00000374,0.,-0.0
 0000270,0.00000068,0.,-0.00000376,0.00000239,0.,0.00009456,0.00038693,
 0.00000012,-0.00062351,-0.00003100,-0.00000019,0.00097412,-0.00126643,
 -0.00000022,-0.09686812,-0.29955634,-0.00001108,0.00042500,0.00209992,
 -0.00000032,-0.01246261,-0.01737432,-0.00000087,0.10411433,0.31681260,
 0.00000001,0.00000003,0.00001748,0.00000011,0.00000007,-0.00027883,0.0
 0000017,-0.00000021,0.00053630,-0.00000012,0.00000002,0.00006917,0.,-0
 .00000008,-0.00000573,0.00000003,0.00000003,-0.00000649,0.,0.,0.000026
 78,0.,0.,0.00002384,0.,0.,-0.00000097,0.,0.,-0.00001013,0.00000006,0.0
 0000042,-0.00212188,-0.00000023,-0.00000014,0.00108248,0.00000036,-0.0
 0000120,0.00722872,-0.00000441,-0.00001091,-0.03565726,-0.00000024,0.0
 0000020,0.00933084,-0.00000037,-0.00000065,0.00346081,0.00000475,0.000
 01247,0.02116860,-0.00142013,0.00029164,0.00000013,-0.00467647,-0.0039
 1586,0.00000014,-0.00574116,0.01183432,-0.00000038,0.00580020,-0.00079
 655,-0.00000004,-0.00029474,0.00252968,0.,0.00083204,-0.00145372,-0.00
 000002,-0.00011605,0.00009390,0.,0.00006452,-0.00001515,0.,0.00010405,
 0.00001650,0.,0.00008729,-0.00006707,-0.00000003,0.01181297,-0.0002842
 7,0.00000048,0.00083869,-0.00353339,0.00000007,0.02536197,0.01159333,0
 .00000075,-0.03660074,0.02245615,0.00000035,-0.12951154,0.06937128,0.0
 0000241,-0.01487895,-0.08484723,-0.00000310,-0.00065062,0.00037944,0.0
 0000010,0.68044131,0.00068694,-0.00003565,-0.00000003,0.00026461,0.000
 15233,-0.00000002,0.00111451,-0.00179298,0.00000008,-0.00124611,0.0001
 7668,0.,0.00015843,-0.00049376,0.,-0.00031736,0.00020721,0.00000001,0.
 00000503,0.00000601,0.,-0.00001145,0.00000092,0.,-0.00002051,-0.000005
 79,0.,0.00001116,0.00001448,0.,-0.00076775,0.00036568,-0.00000015,0.00
 124693,-0.00064615,-0.00000005,0.01158565,-0.02983234,-0.00000089,0.00
 831268,-0.00479627,-0.00000006,0.07542274,-0.23397235,-0.00000552,-0.0
 3651642,0.00049094,-0.00000039,-0.00016166,0.00075663,0.00000003,0.058
 16874,0.68272687,0.00000008,0.00000001,0.00020987,0.00000010,0.0000001
 4,0.00051761,0.00000031,-0.00000036,0.00127472,-0.00000018,0.00000001,
 -0.00019897,0.00000003,-0.00000007,-0.00005114,-0.00000003,0.00000005,
 -0.00012957,0.,0.,0.00012628,0.,0.,0.00008685,0.,0.,0.00001918,0.,0.,-
 0.00006764,-0.00000032,0.00000070,-0.00430225,0.00000001,-0.00000013,0
 .00193921,0.00000042,-0.00000149,0.01285130,-0.00000015,0.00000054,-0.
 00487747,0.00000248,-0.00000572,-0.06713854,-0.00000124,-0.00000087,0.
 00727179,0.00000005,0.00000012,-0.00203215,0.00000372,0.00002049,0.107
 84401,0.00144549,0.00040419,-0.00000013,0.00627989,0.00435611,-0.00000
 023,0.00832366,-0.01464648,0.00000023,-0.00765143,0.00104381,0.0000000
 8,0.00039763,-0.00398300,0.00000002,-0.00004072,0.00201958,0.00000002,
 0.00007777,-0.00009157,-0.00000002,0.00000206,0.00004200,-0.00000001,-
 0.00008269,-0.00003872,-0.00000001,-0.00004196,0.00007397,0.00000003,-
 0.01268351,0.00877366,0.00000011,-0.00042093,0.00229825,-0.00000009,-0
 .01627898,-0.01372896,-0.00000073,0.06008941,-0.00185566,0.00000054,-0
 .05534075,0.02083802,-0.00000019,-0.14978951,-0.01802602,-0.00000099,-
 0.00257901,0.00451723,0.00000007,-0.32919148,-0.06094887,-0.00000259,0
 .66936382,0.00007121,0.00095739,-0.00000006,0.00309871,0.00134227,-0.0
 0000003,0.00358222,-0.00487793,0.00000018,-0.00359058,0.00061554,0.000
 00004,0.00013416,-0.00262096,0.,0.00107153,0.00092395,0.,-0.00001413,-
 0.00004125,0.,0.00002837,0.00001576,0.,0.00001930,-0.00005518,0.,0.000
 02811,0.00003666,0.,-0.00028642,0.00565305,-0.00000044,-0.00176394,0.0
 0063070,0.00000002,-0.03026914,-0.00510290,-0.00000044,0.05046596,-0.0
 5840721,-0.00000197,-0.00107468,0.02321918,0.00000008,-0.11107080,-0.3
 1213924,-0.00000945,0.00343856,-0.00172331,-0.00000023,0.00571773,-0.1
 2546243,-0.00000261,-0.05486748,0.70844441,0.,0.00000003,0.00013223,0.
 00000011,0.00000001,-0.00033027,0.00000005,-0.00000011,-0.00104638,-0.
 00000011,0.00000002,0.00009441,0.,-0.00000009,0.00008954,0.00000005,0.
 00000002,0.00002148,0.,0.,-0.00005917,0.,0.,-0.00011601,0.,0.,-0.00000
 404,0.,0.,0.00000591,0.00000007,0.00000003,0.00141670,-0.00000006,0.00
 000007,0.00013130,-0.00000131,-0.00000024,-0.00121982,0.00000218,-0.00
 000236,0.00785913,0.,0.00000124,0.00160212,-0.00000436,-0.00000915,-0.
 05781748,0.00000007,-0.00000020,0.00381466,-0.00000075,-0.00000297,-0.
 04932618,-0.00000008,0.00002112,0.11341178,0.00007037,-0.00009923,0.,-
 0.00011466,0.00011638,0.,-0.00002285,-0.00006869,0.,0.00002285,0.00001
 393,0.,0.00000469,0.00010100,0.,-0.00014639,-0.00000791,0.,0.00000585,
 0.00000647,0.,-0.00000004,-0.00000573,0.,-0.00001078,0.00000665,0.,-0.
 00000898,0.00000382,0.,-0.00016052,0.00038565,0.,0.00004633,0.00000933
 ,0.,0.00023607,0.00323121,0.00000012,-0.01425637,-0.00720244,-0.000000
 40,0.00060557,0.00038434,0.00000004,-0.33729761,-0.05450201,-0.0000036
 1,0.00069321,0.00010886,0.,0.00136966,-0.00184545,-0.00000012,-0.00537
 324,0.00238639,0.00000003,0.35474319,0.00000344,0.00000376,0.,-0.00005
 239,-0.00008997,0.,0.00001371,0.00020474,-0.00000002,0.00006293,-0.000
 05375,0.,0.00001151,0.00004375,0.,-0.00000481,-0.00002847,0.,-0.000000
 41,-0.00000160,0.,0.00000045,0.00000087,0.,0.00000342,-0.00000347,0.,0
 .00000240,-0.00000176,0.,0.00039553,-0.00041367,0.00000002,0.00002354,
 0.00002692,0.,0.00302350,-0.00416101,-0.00000028,0.02364300,0.00749177
 ,0.00000025,0.00055462,-0.00086158,0.00000004,-0.05422113,-0.06973455,
 -0.00000166,-0.00025414,0.00088677,0.00000012,-0.00110398,-0.00534447,
 -0.00000044,-0.02905860,0.00125393,-0.00000031,0.05777917,0.06865568,0
 .,0.,-0.00000332,-0.00000003,-0.00000001,0.00007120,0.,0.00000005,0.00
 046341,0.00000002,0.,0.00006155,0.,0.00000002,-0.00005784,0.,0.,0.0000
 0450,0.,0.,0.00001256,0.,0.,0.00003561,0.,0.,-0.00001605,0.,0.,-0.0000
 0775,0.00000002,-0.00000003,-0.00001674,0.,-0.00000001,-0.00014258,0.,
 -0.00000025,0.00421674,0.00000067,0.00000007,0.00512648,0.,-0.00000007
 ,-0.00152299,-0.00000354,-0.00000175,-0.03515583,0.,0.00000014,-0.0023
 4626,0.00000004,-0.00000038,0.00647556,-0.00000110,-0.00000016,0.00657
 861,0.00000391,0.00000202,0.02170343,-0.00010922,0.00003050,0.,0.00009
 087,0.00004695,0.,-0.00010615,0.00007578,0.,0.00004314,0.00000713,0.,-
 0.00002094,-0.00003376,0.,0.00008361,0.00001084,0.,0.00000022,-0.00000
 427,0.,-0.00000499,0.00000131,0.,0.00000329,-0.00000075,0.,-0.00000227
 ,-0.00000181,0.,0.00020160,-0.00025019,-0.00000003,-0.00028329,0.00012
 108,0.00000002,-0.00324529,0.00291416,0.00000007,0.00001608,0.00028365
 ,0.,0.00900111,0.02013343,0.00000081,-0.00592323,0.00056638,-0.0000000
 1,0.00008668,-0.00010396,-0.00000001,-0.09427730,-0.09934775,-0.000003
 71,-0.00395977,-0.02852522,-0.00000107,-0.00040125,-0.00143135,-0.0000
 0005,0.09538206,0.00004507,0.00005157,0.00000002,-0.00011361,-0.000125
 56,0.00000001,0.00006586,0.00006207,0.,-0.00000124,-0.00000458,0.,0.00
 000827,-0.00003115,0.,0.00004597,-0.00001922,0.,-0.00000700,0.00000266
 ,0.,0.00000680,0.00000307,0.,0.00000732,-0.00000306,0.,0.00001093,-0.0
 0000206,0.,-0.00019341,0.00019089,-0.00000002,0.00029187,-0.00022831,0
 .00000003,0.00400331,-0.00236620,-0.00000011,0.00042014,0.00032415,0.0
 0000003,-0.01376452,-0.01784095,-0.00000091,-0.00031514,0.00139345,-0.
 00000017,-0.00007794,-0.00006227,-0.00000002,-0.09737532,-0.30782640,-
 0.00001019,0.00260369,0.00071960,-0.00000021,0.00008296,-0.00009240,0.
 00000003,0.10586241,0.32314438,0.,-0.00000003,-0.00034459,-0.00000009,
 -0.00000003,-0.00026815,-0.00000008,0.00000011,0.00010397,0.00000007,-
 0.00000001,0.00002016,0.,0.00000005,-0.00005168,-0.00000002,-0.0000000
 2,0.00007227,0.,0.,-0.00002811,0.,0.,0.00003651,0.,0.,-0.00000664,0.,0
 .,0.00006978,-0.00000003,-0.00000022,0.00064676,0.00000007,0.00000001,
 -0.00079123,0.00000014,0.00000014,0.00259844,0.00000008,-0.00000012,-0
 .00008210,-0.00000109,-0.00000095,0.00419916,-0.00000005,-0.00000017,0
 .00562281,-0.00000002,0.,0.00011633,-0.00000342,-0.00001053,-0.0315988
 2,0.00000015,-0.00000004,0.00442838,0.,0.00000001,-0.00047694,0.000004
 03,0.00001130,0.02098898,0.00004271,-0.00002354,0.,0.00000281,0.000109
 06,0.,0.00017512,-0.00012041,-0.00000001,-0.00007005,0.00000823,0.,0.0
 0001215,0.00000139,0.,-0.00005523,0.00001191,0.,0.00000149,0.00000322,
 0.,0.00000520,-0.00000412,0.,-0.00000610,0.00000173,0.,-0.00000386,0.0
 0000348,0.,0.00015626,0.00050697,0.00000004,-0.00006187,0.00011832,-0.
 00000002,-0.00041080,-0.00048125,-0.00000005,0.00028506,-0.00256483,-0
 .00000011,-0.00269736,-0.00396895,-0.00000009,0.00993730,-0.01034784,-
 0.00000035,0.00037371,-0.00046379,0.,-0.01316126,0.02566225,0.00000081
 ,-0.17816639,0.14270815,0.00000447,0.00069915,0.00039142,0.00000004,0.
 00107725,-0.00033820,-0.00000001,0.18412184,-0.00000175,0.00006940,0.,
 0.00018400,0.00009546,-0.00000001,0.00022060,-0.00035926,0.,-0.0002042
 1,0.00003571,0.,0.00000540,-0.00016607,0.,0.00009049,0.00005708,0.,-0.
 00000393,-0.00000577,0.,0.00000302,0.00000599,0.,0.00000569,-0.0000038
 8,0.,0.00000621,-0.00000146,0.,-0.00031050,0.00011393,0.00000003,-0.00
 009123,0.00004877,0.,-0.00061359,0.00031553,0.00000003,-0.00307974,-0.
 00381848,-0.00000036,-0.00225491,0.00021204,-0.00000022,0.02152769,-0.
 01574238,-0.00000058,0.00096179,-0.00106538,-0.00000006,-0.00590493,0.
 00747241,0.00000015,0.14130138,-0.22664856,-0.00000640,-0.00012636,0.0
 0098907,0.00000020,0.00029521,0.00060729,0.00000014,-0.15207068,0.2370
 7243,-0.00000001,0.00000002,0.00000531,0.00000004,0.,0.00008586,0.0000
 0004,-0.00000005,0.00012769,-0.00000003,0.,0.00000696,0.,-0.00000003,-
 0.00000099,0.00000003,0.00000001,-0.00000571,0.,0.,0.00000729,0.,0.,0.
 00001379,0.,0.,0.00000015,0.,0.,-0.00001045,0.00000004,0.00000008,-0.0
 0020105,-0.00000003,0.,-0.00010950,0.00000006,-0.00000002,-0.00087286,
 -0.00000014,-0.00000036,0.00602378,-0.00000021,-0.00000028,0.00657256,
 0.00000083,-0.00000067,0.00304943,0.00000003,-0.00000006,0.00058587,-0
 .00000007,0.00000027,0.00336905,0.00000424,-0.00000644,-0.03326437,0.0
 0000004,0.00000019,-0.00405701,0.00000003,0.00000016,-0.00345419,-0.00
 000476,0.00000705,0.02317757,-0.00205846,-0.00716926,0.00000002,-0.006
 68492,0.02168597,0.00000002,-0.06094593,0.03333955,0.00000078,0.007515
 54,-0.00247419,-0.00000005,-0.00115752,0.00541919,-0.00000003,-0.00563
 563,-0.00210689,0.00000003,0.00032611,-0.00062849,0.,-0.00066101,-0.00
 007462,-0.00000001,0.00014642,-0.00006209,0.,-0.00064810,-0.00017664,0
 .00000002,-0.36124038,-0.04956860,0.00000412,-0.04843141,-0.04458140,0
 .00000088,-0.16383711,0.07753475,0.00000204,-0.03867143,0.03359582,0.0
 0000067,0.04054898,0.01178896,0.00000009,-0.00420067,-0.01006981,-0.00
 000016,0.00023303,0.00059862,-0.00000034,-0.00622018,-0.00377688,-0.00
 000040,0.00071587,0.00373653,0.00000029,-0.00056533,0.00067283,-0.0000
 0002,0.00062459,-0.00106010,0.00000009,0.00001974,0.00001053,-0.000000
 10,0.67598626,-0.00035227,-0.00015863,-0.00000007,0.02534719,-0.018958
 57,0.00000010,0.02017918,0.01091270,-0.00000057,0.00125000,-0.00641316
 ,0.00000012,-0.00052015,-0.00122698,0.00000003,0.00148056,-0.00079750,
 0.,0.00011463,-0.00050280,0.,-0.00044434,0.00009185,0.,0.00031618,-0.0
 0048605,0.,-0.00021137,0.00003456,0.00000001,-0.03738017,-0.12607484,-
 0.00000003,-0.00876694,-0.16328220,0.00000174,0.05659135,-0.18271444,-
 0.00000205,0.02330243,0.00982499,0.00000016,0.01694056,-0.04885458,-0.
 00000087,-0.00437292,0.00134470,-0.00000053,-0.00172326,0.00030411,0.0
 0000048,-0.01401121,-0.00196366,0.,0.00876111,-0.00018244,0.00000002,-
 0.00066640,0.00100015,0.00000004,0.00063561,-0.00057072,-0.00000025,0.
 00004535,0.00036297,0.00000011,-0.06170905,0.51977349,-0.00000004,0.00
 000013,0.00088453,-0.00000027,-0.00000024,-0.00090686,0.00000018,0.000
 00002,0.00514840,0.00000004,0.00000012,0.00190248,0.00000001,-0.000000
 06,0.00118231,0.00000016,0.00000002,0.00071500,0.,0.00000001,-0.000345
 90,0.,0.,-0.00063209,0.,0.,-0.00045233,0.00000001,0.,-0.00019688,0.000
 00583,0.00000099,-0.02895882,0.00000064,0.00000118,-0.01753677,0.00000
 088,-0.00000166,-0.03393768,-0.00000004,0.00000075,0.00749022,0.000000
 98,-0.00000130,0.00346844,0.00000008,-0.00000076,0.00465754,0.00000003
 ,0.00000014,-0.00323348,-0.00000072,0.00000001,-0.00056034,0.00000044,
 0.00000029,-0.00057191,0.00000001,0.00000006,-0.00098186,0.,-0.0000001
 1,0.00206389,0.00000003,0.00000002,-0.00038271,-0.00000817,0.00000020,
 0.06333913,-0.00031590,0.00129327,0.00000007,-0.00052855,0.00108481,-0
 .00000010,0.00682222,0.00039923,-0.00000025,-0.00028112,-0.00006639,0.
 00000004,-0.00002271,-0.00090544,0.00000003,0.00146200,0.00016853,-0.0
 0000002,-0.00016740,0.00015553,0.,0.00028583,0.00003267,-0.00000002,0.
 00004174,0.00001383,0.,0.00008401,0.00001081,-0.00000001,0.00529923,0.
 03153579,0.00000163,0.00033101,-0.00077176,-0.00000009,-0.03413030,-0.
 04604366,-0.00000119,0.00524075,-0.00493462,-0.00000017,-0.49866356,-0
 .08197422,-0.00000267,-0.01039141,-0.00547256,-0.00000020,-0.00157339,
 -0.00086762,-0.00000006,-0.09128220,0.02274402,0.00000058,0.01504000,0
 .01407448,0.00000047,-0.00021245,-0.00045686,0.00000002,0.00176022,-0.
 00021762,0.00000023,-0.00244514,0.00010895,-0.00000003,-0.01828508,0.0
 0675559,0.00000001,0.61923838,-0.00058631,-0.00034582,0.,0.00047455,-0
 .00287298,0.00000014,-0.00809053,-0.00018929,0.,0.00092987,-0.00039668
 ,-0.00000002,0.00000826,0.00069505,0.,0.00000351,-0.00054252,0.,0.0000
 9063,-0.00020455,0.00000001,0.00008739,0.00004107,0.,0.00010684,-0.000
 07221,0.,0.00003029,-0.00004415,0.,0.01648408,-0.03556072,-0.00000187,
 0.00030514,0.00029036,0.00000001,-0.04399370,-0.01367594,-0.00000042,-
 0.00251624,-0.00983485,-0.00000062,-0.08307203,-0.10601494,-0.00000119
 ,0.00074249,-0.00351303,-0.00000005,-0.00233092,-0.00028553,-0.0000001
 3,0.03489596,0.02020734,-0.00000016,0.00327169,-0.00156893,-0.00000033
 ,-0.00007808,0.00035843,0.00000008,-0.00158236,0.00282341,0.00000046,0
 .00148585,0.00036217,0.00000008,0.00324456,0.01065849,0.00000036,0.088
 56301,0.14560279,-0.00000008,-0.00000002,0.00023881,0.00000009,-0.0000
 0027,-0.00033700,-0.00000060,0.00000005,-0.00055839,0.00000008,0.,0.00
 016560,-0.00000002,0.00000002,0.00019106,0.00000004,-0.00000004,0.0000
 5371,0.,-0.00000002,-0.00010406,0.,0.,-0.00022148,0.,0.,-0.00003054,0.
 ,0.,-0.00006550,0.00000105,-0.00000249,0.01088321,0.,0.00000011,-0.001
 43239,-0.00000096,-0.00000139,0.01652293,-0.00000021,-0.00000027,0.002
 47605,-0.00000237,-0.00000084,-0.05664837,-0.00000002,-0.00000027,0.00
 009714,0.,0.00000006,-0.00190604,0.00000058,0.00000016,0.01725205,0.00
 000025,0.00000010,0.00389712,0.,0.,0.00011286,-0.00000008,0.00000018,-
 0.00376776,0.00000004,0.00000002,-0.00057602,0.00000027,0.00000051,-0.
 00269410,0.00000278,0.00000367,0.02472066,0.00120500,0.00049913,-0.000
 00003,-0.00388950,0.00402495,-0.00000005,0.01318791,0.02039700,0.00000
 012,0.00121044,0.00037218,-0.00000001,-0.00008824,-0.00007856,0.,-0.00
 024464,-0.00005425,0.,-0.00018179,0.00029687,0.,-0.00032967,-0.0006108
 1,-0.00000004,0.00000115,-0.00001623,0.,-0.00003753,-0.00005965,0.,-0.
 10433516,-0.11229253,-0.00000080,-0.00419360,-0.00312802,0.00000003,0.
 00183528,-0.00066855,-0.00000019,-0.00065832,0.00011140,0.00000002,-0.
 01190601,0.00318816,0.00000023,0.00067645,-0.00052148,-0.00000006,0.00
 028420,0.00018027,0.00000010,0.00131009,-0.00042347,0.00000018,-0.0001
 3522,0.00090098,-0.00000003,0.00007355,0.00000218,0.00000001,-0.000037
 03,0.00000951,-0.00000003,0.00016827,-0.00005915,0.,-0.00687336,-0.031
 56166,-0.00000010,0.00269381,-0.00847396,-0.00000084,0.11026390,0.0003
 5004,-0.00008515,0.00000004,0.00301757,0.00357817,-0.00000016,0.005325
 69,-0.01443683,-0.00000004,-0.00318913,0.00239098,0.00000008,-0.000236
 86,-0.00184440,0.00000004,-0.00004565,0.00113425,-0.00000002,0.0000312
 6,0.00012220,0.,0.00039050,0.00013019,0.00000001,-0.00020103,0.0001655
 2,0.,-0.00004937,0.00009853,-0.00000001,-0.11289584,-0.36178977,-0.000
 00128,0.00279292,0.00803733,-0.00000019,-0.00808513,0.00487415,0.00000
 059,0.00715730,-0.00350812,-0.00000018,0.02353238,0.00740382,0.0000004
 1,-0.00424648,0.00740885,0.00000037,-0.00072489,-0.00041714,-0.0000002
 5,-0.00404000,-0.00040525,-0.00000015,-0.00305935,-0.00498212,-0.00000
 019,-0.00001385,-0.00012914,0.00000001,0.00029702,-0.00014965,0.000000
 15,-0.00067373,-0.00000902,-0.00000008,-0.00816928,-0.00212144,-0.0000
 0017,-0.02522979,-0.00591697,0.00000074,0.12796569,0.36045103,-0.00000
 002,0.00000015,0.00068466,-0.00000003,0.00000014,0.00321322,0.00000040
 ,0.00000067,-0.00223289,0.00000011,0.,-0.00131227,-0.00000004,-0.00000
 003,-0.00045969,0.00000009,-0.00000001,-0.00005981,-0.00000002,0.00000
 002,-0.00005441,-0.00000002,0.,0.00012039,0.,0.,0.00010607,0.,0.,0.000
 02969,-0.00000138,-0.00000271,-0.01871334,0.00000017,0.00000030,0.0032
 8313,-0.00000014,-0.00000002,-0.00239856,-0.00000010,-0.00000009,-0.00
 010240,0.00000084,0.00000043,0.00095692,-0.00000002,-0.00000001,-0.000
 02046,-0.00000004,-0.00000001,0.00013732,-0.00000027,-0.00000005,0.001
 04560,0.,0.00000001,0.00027224,0.,0.,-0.00007733,0.00000001,0.,-0.0000
 9724,-0.00000003,0.,-0.00009048,-0.00000002,0.00000087,0.00053977,-0.0
 0000102,0.00000001,-0.00826955,0.00000150,0.00000030,0.02349941\\0.001
 32687,0.00145368,-0.00000005,0.00212331,0.00272127,-0.00000005,0.00333
 241,-0.00044121,0.,-0.00072288,0.00125567,0.00000010,0.00014057,0.0000
 2448,0.,0.00121874,0.00126739,-0.00000006,0.00005276,0.00017445,-0.000
 00001,0.00000779,0.00007538,0.00000002,0.00001624,0.00014037,0.,0.0001
 0622,0.00011419,0.,-0.00632842,0.00282919,0.00000073,0.00079704,0.0013
 8755,-0.00000002,-0.00354012,0.00171802,-0.00000020,0.00262576,0.00027
 549,-0.00000011,0.00599361,0.00091150,0.00000030,-0.00109311,0.0038920
 5,0.00000005,-0.00001341,0.00007423,0.00000004,-0.00093117,0.00024215,
 -0.00000002,-0.00137232,0.00054912,0.00000009,-0.00007183,0.00015816,-
 0.00000001,0.00006709,-0.00002801,0.,-0.00015723,0.00001258,0.,-0.0040
 9613,-0.00296727,-0.00000007,-0.00289023,-0.00505240,-0.00000035,0.003
 40841,-0.01078803,-0.00000040\\\@
 The archive entry for this job was punched.


 GARLIC THEN HAVE POWER TO SAVE FROM DEATH
 BEAR WITH IT THOUGH IT MAKETH UNSAVORY BREATH,
 AND SCORN NOT GARLIC LIKE SOME THAT THINK
 IT ONLY MAKETH MEN WINK AND DRINK AND STINK.
   --  SIR JOHN HARRINGTON,
       "THE ENGLISHMAN'S DOCTOR", 1609
 Job cpu time:       0 days  3 hours  6 minutes 48.5 seconds.
 Elapsed time:       0 days  0 hours 20 minutes 25.7 seconds.
 File lengths (MBytes):  RWF=   1380 Int=      0 D2E=      0 Chk=     48 Scr=      8
 Normal termination of Gaussian 16 at Mon Jul 13 17:26:13 2020.
