 Entering Gaussian System, Link 0=g16
 Initial command:
 /gpfs/loomis/apps/avx/software/Gaussian/16-C.01_AVX/g16/l1.exe "/home/fas/batista/pev4/scratch60/gauss-scratch/Gau-164962.inp" -scrdir="/home/fas/batista/pev4/scratch60/gauss-scratch/"
 Entering Link 1 = /gpfs/loomis/apps/avx/software/Gaussian/16-C.01_AVX/g16/l1.exe PID=    164963.
  
 Copyright (c) 1988-2019, Gaussian, Inc.  All Rights Reserved.
  
 This is part of the Gaussian(R) 16 program.  It is based on
 the Gaussian(R) 09 system (copyright 2009, Gaussian, Inc.),
 the Gaussian(R) 03 system (copyright 2003, Gaussian, Inc.),
 the Gaussian(R) 98 system (copyright 1998, Gaussian, Inc.),
 the Gaussian(R) 94 system (copyright 1995, Gaussian, Inc.),
 the Gaussian 92(TM) system (copyright 1992, Gaussian, Inc.),
 the Gaussian 90(TM) system (copyright 1990, Gaussian, Inc.),
 the Gaussian 88(TM) system (copyright 1988, Gaussian, Inc.),
 the Gaussian 86(TM) system (copyright 1986, Carnegie Mellon
 University), and the Gaussian 82(TM) system (copyright 1983,
 Carnegie Mellon University). Gaussian is a federally registered
 trademark of Gaussian, Inc.
  
 This software contains proprietary and confidential information,
 including trade secrets, belonging to Gaussian, Inc.
  
 This software is provided under written license and may be
 used, copied, transmitted, or stored only in accord with that
 written license.
  
 The following legend is applicable only to US Government
 contracts under FAR:
  
                    RESTRICTED RIGHTS LEGEND
  
 Use, reproduction and disclosure by the US Government is
 subject to restrictions as set forth in subparagraphs (a)
 and (c) of the Commercial Computer Software - Restricted
 Rights clause in FAR 52.227-19.
  
 Gaussian, Inc.
 340 Quinnipiac St., Bldg. 40, Wallingford CT 06492
  
  
 ---------------------------------------------------------------
 Warning -- This program may not be used in any manner that
 competes with the business of Gaussian, Inc. or will provide
 assistance to any competitor of Gaussian, Inc.  The licensee
 of this program is prohibited from giving any competitor of
 Gaussian, Inc. access to this program.  By using this program,
 the user acknowledges that Gaussian, Inc. is engaged in the
 business of creating and licensing software in the field of
 computational chemistry and represents and warrants to the
 licensee that it is not a competitor of Gaussian, Inc. and that
 it will not use this program in any manner prohibited above.
 ---------------------------------------------------------------
  

 Cite this work as:
 Gaussian 16, Revision C.01,
 M. J. Frisch, G. W. Trucks, H. B. Schlegel, G. E. Scuseria, 
 M. A. Robb, J. R. Cheeseman, G. Scalmani, V. Barone, 
 G. A. Petersson, H. Nakatsuji, X. Li, M. Caricato, A. V. Marenich, 
 J. Bloino, B. G. Janesko, R. Gomperts, B. Mennucci, H. P. Hratchian, 
 J. V. Ortiz, A. F. Izmaylov, J. L. Sonnenberg, D. Williams-Young, 
 F. Ding, F. Lipparini, F. Egidi, J. Goings, B. Peng, A. Petrone, 
 T. Henderson, D. Ranasinghe, V. G. Zakrzewski, J. Gao, N. Rega, 
 G. Zheng, W. Liang, M. Hada, M. Ehara, K. Toyota, R. Fukuda, 
 J. Hasegawa, M. Ishida, T. Nakajima, Y. Honda, O. Kitao, H. Nakai, 
 T. Vreven, K. Throssell, J. A. Montgomery, Jr., J. E. Peralta, 
 F. Ogliaro, M. J. Bearpark, J. J. Heyd, E. N. Brothers, K. N. Kudin, 
 V. N. Staroverov, T. A. Keith, R. Kobayashi, J. Normand, 
 K. Raghavachari, A. P. Rendell, J. C. Burant, S. S. Iyengar, 
 J. Tomasi, M. Cossi, J. M. Millam, M. Klene, C. Adamo, R. Cammi, 
 J. W. Ochterski, R. L. Martin, K. Morokuma, O. Farkas, 
 J. B. Foresman, and D. J. Fox, Gaussian, Inc., Wallingford CT, 2019.
 
 ******************************************
 Gaussian 16:  ES64L-G16RevC.01  3-Jul-2019
                13-Jul-2020 
 ******************************************
 %chk=config_7_14.chk
 %mem=58GB
 %nprocshared=10
 Will use up to   10 processors via shared memory.
 ----------------------------------------------------------------------
 #p opt=addgic freq td wb97xd/cc-pvdz nosymm int=ultrafine scrf=(solven
 t=CarbonTetraChloride)
 ----------------------------------------------------------------------
 1/18=20,19=15,26=6,38=1,145=903/1,3;
 2/9=110,12=2,15=1,17=6,18=5,40=1/2;
 3/5=16,11=9,25=1,30=1,70=2201,71=1,72=11,74=-58,75=-5/1,2,3,8;
 4//1;
 5/5=2,38=5,53=11/2;
 8/6=1,10=1/1;
 9/15=2,42=1,70=2/14;
 10/5=4,31=1/2;
 6/7=2,8=2,9=2,10=2/1;
 7/12=6,13=5,30=1/1,2,3,16;
 1/18=20,19=15,26=6,145=903/3(2);
 2/9=110,15=1/2;
 99//99;
 2/9=110,15=1/2;
 3/5=16,11=9,25=1,30=1,70=2205,71=1,72=11,74=-58,75=-5/1,2,3,8;
 4/5=5,16=3,69=1/1;
 5/5=2,38=5,53=11/2;
 8/6=1,10=1/1;
 9/15=2,42=1,49=4,70=2/14;
 10/5=4,31=1/2;
 7/12=6,13=5,30=1/1,2,3,16;
 1/18=20,19=15,26=6,145=903/3(-8);
 2/9=110,15=1/2;
 6/7=2,8=2,9=2,10=2/1;
 99/9=10/99;
 Leave Link    1 at Mon Jul 13 14:36:29 2020, MaxMem=  7784628224 cpu:               5.1 elap:               0.6
 (Enter /gpfs/loomis/apps/avx/software/Gaussian/16-C.01_AVX/g16/l101.exe)
 ------------------------------------------------
 NM 2D-scan of HBT TD-WB97XD pVDZ in CTC Relaxed.
 ------------------------------------------------
 Symbolic Z-matrix:
 Charge =  0 Multiplicity = 1
 C                     1.57644  -3.25453  -0.00002 
 C                     1.0013   -1.98495  -0.00002 
 C                     1.77181  -0.78477  -0.00003 
 C                     3.17811  -0.90558  -0.00003 
 C                     3.74778  -2.17835  -0.00002 
 C                     2.96676  -3.34747  -0.00002 
 H                     0.94681  -4.14881  -0.00001 
 H                     3.80502  -0.0094   -0.00003 
 H                     4.83743  -2.26714  -0.00002 
 H                     3.44823  -4.3281   -0.00001 
 N                     1.00267   0.35206  -0.00003 
 S                    -0.70873  -1.63615  -0.00002 
 C                    -1.33545   1.05829   0.00001 
 C                    -2.70299   0.75635   0.00002 
 C                    -0.89783   2.46427   0.00003 
 C                    -3.65287   1.79193   0.00003 
 H                    -3.03697  -0.28514   0.00001 
 C                    -1.89426   3.47759   0.00004 
 C                    -3.25379   3.14085   0.00004 
 H                    -4.71626   1.53976   0.00003 
 H                    -1.56029   4.51859   0.00006 
 H                    -4.01009   3.92866   0.00005 
 C                    -0.32914   0.06601  -0.00002 
 O                     0.36283   2.70793   0.00005 
 H                     0.98603   1.52053   0.00001 
 
 Initializing the GIC definitions file.
 Number of initial coordinates =   134
 Number of input entries/lines =    52
 Number of additional coordinates =     2
 Number of removed coordinates =     0
 Number of frozen coordinates =     2
 Number of final active and frozen coordinates =   136
 ITRead=  0  0  0  0  0  0  0  0  0  0  0  0  0  0  0  0  0  0  0  0
 ITRead=  0  0  0  0  0
 MicOpt= -1 -1 -1 -1 -1 -1 -1 -1 -1 -1 -1 -1 -1 -1 -1 -1 -1 -1 -1 -1
 MicOpt= -1 -1 -1 -1 -1
 NAtoms=     25 NQM=       25 NQMF=       0 NMMI=      0 NMMIF=      0
                NMic=       0 NMicF=      0.
                    Isotopes and Nuclear Properties:
 (Nuclear quadrupole moments (NQMom) in fm**2, nuclear magnetic moments (NMagM)
  in nuclear magnetons)

  Atom         1           2           3           4           5           6           7           8           9          10
 IAtWgt=          12          12          12          12          12          12           1           1           1           1
 AtmWgt=  12.0000000  12.0000000  12.0000000  12.0000000  12.0000000  12.0000000   1.0078250   1.0078250   1.0078250   1.0078250
 NucSpn=           0           0           0           0           0           0           1           1           1           1
 AtZEff=  -0.0000000  -0.0000000  -0.0000000  -0.0000000  -0.0000000  -0.0000000  -0.0000000  -0.0000000  -0.0000000  -0.0000000
 NQMom=    0.0000000   0.0000000   0.0000000   0.0000000   0.0000000   0.0000000   0.0000000   0.0000000   0.0000000   0.0000000
 NMagM=    0.0000000   0.0000000   0.0000000   0.0000000   0.0000000   0.0000000   2.7928460   2.7928460   2.7928460   2.7928460
 AtZNuc=   6.0000000   6.0000000   6.0000000   6.0000000   6.0000000   6.0000000   1.0000000   1.0000000   1.0000000   1.0000000

  Atom        11          12          13          14          15          16          17          18          19          20
 IAtWgt=          14          32          12          12          12          12           1          12          12           1
 AtmWgt=  14.0030740  31.9720718  12.0000000  12.0000000  12.0000000  12.0000000   1.0078250  12.0000000  12.0000000   1.0078250
 NucSpn=           2           0           0           0           0           0           1           0           0           1
 AtZEff=  -0.0000000  -0.0000000  -0.0000000  -0.0000000  -0.0000000  -0.0000000  -0.0000000  -0.0000000  -0.0000000  -0.0000000
 NQMom=    2.0440000   0.0000000   0.0000000   0.0000000   0.0000000   0.0000000   0.0000000   0.0000000   0.0000000   0.0000000
 NMagM=    0.4037610   0.0000000   0.0000000   0.0000000   0.0000000   0.0000000   2.7928460   0.0000000   0.0000000   2.7928460
 AtZNuc=   7.0000000  16.0000000   6.0000000   6.0000000   6.0000000   6.0000000   1.0000000   6.0000000   6.0000000   1.0000000

  Atom        21          22          23          24          25
 IAtWgt=           1           1          12          16           1
 AtmWgt=   1.0078250   1.0078250  12.0000000  15.9949146   1.0078250
 NucSpn=           1           1           0           0           1
 AtZEff=  -0.0000000  -0.0000000  -0.0000000  -0.0000000  -0.0000000
 NQMom=    0.0000000   0.0000000   0.0000000   0.0000000   0.0000000
 NMagM=    2.7928460   2.7928460   0.0000000   0.0000000   2.7928460
 AtZNuc=   1.0000000   1.0000000   6.0000000   8.0000000   1.0000000
 Leave Link  101 at Mon Jul 13 14:36:32 2020, MaxMem=  7784628224 cpu:              31.6 elap:               3.2
 (Enter /gpfs/loomis/apps/avx/software/Gaussian/16-C.01_AVX/g16/l103.exe)

 GradGradGradGradGradGradGradGradGradGradGradGradGradGradGradGradGradGrad
 Berny optimization.
 Initialization pass.
                           ----------------------------
                           !    Initial Parameters    !
                           ! (Angstroms and Degrees)  !
 --------------------------                            --------------------------
 ! Name  Definition              Value          Derivative Info.                !
 --------------------------------------------------------------------------------
 ! R1    R(1,2)                  1.3938         estimate D2E/DX2                !
 ! R2    R(1,6)                  1.3934         estimate D2E/DX2                !
 ! R3    R(1,7)                  1.0937         estimate D2E/DX2                !
 ! R4    R(2,3)                  1.4262         estimate D2E/DX2                !
 ! R5    R(2,12)                 1.7452         estimate D2E/DX2                !
 ! R6    R(3,4)                  1.4115         estimate D2E/DX2                !
 ! R7    R(3,11)                 1.3726         estimate D2E/DX2                !
 ! R8    R(4,5)                  1.3944         estimate D2E/DX2                !
 ! R9    R(4,8)                  1.0937         estimate D2E/DX2                !
 ! R10   R(5,6)                  1.406          estimate D2E/DX2                !
 ! R11   R(5,9)                  1.0933         estimate D2E/DX2                !
 ! R12   R(6,10)                 1.0925         estimate D2E/DX2                !
 ! R13   R(11,23)                1.3622         estimate D2E/DX2                !
 ! R14   R(11,25)                1.1686         estimate D2E/DX2                !
 ! R15   R(12,23)                1.744          estimate D2E/DX2                !
 ! R16   R(13,14)                1.4005         estimate D2E/DX2                !
 ! R17   R(13,15)                1.4725         estimate D2E/DX2                !
 ! R18   R(13,23)                1.4133         estimate D2E/DX2                !
 ! R19   R(14,16)                1.4052         estimate D2E/DX2                !
 ! R20   R(14,17)                1.0937         estimate D2E/DX2                !
 ! R21   R(15,18)                1.4212         estimate D2E/DX2                !
 ! R22   R(15,24)                1.284          estimate D2E/DX2                !
 ! R23   R(16,19)                1.4067         estimate D2E/DX2                !
 ! R24   R(16,20)                1.0929         estimate D2E/DX2                !
 ! R25   R(18,19)                1.4006         estimate D2E/DX2                !
 ! R26   R(18,21)                1.0933         estimate D2E/DX2                !
 ! R27   R(19,22)                1.0921         estimate D2E/DX2                !
 ! A1    A(2,1,6)              118.1959         estimate D2E/DX2                !
 ! A2    A(2,1,7)              120.4807         estimate D2E/DX2                !
 ! A3    A(6,1,7)              121.3235         estimate D2E/DX2                !
 ! A4    A(1,2,3)              122.9286         estimate D2E/DX2                !
 ! A5    A(1,2,12)             125.9001         estimate D2E/DX2                !
 ! A6    A(3,2,12)             111.1713         estimate D2E/DX2                !
 ! A7    A(2,3,4)              117.7898         estimate D2E/DX2                !
 ! A8    A(2,3,11)             113.219          estimate D2E/DX2                !
 ! A9    A(4,3,11)             128.9912         estimate D2E/DX2                !
 ! A10   A(3,4,5)              119.0226         estimate D2E/DX2                !
 ! A11   A(3,4,8)              120.0637         estimate D2E/DX2                !
 ! A12   A(5,4,8)              120.9137         estimate D2E/DX2                !
 ! A13   A(4,5,6)              122.1436         estimate D2E/DX2                !
 ! A14   A(4,5,9)              118.7708         estimate D2E/DX2                !
 ! A15   A(6,5,9)              119.0856         estimate D2E/DX2                !
 ! A16   A(1,6,5)              119.9196         estimate D2E/DX2                !
 ! A17   A(1,6,10)             119.9746         estimate D2E/DX2                !
 ! A18   A(5,6,10)             120.1058         estimate D2E/DX2                !
 ! A19   A(3,11,23)            111.9589         estimate D2E/DX2                !
 ! A20   A(3,11,25)            146.7351         estimate D2E/DX2                !
 ! A21   A(23,11,25)           101.306          estimate D2E/DX2                !
 ! A22   A(2,12,23)             88.9573         estimate D2E/DX2                !
 ! A23   A(14,13,15)           119.7398         estimate D2E/DX2                !
 ! A24   A(14,13,23)           122.9511         estimate D2E/DX2                !
 ! A25   A(15,13,23)           117.3092         estimate D2E/DX2                !
 ! A26   A(13,14,16)           120.0777         estimate D2E/DX2                !
 ! A27   A(13,14,17)           120.2309         estimate D2E/DX2                !
 ! A28   A(16,14,17)           119.6914         estimate D2E/DX2                !
 ! A29   A(13,15,18)           118.1928         estimate D2E/DX2                !
 ! A30   A(13,15,24)           118.2278         estimate D2E/DX2                !
 ! A31   A(18,15,24)           123.5795         estimate D2E/DX2                !
 ! A32   A(14,16,19)           120.9905         estimate D2E/DX2                !
 ! A33   A(14,16,20)           119.188          estimate D2E/DX2                !
 ! A34   A(19,16,20)           119.8215         estimate D2E/DX2                !
 ! A35   A(15,18,19)           120.6066         estimate D2E/DX2                !
 ! A36   A(15,18,21)           117.6944         estimate D2E/DX2                !
 ! A37   A(19,18,21)           121.6989         estimate D2E/DX2                !
 ! A38   A(16,19,18)           120.3926         estimate D2E/DX2                !
 ! A39   A(16,19,22)           119.6883         estimate D2E/DX2                !
 ! A40   A(18,19,22)           119.9191         estimate D2E/DX2                !
 ! A41   A(11,23,12)           114.6935         estimate D2E/DX2                !
 ! A42   A(11,23,13)           123.2799         estimate D2E/DX2                !
 ! A43   A(12,23,13)           122.0266         estimate D2E/DX2                !
 ! D1    D(6,1,2,3)              0.0            estimate D2E/DX2                !
 ! D2    D(6,1,2,12)           180.0            estimate D2E/DX2                !
 ! D3    D(7,1,2,3)            179.9999         estimate D2E/DX2                !
 ! D4    D(7,1,2,12)            -0.0001         estimate D2E/DX2                !
 ! D5    D(2,1,6,5)             -0.0001         estimate D2E/DX2                !
 ! D6    D(2,1,6,10)           179.9999         estimate D2E/DX2                !
 ! D7    D(7,1,6,5)            180.0            estimate D2E/DX2                !
 ! D8    D(7,1,6,10)             0.0            estimate D2E/DX2                !
 ! D9    D(1,2,3,4)              0.0002         estimate D2E/DX2                !
 ! D10   D(1,2,3,11)          -180.0            estimate D2E/DX2                !
 ! D11   D(12,2,3,4)          -179.9998         estimate D2E/DX2                !
 ! D12   D(12,2,3,11)            0.0            estimate D2E/DX2                !
 ! D13   D(1,2,12,23)          179.9997         estimate D2E/DX2                !
 ! D14   D(3,2,12,23)           -0.0003         estimate D2E/DX2                !
 ! D15   D(2,3,4,5)             -0.0002         estimate D2E/DX2                !
 ! D16   D(2,3,4,8)            179.9999         estimate D2E/DX2                !
 ! D17   D(11,3,4,5)           180.0            estimate D2E/DX2                !
 ! D18   D(11,3,4,8)             0.0            estimate D2E/DX2                !
 ! D19   D(2,3,11,23)            0.0003         estimate D2E/DX2                !
 ! D20   D(2,3,11,25)          179.996          estimate D2E/DX2                !
 ! D21   D(4,3,11,23)         -179.9998         estimate D2E/DX2                !
 ! D22   D(4,3,11,25)           -0.0042         estimate D2E/DX2                !
 ! D23   D(3,4,5,6)              0.0            estimate D2E/DX2                !
 ! D24   D(3,4,5,9)           -179.9999         estimate D2E/DX2                !
 ! D25   D(8,4,5,6)            180.0            estimate D2E/DX2                !
 ! D26   D(8,4,5,9)              0.0            estimate D2E/DX2                !
 ! D27   D(4,5,6,1)              0.0001         estimate D2E/DX2                !
 ! D28   D(4,5,6,10)          -179.9999         estimate D2E/DX2                !
 ! D29   D(9,5,6,1)           -179.9999         estimate D2E/DX2                !
 ! D30   D(9,5,6,10)             0.0            estimate D2E/DX2                !
 ! D31   D(3,11,23,12)          -0.0006         estimate D2E/DX2                !
 ! D32   D(3,11,23,13)         179.9985         estimate D2E/DX2                !
 ! D33   D(25,11,23,12)       -179.9981         estimate D2E/DX2                !
 ! D34   D(25,11,23,13)          0.001          estimate D2E/DX2                !
 ! D35   D(2,12,23,11)           0.0005         estimate D2E/DX2                !
 ! D36   D(2,12,23,13)        -179.9986         estimate D2E/DX2                !
 ! D37   D(15,13,14,16)          0.0009         estimate D2E/DX2                !
 ! D38   D(15,13,14,17)       -179.9995         estimate D2E/DX2                !
 ! D39   D(23,13,14,16)       -179.9992         estimate D2E/DX2                !
 ! D40   D(23,13,14,17)          0.0004         estimate D2E/DX2                !
 ! D41   D(14,13,15,18)         -0.0011         estimate D2E/DX2                !
 ! D42   D(14,13,15,24)        179.9987         estimate D2E/DX2                !
 ! D43   D(23,13,15,18)        179.999          estimate D2E/DX2                !
 ! D44   D(23,13,15,24)         -0.0012         estimate D2E/DX2                !
 ! D45   D(14,13,23,11)        180.0            estimate D2E/DX2                !
 ! D46   D(14,13,23,12)         -0.001          estimate D2E/DX2                !
 ! D47   D(15,13,23,11)         -0.0001         estimate D2E/DX2                !
 ! D48   D(15,13,23,12)        179.9989         estimate D2E/DX2                !
 ! D49   D(13,14,16,19)         -0.0002         estimate D2E/DX2                !
 ! D50   D(13,14,16,20)        179.9998         estimate D2E/DX2                !
 ! D51   D(17,14,16,19)       -179.9998         estimate D2E/DX2                !
 ! D52   D(17,14,16,20)          0.0001         estimate D2E/DX2                !
 ! D53   D(13,15,18,19)          0.0006         estimate D2E/DX2                !
 ! D54   D(13,15,18,21)       -180.0            estimate D2E/DX2                !
 ! D55   D(24,15,18,19)       -179.9992         estimate D2E/DX2                !
 ! D56   D(24,15,18,21)          0.0003         estimate D2E/DX2                !
 ! D57   D(14,16,19,18)         -0.0003         estimate D2E/DX2                !
 ! D58   D(14,16,19,22)        179.9999         estimate D2E/DX2                !
 ! D59   D(20,16,19,18)        179.9997         estimate D2E/DX2                !
 ! D60   D(20,16,19,22)         -0.0001         estimate D2E/DX2                !
 ! D61   D(15,18,19,16)          0.0001         estimate D2E/DX2                !
 ! D62   D(15,18,19,22)        179.9999         estimate D2E/DX2                !
 ! D63   D(21,18,19,16)       -179.9993         estimate D2E/DX2                !
 ! D64   D(21,18,19,22)          0.0005         estimate D2E/DX2                !
 ! Qtot  GIC-1                  10.0            Frozen                          !
 ! Ptot  GIC-2                 120.0            Frozen                          !
 --------------------------------------------------------------------------------
 NOTE: GIC-type coordinates are in arbitrary units.
 Trust Radius=3.00D-01 FncErr=5.00D-06 GrdErr=5.00D-06 EigMax=2.50D+02 EigMin=1.00D-04
 Number of steps in this run=    146 maximum allowed number of steps=    150.
 GradGradGradGradGradGradGradGradGradGradGradGradGradGradGradGradGradGrad

 Leave Link  103 at Mon Jul 13 14:36:32 2020, MaxMem=  7784628224 cpu:               0.3 elap:               0.0
 (Enter /gpfs/loomis/apps/avx/software/Gaussian/16-C.01_AVX/g16/l202.exe)
                          Input orientation:                          
 ---------------------------------------------------------------------
 Center     Atomic      Atomic             Coordinates (Angstroms)
 Number     Number       Type             X           Y           Z
 ---------------------------------------------------------------------
      1          6           0        1.576439   -3.254531   -0.000018
      2          6           0        1.001299   -1.984954   -0.000022
      3          6           0        1.771806   -0.784766   -0.000025
      4          6           0        3.178113   -0.905583   -0.000028
      5          6           0        3.747775   -2.178345   -0.000024
      6          6           0        2.966762   -3.347474   -0.000018
      7          1           0        0.946811   -4.148809   -0.000015
      8          1           0        3.805024   -0.009396   -0.000032
      9          1           0        4.837435   -2.267138   -0.000024
     10          1           0        3.448230   -4.328104   -0.000013
     11          7           0        1.002671    0.352057   -0.000029
     12         16           0       -0.708731   -1.636150   -0.000024
     13          6           0       -1.335450    1.058292    0.000009
     14          6           0       -2.702989    0.756346    0.000017
     15          6           0       -0.897834    2.464274    0.000035
     16          6           0       -3.652874    1.791926    0.000031
     17          1           0       -3.036973   -0.285140    0.000007
     18          6           0       -1.894258    3.477593    0.000044
     19          6           0       -3.253793    3.140848    0.000041
     20          1           0       -4.716264    1.539755    0.000033
     21          1           0       -1.560286    4.518592    0.000063
     22          1           0       -4.010091    3.928660    0.000049
     23          6           0       -0.329144    0.066005   -0.000020
     24          8           0        0.362835    2.707927    0.000052
     25          1           0        0.986028    1.520529    0.000014
 ---------------------------------------------------------------------
                    Distance matrix (angstroms):
                    1          2          3          4          5
     1  C    0.000000
     2  C    1.393776   0.000000
     3  C    2.477480   1.426230   0.000000
     4  C    2.843047   2.429725   1.411487   0.000000
     5  C    2.423401   2.753277   2.417957   1.394431   0.000000
     6  C    1.393425   2.391548   2.827612   2.451020   1.406003
     7  H    1.093693   2.164540   3.463726   3.936651   3.424635
     8  H    3.936685   3.429826   2.176045   1.093695   2.169705
     9  H    3.407204   3.846501   3.405217   2.146434   1.093272
    10  H    2.157813   3.387894   3.919903   3.433164   2.170528
    11  N    3.651943   2.337012   1.372566   2.512809   3.733435
    12  S    2.800207   1.745241   2.622579   3.954907   4.489368
    13  C    5.203801   3.836892   3.612743   4.922303   6.026193
    14  C    5.865206   4.608305   4.732740   6.111414   7.086944
    15  C    6.231112   4.837596   4.205145   5.288600   6.567770
    16  C    7.267217   5.993842   6.005539   7.344314   8.398372
    17  H    5.486425   4.381439   4.834665   6.245979   7.043936
    18  C    7.574116   6.182530   5.622076   6.703819   7.988879
    19  C    8.014488   6.661806   6.377076   7.598883   8.792939
    20  H    7.910961   6.716703   6.891913   8.264434   9.244687
    21  H    8.382153   6.989838   6.263262   7.202368   8.545436
    22  H    9.099865   7.751442   7.459673   8.662574   9.873196
    23  C    3.828473   2.444691   2.266672   3.639346   4.653856
    24  O    6.084713   4.736113   3.766179   4.580747   5.944197
    25  H    4.811422   3.505516   2.435536   3.269749   4.616159
                    6          7          8          9         10
     6  C    0.000000
     7  H    2.173094   0.000000
     8  H    3.441721   5.030320   0.000000
     9  H    2.160219   4.321763   2.482593   0.000000
    10  H    1.092450   2.507836   4.333421   2.485452   0.000000
    11  N    4.188577   4.501212   2.825567   4.643877   5.280594
    12  S    4.054365   3.009031   4.797949   5.581944   4.952468
    13  C    6.157905   5.685298   5.250184   7.011633   7.203947
    14  C    6.999101   6.114048   6.552907   8.124005   7.980547
    15  C    6.979363   6.865535   5.313748   7.435023   8.063788
    16  C    8.380513   7.513283   7.672353   9.410704   9.374457
    17  H    6.739638   5.549637   6.847552   8.120014   7.642213
    18  C    8.379204   8.138408   6.681385   8.849725   9.458916
    19  C    8.988527   8.413333   7.729873   9.732126  10.035056
    20  H    9.105707   8.026841   8.660959  10.284240  10.054389
    21  H    9.075745   9.022714   7.020629   9.326144  10.166084
    22  H   10.080605   9.477150   8.751246  10.801232  11.126576
    23  C    4.744980   4.403716   4.134855   5.668959   5.794545
    24  O    6.591533   6.881558   4.385488   6.691286   7.682798
    25  H    5.255545   5.669473   3.207399   5.401829   6.345782
                   11         12         13         14         15
    11  N    0.000000
    12  S    2.623331   0.000000
    13  C    2.442453   2.766369   0.000000
    14  C    3.727649   3.114660   1.400476   0.000000
    15  C    2.841369   4.104782   1.472512   2.485076   0.000000
    16  C    4.873122   4.518815   2.430776   1.405242   2.835894
    17  H    4.089590   2.691829   2.167946   1.093727   3.483560
    18  C    4.261593   5.249367   2.482999   2.838879   1.421154
    19  C    5.088697   5.412675   2.831444   2.447291   2.451182
    20  H    5.840962   5.113384   3.414924   2.160325   3.928758
    21  H    4.891703   6.213373   3.467597   3.931954   2.158487
    22  H    6.157911   6.470401   3.923355   3.431048   3.439559
    23  C    1.362188   1.743967   1.413254   2.472188   2.464772
    24  O    2.441211   4.474289   2.367587   3.634273   1.283999
    25  H    1.168590   3.582852   2.367049   3.767336   2.107033
                   16         17         18         19         20
    16  C    0.000000
    17  H    2.166457   0.000000
    18  C    2.436023   3.932424   0.000000
    19  C    1.406718   3.432842   1.400619   0.000000
    20  H    1.092881   2.479972   3.423293   2.168483   0.000000
    21  H    3.437097   5.025579   1.093259   2.183150   4.339777
    22  H    2.166388   4.324704   2.163379   1.092078   2.491093
    23  C    3.745128   2.730503   3.753467   4.243610   4.628041
    24  O    4.118856   4.529585   2.384713   3.642447   5.211705
    25  H    4.646834   4.409646   3.482262   4.538889   5.702324
                   21         22         23         24         25
    21  H    0.000000
    22  H    2.519834   0.000000
    23  C    4.619658   5.335679   0.000000
    24  O    2.641383   4.540118   2.731041   0.000000
    25  H    3.933458   5.546196   1.960947   1.341000   0.000000
 Symmetry turned off by external request.
 Stoichiometry    C13H9NOS
 Framework group  C1[X(C13H9NOS)]
 Deg. of freedom    69
 Full point group                 C1      NOp   1
 Rotational constants (GHZ):           1.4040621           0.2863121           0.2378171
 Leave Link  202 at Mon Jul 13 14:36:32 2020, MaxMem=  7784628224 cpu:               0.3 elap:               0.0
 (Enter /gpfs/loomis/apps/avx/software/Gaussian/16-C.01_AVX/g16/l301.exe)
 Standard basis: CC-pVDZ (5D, 7F)
 Ernie: Thresh=  0.10000D-02 Tol=  0.10000D-05 Strict=F.
 Ernie:  40 primitive shells out of 425 were deleted.
   273 basis functions,   629 primitive gaussians,   289 cartesian basis functions
    59 alpha electrons       59 beta electrons
       nuclear repulsion energy      1100.5364727266 Hartrees.
 IExCor= 4639 DFT=T Ex+Corr=wB97XD ExCW=0 ScaHFX=  1.000000
 ScaDFX=  1.000000  1.000000  1.000000  1.000000 ScalE2=  1.000000  1.000000
 IRadAn=      5 IRanWt=     -1 IRanGd=            0 ICorTp=0 IEmpDi=121
 HFx  wShort=  0.000000 wLong=  0.200000 cFull=  0.222036 cShort=  0.000000 cLong=  0.777964
 DFx  wShort=  0.000000 wLong=  0.200000 cFull=  0.000000 cShort=  0.000000 cLong=  1.000000
 NAtoms=   25 NActive=   25 NUniq=   25 SFac= 1.00D+00 NAtFMM=   60 NAOKFM=F Big=F
 Integral buffers will be    131072 words long.
 Raffenetti 1 integral format.
 Two-electron integral symmetry is turned off.
 R6Disp:  Grimme-D2 Dispersion energy=       -0.0138809124 Hartrees.
 Nuclear repulsion after empirical dispersion term =     1100.5225918141 Hartrees.
 ------------------------------------------------------------------------------
 Polarizable Continuum Model (PCM)
 =================================
 Model                : PCM.
 Atomic radii         : UFF (Universal Force Field).
 Polarization charges : Total charges.
 Charge compensation  : None.
 Solution method      : On-the-fly selection.
 Cavity type          : Scaled VdW (van der Waals Surface) (Alpha=1.100).
 Cavity algorithm     : GePol (No added spheres)
                        Default sphere list used, NSphG=   25.
                        Lebedev-Laikov grids with approx.  5.0 points / Ang**2.
                        Smoothing algorithm: York/Karplus (Gamma=1.0000).
                        Polarization charges: spherical gaussians, with
                                              point-specific exponents (IZeta= 3).
                        Self-potential: point-specific (ISelfS= 7).
                        Self-field    : sphere-specific E.n sum rule (ISelfD= 2).
 1st derivatives      : Analytical E(r).r(x)/FMM algorithm (CHGder, D1EAlg=3).
                        Cavity 1st derivative terms included.
 Solvent              : CarbonTetraChloride, Eps=   2.228000 Eps(inf)=   2.131892
 ------------------------------------------------------------------------------
 GePol: Number of generator spheres                  =      25
 GePol: Total number of spheres                      =      25
 GePol: Number of exposed spheres                    =      25 (100.00%)
 GePol: Number of points                             =    2187
 GePol: Average weight of points                     =       0.12
 GePol: Minimum weight of points                     =   0.32D-10
 GePol: Maximum weight of points                     =    0.20577
 GePol: Number of points with low weight             =     134
 GePol: Fraction of low-weight points (<1% of avg)   =       6.13%
 GePol: Cavity surface area                          =    271.325 Ang**2
 GePol: Cavity volume                                =    291.647 Ang**3
 Leave Link  301 at Mon Jul 13 14:36:33 2020, MaxMem=  7784628224 cpu:               0.8 elap:               0.1
 (Enter /gpfs/loomis/apps/avx/software/Gaussian/16-C.01_AVX/g16/l302.exe)
 NPDir=0 NMtPBC=     1 NCelOv=     1 NCel=       1 NClECP=     1 NCelD=      1
         NCelK=      1 NCelE2=     1 NClLst=     1 CellRange=     0.0.
 One-electron integrals computed using PRISM.
 NBasis=   273 RedAO= T EigKep=  3.15D-04  NBF=   273
 NBsUse=   273 1.00D-06 EigRej= -1.00D+00 NBFU=   273
 Precomputing XC quadrature grid using
 IXCGrd= 4 IRadAn=           5 IRanWt=          -1 IRanGd=           0 AccXCQ= 0.00D+00.
 Generated NRdTot=       0 NPtTot=           0 NUsed=           0 NTot=          32
 NSgBfM=   288   288   288   288   288 MxSgAt=    25 MxSgA2=    25.
 Leave Link  302 at Mon Jul 13 14:36:33 2020, MaxMem=  7784628224 cpu:               2.6 elap:               0.3
 (Enter /gpfs/loomis/apps/avx/software/Gaussian/16-C.01_AVX/g16/l303.exe)
 DipDrv:  MaxL=1.
 Leave Link  303 at Mon Jul 13 14:36:33 2020, MaxMem=  7784628224 cpu:               0.4 elap:               0.2
 (Enter /gpfs/loomis/apps/avx/software/Gaussian/16-C.01_AVX/g16/l308.exe)
 Leave Link  308 at Mon Jul 13 14:36:33 2020, MaxMem=  7784628224 cpu:               0.5 elap:               0.2
 (Enter /gpfs/loomis/apps/avx/software/Gaussian/16-C.01_AVX/g16/l401.exe)
 ExpMin= 1.22D-01 ExpMax= 1.11D+05 ExpMxC= 1.07D+03 IAcc=3 IRadAn=         5 AccDes= 0.00D+00
 Harris functional with IExCor= 4639 and IRadAn=       5 diagonalized for initial guess.
 HarFok:  IExCor= 4639 AccDes= 0.00D+00 IRadAn=         5 IDoV= 1 UseB2=F ITyADJ=14
 ICtDFT=  3500011 ScaDFX=  1.000000  1.000000  1.000000  1.000000
 FoFCou: FMM=F IPFlag=           0 FMFlag=      100000 FMFlg1=           0
         NFxFlg=           0 DoJE=T BraDBF=F KetDBF=T FulRan=T
         wScrn=  0.000000 ICntrl=       500 IOpCl=  0 I1Cent=   200000004 NGrid=           0
         NMat0=    1 NMatS0=      1 NMatT0=    0 NMatD0=    1 NMtDS0=    0 NMtDT0=    0
 Symmetry not used in FoFCou.
 Harris En= -994.457023845483    
 JPrj=0 DoOrth=F DoCkMO=F.
 Leave Link  401 at Mon Jul 13 14:36:35 2020, MaxMem=  7784628224 cpu:              13.5 elap:               1.4
 (Enter /gpfs/loomis/apps/avx/software/Gaussian/16-C.01_AVX/g16/l502.exe)
 Two-electron integral symmetry not used.
 Closed shell SCF:
 Using DIIS extrapolation, IDIIS=  1040.
 NGot=  7784628224 LenX=  7784455381 LenY=  7784371419
 Requested convergence on RMS density matrix=1.00D-08 within 128 cycles.
 Requested convergence on MAX density matrix=1.00D-06.
 Requested convergence on             energy=1.00D-06.
 No special actions if energy rises.
 Fock matrices will be formed incrementally for  20 cycles.

 Cycle   1  Pass 1  IDiag  1:
 FoFJK:  IHMeth= 1 ICntrl=       0 DoSepK=T KAlg= 0 I1Cent=           0 FoldK=F
 IRaf=         1 NMat=       1 IRICut=       1 DoRegI=T DoRafI=F ISym2E= 0 IDoP0=0 IntGTp=1.
 FoFCou: FMM=F IPFlag=           0 FMFlag=      100000 FMFlg1=           0
         NFxFlg=           0 DoJE=T BraDBF=F KetDBF=F FulRan=T
         wScrn=  0.000000 ICntrl=       500 IOpCl=  0 I1Cent=           0 NGrid=           0
         NMat0=    1 NMatS0=      1 NMatT0=    0 NMatD0=    1 NMtDS0=    0 NMtDT0=    0
 Symmetry not used in FoFCou.
 Inv3:  Mode=1 IEnd=    14348907.
 Iteration    1 A*A^-1 deviation from unit magnitude is 4.66D-15 for   2164.
 Iteration    1 A*A^-1 deviation from orthogonality  is 2.25D-15 for   2165   2067.
 Iteration    1 A^-1*A deviation from unit magnitude is 4.22D-15 for   2185.
 Iteration    1 A^-1*A deviation from orthogonality  is 1.78D-15 for   2178   2028.
 E= -1028.56551239331    
 DIIS: error= 3.77D-02 at cycle   1 NSaved=   1.
 NSaved= 1 IEnMin= 1 EnMin= -1028.56551239331     IErMin= 1 ErrMin= 3.77D-02
 ErrMax= 3.77D-02  0.00D+00 EMaxC= 1.00D-01 BMatC= 3.94D-01 BMatP= 3.94D-01
 IDIUse=3 WtCom= 6.23D-01 WtEn= 3.77D-01
 Coeff-Com:  0.100D+01
 Coeff-En:   0.100D+01
 Coeff:      0.100D+01
 Gap=     0.331 Goal=   None    Shift=    0.000
 GapD=    0.331 DampG=1.000 DampE=0.500 DampFc=0.5000 IDamp=-1.
 Damping current iteration by 5.00D-01
 RMSDP=3.55D-03 MaxDP=2.27D-01              OVMax= 1.78D-01

 Cycle   2  Pass 1  IDiag  1:
 RMSU=  1.77D-03    CP:  9.93D-01
 E= -1028.68406912375     Delta-E=       -0.118556730440 Rises=F Damp=T
 DIIS: error= 1.25D-02 at cycle   2 NSaved=   2.
 NSaved= 2 IEnMin= 2 EnMin= -1028.68406912375     IErMin= 2 ErrMin= 1.25D-02
 ErrMax= 1.25D-02  0.00D+00 EMaxC= 1.00D-01 BMatC= 5.84D-02 BMatP= 3.94D-01
 IDIUse=3 WtCom= 8.75D-01 WtEn= 1.25D-01
 Coeff-Com: -0.281D+00 0.128D+01
 Coeff-En:   0.000D+00 0.100D+01
 Coeff:     -0.246D+00 0.125D+01
 Gap=     0.297 Goal=   None    Shift=    0.000
 RMSDP=1.15D-03 MaxDP=2.53D-02 DE=-1.19D-01 OVMax= 1.18D-01

 Cycle   3  Pass 1  IDiag  1:
 RMSU=  1.10D-03    CP:  9.92D-01  1.18D+00
 E= -1028.78984909280     Delta-E=       -0.105779969047 Rises=F Damp=F
 DIIS: error= 5.91D-03 at cycle   3 NSaved=   3.
 NSaved= 3 IEnMin= 3 EnMin= -1028.78984909280     IErMin= 3 ErrMin= 5.91D-03
 ErrMax= 5.91D-03  0.00D+00 EMaxC= 1.00D-01 BMatC= 1.53D-02 BMatP= 5.84D-02
 IDIUse=3 WtCom= 9.41D-01 WtEn= 5.91D-02
 Coeff-Com: -0.203D+00 0.495D+00 0.708D+00
 Coeff-En:   0.000D+00 0.000D+00 0.100D+01
 Coeff:     -0.191D+00 0.466D+00 0.725D+00
 Gap=     0.252 Goal=   None    Shift=    0.000
 RMSDP=5.53D-04 MaxDP=2.27D-02 DE=-1.06D-01 OVMax= 3.91D-02

 Cycle   4  Pass 1  IDiag  1:
 RMSU=  4.40D-04    CP:  9.90D-01  1.34D+00  8.29D-01
 E= -1028.80403567737     Delta-E=       -0.014186584577 Rises=F Damp=F
 DIIS: error= 1.96D-03 at cycle   4 NSaved=   4.
 NSaved= 4 IEnMin= 4 EnMin= -1028.80403567737     IErMin= 4 ErrMin= 1.96D-03
 ErrMax= 1.96D-03  0.00D+00 EMaxC= 1.00D-01 BMatC= 1.94D-03 BMatP= 1.53D-02
 IDIUse=3 WtCom= 9.80D-01 WtEn= 1.96D-02
 Coeff-Com: -0.723D-01 0.144D+00 0.348D+00 0.580D+00
 Coeff-En:   0.000D+00 0.000D+00 0.000D+00 0.100D+01
 Coeff:     -0.709D-01 0.141D+00 0.342D+00 0.588D+00
 Gap=     0.251 Goal=   None    Shift=    0.000
 RMSDP=1.78D-04 MaxDP=1.06D-02 DE=-1.42D-02 OVMax= 1.23D-02

 Cycle   5  Pass 1  IDiag  1:
 RMSU=  1.08D-04    CP:  9.90D-01  1.35D+00  9.04D-01  7.45D-01
 E= -1028.80607177284     Delta-E=       -0.002036095468 Rises=F Damp=F
 DIIS: error= 4.64D-04 at cycle   5 NSaved=   5.
 NSaved= 5 IEnMin= 5 EnMin= -1028.80607177284     IErMin= 5 ErrMin= 4.64D-04
 ErrMax= 4.64D-04  0.00D+00 EMaxC= 1.00D-01 BMatC= 5.58D-05 BMatP= 1.94D-03
 IDIUse=3 WtCom= 9.95D-01 WtEn= 4.64D-03
 Coeff-Com: -0.294D-02-0.254D-03 0.394D-01 0.162D+00 0.802D+00
 Coeff-En:   0.000D+00 0.000D+00 0.000D+00 0.000D+00 0.100D+01
 Coeff:     -0.293D-02-0.253D-03 0.392D-01 0.161D+00 0.803D+00
 Gap=     0.251 Goal=   None    Shift=    0.000
 RMSDP=5.24D-05 MaxDP=1.81D-03 DE=-2.04D-03 OVMax= 4.88D-03

 Cycle   6  Pass 1  IDiag  1:
 RMSU=  3.40D-05    CP:  9.90D-01  1.35D+00  9.22D-01  8.21D-01  1.08D+00
 E= -1028.80618735259     Delta-E=       -0.000115579752 Rises=F Damp=F
 DIIS: error= 2.13D-04 at cycle   6 NSaved=   6.
 NSaved= 6 IEnMin= 6 EnMin= -1028.80618735259     IErMin= 6 ErrMin= 2.13D-04
 ErrMax= 2.13D-04  0.00D+00 EMaxC= 1.00D-01 BMatC= 1.14D-05 BMatP= 5.58D-05
 IDIUse=3 WtCom= 9.98D-01 WtEn= 2.13D-03
 Coeff-Com:  0.147D-01-0.308D-01-0.557D-01-0.569D-01 0.249D+00 0.880D+00
 Coeff-En:   0.000D+00 0.000D+00 0.000D+00 0.000D+00 0.000D+00 0.100D+01
 Coeff:      0.147D-01-0.307D-01-0.556D-01-0.568D-01 0.248D+00 0.880D+00
 Gap=     0.252 Goal=   None    Shift=    0.000
 RMSDP=3.09D-05 MaxDP=1.50D-03 DE=-1.16D-04 OVMax= 3.49D-03

 Cycle   7  Pass 1  IDiag  1:
 RMSU=  1.62D-05    CP:  9.90D-01  1.35D+00  9.31D-01  8.51D-01  1.24D+00
                    CP:  1.26D+00
 E= -1028.80621801655     Delta-E=       -0.000030663954 Rises=F Damp=F
 DIIS: error= 1.37D-04 at cycle   7 NSaved=   7.
 NSaved= 7 IEnMin= 7 EnMin= -1028.80621801655     IErMin= 7 ErrMin= 1.37D-04
 ErrMax= 1.37D-04  0.00D+00 EMaxC= 1.00D-01 BMatC= 2.50D-06 BMatP= 1.14D-05
 IDIUse=3 WtCom= 9.99D-01 WtEn= 1.37D-03
 Coeff-Com:  0.698D-02-0.134D-01-0.300D-01-0.498D-01-0.985D-02 0.388D+00
 Coeff-Com:  0.708D+00
 Coeff-En:   0.000D+00 0.000D+00 0.000D+00 0.000D+00 0.000D+00 0.000D+00
 Coeff-En:   0.100D+01
 Coeff:      0.697D-02-0.134D-01-0.299D-01-0.497D-01-0.983D-02 0.387D+00
 Coeff:      0.709D+00
 Gap=     0.252 Goal=   None    Shift=    0.000
 RMSDP=1.19D-05 MaxDP=5.36D-04 DE=-3.07D-05 OVMax= 1.45D-03

 Cycle   8  Pass 1  IDiag  1:
 RMSU=  7.11D-06    CP:  9.90D-01  1.35D+00  9.34D-01  8.57D-01  1.29D+00
                    CP:  1.46D+00  1.14D+00
 E= -1028.80622375826     Delta-E=       -0.000005741714 Rises=F Damp=F
 DIIS: error= 5.01D-05 at cycle   8 NSaved=   8.
 NSaved= 8 IEnMin= 8 EnMin= -1028.80622375826     IErMin= 8 ErrMin= 5.01D-05
 ErrMax= 5.01D-05  0.00D+00 EMaxC= 1.00D-01 BMatC= 3.39D-07 BMatP= 2.50D-06
 IDIUse=1 WtCom= 1.00D+00 WtEn= 0.00D+00
 Coeff-Com: -0.132D-02 0.292D-02 0.494D-02 0.167D-02-0.408D-01-0.898D-01
 Coeff-Com:  0.180D+00 0.942D+00
 Coeff:     -0.132D-02 0.292D-02 0.494D-02 0.167D-02-0.408D-01-0.898D-01
 Coeff:      0.180D+00 0.942D+00
 Gap=     0.252 Goal=   None    Shift=    0.000
 RMSDP=6.41D-06 MaxDP=1.89D-04 DE=-5.74D-06 OVMax= 1.01D-03

 Cycle   9  Pass 1  IDiag  1:
 RMSU=  2.71D-06    CP:  9.90D-01  1.35D+00  9.34D-01  8.57D-01  1.30D+00
                    CP:  1.56D+00  1.39D+00  1.25D+00
 E= -1028.80622505800     Delta-E=       -0.000001299735 Rises=F Damp=F
 DIIS: error= 2.28D-05 at cycle   9 NSaved=   9.
 NSaved= 9 IEnMin= 9 EnMin= -1028.80622505800     IErMin= 9 ErrMin= 2.28D-05
 ErrMax= 2.28D-05  0.00D+00 EMaxC= 1.00D-01 BMatC= 5.72D-08 BMatP= 3.39D-07
 IDIUse=1 WtCom= 1.00D+00 WtEn= 0.00D+00
 Coeff-Com: -0.117D-02 0.232D-02 0.512D-02 0.688D-02-0.924D-02-0.840D-01
 Coeff-Com: -0.466D-01 0.257D+00 0.870D+00
 Coeff:     -0.117D-02 0.232D-02 0.512D-02 0.688D-02-0.924D-02-0.840D-01
 Coeff:     -0.466D-01 0.257D+00 0.870D+00
 Gap=     0.252 Goal=   None    Shift=    0.000
 RMSDP=2.99D-06 MaxDP=7.97D-05 DE=-1.30D-06 OVMax= 5.27D-04

 Cycle  10  Pass 1  IDiag  1:
 RMSU=  1.30D-06    CP:  9.90D-01  1.35D+00  9.34D-01  8.57D-01  1.31D+00
                    CP:  1.60D+00  1.49D+00  1.45D+00  1.27D+00
 E= -1028.80622533338     Delta-E=       -0.000000275383 Rises=F Damp=F
 DIIS: error= 1.07D-05 at cycle  10 NSaved=  10.
 NSaved=10 IEnMin=10 EnMin= -1028.80622533338     IErMin=10 ErrMin= 1.07D-05
 ErrMax= 1.07D-05  0.00D+00 EMaxC= 1.00D-01 BMatC= 2.13D-08 BMatP= 5.72D-08
 IDIUse=1 WtCom= 1.00D+00 WtEn= 0.00D+00
 Coeff-Com: -0.127D-03 0.185D-03 0.897D-03 0.240D-02 0.596D-02-0.152D-01
 Coeff-Com: -0.600D-01-0.132D+00 0.384D+00 0.814D+00
 Coeff:     -0.127D-03 0.185D-03 0.897D-03 0.240D-02 0.596D-02-0.152D-01
 Coeff:     -0.600D-01-0.132D+00 0.384D+00 0.814D+00
 Gap=     0.252 Goal=   None    Shift=    0.000
 RMSDP=1.70D-06 MaxDP=3.96D-05 DE=-2.75D-07 OVMax= 2.73D-04

 Cycle  11  Pass 1  IDiag  1:
 RMSU=  6.04D-07    CP:  9.90D-01  1.35D+00  9.34D-01  8.58D-01  1.31D+00
                    CP:  1.62D+00  1.53D+00  1.55D+00  1.63D+00  1.15D+00
 E= -1028.80622540818     Delta-E=       -0.000000074798 Rises=F Damp=F
 DIIS: error= 5.04D-06 at cycle  11 NSaved=  11.
 NSaved=11 IEnMin=11 EnMin= -1028.80622540818     IErMin=11 ErrMin= 5.04D-06
 ErrMax= 5.04D-06  0.00D+00 EMaxC= 1.00D-01 BMatC= 2.68D-09 BMatP= 2.13D-08
 IDIUse=1 WtCom= 1.00D+00 WtEn= 0.00D+00
 Coeff-Com:  0.271D-03-0.559D-03-0.973D-03-0.940D-03 0.486D-02 0.131D-01
 Coeff-Com: -0.806D-02-0.986D-01-0.279D-01 0.229D+00 0.890D+00
 Coeff:      0.271D-03-0.559D-03-0.973D-03-0.940D-03 0.486D-02 0.131D-01
 Coeff:     -0.806D-02-0.986D-01-0.279D-01 0.229D+00 0.890D+00
 Gap=     0.252 Goal=   None    Shift=    0.000
 RMSDP=6.65D-07 MaxDP=2.14D-05 DE=-7.48D-08 OVMax= 1.28D-04

 Cycle  12  Pass 1  IDiag  1:
 RMSU=  2.38D-07    CP:  9.90D-01  1.35D+00  9.34D-01  8.58D-01  1.31D+00
                    CP:  1.62D+00  1.54D+00  1.58D+00  1.78D+00  1.40D+00
                    CP:  1.13D+00
 E= -1028.80622542076     Delta-E=       -0.000000012578 Rises=F Damp=F
 DIIS: error= 1.26D-06 at cycle  12 NSaved=  12.
 NSaved=12 IEnMin=12 EnMin= -1028.80622542076     IErMin=12 ErrMin= 1.26D-06
 ErrMax= 1.26D-06  0.00D+00 EMaxC= 1.00D-01 BMatC= 8.65D-10 BMatP= 2.68D-09
 IDIUse=1 WtCom= 1.00D+00 WtEn= 0.00D+00
 Coeff-Com:  0.135D-03-0.265D-03-0.563D-03-0.897D-03 0.110D-02 0.864D-02
 Coeff-Com:  0.864D-02-0.182D-01-0.914D-01-0.103D+00 0.377D+00 0.819D+00
 Coeff:      0.135D-03-0.265D-03-0.563D-03-0.897D-03 0.110D-02 0.864D-02
 Coeff:      0.864D-02-0.182D-01-0.914D-01-0.103D+00 0.377D+00 0.819D+00
 Gap=     0.252 Goal=   None    Shift=    0.000
 RMSDP=3.53D-07 MaxDP=8.94D-06 DE=-1.26D-08 OVMax= 5.48D-05

 Cycle  13  Pass 1  IDiag  1:
 RMSU=  9.50D-08    CP:  9.90D-01  1.35D+00  9.34D-01  8.58D-01  1.31D+00
                    CP:  1.62D+00  1.55D+00  1.60D+00  1.86D+00  1.50D+00
                    CP:  1.39D+00  1.08D+00
 E= -1028.80622542327     Delta-E=       -0.000000002519 Rises=F Damp=F
 DIIS: error= 6.04D-07 at cycle  13 NSaved=  13.
 NSaved=13 IEnMin=13 EnMin= -1028.80622542327     IErMin=13 ErrMin= 6.04D-07
 ErrMax= 6.04D-07  0.00D+00 EMaxC= 1.00D-01 BMatC= 6.17D-11 BMatP= 8.65D-10
 IDIUse=1 WtCom= 1.00D+00 WtEn= 0.00D+00
 Coeff-Com:  0.470D-05-0.560D-05-0.388D-04-0.167D-03-0.219D-03 0.100D-02
 Coeff-Com:  0.356D-02 0.752D-02-0.208D-01-0.655D-01 0.222D-02 0.242D+00
 Coeff-Com:  0.830D+00
 Coeff:      0.470D-05-0.560D-05-0.388D-04-0.167D-03-0.219D-03 0.100D-02
 Coeff:      0.356D-02 0.752D-02-0.208D-01-0.655D-01 0.222D-02 0.242D+00
 Coeff:      0.830D+00
 Gap=     0.252 Goal=   None    Shift=    0.000
 RMSDP=8.01D-08 MaxDP=2.20D-06 DE=-2.52D-09 OVMax= 1.13D-05

 Cycle  14  Pass 1  IDiag  1:
 RMSU=  3.80D-08    CP:  9.90D-01  1.35D+00  9.34D-01  8.58D-01  1.31D+00
                    CP:  1.62D+00  1.55D+00  1.60D+00  1.87D+00  1.53D+00
                    CP:  1.45D+00  1.22D+00  1.03D+00
 E= -1028.80622542344     Delta-E=       -0.000000000161 Rises=F Damp=F
 DIIS: error= 1.93D-07 at cycle  14 NSaved=  14.
 NSaved=14 IEnMin=14 EnMin= -1028.80622542344     IErMin=14 ErrMin= 1.93D-07
 ErrMax= 1.93D-07  0.00D+00 EMaxC= 1.00D-01 BMatC= 1.44D-11 BMatP= 6.17D-11
 IDIUse=1 WtCom= 1.00D+00 WtEn= 0.00D+00
 Coeff-Com: -0.134D-04 0.278D-04 0.482D-04 0.274D-04-0.212D-03-0.479D-03
 Coeff-Com:  0.618D-03 0.557D-02 0.143D-02-0.180D-01-0.418D-01 0.634D-02
 Coeff-Com:  0.374D+00 0.673D+00
 Coeff:     -0.134D-04 0.278D-04 0.482D-04 0.274D-04-0.212D-03-0.479D-03
 Coeff:      0.618D-03 0.557D-02 0.143D-02-0.180D-01-0.418D-01 0.634D-02
 Coeff:      0.374D+00 0.673D+00
 Gap=     0.252 Goal=   None    Shift=    0.000
 RMSDP=2.36D-08 MaxDP=6.39D-07 DE=-1.61D-10 OVMax= 2.07D-06

 Cycle  15  Pass 1  IDiag  1:
 RMSU=  1.38D-08    CP:  9.90D-01  1.35D+00  9.34D-01  8.58D-01  1.31D+00
                    CP:  1.62D+00  1.55D+00  1.60D+00  1.87D+00  1.53D+00
                    CP:  1.46D+00  1.25D+00  1.17D+00  9.39D-01
 E= -1028.80622542347     Delta-E=       -0.000000000033 Rises=F Damp=F
 DIIS: error= 8.21D-08 at cycle  15 NSaved=  15.
 NSaved=15 IEnMin=15 EnMin= -1028.80622542347     IErMin=15 ErrMin= 8.21D-08
 ErrMax= 8.21D-08  0.00D+00 EMaxC= 1.00D-01 BMatC= 1.00D-12 BMatP= 1.44D-11
 IDIUse=1 WtCom= 1.00D+00 WtEn= 0.00D+00
 Coeff-Com: -0.409D-05 0.771D-05 0.197D-04 0.360D-04-0.215D-04-0.325D-03
 Coeff-Com: -0.579D-03-0.444D-04 0.427D-02 0.780D-02-0.881D-02-0.432D-01
 Coeff-Com: -0.451D-01 0.148D+00 0.938D+00
 Coeff:     -0.409D-05 0.771D-05 0.197D-04 0.360D-04-0.215D-04-0.325D-03
 Coeff:     -0.579D-03-0.444D-04 0.427D-02 0.780D-02-0.881D-02-0.432D-01
 Coeff:     -0.451D-01 0.148D+00 0.938D+00
 Gap=     0.252 Goal=   None    Shift=    0.000
 RMSDP=9.67D-09 MaxDP=1.91D-07 DE=-3.25D-11 OVMax= 1.03D-06

 Error on total polarization charges =  0.00849
 SCF Done:  E(RwB97XD) =  -1028.80622542     A.U. after   15 cycles
            NFock= 15  Conv=0.97D-08     -V/T= 2.0050
 KE= 1.023666532366D+03 PE=-4.613027491576D+03 EE= 1.460032141973D+03
 Leave Link  502 at Mon Jul 13 14:37:58 2020, MaxMem=  7784628224 cpu:             825.8 elap:              83.3
 (Enter /gpfs/loomis/apps/avx/software/Gaussian/16-C.01_AVX/g16/l801.exe)
 DoSCS=F DFT=T ScalE2(SS,OS)=  1.000000  1.000000
 ExpMin= 1.22D-01 ExpMax= 1.11D+05 ExpMxC= 1.07D+03 IAcc=3 IRadAn=         5 AccDes= 0.00D+00
 HarFok:  IExCor=  205 AccDes= 0.00D+00 IRadAn=         5 IDoV=-2 UseB2=F ITyADJ=14
 ICtDFT= 12500011 ScaDFX=  1.000000  1.000000  1.000000  1.000000
 Largest valence mixing into a core orbital is  9.45D-05
 Largest core mixing into a valence orbital is  2.99D-05
 Range of M.O.s used for correlation:    21   273
 NBasis=   273 NAE=    59 NBE=    59 NFC=    20 NFV=     0
 NROrb=    253 NOA=    39 NOB=    39 NVA=   214 NVB=   214

 **** Warning!!: The largest alpha MO coefficient is  0.11288191D+02

 Leave Link  801 at Mon Jul 13 14:37:58 2020, MaxMem=  7784628224 cpu:               3.1 elap:               0.4
 (Enter /gpfs/loomis/apps/avx/software/Gaussian/16-C.01_AVX/g16/l914.exe)
 RHF ground state
 Keep R1, R2, and R3 ints in memory in canonical form, NReq=4262515490.
 FoFCou: FMM=F IPFlag=           0 FMFlag=           0 FMFlg1=           0
         NFxFlg=           0 DoJE=F BraDBF=F KetDBF=F FulRan=T
         wScrn=  0.000000 ICntrl=       600 IOpCl=  0 I1Cent=           0 NGrid=           0
         NMat0=    1 NMatS0=  37401 NMatT0=    0 NMatD0=    1 NMtDS0=    0 NMtDT0=    0
 Symmetry not used in FoFCou.
 Two-electron integral symmetry not used.
 MDV=  7784628224 DFT=T DoStab=F Mixed=T DoRPA=T DoScal=F NonHer=T
 NEqPCM:  Using equilibrium solvation (IEInf=0, Eps=   2.2280, EpsInf=   2.1319)
 Making orbital integer symmetry assigments:
    12 initial guesses have been made.
 Convergence on wavefunction:    0.000001000000000
 Davidson Disk Diagonalization:  ConvIn= 1.00D-06 SkipCon=T Conv= 1.00D-06.
 Max sub-space:  2000 roots to seek:    12 dimension of matrix:        16692
 Iteration     1 Dimension    12 NMult     0 NNew     12
 CISAX will form    12 AO SS matrices at one time.
 NMat=    12 NSing=    12 JSym2X= 0.
 New state      2 was old state      5
 New state      3 was old state      2
 Excitation Energies [eV] at current iteration:
 Root      1 :     3.684715774863357
 Root      2 :     4.563753522870801
 Root      3 :     4.909310719420135
 Root      4 :     5.242253136817896
 Root      5 :     5.737089507687193
 Root      6 :     5.963622509523391
 Root      7 :     6.178504384530529
 Root      8 :     6.327488861332970
 Root      9 :     6.847264123129171
 Root     10 :     6.995853392978647
 Root     11 :     7.121479529313639
 Root     12 :     7.864733858614681
 Iteration     2 Dimension    18 NMult    12 NNew      6
 CISAX will form     6 AO SS matrices at one time.
 NMat=     6 NSing=     6 JSym2X= 0.
 Root      1 not converged, maximum delta is    0.047189356522713
 Root      2 not converged, maximum delta is    0.091472551034067
 Root      3 not converged, maximum delta is    0.074201620267606
 Excitation Energies [eV] at current iteration:
 Root      1 :     3.183171054359347   Change is   -0.501544720504010
 Root      2 :     4.358236699785747   Change is   -0.205516823085054
 Root      3 :     4.369372699135503   Change is   -0.539938020284632
 Iteration     3 Dimension    24 NMult    18 NNew      6
 CISAX will form     6 AO SS matrices at one time.
 NMat=     6 NSing=     6 JSym2X= 0.
 Root      1 not converged, maximum delta is    0.019036486831970
 Root      2 not converged, maximum delta is    0.030747455484391
 Root      3 not converged, maximum delta is    0.014779546311418
 Excitation Energies [eV] at current iteration:
 Root      1 :     3.150370639510918   Change is   -0.032800414848429
 Root      2 :     4.340272177317599   Change is   -0.017964522468148
 Root      3 :     4.342932189686125   Change is   -0.026440509449378
 Iteration     4 Dimension    30 NMult    24 NNew      6
 CISAX will form     6 AO SS matrices at one time.
 NMat=     6 NSing=     6 JSym2X= 0.
 Root      1 not converged, maximum delta is    0.007893675359212
 New state      2 was old state      3
 Root      2 not converged, maximum delta is    0.019145260104661
 New state      3 was old state      2
 Root      3 not converged, maximum delta is    0.018290303898336
 Excitation Energies [eV] at current iteration:
 Root      1 :     3.145193904883337   Change is   -0.005176734627581
 Root      2 :     4.338060634077409   Change is   -0.004871555608717
 Root      3 :     4.338501893176587   Change is   -0.001770284141012
 Iteration     5 Dimension    36 NMult    30 NNew      6
 CISAX will form     6 AO SS matrices at one time.
 NMat=     6 NSing=     6 JSym2X= 0.
 Root      1 not converged, maximum delta is    0.003024148246381
 Root      2 not converged, maximum delta is    0.006501678528852
 Root      3 not converged, maximum delta is    0.006217357689054
 Excitation Energies [eV] at current iteration:
 Root      1 :     3.144666231926494   Change is   -0.000527672956843
 Root      2 :     4.337610469587616   Change is   -0.000450164489792
 Root      3 :     4.338342465470993   Change is   -0.000159427705594
 Iteration     6 Dimension    42 NMult    36 NNew      6
 CISAX will form     6 AO SS matrices at one time.
 NMat=     6 NSing=     6 JSym2X= 0.
 Root      1 not converged, maximum delta is    0.000478792738567
 Root      2 not converged, maximum delta is    0.000735048787345
 Root      3 not converged, maximum delta is    0.000583991905972
 Excitation Energies [eV] at current iteration:
 Root      1 :     3.144611293168777   Change is   -0.000054938757716
 Root      2 :     4.337552199471985   Change is   -0.000058270115631
 Root      3 :     4.338332417562791   Change is   -0.000010047908202
 Iteration     7 Dimension    48 NMult    42 NNew      6
 CISAX will form     6 AO SS matrices at one time.
 NMat=     6 NSing=     6 JSym2X= 0.
 Root      1 not converged, maximum delta is    0.000150698868166
 Root      2 not converged, maximum delta is    0.000385630736592
 Root      3 not converged, maximum delta is    0.000123323168676
 Excitation Energies [eV] at current iteration:
 Root      1 :     3.144607928881256   Change is   -0.000003364287521
 Root      2 :     4.337544837234824   Change is   -0.000007362237161
 Root      3 :     4.338331728717562   Change is   -0.000000688845229
 Iteration     8 Dimension    54 NMult    48 NNew      6
 CISAX will form     6 AO SS matrices at one time.
 NMat=     6 NSing=     6 JSym2X= 0.
 Root      1 not converged, maximum delta is    0.000030464902882
 Root      2 not converged, maximum delta is    0.000075253101392
 Root      3 not converged, maximum delta is    0.000044530829640
 Excitation Energies [eV] at current iteration:
 Root      1 :     3.144607660160673   Change is   -0.000000268720583
 Root      2 :     4.337544141608385   Change is   -0.000000695626439
 Root      3 :     4.338331665999255   Change is   -0.000000062718307
 Iteration     9 Dimension    60 NMult    54 NNew      6
 CISAX will form     6 AO SS matrices at one time.
 NMat=     6 NSing=     6 JSym2X= 0.
 Root      1 not converged, maximum delta is    0.000008234306899
 Root      2 not converged, maximum delta is    0.000020192894347
 Root      3 not converged, maximum delta is    0.000008980395226
 Excitation Energies [eV] at current iteration:
 Root      1 :     3.144607644623972   Change is   -0.000000015536702
 Root      2 :     4.337544085558687   Change is   -0.000000056049698
 Root      3 :     4.338331661652974   Change is   -0.000000004346281
 Iteration    10 Dimension    66 NMult    60 NNew      6
 CISAX will form     6 AO SS matrices at one time.
 NMat=     6 NSing=     6 JSym2X= 0.
 Root      1 not converged, maximum delta is    0.000001819858389
 Root      2 not converged, maximum delta is    0.000009916911832
 Root      3 not converged, maximum delta is    0.000002349474435
 Excitation Energies [eV] at current iteration:
 Root      1 :     3.144607643620706   Change is   -0.000000001003266
 Root      2 :     4.337544080329242   Change is   -0.000000005229445
 Root      3 :     4.338331661362067   Change is   -0.000000000290907
 Iteration    11 Dimension    72 NMult    66 NNew      6
 CISAX will form     6 AO SS matrices at one time.
 NMat=     6 NSing=     6 JSym2X= 0.
 Root      1 has converged.
 Root      2 not converged, maximum delta is    0.000005262307422
 Root      3 not converged, maximum delta is    0.000001145614211
 Excitation Energies [eV] at current iteration:
 Root      1 :     3.144607643555454   Change is   -0.000000000065251
 Root      2 :     4.337544079709702   Change is   -0.000000000619540
 Root      3 :     4.338331661329266   Change is   -0.000000000032801
 Iteration    12 Dimension    76 NMult    72 NNew      4
 CISAX will form     4 AO SS matrices at one time.
 NMat=     4 NSing=     4 JSym2X= 0.
 Root      1 has converged.
 Root      2 not converged, maximum delta is    0.000001679147319
 Root      3 has converged.
 Excitation Energies [eV] at current iteration:
 Root      1 :     3.144607643554958   Change is   -0.000000000000497
 Root      2 :     4.337544079642687   Change is   -0.000000000067016
 Root      3 :     4.338331661323582   Change is   -0.000000000005685
 Iteration    13 Dimension    78 NMult    76 NNew      2
 CISAX will form     2 AO SS matrices at one time.
 NMat=     2 NSing=     2 JSym2X= 0.
 Root      1 has converged.
 Root      2 has converged.
 Root      3 has converged.
 Excitation Energies [eV] at current iteration:
 Root      1 :     3.144607643554958   Change is    0.000000000000000
 Root      2 :     4.337544079636243   Change is   -0.000000000006444
 Root      3 :     4.338331661323562   Change is   -0.000000000000019
 Convergence achieved on expansion vectors.
 ***********************************************************************
 Excited states from <AA,BB:AA,BB> singles matrix:
 ***********************************************************************
 
 1PDM for each excited state written to RWF  633
 Ground to excited state transition densities written to RWF  633
 Ground to excited state transition electric dipole moments (Au):
       state          X           Y           Z        Dip. S.      Osc.
         1         1.2485     -2.1172     -0.0000      6.0411      0.4654
         2        -1.5559      0.8450     -0.0001      3.1348      0.3331
         3        -0.0212      0.0116      0.0089      0.0007      0.0001
 Ground to excited state transition velocity dipole moments (Au):
       state          X           Y           Z        Dip. S.      Osc.
         1        -0.1398      0.2471      0.0000      0.0806      0.4650
         2         0.2432     -0.1256      0.0000      0.0750      0.3135
         3         0.0033     -0.0017     -0.0010      0.0000      0.0001
 Ground to excited state transition magnetic dipole moments (Au):
       state          X           Y           Z
         1         0.0000      0.0000     -0.9531
         2        -0.0016     -0.0006     -1.2493
         3         0.1184      0.0420     -0.0170
 Ground to excited state transition velocity quadrupole moments (Au):
       state          XX          YY          ZZ          XY          XZ          YZ
         1         0.0291      0.5849     -0.0143     -0.2697     -0.0000      0.0000
         2        -0.4419      0.6581      0.0014      0.0018      0.0002      0.0000
         3        -0.0060      0.0090      0.0000      0.0000     -0.0162     -0.0031
 <0|del|b> * <b|rxdel|0> + <0|del|b> * <b|delr+rdel|0>
 Rotatory Strengths (R) in cgs (10**-40 erg-esu-cm/Gauss)
       state          XX          YY          ZZ    R(velocity)    E-M Angle
         1         0.0076     -0.0146      0.0178      0.0036       90.00
         2         0.1884     -0.8830     -0.8049     -0.4999       90.06
         3        -0.1849      0.8855      0.7957      0.4988       46.50
 1/2[<0|r|b>*<b|rxdel|0> + (<0|rxdel|b>*<b|r|0>)*]
 Rotatory Strengths (R) in cgs (10**-40 erg-esu-cm/Gauss)
       state          XX          YY          ZZ     R(length)
         1        -0.0046      0.0361     -0.0219      0.0032
         2        -1.7858      0.3401     -0.0977     -0.5145
         3         1.7768     -0.3436      0.1075      0.5136
  1/2[<0|del|b>*<b|r|0> + (<0|r|b>*<b|del|0>)*] (Au)
       state          X           Y           Z        Dip. S.   Osc.(frdel)
         1        -0.1745     -0.5232     -0.0000      0.6977      0.4651
         2        -0.3785     -0.1062     -0.0000      0.4846      0.3231
         3        -0.0001     -0.0000     -0.0000      0.0001      0.0001

 Excitation energies and oscillator strengths:
 
 Excited state symmetry could not be determined.
 Excited State   1:      Singlet-?Sym    3.1446 eV  394.28 nm  f=0.4654  <S**2>=0.000
      59 -> 60         0.69448
 This state for optimization and/or second-order correction.
 Total Energy, E(TD-HF/TD-DFT) =  -1028.69066322    
 Copying the excited state density for this state as the 1-particle RhoCI density.
 
 Excited state symmetry could not be determined.
 Excited State   2:      Singlet-?Sym    4.3375 eV  285.84 nm  f=0.3331  <S**2>=0.000
      58 -> 60         0.67464
 
 Excited state symmetry could not be determined.
 Excited State   3:      Singlet-?Sym    4.3383 eV  285.79 nm  f=0.0001  <S**2>=0.000
      56 -> 60         0.68693
      56 -> 62         0.10265
      56 -> 64        -0.11097
 SavETr:  write IOETrn=   770 NScale= 10 NData=  16 NLR=1 NState=    3 LETran=      64.
 The selected state is a singlet.
 CISGrd: IGrad=2 NXY=2 DFT=T
 CISAX will form     1 AO SS matrices at one time.
 NMat=     1 NSing=     1 JSym2X= 0.
 GePol: Maximum number of non-zero 1st derivatives   =     259
 Leave Link  914 at Mon Jul 13 14:41:04 2020, MaxMem=  7784628224 cpu:            1823.0 elap:             185.4
 (Enter /gpfs/loomis/apps/avx/software/Gaussian/16-C.01_AVX/g16/l1002.exe)
 Minotr:  Closed shell wavefunction.
          Computing CIS/TDA/TD derivatives.
          Using Z-Vector for PSCF gradient.
          Skipping F1 and S1 gradient terms here.
          IDoAtm=1111111111111111111111111
 NEqPCM:  Using equilibrium solvation (IEInf=0, Eps=   2.2280, EpsInf=   2.1319)
          Frozen-core window.
          Direct CPHF calculation.
          Differentiating once with respect to electric field.
                with respect to dipole field.
          Differentiating once with respect to nuclear coordinates.
          Requested convergence is 1.0D-10 RMS, and 1.0D-09 maximum.
          NewPWx=F KeepS1=T KeepF1=T KeepIn=T MapXYZ=F SortEE=F KeepMc=T.
 Keep R1 ints in memory in canonical form, NReq=1421461565.
 FoFCou: FMM=F IPFlag=           0 FMFlag=           0 FMFlg1=           0
         NFxFlg=           0 DoJE=F BraDBF=F KetDBF=F FulRan=T
         wScrn=  0.000000 ICntrl=       600 IOpCl=  0 I1Cent=           0 NGrid=           0
         NMat0=    1 NMatS0=  37401 NMatT0=    0 NMatD0=    1 NMtDS0=    0 NMtDT0=    0
 Symmetry not used in FoFCou.
 Two-electron integral symmetry not used.
          MDV=    7784628224 using IRadAn=       5.
          Solving linear equations separately, MaxMat=       0.
          There are     1 degrees of freedom in the 1st order CPHF.  IDoFFX=0 NUNeed=     1.
 LinEq1:  Iter=  0 NonCon=     1 RMS=5.97D-03 Max=3.68D-01 NDo=     1
 AX will form     1 AO Fock derivatives at one time.
 LinEq1:  Iter=  1 NonCon=     1 RMS=2.61D-03 Max=1.40D-01 NDo=     1
 LinEq1:  Iter=  2 NonCon=     1 RMS=1.61D-03 Max=5.36D-02 NDo=     1
 LinEq1:  Iter=  3 NonCon=     1 RMS=6.18D-04 Max=1.51D-02 NDo=     1
 LinEq1:  Iter=  4 NonCon=     1 RMS=3.43D-04 Max=1.15D-02 NDo=     1
 LinEq1:  Iter=  5 NonCon=     1 RMS=1.73D-04 Max=7.53D-03 NDo=     1
 LinEq1:  Iter=  6 NonCon=     1 RMS=7.39D-05 Max=2.82D-03 NDo=     1
 LinEq1:  Iter=  7 NonCon=     1 RMS=3.80D-05 Max=1.35D-03 NDo=     1
 LinEq1:  Iter=  8 NonCon=     1 RMS=1.51D-05 Max=4.13D-04 NDo=     1
 LinEq1:  Iter=  9 NonCon=     1 RMS=8.26D-06 Max=2.26D-04 NDo=     1
 LinEq1:  Iter= 10 NonCon=     1 RMS=3.46D-06 Max=1.01D-04 NDo=     1
 LinEq1:  Iter= 11 NonCon=     1 RMS=1.93D-06 Max=7.43D-05 NDo=     1
 LinEq1:  Iter= 12 NonCon=     1 RMS=1.00D-06 Max=3.45D-05 NDo=     1
 LinEq1:  Iter= 13 NonCon=     1 RMS=4.14D-07 Max=1.16D-05 NDo=     1
 LinEq1:  Iter= 14 NonCon=     1 RMS=1.80D-07 Max=5.24D-06 NDo=     1
 LinEq1:  Iter= 15 NonCon=     1 RMS=9.32D-08 Max=3.14D-06 NDo=     1
 LinEq1:  Iter= 16 NonCon=     1 RMS=3.75D-08 Max=1.24D-06 NDo=     1
 LinEq1:  Iter= 17 NonCon=     1 RMS=1.72D-08 Max=6.25D-07 NDo=     1
 LinEq1:  Iter= 18 NonCon=     1 RMS=6.64D-09 Max=1.70D-07 NDo=     1
 LinEq1:  Iter= 19 NonCon=     1 RMS=3.34D-09 Max=1.08D-07 NDo=     1
 LinEq1:  Iter= 20 NonCon=     1 RMS=1.50D-09 Max=4.57D-08 NDo=     1
 LinEq1:  Iter= 21 NonCon=     1 RMS=3.95D-10 Max=9.92D-09 NDo=     1
 LinEq1:  Iter= 22 NonCon=     1 RMS=1.57D-10 Max=3.59D-09 NDo=     1
 LinEq1:  Iter= 23 NonCon=     1 RMS=7.06D-11 Max=1.51D-09 NDo=     1
 LinEq1:  Iter= 24 NonCon=     0 RMS=2.23D-11 Max=7.41D-10 NDo=     1
 Linear equations converged to 1.000D-10 1.000D-09 after    24 iterations.
 End of Minotr F.D. properties file   721 does not exist.
 End of Minotr F.D. properties file   722 does not exist.
 End of Minotr F.D. properties file   788 does not exist.
 Leave Link 1002 at Mon Jul 13 14:42:46 2020, MaxMem=  7784628224 cpu:             756.9 elap:             102.1
 (Enter /gpfs/loomis/apps/avx/software/Gaussian/16-C.01_AVX/g16/l601.exe)
 Copying SCF densities to generalized density rwf, IOpCl= 0 IROHF=0.

 **********************************************************************

            Population analysis using the SCF Density.

 **********************************************************************

 Alpha  occ. eigenvalues --  -89.09794 -19.23369 -14.50415 -10.40866 -10.37068
 Alpha  occ. eigenvalues --  -10.36739 -10.35693 -10.32937 -10.32604 -10.32195
 Alpha  occ. eigenvalues --  -10.32085 -10.31928 -10.31485 -10.31158 -10.29795
 Alpha  occ. eigenvalues --  -10.29363  -8.11867  -6.06715  -6.06365  -6.05906
 Alpha  occ. eigenvalues --   -1.12967  -1.09726  -0.97574  -0.95592  -0.92971
 Alpha  occ. eigenvalues --   -0.88964  -0.86105  -0.83632  -0.82006  -0.75890
 Alpha  occ. eigenvalues --   -0.71759  -0.71481  -0.68461  -0.67734  -0.64179
 Alpha  occ. eigenvalues --   -0.60895  -0.59411  -0.57418  -0.55300  -0.55061
 Alpha  occ. eigenvalues --   -0.54446  -0.53654  -0.52887  -0.50655  -0.49827
 Alpha  occ. eigenvalues --   -0.49251  -0.47565  -0.46569  -0.45339  -0.45098
 Alpha  occ. eigenvalues --   -0.44198  -0.43222  -0.42044  -0.40686  -0.36617
 Alpha  occ. eigenvalues --   -0.34110  -0.32961  -0.31272  -0.27078
 Alpha virt. eigenvalues --   -0.01851   0.04198   0.06099   0.06950   0.08392
 Alpha virt. eigenvalues --    0.10589   0.14394   0.14873   0.16647   0.17679
 Alpha virt. eigenvalues --    0.18714   0.20593   0.21336   0.21642   0.22715
 Alpha virt. eigenvalues --    0.23504   0.23971   0.25005   0.27945   0.28965
 Alpha virt. eigenvalues --    0.31990   0.33457   0.35199   0.35562   0.36725
 Alpha virt. eigenvalues --    0.38232   0.39188   0.40348   0.41658   0.43045
 Alpha virt. eigenvalues --    0.47077   0.47562   0.50762   0.51114   0.51490
 Alpha virt. eigenvalues --    0.52415   0.53056   0.53438   0.54103   0.54979
 Alpha virt. eigenvalues --    0.56222   0.56356   0.56668   0.56949   0.58074
 Alpha virt. eigenvalues --    0.58170   0.58429   0.58911   0.59404   0.60085
 Alpha virt. eigenvalues --    0.60947   0.60969   0.62015   0.62836   0.62897
 Alpha virt. eigenvalues --    0.65255   0.65715   0.66829   0.67461   0.68834
 Alpha virt. eigenvalues --    0.70724   0.70789   0.72145   0.72544   0.72761
 Alpha virt. eigenvalues --    0.72989   0.74744   0.75154   0.75913   0.77991
 Alpha virt. eigenvalues --    0.78823   0.79239   0.80201   0.81128   0.82345
 Alpha virt. eigenvalues --    0.83915   0.88046   0.90002   0.90792   0.93196
 Alpha virt. eigenvalues --    0.94556   0.94669   0.96126   0.96370   0.97128
 Alpha virt. eigenvalues --    0.98513   0.98563   1.00278   1.00658   1.01526
 Alpha virt. eigenvalues --    1.02545   1.05451   1.06243   1.06381   1.07398
 Alpha virt. eigenvalues --    1.08048   1.09482   1.10088   1.10619   1.11173
 Alpha virt. eigenvalues --    1.12306   1.12947   1.13992   1.14720   1.15201
 Alpha virt. eigenvalues --    1.16112   1.19858   1.19902   1.22475   1.23213
 Alpha virt. eigenvalues --    1.25812   1.28556   1.32962   1.33488   1.34428
 Alpha virt. eigenvalues --    1.35726   1.37146   1.38686   1.40626   1.47186
 Alpha virt. eigenvalues --    1.49014   1.49974   1.52180   1.53563   1.54756
 Alpha virt. eigenvalues --    1.56739   1.56912   1.57093   1.58647   1.59072
 Alpha virt. eigenvalues --    1.59950   1.60627   1.65032   1.66654   1.67019
 Alpha virt. eigenvalues --    1.68004   1.69363   1.70186   1.70357   1.70821
 Alpha virt. eigenvalues --    1.71849   1.72350   1.73510   1.73527   1.75560
 Alpha virt. eigenvalues --    1.77262   1.79940   1.80414   1.81091   1.82459
 Alpha virt. eigenvalues --    1.82885   1.84561   1.84651   1.84821   1.85196
 Alpha virt. eigenvalues --    1.86470   1.88498   1.88541   1.90625   1.92045
 Alpha virt. eigenvalues --    1.92338   1.93471   1.93730   1.95675   1.96519
 Alpha virt. eigenvalues --    1.96907   1.99608   1.99995   2.02779   2.03790
 Alpha virt. eigenvalues --    2.05353   2.07602   2.09540   2.10537   2.14109
 Alpha virt. eigenvalues --    2.15476   2.17030   2.17102   2.20793   2.23728
 Alpha virt. eigenvalues --    2.26546   2.27154   2.31185   2.37531   2.40441
 Alpha virt. eigenvalues --    2.41319   2.42508   2.44359   2.46594   2.46649
 Alpha virt. eigenvalues --    2.48060   2.50158   2.51790   2.53162   2.61669
 Alpha virt. eigenvalues --    2.62139   2.71424   2.73705   2.74936   2.79087
 Alpha virt. eigenvalues --    2.81169   2.83564   2.85292   2.88153   2.89522
 Alpha virt. eigenvalues --    2.91783   3.02066   3.12410   3.19843   3.40029
 Alpha virt. eigenvalues --    3.46463   3.55964   3.62328   3.80309
          Condensed to atoms (all electrons):
               1          2          3          4          5          6
     1  C    4.729861   0.488118   0.005347  -0.051495  -0.014562   0.517392
     2  C    0.488118   5.302516   0.329487  -0.042851  -0.067799  -0.008644
     3  C    0.005347   0.329487   4.835326   0.502049  -0.003584  -0.063289
     4  C   -0.051495  -0.042851   0.502049   4.776822   0.520852  -0.012230
     5  C   -0.014562  -0.067799  -0.003584   0.520852   4.729990   0.496136
     6  C    0.517392  -0.008644  -0.063289  -0.012230   0.496136   4.736159
     7  H    0.402765  -0.038133   0.008708  -0.000602   0.008022  -0.039256
     8  H   -0.000628   0.010905  -0.031382   0.395255  -0.041329   0.007524
     9  H    0.008894  -0.000597   0.008446  -0.038202   0.404891  -0.044769
    10  H   -0.042367   0.009386  -0.000471   0.008340  -0.042430   0.406912
    11  N    0.004947  -0.047159   0.386383  -0.042520   0.002835   0.000121
    12  S   -0.069781   0.331409  -0.113458   0.005763   0.000276   0.004031
    13  C   -0.000212   0.001938   0.009492  -0.000519   0.000008   0.000003
    14  C   -0.000009   0.000152   0.000311   0.000006  -0.000000  -0.000000
    15  C    0.000004  -0.000354   0.000588   0.000045  -0.000000   0.000000
    16  C    0.000000  -0.000006   0.000004  -0.000000   0.000000   0.000000
    17  H   -0.000010   0.000179  -0.000000   0.000000   0.000000   0.000000
    18  C    0.000000   0.000007  -0.000015  -0.000000  -0.000000  -0.000000
    19  C   -0.000000   0.000000   0.000001   0.000000  -0.000000   0.000000
    20  H   -0.000000  -0.000000  -0.000000   0.000000  -0.000000  -0.000000
    21  H   -0.000000  -0.000000  -0.000000  -0.000000  -0.000000   0.000000
    22  H    0.000000  -0.000000  -0.000000  -0.000000   0.000000  -0.000000
    23  C    0.003727  -0.047244  -0.116017   0.000761   0.000268  -0.000199
    24  O    0.000002  -0.000124  -0.000998  -0.000031   0.000000  -0.000000
    25  H    0.000043   0.005736  -0.022372  -0.001954  -0.000051   0.000003
               7          8          9         10         11         12
     1  C    0.402765  -0.000628   0.008894  -0.042367   0.004947  -0.069781
     2  C   -0.038133   0.010905  -0.000597   0.009386  -0.047159   0.331409
     3  C    0.008708  -0.031382   0.008446  -0.000471   0.386383  -0.113458
     4  C   -0.000602   0.395255  -0.038202   0.008340  -0.042520   0.005763
     5  C    0.008022  -0.041329   0.404891  -0.042430   0.002835   0.000276
     6  C   -0.039256   0.007524  -0.044769   0.406912   0.000121   0.004031
     7  H    0.652979   0.000030  -0.000152  -0.011191  -0.000088  -0.007684
     8  H    0.000030   0.645597  -0.012299  -0.000109  -0.002844  -0.000218
     9  H   -0.000152  -0.012299   0.660195  -0.012099  -0.000099   0.000021
    10  H   -0.011191  -0.000109  -0.012099   0.658508   0.000003  -0.000160
    11  N   -0.000088  -0.002844  -0.000099   0.000003   6.332841  -0.058216
    12  S   -0.007684  -0.000218   0.000021  -0.000160  -0.058216  15.453537
    13  C    0.000001   0.000032  -0.000000  -0.000000  -0.025316  -0.064502
    14  C    0.000001   0.000001   0.000000  -0.000000   0.003357  -0.011127
    15  C   -0.000000  -0.000006   0.000000   0.000000  -0.009290   0.004832
    16  C    0.000000   0.000000  -0.000000  -0.000000  -0.000078   0.000256
    17  H    0.000001   0.000000  -0.000000  -0.000000   0.000236   0.008517
    18  C    0.000000  -0.000000   0.000000  -0.000000  -0.000565  -0.000190
    19  C    0.000000   0.000000  -0.000000  -0.000000   0.000040   0.000026
    20  H    0.000000  -0.000000   0.000000   0.000000   0.000001   0.000009
    21  H   -0.000000   0.000000  -0.000000   0.000000   0.000017   0.000004
    22  H    0.000000  -0.000000   0.000000  -0.000000  -0.000000  -0.000001
    23  C    0.000180  -0.000708   0.000006   0.000005   0.529805   0.322351
    24  O   -0.000000  -0.000155   0.000000  -0.000000  -0.074145  -0.000248
    25  H    0.000003   0.000846  -0.000005  -0.000000   0.252571   0.003502
              13         14         15         16         17         18
     1  C   -0.000212  -0.000009   0.000004   0.000000  -0.000010   0.000000
     2  C    0.001938   0.000152  -0.000354  -0.000006   0.000179   0.000007
     3  C    0.009492   0.000311   0.000588   0.000004  -0.000000  -0.000015
     4  C   -0.000519   0.000006   0.000045  -0.000000   0.000000  -0.000000
     5  C    0.000008  -0.000000  -0.000000   0.000000   0.000000  -0.000000
     6  C    0.000003  -0.000000   0.000000   0.000000   0.000000  -0.000000
     7  H    0.000001   0.000001  -0.000000   0.000000   0.000001   0.000000
     8  H    0.000032   0.000001  -0.000006   0.000000   0.000000  -0.000000
     9  H   -0.000000   0.000000   0.000000  -0.000000  -0.000000   0.000000
    10  H   -0.000000  -0.000000   0.000000  -0.000000  -0.000000  -0.000000
    11  N   -0.025316   0.003357  -0.009290  -0.000078   0.000236  -0.000565
    12  S   -0.064502  -0.011127   0.004832   0.000256   0.008517  -0.000190
    13  C    5.375121   0.447732   0.226539  -0.007925  -0.038258  -0.040454
    14  C    0.447732   4.844297   0.003487   0.536594   0.397532  -0.057456
    15  C    0.226539   0.003487   4.744483  -0.055751   0.006335   0.482450
    16  C   -0.007925   0.536594  -0.055751   4.751263  -0.031497  -0.019913
    17  H   -0.038258   0.397532   0.006335  -0.031497   0.667564  -0.000710
    18  C   -0.040454  -0.057456   0.482450  -0.019913  -0.000710   4.853933
    19  C   -0.053320  -0.019811  -0.007792   0.486378   0.007998   0.511359
    20  H    0.008955  -0.035864  -0.000162   0.400604  -0.011968   0.008132
    21  H    0.014471  -0.000618  -0.024138   0.007429   0.000048   0.375037
    22  H   -0.001502   0.009709   0.008788  -0.045179  -0.000184  -0.040701
    23  C    0.362403  -0.090071  -0.077628   0.006306  -0.021811   0.008515
    24  O   -0.091400   0.005772   0.587491  -0.000090  -0.000068  -0.060345
    25  H   -0.025797  -0.000716  -0.022297   0.000030  -0.000053   0.003435
              19         20         21         22         23         24
     1  C   -0.000000  -0.000000  -0.000000   0.000000   0.003727   0.000002
     2  C    0.000000  -0.000000  -0.000000  -0.000000  -0.047244  -0.000124
     3  C    0.000001  -0.000000  -0.000000  -0.000000  -0.116017  -0.000998
     4  C    0.000000   0.000000  -0.000000  -0.000000   0.000761  -0.000031
     5  C   -0.000000  -0.000000  -0.000000   0.000000   0.000268   0.000000
     6  C    0.000000  -0.000000   0.000000  -0.000000  -0.000199  -0.000000
     7  H    0.000000   0.000000  -0.000000   0.000000   0.000180  -0.000000
     8  H    0.000000  -0.000000   0.000000  -0.000000  -0.000708  -0.000155
     9  H   -0.000000   0.000000  -0.000000   0.000000   0.000006   0.000000
    10  H   -0.000000   0.000000   0.000000  -0.000000   0.000005  -0.000000
    11  N    0.000040   0.000001   0.000017  -0.000000   0.529805  -0.074145
    12  S    0.000026   0.000009   0.000004  -0.000001   0.322351  -0.000248
    13  C   -0.053320   0.008955   0.014471  -0.001502   0.362403  -0.091400
    14  C   -0.019811  -0.035864  -0.000618   0.009709  -0.090071   0.005772
    15  C   -0.007792  -0.000162  -0.024138   0.008788  -0.077628   0.587491
    16  C    0.486378   0.400604   0.007429  -0.045179   0.006306  -0.000090
    17  H    0.007998  -0.011968   0.000048  -0.000184  -0.021811  -0.000068
    18  C    0.511359   0.008132   0.375037  -0.040701   0.008515  -0.060345
    19  C    4.731118  -0.046524  -0.045973   0.404254   0.000667   0.003547
    20  H   -0.046524   0.683409  -0.000148  -0.012239  -0.000393   0.000002
    21  H   -0.045973  -0.000148   0.672407  -0.012447  -0.000448   0.004093
    22  H    0.404254  -0.012239  -0.012447   0.669903   0.000001  -0.000067
    23  C    0.000667  -0.000393  -0.000448   0.000001   5.063865  -0.008148
    24  O    0.003547   0.000002   0.004093  -0.000067  -0.008148   7.841030
    25  H   -0.000314  -0.000001   0.000006   0.000008   0.002350   0.181351
              25
     1  C    0.000043
     2  C    0.005736
     3  C   -0.022372
     4  C   -0.001954
     5  C   -0.000051
     6  C    0.000003
     7  H    0.000003
     8  H    0.000846
     9  H   -0.000005
    10  H   -0.000000
    11  N    0.252571
    12  S    0.003502
    13  C   -0.025797
    14  C   -0.000716
    15  C   -0.022297
    16  C    0.000030
    17  H   -0.000053
    18  C    0.003435
    19  C   -0.000314
    20  H   -0.000001
    21  H    0.000006
    22  H    0.000008
    23  C    0.002350
    24  O    0.181351
    25  H    0.416078
 Mulliken charges:
               1
     1  C    0.017964
     2  C   -0.226924
     3  C    0.265443
     4  C   -0.019489
     5  C    0.006477
     6  C    0.000105
     7  H    0.024416
     8  H    0.029489
     9  H    0.025770
    10  H    0.025674
    11  N   -0.252835
    12  S    0.191049
    13  C   -0.097490
    14  C   -0.033278
    15  C    0.132378
    16  C   -0.028423
    17  H    0.016148
    18  C   -0.022518
    19  C    0.028347
    20  H    0.006189
    21  H    0.010260
    22  H    0.019657
    23  C    0.061459
    24  O   -0.387468
    25  H    0.207600
 Sum of Mulliken charges =  -0.00000
[...]
 037324,-0.00000071,-0.00000159,0.00260031,0.00000492,0.00000252,-0.051
 34331,-0.00000160,-0.00000015,-0.00477524,-0.00002797,-0.00002808,0.12
 781745,0.00028933,0.00001250,0.,-0.00076265,0.00023388,-0.00000014,0.0
 0040017,-0.00022740,0.00000001,-0.00004297,0.00013103,0.00000004,0.000
 06990,-0.00004365,0.,-0.00001302,-0.00006117,0.,-0.00002181,-0.0000067
 9,0.,0.00003642,0.00000397,0.,0.00001175,-0.00000350,0.,0.00003818,-0.
 00001077,0.,0.00040623,0.00088751,-0.00000006,-0.00091477,0.00152418,0
 .00000072,-0.00397422,-0.02886615,0.00000156,-0.08448661,-0.08458427,0
 .00000676,-0.00473130,0.00281574,0.00000017,0.01030409,0.02160284,-0.0
 0000146,0.08620045,0.00009800,-0.00002800,-0.00000001,-0.00022572,0.00
 064202,-0.00000004,0.00032197,0.00008283,0.00000002,0.00005840,0.00006
 701,0.00000003,0.00002329,0.00012141,0.00000001,-0.00013964,-0.0000728
 9,0.,-0.00001831,0.00001503,0.,0.00002626,-0.00000769,0.,-0.00000156,0
 .00000222,0.,0.00000596,0.00000203,0.,0.00013776,0.00061307,-0.0000001
 1,0.00064464,-0.00098474,-0.00000029,0.00111548,-0.00353828,0.00000044
 ,-0.08338126,-0.31551163,0.00001904,0.00032994,0.00222798,0.00000029,-
 0.01030279,-0.01735630,0.00000152,0.08766265,0.33509570,-0.00000009,0.
 00000003,-0.00004023,0.00000020,-0.00000005,-0.00050502,-0.00000011,-0
 .00000015,0.00040413,-0.00000012,0.,0.00012431,-0.00000002,-0.00000011
 ,-0.00000889,0.00000008,0.00000006,0.00002214,0.,0.,0.00001100,-0.0000
 0001,0.,0.00000894,0.,0.,-0.00000364,0.,0.,-0.00000081,-0.00000033,-0.
 00000045,-0.00220245,0.00000073,-0.00000069,0.00144041,0.00000009,0.00
 000151,0.00494584,0.00000772,0.00001982,-0.03297864,-0.00000003,0.0000
 0033,0.00830416,-0.00000017,0.00000065,0.00305239,-0.00000792,-0.00002
 064,0.02012612,-0.00077318,-0.00002176,-0.00000053,-0.00560368,-0.0033
 5917,-0.00000070,-0.00581401,0.01417787,0.00000145,0.00655898,-0.00179
 079,0.00000026,-0.00009694,0.00366604,0.00000024,-0.00016038,-0.002002
 61,-0.00000013,-0.00008512,0.00012127,0.,0.00003248,-0.00005885,-0.000
 00001,0.00007428,0.00003058,0.,0.00005725,-0.00005219,0.00000010,0.013
 23085,-0.00117741,-0.00000177,0.00007292,-0.00387508,0.00000020,0.0204
 5750,0.01949139,-0.00000240,-0.03451782,0.02196031,0.00000145,-0.16116
 878,0.08818710,-0.00000697,-0.00685748,-0.07651616,0.00000564,-0.00062
 258,-0.00011976,0.00000009,0.69614570,0.00047776,-0.00006242,0.0000001
 3,-0.00041122,-0.00039993,-0.00000004,0.00058396,-0.00034265,-0.000000
 11,-0.00066219,0.00021435,-0.00000002,0.00013547,-0.00030477,0.,-0.000
 15745,0.00005831,-0.00000002,-0.00001182,0.00002530,0.,-0.00001391,0.0
 0000271,0.,-0.00000329,-0.00000967,0.,0.00002403,0.00000013,-0.0000000
 3,0.00145492,0.00073775,0.00000068,0.00135737,-0.00178872,0.00000006,0
 .01913069,-0.03132583,0.00000152,0.00236467,-0.00050465,-0.00000066,0.
 10037799,-0.24325205,0.00001294,-0.03410889,-0.01118185,0.00000263,-0.
 00022656,0.00063802,-0.00000010,0.04279741,0.71688535,-0.00000002,-0.0
 0000019,0.00011436,0.00000019,0.00000006,0.00052844,-0.00000072,-0.000
 00088,0.00167661,-0.00000023,0.00000009,-0.00020060,-0.00000003,-0.000
 00010,-0.00007208,-0.00000003,0.00000003,-0.00010075,0.00000002,-0.000
 00003,0.00012245,0.,0.,0.00007633,0.,0.,0.00001130,0.,0.,-0.00005183,-
 0.00000104,-0.00000255,-0.00551492,0.00000005,0.00000055,0.00138694,-0
 .00000274,0.00000247,0.01212575,0.00000295,-0.00000180,-0.00379458,-0.
 00000749,0.00001151,-0.06504530,0.00000202,0.00000657,0.00580587,0.000
 00013,-0.00000012,-0.00133109,-0.00003413,-0.00005243,0.10787560,0.000
 52287,0.00100710,0.00000052,0.00808270,0.00418855,0.00000119,0.0092638
 4,-0.01827315,-0.00000099,-0.00885863,0.00246516,-0.00000043,0.0000502
 3,-0.00578243,-0.00000046,0.00149321,0.00290113,0.00000022,0.00003318,
 -0.00010620,0.00000005,0.00004519,0.00009286,0.00000008,-0.00005045,-0
 .00005557,0.00000003,-0.00001305,0.00005126,-0.00000011,-0.01685710,0.
 01292313,-0.00000007,0.00017167,0.00338390,-0.00000018,-0.01531154,-0.
 01700698,0.00000265,0.05972968,0.00244456,-0.00000288,-0.05671522,0.01
 697031,0.00000515,-0.14204382,-0.00245191,0.00000281,-0.00296496,0.004
 62515,-0.00000015,-0.33905498,-0.07705577,0.00001856,0.69434274,0.0000
 2115,0.00107432,0.00000027,0.00345840,0.00144424,0.00000020,0.00429999
 ,-0.00594964,-0.00000046,-0.00397945,0.00113999,-0.00000017,-0.0000486
 3,-0.00304216,-0.00000023,0.00138109,0.00100443,0.00000010,-0.00003857
 ,-0.00003442,0.00000001,0.00005157,0.00003519,0.00000003,0.00003404,-0
 .00006079,0.,0.00003507,0.00001702,-0.00000003,-0.00162259,0.00960288,
 0.00000180,-0.00188654,0.00111341,0.00000032,-0.02552804,-0.01246941,0
 .00000238,0.05224407,-0.05819080,0.00000134,0.00176049,0.02511856,-0.0
 0000090,-0.09108105,-0.29599925,0.00001695,0.00336640,-0.00069154,0.00
 000001,-0.02221574,-0.12979212,0.00000695,-0.05305387,0.68315680,-0.00
 000006,-0.00000006,0.00016107,-0.00000066,-0.00000029,-0.00045813,-0.0
 0000060,0.00000152,-0.00115137,0.00000075,-0.00000022,0.00008429,0.000
 00002,0.00000048,0.00009186,-0.00000012,-0.00000019,0.00001130,0.,0.00
 000002,-0.00005304,0.,0.,-0.00011446,0.,0.,0.00000133,0.,0.,0.00000906
 ,0.00000124,-0.00000100,0.00175765,0.00000002,-0.00000060,0.00051978,0
 .00000259,0.00000136,-0.00166702,-0.00000563,0.00000387,0.00872238,0.0
 0000306,-0.00000336,0.00253522,0.00000860,0.00001358,-0.05956874,0.000
 00011,0.,0.00412792,0.00001482,0.00001049,-0.04908035,-0.00002196,-0.0
 0003407,0.11264725,0.00005421,-0.00010273,0.,-0.00010480,0.00011928,0.
 ,-0.00002439,-0.00008344,0.,0.00001949,0.00002483,0.,0.00000816,0.0000
 9308,0.,-0.00014037,0.00000240,0.,0.00000656,0.00000600,0.,-0.00000276
 ,-0.00000582,0.,-0.00001122,0.00000757,0.,-0.00000891,0.00000546,0.,-0
 .00018301,0.00044117,0.,0.00007728,-0.00002218,-0.00000001,-0.00022436
 ,0.00358896,0.00000005,-0.01521140,-0.00862848,0.00000131,0.00055092,0
 .00038020,-0.00000012,-0.33122517,-0.06670895,0.00001611,0.00077190,0.
 00007995,-0.00000012,0.00156024,-0.00132744,0.00000027,-0.00389921,0.0
 0197616,0.00000032,0.34837323,0.00001693,-0.00001505,0.,-0.00009702,-0
 .00009287,0.,0.00000535,0.00025598,0.00000005,0.00008289,-0.00006761,0
 .,0.00001516,0.00007103,0.,-0.00003179,-0.00003687,0.,0.00000075,-0.00
 000056,0.,-0.00000122,-0.00000065,0.,0.00000146,-0.00000273,0.,0.00000
 111,-0.00000091,0.,0.00039206,-0.00038710,-0.00000007,0.00003607,0.000
 01273,0.00000001,0.00358117,-0.00364541,0.00000026,0.02213526,0.008895
 16,-0.00000108,0.00068636,-0.00088139,-0.00000006,-0.06705412,-0.07569
 761,0.00000467,-0.00019783,0.00083543,-0.00000019,-0.00057023,-0.00544
 184,0.00000067,-0.02920272,-0.00070334,0.00000160,0.07115063,0.0747792
 4,0.,0.00000001,-0.00002408,0.00000004,0.,0.00006532,-0.00000004,-0.00
 000007,0.00046532,-0.00000004,0.,0.00010013,-0.00000001,-0.00000003,-0
 .00006151,0.00000002,0.,0.00001140,0.,0.,0.00000954,0.,0.,0.00003520,0
 .,0.,-0.00002242,0.,0.,-0.00000314,0.00000008,0.00000004,-0.00026948,0
 .,0.00000005,-0.00019802,0.00000026,0.00000049,0.00510549,-0.00000041,
 0.00000038,0.00626883,-0.00000024,-0.00000030,-0.00140554,0.00001581,0
 .00000458,-0.03695429,-0.00000013,-0.00000018,-0.00284493,0.00000019,0
 .00000063,0.00586646,0.00000199,0.00000048,0.00637970,-0.00001765,-0.0
 0000571,0.02243082,-0.00010056,0.00002941,-0.00000001,0.00009203,0.000
 04898,-0.00000001,-0.00013835,0.00007139,0.00000002,0.00004421,-0.0000
 0751,0.,-0.00001846,-0.00001402,0.,0.00006316,0.00000444,0.,0.00000152
 ,-0.00000565,0.,-0.00000421,0.00000144,0.,0.00000246,-0.00000081,0.,-0
 .00000319,-0.00000140,0.,0.00029137,-0.00045997,0.00000003,-0.00029016
 ,0.00016117,-0.00000004,-0.00391430,0.00295952,0.00000022,0.00007354,0
 .00019609,0.00000002,0.00878095,0.02185013,-0.00000225,-0.00571695,0.0
 0021859,0.00000066,0.00011359,-0.00008437,-0.00000004,-0.08231277,-0.0
 8414629,0.00001006,-0.00195369,-0.02858961,0.00000266,-0.00030552,-0.0
 0141831,0.00000001,0.08118377,0.00005668,0.00004107,-0.00000003,-0.000
 12287,-0.00008435,0.,0.00009168,0.00007140,0.,0.00000380,-0.00000778,0
 .,0.00000219,-0.00002380,0.,0.00003436,-0.00002520,0.,-0.00000614,0.00
 000381,0.,0.00000705,0.00000214,0.,0.00000691,-0.00000245,0.,0.0000093
 6,-0.00000314,0.,-0.00020791,0.00031126,0.,0.00022185,-0.00020896,-0.0
 0000004,0.00401637,-0.00160291,0.00000027,0.00012365,0.00033506,-0.000
 00010,-0.01157430,-0.01714766,0.00000239,-0.00066407,0.00122846,0.0000
 0064,-0.00006227,-0.00009051,0.,-0.08199373,-0.32326317,0.00002977,0.0
 0228386,-0.00101234,0.00000039,0.00006341,-0.00017448,-0.00000006,0.08
 949649,0.33886883,-0.00000002,0.00000008,-0.00031554,0.00000024,0.0000
 0007,-0.00016692,0.00000023,-0.00000028,0.00018957,-0.00000016,0.00000
 005,0.00000303,-0.00000001,-0.00000012,-0.00004690,0.00000006,0.000000
 04,0.00005699,0.,0.,-0.00001802,0.,0.,0.00004210,0.,0.,-0.00000392,0.,
 0.,0.00005735,-0.00000017,0.00000064,0.00035309,-0.00000011,0.00000015
 ,-0.00057306,-0.00000040,-0.00000004,0.00349353,0.00000032,-0.00000028
 ,-0.00032013,0.00000138,0.00000122,0.00360601,0.00000057,0.00000074,0.
 00620711,0.,0.00000003,-0.00020657,0.00001045,0.00002998,-0.03201193,-
 0.00000062,0.00000135,0.00417380,0.,0.00000009,-0.00047132,-0.00001071
 ,-0.00003256,0.02168572,0.00004898,-0.00004465,0.,-0.00007168,0.000100
 97,0.,0.00016209,-0.00000867,0.00000002,-0.00000874,0.00000687,0.,0.00
 001168,0.00004841,0.,-0.00007983,-0.00000735,0.,0.00000074,0.00000527,
 0.,0.00000216,-0.00000545,0.,-0.00000702,0.00000324,0.,-0.00000400,0.0
 0000412,0.,0.00014398,0.00070105,0.,-0.00002965,0.00009616,0.00000003,
 -0.00005854,-0.00067526,0.00000001,0.00014970,-0.00228688,0.00000026,-
 0.00282959,-0.00377385,0.00000075,0.00917567,-0.00924555,0.00000025,0.
 00032434,-0.00038330,0.00000004,-0.01486973,0.02412515,-0.00000104,-0.
 19877744,0.14561899,-0.00000261,0.00068672,0.00031631,-0.00000014,0.00
 107335,-0.00024094,-0.00000022,0.20722295,-0.00001362,0.00010395,0.000
 00002,0.00028450,0.00014529,0.00000005,0.00032337,-0.00057686,0.,-0.00
 029790,0.00009113,-0.00000001,-0.00000594,-0.00025914,-0.00000002,0.00
 014775,0.00009549,0.,-0.00000670,-0.00000604,0.,0.00000837,0.00000745,
 0.,0.00000695,-0.00000531,0.,0.00000772,-0.00000290,0.,-0.00049776,0.0
 0036835,-0.00000005,-0.00011015,0.00011142,-0.00000002,-0.00098101,0.0
 0020650,0.,-0.00252806,-0.00433046,0.00000068,-0.00244334,-0.00030118,
 0.00000065,0.02294227,-0.01497119,0.00000020,0.00104937,-0.00099182,0.
 00000001,-0.00765913,0.00881660,-0.00000014,0.14456547,-0.20709238,0.0
 0000585,-0.00015090,0.00100528,-0.00000029,0.00031951,0.00064020,-0.00
 000032,-0.15490181,0.21639413,0.,-0.00000001,0.00001014,-0.00000007,-0
 .00000003,0.00007359,-0.00000004,0.00000017,0.00000520,0.00000008,-0.0
 0000003,0.00001715,0.,0.00000006,0.00000278,-0.00000003,-0.00000002,-0
 .00000099,0.,0.,0.00000031,0.,0.,0.00001327,0.,0.,-0.00000017,0.,0.,-0
 .00001303,0.00000013,-0.00000006,0.00008989,0.00000001,0.,-0.00022543,
 0.00000018,0.00000019,-0.00128325,-0.00000016,0.00000082,0.00520841,0.
 00000104,0.00000040,0.00680999,-0.00000162,0.00000062,0.00245209,-0.00
 000004,0.00000013,0.00087638,0.00000095,-0.00000132,0.00371311,-0.0000
 0243,0.00000653,-0.03224109,-0.00000017,-0.00000025,-0.00359956,-0.000
 00025,-0.00000046,-0.00372894,0.00000262,-0.00000654,0.02254702,-0.003
 16340,-0.00721133,-0.00000046,-0.01208403,0.01942164,-0.00000035,-0.07
 441245,0.04736888,0.00000078,0.01165826,-0.00376608,0.00000054,-0.0008
 3366,0.00852827,0.00000060,-0.00687455,-0.00275423,-0.00000029,0.00037
 565,-0.00055319,-0.00000013,-0.00067103,-0.00015687,-0.00000001,0.0000
 3394,0.00004041,0.,-0.00066772,-0.00004707,-0.00000007,-0.34794662,-0.
 05885707,-0.00002049,-0.04756905,-0.04803270,-0.00000232,-0.20495396,0
 .11000879,-0.00000339,-0.04339921,0.03337012,0.00000046,0.03234675,0.0
 1557442,-0.00000332,-0.00266557,-0.01186066,0.00000068,0.00035750,0.00
 024036,0.00000041,-0.00465797,-0.00709171,0.00000369,0.00227029,0.0022
 9382,-0.00000118,-0.00069860,0.00055775,0.00000007,0.00081620,-0.00099
 060,-0.00000007,-0.00013773,0.00016626,-0.00000007,0.72066737,-0.00070
 644,0.00178400,0.00000013,0.03258949,-0.02371262,-0.00000099,0.0271093
 1,0.00412957,0.00000297,-0.00077388,-0.00680362,-0.00000117,-0.0008118
 2,-0.00279327,-0.00000047,0.00279930,-0.00023869,-0.00000003,-0.000036
 59,-0.00061708,0.,-0.00041288,0.00023100,0.00000019,0.00036627,-0.0005
 5962,0.00000007,-0.00014558,0.00001576,-0.00000001,-0.04804853,-0.1134
 9556,-0.00000692,-0.01999370,-0.15220706,-0.00000830,0.09256542,-0.207
 11380,0.00000094,0.01942602,0.01350658,-0.00000046,0.02283486,-0.05029
 109,0.00000123,-0.00527763,0.00041255,0.00000061,-0.00196134,0.0000801
 9,-0.00000036,-0.01476441,-0.00088491,-0.00000016,0.00780480,0.0021119
 8,-0.00000058,-0.00079658,0.00111604,0.00000001,0.00056239,-0.00044740
 ,0.00000047,0.00010710,0.00025989,-0.00000007,-0.08731467,0.54213697,0
 .00000012,-0.00000009,0.00134815,0.00000227,-0.00000128,-0.00048452,-0
 .00000025,0.00000050,0.00678973,-0.00000045,-0.00000076,0.00275805,0.0
 0000005,-0.00000007,0.00105525,-0.00000030,-0.00000006,0.00086483,0.,-
 0.00000003,-0.00046071,0.,0.00000006,-0.00062925,0.00000004,0.,-0.0005
 4136,0.,0.,-0.00022437,-0.00001837,-0.00000783,-0.03411167,-0.00000157
 ,-0.00000794,-0.01985665,-0.00000200,0.00000121,-0.03580438,0.00000323
 ,-0.00000070,0.00912433,-0.00000318,0.00000092,0.00510480,-0.00000062,
 0.00000215,0.00323832,-0.00000004,-0.00000015,-0.00196872,0.00000111,-
 0.00000010,-0.00004425,-0.00000041,-0.00000169,-0.00089200,-0.00000004
 ,0.,-0.00096782,0.00000003,0.00000023,0.00177180,-0.00000006,0.,-0.000
 01365,0.00002495,0.00001914,0.06216965,0.00030634,0.00139043,-0.000000
 04,-0.00014790,0.00336593,0.00000078,0.01143862,-0.00149328,-0.0000000
 6,-0.00085222,0.00029085,-0.00000009,-0.00026629,-0.00133539,-0.000000
 14,0.00135906,0.00047607,0.00000007,-0.00019874,0.00024541,0.,0.000248
 89,-0.00003479,0.,-0.00002065,0.00006507,0.00000004,0.00004477,0.00003
 698,0.00000004,-0.00379939,0.04806404,-0.00000167,0.00020466,0.0018419
 1,-0.00000013,-0.03724351,-0.03577128,0.00000884,0.01303552,-0.0064134
 1,0.00000065,-0.41597492,-0.08544781,0.00005009,-0.01187033,0.00236096
 ,0.00000044,-0.00124796,-0.00108496,0.00000008,-0.08260239,0.01323334,
 0.00001098,0.00874711,0.00814175,-0.00000119,-0.00016115,-0.00042333,0
 .00000013,0.00238558,-0.00065471,-0.00000098,-0.00240265,-0.00023129,-
 0.00000023,-0.01265373,0.00235172,0.00000035,0.53038873,-0.00091660,-0
 .00070493,-0.00000007,0.00004717,-0.00464053,-0.00000092,-0.01367162,0
 .00192041,0.00000070,0.00177814,-0.00091725,0.00000013,0.00013758,0.00
 145813,0.00000013,-0.00030773,-0.00100416,-0.00000009,0.00014695,-0.00
 031283,-0.00000004,0.00007545,0.00012917,0.00000002,0.00015945,-0.0001
 1785,-0.00000002,0.00004104,-0.00007845,-0.00000002,0.02644056,-0.0588
 3335,0.00000642,0.00017584,-0.00103964,-0.00000020,-0.03968815,-0.0176
 1309,0.00000913,-0.00551756,-0.00831314,0.00000032,-0.08535119,-0.1201
 7539,0.00002117,0.00128402,-0.00676201,0.00000051,-0.00202227,-0.00031
 975,-0.00000045,0.03133489,0.02267731,-0.00000488,0.00526427,-0.000413
 38,0.,-0.00007546,0.00036134,0.,-0.00185489,0.00294708,-0.00000042,0.0
 0154690,0.00056458,-0.00000011,0.00494740,0.01137134,-0.00000061,0.101
 23922,0.16531014,0.00000056,0.00000030,0.00031911,0.00000049,0.0000021
 9,-0.00047162,0.00000657,-0.00000202,-0.00065451,-0.00000136,0.0000004
 5,0.00019403,-0.00000002,-0.00000090,0.00017079,0.00000006,0.00000061,
 0.00004808,-0.00000007,0.00000013,-0.00011782,0.,-0.00000005,-0.000173
 39,-0.00000008,0.00000005,-0.00002343,-0.00000002,0.00000005,-0.000066
 76,-0.00000936,0.00002054,0.01373781,0.00000030,0.00000138,-0.00127683
 ,0.00000744,0.00000609,0.01590088,-0.00000036,0.00000164,0.00219665,0.
 00005308,0.00002468,-0.05651220,0.00000211,0.00000116,0.00015009,0.000
 00004,-0.00000012,-0.00198566,0.00000669,-0.00000542,0.01470798,-0.000
 00302,-0.00000075,0.00394452,0.00000003,-0.00000001,0.00007608,-0.0000
 0023,-0.00000048,-0.00344086,-0.00000018,-0.00000012,-0.00049556,-0.00
 000290,-0.00000153,-0.00299059,-0.00007377,-0.00002569,0.03641878,0.00
 036798,-0.00025553,-0.00000010,-0.00418324,-0.00026915,-0.00000014,0.0
 0139195,0.01094905,0.00000232,0.00194606,-0.00043479,0.00000003,0.0000
 3541,0.00099126,0.00000001,-0.00046946,-0.00047115,-0.00000006,-0.0000
 0181,0.00010266,0.00000001,-0.00050147,-0.00016266,0.,0.00003167,-0.00
 002001,0.,-0.00001083,-0.00006237,0.,-0.05976259,-0.02849089,-0.000006
 26,-0.00357430,-0.00567995,0.00000024,0.00342647,-0.00308395,0.0000009
 4,-0.00483854,0.00125899,-0.00000031,-0.02290344,0.00788584,-0.0000019
 9,0.00220613,-0.00427780,0.00000024,0.00045901,0.00037188,-0.00000033,
 0.00100760,-0.00084623,-0.00000144,0.00174738,0.00336106,-0.00000017,0
 .00009217,0.00001733,0.00000004,-0.00016356,0.00009987,0.00000022,0.00
 027422,0.00000609,0.00000010,-0.00513670,-0.02747264,-0.00000487,0.001
 28253,-0.02521342,0.00001400,0.08727737,0.00159212,0.00102676,-0.00000
 014,0.00293816,0.00951482,0.00000048,0.02440466,-0.01039539,0.00000148
 ,-0.00511081,0.00303460,-0.00000009,-0.00071301,-0.00388639,-0.0000003
 3,0.00086023,0.00206020,0.00000026,-0.00020981,0.00045149,0.,0.0002076
 1,-0.00035028,0.,-0.00029244,0.00024496,0.00000003,-0.00008883,0.00017
 789,0.00000002,-0.04632322,-0.10861523,-0.00001730,0.00285657,0.011103
 29,-0.00000025,-0.01889330,0.01169034,-0.00000191,0.01921206,-0.006262
 38,0.00000091,0.03501615,0.01383532,-0.00000957,-0.00798781,0.01741192
 ,-0.00000095,-0.00101609,-0.00082980,0.00000078,-0.00558983,-0.0015012
 5,0.00000460,-0.00798293,-0.01036727,0.00000125,-0.00003710,-0.0001838
 2,-0.00000004,0.00066329,-0.00035514,-0.00000089,-0.00110682,-0.000272
 99,-0.00000005,-0.01388195,-0.01799114,-0.00000291,-0.05021343,0.01450
 627,-0.00002216,0.07169653,0.07595322,0.00000002,-0.00000019,0.0007582
 2,-0.00000062,-0.00000037,0.00211737,-0.00000300,0.00000327,-0.0080466
 9,0.00000095,-0.00000028,-0.00074193,0.00000006,0.00000070,-0.00010112
 ,-0.00000035,-0.00000025,-0.00011892,0.00000003,-0.00000002,-0.0000085
 4,0.00000006,-0.00000004,-0.00003970,0.00000002,0.,0.00007256,0.000000
 01,-0.00000002,0.00003819,-0.00000411,-0.00003674,-0.02928481,-0.00000
 005,-0.00000040,0.00191888,0.00000017,0.00000057,-0.00380298,0.0000000
 3,0.00000065,0.00023526,-0.00000320,-0.00000466,0.00074012,-0.00000003
 ,-0.00000026,-0.00028434,0.00000027,0.00000015,0.00063292,0.00000302,0
 .00000118,0.00323651,0.00000046,-0.00000044,0.00005906,0.00000004,0.00
 000004,0.00000783,-0.00000017,0.00000004,-0.00033599,0.00000025,0.0000
 0004,-0.00021764,0.00000287,-0.00000472,0.00476502,0.00000580,-0.00000
 502,-0.01965557,-0.00000252,0.00004678,0.04805630\\-0.00150018,-0.0028
 5957,-0.00000038,-0.00406876,-0.00566108,-0.00000070,-0.00712327,0.000
 36395,-0.00000302,0.00112268,-0.00181317,0.00000024,0.00004581,0.00132
 513,-0.00000015,-0.00160686,-0.00161490,-0.00000038,0.00004618,-0.0003
 5318,0.00000025,-0.00013194,-0.00001291,0.00000018,0.00000653,-0.00010
 409,0.00000006,-0.00008228,-0.00012015,0.00000017,0.01122549,-0.006703
 50,-0.00001512,-0.00213043,-0.00495206,0.00000217,0.00658325,-0.003691
 93,-0.00000378,-0.00575507,0.00017384,-0.00000142,-0.01113234,-0.00205
 061,0.00001348,0.00213755,-0.00659143,0.00000089,-0.00007941,-0.000079
 81,0.00000027,0.00204678,-0.00033990,-0.00000337,0.00356874,0.00010742
 ,0.00000051,0.00011250,-0.00016557,-0.00000004,0.00008112,-0.00000404,
 0.00000014,0.00029577,0.00001039,-0.00000021,0.00700482,0.00469427,0.0
 0000106,0.00569678,0.00911796,-0.00001946,-0.00636348,0.02132493,0.000
 02861\\\@
 The archive entry for this job was punched.


 A MAN IS NEVER SO BRILLIANT AS WHEN HE TAKES THE WORDS RIGHT OUT
 OF YOUR MOUTH. -- ARNOT SHEPPARD, JR.
 Job cpu time:       0 days  2 hours 53 minutes 49.1 seconds.
 Elapsed time:       0 days  0 hours 17 minutes 53.4 seconds.
 File lengths (MBytes):  RWF=   1376 Int=      0 D2E=      0 Chk=     48 Scr=      8
 Normal termination of Gaussian 16 at Mon Jul 13 15:37:35 2020.
