 Entering Gaussian System, Link 0=g16
 Initial command:
 /gpfs/loomis/apps/avx/software/Gaussian/16-C.01_AVX/g16/l1.exe "/home/fas/batista/pev4/scratch60/gauss-scratch/Gau-150110.inp" -scrdir="/home/fas/batista/pev4/scratch60/gauss-scratch/"
 Entering Link 1 = /gpfs/loomis/apps/avx/software/Gaussian/16-C.01_AVX/g16/l1.exe PID=    150111.
  
 Copyright (c) 1988-2019, Gaussian, Inc.  All Rights Reserved.
  
 This is part of the Gaussian(R) 16 program.  It is based on
 the Gaussian(R) 09 system (copyright 2009, Gaussian, Inc.),
 the Gaussian(R) 03 system (copyright 2003, Gaussian, Inc.),
 the Gaussian(R) 98 system (copyright 1998, Gaussian, Inc.),
 the Gaussian(R) 94 system (copyright 1995, Gaussian, Inc.),
 the Gaussian 92(TM) system (copyright 1992, Gaussian, Inc.),
 the Gaussian 90(TM) system (copyright 1990, Gaussian, Inc.),
 the Gaussian 88(TM) system (copyright 1988, Gaussian, Inc.),
 the Gaussian 86(TM) system (copyright 1986, Carnegie Mellon
 University), and the Gaussian 82(TM) system (copyright 1983,
 Carnegie Mellon University). Gaussian is a federally registered
 trademark of Gaussian, Inc.
  
 This software contains proprietary and confidential information,
 including trade secrets, belonging to Gaussian, Inc.
  
 This software is provided under written license and may be
 used, copied, transmitted, or stored only in accord with that
 written license.
  
 The following legend is applicable only to US Government
 contracts under FAR:
  
                    RESTRICTED RIGHTS LEGEND
  
 Use, reproduction and disclosure by the US Government is
 subject to restrictions as set forth in subparagraphs (a)
 and (c) of the Commercial Computer Software - Restricted
 Rights clause in FAR 52.227-19.
  
 Gaussian, Inc.
 340 Quinnipiac St., Bldg. 40, Wallingford CT 06492
  
  
 ---------------------------------------------------------------
 Warning -- This program may not be used in any manner that
 competes with the business of Gaussian, Inc. or will provide
 assistance to any competitor of Gaussian, Inc.  The licensee
 of this program is prohibited from giving any competitor of
 Gaussian, Inc. access to this program.  By using this program,
 the user acknowledges that Gaussian, Inc. is engaged in the
 business of creating and licensing software in the field of
 computational chemistry and represents and warrants to the
 licensee that it is not a competitor of Gaussian, Inc. and that
 it will not use this program in any manner prohibited above.
 ---------------------------------------------------------------
  

 Cite this work as:
 Gaussian 16, Revision C.01,
 M. J. Frisch, G. W. Trucks, H. B. Schlegel, G. E. Scuseria, 
 M. A. Robb, J. R. Cheeseman, G. Scalmani, V. Barone, 
 G. A. Petersson, H. Nakatsuji, X. Li, M. Caricato, A. V. Marenich, 
 J. Bloino, B. G. Janesko, R. Gomperts, B. Mennucci, H. P. Hratchian, 
 J. V. Ortiz, A. F. Izmaylov, J. L. Sonnenberg, D. Williams-Young, 
 F. Ding, F. Lipparini, F. Egidi, J. Goings, B. Peng, A. Petrone, 
 T. Henderson, D. Ranasinghe, V. G. Zakrzewski, J. Gao, N. Rega, 
 G. Zheng, W. Liang, M. Hada, M. Ehara, K. Toyota, R. Fukuda, 
 J. Hasegawa, M. Ishida, T. Nakajima, Y. Honda, O. Kitao, H. Nakai, 
 T. Vreven, K. Throssell, J. A. Montgomery, Jr., J. E. Peralta, 
 F. Ogliaro, M. J. Bearpark, J. J. Heyd, E. N. Brothers, K. N. Kudin, 
 V. N. Staroverov, T. A. Keith, R. Kobayashi, J. Normand, 
 K. Raghavachari, A. P. Rendell, J. C. Burant, S. S. Iyengar, 
 J. Tomasi, M. Cossi, J. M. Millam, M. Klene, C. Adamo, R. Cammi, 
 J. W. Ochterski, R. L. Martin, K. Morokuma, O. Farkas, 
 J. B. Foresman, and D. J. Fox, Gaussian, Inc., Wallingford CT, 2019.
 
 ******************************************
 Gaussian 16:  ES64L-G16RevC.01  3-Jul-2019
                13-Jul-2020 
 ******************************************
 %chk=config_5_14.chk
 %mem=58GB
 %nprocshared=10
 Will use up to   10 processors via shared memory.
 ----------------------------------------------------------------------
 #p opt=addgic freq td wb97xd/cc-pvdz nosymm int=ultrafine scrf=(solven
 t=CarbonTetraChloride)
 ----------------------------------------------------------------------
 1/18=20,19=15,26=6,38=1,145=903/1,3;
 2/9=110,12=2,15=1,17=6,18=5,40=1/2;
 3/5=16,11=9,25=1,30=1,70=2201,71=1,72=11,74=-58,75=-5/1,2,3,8;
 4//1;
 5/5=2,38=5,53=11/2;
 8/6=1,10=1/1;
 9/15=2,42=1,70=2/14;
 10/5=4,31=1/2;
 6/7=2,8=2,9=2,10=2/1;
 7/12=6,13=5,30=1/1,2,3,16;
 1/18=20,19=15,26=6,145=903/3(2);
 2/9=110,15=1/2;
 99//99;
 2/9=110,15=1/2;
 3/5=16,11=9,25=1,30=1,70=2205,71=1,72=11,74=-58,75=-5/1,2,3,8;
 4/5=5,16=3,69=1/1;
 5/5=2,38=5,53=11/2;
 8/6=1,10=1/1;
 9/15=2,42=1,49=4,70=2/14;
 10/5=4,31=1/2;
 7/12=6,13=5,30=1/1,2,3,16;
 1/18=20,19=15,26=6,145=903/3(-8);
 2/9=110,15=1/2;
 6/7=2,8=2,9=2,10=2/1;
 99/9=10/99;
 Leave Link    1 at Mon Jul 13 13:28:21 2020, MaxMem=  7784628224 cpu:               4.7 elap:               0.5
 (Enter /gpfs/loomis/apps/avx/software/Gaussian/16-C.01_AVX/g16/l101.exe)
 ------------------------------------------------
 NM 2D-scan of HBT TD-WB97XD pVDZ in CTC Relaxed.
 ------------------------------------------------
 Symbolic Z-matrix:
 Charge =  0 Multiplicity = 1
 C                     1.57572  -3.25709  -0.00002 
 C                     0.99773  -1.99024  -0.00002 
 C                     1.76519  -0.78465  -0.00003 
 C                     3.17874  -0.90662  -0.00003 
 C                     3.748    -2.17637  -0.00002 
 C                     2.96597  -3.34832  -0.00002 
 H                     0.94853  -4.15278  -0.00001 
 H                     3.80277  -0.00865  -0.00003 
 H                     4.83778  -2.26682  -0.00002 
 H                     3.44849  -4.32848  -0.00001 
 N                     1.01055   0.34665  -0.00003 
 S                    -0.70957  -1.63847  -0.00002 
 C                    -1.33      1.05485   0.00001 
 C                    -2.70843   0.75693   0.00002 
 C                    -0.90747   2.46222   0.00003 
 C                    -3.65096   1.78695   0.00003 
 H                    -3.03863  -0.28547   0.00001 
 C                    -1.89192   3.47737   0.00004 
 C                    -3.25019   3.1416    0.00004 
 H                    -4.71519   1.53906   0.00003 
 H                    -1.5585    4.5184    0.00006 
 H                    -4.00638   3.92947   0.00005 
 C                    -0.32354   0.06967  -0.00002 
 O                     0.36673   2.7135    0.00005 
 H                     0.91959   1.74323   0.00002 
 
 Initializing the GIC definitions file.
 Number of initial coordinates =   131
 Number of input entries/lines =    52
 Number of additional coordinates =     2
 Number of removed coordinates =     0
 Number of frozen coordinates =     2
 Number of final active and frozen coordinates =   133
 ITRead=  0  0  0  0  0  0  0  0  0  0  0  0  0  0  0  0  0  0  0  0
 ITRead=  0  0  0  0  0
 MicOpt= -1 -1 -1 -1 -1 -1 -1 -1 -1 -1 -1 -1 -1 -1 -1 -1 -1 -1 -1 -1
 MicOpt= -1 -1 -1 -1 -1
 NAtoms=     25 NQM=       25 NQMF=       0 NMMI=      0 NMMIF=      0
                NMic=       0 NMicF=      0.
                    Isotopes and Nuclear Properties:
 (Nuclear quadrupole moments (NQMom) in fm**2, nuclear magnetic moments (NMagM)
  in nuclear magnetons)

  Atom         1           2           3           4           5           6           7           8           9          10
 IAtWgt=          12          12          12          12          12          12           1           1           1           1
 AtmWgt=  12.0000000  12.0000000  12.0000000  12.0000000  12.0000000  12.0000000   1.0078250   1.0078250   1.0078250   1.0078250
 NucSpn=           0           0           0           0           0           0           1           1           1           1
 AtZEff=  -0.0000000  -0.0000000  -0.0000000  -0.0000000  -0.0000000  -0.0000000  -0.0000000  -0.0000000  -0.0000000  -0.0000000
 NQMom=    0.0000000   0.0000000   0.0000000   0.0000000   0.0000000   0.0000000   0.0000000   0.0000000   0.0000000   0.0000000
 NMagM=    0.0000000   0.0000000   0.0000000   0.0000000   0.0000000   0.0000000   2.7928460   2.7928460   2.7928460   2.7928460
 AtZNuc=   6.0000000   6.0000000   6.0000000   6.0000000   6.0000000   6.0000000   1.0000000   1.0000000   1.0000000   1.0000000

  Atom        11          12          13          14          15          16          17          18          19          20
 IAtWgt=          14          32          12          12          12          12           1          12          12           1
 AtmWgt=  14.0030740  31.9720718  12.0000000  12.0000000  12.0000000  12.0000000   1.0078250  12.0000000  12.0000000   1.0078250
 NucSpn=           2           0           0           0           0           0           1           0           0           1
 AtZEff=  -0.0000000  -0.0000000  -0.0000000  -0.0000000  -0.0000000  -0.0000000  -0.0000000  -0.0000000  -0.0000000  -0.0000000
 NQMom=    2.0440000   0.0000000   0.0000000   0.0000000   0.0000000   0.0000000   0.0000000   0.0000000   0.0000000   0.0000000
 NMagM=    0.4037610   0.0000000   0.0000000   0.0000000   0.0000000   0.0000000   2.7928460   0.0000000   0.0000000   2.7928460
 AtZNuc=   7.0000000  16.0000000   6.0000000   6.0000000   6.0000000   6.0000000   1.0000000   6.0000000   6.0000000   1.0000000

  Atom        21          22          23          24          25
 IAtWgt=           1           1          12          16           1
 AtmWgt=   1.0078250   1.0078250  12.0000000  15.9949146   1.0078250
 NucSpn=           1           1           0           0           1
 AtZEff=  -0.0000000  -0.0000000  -0.0000000  -0.0000000  -0.0000000
 NQMom=    0.0000000   0.0000000   0.0000000   0.0000000   0.0000000
 NMagM=    2.7928460   2.7928460   0.0000000   0.0000000   2.7928460
 AtZNuc=   1.0000000   1.0000000   6.0000000   8.0000000   1.0000000
 Leave Link  101 at Mon Jul 13 13:28:24 2020, MaxMem=  7784628224 cpu:              25.7 elap:               3.3
 (Enter /gpfs/loomis/apps/avx/software/Gaussian/16-C.01_AVX/g16/l103.exe)

 GradGradGradGradGradGradGradGradGradGradGradGradGradGradGradGradGradGrad
 Berny optimization.
 Initialization pass.
                           ----------------------------
                           !    Initial Parameters    !
                           ! (Angstroms and Degrees)  !
 --------------------------                            --------------------------
 ! Name  Definition              Value          Derivative Info.                !
 --------------------------------------------------------------------------------
 ! R1    R(1,2)                  1.3925         estimate D2E/DX2                !
 ! R2    R(1,6)                  1.3932         estimate D2E/DX2                !
 ! R3    R(1,7)                  1.0934         estimate D2E/DX2                !
 ! R4    R(2,3)                  1.4291         estimate D2E/DX2                !
 ! R5    R(2,12)                 1.7432         estimate D2E/DX2                !
 ! R6    R(3,4)                  1.4188         estimate D2E/DX2                !
 ! R7    R(3,11)                 1.3599         estimate D2E/DX2                !
 ! R8    R(4,5)                  1.3915         estimate D2E/DX2                !
 ! R9    R(4,8)                  1.0935         estimate D2E/DX2                !
 ! R10   R(5,6)                  1.4089         estimate D2E/DX2                !
 ! R11   R(5,9)                  1.0935         estimate D2E/DX2                !
 ! R12   R(6,10)                 1.0925         estimate D2E/DX2                !
 ! R13   R(11,23)                1.3625         estimate D2E/DX2                !
 ! R14   R(12,23)                1.7512         estimate D2E/DX2                !
 ! R15   R(13,14)                1.4103         estimate D2E/DX2                !
 ! R16   R(13,15)                1.4694         estimate D2E/DX2                !
 ! R17   R(13,23)                1.4084         estimate D2E/DX2                !
 ! R18   R(14,16)                1.3962         estimate D2E/DX2                !
 ! R19   R(14,17)                1.0934         estimate D2E/DX2                !
 ! R20   R(15,18)                1.4141         estimate D2E/DX2                !
 ! R21   R(15,24)                1.2987         estimate D2E/DX2                !
 ! R22   R(16,19)                1.4127         estimate D2E/DX2                !
 ! R23   R(16,20)                1.0927         estimate D2E/DX2                !
 ! R24   R(18,19)                1.3992         estimate D2E/DX2                !
 ! R25   R(18,21)                1.0931         estimate D2E/DX2                !
 ! R26   R(19,22)                1.092          estimate D2E/DX2                !
 ! R27   R(24,25)                1.1167         estimate D2E/DX2                !
 ! A1    A(2,1,6)              118.2785         estimate D2E/DX2                !
 ! A2    A(2,1,7)              120.475          estimate D2E/DX2                !
 ! A3    A(6,1,7)              121.2464         estimate D2E/DX2                !
 ! A4    A(1,2,3)              122.9956         estimate D2E/DX2                !
 ! A5    A(1,2,12)             126.1662         estimate D2E/DX2                !
 ! A6    A(3,2,12)             110.8382         estimate D2E/DX2                !
 ! A7    A(2,3,4)              117.5484         estimate D2E/DX2                !
 ! A8    A(2,3,11)             113.8143         estimate D2E/DX2                !
 ! A9    A(4,3,11)             128.6374         estimate D2E/DX2                !
 ! A10   A(3,4,5)              119.0795         estimate D2E/DX2                !
 ! A11   A(3,4,8)              119.8646         estimate D2E/DX2                !
 ! A12   A(5,4,8)              121.0559         estimate D2E/DX2                !
 ! A13   A(4,5,6)              122.1376         estimate D2E/DX2                !
 ! A14   A(4,5,9)              118.8922         estimate D2E/DX2                !
 ! A15   A(6,5,9)              118.9701         estimate D2E/DX2                !
 ! A16   A(1,6,5)              119.9604         estimate D2E/DX2                !
 ! A17   A(1,6,10)             119.9646         estimate D2E/DX2                !
 ! A18   A(5,6,10)             120.075          estimate D2E/DX2                !
 ! A19   A(3,11,23)            111.9769         estimate D2E/DX2                !
 ! A20   A(2,12,23)             88.9075         estimate D2E/DX2                !
 ! A21   A(14,13,15)           118.907          estimate D2E/DX2                !
 ! A22   A(14,13,23)           123.4164         estimate D2E/DX2                !
 ! A23   A(15,13,23)           117.6766         estimate D2E/DX2                !
 ! A24   A(13,14,16)           120.2647         estimate D2E/DX2                !
 ! A25   A(13,14,17)           119.7724         estimate D2E/DX2                !
 ! A26   A(16,14,17)           119.963          estimate D2E/DX2                !
 ! A27   A(13,15,18)           119.1685         estimate D2E/DX2                !
 ! A28   A(13,15,24)           117.8673         estimate D2E/DX2                !
 ! A29   A(18,15,24)           122.9641         estimate D2E/DX2                !
 ! A30   A(14,16,19)           121.0585         estimate D2E/DX2                !
 ! A31   A(14,16,20)           119.348          estimate D2E/DX2                !
 ! A32   A(19,16,20)           119.5935         estimate D2E/DX2                !
 ! A33   A(15,18,19)           120.2348         estimate D2E/DX2                !
 ! A34   A(15,18,21)           118.1206         estimate D2E/DX2                !
 ! A35   A(19,18,21)           121.6446         estimate D2E/DX2                !
 ! A36   A(16,19,18)           120.3665         estimate D2E/DX2                !
 ! A37   A(16,19,22)           119.694          estimate D2E/DX2                !
 ! A38   A(18,19,22)           119.9395         estimate D2E/DX2                !
 ! A39   A(11,23,12)           114.4632         estimate D2E/DX2                !
 ! A40   A(11,23,13)           123.8835         estimate D2E/DX2                !
 ! A41   A(12,23,13)           121.6533         estimate D2E/DX2                !
 ! A42   A(15,24,25)           108.5186         estimate D2E/DX2                !
 ! D1    D(6,1,2,3)              0.0            estimate D2E/DX2                !
 ! D2    D(6,1,2,12)           180.0            estimate D2E/DX2                !
 ! D3    D(7,1,2,3)            179.9999         estimate D2E/DX2                !
 ! D4    D(7,1,2,12)            -0.0001         estimate D2E/DX2                !
 ! D5    D(2,1,6,5)             -0.0001         estimate D2E/DX2                !
 ! D6    D(2,1,6,10)           179.9999         estimate D2E/DX2                !
 ! D7    D(7,1,6,5)            180.0            estimate D2E/DX2                !
 ! D8    D(7,1,6,10)             0.0            estimate D2E/DX2                !
 ! D9    D(1,2,3,4)              0.0002         estimate D2E/DX2                !
 ! D10   D(1,2,3,11)          -180.0            estimate D2E/DX2                !
 ! D11   D(12,2,3,4)          -179.9999         estimate D2E/DX2                !
 ! D12   D(12,2,3,11)            0.0            estimate D2E/DX2                !
 ! D13   D(1,2,12,23)          179.9997         estimate D2E/DX2                !
 ! D14   D(3,2,12,23)           -0.0003         estimate D2E/DX2                !
 ! D15   D(2,3,4,5)             -0.0002         estimate D2E/DX2                !
 ! D16   D(2,3,4,8)            179.9999         estimate D2E/DX2                !
 ! D17   D(11,3,4,5)           180.0            estimate D2E/DX2                !
 ! D18   D(11,3,4,8)             0.0            estimate D2E/DX2                !
 ! D19   D(2,3,11,23)            0.0004         estimate D2E/DX2                !
 ! D20   D(4,3,11,23)         -179.9998         estimate D2E/DX2                !
 ! D21   D(3,4,5,6)              0.0            estimate D2E/DX2                !
 ! D22   D(3,4,5,9)           -179.9999         estimate D2E/DX2                !
 ! D23   D(8,4,5,6)            180.0            estimate D2E/DX2                !
 ! D24   D(8,4,5,9)              0.0            estimate D2E/DX2                !
 ! D25   D(4,5,6,1)              0.0001         estimate D2E/DX2                !
 ! D26   D(4,5,6,10)          -179.9999         estimate D2E/DX2                !
 ! D27   D(9,5,6,1)           -179.9999         estimate D2E/DX2                !
 ! D28   D(9,5,6,10)             0.0            estimate D2E/DX2                !
 ! D29   D(3,11,23,12)          -0.0006         estimate D2E/DX2                !
 ! D30   D(3,11,23,13)         179.9985         estimate D2E/DX2                !
 ! D31   D(2,12,23,11)           0.0005         estimate D2E/DX2                !
 ! D32   D(2,12,23,13)        -179.9986         estimate D2E/DX2                !
 ! D33   D(15,13,14,16)          0.0009         estimate D2E/DX2                !
 ! D34   D(15,13,14,17)       -179.9995         estimate D2E/DX2                !
 ! D35   D(23,13,14,16)       -179.9992         estimate D2E/DX2                !
 ! D36   D(23,13,14,17)          0.0004         estimate D2E/DX2                !
 ! D37   D(14,13,15,18)         -0.0011         estimate D2E/DX2                !
 ! D38   D(14,13,15,24)        179.9987         estimate D2E/DX2                !
 ! D39   D(23,13,15,18)        179.999          estimate D2E/DX2                !
 ! D40   D(23,13,15,24)         -0.0012         estimate D2E/DX2                !
 ! D41   D(14,13,23,11)        180.0            estimate D2E/DX2                !
 ! D42   D(14,13,23,12)         -0.001          estimate D2E/DX2                !
 ! D43   D(15,13,23,11)         -0.0001         estimate D2E/DX2                !
 ! D44   D(15,13,23,12)        179.9989         estimate D2E/DX2                !
 ! D45   D(13,14,16,19)         -0.0002         estimate D2E/DX2                !
 ! D46   D(13,14,16,20)        179.9997         estimate D2E/DX2                !
 ! D47   D(17,14,16,19)       -179.9999         estimate D2E/DX2                !
 ! D48   D(17,14,16,20)          0.0001         estimate D2E/DX2                !
 ! D49   D(13,15,18,19)          0.0006         estimate D2E/DX2                !
 ! D50   D(13,15,18,21)       -180.0            estimate D2E/DX2                !
 ! D51   D(24,15,18,19)       -179.9992         estimate D2E/DX2                !
 ! D52   D(24,15,18,21)          0.0003         estimate D2E/DX2                !
 ! D53   D(13,15,24,25)          0.0013         estimate D2E/DX2                !
 ! D54   D(18,15,24,25)       -179.9989         estimate D2E/DX2                !
 ! D55   D(14,16,19,18)         -0.0003         estimate D2E/DX2                !
 ! D56   D(14,16,19,22)        179.9999         estimate D2E/DX2                !
 ! D57   D(20,16,19,18)        179.9997         estimate D2E/DX2                !
 ! D58   D(20,16,19,22)         -0.0001         estimate D2E/DX2                !
 ! D59   D(15,18,19,16)          0.0001         estimate D2E/DX2                !
 ! D60   D(15,18,19,22)        179.9999         estimate D2E/DX2                !
 ! D61   D(21,18,19,16)       -179.9993         estimate D2E/DX2                !
 ! D62   D(21,18,19,22)          0.0005         estimate D2E/DX2                !
 ! Qtot  GIC-1                  -10.0           Frozen                          !
 ! Ptot  GIC-2                 120.0            Frozen                          !
 --------------------------------------------------------------------------------
 NOTE: GIC-type coordinates are in arbitrary units.
 Trust Radius=3.00D-01 FncErr=5.00D-06 GrdErr=5.00D-06 EigMax=2.50D+02 EigMin=1.00D-04
 Number of steps in this run=    143 maximum allowed number of steps=    150.
 GradGradGradGradGradGradGradGradGradGradGradGradGradGradGradGradGradGrad

 Leave Link  103 at Mon Jul 13 13:28:24 2020, MaxMem=  7784628224 cpu:               0.6 elap:               0.1
 (Enter /gpfs/loomis/apps/avx/software/Gaussian/16-C.01_AVX/g16/l202.exe)
                          Input orientation:                          
 ---------------------------------------------------------------------
 Center     Atomic      Atomic             Coordinates (Angstroms)
 Number     Number       Type             X           Y           Z
 ---------------------------------------------------------------------
      1          6           0        1.575717   -3.257092   -0.000018
      2          6           0        0.997733   -1.990238   -0.000022
      3          6           0        1.765192   -0.784648   -0.000026
      4          6           0        3.178745   -0.906624   -0.000028
      5          6           0        3.747999   -2.176373   -0.000024
      6          6           0        2.965972   -3.348320   -0.000018
      7          1           0        0.948530   -4.152782   -0.000015
      8          1           0        3.802770   -0.008651   -0.000032
      9          1           0        4.837780   -2.266823   -0.000024
     10          1           0        3.448486   -4.328477   -0.000013
     11          7           0        1.010553    0.346649   -0.000029
     12         16           0       -0.709569   -1.638474   -0.000024
     13          6           0       -1.329997    1.054852    0.000009
     14          6           0       -2.708429    0.756930    0.000017
     15          6           0       -0.907467    2.462219    0.000035
     16          6           0       -3.650965    1.786953    0.000030
     17          1           0       -3.038628   -0.285466    0.000007
     18          6           0       -1.891916    3.477374    0.000044
     19          6           0       -3.250187    3.141601    0.000041
     20          1           0       -4.715191    1.539056    0.000032
     21          1           0       -1.558497    4.518403    0.000062
     22          1           0       -4.006385    3.929470    0.000049
     23          6           0       -0.323539    0.069675   -0.000020
     24          8           0        0.366728    2.713502    0.000053
     25          1           0        0.919594    1.743231    0.000020
 ---------------------------------------------------------------------
                    Distance matrix (angstroms):
                    1          2          3          4          5
     1  C    0.000000
     2  C    1.392475   0.000000
     3  C    2.479693   1.429140   0.000000
     4  C    2.845066   2.435371   1.418805   0.000000
     5  C    2.426265   2.756558   2.422482   1.391515   0.000000
     6  C    1.393244   2.391308   2.830951   2.450950   1.408910
     7  H    1.093446   2.163104   3.465727   3.938452   3.426838
     8  H    3.938545   3.434374   2.180343   1.093510   2.168414
     9  H    3.409060   3.849996   3.411399   2.145353   1.093529
    10  H    2.157575   3.387264   3.923289   3.432468   2.172846
    11  N    3.647788   2.336922   1.359895   2.504346   3.722801
    12  S    2.800439   1.743163   2.617911   3.956588   4.489904
    13  C    5.199619   3.832870   3.600550   4.916924   6.018875
    14  C    5.870799   4.613303   4.731781   6.117698   7.091525
    15  C    6.235120   4.842949   4.205384   5.295869   6.571902
    16  C    7.263649   5.989788   5.995656   7.341681   8.393605
    17  H    5.488419   4.381604   4.829686   6.248324   7.045128
    18  C    7.574795   6.184242   5.615984   6.703062   7.985831
    19  C    8.014527   6.661877   6.369417   7.597322   8.789508
    20  H    7.910661   6.715163   6.884401   8.264114   9.242835
    21  H    8.383414   6.992619   6.258535   7.202248   8.542770
    22  H    9.099810   7.751395   7.452115   8.661056   9.869741
    23  C    3.830738   2.447243   2.256694   3.635815   4.649962
    24  O    6.091769   4.745876   3.767328   4.583967   5.945071
    25  H    5.043187   3.734287   2.665560   3.482168   4.833546
                    6          7          8          9         10
     6  C    0.000000
     7  H    2.171918   0.000000
     8  H    3.442909   5.031949   0.000000
     9  H    2.161783   4.322396   2.484067   0.000000
    10  H    1.092487   2.506122   4.334330   2.486072   0.000000
    11  N    4.180486   4.499858   2.814732   4.634426   5.272601
    12  S    4.053785   3.011816   4.797658   5.582822   4.952327
    13  C    6.151688   5.684289   5.241788   7.005355   7.198203
    14  C    7.003707   6.121979   6.556053   8.129475   7.985548
    15  C    6.983258   6.870441   5.318978   7.441217   8.067706
    16  C    8.375851   7.512377   7.666965   9.407013   9.370202
    17  H    6.740645   5.554598   6.846996   8.121797   7.643859
    18  C    8.377898   8.141708   6.676962   8.847860   9.457865
    19  C    8.986641   8.416487   7.724526   9.729660  10.033658
    20  H    9.104214   8.029618   8.657428  10.283189  10.053535
    21  H    9.075029   9.026330   7.016937   9.324788  10.165489
    22  H   10.078690   9.480189   8.745953  10.798764  11.125142
    23  C    4.743793   4.409910   4.127053   5.665549   5.794128
    24  O    6.595586   6.890889   4.383663   6.692828   7.686788
    25  H    5.487400   5.896084   3.373692   5.606489   6.577305
                   11         12         13         14         15
    11  N    0.000000
    12  S    2.626696   0.000000
    13  C    2.445347   2.763862   0.000000
    14  C    3.741545   3.119840   1.410260   0.000000
    15  C    2.855597   4.105465   1.469426   2.480217   0.000000
    16  C    4.878957   4.515015   2.433693   1.396181   2.825379
    17  H    4.098223   2.693538   2.171606   1.093444   3.477301
    18  C    4.269165   5.250699   2.486839   2.840336   1.414101
    19  C    5.095652   5.413304   2.835781   2.445437   2.439242
    20  H    5.848588   5.112896   3.419648   2.153791   3.918034
    21  H    4.899342   6.215128   3.471080   3.933322   2.156788
    22  H    6.164923   6.470780   3.927656   3.427783   3.428720
    23  C    1.362540   1.751226   1.408379   2.481939   2.462770
    24  O    2.452857   4.483092   2.372762   3.644828   1.298736
    25  H    1.399541   3.753678   2.352557   3.759700   1.963439
                   16         17         18         19         20
    16  C    0.000000
    17  H    2.160990   0.000000
    18  C    2.439626   3.933689   0.000000
    19  C    1.412691   3.433591   1.399158   0.000000
    20  H    1.092717   2.477851   3.424610   2.171264   0.000000
    21  H    3.440820   5.026723   1.093119   2.181146   4.340648
    22  H    2.171797   4.324609   2.162260   1.092049   2.493288
    23  C    3.744436   2.738217   3.751296   4.242877   4.630949
    24  O    4.123148   4.537650   2.384319   3.642163   5.215863
    25  H    4.570768   4.447823   3.303307   4.398013   5.638483
                   21         22         23         24         25
    21  H    0.000000
    22  H    2.517736   0.000000
    23  C    4.616958   5.334920   0.000000
    24  O    2.638969   4.539019   2.732452   0.000000
    25  H    3.720553   5.389333   2.084747   1.116730   0.000000
 Symmetry turned off by external request.
 Stoichiometry    C13H9NOS
 Framework group  C1[X(C13H9NOS)]
 Deg. of freedom    69
 Full point group                 C1      NOp   1
 Rotational constants (GHZ):           1.3991638           0.2863454           0.2376991
 Leave Link  202 at Mon Jul 13 13:28:24 2020, MaxMem=  7784628224 cpu:               0.3 elap:               0.1
 (Enter /gpfs/loomis/apps/avx/software/Gaussian/16-C.01_AVX/g16/l301.exe)
 Standard basis: CC-pVDZ (5D, 7F)
 Ernie: Thresh=  0.10000D-02 Tol=  0.10000D-05 Strict=F.
 Ernie:  40 primitive shells out of 425 were deleted.
   273 basis functions,   629 primitive gaussians,   289 cartesian basis functions
    59 alpha electrons       59 beta electrons
       nuclear repulsion energy      1099.9817769707 Hartrees.
 IExCor= 4639 DFT=T Ex+Corr=wB97XD ExCW=0 ScaHFX=  1.000000
 ScaDFX=  1.000000  1.000000  1.000000  1.000000 ScalE2=  1.000000  1.000000
 IRadAn=      5 IRanWt=     -1 IRanGd=            0 ICorTp=0 IEmpDi=121
 HFx  wShort=  0.000000 wLong=  0.200000 cFull=  0.222036 cShort=  0.000000 cLong=  0.777964
 DFx  wShort=  0.000000 wLong=  0.200000 cFull=  0.000000 cShort=  0.000000 cLong=  1.000000
 NAtoms=   25 NActive=   25 NUniq=   25 SFac= 1.00D+00 NAtFMM=   60 NAOKFM=F Big=F
 Integral buffers will be    131072 words long.
 Raffenetti 1 integral format.
 Two-electron integral symmetry is turned off.
 R6Disp:  Grimme-D2 Dispersion energy=       -0.0138574436 Hartrees.
 Nuclear repulsion after empirical dispersion term =     1099.9679195270 Hartrees.
 ------------------------------------------------------------------------------
 Polarizable Continuum Model (PCM)
 =================================
 Model                : PCM.
 Atomic radii         : UFF (Universal Force Field).
 Polarization charges : Total charges.
 Charge compensation  : None.
 Solution method      : On-the-fly selection.
 Cavity type          : Scaled VdW (van der Waals Surface) (Alpha=1.100).
 Cavity algorithm     : GePol (No added spheres)
                        Default sphere list used, NSphG=   25.
                        Lebedev-Laikov grids with approx.  5.0 points / Ang**2.
                        Smoothing algorithm: York/Karplus (Gamma=1.0000).
                        Polarization charges: spherical gaussians, with
                                              point-specific exponents (IZeta= 3).
                        Self-potential: point-specific (ISelfS= 7).
                        Self-field    : sphere-specific E.n sum rule (ISelfD= 2).
 1st derivatives      : Analytical E(r).r(x)/FMM algorithm (CHGder, D1EAlg=3).
                        Cavity 1st derivative terms included.
 Solvent              : CarbonTetraChloride, Eps=   2.228000 Eps(inf)=   2.131892
 ------------------------------------------------------------------------------
 GePol: Number of generator spheres                  =      25
 GePol: Total number of spheres                      =      25
 GePol: Number of exposed spheres                    =      25 (100.00%)
 GePol: Number of points                             =    2183
 GePol: Average weight of points                     =       0.12
 GePol: Minimum weight of points                     =   0.21D-10
 GePol: Maximum weight of points                     =    0.20577
 GePol: Number of points with low weight             =     138
 GePol: Fraction of low-weight points (<1% of avg)   =       6.32%
 GePol: Cavity surface area                          =    271.703 Ang**2
 GePol: Cavity volume                                =    291.993 Ang**3
 Leave Link  301 at Mon Jul 13 13:28:24 2020, MaxMem=  7784628224 cpu:               0.6 elap:               0.1
 (Enter /gpfs/loomis/apps/avx/software/Gaussian/16-C.01_AVX/g16/l302.exe)
 NPDir=0 NMtPBC=     1 NCelOv=     1 NCel=       1 NClECP=     1 NCelD=      1
         NCelK=      1 NCelE2=     1 NClLst=     1 CellRange=     0.0.
 One-electron integrals computed using PRISM.
 NBasis=   273 RedAO= T EigKep=  3.18D-04  NBF=   273
 NBsUse=   273 1.00D-06 EigRej= -1.00D+00 NBFU=   273
 Precomputing XC quadrature grid using
 IXCGrd= 4 IRadAn=           5 IRanWt=          -1 IRanGd=           0 AccXCQ= 0.00D+00.
 Generated NRdTot=       0 NPtTot=           0 NUsed=           0 NTot=          32
 NSgBfM=   288   288   288   288   288 MxSgAt=    25 MxSgA2=    25.
 Leave Link  302 at Mon Jul 13 13:28:25 2020, MaxMem=  7784628224 cpu:               7.2 elap:               0.9
 (Enter /gpfs/loomis/apps/avx/software/Gaussian/16-C.01_AVX/g16/l303.exe)
 DipDrv:  MaxL=1.
 Leave Link  303 at Mon Jul 13 13:28:25 2020, MaxMem=  7784628224 cpu:               1.3 elap:               0.2
 (Enter /gpfs/loomis/apps/avx/software/Gaussian/16-C.01_AVX/g16/l308.exe)
 Leave Link  308 at Mon Jul 13 13:28:26 2020, MaxMem=  7784628224 cpu:               0.6 elap:               0.1
 (Enter /gpfs/loomis/apps/avx/software/Gaussian/16-C.01_AVX/g16/l401.exe)
 ExpMin= 1.22D-01 ExpMax= 1.11D+05 ExpMxC= 1.07D+03 IAcc=3 IRadAn=         5 AccDes= 0.00D+00
 Harris functional with IExCor= 4639 and IRadAn=       5 diagonalized for initial guess.
 HarFok:  IExCor= 4639 AccDes= 0.00D+00 IRadAn=         5 IDoV= 1 UseB2=F ITyADJ=14
 ICtDFT=  3500011 ScaDFX=  1.000000  1.000000  1.000000  1.000000
 FoFCou: FMM=F IPFlag=           0 FMFlag=      100000 FMFlg1=           0
         NFxFlg=           0 DoJE=T BraDBF=F KetDBF=T FulRan=T
         wScrn=  0.000000 ICntrl=       500 IOpCl=  0 I1Cent=   200000004 NGrid=           0
         NMat0=    1 NMatS0=      1 NMatT0=    0 NMatD0=    1 NMtDS0=    0 NMtDT0=    0
 Symmetry not used in FoFCou.
 Harris En= -994.457975717185    
 JPrj=0 DoOrth=F DoCkMO=F.
 Leave Link  401 at Mon Jul 13 13:28:27 2020, MaxMem=  7784628224 cpu:              14.8 elap:               1.6
 (Enter /gpfs/loomis/apps/avx/software/Gaussian/16-C.01_AVX/g16/l502.exe)
 Two-electron integral symmetry not used.
 Closed shell SCF:
 Using DIIS extrapolation, IDIIS=  1040.
 NGot=  7784628224 LenX=  7784455381 LenY=  7784371419
 Requested convergence on RMS density matrix=1.00D-08 within 128 cycles.
 Requested convergence on MAX density matrix=1.00D-06.
 Requested convergence on             energy=1.00D-06.
 No special actions if energy rises.
 Fock matrices will be formed incrementally for  20 cycles.

 Cycle   1  Pass 1  IDiag  1:
 FoFJK:  IHMeth= 1 ICntrl=       0 DoSepK=T KAlg= 0 I1Cent=           0 FoldK=F
 IRaf=         1 NMat=       1 IRICut=       1 DoRegI=T DoRafI=F ISym2E= 0 IDoP0=0 IntGTp=1.
 FoFCou: FMM=F IPFlag=           0 FMFlag=      100000 FMFlg1=           0
         NFxFlg=           0 DoJE=T BraDBF=F KetDBF=F FulRan=T
         wScrn=  0.000000 ICntrl=       500 IOpCl=  0 I1Cent=           0 NGrid=           0
         NMat0=    1 NMatS0=      1 NMatT0=    0 NMatD0=    1 NMtDS0=    0 NMtDT0=    0
 Symmetry not used in FoFCou.
 Inv3:  Mode=1 IEnd=    14296467.
 Iteration    1 A*A^-1 deviation from unit magnitude is 4.11D-15 for   2167.
 Iteration    1 A*A^-1 deviation from orthogonality  is 1.66D-15 for    936    117.
 Iteration    1 A^-1*A deviation from unit magnitude is 4.33D-15 for   2167.
 Iteration    1 A^-1*A deviation from orthogonality  is 1.86D-15 for   2177   1291.
 E= -1028.58269144504    
 DIIS: error= 2.70D-02 at cycle   1 NSaved=   1.
 NSaved= 1 IEnMin= 1 EnMin= -1028.58269144504     IErMin= 1 ErrMin= 2.70D-02
 ErrMax= 2.70D-02  0.00D+00 EMaxC= 1.00D-01 BMatC= 3.89D-01 BMatP= 3.89D-01
 IDIUse=3 WtCom= 7.30D-01 WtEn= 2.70D-01
 Coeff-Com:  0.100D+01
 Coeff-En:   0.100D+01
 Coeff:      0.100D+01
 Gap=     0.347 Goal=   None    Shift=    0.000
 GapD=    0.347 DampG=1.000 DampE=0.500 DampFc=0.5000 IDamp=-1.
 Damping current iteration by 5.00D-01
 RMSDP=3.50D-03 MaxDP=2.21D-01              OVMax= 1.71D-01

 Cycle   2  Pass 1  IDiag  1:
 RMSU=  1.74D-03    CP:  9.93D-01
 E= -1028.69850267918     Delta-E=       -0.115811234140 Rises=F Damp=T
 DIIS: error= 1.07D-02 at cycle   2 NSaved=   2.
 NSaved= 2 IEnMin= 2 EnMin= -1028.69850267918     IErMin= 2 ErrMin= 1.07D-02
 ErrMax= 1.07D-02  0.00D+00 EMaxC= 1.00D-01 BMatC= 5.77D-02 BMatP= 3.89D-01
 IDIUse=3 WtCom= 8.93D-01 WtEn= 1.07D-01
 Coeff-Com: -0.295D+00 0.130D+01
 Coeff-En:   0.000D+00 0.100D+01
 Coeff:     -0.264D+00 0.126D+01
 Gap=     0.304 Goal=   None    Shift=    0.000
 RMSDP=1.13D-03 MaxDP=2.35D-02 DE=-1.16D-01 OVMax= 1.10D-01

 Cycle   3  Pass 1  IDiag  1:
 RMSU=  1.07D-03    CP:  9.91D-01  1.20D+00
 E= -1028.80080405498     Delta-E=       -0.102301375794 Rises=F Damp=F
 DIIS: error= 6.52D-03 at cycle   3 NSaved=   3.
 NSaved= 3 IEnMin= 3 EnMin= -1028.80080405498     IErMin= 3 ErrMin= 6.52D-03
 ErrMax= 6.52D-03  0.00D+00 EMaxC= 1.00D-01 BMatC= 1.34D-02 BMatP= 5.77D-02
 IDIUse=3 WtCom= 9.35D-01 WtEn= 6.52D-02
 Coeff-Com: -0.203D+00 0.482D+00 0.721D+00
 Coeff-En:   0.000D+00 0.000D+00 0.100D+01
 Coeff:     -0.190D+00 0.450D+00 0.739D+00
 Gap=     0.263 Goal=   None    Shift=    0.000
 RMSDP=5.20D-04 MaxDP=1.96D-02 DE=-1.02D-01 OVMax= 3.80D-02

 Cycle   4  Pass 1  IDiag  1:
 RMSU=  4.01D-04    CP:  9.88D-01  1.36D+00  8.45D-01
 E= -1028.81312476771     Delta-E=       -0.012320712736 Rises=F Damp=F
 DIIS: error= 2.19D-03 at cycle   4 NSaved=   4.
 NSaved= 4 IEnMin= 4 EnMin= -1028.81312476771     IErMin= 4 ErrMin= 2.19D-03
 ErrMax= 2.19D-03  0.00D+00 EMaxC= 1.00D-01 BMatC= 1.61D-03 BMatP= 1.34D-02
 IDIUse=3 WtCom= 9.78D-01 WtEn= 2.19D-02
 Coeff-Com: -0.711D-01 0.141D+00 0.351D+00 0.579D+00
 Coeff-En:   0.000D+00 0.000D+00 0.000D+00 0.100D+01
 Coeff:     -0.696D-01 0.138D+00 0.343D+00 0.588D+00
 Gap=     0.260 Goal=   None    Shift=    0.000
 RMSDP=1.62D-04 MaxDP=9.22D-03 DE=-1.23D-02 OVMax= 1.30D-02

 Cycle   5  Pass 1  IDiag  1:
 RMSU=  1.01D-04    CP:  9.89D-01  1.37D+00  9.14D-01  7.47D-01
 E= -1028.81476374985     Delta-E=       -0.001638982138 Rises=F Damp=F
 DIIS: error= 3.70D-04 at cycle   5 NSaved=   5.
 NSaved= 5 IEnMin= 5 EnMin= -1028.81476374985     IErMin= 5 ErrMin= 3.70D-04
 ErrMax= 3.70D-04  0.00D+00 EMaxC= 1.00D-01 BMatC= 4.88D-05 BMatP= 1.61D-03
 IDIUse=3 WtCom= 9.96D-01 WtEn= 3.70D-03
 Coeff-Com: -0.934D-03-0.401D-02 0.346D-01 0.159D+00 0.811D+00
 Coeff-En:   0.000D+00 0.000D+00 0.000D+00 0.000D+00 0.100D+01
 Coeff:     -0.930D-03-0.399D-02 0.344D-01 0.158D+00 0.812D+00
 Gap=     0.261 Goal=   None    Shift=    0.000
 RMSDP=5.00D-05 MaxDP=1.54D-03 DE=-1.64D-03 OVMax= 4.65D-03

 Cycle   6  Pass 1  IDiag  1:
 RMSU=  3.18D-05    CP:  9.88D-01  1.37D+00  9.33D-01  8.26D-01  1.07D+00
 E= -1028.81486250219     Delta-E=       -0.000098752334 Rises=F Damp=F
 DIIS: error= 1.66D-04 at cycle   6 NSaved=   6.
 NSaved= 6 IEnMin= 6 EnMin= -1028.81486250219     IErMin= 6 ErrMin= 1.66D-04
 ErrMax= 1.66D-04  0.00D+00 EMaxC= 1.00D-01 BMatC= 7.95D-06 BMatP= 4.88D-05
 IDIUse=3 WtCom= 9.98D-01 WtEn= 1.66D-03
 Coeff-Com:  0.141D-01-0.291D-01-0.549D-01-0.564D-01 0.211D+00 0.915D+00
 Coeff-En:   0.000D+00 0.000D+00 0.000D+00 0.000D+00 0.000D+00 0.100D+01
 Coeff:      0.141D-01-0.291D-01-0.548D-01-0.563D-01 0.211D+00 0.915D+00
 Gap=     0.262 Goal=   None    Shift=    0.000
 RMSDP=2.74D-05 MaxDP=1.48D-03 DE=-9.88D-05 OVMax= 2.54D-03

 Cycle   7  Pass 1  IDiag  1:
 RMSU=  1.43D-05    CP:  9.88D-01  1.37D+00  9.43D-01  8.52D-01  1.23D+00
                    CP:  1.21D+00
 E= -1028.81488538184     Delta-E=       -0.000022879658 Rises=F Damp=F
 DIIS: error= 9.80D-05 at cycle   7 NSaved=   7.
 NSaved= 7 IEnMin= 7 EnMin= -1028.81488538184     IErMin= 7 ErrMin= 9.80D-05
 ErrMax= 9.80D-05  0.00D+00 EMaxC= 1.00D-01 BMatC= 1.99D-06 BMatP= 7.95D-06
 IDIUse=1 WtCom= 1.00D+00 WtEn= 0.00D+00
 Coeff-Com:  0.636D-02-0.122D-01-0.287D-01-0.453D-01-0.122D-01 0.414D+00
 Coeff-Com:  0.678D+00
 Coeff:      0.636D-02-0.122D-01-0.287D-01-0.453D-01-0.122D-01 0.414D+00
 Coeff:      0.678D+00
 Gap=     0.262 Goal=   None    Shift=    0.000
 RMSDP=9.29D-06 MaxDP=3.98D-04 DE=-2.29D-05 OVMax= 1.08D-03

 Cycle   8  Pass 1  IDiag  1:
 RMSU=  5.80D-06    CP:  9.88D-01  1.37D+00  9.45D-01  8.59D-01  1.26D+00
                    CP:  1.39D+00  1.09D+00
 E= -1028.81488896963     Delta-E=       -0.000003587783 Rises=F Damp=F
 DIIS: error= 3.67D-05 at cycle   8 NSaved=   8.
 NSaved= 8 IEnMin= 8 EnMin= -1028.81488896963     IErMin= 8 ErrMin= 3.67D-05
 ErrMax= 3.67D-05  0.00D+00 EMaxC= 1.00D-01 BMatC= 2.70D-07 BMatP= 1.99D-06
 IDIUse=1 WtCom= 1.00D+00 WtEn= 0.00D+00
 Coeff-Com: -0.107D-02 0.239D-02 0.317D-02 0.232D-03-0.412D-01-0.592D-01
 Coeff-Com:  0.230D+00 0.865D+00
 Coeff:     -0.107D-02 0.239D-02 0.317D-02 0.232D-03-0.412D-01-0.592D-01
 Coeff:      0.230D+00 0.865D+00
 Gap=     0.262 Goal=   None    Shift=    0.000
 RMSDP=4.45D-06 MaxDP=1.49D-04 DE=-3.59D-06 OVMax= 5.80D-04

 Cycle   9  Pass 1  IDiag  1:
 RMSU=  2.12D-06    CP:  9.88D-01  1.37D+00  9.44D-01  8.58D-01  1.27D+00
                    CP:  1.45D+00  1.30D+00  1.13D+00
 E= -1028.81488966785     Delta-E=       -0.000000698219 Rises=F Damp=F
 DIIS: error= 1.32D-05 at cycle   9 NSaved=   9.
 NSaved= 9 IEnMin= 9 EnMin= -1028.81488966785     IErMin= 9 ErrMin= 1.32D-05
 ErrMax= 1.32D-05  0.00D+00 EMaxC= 1.00D-01 BMatC= 3.59D-08 BMatP= 2.70D-07
 IDIUse=1 WtCom= 1.00D+00 WtEn= 0.00D+00
 Coeff-Com: -0.109D-02 0.217D-02 0.443D-02 0.598D-02-0.115D-01-0.757D-01
 Coeff-Com: -0.880D-02 0.263D+00 0.822D+00
 Coeff:     -0.109D-02 0.217D-02 0.443D-02 0.598D-02-0.115D-01-0.757D-01
 Coeff:     -0.880D-02 0.263D+00 0.822D+00
 Gap=     0.262 Goal=   None    Shift=    0.000
 RMSDP=1.89D-06 MaxDP=5.68D-05 DE=-6.98D-07 OVMax= 2.80D-04

 Cycle  10  Pass 1  IDiag  1:
 RMSU=  9.43D-07    CP:  9.88D-01  1.37D+00  9.44D-01  8.58D-01  1.27D+00
                    CP:  1.48D+00  1.37D+00  1.27D+00  1.19D+00
 E= -1028.81488979472     Delta-E=       -0.000000126879 Rises=F Damp=F
 DIIS: error= 7.96D-06 at cycle  10 NSaved=  10.
 NSaved=10 IEnMin=10 EnMin= -1028.81488979472     IErMin=10 ErrMin= 7.96D-06
 ErrMax= 7.96D-06  0.00D+00 EMaxC= 1.00D-01 BMatC= 8.79D-09 BMatP= 3.59D-08
 IDIUse=1 WtCom= 1.00D+00 WtEn= 0.00D+00
 Coeff-Com: -0.156D-03 0.268D-03 0.895D-03 0.222D-02 0.354D-02-0.191D-01
 Coeff-Com: -0.418D-01-0.788D-01 0.293D+00 0.840D+00
 Coeff:     -0.156D-03 0.268D-03 0.895D-03 0.222D-02 0.354D-02-0.191D-01
 Coeff:     -0.418D-01-0.788D-01 0.293D+00 0.840D+00
 Gap=     0.262 Goal=   None    Shift=    0.000
 RMSDP=1.01D-06 MaxDP=3.10D-05 DE=-1.27D-07 OVMax= 1.67D-04

 Cycle  11  Pass 1  IDiag  1:
 RMSU=  4.23D-07    CP:  9.88D-01  1.37D+00  9.44D-01  8.58D-01  1.28D+00
                    CP:  1.49D+00  1.40D+00  1.34D+00  1.46D+00  1.23D+00
 E= -1028.81488982836     Delta-E=       -0.000000033631 Rises=F Damp=F
 DIIS: error= 3.41D-06 at cycle  11 NSaved=  11.
 NSaved=11 IEnMin=11 EnMin= -1028.81488982836     IErMin=11 ErrMin= 3.41D-06
 ErrMax= 3.41D-06  0.00D+00 EMaxC= 1.00D-01 BMatC= 1.58D-09 BMatP= 8.79D-09
 IDIUse=1 WtCom= 1.00D+00 WtEn= 0.00D+00
 Coeff-Com:  0.196D-03-0.403D-03-0.712D-03-0.563D-03 0.382D-02 0.838D-02
 Coeff-Com: -0.453D-02-0.753D-01-0.735D-01 0.223D+00 0.919D+00
 Coeff:      0.196D-03-0.403D-03-0.712D-03-0.563D-03 0.382D-02 0.838D-02
 Coeff:     -0.453D-02-0.753D-01-0.735D-01 0.223D+00 0.919D+00
 Gap=     0.262 Goal=   None    Shift=    0.000
 RMSDP=4.81D-07 MaxDP=1.18D-05 DE=-3.36D-08 OVMax= 8.64D-05

 Cycle  12  Pass 1  IDiag  1:
 RMSU=  1.82D-07    CP:  9.88D-01  1.37D+00  9.44D-01  8.58D-01  1.28D+00
                    CP:  1.49D+00  1.41D+00  1.36D+00  1.59D+00  1.52D+00
                    CP:  1.19D+00
 E= -1028.81488983572     Delta-E=       -0.000000007366 Rises=F Damp=F
 DIIS: error= 1.28D-06 at cycle  12 NSaved=  12.
 NSaved=12 IEnMin=12 EnMin= -1028.81488983572     IErMin=12 ErrMin= 1.28D-06
 ErrMax= 1.28D-06  0.00D+00 EMaxC= 1.00D-01 BMatC= 3.77D-10 BMatP= 1.58D-09
 IDIUse=1 WtCom= 1.00D+00 WtEn= 0.00D+00
 Coeff-Com:  0.101D-03-0.198D-03-0.446D-03-0.696D-03 0.844D-03 0.661D-02
 Coeff-Com:  0.905D-02-0.134D-01-0.946D-01-0.125D+00 0.314D+00 0.904D+00
 Coeff:      0.101D-03-0.198D-03-0.446D-03-0.696D-03 0.844D-03 0.661D-02
 Coeff:      0.905D-02-0.134D-01-0.946D-01-0.125D+00 0.314D+00 0.904D+00
 Gap=     0.262 Goal=   None    Shift=    0.000
 RMSDP=2.62D-07 MaxDP=6.32D-06 DE=-7.37D-09 OVMax= 4.32D-05

 Cycle  13  Pass 1  IDiag  1:
 RMSU=  7.53D-08    CP:  9.88D-01  1.37D+00  9.44D-01  8.58D-01  1.28D+00
                    CP:  1.49D+00  1.42D+00  1.37D+00  1.66D+00  1.66D+00
                    CP:  1.50D+00  1.15D+00
 E= -1028.81488983731     Delta-E=       -0.000000001590 Rises=F Damp=F
 DIIS: error= 3.98D-07 at cycle  13 NSaved=  13.
 NSaved=13 IEnMin=13 EnMin= -1028.81488983731     IErMin=13 ErrMin= 3.98D-07
 ErrMax= 3.98D-07  0.00D+00 EMaxC= 1.00D-01 BMatC= 4.20D-11 BMatP= 3.77D-10
 IDIUse=1 WtCom= 1.00D+00 WtEn= 0.00D+00
 Coeff-Com: -0.470D-05 0.124D-04-0.549D-05-0.102D-03-0.232D-03 0.529D-03
 Coeff-Com:  0.385D-02 0.766D-02-0.131D-01-0.694D-01-0.637D-01 0.257D+00
 Coeff-Com:  0.878D+00
 Coeff:     -0.470D-05 0.124D-04-0.549D-05-0.102D-03-0.232D-03 0.529D-03
 Coeff:      0.385D-02 0.766D-02-0.131D-01-0.694D-01-0.637D-01 0.257D+00
 Coeff:      0.878D+00
 Gap=     0.262 Goal=   None    Shift=    0.000
 RMSDP=7.26D-08 MaxDP=1.78D-06 DE=-1.59D-09 OVMax= 1.05D-05

 Cycle  14  Pass 1  IDiag  1:
 RMSU=  2.73D-08    CP:  9.88D-01  1.37D+00  9.44D-01  8.58D-01  1.28D+00
                    CP:  1.49D+00  1.42D+00  1.37D+00  1.67D+00  1.69D+00
                    CP:  1.57D+00  1.34D+00  1.13D+00
 E= -1028.81488983744     Delta-E=       -0.000000000126 Rises=F Damp=F
 DIIS: error= 1.21D-07 at cycle  14 NSaved=  14.
 NSaved=14 IEnMin=14 EnMin= -1028.81488983744     IErMin=14 ErrMin= 1.21D-07
 ErrMax= 1.21D-07  0.00D+00 EMaxC= 1.00D-01 BMatC= 5.80D-12 BMatP= 4.20D-11
 IDIUse=1 WtCom= 1.00D+00 WtEn= 0.00D+00
 Coeff-Com: -0.103D-04 0.212D-04 0.370D-04 0.201D-04-0.150D-03-0.452D-03
 Coeff-Com:  0.650D-03 0.382D-02 0.426D-02-0.132D-01-0.488D-01 0.202D-01
 Coeff-Com:  0.333D+00 0.700D+00
 Coeff:     -0.103D-04 0.212D-04 0.370D-04 0.201D-04-0.150D-03-0.452D-03
 Coeff:      0.650D-03 0.382D-02 0.426D-02-0.132D-01-0.488D-01 0.202D-01
 Coeff:      0.333D+00 0.700D+00
 Gap=     0.262 Goal=   None    Shift=    0.000
 RMSDP=1.42D-08 MaxDP=4.69D-07 DE=-1.26D-10 OVMax= 1.59D-06

 Cycle  15  Pass 1  IDiag  1:
 RMSU=  1.00D-08    CP:  9.88D-01  1.37D+00  9.44D-01  8.58D-01  1.28D+00
                    CP:  1.49D+00  1.42D+00  1.37D+00  1.67D+00  1.70D+00
                    CP:  1.58D+00  1.37D+00  1.23D+00  1.00D+00
 E= -1028.81488983745     Delta-E=       -0.000000000010 Rises=F Damp=F
 DIIS: error= 5.17D-08 at cycle  15 NSaved=  15.
 NSaved=15 IEnMin=15 EnMin= -1028.81488983745     IErMin=15 ErrMin= 5.17D-08
 ErrMax= 5.17D-08  0.00D+00 EMaxC= 1.00D-01 BMatC= 1.08D-12 BMatP= 5.80D-12
 IDIUse=1 WtCom= 1.00D+00 WtEn= 0.00D+00
 Coeff-Com: -0.352D-05 0.662D-05 0.185D-04 0.312D-04-0.162D-04-0.326D-03
 Coeff-Com: -0.589D-03-0.139D-03 0.450D-02 0.925D-02-0.755D-02-0.514D-01
 Coeff-Com: -0.586D-01 0.263D+00 0.842D+00
 Coeff:     -0.352D-05 0.662D-05 0.185D-04 0.312D-04-0.162D-04-0.326D-03
 Coeff:     -0.589D-03-0.139D-03 0.450D-02 0.925D-02-0.755D-02-0.514D-01
 Coeff:     -0.586D-01 0.263D+00 0.842D+00
 Gap=     0.262 Goal=   None    Shift=    0.000
 RMSDP=9.44D-09 MaxDP=2.47D-07 DE=-1.00D-11 OVMax= 1.11D-06

 Error on total polarization charges =  0.00833
 SCF Done:  E(RwB97XD) =  -1028.81488984     A.U. after   15 cycles
            NFock= 15  Conv=0.94D-08     -V/T= 2.0050
 KE= 1.023664598454D+03 PE=-4.612046613781D+03 EE= 1.459599205963D+03
 Leave Link  502 at Mon Jul 13 13:29:51 2020, MaxMem=  7784628224 cpu:             832.4 elap:              84.3
 (Enter /gpfs/loomis/apps/avx/software/Gaussian/16-C.01_AVX/g16/l801.exe)
 DoSCS=F DFT=T ScalE2(SS,OS)=  1.000000  1.000000
 ExpMin= 1.22D-01 ExpMax= 1.11D+05 ExpMxC= 1.07D+03 IAcc=3 IRadAn=         5 AccDes= 0.00D+00
 HarFok:  IExCor=  205 AccDes= 0.00D+00 IRadAn=         5 IDoV=-2 UseB2=F ITyADJ=14
 ICtDFT= 12500011 ScaDFX=  1.000000  1.000000  1.000000  1.000000
 Largest valence mixing into a core orbital is  9.45D-05
 Largest core mixing into a valence orbital is  3.29D-05
 Range of M.O.s used for correlation:    21   273
 NBasis=   273 NAE=    59 NBE=    59 NFC=    20 NFV=     0
 NROrb=    253 NOA=    39 NOB=    39 NVA=   214 NVB=   214

 **** Warning!!: The largest alpha MO coefficient is  0.11123647D+02

 Leave Link  801 at Mon Jul 13 13:29:52 2020, MaxMem=  7784628224 cpu:               4.5 elap:               0.6
 (Enter /gpfs/loomis/apps/avx/software/Gaussian/16-C.01_AVX/g16/l914.exe)
 RHF ground state
 Keep R1, R2, and R3 ints in memory in canonical form, NReq=4262515490.
 FoFCou: FMM=F IPFlag=           0 FMFlag=           0 FMFlg1=           0
         NFxFlg=           0 DoJE=F BraDBF=F KetDBF=F FulRan=T
         wScrn=  0.000000 ICntrl=       600 IOpCl=  0 I1Cent=           0 NGrid=           0
         NMat0=    1 NMatS0=  37401 NMatT0=    0 NMatD0=    1 NMtDS0=    0 NMtDT0=    0
 Symmetry not used in FoFCou.
 Two-electron integral symmetry not used.
 MDV=  7784628224 DFT=T DoStab=F Mixed=T DoRPA=T DoScal=F NonHer=T
 NEqPCM:  Using equilibrium solvation (IEInf=0, Eps=   2.2280, EpsInf=   2.1319)
 Making orbital integer symmetry assigments:
    12 initial guesses have been made.
 Convergence on wavefunction:    0.000001000000000
 Davidson Disk Diagonalization:  ConvIn= 1.00D-06 SkipCon=T Conv= 1.00D-06.
 Max sub-space:  2000 roots to seek:    12 dimension of matrix:        16692
 Iteration     1 Dimension    12 NMult     0 NNew     12
 CISAX will form    12 AO SS matrices at one time.
 NMat=    12 NSing=    12 JSym2X= 0.
 Excitation Energies [eV] at current iteration:
 Root      1 :     3.922770623449009
 Root      2 :     4.935067243892668
 Root      3 :     5.139014092973822
 Root      4 :     5.178865717306860
 Root      5 :     5.991398403826707
 Root      6 :     6.203512004322606
 Root      7 :     6.308678841511533
 Root      8 :     6.488446290580750
 Root      9 :     6.878198014285227
 Root     10 :     7.193891480944693
 Root     11 :     7.322995465224962
 Root     12 :     7.948579112359818
 Iteration     2 Dimension    18 NMult    12 NNew      6
 CISAX will form     6 AO SS matrices at one time.
 NMat=     6 NSing=     6 JSym2X= 0.
 Root      1 not converged, maximum delta is    0.036348599048098
 Root      2 not converged, maximum delta is    0.144702053465927
 Root      3 not converged, maximum delta is    0.141655593105771
 Excitation Energies [eV] at current iteration:
 Root      1 :     3.443930132761632   Change is   -0.478840490687377
 Root      2 :     4.413493617633754   Change is   -0.521573626258914
 Root      3 :     4.738616780479301   Change is   -0.400397312494521
 Iteration     3 Dimension    24 NMult    18 NNew      6
 CISAX will form     6 AO SS matrices at one time.
 NMat=     6 NSing=     6 JSym2X= 0.
 Root      1 not converged, maximum delta is    0.023560165471470
 Root      2 not converged, maximum delta is    0.026392057573970
 Root      3 not converged, maximum delta is    0.033049712623812
 Excitation Energies [eV] at current iteration:
 Root      1 :     3.408266144082488   Change is   -0.035663988679144
 Root      2 :     4.380000238905176   Change is   -0.033493378728578
 Root      3 :     4.692282537185791   Change is   -0.046334243293509
 Iteration     4 Dimension    30 NMult    24 NNew      6
 CISAX will form     6 AO SS matrices at one time.
 NMat=     6 NSing=     6 JSym2X= 0.
 Root      1 not converged, maximum delta is    0.007706668678490
 Root      2 not converged, maximum delta is    0.008393883626528
 Root      3 not converged, maximum delta is    0.010740021171487
 Excitation Energies [eV] at current iteration:
 Root      1 :     3.404381723056864   Change is   -0.003884421025624
 Root      2 :     4.374659941495286   Change is   -0.005340297409891
 Root      3 :     4.686948061010699   Change is   -0.005334476175093
 Iteration     5 Dimension    36 NMult    30 NNew      6
 CISAX will form     6 AO SS matrices at one time.
 NMat=     6 NSing=     6 JSym2X= 0.
 Root      1 not converged, maximum delta is    0.002830773860152
 Root      2 not converged, maximum delta is    0.002685046451139
 Root      3 not converged, maximum delta is    0.003533765084255
 Excitation Energies [eV] at current iteration:
 Root      1 :     3.403980287656233   Change is   -0.000401435400631
 Root      2 :     4.374162742012617   Change is   -0.000497199482669
 Root      3 :     4.686193425177638   Change is   -0.000754635833060
 Iteration     6 Dimension    42 NMult    36 NNew      6
 CISAX will form     6 AO SS matrices at one time.
 NMat=     6 NSing=     6 JSym2X= 0.
 Root      1 not converged, maximum delta is    0.000577427064544
 Root      2 not converged, maximum delta is    0.000653102984177
 Root      3 not converged, maximum delta is    0.001644731408708
 Excitation Energies [eV] at current iteration:
 Root      1 :     3.403939072906013   Change is   -0.000041214750219
 Root      2 :     4.374120154958862   Change is   -0.000042587053754
 Root      3 :     4.686107638033808   Change is   -0.000085787143831
 Iteration     7 Dimension    48 NMult    42 NNew      6
 CISAX will form     6 AO SS matrices at one time.
 NMat=     6 NSing=     6 JSym2X= 0.
 Root      1 not converged, maximum delta is    0.000100385414776
 Root      2 not converged, maximum delta is    0.000219313200808
 Root      3 not converged, maximum delta is    0.000574147903740
 Excitation Energies [eV] at current iteration:
 Root      1 :     3.403936177930728   Change is   -0.000002894975286
 Root      2 :     4.374116249189081   Change is   -0.000003905769782
 Root      3 :     4.686097879463910   Change is   -0.000009758569897
 Iteration     8 Dimension    54 NMult    48 NNew      6
 CISAX will form     6 AO SS matrices at one time.
 NMat=     6 NSing=     6 JSym2X= 0.
 Root      1 not converged, maximum delta is    0.000025684169496
 Root      2 not converged, maximum delta is    0.000046200556239
 Root      3 not converged, maximum delta is    0.000116861801860
 Excitation Energies [eV] at current iteration:
 Root      1 :     3.403936039193981   Change is   -0.000000138736747
 Root      2 :     4.374115960867404   Change is   -0.000000288321677
 Root      3 :     4.686096952841055   Change is   -0.000000926622855
 Iteration     9 Dimension    60 NMult    54 NNew      6
 CISAX will form     6 AO SS matrices at one time.
 NMat=     6 NSing=     6 JSym2X= 0.
 Root      1 not converged, maximum delta is    0.000004553831042
 Root      2 not converged, maximum delta is    0.000014763259997
 Root      3 not converged, maximum delta is    0.000018665512877
 Excitation Energies [eV] at current iteration:
 Root      1 :     3.403936031568801   Change is   -0.000000007625180
 Root      2 :     4.374115939247006   Change is   -0.000000021620398
 Root      3 :     4.686096888678785   Change is   -0.000000064162270
 Iteration    10 Dimension    66 NMult    60 NNew      6
 CISAX will form     6 AO SS matrices at one time.
 NMat=     6 NSing=     6 JSym2X= 0.
 Root      1 has converged.
 Root      2 not converged, maximum delta is    0.000002584801404
 Root      3 not converged, maximum delta is    0.000004439859940
 Excitation Energies [eV] at current iteration:
 Root      1 :     3.403936031337485   Change is   -0.000000000231316
 Root      2 :     4.374115938007893   Change is   -0.000000001239113
 Root      3 :     4.686096885240841   Change is   -0.000000003437944
 Iteration    11 Dimension    70 NMult    66 NNew      4
 CISAX will form     4 AO SS matrices at one time.
 NMat=     4 NSing=     4 JSym2X= 0.
 Root      1 has converged.
 Root      2 has converged.
 Root      3 has converged.
 Excitation Energies [eV] at current iteration:
 Root      1 :     3.403936031336471   Change is   -0.000000000001014
 Root      2 :     4.374115937933280   Change is   -0.000000000074613
 Root      3 :     4.686096885043940   Change is   -0.000000000196901
 Convergence achieved on expansion vectors.
 ***********************************************************************
 Excited states from <AA,BB:AA,BB> singles matrix:
 ***********************************************************************
 
 1PDM for each excited state written to RWF  633
 Ground to excited state transition densities written to RWF  633
 Ground to excited state transition electric dipole moments (Au):
       state          X           Y           Z        Dip. S.      Osc.
         1        -1.4943      2.1566      0.0000      6.8839      0.5741
         2         1.4454     -0.6315     -0.0000      2.4880      0.2666
         3        -0.8133     -0.0221      0.0000      0.6619      0.0760
 Ground to excited state transition velocity dipole moments (Au):
       state          X           Y           Z        Dip. S.      Osc.
         1         0.1814     -0.2701     -0.0000      0.1059      0.5641
         2        -0.2279      0.0928      0.0000      0.0605      0.2511
         3         0.1385      0.0037     -0.0000      0.0192      0.0743
 Ground to excited state transition magnetic dipole moments (Au):
       state          X           Y           Z
         1        -0.0000     -0.0000      0.7180
         2         0.0000     -0.0000      1.2878
         3         0.0000     -0.0000     -0.0092
 Ground to excited state transition velocity quadrupole moments (Au):
       state          XX          YY          ZZ          XY          XZ          YZ
         1        -0.0195     -0.5195      0.0137      0.2613      0.0000     -0.0000
         2         0.3583     -0.7358      0.0028      0.0929     -0.0000     -0.0000
         3         0.3969     -0.0128     -0.0260     -0.2560     -0.0000     -0.0000
 <0|del|b> * <b|rxdel|0> + <0|del|b> * <b|delr+rdel|0>
 Rotatory Strengths (R) in cgs (10**-40 erg-esu-cm/Gauss)
       state          XX          YY          ZZ    R(velocity)    E-M Angle
         1         0.0109     -0.0117      0.0190      0.0061       90.00
         2         0.0031      0.0027     -0.0074     -0.0005       90.00
         3         0.0000      0.0023      0.0025      0.0016       90.00
 1/2[<0|r|b>*<b|rxdel|0> + (<0|rxdel|b>*<b|r|0>)*]
 Rotatory Strengths (R) in cgs (10**-40 erg-esu-cm/Gauss)
       state          XX          YY          ZZ     R(length)
         1        -0.0025      0.0357     -0.0158      0.0058
         2        -0.0062     -0.0015      0.0062     -0.0005
         3         0.0050     -0.0002      0.0000      0.0016
  1/2[<0|del|b>*<b|r|0> + (<0|r|b>*<b|del|0>)*] (Au)
       state          X           Y           Z        Dip. S.   Osc.(frdel)
         1        -0.2711     -0.5825     -0.0000      0.8535      0.5690
         2        -0.3294     -0.0586     -0.0000      0.3880      0.2586
         3        -0.1127     -0.0001     -0.0000      0.1127      0.0752

 Excitation energies and oscillator strengths:
 
 Excited state symmetry could not be determined.
 Excited State   1:      Singlet-?Sym    3.4039 eV  364.24 nm  f=0.5741  <S**2>=0.000
      59 -> 60         0.69107
 This state for optimization and/or second-order correction.
 Total Energy, E(TD-HF/TD-DFT) =  -1028.68979749    
 Copying the excited state density for this state as the 1-particle RhoCI density.
 
 Excited state symmetry could not be determined.
 Excited State   2:      Singlet-?Sym    4.3741 eV  283.45 nm  f=0.2666  <S**2>=0.000
      57 -> 60         0.17777
      58 -> 60         0.64670
      59 -> 62         0.10131
      59 -> 64         0.10497
 
 Excited state symmetry could not be determined.
 Excited State   3:      Singlet-?Sym    4.6861 eV  264.58 nm  f=0.0760  <S**2>=0.000
      55 -> 61        -0.10014
      57 -> 60         0.58550
      57 -> 62        -0.15144
      58 -> 60        -0.18055
      58 -> 61        -0.15944
      59 -> 61         0.21622
 SavETr:  write IOETrn=   770 NScale= 10 NData=  16 NLR=1 NState=    3 LETran=      64.
 The selected state is a singlet.
 CISGrd: IGrad=2 NXY=2 DFT=T
 CISAX will form     1 AO SS matrices at one time.
 NMat=     1 NSing=     1 JSym2X= 0.
 GePol: Maximum number of non-zero 1st derivatives   =     259
 Leave Link  914 at Mon Jul 13 13:32:37 2020, MaxMem=  7784628224 cpu:            1593.9 elap:             164.5
 (Enter /gpfs/loomis/apps/avx/software/Gaussian/16-C.01_AVX/g16/l1002.exe)
 Minotr:  Closed shell wavefunction.
          Computing CIS/TDA/TD derivatives.
          Using Z-Vector for PSCF gradient.
          Skipping F1 and S1 gradient terms here.
          IDoAtm=1111111111111111111111111
 NEqPCM:  Using equilibrium solvation (IEInf=0, Eps=   2.2280, EpsInf=   2.1319)
          Frozen-core window.
          Direct CPHF calculation.
          Differentiating once with respect to electric field.
                with respect to dipole field.
          Differentiating once with respect to nuclear coordinates.
          Requested convergence is 1.0D-10 RMS, and 1.0D-09 maximum.
          NewPWx=F KeepS1=T KeepF1=T KeepIn=T MapXYZ=F SortEE=F KeepMc=T.
 Keep R1 ints in memory in canonical form, NReq=1421424236.
 FoFCou: FMM=F IPFlag=           0 FMFlag=           0 FMFlg1=           0
         NFxFlg=           0 DoJE=F BraDBF=F KetDBF=F FulRan=T
         wScrn=  0.000000 ICntrl=       600 IOpCl=  0 I1Cent=           0 NGrid=           0
         NMat0=    1 NMatS0=  37401 NMatT0=    0 NMatD0=    1 NMtDS0=    0 NMtDT0=    0
 Symmetry not used in FoFCou.
 Two-electron integral symmetry not used.
          MDV=    7784628224 using IRadAn=       5.
          Solving linear equations separately, MaxMat=       0.
          There are     1 degrees of freedom in the 1st order CPHF.  IDoFFX=0 NUNeed=     1.
 LinEq1:  Iter=  0 NonCon=     1 RMS=4.81D-03 Max=2.25D-01 NDo=     1
 AX will form     1 AO Fock derivatives at one time.
 LinEq1:  Iter=  1 NonCon=     1 RMS=1.92D-03 Max=7.78D-02 NDo=     1
 LinEq1:  Iter=  2 NonCon=     1 RMS=1.17D-03 Max=4.24D-02 NDo=     1
 LinEq1:  Iter=  3 NonCon=     1 RMS=4.28D-04 Max=1.35D-02 NDo=     1
 LinEq1:  Iter=  4 NonCon=     1 RMS=2.27D-04 Max=9.10D-03 NDo=     1
 LinEq1:  Iter=  5 NonCon=     1 RMS=1.23D-04 Max=5.41D-03 NDo=     1
 LinEq1:  Iter=  6 NonCon=     1 RMS=5.69D-05 Max=2.35D-03 NDo=     1
 LinEq1:  Iter=  7 NonCon=     1 RMS=3.29D-05 Max=1.05D-03 NDo=     1
 LinEq1:  Iter=  8 NonCon=     1 RMS=1.32D-05 Max=4.15D-04 NDo=     1
 LinEq1:  Iter=  9 NonCon=     1 RMS=7.22D-06 Max=2.22D-04 NDo=     1
 LinEq1:  Iter= 10 NonCon=     1 RMS=2.57D-06 Max=6.73D-05 NDo=     1
 LinEq1:  Iter= 11 NonCon=     1 RMS=1.30D-06 Max=4.80D-05 NDo=     1
 LinEq1:  Iter= 12 NonCon=     1 RMS=5.96D-07 Max=1.63D-05 NDo=     1
 LinEq1:  Iter= 13 NonCon=     1 RMS=2.70D-07 Max=7.75D-06 NDo=     1
 LinEq1:  Iter= 14 NonCon=     1 RMS=1.05D-07 Max=3.54D-06 NDo=     1
 LinEq1:  Iter= 15 NonCon=     1 RMS=4.76D-08 Max=1.27D-06 NDo=     1
 LinEq1:  Iter= 16 NonCon=     1 RMS=1.86D-08 Max=5.40D-07 NDo=     1
 LinEq1:  Iter= 17 NonCon=     1 RMS=8.86D-09 Max=2.24D-07 NDo=     1
 LinEq1:  Iter= 18 NonCon=     1 RMS=3.50D-09 Max=1.07D-07 NDo=     1
 LinEq1:  Iter= 19 NonCon=     1 RMS=1.11D-09 Max=2.63D-08 NDo=     1
 LinEq1:  Iter= 20 NonCon=     1 RMS=4.19D-10 Max=8.91D-09 NDo=     1
 LinEq1:  Iter= 21 NonCon=     1 RMS=2.02D-10 Max=5.57D-09 NDo=     1
 LinEq1:  Iter= 22 NonCon=     1 RMS=8.20D-11 Max=1.72D-09 NDo=     1
 LinEq1:  Iter= 23 NonCon=     1 RMS=4.35D-11 Max=1.14D-09 NDo=     1
 LinEq1:  Iter= 24 NonCon=     0 RMS=1.63D-11 Max=5.91D-10 NDo=     1
 Linear equations converged to 1.000D-10 1.000D-09 after    24 iterations.
 End of Minotr F.D. properties file   721 does not exist.
 End of Minotr F.D. properties file   722 does not exist.
 End of Minotr F.D. properties file   788 does not exist.
 Leave Link 1002 at Mon Jul 13 13:34:20 2020, MaxMem=  7784628224 cpu:             765.8 elap:             103.9
 (Enter /gpfs/loomis/apps/avx/software/Gaussian/16-C.01_AVX/g16/l601.exe)
 Copying SCF densities to generalized density rwf, IOpCl= 0 IROHF=0.

 **********************************************************************

            Population analysis using the SCF Density.

 **********************************************************************

 Alpha  occ. eigenvalues --  -89.09150 -19.26562 -14.48184 -10.40028 -10.37708
 Alpha  occ. eigenvalues --  -10.35855 -10.34959 -10.32402 -10.32227 -10.32015
 Alpha  occ. eigenvalues --  -10.31943 -10.31836 -10.31707 -10.31651 -10.30310
 Alpha  occ. eigenvalues --  -10.30217  -8.11215  -6.06055  -6.05710  -6.05272
 Alpha  occ. eigenvalues --   -1.15458  -1.08835  -0.96864  -0.95731  -0.92373
 Alpha  occ. eigenvalues --   -0.88810  -0.85297  -0.84050  -0.82377  -0.75850
 Alpha  occ. eigenvalues --   -0.71243  -0.70570  -0.68944  -0.67916  -0.63563
 Alpha  occ. eigenvalues --   -0.60657  -0.59044  -0.58421  -0.55681  -0.54345
 Alpha  occ. eigenvalues --   -0.54258  -0.53309  -0.52968  -0.50777  -0.50002
 Alpha  occ. eigenvalues --   -0.49600  -0.46998  -0.46141  -0.45678  -0.44835
 Alpha  occ. eigenvalues --   -0.44208  -0.42652  -0.42586  -0.40338  -0.36484
 Alpha  occ. eigenvalues --   -0.36397  -0.32306  -0.31301  -0.27942
 Alpha virt. eigenvalues --   -0.01749   0.04782   0.06673   0.07506   0.07519
 Alpha virt. eigenvalues --    0.10835   0.14471   0.15064   0.16755   0.17921
 Alpha virt. eigenvalues --    0.18618   0.20994   0.21539   0.22289   0.22399
 Alpha virt. eigenvalues --    0.23666   0.23955   0.24413   0.28035   0.29836
 Alpha virt. eigenvalues --    0.32373   0.33257   0.35029   0.35743   0.37028
 Alpha virt. eigenvalues --    0.38137   0.38939   0.40720   0.42928   0.43236
 Alpha virt. eigenvalues --    0.47160   0.47813   0.50598   0.51388   0.51446
 Alpha virt. eigenvalues --    0.52096   0.53308   0.53949   0.54341   0.55392
 Alpha virt. eigenvalues --    0.56064   0.56525   0.56711   0.57470   0.58254
 Alpha virt. eigenvalues --    0.58399   0.58519   0.58688   0.59405   0.60515
 Alpha virt. eigenvalues --    0.60561   0.60811   0.61881   0.62688   0.63134
 Alpha virt. eigenvalues --    0.64937   0.65728   0.66642   0.67359   0.69077
 Alpha virt. eigenvalues --    0.70060   0.70890   0.72196   0.72488   0.72872
 Alpha virt. eigenvalues --    0.73035   0.74544   0.75208   0.75972   0.78334
 Alpha virt. eigenvalues --    0.78895   0.79088   0.80170   0.81432   0.82207
 Alpha virt. eigenvalues --    0.84219   0.88643   0.90375   0.91298   0.93680
 Alpha virt. eigenvalues --    0.94937   0.95032   0.95818   0.96748   0.97219
 Alpha virt. eigenvalues --    0.98122   0.98775   1.00414   1.00447   1.01860
 Alpha virt. eigenvalues --    1.02452   1.05604   1.06502   1.07307   1.07435
 Alpha virt. eigenvalues --    1.08144   1.09436   1.09679   1.10667   1.11649
 Alpha virt. eigenvalues --    1.12219   1.12770   1.13807   1.14821   1.15515
 Alpha virt. eigenvalues --    1.15819   1.19791   1.20183   1.22212   1.22357
 Alpha virt. eigenvalues --    1.25498   1.29225   1.33222   1.34071   1.34857
 Alpha virt. eigenvalues --    1.36081   1.37049   1.38767   1.40892   1.47691
 Alpha virt. eigenvalues --    1.48794   1.49051   1.50540   1.54283   1.54676
 Alpha virt. eigenvalues --    1.55550   1.56534   1.57068   1.57460   1.57949
 Alpha virt. eigenvalues --    1.58918   1.60433   1.62655   1.66025   1.66565
 Alpha virt. eigenvalues --    1.68488   1.69290   1.69755   1.70097   1.70981
 Alpha virt. eigenvalues --    1.72221   1.72544   1.73135   1.73433   1.75636
 Alpha virt. eigenvalues --    1.76616   1.78418   1.79977   1.81227   1.82565
 Alpha virt. eigenvalues --    1.82879   1.83103   1.84496   1.84788   1.85098
 Alpha virt. eigenvalues --    1.86797   1.88215   1.88235   1.88855   1.91970
 Alpha virt. eigenvalues --    1.92391   1.92747   1.93471   1.94814   1.96436
 Alpha virt. eigenvalues --    1.99120   2.00133   2.01245   2.02756   2.03516
 Alpha virt. eigenvalues --    2.04708   2.07904   2.08925   2.11265   2.13030
 Alpha virt. eigenvalues --    2.16360   2.17223   2.20376   2.20549   2.23986
 Alpha virt. eigenvalues --    2.26276   2.28019   2.31150   2.37497   2.39379
 Alpha virt. eigenvalues --    2.41321   2.41462   2.43421   2.44753   2.46938
 Alpha virt. eigenvalues --    2.47728   2.50095   2.51408   2.53212   2.61951
 Alpha virt. eigenvalues --    2.62923   2.72263   2.72945   2.75313   2.79401
 Alpha virt. eigenvalues --    2.81197   2.83848   2.85455   2.89654   2.92456
 Alpha virt. eigenvalues --    2.95295   3.03536   3.08435   3.16185   3.35686
 Alpha virt. eigenvalues --    3.45293   3.55889   3.65556   3.90082
          Condensed to atoms (all electrons):
               1          2          3          4          5          6
     1  C    4.739343   0.474625   0.007436  -0.052572  -0.014880   0.520835
     2  C    0.474625   5.301311   0.343055  -0.036255  -0.067194  -0.008600
     3  C    0.007436   0.343055   4.786813   0.491701  -0.004474  -0.062857
     4  C   -0.052572  -0.036255   0.491701   4.778996   0.523063  -0.012143
     5  C   -0.014880  -0.067194  -0.004474   0.523063   4.735127   0.492747
     6  C    0.520835  -0.008600  -0.062857  -0.012143   0.492747   4.740569
     7  H    0.401377  -0.037248   0.008471  -0.000561   0.008012  -0.039751
     8  H   -0.000790   0.011524  -0.033477   0.394709  -0.042592   0.007763
     9  H    0.008989  -0.000699   0.008594  -0.038648   0.404613  -0.045423
    10  H   -0.042365   0.009426  -0.000476   0.008350  -0.042793   0.406279
    11  N    0.006688  -0.057452   0.441662  -0.038725   0.003074  -0.000003
    12  S   -0.070040   0.336328  -0.106761   0.006706   0.000278   0.003946
    13  C   -0.000205   0.002921   0.007688  -0.000569   0.000008   0.000003
    14  C   -0.000010   0.000138   0.000267   0.000006  -0.000000  -0.000000
    15  C    0.000005  -0.000313   0.000256   0.000033  -0.000000  -0.000000
    16  C    0.000000  -0.000006   0.000005  -0.000000   0.000000   0.000000
    17  H   -0.000009   0.000167   0.000000   0.000000   0.000000   0.000000
    18  C    0.000000   0.000007  -0.000017  -0.000000  -0.000000  -0.000000
    19  C   -0.000000   0.000000   0.000001   0.000000   0.000000   0.000000
    20  H   -0.000000  -0.000000  -0.000000   0.000000  -0.000000  -0.000000
    21  H   -0.000000  -0.000000   0.000000   0.000000  -0.000000   0.000000
    22  H    0.000000  -0.000000  -0.000000  -0.000000   0.000000  -0.000000
    23  C    0.004173  -0.051042  -0.121867  -0.000197   0.000273  -0.000181
    24  O    0.000001  -0.000054  -0.001870  -0.000054  -0.000000  -0.000000
    25  H   -0.000047   0.003509  -0.010141  -0.000808  -0.000026   0.000010
               7          8          9         10         11         12
     1  C    0.401377  -0.000790   0.008989  -0.042365   0.006688  -0.070040
     2  C   -0.037248   0.011524  -0.000699   0.009426  -0.057452   0.336328
     3  C    0.008471  -0.033477   0.008594  -0.000476   0.441662  -0.106761
     4  C   -0.000561   0.394709  -0.038648   0.008350  -0.038725   0.006706
     5  C    0.008012  -0.042592   0.404613  -0.042793   0.003074   0.000278
     6  C   -0.039751   0.007763  -0.045423   0.406279  -0.000003   0.003946
     7  H    0.658260   0.000033  -0.000157  -0.011314  -0.000100  -0.007663
     8  H    0.000033   0.654299  -0.012593  -0.000113  -0.001859  -0.000177
     9  H   -0.000157  -0.012593   0.665247  -0.012167  -0.000096   0.000021
    10  H   -0.011314  -0.000113  -0.012167   0.662439   0.000001  -0.000165
    11  N   -0.000100  -0.001859  -0.000096   0.000001   6.497316  -0.067756
    12  S   -0.007663  -0.000177   0.000021  -0.000165  -0.067756  15.473266
    13  C    0.000001   0.000035  -0.000000  -0.000000  -0.017477  -0.063074
    14  C    0.000001   0.000001   0.000000  -0.000000   0.003483  -0.010949
    15  C   -0.000000  -0.000016   0.000000   0.000000  -0.016325   0.004895
    16  C    0.000000   0.000000  -0.000000  -0.000000  -0.000079   0.000236
    17  H    0.000002   0.000000  -0.000000  -0.000000   0.000227   0.008710
    18  C   -0.000000  -0.000000   0.000000  -0.000000  -0.000619  -0.000194
    19  C    0.000000   0.000000  -0.000000  -0.000000   0.000040   0.000027
    20  H    0.000000   0.000000   0.000000   0.000000   0.000001   0.000009
    21  H   -0.000000   0.000000  -0.000000   0.000000   0.000015   0.000004
    22  H    0.000000  -0.000000  -0.000000  -0.000000  -0.000000  -0.000000
    23  C    0.000147  -0.000842   0.000007   0.000005   0.527373   0.317965
    24  O   -0.000000  -0.000138   0.000000  -0.000000  -0.072891  -0.000264
    25  H    0.000002   0.001005  -0.000004  -0.000000   0.145763   0.003162
              13         14         15         16         17         18
     1  C   -0.000205  -0.000010   0.000005   0.000000  -0.000009   0.000000
     2  C    0.002921   0.000138  -0.000313  -0.000006   0.000167   0.000007
     3  C    0.007688   0.000267   0.000256   0.000005   0.000000  -0.000017
     4  C   -0.000569   0.000006   0.000033  -0.000000   0.000000  -0.000000
     5  C    0.000008  -0.000000  -0.000000   0.000000   0.000000  -0.000000
     6  C    0.000003  -0.000000  -0.000000   0.000000   0.000000  -0.000000
     7  H    0.000001   0.000001  -0.000000   0.000000   0.000002  -0.000000
     8  H    0.000035   0.000001  -0.000016   0.000000   0.000000  -0.000000
     9  H   -0.000000   0.000000   0.000000  -0.000000  -0.000000   0.000000
    10  H   -0.000000  -0.000000   0.000000  -0.000000  -0.000000  -0.000000
    11  N   -0.017477   0.003483  -0.016325  -0.000079   0.000227  -0.000619
    12  S   -0.063074  -0.010949   0.004895   0.000236   0.008710  -0.000194
    13  C    5.311974   0.473647   0.269266  -0.008948  -0.036644  -0.045056
    14  C    0.473647   4.821515  -0.003462   0.532530   0.398275  -0.054940
    15  C    0.269266  -0.003462   4.767039  -0.057444   0.006673   0.492502
    16  C   -0.008948   0.532530  -0.057444   4.740453  -0.032550  -0.019007
    17  H   -0.036644   0.398275   0.006673  -0.032550   0.662688  -0.000645
    18  C   -0.045056  -0.054940   0.492502  -0.019007  -0.000645   4.823977
    19  C   -0.052758  -0.020194  -0.008427   0.493182   0.007993   0.515977
    20  H    0.008812  -0.035430  -0.000186   0.401126  -0.012064   0.008150
    21  H    0.013213  -0.000519  -0.024066   0.007200   0.000044   0.377998
    22  H   -0.001312   0.009558   0.008903  -0.043979  -0.000169  -0.041761
    23  C    0.344757  -0.088598  -0.077792   0.006586  -0.021897   0.007756
    24  O   -0.091080   0.004663   0.546471  -0.000043  -0.000060  -0.056954
    25  H   -0.024129  -0.000821  -0.022051  -0.000005  -0.000018   0.003796
              19         20         21         22         23         24
     1  C   -0.000000  -0.000000  -0.000000   0.000000   0.004173   0.000001
     2  C    0.000000  -0.000000  -0.000000  -0.000000  -0.051042  -0.000054
     3  C    0.000001  -0.000000   0.000000  -0.000000  -0.121867  -0.001870
     4  C    0.000000   0.000000   0.000000  -0.000000  -0.000197  -0.000054
     5  C    0.000000  -0.000000  -0.000000   0.000000   0.000273  -0.000000
     6  C    0.000000  -0.000000   0.000000  -0.000000  -0.000181  -0.000000
     7  H    0.000000   0.000000  -0.000000   0.000000   0.000147  -0.000000
     8  H    0.000000   0.000000   0.000000  -0.000000  -0.000842  -0.000138
     9  H   -0.000000   0.000000  -0.000000  -0.000000   0.000007   0.000000
    10  H   -0.000000   0.000000   0.000000  -0.000000   0.000005  -0.000000
    11  N    0.000040   0.000001   0.000015  -0.000000   0.527373  -0.072891
    12  S    0.000027   0.000009   0.000004  -0.000000   0.317965  -0.000264
    13  C   -0.052758   0.008812   0.013213  -0.001312   0.344757  -0.091080
    14  C   -0.020194  -0.035430  -0.000519   0.009558  -0.088598   0.004663
    15  C   -0.008427  -0.000186  -0.024066   0.008903  -0.077792   0.546471
    16  C    0.493182   0.401126   0.007200  -0.043979   0.006586  -0.000043
    17  H    0.007993  -0.012064   0.000044  -0.000169  -0.021897  -0.000060
    18  C    0.515977   0.008150   0.377998  -0.041761   0.007756  -0.056954
    19  C    4.721360  -0.046226  -0.044471   0.405704   0.000785   0.002912
    20  H   -0.046226   0.678206  -0.000142  -0.011995  -0.000381   0.000002
    21  H   -0.044471  -0.000142   0.663044  -0.012132  -0.000427   0.002960
    22  H    0.405704  -0.011995  -0.012132   0.664204  -0.000003  -0.000058
    23  C    0.000785  -0.000381  -0.000427  -0.000003   5.076384  -0.002975
    24  O    0.002912   0.000002   0.002960  -0.000058  -0.002975   7.661140
    25  H   -0.000184  -0.000001   0.000000   0.000008  -0.004101   0.288552
              25
     1  C   -0.000047
     2  C    0.003509
     3  C   -0.010141
     4  C   -0.000808
     5  C   -0.000026
     6  C    0.000010
     7  H    0.000002
     8  H    0.001005
     9  H   -0.000004
    10  H   -0.000000
    11  N    0.145763
    12  S    0.003162
    13  C   -0.024129
    14  C   -0.000821
    15  C   -0.022051
    16  C   -0.000005
    17  H   -0.000018
    18  C    0.003796
    19  C   -0.000184
    20  H   -0.000001
    21  H    0.000000
    22  H    0.000008
    23  C   -0.004101
    24  O    0.288552
    25  H    0.403893
 Mulliken charges:
               1
     1  C    0.017444
     2  C   -0.224150
     3  C    0.245989
     4  C   -0.023033
     5  C    0.004763
     6  C   -0.003195
     7  H    0.020490
     8  H    0.023229
     9  H    0.022317
    10  H    0.022893
    11  N   -0.352260
    12  S    0.171492
    13  C   -0.091074
    14  C   -0.029162
    15  C    0.114037
    16  C   -0.019260
    17  H    0.019277
    18  C   -0.010968
    19  C    0.024278
    20  H    0.010119
    21  H    0.017277
    22  H    0.023033
    23  C    0.084092
    24  O   -0.280261
    25  H    0.212635
 Sum of Mulliken charges =  -0.00000
 Mulliken charges with hydrogens summed into heavy atoms:
               1
     1  C    0.037934
     2  C   -0.224150
     3  C    0.245989
     4  C    0.000196
     5  C    0.027080
     6  C    0.019697
    11  N   -0.352260
    12  S    0.171492
    13  C   -0.091074
    14  C   -0.009886
    15  C    0.114037
    16  C   -0.009141
    18  C    0.006309
    19  C    0.047311
    23  C    0.084092
    24  O   -0.067626
 Electronic spatial extent (au):  <R**2>=           4329.0061
 Charge=             -0.0000 electrons
 Dipole moment (field-independent basis, Debye):
    X=             -0.1505    Y=             -2.9609    Z=             -0.0000  Tot=              2.9647
 Quadrupole moment (field-independent basis, Debye-Ang):
   XX=            -83.1384   YY=            -90.5487   ZZ=           -104.3280
   XY=             -7.0154   XZ=             -0.0001   YZ=             -0.0000
 Traceless Quadrupole moment (field-independent basis, Debye-Ang):
   XX=              9.5333   YY=              2.1230   ZZ=            -11.6563
   XY=             -7.0154   XZ=             -0.0001   YZ=             -0.0000
 Octapole moment (field-independent basis, Debye-Ang**2):
  XXX=             12.6985  YYY=            -28.4198  ZZZ=              0.0000  XYY=             -5.7888
  XXY=              1.0535  XXZ=              0.0001  XZZ=              1.2295  YZZ=              3.2900
  YYZ=              0.0001  XYZ=             -0.0005
[...]
 .00000744,0.,-0.00735618,0.00938967,0.00000046,-0.00168371,0.00195698,
 0.00000001,-0.05030357,0.01698692,-0.00000003,-0.21857593,0.14236661,-
 0.00000042,0.00923078,0.00158679,0.00000014,0.73851674,-0.00044581,-0.
 00236175,0.00000005,-0.01085072,-0.00490211,-0.00000002,-0.01181668,0.
 02025211,0.00000009,0.01156714,-0.00327447,-0.00000004,0.00066227,0.00
 891300,0.00000004,-0.00373627,-0.00320612,-0.00000001,0.00007408,0.000
 20909,0.00000001,-0.00015171,-0.00017835,0.,-0.00014560,0.00014765,0.,
 -0.00006741,-0.00001564,-0.00000001,0.01764076,-0.01875421,-0.00000058
 ,0.00217201,-0.00594495,0.00000004,0.05108428,0.03314017,-0.00000009,0
 .06240611,-0.23740314,0.00000015,-0.00118894,-0.00827879,0.00000082,0.
 01385268,0.63214312,0.00000003,-0.00000002,-0.00005955,-0.00000001,0.0
 0000007,-0.00009024,0.00000008,-0.00000010,-0.00010989,-0.00000005,0.0
 0000001,-0.00021076,0.,-0.00000002,-0.00003447,-0.00000002,0.00000002,
 0.00001947,0.,0.,-0.00003274,0.,0.,-0.00004099,0.,0.,0.00000756,0.,0.,
 0.00006330,-0.00000007,0.00000002,0.00210278,0.,0.00000001,-0.00001253
 ,0.00000034,-0.00000016,0.00275801,-0.00000089,0.00000091,-0.05213250,
 -0.00000007,0.00000008,-0.00418825,-0.00000038,-0.00000375,0.13127161,
 0.00030218,-0.00008678,0.,-0.00103921,0.00019021,-0.00000003,0.0002863
 1,0.00009543,0.,0.00013859,0.00009836,0.,0.00009999,0.00013840,0.,-0.0
 0012986,-0.00013552,0.,-0.00001912,-0.00000007,0.,0.00003167,-0.000001
 37,0.,0.00000705,-0.00000105,0.,0.00003451,-0.00001016,0.,0.00043575,0
 .00047128,0.,-0.00101742,0.00141637,0.00000016,-0.00395230,-0.02894274
 ,0.00000008,-0.08479645,-0.08500615,0.00000042,-0.00520938,0.00270513,
 0.00000012,0.01037352,0.02127536,-0.00000005,0.08653686,0.00010597,-0.
 00008768,0.,-0.00043056,0.00041873,0.,0.00012325,0.00051352,0.00000002
 ,0.00027010,-0.00000076,0.,0.00005134,0.00033881,0.,-0.00025773,-0.000
 18527,0.,-0.00001389,0.00001794,0.,0.00001726,-0.00001433,0.,-0.000006
 21,0.00000415,0.,0.00000242,0.00000366,0.,0.00049338,0.00017229,0.,0.0
 0087891,-0.00121566,-0.00000008,0.00190409,-0.00320864,-0.00000004,-0.
 08517785,-0.31816464,0.00000081,0.00020773,0.00193069,0.00000007,-0.00
 994109,-0.01739168,0.00000005,0.08834216,0.33741120,-0.00000004,0.0000
 0003,-0.00004294,0.00000006,-0.00000004,-0.00043632,0.,0.00000002,0.00
 015579,0.,0.,0.00011606,0.,-0.00000003,0.00000305,0.00000004,0.,0.0000
 2409,0.,0.,0.00000553,0.,0.,0.00001788,0.,0.,0.00000095,0.,0.,-0.00001
 007,0.00000002,0.00000006,-0.00147968,0.00000012,-0.00000006,0.0010071
 8,-0.00000042,0.00000009,0.00314554,0.00000083,0.00000069,-0.03047997,
 0.00000010,-0.00000007,0.00676785,-0.00000012,0.00000028,0.00251248,-0
 .00000051,-0.00000083,0.01976512,-0.00199177,0.00143624,0.00000008,-0.
 00134631,-0.00253190,-0.00000005,-0.00364267,0.00963134,-0.00000003,0.
 00424301,-0.00096140,0.,-0.00029297,0.00094788,0.,0.00204179,-0.000830
 84,-0.00000001,-0.00012183,0.00008752,0.,0.00009663,-0.00001208,0.,0.0
 0010388,-0.00000883,0.,0.00008302,-0.00005063,-0.00000002,0.01095373,0
 .00375488,0.00000058,-0.00144611,-0.00254945,0.00000001,0.01528100,0.0
 2467304,-0.00000029,-0.01945735,0.02121632,-0.00000017,-0.18088169,0.0
 7674049,-0.00000069,-0.00885285,-0.05669407,0.00000016,-0.00038838,-0.
 00009643,0.00000009,0.69781937,0.00038367,-0.00044190,0.,-0.00293507,-
 0.00216178,0.00000003,-0.00130371,0.00447548,0.00000012,0.00144713,-0.
 00037843,0.,0.00038375,0.00153991,0.,-0.00095701,-0.00089185,0.,0.0000
 0059,0.00007932,0.,-0.00007778,-0.00003789,0.,-0.00002155,0.00000482,0
 .,0.00001769,-0.00000374,0.,0.00662028,-0.00200971,-0.00000031,0.00136
 208,-0.00420432,-0.00000014,0.02528167,-0.03698404,0.00000037,-0.00567
 991,0.00265250,-0.00000015,0.10713237,-0.24628176,0.00000158,-0.032081
 05,-0.01759554,0.00000006,-0.00034920,0.00044149,-0.00000006,0.0403098
 1,0.72456141,0.00000003,0.00000001,0.00010977,0.00000003,0.00000009,0.
 00084584,0.00000015,-0.00000007,0.00191279,-0.00000002,-0.00000001,-0.
 00038042,0.00000001,0.,-0.00007697,-0.00000002,0.00000004,-0.00010781,
 0.,0.,0.00009993,0.,0.,0.00009038,0.,0.,0.00003329,0.,0.,-0.00005706,-
 0.00000008,0.00000056,-0.00542071,-0.00000007,-0.00000007,0.00022248,-
 0.00000004,-0.00000006,0.01211008,-0.00000035,0.00000019,-0.00212892,-
 0.00000090,0.00000118,-0.06464439,0.00000021,-0.00000014,0.00507986,-0
 .00000002,-0.00000002,-0.00080712,0.00000457,-0.00000141,0.11105590,0.
 00192646,-0.00006893,-0.00000006,0.00633420,0.00529748,0.00000003,0.00
 981315,-0.01891253,-0.00000010,-0.00911881,0.00251311,0.00000003,-0.00
 003296,-0.00525533,-0.00000002,0.00015926,0.00271038,0.00000001,0.0000
 5571,-0.00012021,-0.00000001,0.00003815,0.00008610,0.,-0.00005555,-0.0
 0003651,0.,-0.00003150,0.00005871,0.00000001,-0.02096242,0.01090847,0.
 00000021,0.00169976,0.00470445,-0.00000006,-0.01594554,-0.02207384,0.0
 0000016,0.05299251,-0.00034196,0.00000001,-0.04375626,0.02293346,-0.00
 000112,-0.13933743,-0.01479186,0.00000041,-0.00286081,0.00459112,-0.00
 000012,-0.35141654,-0.07164214,-0.00000135,0.70473749,0.00058106,-0.00
 024496,-0.00000003,-0.00136038,-0.00063156,0.00000002,0.00111490,0.001
 34438,0.00000014,-0.00032876,0.00010314,-0.00000001,0.00019903,0.00045
 494,0.,-0.00063960,-0.00077696,0.,-0.00000126,0.00003386,0.,-0.0000353
 6,-0.00004682,0.,-0.00000223,-0.00001817,0.,-0.00000227,0.00002341,0.,
 0.00316372,0.00263506,-0.00000009,-0.00103209,-0.00114470,-0.00000005,
 -0.01488506,-0.01762733,0.00000030,0.03347539,-0.05830666,0.00000069,0
 .01575224,0.03024965,-0.00000040,-0.08506379,-0.29971600,0.00000229,0.
 00327431,-0.00065690,-0.00000008,-0.03442411,-0.12791346,-0.00000024,-
 0.04151765,0.68591182,0.,0.,0.00016053,0.00000005,0.00000002,-0.000444
 00,0.00000002,-0.00000011,-0.00096246,-0.00000005,0.00000002,0.0000863
 0,0.,-0.00000003,0.00008678,0.,0.00000002,0.00000610,0.,0.,-0.00003792
 ,0.,0.,-0.00011289,0.,0.,0.00000086,0.,0.,0.00000786,-0.00000022,-0.00
 000010,0.00131062,0.00000007,0.00000006,0.00056861,0.,-0.00000015,-0.0
 0315115,0.00000004,0.00000049,0.00922066,-0.00000050,0.00000037,0.0019
 4226,0.00000051,0.00000221,-0.05967543,-0.00000004,0.00000006,0.005084
 69,-0.00000106,-0.00000022,-0.04962246,0.00000272,-0.00000454,0.113613
 98,0.00005366,-0.00009365,0.,-0.00009983,0.00009862,0.,0.00000719,-0.0
 0009434,0.,-0.00000161,0.00002767,0.,0.00001921,0.00009306,0.,-0.00014
 866,0.00000433,0.,0.00000737,0.00000734,0.,-0.00000557,-0.00000652,0.,
 -0.00001262,0.00000731,0.,-0.00000862,0.00000591,0.,-0.00020423,0.0004
 2744,0.00000002,0.00007273,-0.00007648,0.,-0.00020394,0.00353419,0.,-0
 .01478463,-0.00841612,0.00000007,0.00051874,0.00025877,0.,-0.33272913,
 -0.06360607,0.00000042,0.00078642,0.00004698,0.,0.00161503,-0.00132686
 ,0.00000003,-0.00416952,0.00189714,-0.00000004,0.34970083,0.00000034,-
 0.00000834,0.,-0.00010785,-0.00012152,0.,-0.00001374,0.00028933,0.,0.0
 0010617,-0.00007259,0.,0.00002091,0.00008501,0.,-0.00002712,-0.0000403
 8,0.,0.00000077,0.00000030,0.,-0.00000160,-0.00000100,0.,0.00000086,-0
 .00000264,0.,0.00000134,-0.00000095,0.,0.00046110,-0.00039637,-0.00000
 002,0.00003230,-0.00002302,0.,0.00369406,-0.00346511,0.00000003,0.0222
 2667,0.00913119,0.,0.00053584,-0.00114935,0.00000001,-0.06403268,-0.07
 406915,0.00000035,-0.00022332,0.00082194,-0.00000001,-0.00052607,-0.00
 541428,0.00000009,-0.02936930,-0.00105465,0.00000002,0.06804121,0.0732
 8942,0.,0.,-0.00003857,0.00000003,0.00000003,0.00004676,0.00000003,-0.
 00000007,0.00049167,-0.00000003,0.,0.00014460,0.,-0.00000002,-0.000070
 11,0.,0.00000001,0.00001721,0.,0.,0.00000780,0.,0.,0.00003650,0.,0.,-0
 .00003069,0.,0.,0.00000054,-0.00000008,0.00000007,-0.00073611,-0.00000
 001,0.00000002,-0.00012964,-0.00000008,0.00000008,0.00644082,0.0000000
 1,-0.00000027,0.00692317,-0.00000002,0.,-0.00113556,0.00000035,0.00000
 055,-0.03854937,0.,-0.00000001,-0.00360494,0.00000003,0.00000017,0.004
 97011,0.00000021,-0.00000008,0.00611323,-0.00000046,-0.00000040,0.0232
 8403,-0.00011652,0.00004143,0.,0.00012561,0.00005603,0.,-0.00014422,0.
 00005395,0.,0.00004446,-0.00000419,0.,-0.00002383,-0.00002944,0.,0.000
 08484,0.00001219,0.,0.00000060,-0.00000625,0.,-0.00000304,0.00000220,0
 .,0.00000284,-0.00000071,0.,-0.00000304,-0.00000141,0.,0.00030904,-0.0
 0043107,-0.00000002,-0.00030842,0.00019910,0.00000002,-0.00416219,0.00
 301603,-0.00000009,0.00022333,0.00013782,0.,0.00922548,0.02216373,0.00
 000005,-0.00576818,0.00036238,-0.00000009,0.00013337,-0.00007236,0.,-0
 .08300104,-0.08404216,-0.00000045,-0.00207772,-0.02883573,0.,-0.000304
 86,-0.00141954,0.00000003,0.08171303,0.00007934,0.00002476,0.,-0.00008
 300,-0.00001237,0.,0.00011187,-0.00003629,0.,-0.00003570,-0.00000007,0
 .,-0.00000957,-0.00005317,0.,0.00003455,-0.00001353,0.,-0.00000553,0.0
 0000109,0.,0.00000969,0.00000289,0.,0.00000807,-0.00000268,0.,0.000008
 44,-0.00000294,0.,-0.00031744,0.00034411,0.00000003,0.00022410,-0.0001
 1140,0.,0.00380496,-0.00092864,0.00000005,0.00015367,0.00024804,0.,-0.
 01129313,-0.01717522,-0.00000017,-0.00070026,0.00137997,-0.00000003,-0
 .00006584,-0.00008443,0.,-0.08213552,-0.32383480,-0.00000019,0.0018483
 7,-0.00116149,-0.00000003,0.00006642,-0.00016197,0.,0.08941371,0.33970
 139,-0.00000002,0.,-0.00032741,-0.00000004,-0.00000003,-0.00013461,-0.
 00000006,0.00000011,0.00021988,0.00000005,-0.00000001,0.00001021,0.,0.
 00000003,-0.00004846,0.,-0.00000001,0.00004909,0.,0.,-0.00001320,0.,0.
 ,0.00004250,0.,0.,-0.00000530,0.,0.,0.00006098,0.00000020,-0.00000005,
 0.00011229,-0.00000004,-0.00000004,-0.00021159,-0.00000001,0.00000004,
 0.00407795,-0.00000013,0.00000006,-0.00055771,0.00000005,0.00000008,0.
 00320510,-0.00000002,-0.00000017,0.00670795,0.,-0.00000001,-0.00052812
 ,-0.00000076,-0.00000042,-0.03219507,0.00000033,0.00000007,0.00381042,
 0.,-0.00000002,-0.00037643,0.00000040,0.00000036,0.02226776,0.00004611
 ,-0.00007745,0.,-0.00026365,-0.00002423,0.,-0.00000283,0.00034677,0.,0
 .00016217,-0.00004507,0.,0.00003140,0.00020242,0.,-0.00015124,-0.00007
 936,0.,0.00000229,0.00000948,0.,-0.00000416,-0.00000913,0.,-0.00000913
 ,0.00000470,0.,-0.00000464,0.00000380,0.,0.00041629,0.00032045,0.00000
 003,-0.00001739,-0.00007224,0.,0.00043743,-0.00070733,0.,-0.00064985,-
 0.00221714,0.00000002,-0.00340045,-0.00323218,-0.00000002,0.00952392,-
 0.00989575,0.00000008,0.00032252,-0.00040943,0.,-0.01428766,0.02328588
 ,-0.00000019,-0.19754715,0.14631318,-0.00000166,0.00063989,0.00029966,
 0.00000001,0.00106245,-0.00016058,0.00000003,0.20582457,0.00003445,0.0
 0009177,0.,0.00037250,0.00028504,0.,0.00047438,-0.00086869,-0.00000001
 ,-0.00043486,0.00013692,0.,-0.00002791,-0.00036283,0.,0.00016432,0.000
 13924,0.,-0.00000760,-0.00000957,0.,0.00001293,0.00000982,0.,0.0000089
 5,-0.00000586,0.,0.00000748,-0.00000238,0.,-0.00091373,0.00057505,0.00
 000003,-0.00005451,0.00029020,0.,-0.00146470,0.00015461,-0.00000002,-0
 .00227195,-0.00437822,0.00000008,-0.00216004,-0.00043957,0.00000003,0.
 02261646,-0.01484404,0.00000016,0.00105231,-0.00093476,0.,-0.00815614,
 0.00891395,-0.00000003,0.14558472,-0.20921269,0.00000184,-0.00015034,0
 .00100767,-0.00000003,0.00031565,0.00065196,-0.00000003,-0.15514986,0.
 21867099,0.,0.,0.00004495,0.,-0.00000002,0.00004448,-0.00000002,0.0000
 0002,-0.00016852,0.,0.,0.00002874,0.,0.,0.00001307,0.,0.,-0.00000216,0
 .,0.,0.00000048,0.,0.,0.00001373,0.,0.,0.00000026,0.,0.,-0.00002335,0.
 00000002,-0.00000005,0.00047442,0.,0.00000001,-0.00022298,0.00000001,-
 0.00000005,-0.00151047,0.00000013,0.00000010,0.00417849,-0.00000006,0.
 ,0.00687900,-0.00000017,0.00000017,0.00262623,-0.00000001,0.,0.0009819
 7,-0.00000014,0.,0.00401322,-0.00000159,0.00000182,-0.03172192,0.,-0.0
 0000003,-0.00302016,0.00000004,0.00000002,-0.00396091,0.00000178,-0.00
 000200,0.02192523,-0.00612862,-0.00563193,-0.00000005,-0.01485548,0.01
 334442,0.00000023,-0.08794571,0.05806562,0.00000149,0.02153991,-0.0067
 9020,-0.00000005,0.00011446,0.01501294,0.00000004,-0.00797662,-0.00385
 424,-0.00000001,0.00031749,-0.00044892,0.,-0.00058677,-0.00022719,0.00
 000002,-0.00015113,0.00021282,0.,-0.00065097,-0.00004605,0.,-0.3059518
 3,-0.05667487,0.00000057,-0.04804850,-0.04789139,-0.00000050,-0.214019
 67,0.12856012,0.00000393,-0.05151726,0.03932947,0.00000058,0.01668361,
 0.01039018,0.00000042,0.00179487,-0.01784345,0.00000016,0.00033184,-0.
 00026564,-0.00000004,-0.00390117,-0.01364536,-0.00000023,0.00795271,-0
 .00158090,0.00000012,-0.00074090,0.00049144,0.,0.00096408,-0.00074947,
 -0.00000010,-0.00043555,0.00068421,0.,0.69303256,-0.00374802,0.0055262
 4,-0.00000009,0.04358139,-0.02515445,-0.00000034,0.02736503,-0.0068944
 9,-0.00000010,-0.00254252,-0.00570545,-0.00000002,-0.00144898,-0.00644
 550,-0.00000005,0.00717966,0.00169424,0.,-0.00021723,-0.00076443,0.,-0
 .00005077,0.00035353,0.00000002,0.00045496,-0.00057778,0.,-0.00004473,
 -0.00002375,0.,-0.05901186,-0.09844987,-0.00000063,-0.02651003,-0.1571
 6000,-0.00000185,0.10842282,-0.22522014,-0.00000426,0.01894564,0.01238
 048,0.00000009,0.03096503,-0.04834713,-0.00000135,-0.00617515,-0.00027
 219,0.00000008,-0.00163933,0.00051985,0.,-0.01567079,0.00348292,0.0000
 0005,0.00594513,0.00653460,0.00000005,-0.00070086,0.00112608,-0.000000
 06,0.00042938,-0.00058154,-0.00000002,0.00037686,-0.00006673,-0.000000
 01,-0.10750066,0.55657856,-0.00000001,0.,0.00198626,0.00000052,-0.0000
 0005,-0.00149525,0.00000062,-0.00000054,0.00447848,-0.00000021,0.,0.00
 446963,-0.00000002,-0.00000026,0.00101466,0.00000016,0.00000009,0.0009
 8900,0.,-0.00000001,-0.00049823,0.,0.,-0.00069969,0.,0.,-0.00072340,0.
 ,0.,-0.00030301,0.00000191,-0.00000040,-0.03798260,-0.00000011,-0.0000
 0225,-0.01934558,0.00000366,-0.00000399,-0.04024010,0.00000048,-0.0000
 0033,0.00921588,0.00000049,-0.00000084,0.00704264,-0.00000002,-0.00000
 005,0.00224771,-0.00000006,0.,-0.00109851,-0.00000037,0.00000022,0.000
 00589,0.00000027,0.00000006,-0.00101359,-0.00000002,0.,-0.00087237,0.,
 0.00000002,0.00158519,0.,0.00000001,0.00016861,-0.00000664,0.00000888,
 0.07006251,0.00102156,0.00257696,-0.00000004,0.00661060,0.00926118,-0.
 00000016,0.01863204,-0.01298010,0.00000003,-0.00697924,0.00215496,0.00
 000010,-0.00129364,-0.00692387,-0.00000003,0.00375638,0.00294249,0.000
 00002,-0.00028335,0.00014792,0.,0.00039229,0.00004583,0.,0.00005410,0.
 00002728,0.,0.00005219,0.00005291,0.,-0.01774884,0.06454760,0.00000338
 ,0.00001079,0.00876307,0.00000020,-0.05404788,-0.01885667,-0.00000099,
 0.02824642,-0.01093392,-0.00000005,-0.41672526,-0.08843098,-0.00000753
 ,-0.01309418,0.01639937,-0.00000006,-0.00093106,-0.00064583,0.,-0.0639
 9564,0.01162801,-0.00000143,-0.00005094,0.00171746,0.00000011,-0.00008
 164,-0.00020075,-0.00000003,0.00229708,-0.00039889,0.00000009,-0.00175
 139,-0.00062679,0.00000002,0.00031066,-0.00710499,-0.00000005,0.553197
 06,-0.00118638,-0.00165313,0.00000001,-0.00168340,-0.00731157,0.000000
 08,-0.01902024,0.00305315,-0.00000048,0.00330539,-0.00142039,-0.000000
 05,0.00047134,0.00319365,0.00000002,-0.00129959,-0.00181332,-0.0000000
 1,0.00023027,-0.00041553,0.,0.00001631,0.00017961,-0.00000001,0.000173
 44,-0.00012973,0.,0.00003836,-0.00010178,0.,0.03735987,-0.08318308,-0.
 00000381,0.00071254,-0.00316139,0.,-0.03624527,-0.01239698,-0.00000087
 ,-0.00894699,-0.00646476,-0.00000007,-0.06796327,-0.12773608,-0.000001
 42,0.00164027,-0.00637820,-0.00000002,-0.00193660,-0.00022736,0.000000
 07,0.04125216,0.01993365,0.00000046,0.00278477,-0.00547745,-0.00000005
 ,-0.00004971,0.00041908,0.,-0.00201196,0.00215390,0.00000005,0.0017101
 4,0.00076673,0.00000002,0.00861902,0.01169316,0.00000030,0.04784701,0.
 29477308,-0.00000004,-0.00000006,0.00040554,-0.00000014,-0.00000022,-0
 .00087049,-0.00000038,0.00000022,-0.00033188,0.00000015,-0.00000002,0.
 00036054,-0.00000002,0.00000010,0.00016069,0.,-0.00000011,0.00005018,0
 .,0.,-0.00008050,0.,0.,-0.00015064,0.,0.,-0.00003916,0.,0.,-0.00009086
 ,0.00000102,-0.00000219,0.01576521,0.00000009,0.,-0.00086271,-0.000001
 08,-0.00000025,0.01685255,0.00000001,-0.00000031,0.00194105,-0.0000071
 8,-0.00000217,-0.04783840,-0.00000020,0.00000006,-0.00015975,-0.000000
 06,0.,-0.00159615,-0.00000132,0.00000026,0.00896063,0.00000010,0.00000
 005,0.00387756,0.,0.,0.00006063,0.00000008,-0.00000003,-0.00318832,-0.
 00000004,0.,-0.00010092,0.00000030,0.00000043,-0.00319374,0.00000919,0
 .00000425,0.04526644,-0.00074419,-0.00098133,0.00000002,-0.00445272,-0
 .00429544,0.00000004,-0.00938128,0.01124379,0.00000018,0.00430165,-0.0
 0131702,-0.00000006,0.00050644,0.00339492,0.,-0.00140577,-0.00140256,0
 .,0.00013943,-0.00005833,0.,-0.00039507,-0.00004353,0.,0.00003183,-0.0
 0002848,0.,-0.00000778,-0.00007903,0.,-0.01781434,-0.02996073,-0.00000
 196,-0.00239803,-0.00686606,-0.00000005,0.00776269,-0.00264639,-0.0000
 0008,-0.00956986,0.00296106,0.00000005,-0.04573445,0.02503193,-0.00000
 060,0.00258393,-0.00626208,0.00000003,0.00052341,0.00028231,0.,0.00278
 652,-0.00379114,0.00000013,0.00165374,0.00222075,-0.00000010,0.0000746
 9,0.00000932,0.,-0.00027315,0.00019174,0.00000001,0.00005607,0.0000900
 9,-0.00000001,-0.00013199,-0.01130000,-0.00000063,-0.03759814,-0.00581
 748,-0.00000049,0.10948635,0.00328530,0.00193354,-0.00000013,0.0063085
 4,0.01490368,-0.00000020,0.03443990,-0.01826037,0.00000085,-0.01037847
 ,0.00454231,0.00000014,-0.00161593,-0.00852089,-0.00000004,0.00255435,
 0.00376472,0.00000002,-0.00036448,0.00049793,0.,0.00021989,-0.00026117
 ,0.00000002,-0.00022764,0.00020736,0.,-0.00008042,0.00020112,0.,-0.045
 90572,0.03171159,0.00000280,0.00229081,0.01318796,0.00000011,-0.027631
 13,0.00856226,0.00000051,0.02700477,-0.00796990,-0.00000016,0.04231533
 ,0.01910168,0.00000067,-0.00703311,0.01840120,-0.00000002,-0.00066119,
 -0.00042215,-0.00000007,-0.01540142,0.00206804,-0.00000040,-0.00583602
 ,-0.00330106,0.00000009,0.00000455,-0.00018872,0.,0.00065122,-0.000347
 57,0.00000001,-0.00079361,-0.00056861,0.00000001,-0.01155995,-0.024226
 25,-0.00000087,-0.02100924,-0.07829526,0.,0.02942368,0.02327854,0.0000
 0009,0.00000017,0.00035352,0.00000004,0.00000044,0.00138376,0.00000109
 ,0.00000052,-0.00406836,-0.00000005,0.00000006,-0.00063180,-0.00000009
 ,-0.00000014,-0.00003012,0.00000011,0.00000003,-0.00006881,-0.00000002
 ,0.00000003,-0.00003737,0.00000002,-0.00000002,-0.00000516,0.,0.000000
 01,0.00005890,0.,0.,0.00004448,-0.00000208,-0.00000064,-0.01912542,0.0
 0000014,0.00000052,0.00110663,-0.00000048,0.00000019,-0.00498570,0.000
 00072,-0.00000021,0.00028706,0.00000093,0.00000139,-0.00107146,-0.0000
 0018,0.00000040,-0.00010048,0.,-0.00000002,0.00049565,-0.00000064,-0.0
 0000010,0.00593074,-0.00000008,0.00000009,0.00085136,0.,0.,0.00002687,
 0.00000003,-0.00000002,-0.00060218,-0.00000004,-0.00000003,-0.00066149
 ,-0.00000025,-0.00000081,0.00419958,-0.00000276,0.00000151,-0.03519748
 ,0.00000352,-0.00000337,0.05184727\\-0.00122077,0.00106049,0.00000007,
 0.00132843,0.00278900,0.00000012,0.00324867,0.00033651,-0.00000032,0.0
 0070162,-0.00089623,-0.00000009,-0.00053316,-0.00281943,0.,-0.00123877
 ,-0.00109581,0.00000006,-0.00025570,0.00021339,0.,0.00022534,-0.000216
 89,0.,-0.00006294,-0.00026971,0.,-0.00022959,-0.00013938,0.00000002,-0
 .00168582,0.00354872,-0.00000115,0.00177059,0.00699200,-0.00000010,-0.
 00127045,0.00173044,0.00000031,0.00298509,-0.00139582,0.00000016,0.003
 17022,0.00148605,-0.00000018,-0.00074554,-0.00028472,0.00000019,0.0002
 4410,-0.00010353,-0.00000003,-0.00225994,-0.00013545,-0.00000007,-0.00
 254850,-0.00199228,-0.00000020,-0.00001053,-0.00023600,0.,-0.00029361,
 0.00000225,-0.00000005,-0.00027783,-0.00024159,-0.00000007,-0.00065953
 ,-0.00016344,0.00000013,-0.00233381,-0.00170227,-0.00000115,0.00195244
 ,-0.00646630,0.00000233\\\@
 The archive entry for this job was punched.


 NATURE WILL TELL YOU A DIRECT LIE IF SHE CAN.

                                -- CHARLES DARWIN
 Job cpu time:       0 days  2 hours 55 minutes 59.7 seconds.
 Elapsed time:       0 days  0 hours 19 minutes 34.1 seconds.
 File lengths (MBytes):  RWF=   1376 Int=      0 D2E=      0 Chk=     48 Scr=      8
 Normal termination of Gaussian 16 at Mon Jul 13 14:13:56 2020.
