 Entering Gaussian System, Link 0=g16
 Initial command:
 /gpfs/loomis/apps/avx/software/Gaussian/16-C.01_AVX/g16/l1.exe "/home/fas/batista/pev4/scratch60/gauss-scratch/Gau-141128.inp" -scrdir="/home/fas/batista/pev4/scratch60/gauss-scratch/"
 Entering Link 1 = /gpfs/loomis/apps/avx/software/Gaussian/16-C.01_AVX/g16/l1.exe PID=    141129.
  
 Copyright (c) 1988-2019, Gaussian, Inc.  All Rights Reserved.
  
 This is part of the Gaussian(R) 16 program.  It is based on
 the Gaussian(R) 09 system (copyright 2009, Gaussian, Inc.),
 the Gaussian(R) 03 system (copyright 2003, Gaussian, Inc.),
 the Gaussian(R) 98 system (copyright 1998, Gaussian, Inc.),
 the Gaussian(R) 94 system (copyright 1995, Gaussian, Inc.),
 the Gaussian 92(TM) system (copyright 1992, Gaussian, Inc.),
 the Gaussian 90(TM) system (copyright 1990, Gaussian, Inc.),
 the Gaussian 88(TM) system (copyright 1988, Gaussian, Inc.),
 the Gaussian 86(TM) system (copyright 1986, Carnegie Mellon
 University), and the Gaussian 82(TM) system (copyright 1983,
 Carnegie Mellon University). Gaussian is a federally registered
 trademark of Gaussian, Inc.
  
 This software contains proprietary and confidential information,
 including trade secrets, belonging to Gaussian, Inc.
  
 This software is provided under written license and may be
 used, copied, transmitted, or stored only in accord with that
 written license.
  
 The following legend is applicable only to US Government
 contracts under FAR:
  
                    RESTRICTED RIGHTS LEGEND
  
 Use, reproduction and disclosure by the US Government is
 subject to restrictions as set forth in subparagraphs (a)
 and (c) of the Commercial Computer Software - Restricted
 Rights clause in FAR 52.227-19.
  
 Gaussian, Inc.
 340 Quinnipiac St., Bldg. 40, Wallingford CT 06492
  
  
 ---------------------------------------------------------------
 Warning -- This program may not be used in any manner that
 competes with the business of Gaussian, Inc. or will provide
 assistance to any competitor of Gaussian, Inc.  The licensee
 of this program is prohibited from giving any competitor of
 Gaussian, Inc. access to this program.  By using this program,
 the user acknowledges that Gaussian, Inc. is engaged in the
 business of creating and licensing software in the field of
 computational chemistry and represents and warrants to the
 licensee that it is not a competitor of Gaussian, Inc. and that
 it will not use this program in any manner prohibited above.
 ---------------------------------------------------------------
  

 Cite this work as:
 Gaussian 16, Revision C.01,
 M. J. Frisch, G. W. Trucks, H. B. Schlegel, G. E. Scuseria, 
 M. A. Robb, J. R. Cheeseman, G. Scalmani, V. Barone, 
 G. A. Petersson, H. Nakatsuji, X. Li, M. Caricato, A. V. Marenich, 
 J. Bloino, B. G. Janesko, R. Gomperts, B. Mennucci, H. P. Hratchian, 
 J. V. Ortiz, A. F. Izmaylov, J. L. Sonnenberg, D. Williams-Young, 
 F. Ding, F. Lipparini, F. Egidi, J. Goings, B. Peng, A. Petrone, 
 T. Henderson, D. Ranasinghe, V. G. Zakrzewski, J. Gao, N. Rega, 
 G. Zheng, W. Liang, M. Hada, M. Ehara, K. Toyota, R. Fukuda, 
 J. Hasegawa, M. Ishida, T. Nakajima, Y. Honda, O. Kitao, H. Nakai, 
 T. Vreven, K. Throssell, J. A. Montgomery, Jr., J. E. Peralta, 
 F. Ogliaro, M. J. Bearpark, J. J. Heyd, E. N. Brothers, K. N. Kudin, 
 V. N. Staroverov, T. A. Keith, R. Kobayashi, J. Normand, 
 K. Raghavachari, A. P. Rendell, J. C. Burant, S. S. Iyengar, 
 J. Tomasi, M. Cossi, J. M. Millam, M. Klene, C. Adamo, R. Cammi, 
 J. W. Ochterski, R. L. Martin, K. Morokuma, O. Farkas, 
 J. B. Foresman, and D. J. Fox, Gaussian, Inc., Wallingford CT, 2019.
 
 ******************************************
 Gaussian 16:  ES64L-G16RevC.01  3-Jul-2019
                13-Jul-2020 
 ******************************************
 %chk=config_6_10.chk
 %mem=58GB
 %nprocshared=10
 Will use up to   10 processors via shared memory.
 ----------------------------------------------------------------------
 #p opt=addgic freq td wb97xd/cc-pvdz nosymm int=ultrafine scrf=(solven
 t=CarbonTetraChloride)
 ----------------------------------------------------------------------
 1/18=20,19=15,26=6,38=1,145=903/1,3;
 2/9=110,12=2,15=1,17=6,18=5,40=1/2;
 3/5=16,11=9,25=1,30=1,70=2201,71=1,72=11,74=-58,75=-5/1,2,3,8;
 4//1;
 5/5=2,38=5,53=11/2;
 8/6=1,10=1/1;
 9/15=2,42=1,70=2/14;
 10/5=4,31=1/2;
 6/7=2,8=2,9=2,10=2/1;
 7/12=6,13=5,30=1/1,2,3,16;
 1/18=20,19=15,26=6,145=903/3(2);
 2/9=110,15=1/2;
 99//99;
 2/9=110,15=1/2;
 3/5=16,11=9,25=1,30=1,70=2205,71=1,72=11,74=-58,75=-5/1,2,3,8;
 4/5=5,16=3,69=1/1;
 5/5=2,38=5,53=11/2;
 8/6=1,10=1/1;
 9/15=2,42=1,49=4,70=2/14;
 10/5=4,31=1/2;
 7/12=6,13=5,30=1/1,2,3,16;
 1/18=20,19=15,26=6,145=903/3(-8);
 2/9=110,15=1/2;
 6/7=2,8=2,9=2,10=2/1;
 99/9=10/99;
 Leave Link    1 at Mon Jul 13 14:16:16 2020, MaxMem=  7784628224 cpu:               4.2 elap:               0.5
 (Enter /gpfs/loomis/apps/avx/software/Gaussian/16-C.01_AVX/g16/l101.exe)
 ------------------------------------------------
 NM 2D-scan of HBT TD-WB97XD pVDZ in CTC Relaxed.
 ------------------------------------------------
 Symbolic Z-matrix:
 Charge =  0 Multiplicity = 1
 C                     1.63345  -3.26156  -0.00002 
 C                     0.99986  -2.02261  -0.00002 
 C                     1.73205  -0.79954  -0.00002 
 C                     3.14296  -0.85509  -0.00002 
 C                     3.76461  -2.09518  -0.00002 
 C                     3.02636  -3.29226  -0.00002 
 H                     1.05155  -4.18434  -0.00002 
 H                     3.72072   0.07013  -0.00003 
 H                     4.85528  -2.14265  -0.00002 
 H                     3.54578  -4.25155  -0.00002 
 N                     0.95152   0.3096   -0.00002 
 S                    -0.72328  -1.70687  -0.00002 
 C                    -1.36122   1.03691   0.00001 
 C                    -2.74601   0.80202   0.00001 
 C                    -0.89      2.43663   0.00003 
 C                    -3.64885   1.87107   0.00003 
 H                    -3.12156  -0.22303  -0.00001 
 C                    -1.83705   3.48609   0.00005 
 C                    -3.20331   3.20771   0.00005 
 H                    -4.71975   1.66066   0.00003 
 H                    -1.45649   4.50837   0.00007 
 H                    -3.92822   4.02225   0.00006 
 C                    -0.37778   0.01999  -0.00002 
 O                     0.38136   2.67204   0.00004 
 H                     0.92538   1.6195    0.00001 
 
 Add virtual bond connecting atoms H25        and N11        Dist= 2.48D+00.
 Add virtual bond connecting atoms H25        and O24        Dist= 2.24D+00.
 Initializing the GIC definitions file.
 Number of initial coordinates =   142
 Number of input entries/lines =    52
 Number of additional coordinates =     2
 Number of removed coordinates =     0
 Number of frozen coordinates =     2
 Number of final active and frozen coordinates =   144
 ITRead=  0  0  0  0  0  0  0  0  0  0  0  0  0  0  0  0  0  0  0  0
 ITRead=  0  0  0  0  0
 MicOpt= -1 -1 -1 -1 -1 -1 -1 -1 -1 -1 -1 -1 -1 -1 -1 -1 -1 -1 -1 -1
 MicOpt= -1 -1 -1 -1 -1
 NAtoms=     25 NQM=       25 NQMF=       0 NMMI=      0 NMMIF=      0
                NMic=       0 NMicF=      0.
                    Isotopes and Nuclear Properties:
 (Nuclear quadrupole moments (NQMom) in fm**2, nuclear magnetic moments (NMagM)
  in nuclear magnetons)

  Atom         1           2           3           4           5           6           7           8           9          10
 IAtWgt=          12          12          12          12          12          12           1           1           1           1
 AtmWgt=  12.0000000  12.0000000  12.0000000  12.0000000  12.0000000  12.0000000   1.0078250   1.0078250   1.0078250   1.0078250
 NucSpn=           0           0           0           0           0           0           1           1           1           1
 AtZEff=  -0.0000000  -0.0000000  -0.0000000  -0.0000000  -0.0000000  -0.0000000  -0.0000000  -0.0000000  -0.0000000  -0.0000000
 NQMom=    0.0000000   0.0000000   0.0000000   0.0000000   0.0000000   0.0000000   0.0000000   0.0000000   0.0000000   0.0000000
 NMagM=    0.0000000   0.0000000   0.0000000   0.0000000   0.0000000   0.0000000   2.7928460   2.7928460   2.7928460   2.7928460
 AtZNuc=   6.0000000   6.0000000   6.0000000   6.0000000   6.0000000   6.0000000   1.0000000   1.0000000   1.0000000   1.0000000

  Atom        11          12          13          14          15          16          17          18          19          20
 IAtWgt=          14          32          12          12          12          12           1          12          12           1
 AtmWgt=  14.0030740  31.9720718  12.0000000  12.0000000  12.0000000  12.0000000   1.0078250  12.0000000  12.0000000   1.0078250
 NucSpn=           2           0           0           0           0           0           1           0           0           1
 AtZEff=  -0.0000000  -0.0000000  -0.0000000  -0.0000000  -0.0000000  -0.0000000  -0.0000000  -0.0000000  -0.0000000  -0.0000000
 NQMom=    2.0440000   0.0000000   0.0000000   0.0000000   0.0000000   0.0000000   0.0000000   0.0000000   0.0000000   0.0000000
 NMagM=    0.4037610   0.0000000   0.0000000   0.0000000   0.0000000   0.0000000   2.7928460   0.0000000   0.0000000   2.7928460
 AtZNuc=   7.0000000  16.0000000   6.0000000   6.0000000   6.0000000   6.0000000   1.0000000   6.0000000   6.0000000   1.0000000

  Atom        21          22          23          24          25
 IAtWgt=           1           1          12          16           1
 AtmWgt=   1.0078250   1.0078250  12.0000000  15.9949146   1.0078250
 NucSpn=           1           1           0           0           1
 AtZEff=  -0.0000000  -0.0000000  -0.0000000  -0.0000000  -0.0000000
 NQMom=    0.0000000   0.0000000   0.0000000   0.0000000   0.0000000
 NMagM=    2.7928460   2.7928460   0.0000000   0.0000000   2.7928460
 AtZNuc=   1.0000000   1.0000000   6.0000000   8.0000000   1.0000000
 Leave Link  101 at Mon Jul 13 14:16:19 2020, MaxMem=  7784628224 cpu:              32.3 elap:               3.3
 (Enter /gpfs/loomis/apps/avx/software/Gaussian/16-C.01_AVX/g16/l103.exe)

 GradGradGradGradGradGradGradGradGradGradGradGradGradGradGradGradGradGrad
 Berny optimization.
 Initialization pass.
                           ----------------------------
                           !    Initial Parameters    !
                           ! (Angstroms and Degrees)  !
 --------------------------                            --------------------------
 ! Name  Definition              Value          Derivative Info.                !
 --------------------------------------------------------------------------------
 ! R1    R(1,2)                  1.3916         estimate D2E/DX2                !
 ! R2    R(1,6)                  1.3932         estimate D2E/DX2                !
 ! R3    R(1,7)                  1.0909         estimate D2E/DX2                !
 ! R4    R(2,3)                  1.4255         estimate D2E/DX2                !
 ! R5    R(2,12)                 1.7518         estimate D2E/DX2                !
 ! R6    R(3,4)                  1.412          estimate D2E/DX2                !
 ! R7    R(3,11)                 1.3563         estimate D2E/DX2                !
 ! R8    R(4,5)                  1.3872         estimate D2E/DX2                !
 ! R9    R(4,8)                  1.0908         estimate D2E/DX2                !
 ! R10   R(5,6)                  1.4064         estimate D2E/DX2                !
 ! R11   R(5,9)                  1.0917         estimate D2E/DX2                !
 ! R12   R(6,10)                 1.0909         estimate D2E/DX2                !
 ! R13   R(11,23)                1.3605         estimate D2E/DX2                !
 ! R14   R(11,25)                1.3102         estimate D2E/DX2                !
 ! R15   R(12,23)                1.7611         estimate D2E/DX2                !
 ! R16   R(13,14)                1.4046         estimate D2E/DX2                !
 ! R17   R(13,15)                1.4769         estimate D2E/DX2                !
 ! R18   R(13,23)                1.4147         estimate D2E/DX2                !
 ! R19   R(14,16)                1.3993         estimate D2E/DX2                !
 ! R20   R(14,17)                1.0917         estimate D2E/DX2                !
 ! R21   R(15,18)                1.4136         estimate D2E/DX2                !
 ! R22   R(15,24)                1.293          estimate D2E/DX2                !
 ! R23   R(16,19)                1.4089         estimate D2E/DX2                !
 ! R24   R(16,20)                1.0914         estimate D2E/DX2                !
 ! R25   R(18,19)                1.3943         estimate D2E/DX2                !
 ! R26   R(18,21)                1.0908         estimate D2E/DX2                !
 ! R27   R(19,22)                1.0904         estimate D2E/DX2                !
 ! R28   R(24,25)                1.1848         estimate D2E/DX2                !
 ! A1    A(2,1,6)              118.3471         estimate D2E/DX2                !
 ! A2    A(2,1,7)              120.6798         estimate D2E/DX2                !
 ! A3    A(6,1,7)              120.973          estimate D2E/DX2                !
 ! A4    A(1,2,3)              122.0085         estimate D2E/DX2                !
 ! A5    A(1,2,12)             127.4679         estimate D2E/DX2                !
 ! A6    A(3,2,12)             110.5235         estimate D2E/DX2                !
 ! A7    A(2,3,4)              118.652          estimate D2E/DX2                !
 ! A8    A(2,3,11)             113.9583         estimate D2E/DX2                !
 ! A9    A(4,3,11)             127.3897         estimate D2E/DX2                !
 ! A10   A(3,4,5)              118.8788         estimate D2E/DX2                !
 ! A11   A(3,4,8)              119.7281         estimate D2E/DX2                !
 ! A12   A(5,4,8)              121.3932         estimate D2E/DX2                !
 ! A13   A(4,5,6)              121.7136         estimate D2E/DX2                !
 ! A14   A(4,5,9)              119.1159         estimate D2E/DX2                !
 ! A15   A(6,5,9)              119.1705         estimate D2E/DX2                !
 ! A16   A(1,6,5)              120.4            estimate D2E/DX2                !
 ! A17   A(1,6,10)             119.6964         estimate D2E/DX2                !
 ! A18   A(5,6,10)             119.9036         estimate D2E/DX2                !
 ! A19   A(3,11,23)            112.8441         estimate D2E/DX2                !
 ! A20   A(3,11,25)            146.0082         estimate D2E/DX2                !
 ! A21   A(23,11,25)           101.1478         estimate D2E/DX2                !
 ! A22   A(2,12,23)             89.0694         estimate D2E/DX2                !
 ! A23   A(14,13,15)           118.233          estimate D2E/DX2                !
 ! A24   A(14,13,23)           124.4139         estimate D2E/DX2                !
 ! A25   A(15,13,23)           117.3531         estimate D2E/DX2                !
 ! A26   A(13,14,16)           120.5548         estimate D2E/DX2                !
 ! A27   A(13,14,17)           119.7487         estimate D2E/DX2                !
 ! A28   A(16,14,17)           119.6965         estimate D2E/DX2                !
 ! A29   A(13,15,18)           119.3304         estimate D2E/DX2                !
 ! A30   A(13,15,24)           119.0961         estimate D2E/DX2                !
 ! A31   A(18,15,24)           121.5735         estimate D2E/DX2                !
 ! A32   A(14,16,19)           121.3833         estimate D2E/DX2                !
 ! A33   A(14,16,20)           119.0658         estimate D2E/DX2                !
 ! A34   A(19,16,20)           119.5508         estimate D2E/DX2                !
 ! A35   A(15,18,19)           120.5473         estimate D2E/DX2                !
 ! A36   A(15,18,21)           117.5176         estimate D2E/DX2                !
 ! A37   A(19,18,21)           121.9351         estimate D2E/DX2                !
 ! A38   A(16,19,18)           119.9513         estimate D2E/DX2                !
 ! A39   A(16,19,22)           119.897          estimate D2E/DX2                !
 ! A40   A(18,19,22)           120.1517         estimate D2E/DX2                !
 ! A41   A(11,23,12)           113.6047         estimate D2E/DX2                !
 ! A42   A(11,23,13)           121.7501         estimate D2E/DX2                !
 ! A43   A(12,23,13)           124.6452         estimate D2E/DX2                !
 ! A44   A(15,24,25)           106.8427         estimate D2E/DX2                !
 ! A45   A(11,25,24)           153.8102         estimate D2E/DX2                !
 ! D1    D(6,1,2,3)              0.0            estimate D2E/DX2                !
 ! D2    D(6,1,2,12)          -180.0            estimate D2E/DX2                !
 ! D3    D(7,1,2,3)            179.9999         estimate D2E/DX2                !
 ! D4    D(7,1,2,12)             0.0            estimate D2E/DX2                !
 ! D5    D(2,1,6,5)             -0.0001         estimate D2E/DX2                !
 ! D6    D(2,1,6,10)           180.0            estimate D2E/DX2                !
 ! D7    D(7,1,6,5)            180.0            estimate D2E/DX2                !
 ! D8    D(7,1,6,10)             0.0            estimate D2E/DX2                !
 ! D9    D(1,2,3,4)              0.0001         estimate D2E/DX2                !
 ! D10   D(1,2,3,11)           180.0            estimate D2E/DX2                !
 ! D11   D(12,2,3,4)          -179.9999         estimate D2E/DX2                !
 ! D12   D(12,2,3,11)            0.0            estimate D2E/DX2                !
 ! D13   D(1,2,12,23)          179.9998         estimate D2E/DX2                !
 ! D14   D(3,2,12,23)           -0.0002         estimate D2E/DX2                !
 ! D15   D(2,3,4,5)             -0.0001         estimate D2E/DX2                !
 ! D16   D(2,3,4,8)            179.9999         estimate D2E/DX2                !
 ! D17   D(11,3,4,5)          -180.0            estimate D2E/DX2                !
 ! D18   D(11,3,4,8)             0.0            estimate D2E/DX2                !
 ! D19   D(2,3,11,23)            0.0003         estimate D2E/DX2                !
 ! D20   D(2,3,11,25)          179.9969         estimate D2E/DX2                !
 ! D21   D(4,3,11,23)         -179.9998         estimate D2E/DX2                !
 ! D22   D(4,3,11,25)           -0.0032         estimate D2E/DX2                !
 ! D23   D(3,4,5,6)              0.0            estimate D2E/DX2                !
 ! D24   D(3,4,5,9)           -180.0            estimate D2E/DX2                !
 ! D25   D(8,4,5,6)            180.0            estimate D2E/DX2                !
 ! D26   D(8,4,5,9)              0.0            estimate D2E/DX2                !
 ! D27   D(4,5,6,1)              0.0001         estimate D2E/DX2                !
 ! D28   D(4,5,6,10)          -180.0            estimate D2E/DX2                !
 ! D29   D(9,5,6,1)           -180.0            estimate D2E/DX2                !
 ! D30   D(9,5,6,10)             0.0            estimate D2E/DX2                !
 ! D31   D(3,11,23,12)          -0.0004         estimate D2E/DX2                !
 ! D32   D(3,11,23,13)         179.9989         estimate D2E/DX2                !
 ! D33   D(25,11,23,12)       -179.9985         estimate D2E/DX2                !
 ! D34   D(25,11,23,13)          0.0008         estimate D2E/DX2                !
 ! D35   D(3,11,25,24)        -179.9975         estimate D2E/DX2                !
 ! D36   D(23,11,25,24)         -0.0006         estimate D2E/DX2                !
 ! D37   D(2,12,23,11)           0.0004         estimate D2E/DX2                !
 ! D38   D(2,12,23,13)        -179.9989         estimate D2E/DX2                !
 ! D39   D(15,13,14,16)          0.0003         estimate D2E/DX2                !
 ! D40   D(15,13,14,17)       -179.9998         estimate D2E/DX2                !
 ! D41   D(23,13,14,16)       -179.9998         estimate D2E/DX2                !
 ! D42   D(23,13,14,17)          0.0            estimate D2E/DX2                !
 ! D43   D(14,13,15,18)         -0.0004         estimate D2E/DX2                !
 ! D44   D(14,13,15,24)        179.9994         estimate D2E/DX2                !
 ! D45   D(23,13,15,18)        179.9997         estimate D2E/DX2                !
 ! D46   D(23,13,15,24)         -0.0005         estimate D2E/DX2                !
 ! D47   D(14,13,23,11)        179.9997         estimate D2E/DX2                !
 ! D48   D(14,13,23,12)         -0.0011         estimate D2E/DX2                !
 ! D49   D(15,13,23,11)         -0.0004         estimate D2E/DX2                !
 ! D50   D(15,13,23,12)        179.9988         estimate D2E/DX2                !
 ! D51   D(13,14,16,19)         -0.0001         estimate D2E/DX2                !
 ! D52   D(13,14,16,20)        179.9999         estimate D2E/DX2                !
 ! D53   D(17,14,16,19)       -179.9999         estimate D2E/DX2                !
 ! D54   D(17,14,16,20)          0.0001         estimate D2E/DX2                !
 ! D55   D(13,15,18,19)          0.0003         estimate D2E/DX2                !
 ! D56   D(13,15,18,21)        179.9999         estimate D2E/DX2                !
 ! D57   D(24,15,18,19)       -179.9996         estimate D2E/DX2                !
 ! D58   D(24,15,18,21)          0.0001         estimate D2E/DX2                !
 ! D59   D(13,15,24,25)          0.0007         estimate D2E/DX2                !
 ! D60   D(18,15,24,25)       -179.9995         estimate D2E/DX2                !
 ! D61   D(14,16,19,18)         -0.0001         estimate D2E/DX2                !
 ! D62   D(14,16,19,22)       -180.0            estimate D2E/DX2                !
 ! D63   D(20,16,19,18)        179.9999         estimate D2E/DX2                !
 ! D64   D(20,16,19,22)          0.0            estimate D2E/DX2                !
 ! D65   D(15,18,19,16)          0.0            estimate D2E/DX2                !
 ! D66   D(15,18,19,22)        179.9999         estimate D2E/DX2                !
 ! D67   D(21,18,19,16)       -179.9997         estimate D2E/DX2                !
 ! D68   D(21,18,19,22)          0.0002         estimate D2E/DX2                !
 ! D69   D(15,24,25,11)         -0.0002         estimate D2E/DX2                !
 ! Qtot  GIC-1                   0.0            Frozen                          !
 ! Ptot  GIC-2                  40.0            Frozen                          !
 --------------------------------------------------------------------------------
 NOTE: GIC-type coordinates are in arbitrary units.
 Trust Radius=3.00D-01 FncErr=5.00D-06 GrdErr=5.00D-06 EigMax=2.50D+02 EigMin=1.00D-04
 Number of steps in this run=    150 maximum allowed number of steps=    150.
 GradGradGradGradGradGradGradGradGradGradGradGradGradGradGradGradGradGrad

 Leave Link  103 at Mon Jul 13 14:16:19 2020, MaxMem=  7784628224 cpu:               0.3 elap:               0.0
 (Enter /gpfs/loomis/apps/avx/software/Gaussian/16-C.01_AVX/g16/l202.exe)
                          Input orientation:                          
 ---------------------------------------------------------------------
 Center     Atomic      Atomic             Coordinates (Angstroms)
 Number     Number       Type             X           Y           Z
 ---------------------------------------------------------------------
      1          6           0        1.633453   -3.261563   -0.000020
      2          6           0        0.999864   -2.022608   -0.000022
      3          6           0        1.732052   -0.799540   -0.000023
      4          6           0        3.142964   -0.855091   -0.000025
      5          6           0        3.764606   -2.095182   -0.000023
      6          6           0        3.026362   -3.292258   -0.000020
      7          1           0        1.051552   -4.184341   -0.000018
      8          1           0        3.720718    0.070126   -0.000027
      9          1           0        4.855283   -2.142646   -0.000023
     10          1           0        3.545783   -4.251548   -0.000018
     11          7           0        0.951522    0.309603   -0.000024
     12         16           0       -0.723277   -1.706874   -0.000022
     13          6           0       -1.361218    1.036910    0.000006
     14          6           0       -2.746006    0.802017    0.000007
     15          6           0       -0.890000    2.436629    0.000033
     16          6           0       -3.648848    1.871073    0.000027
     17          1           0       -3.121557   -0.223027   -0.000010
     18          6           0       -1.837054    3.486088    0.000051
     19          6           0       -3.203306    3.207712    0.000048
     20          1           0       -4.719753    1.660659    0.000026
     21          1           0       -1.456491    4.508374    0.000072
     22          1           0       -3.928217    4.022245    0.000064
     23          6           0       -0.377783    0.019990   -0.000018
     24          8           0        0.381364    2.672037    0.000044
     25          1           0        0.925385    1.619500    0.000013
 ---------------------------------------------------------------------
                    Distance matrix (angstroms):
                    1          2          3          4          5
     1  C    0.000000
     2  C    1.391562   0.000000
     3  C    2.463997   1.425481   0.000000
     4  C    2.840727   2.440486   1.412006   0.000000
     5  C    2.429456   2.765694   2.410387   1.387178   0.000000
     6  C    1.393247   2.391381   2.808716   2.439955   1.406413
     7  H    1.090930   2.162351   3.452530   3.931655   3.424215
     8  H    3.931517   3.432577   2.170510   1.090792   2.165752
     9  H    3.410596   3.857287   3.399780   2.142389   1.091709
    10  H    2.153387   3.383767   3.899485   3.420261   2.167441
    11  N    3.635692   2.332712   1.356254   2.481720   3.700869
    12  S    2.823338   1.751829   2.617613   3.958960   4.504651
    13  C    5.238791   3.864630   3.597342   4.885420   6.007002
    14  C    5.974308   4.691488   4.755837   6.117678   7.126137
    15  C    6.231951   4.843179   4.165086   5.205788   6.496358
    16  C    7.365233   6.063933   6.007184   7.318517   8.407763
    17  H    5.642945   4.497178   4.887728   6.296327   7.136120
    18  C    7.587834   6.196277   5.577197   6.606544   7.907539
    19  C    8.077485   6.709910   6.357344   7.535351   8.756282
    20  H    8.036883   6.802976   6.904952   8.255381   9.278506
    21  H    8.361799   6.977636   6.191991   7.065532   8.418242
    22  H    9.164390   7.799118   7.435607   8.590112   9.828654
    23  C    3.848852   2.463761   2.263412   3.627869   4.651165
    24  O    6.064267   4.735212   3.725077   4.479628   5.845742
    25  H    4.932154   3.642870   2.549993   3.322839   4.675472
                    6          7          8          9         10
     6  C    0.000000
     7  H    2.166953   0.000000
     8  H    3.433331   5.022444   0.000000
     9  H    2.160223   4.317047   2.486683   0.000000
    10  H    1.090888   2.495137   4.325213   2.482390   0.000000
    11  N    4.156726   4.495057   2.779532   4.610084   5.247313
    12  S    4.071024   3.047599   4.786108   5.595555   4.969934
    13  C    6.163810   5.751775   5.173079   6.982439   7.214323
    14  C    7.076957   6.267792   6.508010   8.151726   8.070015
    15  C    6.939599   6.899773   5.182573   7.346974   8.025453
    16  C    8.439101   7.665625   7.586430   9.403732   9.447180
    17  H    6.871469   5.753855   6.848553   8.204567   7.789892
    18  C    8.342589   8.196312   6.523621   8.744714   9.425813
    19  C    9.003243   8.529142   7.601747   9.673013  10.059363
    20  H    9.194220   8.214133   8.589025  10.302739  10.162346
    21  H    8.996990   9.047296   6.819204   9.169217  10.087566
    22  H   10.092974   9.599279   8.609615  10.731065  11.149724
    23  C    4.749652   4.440653   4.098808   5.662329   5.800036
    24  O    6.524479   6.889054   4.233347   6.572452   7.612462
    25  H    5.342235   5.805212   3.196005   5.440390   6.429284
                   11         12         13         14         15
    11  N    0.000000
    12  S    2.621285   0.000000
    13  C    2.424405   2.816970   0.000000
    14  C    3.730172   3.222727   1.404568   0.000000
    15  C    2.813439   4.146856   1.476909   2.473199   0.000000
    16  C    4.858147   4.621761   2.434970   1.399287   2.816220
    17  H    4.107757   2.820204   2.164771   1.091675   3.471832
    18  C    4.226844   5.311060   2.494974   2.833802   1.413604
    19  C    5.065731   5.504880   2.847046   2.448773   2.438433
    20  H    5.829983   5.226097   3.415965   2.152427   3.907574
    21  H    4.840269   6.258348   3.472771   3.924274   2.147799
    22  H    6.131522   6.564636   3.937221   3.430378   3.427090
    23  C    1.360488   1.761087   1.414663   2.494002   2.470326
    24  O    2.430262   4.516093   2.389609   3.643819   1.292974
    25  H    1.310158   3.712527   2.359653   3.761301   1.990809
                   16         17         18         19         20
    16  C    0.000000
    17  H    2.159466   0.000000
    18  C    2.427112   3.925237   0.000000
    19  C    1.408940   3.431713   1.394324   0.000000
    20  H    1.091380   2.470324   3.412059   2.166330   0.000000
    21  H    3.429546   5.015835   1.090823   2.177862   4.331092
    22  H    2.169237   4.321231   2.158803   1.090395   2.490706
    23  C    3.758507   2.754515   3.760759   4.259713   4.641605
    24  O    4.109033   4.544431   2.363061   3.624473   5.200411
    25  H    4.581146   4.446644   3.333949   4.423630   5.645287
                   21         22         23         24         25
    21  H    0.000000
    22  H    2.519078   0.000000
    23  C    4.616189   5.350106   0.000000
    24  O    2.598046   4.516143   2.758561   0.000000
    25  H    3.744185   5.415777   2.063172   1.184817   0.000000
 Symmetry turned off by external request.
 Stoichiometry    C13H9NOS
 Framework group  C1[X(C13H9NOS)]
 Deg. of freedom    69
 Full point group                 C1      NOp   1
 Rotational constants (GHZ):           1.3876393           0.2861250           0.2372128
 Leave Link  202 at Mon Jul 13 14:16:19 2020, MaxMem=  7784628224 cpu:               0.2 elap:               0.0
 (Enter /gpfs/loomis/apps/avx/software/Gaussian/16-C.01_AVX/g16/l301.exe)
 Standard basis: CC-pVDZ (5D, 7F)
 Ernie: Thresh=  0.10000D-02 Tol=  0.10000D-05 Strict=F.
 Ernie:  40 primitive shells out of 425 were deleted.
   273 basis functions,   629 primitive gaussians,   289 cartesian basis functions
    59 alpha electrons       59 beta electrons
       nuclear repulsion energy      1099.1014027764 Hartrees.
 IExCor= 4639 DFT=T Ex+Corr=wB97XD ExCW=0 ScaHFX=  1.000000
 ScaDFX=  1.000000  1.000000  1.000000  1.000000 ScalE2=  1.000000  1.000000
 IRadAn=      5 IRanWt=     -1 IRanGd=            0 ICorTp=0 IEmpDi=121
 HFx  wShort=  0.000000 wLong=  0.200000 cFull=  0.222036 cShort=  0.000000 cLong=  0.777964
 DFx  wShort=  0.000000 wLong=  0.200000 cFull=  0.000000 cShort=  0.000000 cLong=  1.000000
 NAtoms=   25 NActive=   25 NUniq=   25 SFac= 1.00D+00 NAtFMM=   60 NAOKFM=F Big=F
 Integral buffers will be    131072 words long.
 Raffenetti 1 integral format.
 Two-electron integral symmetry is turned off.
 R6Disp:  Grimme-D2 Dispersion energy=       -0.0139235424 Hartrees.
 Nuclear repulsion after empirical dispersion term =     1099.0874792340 Hartrees.
 ------------------------------------------------------------------------------
 Polarizable Continuum Model (PCM)
 =================================
 Model                : PCM.
 Atomic radii         : UFF (Universal Force Field).
 Polarization charges : Total charges.
 Charge compensation  : None.
 Solution method      : On-the-fly selection.
 Cavity type          : Scaled VdW (van der Waals Surface) (Alpha=1.100).
 Cavity algorithm     : GePol (No added spheres)
                        Default sphere list used, NSphG=   25.
                        Lebedev-Laikov grids with approx.  5.0 points / Ang**2.
                        Smoothing algorithm: York/Karplus (Gamma=1.0000).
                        Polarization charges: spherical gaussians, with
                                              point-specific exponents (IZeta= 3).
                        Self-potential: point-specific (ISelfS= 7).
                        Self-field    : sphere-specific E.n sum rule (ISelfD= 2).
 1st derivatives      : Analytical E(r).r(x)/FMM algorithm (CHGder, D1EAlg=3).
                        Cavity 1st derivative terms included.
 Solvent              : CarbonTetraChloride, Eps=   2.228000 Eps(inf)=   2.131892
 ------------------------------------------------------------------------------
 GePol: Number of generator spheres                  =      25
 GePol: Total number of spheres                      =      25
 GePol: Number of exposed spheres                    =      25 (100.00%)
 GePol: Number of points                             =    2172
 GePol: Average weight of points                     =       0.13
 GePol: Minimum weight of points                     =   0.61D-08
 GePol: Maximum weight of points                     =    0.20577
 GePol: Number of points with low weight             =     129
 GePol: Fraction of low-weight points (<1% of avg)   =       5.94%
 GePol: Cavity surface area                          =    272.943 Ang**2
 GePol: Cavity volume                                =    292.577 Ang**3
 Leave Link  301 at Mon Jul 13 14:16:19 2020, MaxMem=  7784628224 cpu:               0.8 elap:               0.1
 (Enter /gpfs/loomis/apps/avx/software/Gaussian/16-C.01_AVX/g16/l302.exe)
 NPDir=0 NMtPBC=     1 NCelOv=     1 NCel=       1 NClECP=     1 NCelD=      1
         NCelK=      1 NCelE2=     1 NClLst=     1 CellRange=     0.0.
 One-electron integrals computed using PRISM.
 NBasis=   273 RedAO= T EigKep=  3.11D-04  NBF=   273
 NBsUse=   273 1.00D-06 EigRej= -1.00D+00 NBFU=   273
 Precomputing XC quadrature grid using
 IXCGrd= 4 IRadAn=           5 IRanWt=          -1 IRanGd=           0 AccXCQ= 0.00D+00.
 Generated NRdTot=       0 NPtTot=           0 NUsed=           0 NTot=          32
 NSgBfM=   288   288   288   288   288 MxSgAt=    25 MxSgA2=    25.
 Leave Link  302 at Mon Jul 13 14:16:20 2020, MaxMem=  7784628224 cpu:               4.9 elap:               0.7
 (Enter /gpfs/loomis/apps/avx/software/Gaussian/16-C.01_AVX/g16/l303.exe)
 DipDrv:  MaxL=1.
 Leave Link  303 at Mon Jul 13 14:16:20 2020, MaxMem=  7784628224 cpu:               0.6 elap:               0.1
 (Enter /gpfs/loomis/apps/avx/software/Gaussian/16-C.01_AVX/g16/l308.exe)
 Leave Link  308 at Mon Jul 13 14:16:20 2020, MaxMem=  7784628224 cpu:               1.2 elap:               0.3
 (Enter /gpfs/loomis/apps/avx/software/Gaussian/16-C.01_AVX/g16/l401.exe)
 ExpMin= 1.22D-01 ExpMax= 1.11D+05 ExpMxC= 1.07D+03 IAcc=3 IRadAn=         5 AccDes= 0.00D+00
 Harris functional with IExCor= 4639 and IRadAn=       5 diagonalized for initial guess.
 HarFok:  IExCor= 4639 AccDes= 0.00D+00 IRadAn=         5 IDoV= 1 UseB2=F ITyADJ=14
 ICtDFT=  3500011 ScaDFX=  1.000000  1.000000  1.000000  1.000000
 FoFCou: FMM=F IPFlag=           0 FMFlag=      100000 FMFlg1=           0
         NFxFlg=           0 DoJE=T BraDBF=F KetDBF=T FulRan=T
         wScrn=  0.000000 ICntrl=       500 IOpCl=  0 I1Cent=   200000004 NGrid=           0
         NMat0=    1 NMatS0=      1 NMatT0=    0 NMatD0=    1 NMtDS0=    0 NMtDT0=    0
 Symmetry not used in FoFCou.
 Harris En= -994.458956471228    
 JPrj=0 DoOrth=F DoCkMO=F.
 Leave Link  401 at Mon Jul 13 14:16:22 2020, MaxMem=  7784628224 cpu:              13.5 elap:               1.5
 (Enter /gpfs/loomis/apps/avx/software/Gaussian/16-C.01_AVX/g16/l502.exe)
 Two-electron integral symmetry not used.
 Closed shell SCF:
 Using DIIS extrapolation, IDIIS=  1040.
 NGot=  7784628224 LenX=  7784455381 LenY=  7784371419
 Requested convergence on RMS density matrix=1.00D-08 within 128 cycles.
 Requested convergence on MAX density matrix=1.00D-06.
 Requested convergence on             energy=1.00D-06.
 No special actions if energy rises.
 Fock matrices will be formed incrementally for  20 cycles.

 Cycle   1  Pass 1  IDiag  1:
 FoFJK:  IHMeth= 1 ICntrl=       0 DoSepK=T KAlg= 0 I1Cent=           0 FoldK=F
 IRaf=         1 NMat=       1 IRICut=       1 DoRegI=T DoRafI=F ISym2E= 0 IDoP0=0 IntGTp=1.
 FoFCou: FMM=F IPFlag=           0 FMFlag=      100000 FMFlg1=           0
         NFxFlg=           0 DoJE=T BraDBF=F KetDBF=F FulRan=T
         wScrn=  0.000000 ICntrl=       500 IOpCl=  0 I1Cent=           0 NGrid=           0
         NMat0=    1 NMatS0=      1 NMatT0=    0 NMatD0=    1 NMtDS0=    0 NMtDT0=    0
 Symmetry not used in FoFCou.
 Inv3:  Mode=1 IEnd=    14152752.
 Iteration    1 A*A^-1 deviation from unit magnitude is 6.00D-15 for   2153.
 Iteration    1 A*A^-1 deviation from orthogonality  is 1.73D-15 for   2170   1978.
 Iteration    1 A^-1*A deviation from unit magnitude is 5.77D-15 for   2153.
 Iteration    1 A^-1*A deviation from orthogonality  is 1.29D-15 for   2169   2057.
 E= -1028.57604990185    
 DIIS: error= 3.64D-02 at cycle   1 NSaved=   1.
 NSaved= 1 IEnMin= 1 EnMin= -1028.57604990185     IErMin= 1 ErrMin= 3.64D-02
 ErrMax= 3.64D-02  0.00D+00 EMaxC= 1.00D-01 BMatC= 3.92D-01 BMatP= 3.92D-01
 IDIUse=3 WtCom= 6.36D-01 WtEn= 3.64D-01
 Coeff-Com:  0.100D+01
 Coeff-En:   0.100D+01
 Coeff:      0.100D+01
 Gap=     0.345 Goal=   None    Shift=    0.000
 GapD=    0.345 DampG=1.000 DampE=0.500 DampFc=0.5000 IDamp=-1.
 Damping current iteration by 5.00D-01
 RMSDP=3.53D-03 MaxDP=2.24D-01              OVMax= 1.76D-01

 Cycle   2  Pass 1  IDiag  1:
 RMSU=  1.76D-03    CP:  9.93D-01
 E= -1028.69414216853     Delta-E=       -0.118092266678 Rises=F Damp=T
 DIIS: error= 1.23D-02 at cycle   2 NSaved=   2.
 NSaved= 2 IEnMin= 2 EnMin= -1028.69414216853     IErMin= 2 ErrMin= 1.23D-02
 ErrMax= 1.23D-02  0.00D+00 EMaxC= 1.00D-01 BMatC= 5.78D-02 BMatP= 3.92D-01
 IDIUse=3 WtCom= 8.77D-01 WtEn= 1.23D-01
 Coeff-Com: -0.289D+00 0.129D+01
 Coeff-En:   0.000D+00 0.100D+01
 Coeff:     -0.254D+00 0.125D+01
 Gap=     0.301 Goal=   None    Shift=    0.000
 RMSDP=1.14D-03 MaxDP=2.42D-02 DE=-1.18D-01 OVMax= 1.15D-01

 Cycle   3  Pass 1  IDiag  1:
 RMSU=  1.09D-03    CP:  9.91D-01  1.20D+00
 E= -1028.79913196462     Delta-E=       -0.104989796087 Rises=F Damp=F
 DIIS: error= 5.89D-03 at cycle   3 NSaved=   3.
 NSaved= 3 IEnMin= 3 EnMin= -1028.79913196462     IErMin= 3 ErrMin= 5.89D-03
 ErrMax= 5.89D-03  0.00D+00 EMaxC= 1.00D-01 BMatC= 1.35D-02 BMatP= 5.78D-02
 IDIUse=3 WtCom= 9.41D-01 WtEn= 5.89D-02
 Coeff-Com: -0.199D+00 0.478D+00 0.721D+00
 Coeff-En:   0.000D+00 0.000D+00 0.100D+01
 Coeff:     -0.188D+00 0.450D+00 0.737D+00
 Gap=     0.259 Goal=   None    Shift=    0.000
 RMSDP=5.24D-04 MaxDP=1.77D-02 DE=-1.05D-01 OVMax= 3.79D-02

 Cycle   4  Pass 1  IDiag  1:
 RMSU=  4.13D-04    CP:  9.89D-01  1.35D+00  8.46D-01
 E= -1028.81162327865     Delta-E=       -0.012491314037 Rises=F Damp=F
 DIIS: error= 2.10D-03 at cycle   4 NSaved=   4.
 NSaved= 4 IEnMin= 4 EnMin= -1028.81162327865     IErMin= 4 ErrMin= 2.10D-03
 ErrMax= 2.10D-03  0.00D+00 EMaxC= 1.00D-01 BMatC= 1.67D-03 BMatP= 1.35D-02
 IDIUse=3 WtCom= 9.79D-01 WtEn= 2.10D-02
 Coeff-Com: -0.707D-01 0.140D+00 0.351D+00 0.580D+00
 Coeff-En:   0.000D+00 0.000D+00 0.000D+00 0.100D+01
 Coeff:     -0.693D-01 0.137D+00 0.344D+00 0.588D+00
 Gap=     0.257 Goal=   None    Shift=    0.000
 RMSDP=1.67D-04 MaxDP=9.78D-03 DE=-1.25D-02 OVMax= 1.36D-02

 Cycle   5  Pass 1  IDiag  1:
 RMSU=  1.04D-04    CP:  9.89D-01  1.36D+00  9.16D-01  7.47D-01
 E= -1028.81334968172     Delta-E=       -0.001726403064 Rises=F Damp=F
 DIIS: error= 3.90D-04 at cycle   5 NSaved=   5.
 NSaved= 5 IEnMin= 5 EnMin= -1028.81334968172     IErMin= 5 ErrMin= 3.90D-04
 ErrMax= 3.90D-04  0.00D+00 EMaxC= 1.00D-01 BMatC= 5.07D-05 BMatP= 1.67D-03
 IDIUse=3 WtCom= 9.96D-01 WtEn= 3.90D-03
 Coeff-Com: -0.170D-02-0.257D-02 0.358D-01 0.160D+00 0.808D+00
 Coeff-En:   0.000D+00 0.000D+00 0.000D+00 0.000D+00 0.100D+01
 Coeff:     -0.169D-02-0.256D-02 0.357D-01 0.159D+00 0.809D+00
 Gap=     0.258 Goal=   None    Shift=    0.000
 RMSDP=5.07D-05 MaxDP=1.53D-03 DE=-1.73D-03 OVMax= 4.75D-03

 Cycle   6  Pass 1  IDiag  1:
 RMSU=  3.24D-05    CP:  9.89D-01  1.37D+00  9.34D-01  8.25D-01  1.07D+00
 E= -1028.81345375621     Delta-E=       -0.000104074489 Rises=F Damp=F
 DIIS: error= 1.66D-04 at cycle   6 NSaved=   6.
 NSaved= 6 IEnMin= 6 EnMin= -1028.81345375621     IErMin= 6 ErrMin= 1.66D-04
 ErrMax= 1.66D-04  0.00D+00 EMaxC= 1.00D-01 BMatC= 8.86D-06 BMatP= 5.07D-05
 IDIUse=3 WtCom= 9.98D-01 WtEn= 1.66D-03
 Coeff-Com:  0.142D-01-0.295D-01-0.563D-01-0.580D-01 0.219D+00 0.911D+00
 Coeff-En:   0.000D+00 0.000D+00 0.000D+00 0.000D+00 0.000D+00 0.100D+01
 Coeff:      0.142D-01-0.294D-01-0.562D-01-0.579D-01 0.218D+00 0.911D+00
 Gap=     0.258 Goal=   None    Shift=    0.000
 RMSDP=2.86D-05 MaxDP=1.48D-03 DE=-1.04D-04 OVMax= 2.66D-03

 Cycle   7  Pass 1  IDiag  1:
 RMSU=  1.48D-05    CP:  9.89D-01  1.37D+00  9.44D-01  8.53D-01  1.24D+00
                    CP:  1.24D+00
 E= -1028.81347886072     Delta-E=       -0.000025104508 Rises=F Damp=F
 DIIS: error= 1.18D-04 at cycle   7 NSaved=   7.
 NSaved= 7 IEnMin= 7 EnMin= -1028.81347886072     IErMin= 7 ErrMin= 1.18D-04
 ErrMax= 1.18D-04  0.00D+00 EMaxC= 1.00D-01 BMatC= 2.11D-06 BMatP= 8.86D-06
 IDIUse=3 WtCom= 9.99D-01 WtEn= 1.18D-03
 Coeff-Com:  0.644D-02-0.123D-01-0.293D-01-0.465D-01-0.116D-01 0.408D+00
 Coeff-Com:  0.685D+00
 Coeff-En:   0.000D+00 0.000D+00 0.000D+00 0.000D+00 0.000D+00 0.000D+00
 Coeff-En:   0.100D+01
 Coeff:      0.643D-02-0.123D-01-0.292D-01-0.464D-01-0.116D-01 0.408D+00
 Coeff:      0.685D+00
 Gap=     0.258 Goal=   None    Shift=    0.000
 RMSDP=9.84D-06 MaxDP=4.23D-04 DE=-2.51D-05 OVMax= 1.17D-03

 Cycle   8  Pass 1  IDiag  1:
 RMSU=  6.13D-06    CP:  9.89D-01  1.37D+00  9.46D-01  8.59D-01  1.27D+00
                    CP:  1.42D+00  1.11D+00
 E= -1028.81348292658     Delta-E=       -0.000004065867 Rises=F Damp=F
 DIIS: error= 4.14D-05 at cycle   8 NSaved=   8.
 NSaved= 8 IEnMin= 8 EnMin= -1028.81348292658     IErMin= 8 ErrMin= 4.14D-05
 ErrMax= 4.14D-05  0.00D+00 EMaxC= 1.00D-01 BMatC= 2.98D-07 BMatP= 2.11D-06
 IDIUse=1 WtCom= 1.00D+00 WtEn= 0.00D+00
 Coeff-Com: -0.109D-02 0.246D-02 0.350D-02 0.528D-03-0.403D-01-0.662D-01
 Coeff-Com:  0.225D+00 0.876D+00
 Coeff:     -0.109D-02 0.246D-02 0.350D-02 0.528D-03-0.403D-01-0.662D-01
 Coeff:      0.225D+00 0.876D+00
 Gap=     0.259 Goal=   None    Shift=    0.000
 RMSDP=4.89D-06 MaxDP=1.51D-04 DE=-4.07D-06 OVMax= 6.94D-04

 Cycle   9  Pass 1  IDiag  1:
 RMSU=  2.30D-06    CP:  9.89D-01  1.37D+00  9.46D-01  8.59D-01  1.28D+00
                    CP:  1.49D+00  1.32D+00  1.16D+00
 E= -1028.81348376887     Delta-E=       -0.000000842283 Rises=F Damp=F
 DIIS: error= 1.64D-05 at cycle   9 NSaved=   9.
 NSaved= 9 IEnMin= 9 EnMin= -1028.81348376887     IErMin= 9 ErrMin= 1.64D-05
 ErrMax= 1.64D-05  0.00D+00 EMaxC= 1.00D-01 BMatC= 4.31D-08 BMatP= 2.98D-07
 IDIUse=1 WtCom= 1.00D+00 WtEn= 0.00D+00
 Coeff-Com: -0.112D-02 0.224D-02 0.474D-02 0.640D-02-0.107D-01-0.811D-01
 Coeff-Com: -0.158D-01 0.263D+00 0.832D+00
 Coeff:     -0.112D-02 0.224D-02 0.474D-02 0.640D-02-0.107D-01-0.811D-01
 Coeff:     -0.158D-01 0.263D+00 0.832D+00
 Gap=     0.259 Goal=   None    Shift=    0.000
 RMSDP=2.21D-06 MaxDP=5.89D-05 DE=-8.42D-07 OVMax= 3.52D-04

 Cycle  10  Pass 1  IDiag  1:
 RMSU=  1.06D-06    CP:  9.89D-01  1.37D+00  9.46D-01  8.59D-01  1.28D+00
                    CP:  1.52D+00  1.41D+00  1.32D+00  1.22D+00
 E= -1028.81348393751     Delta-E=       -0.000000168646 Rises=F Damp=F
 DIIS: error= 8.17D-06 at cycle  10 NSaved=  10.
 NSaved=10 IEnMin=10 EnMin= -1028.81348393751     IErMin=10 ErrMin= 8.17D-06
 ErrMax= 8.17D-06  0.00D+00 EMaxC= 1.00D-01 BMatC= 1.20D-08 BMatP= 4.31D-08
 IDIUse=1 WtCom= 1.00D+00 WtEn= 0.00D+00
 Coeff-Com: -0.161D-03 0.269D-03 0.961D-03 0.237D-02 0.436D-02-0.195D-01
 Coeff-Com: -0.471D-01-0.960D-01 0.311D+00 0.844D+00
 Coeff:     -0.161D-03 0.269D-03 0.961D-03 0.237D-02 0.436D-02-0.195D-01
 Coeff:     -0.471D-01-0.960D-01 0.311D+00 0.844D+00
 Gap=     0.259 Goal=   None    Shift=    0.000
 RMSDP=1.23D-06 MaxDP=3.29D-05 DE=-1.69D-07 OVMax= 2.03D-04

 Cycle  11  Pass 1  IDiag  1:
 RMSU=  4.89D-07    CP:  9.89D-01  1.37D+00  9.45D-01  8.59D-01  1.28D+00
                    CP:  1.53D+00  1.44D+00  1.41D+00  1.53D+00  1.22D+00
 E= -1028.81348398363     Delta-E=       -0.000000046118 Rises=F Damp=F
 DIIS: error= 4.21D-06 at cycle  11 NSaved=  11.
 NSaved=11 IEnMin=11 EnMin= -1028.81348398363     IErMin=11 ErrMin= 4.21D-06
 ErrMax= 4.21D-06  0.00D+00 EMaxC= 1.00D-01 BMatC= 1.88D-09 BMatP= 1.20D-08
 IDIUse=1 WtCom= 1.00D+00 WtEn= 0.00D+00
 Coeff-Com:  0.226D-03-0.466D-03-0.843D-03-0.756D-03 0.417D-02 0.103D-01
 Coeff-Com: -0.504D-02-0.829D-01-0.689D-01 0.215D+00 0.930D+00
 Coeff:      0.226D-03-0.466D-03-0.843D-03-0.756D-03 0.417D-02 0.103D-01
 Coeff:     -0.504D-02-0.829D-01-0.689D-01 0.215D+00 0.930D+00
 Gap=     0.259 Goal=   None    Shift=    0.000
 RMSDP=5.60D-07 MaxDP=1.48D-05 DE=-4.61D-08 OVMax= 1.06D-04

 Cycle  12  Pass 1  IDiag  1:
 RMSU=  1.98D-07    CP:  9.89D-01  1.37D+00  9.45D-01  8.59D-01  1.28D+00
                    CP:  1.54D+00  1.45D+00  1.43D+00  1.67D+00  1.51D+00
                    CP:  1.18D+00
 E= -1028.81348399309     Delta-E=       -0.000000009461 Rises=F Damp=F
 DIIS: error= 1.25D-06 at cycle  12 NSaved=  12.
 NSaved=12 IEnMin=12 EnMin= -1028.81348399309     IErMin=12 ErrMin= 1.25D-06
 ErrMax= 1.25D-06  0.00D+00 EMaxC= 1.00D-01 BMatC= 5.03D-10 BMatP= 1.88D-09
 IDIUse=1 WtCom= 1.00D+00 WtEn= 0.00D+00
 Coeff-Com:  0.111D-03-0.216D-03-0.487D-03-0.773D-03 0.908D-03 0.747D-02
 Coeff-Com:  0.901D-02-0.144D-01-0.944D-01-0.127D+00 0.337D+00 0.882D+00
 Coeff:      0.111D-03-0.216D-03-0.487D-03-0.773D-03 0.908D-03 0.747D-02
 Coeff:      0.901D-02-0.144D-01-0.944D-01-0.127D+00 0.337D+00 0.882D+00
 Gap=     0.259 Goal=   None    Shift=    0.000
 RMSDP=2.99D-07 MaxDP=6.88D-06 DE=-9.46D-09 OVMax= 4.83D-05

 Cycle  13  Pass 1  IDiag  1:
 RMSU=  7.80D-08    CP:  9.89D-01  1.37D+00  9.46D-01  8.59D-01  1.28D+00
                    CP:  1.54D+00  1.46D+00  1.45D+00  1.75D+00  1.64D+00
                    CP:  1.48D+00  1.15D+00
 E= -1028.81348399497     Delta-E=       -0.000000001885 Rises=F Damp=F
 DIIS: error= 4.82D-07 at cycle  13 NSaved=  13.
 NSaved=13 IEnMin=13 EnMin= -1028.81348399497     IErMin=13 ErrMin= 4.82D-07
 ErrMax= 4.82D-07  0.00D+00 EMaxC= 1.00D-01 BMatC= 3.71D-11 BMatP= 5.03D-10
 IDIUse=1 WtCom= 1.00D+00 WtEn= 0.00D+00
 Coeff-Com: -0.464D-05 0.122D-04-0.223D-05-0.984D-04-0.232D-03 0.436D-03
 Coeff-Com:  0.336D-02 0.793D-02-0.108D-01-0.624D-01-0.443D-01 0.219D+00
 Coeff-Com:  0.887D+00
 Coeff:     -0.464D-05 0.122D-04-0.223D-05-0.984D-04-0.232D-03 0.436D-03
 Coeff:      0.336D-02 0.793D-02-0.108D-01-0.624D-01-0.443D-01 0.219D+00
 Coeff:      0.887D+00
 Gap=     0.259 Goal=   None    Shift=    0.000
 RMSDP=6.69D-08 MaxDP=1.70D-06 DE=-1.88D-09 OVMax= 1.01D-05

 Cycle  14  Pass 1  IDiag  1:
 RMSU=  2.78D-08    CP:  9.89D-01  1.37D+00  9.46D-01  8.59D-01  1.28D+00
                    CP:  1.54D+00  1.46D+00  1.45D+00  1.76D+00  1.67D+00
                    CP:  1.54D+00  1.31D+00  1.14D+00
 E= -1028.81348399509     Delta-E=       -0.000000000111 Rises=F Damp=F
 DIIS: error= 1.15D-07 at cycle  14 NSaved=  14.
 NSaved=14 IEnMin=14 EnMin= -1028.81348399509     IErMin=14 ErrMin= 1.15D-07
 ErrMax= 1.15D-07  0.00D+00 EMaxC= 1.00D-01 BMatC= 6.17D-12 BMatP= 3.71D-11
 IDIUse=1 WtCom= 1.00D+00 WtEn= 0.00D+00
 Coeff-Com: -0.118D-04 0.242D-04 0.447D-04 0.312D-04-0.159D-03-0.500D-03
 Coeff-Com:  0.486D-03 0.405D-02 0.428D-02-0.123D-01-0.448D-01 0.177D-02
 Coeff-Com:  0.335D+00 0.712D+00
 Coeff:     -0.118D-04 0.242D-04 0.447D-04 0.312D-04-0.159D-03-0.500D-03
 Coeff:      0.486D-03 0.405D-02 0.428D-02-0.123D-01-0.448D-01 0.177D-02
 Coeff:      0.335D+00 0.712D+00
 Gap=     0.259 Goal=   None    Shift=    0.000
 RMSDP=1.75D-08 MaxDP=4.96D-07 DE=-1.11D-10 OVMax= 1.78D-06

 Cycle  15  Pass 1  IDiag  1:
 RMSU=  1.13D-08    CP:  9.89D-01  1.37D+00  9.46D-01  8.59D-01  1.28D+00
                    CP:  1.54D+00  1.46D+00  1.45D+00  1.76D+00  1.67D+00
                    CP:  1.55D+00  1.34D+00  1.25D+00  1.00D+00
 E= -1028.81348399510     Delta-E=       -0.000000000013 Rises=F Damp=F
 DIIS: error= 7.58D-08 at cycle  15 NSaved=  15.
 NSaved=15 IEnMin=15 EnMin= -1028.81348399510     IErMin=15 ErrMin= 7.58D-08
 ErrMax= 7.58D-08  0.00D+00 EMaxC= 1.00D-01 BMatC= 1.00D-12 BMatP= 6.17D-12
 IDIUse=1 WtCom= 1.00D+00 WtEn= 0.00D+00
 Coeff-Com: -0.326D-05 0.611D-05 0.172D-04 0.292D-04-0.171D-04-0.316D-03
 Coeff-Com: -0.527D-03-0.107D-03 0.401D-02 0.815D-02-0.746D-02-0.445D-01
 Coeff-Com: -0.448D-01 0.271D+00 0.814D+00
 Coeff:     -0.326D-05 0.611D-05 0.172D-04 0.292D-04-0.171D-04-0.316D-03
 Coeff:     -0.527D-03-0.107D-03 0.401D-02 0.815D-02-0.746D-02-0.445D-01
 Coeff:     -0.448D-01 0.271D+00 0.814D+00
 Gap=     0.259 Goal=   None    Shift=    0.000
 RMSDP=7.88D-09 MaxDP=1.86D-07 DE=-1.30D-11 OVMax= 9.02D-07

 Error on total polarization charges =  0.00843
 SCF Done:  E(RwB97XD) =  -1028.81348400     A.U. after   15 cycles
            NFock= 15  Conv=0.79D-08     -V/T= 2.0050
 KE= 1.023708447601D+03 PE=-4.610292049315D+03 EE= 1.458682638485D+03
 Leave Link  502 at Mon Jul 13 14:17:45 2020, MaxMem=  7784628224 cpu:             824.0 elap:              83.3
 (Enter /gpfs/loomis/apps/avx/software/Gaussian/16-C.01_AVX/g16/l801.exe)
 DoSCS=F DFT=T ScalE2(SS,OS)=  1.000000  1.000000
 ExpMin= 1.22D-01 ExpMax= 1.11D+05 ExpMxC= 1.07D+03 IAcc=3 IRadAn=         5 AccDes= 0.00D+00
 HarFok:  IExCor=  205 AccDes= 0.00D+00 IRadAn=         5 IDoV=-2 UseB2=F ITyADJ=14
 ICtDFT= 12500011 ScaDFX=  1.000000  1.000000  1.000000  1.000000
 Largest valence mixing into a core orbital is  9.50D-05
 Largest core mixing into a valence orbital is  3.03D-05
 Range of M.O.s used for correlation:    21   273
 NBasis=   273 NAE=    59 NBE=    59 NFC=    20 NFV=     0
 NROrb=    253 NOA=    39 NOB=    39 NVA=   214 NVB=   214

 **** Warning!!: The largest alpha MO coefficient is  0.10875569D+02

 Leave Link  801 at Mon Jul 13 14:17:45 2020, MaxMem=  7784628224 cpu:               1.0 elap:               0.1
 (Enter /gpfs/loomis/apps/avx/software/Gaussian/16-C.01_AVX/g16/l914.exe)
 RHF ground state
 Keep R1, R2, and R3 ints in memory in canonical form, NReq=4262515490.
 FoFCou: FMM=F IPFlag=           0 FMFlag=           0 FMFlg1=           0
         NFxFlg=           0 DoJE=F BraDBF=F KetDBF=F FulRan=T
         wScrn=  0.000000 ICntrl=       600 IOpCl=  0 I1Cent=           0 NGrid=           0
         NMat0=    1 NMatS0=  37401 NMatT0=    0 NMatD0=    1 NMtDS0=    0 NMtDT0=    0
 Symmetry not used in FoFCou.
 Two-electron integral symmetry not used.
 MDV=  7784628224 DFT=T DoStab=F Mixed=T DoRPA=T DoScal=F NonHer=T
 NEqPCM:  Using equilibrium solvation (IEInf=0, Eps=   2.2280, EpsInf=   2.1319)
 Making orbital integer symmetry assigments:
    12 initial guesses have been made.
 Convergence on wavefunction:    0.000001000000000
 Davidson Disk Diagonalization:  ConvIn= 1.00D-06 SkipCon=T Conv= 1.00D-06.
 Max sub-space:  2000 roots to seek:    12 dimension of matrix:        16692
 Iteration     1 Dimension    12 NMult     0 NNew     12
 CISAX will form    12 AO SS matrices at one time.
 NMat=    12 NSing=    12 JSym2X= 0.
 New state      3 was old state      5
 Excitation Energies [eV] at current iteration:
 Root      1 :     3.842326074000979
 Root      2 :     4.952435329997611
 Root      3 :     4.970393391745290
 Root      4 :     5.170561336664411
 Root      5 :     5.890330840599560
 Root      6 :     6.148912669489308
 Root      7 :     6.314481660257643
 Root      8 :     6.436333880370390
 Root      9 :     6.867371638715998
 Root     10 :     7.125649015241813
 Root     11 :     7.250829320325106
 Root     12 :     7.961021497689429
 Iteration     2 Dimension    18 NMult    12 NNew      6
 CISAX will form     6 AO SS matrices at one time.
 NMat=     6 NSing=     6 JSym2X= 0.
 Root      1 not converged, maximum delta is    0.043949221505981
 Root      2 not converged, maximum delta is    0.087608478572644
 Root      3 not converged, maximum delta is    0.064294732101654
 Excitation Energies [eV] at current iteration:
 Root      1 :     3.355187221525548   Change is   -0.487138852475430
 Root      2 :     4.416265980349436   Change is   -0.536169349648175
 Root      3 :     4.760571350481603   Change is   -0.209822041263687
 Iteration     3 Dimension    24 NMult    18 NNew      6
 CISAX will form     6 AO SS matrices at one time.
 NMat=     6 NSing=     6 JSym2X= 0.
 Root      1 not converged, maximum delta is    0.021350239500323
 Root      2 not converged, maximum delta is    0.022500718944460
 Root      3 not converged, maximum delta is    0.026907385290539
 Excitation Energies [eV] at current iteration:
 Root      1 :     3.320397424209029   Change is   -0.034789797316520
 Root      2 :     4.383784729927429   Change is   -0.032481250422007
 Root      3 :     4.744700125242969   Change is   -0.015871225238635
 Iteration     4 Dimension    30 NMult    24 NNew      6
 CISAX will form     6 AO SS matrices at one time.
 NMat=     6 NSing=     6 JSym2X= 0.
 Root      1 not converged, maximum delta is    0.007967367809359
 Root      2 not converged, maximum delta is    0.011288608383633
 Root      3 not converged, maximum delta is    0.008698701456606
 Excitation Energies [eV] at current iteration:
 Root      1 :     3.315525246675280   Change is   -0.004872177533748
 Root      2 :     4.378027407450859   Change is   -0.005757322476570
 Root      3 :     4.743250008712008   Change is   -0.001450116530961
 Iteration     5 Dimension    36 NMult    30 NNew      6
 CISAX will form     6 AO SS matrices at one time.
 NMat=     6 NSing=     6 JSym2X= 0.
 Root      1 not converged, maximum delta is    0.003110255286053
 Root      2 not converged, maximum delta is    0.003149562906611
 Root      3 not converged, maximum delta is    0.001844289593196
 Excitation Energies [eV] at current iteration:
 Root      1 :     3.315041180680729   Change is   -0.000484065994551
 Root      2 :     4.377416693443558   Change is   -0.000610714007301
 Root      3 :     4.743121199955625   Change is   -0.000128808756383
 Iteration     6 Dimension    42 NMult    36 NNew      6
 CISAX will form     6 AO SS matrices at one time.
 NMat=     6 NSing=     6 JSym2X= 0.
 Root      1 not converged, maximum delta is    0.000564750257695
 Root      2 not converged, maximum delta is    0.001350494000746
 Root      3 not converged, maximum delta is    0.000319288128999
 Excitation Energies [eV] at current iteration:
 Root      1 :     3.314989523487755   Change is   -0.000051657192975
 Root      2 :     4.377332487080340   Change is   -0.000084206363218
 Root      3 :     4.743109835069788   Change is   -0.000011364885837
 Iteration     7 Dimension    48 NMult    42 NNew      6
 CISAX will form     6 AO SS matrices at one time.
 NMat=     6 NSing=     6 JSym2X= 0.
 Root      1 not converged, maximum delta is    0.000202133720281
 Root      2 not converged, maximum delta is    0.001314019037064
 Root      3 not converged, maximum delta is    0.000093848772417
 Excitation Energies [eV] at current iteration:
 Root      1 :     3.314985755270789   Change is   -0.000003768216966
 Root      2 :     4.377317103305763   Change is   -0.000015383774577
 Root      3 :     4.743109149735988   Change is   -0.000000685333800
 Iteration     8 Dimension    54 NMult    48 NNew      6
 CISAX will form     6 AO SS matrices at one time.
 NMat=     6 NSing=     6 JSym2X= 0.
 Root      1 not converged, maximum delta is    0.000033238671162
 Root      2 not converged, maximum delta is    0.000453680398829
 Root      3 not converged, maximum delta is    0.000054415212787
 Excitation Energies [eV] at current iteration:
 Root      1 :     3.314985455816919   Change is   -0.000000299453869
 Root      2 :     4.377314916331422   Change is   -0.000002186974341
 Root      3 :     4.743109092622282   Change is   -0.000000057113706
 Iteration     9 Dimension    60 NMult    54 NNew      6
 CISAX will form     6 AO SS matrices at one time.
 NMat=     6 NSing=     6 JSym2X= 0.
 Root      1 not converged, maximum delta is    0.000009973580006
 Root      2 not converged, maximum delta is    0.000162237688708
 Root      3 not converged, maximum delta is    0.000170679524820
 Excitation Energies [eV] at current iteration:
 Root      1 :     3.314985438593315   Change is   -0.000000017223604
 Root      2 :     4.377314544036465   Change is   -0.000000372294957
 Root      3 :     4.743109082925554   Change is   -0.000000009696728
 Iteration    10 Dimension    66 NMult    60 NNew      6
 CISAX will form     6 AO SS matrices at one time.
 NMat=     6 NSing=     6 JSym2X= 0.
 Root      1 not converged, maximum delta is    0.000002091211653
 Root      2 not converged, maximum delta is    0.000045161862946
 No map to state      3
 Excitation Energies [eV] at current iteration:
 Root      1 :     3.314985437560447   Change is   -0.000000001032868
 Root      2 :     4.377314492920286   Change is   -0.000000051116180
 Root      3 :     4.742720943254378
 Iteration    11 Dimension    72 NMult    66 NNew      6
 CISAX will form     6 AO SS matrices at one time.
 NMat=     6 NSing=     6 JSym2X= 0.
 Root      1 has converged.
 Root      2 not converged, maximum delta is    0.000004720177325
 Root      3 not converged, maximum delta is    0.019452257747223
 Excitation Energies [eV] at current iteration:
 Root      1 :     3.314985437498922   Change is   -0.000000000061526
 Root      2 :     4.377314489080530   Change is   -0.000000003839756
 Root      3 :     4.735934316085893   Change is   -0.006786627168486
 Iteration    12 Dimension    76 NMult    72 NNew      4
 CISAX will form     4 AO SS matrices at one time.
 NMat=     4 NSing=     4 JSym2X= 0.
 Root      1 has converged.
 Root      2 has converged.
 Root      3 not converged, maximum delta is    0.002401954481201
 Excitation Energies [eV] at current iteration:
 Root      1 :     3.314985437498698   Change is   -0.000000000000223
 Root      2 :     4.377314488879805   Change is   -0.000000000200724
 Root      3 :     4.735414243076246   Change is   -0.000520073009647
 Iteration    13 Dimension    78 NMult    76 NNew      2
 CISAX will form     2 AO SS matrices at one time.
 NMat=     2 NSing=     2 JSym2X= 0.
 Root      1 has converged.
 Root      2 has converged.
 Root      3 not converged, maximum delta is    0.001305998172680
 Excitation Energies [eV] at current iteration:
 Root      1 :     3.314985437498549   Change is   -0.000000000000149
 Root      2 :     4.377314488876049   Change is   -0.000000000003757
 Root      3 :     4.735357271937176   Change is   -0.000056971139069
 Iteration    14 Dimension    80 NMult    78 NNew      2
 CISAX will form     2 AO SS matrices at one time.
 NMat=     2 NSing=     2 JSym2X= 0.
 Root      1 has converged.
 Root      2 has converged.
 Root      3 not converged, maximum delta is    0.000734128412828
 Excitation Energies [eV] at current iteration:
 Root      1 :     3.314985437498599   Change is    0.000000000000049
 Root      2 :     4.377314488875712   Change is   -0.000000000000338
 Root      3 :     4.735349056785137   Change is   -0.000008215152039
 Iteration    15 Dimension    82 NMult    80 NNew      2
 CISAX will form     2 AO SS matrices at one time.
 NMat=     2 NSing=     2 JSym2X= 0.
 Root      1 has converged.
 Root      2 has converged.
 Root      3 not converged, maximum delta is    0.000268890373310
 Excitation Energies [eV] at current iteration:
 Root      1 :     3.314985437498599   Change is    0.000000000000000
 Root      2 :     4.377314488875599   Change is   -0.000000000000113
 Root      3 :     4.735347845091494   Change is   -0.000001211693643
 Iteration    16 Dimension    84 NMult    82 NNew      2
 CISAX will form     2 AO SS matrices at one time.
 NMat=     2 NSing=     2 JSym2X= 0.
 Root      1 has converged.
 Root      2 has converged.
 Root      3 not converged, maximum delta is    0.000056148583053
 Excitation Energies [eV] at current iteration:
 Root      1 :     3.314985437498574   Change is   -0.000000000000025
 Root      2 :     4.377314488875449   Change is   -0.000000000000150
 Root      3 :     4.735347725190768   Change is   -0.000000119900726
 Iteration    17 Dimension    86 NMult    84 NNew      2
 CISAX will form     2 AO SS matrices at one time.
 NMat=     2 NSing=     2 JSym2X= 0.
 Root      1 has converged.
 Root      2 has converged.
 Root      3 not converged, maximum delta is    0.000012405943447
 Excitation Energies [eV] at current iteration:
 Root      1 :     3.314985437498574   Change is    0.000000000000000
 Root      2 :     4.377314488875204   Change is   -0.000000000000245
 Root      3 :     4.735347712507158   Change is   -0.000000012683610
 Iteration    18 Dimension    88 NMult    86 NNew      2
 CISAX will form     2 AO SS matrices at one time.
 NMat=     2 NSing=     2 JSym2X= 0.
 Root      1 has converged.
 Root      2 has converged.
 Root      3 not converged, maximum delta is    0.000003644110265
 Excitation Energies [eV] at current iteration:
 Root      1 :     3.314985437498450   Change is   -0.000000000000124
 Root      2 :     4.377314488875186   Change is   -0.000000000000018
 Root      3 :     4.735347711310419   Change is   -0.000000001196739
 Iteration    19 Dimension    90 NMult    88 NNew      2
 CISAX will form     2 AO SS matrices at one time.
 NMat=     2 NSing=     2 JSym2X= 0.
 Root      1 has converged.
 Root      2 has converged.
 Root      3 has converged.
 Excitation Energies [eV] at current iteration:
 Root      1 :     3.314985437498425   Change is   -0.000000000000025
 Root      2 :     4.377314488874828   Change is   -0.000000000000357
 Root      3 :     4.735347711216430   Change is   -0.000000000093989
 Convergence achieved on expansion vectors.
 ***********************************************************************
 Excited states from <AA,BB:AA,BB> singles matrix:
 ***********************************************************************
 
 1PDM for each excited state written to RWF  633
 Ground to excited state transition densities written to RWF  633
 Ground to excited state transition electric dipole moments (Au):
       state          X           Y           Z        Dip. S.      Osc.
         1         1.3708     -2.1363     -0.0000      6.4430      0.5233
         2         1.5919     -0.7611     -0.0000      3.1135      0.3339
         3        -0.6915     -0.0447     -0.0000      0.4802      0.0557
 Ground to excited state transition velocity dipole moments (Au):
       state          X           Y           Z        Dip. S.      Osc.
         1        -0.1615      0.2608      0.0000      0.0941      0.5150
         2        -0.2512      0.1132      0.0000      0.0759      0.3145
         3         0.1190      0.0071      0.0000      0.0142      0.0545
 Ground to excited state transition magnetic dipole moments (Au):
       state          X           Y           Z
         1         0.0000      0.0000     -0.8938
         2         0.0000     -0.0000      1.1905
         3         0.0001     -0.0001     -0.0453
 Ground to excited state transition velocity quadrupole moments (Au):
       state          XX          YY          ZZ          XY          XZ          YZ
         1        -0.0296      0.5620     -0.0136     -0.2496     -0.0000      0.0000
         2         0.3418     -0.6631      0.0030      0.0575     -0.0000     -0.0000
         3         0.3379     -0.0478     -0.0242     -0.2304      0.0000      0.0000
 <0|del|b> * <b|rxdel|0> + <0|del|b> * <b|delr+rdel|0>
 Rotatory Strengths (R) in cgs (10**-40 erg-esu-cm/Gauss)
       state          XX          YY          ZZ    R(velocity)    E-M Angle
         1         0.0120     -0.0151      0.0201      0.0057       90.00
         2         0.0008      0.0023     -0.0078     -0.0016       90.00
         3        -0.0038      0.0365      0.0201      0.0176       90.00
 1/2[<0|r|b>*<b|rxdel|0> + (<0|rxdel|b>*<b|r|0>)*]
 Rotatory Strengths (R) in cgs (10**-40 erg-esu-cm/Gauss)
       state          XX          YY          ZZ     R(length)
         1        -0.0049      0.0413     -0.0201      0.0055
         2        -0.0058     -0.0035      0.0052     -0.0014
         3         0.0567     -0.0028     -0.0004      0.0178
  1/2[<0|del|b>*<b|r|0> + (<0|r|b>*<b|del|0>)*] (Au)
       state          X           Y           Z        Dip. S.   Osc.(frdel)
         1        -0.2214     -0.5572     -0.0000      0.7786      0.5191
         2        -0.3998     -0.0862     -0.0000      0.4860      0.3240
         3        -0.0823     -0.0003     -0.0000      0.0826      0.0551

 Excitation energies and oscillator strengths:
 
 Excited state symmetry could not be determined.
 Excited State   1:      Singlet-?Sym    3.3150 eV  374.01 nm  f=0.5233  <S**2>=0.000
      59 -> 60         0.69277
 This state for optimization and/or second-order correction.
 Total Energy, E(TD-HF/TD-DFT) =  -1028.69166052    
 Copying the excited state density for this state as the 1-particle RhoCI density.
 
 Excited state symmetry could not be determined.
 Excited State   2:      Singlet-?Sym    4.3773 eV  283.24 nm  f=0.3339  <S**2>=0.000
      57 -> 60         0.13697
      58 -> 60         0.66165
      59 -> 64        -0.10138
 
 Excited state symmetry could not be determined.
 Excited State   3:      Singlet-?Sym    4.7353 eV  261.83 nm  f=0.0557  <S**2>=0.000
      55 -> 61        -0.10985
      57 -> 60         0.57986
      57 -> 62        -0.15519
      58 -> 60        -0.14064
      58 -> 61        -0.19176
      59 -> 61        -0.23096
 SavETr:  write IOETrn=   770 NScale= 10 NData=  16 NLR=1 NState=    3 LETran=      64.
 The selected state is a singlet.
 CISGrd: IGrad=2 NXY=2 DFT=T
 CISAX will form     1 AO SS matrices at one time.
 NMat=     1 NSing=     1 JSym2X= 0.
 GePol: Maximum number of non-zero 1st derivatives   =     258
 Leave Link  914 at Mon Jul 13 14:21:41 2020, MaxMem=  7784628224 cpu:            2330.3 elap:             235.6
 (Enter /gpfs/loomis/apps/avx/software/Gaussian/16-C.01_AVX/g16/l1002.exe)
 Minotr:  Closed shell wavefunction.
          Computing CIS/TDA/TD derivatives.
          Using Z-Vector for PSCF gradient.
          Skipping F1 and S1 gradient terms here.
          IDoAtm=1111111111111111111111111
 NEqPCM:  Using equilibrium solvation (IEInf=0, Eps=   2.2280, EpsInf=   2.1319)
          Frozen-core window.
          Direct CPHF calculation.
          Differentiating once with respect to electric field.
                with respect to dipole field.
          Differentiating once with respect to nuclear coordinates.
          Requested convergence is 1.0D-10 RMS, and 1.0D-09 maximum.
          NewPWx=F KeepS1=T KeepF1=T KeepIn=T MapXYZ=F SortEE=F KeepMc=T.
 Keep R1 ints in memory in canonical form, NReq=1421356584.
 FoFCou: FMM=F IPFlag=           0 FMFlag=           0 FMFlg1=           0
         NFxFlg=           0 DoJE=F BraDBF=F KetDBF=F FulRan=T
         wScrn=  0.000000 ICntrl=       600 IOpCl=  0 I1Cent=           0 NGrid=           0
         NMat0=    1 NMatS0=  37401 NMatT0=    0 NMatD0=    1 NMtDS0=    0 NMtDT0=    0
 Symmetry not used in FoFCou.
 Two-electron integral symmetry not used.
          MDV=    7784628224 using IRadAn=       5.
          Solving linear equations separately, MaxMat=       0.
          There are     1 degrees of freedom in the 1st order CPHF.  IDoFFX=0 NUNeed=     1.
 LinEq1:  Iter=  0 NonCon=     1 RMS=5.29D-03 Max=2.61D-01 NDo=     1
 AX will form     1 AO Fock derivatives at one time.
 LinEq1:  Iter=  1 NonCon=     1 RMS=2.20D-03 Max=1.02D-01 NDo=     1
 LinEq1:  Iter=  2 NonCon=     1 RMS=1.37D-03 Max=4.44D-02 NDo=     1
 LinEq1:  Iter=  3 NonCon=     1 RMS=5.03D-04 Max=1.35D-02 NDo=     1
 LinEq1:  Iter=  4 NonCon=     1 RMS=2.74D-04 Max=1.00D-02 NDo=     1
 LinEq1:  Iter=  5 NonCon=     1 RMS=1.44D-04 Max=6.61D-03 NDo=     1
 LinEq1:  Iter=  6 NonCon=     1 RMS=6.66D-05 Max=2.76D-03 NDo=     1
 LinEq1:  Iter=  7 NonCon=     1 RMS=3.69D-05 Max=1.15D-03 NDo=     1
 LinEq1:  Iter=  8 NonCon=     1 RMS=1.55D-05 Max=5.02D-04 NDo=     1
 LinEq1:  Iter=  9 NonCon=     1 RMS=8.53D-06 Max=2.56D-04 NDo=     1
 LinEq1:  Iter= 10 NonCon=     1 RMS=3.26D-06 Max=8.77D-05 NDo=     1
 LinEq1:  Iter= 11 NonCon=     1 RMS=1.83D-06 Max=9.29D-05 NDo=     1
 LinEq1:  Iter= 12 NonCon=     1 RMS=8.43D-07 Max=2.23D-05 NDo=     1
 LinEq1:  Iter= 13 NonCon=     1 RMS=3.51D-07 Max=1.02D-05 NDo=     1
 LinEq1:  Iter= 14 NonCon=     1 RMS=1.51D-07 Max=3.69D-06 NDo=     1
 LinEq1:  Iter= 15 NonCon=     1 RMS=7.61D-08 Max=2.54D-06 NDo=     1
 LinEq1:  Iter= 16 NonCon=     1 RMS=3.22D-08 Max=9.79D-07 NDo=     1
 LinEq1:  Iter= 17 NonCon=     1 RMS=1.55D-08 Max=6.39D-07 NDo=     1
 LinEq1:  Iter= 18 NonCon=     1 RMS=5.68D-09 Max=1.65D-07 NDo=     1
 LinEq1:  Iter= 19 NonCon=     1 RMS=2.96D-09 Max=7.70D-08 NDo=     1
 LinEq1:  Iter= 20 NonCon=     1 RMS=1.35D-09 Max=4.28D-08 NDo=     1
 LinEq1:  Iter= 21 NonCon=     1 RMS=3.26D-10 Max=7.93D-09 NDo=     1
 LinEq1:  Iter= 22 NonCon=     1 RMS=1.24D-10 Max=2.71D-09 NDo=     1
 LinEq1:  Iter= 23 NonCon=     0 RMS=5.47D-11 Max=9.34D-10 NDo=     1
 Linear equations converged to 1.000D-10 1.000D-09 after    23 iterations.
 End of Minotr F.D. properties file   721 does not exist.
 End of Minotr F.D. properties file   722 does not exist.
 End of Minotr F.D. properties file   788 does not exist.
 Leave Link 1002 at Mon Jul 13 14:23:19 2020, MaxMem=  7784628224 cpu:             723.9 elap:              98.1
 (Enter /gpfs/loomis/apps/avx/software/Gaussian/16-C.01_AVX/g16/l601.exe)
 Copying SCF densities to generalized density rwf, IOpCl= 0 IROHF=0.

 **********************************************************************

            Population analysis using the SCF Density.

 **********************************************************************

 Alpha  occ. eigenvalues --  -89.09554 -19.25403 -14.48766 -10.40487 -10.37341
 Alpha  occ. eigenvalues --  -10.36057 -10.35281 -10.32591 -10.32049 -10.32038
 Alpha  occ. eigenvalues --  -10.31801 -10.31752 -10.31747 -10.31633 -10.29993
 Alpha  occ. eigenvalues --  -10.29700  -8.11558  -6.06409  -6.06060  -6.05606
 Alpha  occ. eigenvalues --   -1.14436  -1.09313  -0.97147  -0.95560  -0.92478
 Alpha  occ. eigenvalues --   -0.88905  -0.85545  -0.83892  -0.82302  -0.75877
 Alpha  occ. eigenvalues --   -0.71316  -0.70788  -0.68728  -0.68000  -0.63555
 Alpha  occ. eigenvalues --   -0.60796  -0.59185  -0.58029  -0.55529  -0.54513
 Alpha  occ. eigenvalues --   -0.54333  -0.53370  -0.52816  -0.50965  -0.49852
 Alpha  occ. eigenvalues --   -0.49725  -0.47125  -0.46294  -0.45596  -0.44939
 Alpha  occ. eigenvalues --   -0.44137  -0.42929  -0.42299  -0.40554  -0.36554
 Alpha  occ. eigenvalues --   -0.35590  -0.32611  -0.31230  -0.27614
 Alpha virt. eigenvalues --   -0.01760   0.04613   0.06635   0.07141   0.07885
 Alpha virt. eigenvalues --    0.10735   0.14111   0.14997   0.16391   0.17858
 Alpha virt. eigenvalues --    0.18730   0.20868   0.21563   0.22192   0.22568
 Alpha virt. eigenvalues --    0.23736   0.23913   0.24639   0.28179   0.29847
 Alpha virt. eigenvalues --    0.32212   0.33257   0.35227   0.35850   0.36964
 Alpha virt. eigenvalues --    0.38311   0.38817   0.40675   0.42778   0.43216
 Alpha virt. eigenvalues --    0.47214   0.47674   0.50319   0.51413   0.51604
 Alpha virt. eigenvalues --    0.52334   0.53226   0.53785   0.54513   0.55287
 Alpha virt. eigenvalues --    0.56068   0.56405   0.56653   0.57293   0.58341
 Alpha virt. eigenvalues --    0.58386   0.58447   0.58858   0.59502   0.60354
 Alpha virt. eigenvalues --    0.60567   0.60722   0.62124   0.62500   0.63079
 Alpha virt. eigenvalues --    0.65035   0.65480   0.66741   0.67554   0.68986
 Alpha virt. eigenvalues --    0.70360   0.70568   0.72124   0.72545   0.72808
 Alpha virt. eigenvalues --    0.72978   0.74632   0.75224   0.76092   0.77893
 Alpha virt. eigenvalues --    0.79095   0.79121   0.80143   0.81689   0.82160
 Alpha virt. eigenvalues --    0.83510   0.88796   0.89425   0.91011   0.93343
 Alpha virt. eigenvalues --    0.94777   0.94974   0.96181   0.96348   0.97121
 Alpha virt. eigenvalues --    0.98399   0.98901   1.00223   1.00323   1.01702
 Alpha virt. eigenvalues --    1.02569   1.05364   1.06346   1.07202   1.07501
 Alpha virt. eigenvalues --    1.08236   1.08965   1.10026   1.11015   1.11794
 Alpha virt. eigenvalues --    1.12310   1.12865   1.13043   1.15030   1.15392
 Alpha virt. eigenvalues --    1.15946   1.19591   1.20113   1.22782   1.22876
 Alpha virt. eigenvalues --    1.25903   1.28569   1.33466   1.34294   1.34812
 Alpha virt. eigenvalues --    1.35013   1.37019   1.38386   1.41125   1.47323
 Alpha virt. eigenvalues --    1.49155   1.49215   1.50476   1.54157   1.55058
 Alpha virt. eigenvalues --    1.56539   1.56690   1.57162   1.58554   1.58616
 Alpha virt. eigenvalues --    1.59288   1.60359   1.64100   1.66648   1.66703
 Alpha virt. eigenvalues --    1.68975   1.69235   1.69776   1.70317   1.71153
 Alpha virt. eigenvalues --    1.72128   1.72567   1.73389   1.73512   1.75543
 Alpha virt. eigenvalues --    1.76870   1.79252   1.80318   1.81200   1.83070
 Alpha virt. eigenvalues --    1.83266   1.83658   1.84519   1.85082   1.85198
 Alpha virt. eigenvalues --    1.87373   1.88537   1.88565   1.89028   1.92203
 Alpha virt. eigenvalues --    1.92551   1.92833   1.93561   1.95172   1.95860
 Alpha virt. eigenvalues --    1.98431   2.00326   2.01633   2.02591   2.03920
 Alpha virt. eigenvalues --    2.04863   2.07962   2.09332   2.11065   2.13575
 Alpha virt. eigenvalues --    2.15080   2.17216   2.17861   2.20795   2.24184
 Alpha virt. eigenvalues --    2.26780   2.29563   2.31174   2.38450   2.40486
 Alpha virt. eigenvalues --    2.41226   2.41458   2.43348   2.45253   2.47208
 Alpha virt. eigenvalues --    2.48271   2.50694   2.52298   2.53263   2.62185
 Alpha virt. eigenvalues --    2.62833   2.71846   2.73613   2.75210   2.80098
 Alpha virt. eigenvalues --    2.81768   2.84217   2.85636   2.90054   2.92962
 Alpha virt. eigenvalues --    2.93089   3.03385   3.09657   3.18886   3.37809
 Alpha virt. eigenvalues --    3.46633   3.56937   3.63707   3.88065
          Condensed to atoms (all electrons):
               1          2          3          4          5          6
     1  C    4.729297   0.479788   0.005490  -0.051661  -0.013769   0.522147
     2  C    0.479788   5.309384   0.337817  -0.042335  -0.066604  -0.009406
     3  C    0.005490   0.337817   4.787475   0.501610  -0.004496  -0.063697
     4  C   -0.051661  -0.042335   0.501610   4.771262   0.523472  -0.013424
     5  C   -0.013769  -0.066604  -0.004496   0.523472   4.728179   0.494417
     6  C    0.522147  -0.009406  -0.063697  -0.013424   0.494417   4.738672
     7  H    0.402404  -0.038588   0.008632  -0.000543   0.008129  -0.039365
     8  H   -0.000734   0.011408  -0.030363   0.393883  -0.042737   0.007705
     9  H    0.008863  -0.000566   0.008548  -0.038648   0.404883  -0.045090
    10  H   -0.042262   0.009557  -0.000506   0.008563  -0.043213   0.406523
    11  N    0.006013  -0.054205   0.423462  -0.039896   0.003019   0.000126
    12  S   -0.066730   0.337231  -0.110720   0.006116   0.000261   0.003773
    13  C   -0.000192   0.002792   0.008849  -0.000645   0.000009   0.000002
    14  C   -0.000007   0.000112   0.000203   0.000006  -0.000000  -0.000000
    15  C    0.000003  -0.000348   0.000614   0.000056  -0.000000   0.000000
    16  C    0.000000  -0.000003   0.000005  -0.000000   0.000000   0.000000
    17  H   -0.000005   0.000107   0.000002   0.000000   0.000000   0.000000
    18  C    0.000000   0.000007  -0.000019  -0.000000  -0.000000  -0.000000
    19  C   -0.000000   0.000000   0.000001   0.000000   0.000000   0.000000
    20  H   -0.000000  -0.000000  -0.000000   0.000000   0.000000  -0.000000
    21  H   -0.000000  -0.000000   0.000001  -0.000000  -0.000000   0.000000
    22  H    0.000000  -0.000000  -0.000000  -0.000000   0.000000  -0.000000
    23  C    0.003884  -0.050245  -0.117989   0.000682   0.000259  -0.000176
    24  O    0.000002  -0.000079  -0.001668  -0.000068  -0.000000  -0.000000
    25  H   -0.000023   0.004348  -0.014267  -0.001518  -0.000035   0.000009
               7          8          9         10         11         12
     1  C    0.402404  -0.000734   0.008863  -0.042262   0.006013  -0.066730
     2  C   -0.038588   0.011408  -0.000566   0.009557  -0.054205   0.337231
     3  C    0.008632  -0.030363   0.008548  -0.000506   0.423462  -0.110720
     4  C   -0.000543   0.393883  -0.038648   0.008563  -0.039896   0.006116
     5  C    0.008129  -0.042737   0.404883  -0.043213   0.003019   0.000261
     6  C   -0.039365   0.007705  -0.045090   0.406523   0.000126   0.003773
     7  H    0.657709   0.000033  -0.000151  -0.011716  -0.000105  -0.007253
     8  H    0.000033   0.652159  -0.012382  -0.000120  -0.002369  -0.000194
     9  H   -0.000151  -0.012382   0.664623  -0.012308  -0.000107   0.000022
    10  H   -0.011716  -0.000120  -0.012308   0.662803   0.000002  -0.000153
    11  N   -0.000105  -0.002369  -0.000107   0.000002   6.452866  -0.064476
    12  S   -0.007253  -0.000194   0.000022  -0.000153  -0.064476  15.457860
    13  C    0.000004   0.000042  -0.000000  -0.000000  -0.020241  -0.062660
    14  C    0.000001   0.000001   0.000000  -0.000000   0.003283  -0.008324
    15  C   -0.000000  -0.000014   0.000000   0.000000  -0.012316   0.004270
    16  C    0.000000  -0.000000  -0.000000   0.000000  -0.000089   0.000052
    17  H    0.000001   0.000000  -0.000000  -0.000000   0.000232   0.007553
    18  C   -0.000000  -0.000000   0.000000  -0.000000  -0.000617  -0.000150
    19  C    0.000000   0.000000  -0.000000  -0.000000   0.000049   0.000024
    20  H    0.000000  -0.000000   0.000000   0.000000   0.000001   0.000003
    21  H   -0.000000   0.000000  -0.000000   0.000000   0.000021   0.000004
    22  H    0.000000  -0.000000  -0.000000  -0.000000  -0.000000  -0.000001
    23  C    0.000127  -0.000814   0.000007   0.000004   0.529281   0.322741
    24  O   -0.000000  -0.000201   0.000000  -0.000000  -0.081440  -0.000316
    25  H    0.000002   0.001127  -0.000006  -0.000000   0.180108   0.003030
              13         14         15         16         17         18
     1  C   -0.000192  -0.000007   0.000003   0.000000  -0.000005   0.000000
     2  C    0.002792   0.000112  -0.000348  -0.000003   0.000107   0.000007
     3  C    0.008849   0.000203   0.000614   0.000005   0.000002  -0.000019
     4  C   -0.000645   0.000006   0.000056  -0.000000   0.000000  -0.000000
     5  C    0.000009  -0.000000  -0.000000   0.000000   0.000000  -0.000000
     6  C    0.000002  -0.000000   0.000000   0.000000   0.000000  -0.000000
     7  H    0.000004   0.000001  -0.000000   0.000000   0.000001  -0.000000
     8  H    0.000042   0.000001  -0.000014  -0.000000   0.000000  -0.000000
     9  H   -0.000000   0.000000   0.000000  -0.000000  -0.000000   0.000000
    10  H   -0.000000  -0.000000   0.000000   0.000000  -0.000000  -0.000000
    11  N   -0.020241   0.003283  -0.012316  -0.000089   0.000232  -0.000617
    12  S   -0.062660  -0.008324   0.004270   0.000052   0.007553  -0.000150
    13  C    5.335952   0.468407   0.255709  -0.007658  -0.038738  -0.042680
    14  C    0.468407   4.815960   0.000765   0.532999   0.399325  -0.055899
    15  C    0.255709   0.000765   4.760575  -0.058951   0.007021   0.497346
    16  C   -0.007658   0.532999  -0.058951   4.749467  -0.033424  -0.019265
[...]
 0000237,-0.07270625,0.00000012,-0.00000007,0.00238841,0.00000101,0.000
 00895,0.16503529,-0.00014963,0.00118690,-0.00000002,0.00387430,0.00191
 048,-0.00000004,0.00372232,-0.00662805,-0.00000002,-0.00382830,0.00111
 185,0.00000001,-0.00023450,-0.00319977,0.,0.00171407,0.00102322,0.,-0.
 00005786,-0.00008603,0.,0.00007549,0.00005569,0.,0.00007220,-0.0000454
 3,0.,0.00005127,0.00000058,0.,-0.00587787,0.00941570,0.00000023,-0.001
 80746,0.00153230,0.,-0.04748244,0.02005537,0.00000037,-0.20233146,0.13
 462187,0.00000263,0.00874746,0.00042706,0.00000002,0.73158436,-0.00034
 662,-0.00261828,0.00000009,-0.01166340,-0.00573714,0.00000006,-0.01315
 500,0.02109303,0.,0.01255542,-0.00300520,-0.00000004,0.00038343,0.0097
 0108,0.,-0.00405688,-0.00357062,0.,0.00007462,0.00024621,0.00000001,-0
 .00013901,-0.00017406,0.,-0.00015873,0.00016320,0.,-0.00008047,-0.0000
 3350,-0.00000002,0.01740808,-0.02137034,-0.00000033,0.00273802,-0.0057
 6892,0.,0.05581218,0.02724279,0.00000045,0.04891223,-0.23779851,-0.000
 00332,0.00265479,-0.00567472,0.00000040,0.01890984,0.62121404,0.,-0.00
 000005,-0.00004514,-0.00000023,-0.00000010,-0.00008693,-0.00000023,0.0
 0000039,-0.00016785,0.00000023,-0.00000006,-0.00022692,0.,0.00000018,-
 0.00002712,-0.00000008,-0.00000006,0.00001505,0.,0.,-0.00002887,0.,0.,
 -0.00002564,0.,0.,0.00001286,0.,0.,0.00004829,0.00000033,-0.00000042,0
 .00218015,0.00000005,-0.00000014,-0.00004980,0.00000113,0.00000037,0.0
 0228339,0.00000101,-0.00000336,-0.05221390,0.00000005,0.,-0.00447866,-
 0.00000116,0.00000803,0.13112954,0.00025668,-0.00003070,0.,-0.00083814
 ,0.00019434,0.,0.00031805,-0.00000268,0.,0.00007753,0.00009081,0.,0.00
 007691,0.00009156,0.,-0.00008808,-0.00010172,0.,-0.00001744,-0.0000016
 0,0.,0.00003076,0.00000050,0.,0.00000654,-0.00000098,0.,0.00003142,-0.
 00000692,0.,0.00037402,0.00056955,0.00000001,-0.00106249,0.00156145,0.
 00000001,-0.00521042,-0.02920436,-0.00000051,-0.09250089,-0.09418703,-
 0.00000144,-0.00500413,0.00291814,0.00000011,0.01070824,0.02016305,0.0
 0000034,0.09507866,0.00004691,-0.00005288,0.,-0.00029651,0.00031854,0.
 ,0.00012239,0.00034341,0.,0.00015130,0.00000596,0.,0.00002723,0.000203
 13,0.,-0.00015684,-0.00010179,0.,-0.00000971,0.00001781,0.,0.00001123,
 -0.00000985,0.,-0.00000553,0.00000258,0.,-0.00000202,0.00000348,0.,0.0
 0028718,0.00036693,0.00000004,0.00018792,-0.00071105,-0.00000003,0.001
 73681,-0.00185474,-0.00000012,-0.09349604,-0.30844763,-0.00000473,0.00
 058516,0.00180917,-0.00000009,-0.01130489,-0.01777517,-0.00000033,0.09
 847578,0.32661432,0.,0.,-0.00004261,0.00000002,0.,-0.00037776,0.000000
 02,-0.00000001,0.00021992,0.,0.,0.00010288,0.,0.,0.00000351,0.,0.,0.00
 002222,0.,0.,0.00000496,0.,0.,0.00001393,0.,0.,-0.00000088,0.,0.,-0.00
 000570,0.00000001,0.00000007,-0.00159711,-0.00000002,0.00000001,0.0006
 6498,0.,0.,0.00387982,-0.00000138,-0.00000484,-0.03169758,0.00000007,-
 0.00000011,0.00745917,-0.00000025,-0.00000034,0.00246690,0.00000152,0.
 00000525,0.02061166,-0.00177602,0.00088869,0.00000008,-0.00313926,-0.0
 0338631,0.,-0.00522442,0.01198975,-0.00000007,0.00567320,-0.00120227,0
 .,-0.00023075,0.00235221,0.,0.00121920,-0.00135710,0.,-0.00011473,0.00
 010741,0.,0.00006934,-0.00002818,0.,0.00008501,0.00001498,0.,0.0000762
 9,-0.00005189,-0.00000002,0.01336951,0.00249345,0.00000042,-0.00081115
 ,-0.00370640,0.00000007,0.01937380,0.02161091,0.00000050,-0.02418030,0
 .02315466,0.00000035,-0.16876486,0.07759932,0.00000159,-0.01234287,-0.
 06346678,-0.00000113,-0.00055179,-0.00006260,0.00000002,0.70903948,0.0
 0045416,-0.00022134,0.,-0.00158024,-0.00132335,0.,-0.00037690,0.001916
 36,0.00000003,0.00031778,-0.00006148,0.,0.00024140,0.00061145,0.,-0.00
 058582,-0.00041722,0.,-0.00000520,0.00004757,0.,-0.00005103,-0.0000204
 8,0.,-0.00001453,-0.00000324,0.,0.00001887,-0.00000026,0.,0.00396823,-
 0.00083995,-0.00000005,0.00138532,-0.00280878,-0.00000010,0.02060595,-
 0.03728898,-0.00000065,-0.00188383,0.00045352,0.,0.10372710,-0.2521792
 5,-0.00000370,-0.03314664,-0.01231942,-0.00000020,-0.00025919,0.000590
 77,0.,0.04234055,0.71591432,0.00000003,0.,0.00010304,0.00000002,0.0000
 0005,0.00079615,0.00000014,-0.00000011,0.00193101,-0.00000006,0.,-0.00
 037911,0.00000002,-0.00000002,-0.00006115,-0.00000002,0.00000003,-0.00
 010438,0.,0.,0.00010374,0.,0.,0.00008761,0.,0.,0.00003401,0.,0.,-0.000
 05983,0.,0.00000042,-0.00619313,0.,-0.00000010,0.00069393,0.00000043,-
 0.00000093,0.01190096,-0.00000020,0.00000018,-0.00245123,0.00000193,-0
 .00000376,-0.06529203,-0.00000051,-0.00000037,0.00523866,-0.00000002,0
 .00000002,-0.00095806,0.00000080,0.00001177,0.10992097,0.00185969,0.00
 024847,-0.00000008,0.00721304,0.00588927,-0.00000005,0.01117239,-0.019
 80552,0.00000001,-0.01008604,0.00236543,0.00000002,0.00011498,-0.00604
 609,0.,0.00052596,0.00292575,0.,0.00005414,-0.00013615,-0.00000001,0.0
 0004073,0.00008829,0.,-0.00004409,-0.00005656,0.,-0.00002749,0.0000681
 7,0.00000002,-0.02132796,0.01263204,0.00000009,0.00094676,0.00497171,-
 0.00000006,-0.01803311,-0.02096541,-0.00000048,0.05863765,-0.00512086,
 -0.00000018,-0.04460998,0.02257473,-0.00000002,-0.14350230,-0.01360896
 ,0.00000008,-0.00252336,0.00462952,0.00000006,-0.35613361,-0.06321986,
 -0.00000057,0.69918785,0.00026569,0.00039265,-0.00000002,0.00064106,0.
 00017176,0.00000003,0.00230509,-0.00122930,0.00000009,-0.00174080,0.00
 044937,0.,0.00005021,-0.00108155,0.,0.00036952,-0.00004670,0.,-0.00002
 488,-0.00000369,0.,0.00000656,-0.00001726,0.,0.00002776,-0.00003952,0.
 ,0.00001816,0.00002094,0.,0.00144095,0.00545936,-0.00000010,-0.0013089
 5,-0.00012034,-0.00000006,-0.01917055,-0.01503006,-0.00000015,0.035691
 51,-0.05926875,-0.00000113,0.01688637,0.02633236,0.00000018,-0.0917778
 7,-0.29332080,-0.00000359,0.00339907,-0.00094802,-0.00000013,-0.023065
 67,-0.12330257,-0.00000142,-0.04681002,0.68726707,0.,0.,0.00017597,0.,
 -0.00000002,-0.00039664,0.,0.00000003,-0.00104769,-0.00000001,0.,0.000
 09160,0.,0.,0.00008964,0.,-0.00000001,0.00000580,0.,0.,-0.00004097,0.,
 0.,-0.00011093,0.,0.,-0.00000125,0.,0.,0.00000247,0.00000004,0.,0.0015
 9407,0.,0.,0.00041307,-0.00000032,-0.00000025,-0.00245712,0.00000053,-
 0.00000110,0.00879445,0.00000028,0.00000060,0.00224698,-0.00000135,-0.
 00000388,-0.05923236,0.00000007,-0.00000010,0.00471962,0.00000016,-0.0
 0000137,-0.04890391,-0.00000189,0.00000998,0.11164814,0.00005768,-0.00
 009190,0.,-0.00010682,0.00009798,0.,-0.00000134,-0.00007676,0.,0.00000
 592,0.00002317,0.,0.00001474,0.00009262,0.,-0.00014379,-0.00000027,0.,
 0.00000659,0.00000829,0.,-0.00000349,-0.00000623,0.,-0.00001242,0.0000
 0678,0.,-0.00000871,0.00000528,0.,-0.00017779,0.00042251,0.,0.00006332
 ,-0.00005714,0.,0.00008014,0.00340915,0.00000008,-0.01435076,-0.007496
 18,-0.00000007,0.00054640,0.00024662,0.,-0.33662632,-0.05412914,-0.000
 00016,0.00074527,0.00005813,-0.00000001,0.00153603,-0.00164540,-0.0000
 0002,-0.00517184,0.00199855,0.00000006,0.35398281,-0.00000089,-0.00000
 302,0.,-0.00009435,-0.00011792,0.,-0.00001210,0.00027657,0.,0.00010435
 ,-0.00006741,0.,0.00001642,0.00007750,0.,-0.00001814,-0.00003942,0.,0.
 ,0.00000004,0.,-0.00000054,-0.00000029,0.,0.00000201,-0.00000287,0.,0.
 00000188,-0.00000150,0.,0.00046648,-0.00038917,0.,0.00002895,-0.000012
 81,0.,0.00356213,-0.00382482,-0.00000018,0.02314517,0.00838918,-0.0000
 0002,0.00051148,-0.00111602,0.,-0.05449801,-0.07013895,-0.00000038,-0.
 00023749,0.00086994,0.00000008,-0.00086632,-0.00539015,-0.00000018,-0.
 02920898,0.00019771,-0.00000003,0.05785934,0.06907740,0.,0.,-0.0000289
 8,0.,0.,0.00004259,0.,0.,0.00050954,0.,0.,0.00012588,0.,0.,-0.00006877
 ,0.,0.,0.00001444,0.,0.,0.00000845,0.,0.,0.00003564,0.,0.,-0.00002655,
 0.,0.,-0.00000105,0.,0.,-0.00065984,0.,0.,-0.00012113,0.00000004,-0.00
 000015,0.00594822,0.00000046,-0.00000003,0.00690841,0.,0.,-0.00121172,
 -0.00000015,-0.00000033,-0.03835312,-0.00000001,0.00000007,-0.00334756
 ,0.00000002,-0.00000015,0.00518022,-0.00000046,-0.00000016,0.00654746,
 0.00000014,0.00000062,0.02292904,-0.00010577,0.00003146,0.,0.00010134,
 0.00005563,0.,-0.00014060,0.00005586,0.,0.00004546,-0.00000177,0.,-0.0
 0002357,-0.00002706,0.,0.00007883,0.00000966,0.,0.00000102,-0.00000609
 ,0.,-0.00000424,0.00000214,0.,0.00000333,-0.00000059,0.,-0.00000256,-0
 .00000176,0.,0.00026287,-0.00046903,-0.00000002,-0.00029302,0.00015759
 ,0.,-0.00382072,0.00306188,0.00000004,0.00026307,0.00012430,0.,0.00923
 060,0.02096477,0.00000045,-0.00582611,0.00064143,0.00000001,0.00012254
 ,-0.00009026,0.,-0.09102075,-0.09494493,-0.00000196,-0.00307846,-0.028
 57858,-0.00000057,-0.00035523,-0.00141482,-0.00000002,0.09050962,0.000
 07357,0.00002897,0.,-0.00011189,-0.00004363,0.,0.00011939,0.00002100,0
 .,-0.00001514,-0.00000601,0.,-0.00000046,-0.00003037,0.,0.00002452,-0.
 00002038,0.,-0.00000600,0.00000239,0.,0.00000883,0.00000217,0.,0.00000
 688,-0.00000222,0.,0.00000864,-0.00000214,0.,-0.00030641,0.00043817,0.
 00000002,0.00024716,-0.00015059,0.,0.00394302,-0.00135804,-0.00000009,
 0.00013042,0.00028468,0.00000002,-0.01243961,-0.01773446,-0.00000048,-
 0.00038508,0.00129173,-0.00000013,-0.00007844,-0.00007285,0.,-0.092681
 05,-0.31430365,-0.00000568,0.00211583,0.00014843,-0.00000012,0.0000810
 1,-0.00010202,0.00000001,0.10082965,0.32968008,0.,0.,-0.00033675,-0.00
 000003,-0.00000002,-0.00013963,-0.00000003,0.00000005,0.00026286,0.000
 00003,0.,0.00001200,0.,0.00000002,-0.00005458,0.,0.,0.00004818,0.,0.,-
 0.00001137,0.,0.,0.00004581,0.,0.,-0.00000546,0.,0.,0.00006338,0.00000
 007,-0.00000005,0.00013934,0.,-0.00000002,-0.00028280,0.00000011,-0.00
 000008,0.00372003,-0.00000002,0.00000003,-0.00048669,-0.00000038,-0.00
 000044,0.00339751,0.00000003,-0.00000016,0.00658822,0.,0.,-0.00043509,
 -0.00000199,-0.00000589,-0.03223095,0.00000019,0.00000006,0.00414427,0
 .,0.,-0.00048194,0.00000204,0.00000629,0.02207085,0.00004041,-0.000048
 87,0.,-0.00016108,0.00002329,0.,0.00007435,0.00017741,0.,0.00007925,-0
 .00001836,0.,0.00001789,0.00012106,0.,-0.00010349,-0.00004425,0.,0.000
 00093,0.00000834,0.,-0.00000022,-0.00000684,0.,-0.00000782,0.00000363,
 0.,-0.00000407,0.00000332,0.,0.00030418,0.00052680,0.00000003,-0.00002
 375,0.00001084,0.,0.00018332,-0.00071430,-0.00000002,-0.00060370,-0.00
 239241,-0.00000002,-0.00331246,-0.00328319,-0.00000002,0.00991113,-0.0
 1072874,-0.00000019,0.00035009,-0.00045548,0.,-0.01375164,0.02459825,0
 .00000047,-0.18639597,0.14500755,0.00000284,0.00064134,0.00036170,0.,0
 .00110521,-0.00023037,-0.00000001,0.19387859,0.00002770,0.00008909,0.,
 0.00035331,0.00025845,0.,0.00046525,-0.00079853,0.,-0.00042133,0.00011
 016,0.,-0.00001348,-0.00034373,0.,0.00015272,0.00013119,0.,-0.00000619
 ,-0.00001048,0.,0.00000950,0.00000933,0.,0.00000874,-0.00000585,0.,0.0
 0000722,-0.00000161,0.,-0.00083471,0.00051426,0.,-0.00007602,0.0002599
 0,0.,-0.00131910,0.00028270,0.00000003,-0.00243304,-0.00408890,-0.0000
 0014,-0.00214454,-0.00022763,-0.00000013,0.02168792,-0.01522915,-0.000
 00035,0.00099584,-0.00098118,-0.00000004,-0.00702188,0.00833654,0.0000
 0011,0.14408180,-0.21994689,-0.00000356,-0.00010289,0.00097527,0.00000
 008,0.00031643,0.00059107,0.00000008,-0.15396724,0.22986883,0.,0.,0.00
 003135,0.00000002,0.,0.00004300,0.,-0.00000002,-0.00014204,-0.00000001
 ,0.,0.00003170,0.,-0.00000001,0.00000961,0.,0.,-0.00000114,0.,0.,-0.00
 000024,0.,0.,0.00000985,0.,0.,-0.00000061,0.,0.,-0.00001733,-0.0000000
 3,-0.00000001,0.00045002,0.,0.00000002,-0.00021849,-0.00000003,0.00000
 001,-0.00143913,0.00000004,-0.00000015,0.00442838,-0.00000006,-0.00000
 012,0.00691514,0.00000036,-0.00000020,0.00238195,0.00000002,-0.0000000
 4,0.00098116,-0.00000006,0.00000001,0.00388014,0.00000278,-0.00000360,
 -0.03157169,-0.00000001,0.00000007,-0.00316800,0.,0.00000011,-0.003893
 10,-0.00000304,0.00000390,0.02200462,-0.00462934,-0.00673392,0.,-0.014
 36809,0.01529607,0.00000011,-0.08479816,0.05194100,0.00000056,0.018968
 25,-0.00482518,-0.00000003,-0.00067093,0.01320388,-0.00000002,-0.00777
 244,-0.00386941,0.,0.00036319,-0.00044387,0.00000001,-0.00057026,-0.00
 022376,0.,-0.00010344,0.00017891,0.,-0.00066540,-0.00008821,0.,-0.3210
 4148,-0.06040084,0.00000059,-0.04615741,-0.04388445,-0.00000004,-0.204
 80022,0.12134972,0.00000306,-0.04524883,0.03880389,0.00000095,0.022337
 17,0.01020949,0.00000024,-0.00013555,-0.01674586,-0.00000022,0.0002169
 3,0.00005121,-0.00000005,-0.00616903,-0.01118273,-0.00000039,0.0077423
 0,0.00000562,0.00000005,-0.00070258,0.00053350,0.,0.00091868,-0.000891
 98,-0.00000006,-0.00032281,0.00058575,0.00000002,0.69259537,-0.0026959
 4,0.00366882,-0.00000008,0.03900576,-0.02206012,-0.00000005,0.02670619
 ,-0.00245042,-0.00000010,-0.00168287,-0.00587071,0.00000005,-0.0011864
 2,-0.00514943,0.,0.00542854,0.00089852,0.,-0.00009733,-0.00074838,0.,-
 0.00018203,0.00029119,0.,0.00045624,-0.00054806,0.,-0.00009867,-0.0000
 0048,0.00000001,-0.05828335,-0.10263733,-0.00000037,-0.01940544,-0.153
 46193,-0.00000019,0.10001874,-0.22056047,-0.00000359,0.01885578,0.0117
 2906,0.00000001,0.02679971,-0.05023999,-0.00000124,-0.00543100,0.00007
 699,-0.00000005,-0.00159610,0.00050542,0.00000007,-0.01529890,0.002778
 44,0.00000011,0.00700279,0.00450171,0.00000010,-0.00065168,0.00113065,
 0.00000002,0.00038797,-0.00055395,-0.00000007,0.00029432,0.00003185,0.
 ,-0.09847325,0.54948520,-0.00000003,0.,0.00164011,0.00000007,-0.000000
 05,-0.00110087,0.00000010,0.00000004,0.00511071,-0.00000002,0.00000002
 ,0.00397019,0.,-0.00000011,0.00104922,0.00000011,0.00000003,0.00089531
 ,0.,0.,-0.00044368,0.,0.,-0.00070793,0.,0.,-0.00065778,0.,0.,-0.000261
 42,0.00000209,-0.00000019,-0.03713567,0.00000010,-0.00000076,-0.019478
 26,0.00000204,-0.00000288,-0.03890333,0.00000036,0.00000007,0.00889625
 ,0.00000064,-0.00000138,0.00625063,0.00000006,-0.00000037,0.00275784,-
 0.00000002,0.00000003,-0.00146838,-0.00000071,0.00000013,-0.00005292,0
 .00000055,0.00000021,-0.00099352,-0.00000001,0.00000002,-0.00093805,0.
 ,-0.00000003,0.00166366,0.00000001,0.,0.00010385,-0.00000498,0.0000054
 3,0.06869912,0.00092361,0.00199170,-0.00000002,0.00369177,0.00752702,-
 0.00000013,0.01708707,-0.00831161,0.00000010,-0.00483194,0.00125844,0.
 00000004,-0.00073038,-0.00468779,0.00000001,0.00254819,0.00196586,0.,-
 0.00025755,0.00020177,0.,0.00034991,0.00002832,0.,0.00000414,0.0000510
 3,0.,0.00003411,0.00006393,0.,-0.00972706,0.06566636,0.00000210,0.0002
 3975,0.00647021,0.00000011,-0.05023688,-0.01932696,-0.00000067,0.02371
 029,-0.01060061,-0.00000033,-0.42803059,-0.07999797,-0.00000332,-0.012
 52339,0.01425726,0.00000027,-0.00113939,-0.00081611,-0.00000002,-0.067
 65358,0.01396086,-0.00000018,0.00125109,0.00118942,0.00000010,-0.00009
 927,-0.00025702,0.,0.00227552,-0.00066219,0.00000007,-0.00203868,-0.00
 040727,0.00000001,-0.00407033,-0.00403917,-0.00000004,0.55218434,-0.00
 141434,-0.00152754,0.00000003,-0.00108337,-0.00777241,0.00000012,-0.02
 070461,0.00235227,-0.00000041,0.00344296,-0.00135520,-0.00000003,0.000
 34177,0.00310973,0.,-0.00099178,-0.00175009,0.,0.00025805,-0.00044205,
 0.,0.00002146,0.00019048,-0.00000001,0.00020005,-0.00013705,0.,0.00005
 335,-0.00011239,0.,0.03793864,-0.09514993,-0.00000312,0.00055649,-0.00
 339555,0.,-0.03361194,-0.01245983,-0.00000075,-0.01027365,-0.00601970,
 -0.00000010,-0.06779707,-0.12157666,-0.00000180,0.00188595,-0.00832413
 ,-0.00000016,-0.00187149,-0.00005546,0.00000006,0.04214122,0.01902378,
 0.00000023,0.00403642,-0.00329196,-0.00000019,-0.00002561,0.00043123,0
 .00000001,-0.00189268,0.00240600,0.00000015,0.00180992,0.00066353,0.00
 000002,0.00903650,0.01272947,0.00000032,0.06231449,0.24622553,-0.00000
 007,-0.00000006,0.00040877,-0.00000004,-0.00000032,-0.00090786,-0.0000
 0075,0.00000011,-0.00054086,0.00000014,-0.00000003,0.00038505,0.,0.000
 00011,0.00017523,-0.00000001,-0.00000009,0.00005511,0.,-0.00000002,-0.
 00009089,0.,0.,-0.00017160,0.,0.,-0.00004433,0.,0.,-0.00009078,0.00000
 130,-0.00000335,0.01852854,0.00000003,-0.00000006,-0.00115655,-0.00000
 076,-0.00000062,0.01636486,-0.00000023,-0.00000021,0.00191983,-0.00000
 302,-0.00000198,-0.05058492,-0.00000005,-0.00000016,0.00004216,-0.0000
 0004,0.00000004,-0.00181616,0.00000045,0.00000029,0.01121448,0.0000001
 6,-0.00000010,0.00373170,0.,0.,0.00011244,-0.00000003,0.00000009,-0.00
 323727,0.00000003,0.00000001,-0.00026581,0.00000041,0.00000039,-0.0032
 0628,0.00000331,0.00000542,0.04317647,-0.00043678,-0.00066334,0.000000
 01,-0.00396797,-0.00312456,0.00000002,-0.00640546,0.01117065,0.0000001
 2,0.00353027,-0.00090039,-0.00000002,0.00024871,0.00246417,-0.00000001
 ,-0.00092982,-0.00104355,0.,0.00008622,-0.00001755,0.,-0.00046746,-0.0
 0010422,0.,0.00004944,-0.00003613,0.,-0.00000104,-0.00008471,0.,-0.032
 69675,-0.03046519,-0.00000099,-0.00270992,-0.00640450,-0.00000003,0.00
 700640,-0.00379187,-0.00000019,-0.00814488,0.00289364,0.00000013,-0.03
 948124,0.02211984,0.00000046,0.00226523,-0.00623074,-0.00000011,0.0005
 4249,0.00032523,0.00000002,0.00142290,-0.00272215,0.00000010,0.0021876
 1,0.00317422,0.00000001,0.00008011,0.00001525,0.,-0.00024705,0.0002197
 1,0.,0.00013900,0.00005549,-0.00000001,-0.00091560,-0.01583390,-0.0000
 0034,-0.02296075,-0.02437072,-0.00000085,0.10180633,0.00331170,0.00171
 246,-0.00000009,0.00465585,0.01483166,-0.00000017,0.03600107,-0.015627
 92,0.00000070,-0.00946153,0.00401195,0.00000006,-0.00116912,-0.0074190
 5,0.00000001,0.00174201,0.00334016,0.,-0.00037091,0.00056785,0.,0.0002
 5099,-0.00031479,0.00000001,-0.00030641,0.00024324,0.,-0.00011483,0.00
 022404,0.,-0.04533243,0.01629945,0.00000092,0.00263436,0.01355321,0.00
 000007,-0.02799405,0.01309977,0.00000066,0.02758200,-0.00956851,-0.000
 00042,0.04613477,0.01669100,0.00000066,-0.00732198,0.02182986,0.000000
 42,-0.00088138,-0.00064084,-0.00000008,-0.01249779,0.00080737,-0.00000
 036,-0.00865181,-0.00729395,-0.00000009,-0.00002621,-0.00021911,0.0000
 0001,0.00078878,-0.00051440,0.00000006,-0.00105638,-0.00048822,0.,-0.0
 1343207,-0.02354603,-0.00000056,-0.04783996,-0.02376205,0.00000054,0.0
 5335531,-0.01781713,0.00000008,0.00000013,0.00043618,-0.00000002,0.000
 00040,0.00169808,0.00000108,0.00000039,-0.00465319,-0.00000006,0.00000
 005,-0.00075924,-0.00000006,-0.00000012,-0.00009145,0.00000008,0.00000
 003,-0.00007471,-0.00000002,0.00000003,-0.00004282,0.00000001,-0.00000
 002,0.00002566,0.,0.00000001,0.00006752,0.,0.,0.00005066,-0.00000169,0
 .00000017,-0.02455283,0.00000014,0.00000043,0.00138048,-0.00000066,0.0
 0000040,-0.00502273,0.00000066,-0.00000029,0.00026461,0.00000133,0.000
 00078,0.00015266,-0.00000018,0.00000048,-0.00020872,-0.00000003,-0.000
 00003,0.00059615,-0.00000049,-0.00000013,0.00560178,-0.00000017,-0.000
 00008,0.00055082,0.,0.,0.00004437,0.00000003,0.,-0.00056049,-0.0000000
 4,0.,-0.00055321,-0.00000024,-0.00000044,0.00431119,-0.00000141,0.0000
 0021,-0.03400132,0.00000169,-0.00000236,0.05534053\\-0.00052013,-0.000
 06254,-0.00000004,-0.00038624,0.00050117,0.00000004,0.00014159,0.00022
 840,0.00000002,0.00030611,-0.00037116,0.,-0.00000327,-0.00074835,-0.00
 000001,-0.00036255,-0.00057071,0.00000005,-0.00018317,-0.00011468,0.00
 000001,0.00018392,0.00013806,-0.00000001,0.00012767,-0.00010825,0.,-0.
 00001809,-0.00018335,0.00000001,0.00071655,0.00048620,-0.00000022,0.00
 030838,0.00159932,-0.00000001,0.00050050,0.00015384,0.,0.00034220,-0.0
 0054897,0.00000010,0.00014748,0.00011382,0.,-0.00015982,-0.00059094,-0
 .00000007,-0.00000516,-0.00021075,0.00000001,-0.00044832,-0.00001872,-
 0.00000006,-0.00048834,-0.00052658,-0.00000002,-0.00013461,-0.00011183
 ,0.00000001,-0.00000927,0.00017453,0.00000005,-0.00015789,0.00000757,0
 .,0.00044573,0.00029670,0.,-0.00006618,0.00020754,0.00000010,-0.000277
 09,0.00025970,0.00000005\\\@
 The archive entry for this job was punched.


 WHEN IT COMES TO CASH FLOW, IT SEEMS LIKE THE TIDE IS ALWAYS GOING OUT.
 Job cpu time:       0 days  2 hours 53 minutes 55.9 seconds.
 Elapsed time:       0 days  0 hours 17 minutes 57.5 seconds.
 File lengths (MBytes):  RWF=   1376 Int=      0 D2E=      0 Chk=     48 Scr=      8
 Normal termination of Gaussian 16 at Mon Jul 13 14:41:38 2020.
