 Entering Gaussian System, Link 0=g16
 Initial command:
 /gpfs/loomis/apps/avx/software/Gaussian/16-C.01_AVX/g16/l1.exe "/home/fas/batista/pev4/scratch60/gauss-scratch/Gau-182963.inp" -scrdir="/home/fas/batista/pev4/scratch60/gauss-scratch/"
 Entering Link 1 = /gpfs/loomis/apps/avx/software/Gaussian/16-C.01_AVX/g16/l1.exe PID=    182964.
  
 Copyright (c) 1988-2019, Gaussian, Inc.  All Rights Reserved.
  
 This is part of the Gaussian(R) 16 program.  It is based on
 the Gaussian(R) 09 system (copyright 2009, Gaussian, Inc.),
 the Gaussian(R) 03 system (copyright 2003, Gaussian, Inc.),
 the Gaussian(R) 98 system (copyright 1998, Gaussian, Inc.),
 the Gaussian(R) 94 system (copyright 1995, Gaussian, Inc.),
 the Gaussian 92(TM) system (copyright 1992, Gaussian, Inc.),
 the Gaussian 90(TM) system (copyright 1990, Gaussian, Inc.),
 the Gaussian 88(TM) system (copyright 1988, Gaussian, Inc.),
 the Gaussian 86(TM) system (copyright 1986, Carnegie Mellon
 University), and the Gaussian 82(TM) system (copyright 1983,
 Carnegie Mellon University). Gaussian is a federally registered
 trademark of Gaussian, Inc.
  
 This software contains proprietary and confidential information,
 including trade secrets, belonging to Gaussian, Inc.
  
 This software is provided under written license and may be
 used, copied, transmitted, or stored only in accord with that
 written license.
  
 The following legend is applicable only to US Government
 contracts under FAR:
  
                    RESTRICTED RIGHTS LEGEND
  
 Use, reproduction and disclosure by the US Government is
 subject to restrictions as set forth in subparagraphs (a)
 and (c) of the Commercial Computer Software - Restricted
 Rights clause in FAR 52.227-19.
  
 Gaussian, Inc.
 340 Quinnipiac St., Bldg. 40, Wallingford CT 06492
  
  
 ---------------------------------------------------------------
 Warning -- This program may not be used in any manner that
 competes with the business of Gaussian, Inc. or will provide
 assistance to any competitor of Gaussian, Inc.  The licensee
 of this program is prohibited from giving any competitor of
 Gaussian, Inc. access to this program.  By using this program,
 the user acknowledges that Gaussian, Inc. is engaged in the
 business of creating and licensing software in the field of
 computational chemistry and represents and warrants to the
 licensee that it is not a competitor of Gaussian, Inc. and that
 it will not use this program in any manner prohibited above.
 ---------------------------------------------------------------
  

 Cite this work as:
 Gaussian 16, Revision C.01,
 M. J. Frisch, G. W. Trucks, H. B. Schlegel, G. E. Scuseria, 
 M. A. Robb, J. R. Cheeseman, G. Scalmani, V. Barone, 
 G. A. Petersson, H. Nakatsuji, X. Li, M. Caricato, A. V. Marenich, 
 J. Bloino, B. G. Janesko, R. Gomperts, B. Mennucci, H. P. Hratchian, 
 J. V. Ortiz, A. F. Izmaylov, J. L. Sonnenberg, D. Williams-Young, 
 F. Ding, F. Lipparini, F. Egidi, J. Goings, B. Peng, A. Petrone, 
 T. Henderson, D. Ranasinghe, V. G. Zakrzewski, J. Gao, N. Rega, 
 G. Zheng, W. Liang, M. Hada, M. Ehara, K. Toyota, R. Fukuda, 
 J. Hasegawa, M. Ishida, T. Nakajima, Y. Honda, O. Kitao, H. Nakai, 
 T. Vreven, K. Throssell, J. A. Montgomery, Jr., J. E. Peralta, 
 F. Ogliaro, M. J. Bearpark, J. J. Heyd, E. N. Brothers, K. N. Kudin, 
 V. N. Staroverov, T. A. Keith, R. Kobayashi, J. Normand, 
 K. Raghavachari, A. P. Rendell, J. C. Burant, S. S. Iyengar, 
 J. Tomasi, M. Cossi, J. M. Millam, M. Klene, C. Adamo, R. Cammi, 
 J. W. Ochterski, R. L. Martin, K. Morokuma, O. Farkas, 
 J. B. Foresman, and D. J. Fox, Gaussian, Inc., Wallingford CT, 2019.
 
 ******************************************
 Gaussian 16:  ES64L-G16RevC.01  3-Jul-2019
                13-Jul-2020 
 ******************************************
 %chk=config_6_9.chk
 %mem=58GB
 %nprocshared=10
 Will use up to   10 processors via shared memory.
 ----------------------------------------------------------------------
 #p opt=addgic freq td wb97xd/cc-pvdz nosymm int=ultrafine scrf=(solven
 t=CarbonTetraChloride)
 ----------------------------------------------------------------------
 1/18=20,19=15,26=6,38=1,145=903/1,3;
 2/9=110,12=2,15=1,17=6,18=5,40=1/2;
 3/5=16,11=9,25=1,30=1,70=2201,71=1,72=11,74=-58,75=-5/1,2,3,8;
 4//1;
 5/5=2,38=5,53=11/2;
 8/6=1,10=1/1;
 9/15=2,42=1,70=2/14;
 10/5=4,31=1/2;
 6/7=2,8=2,9=2,10=2/1;
 7/12=6,13=5,30=1/1,2,3,16;
 1/18=20,19=15,26=6,145=903/3(2);
 2/9=110,15=1/2;
 99//99;
 2/9=110,15=1/2;
 3/5=16,11=9,25=1,30=1,70=2205,71=1,72=11,74=-58,75=-5/1,2,3,8;
 4/5=5,16=3,69=1/1;
 5/5=2,38=5,53=11/2;
 8/6=1,10=1/1;
 9/15=2,42=1,49=4,70=2/14;
 10/5=4,31=1/2;
 7/12=6,13=5,30=1/1,2,3,16;
 1/18=20,19=15,26=6,145=903/3(-8);
 2/9=110,15=1/2;
 6/7=2,8=2,9=2,10=2/1;
 99/9=10/99;
 Leave Link    1 at Mon Jul 13 14:28:58 2020, MaxMem=  7784628224 cpu:               5.1 elap:               0.6
 (Enter /gpfs/loomis/apps/avx/software/Gaussian/16-C.01_AVX/g16/l101.exe)
 ------------------------------------------------
 NM 2D-scan of HBT TD-WB97XD pVDZ in CTC Relaxed.
 ------------------------------------------------
 Symbolic Z-matrix:
 Charge =  0 Multiplicity = 1
 C                     1.6478   -3.263    -0.00002 
 C                     0.99995  -2.03136  -0.00002 
 C                     1.72294  -0.80325  -0.00002 
 C                     3.1341   -0.84234  -0.00002 
 C                     3.76879  -2.07464  -0.00002 
 C                     3.04136  -3.27835  -0.00002 
 H                     1.07752  -4.19273  -0.00002 
 H                     3.69992   0.08991  -0.00003 
 H                     4.8597   -2.11156  -0.00002 
 H                     3.57014  -4.23236  -0.00002 
 N                     0.93775   0.29967  -0.00002 
 S                    -0.72681  -1.72426  -0.00002 
 C                    -1.36834   1.03199   0. 
 C                    -2.75608   0.81336   0. 
 C                    -0.88684   2.42997   0.00003 
 C                    -3.64808   1.89148   0.00003 
 H                    -3.1425   -0.20746  -0.00001 
 C                    -1.82305   3.48824   0.00005 
 C                    -3.19113   3.22433   0.00005 
 H                    -4.72076   1.69097   0.00002 
 H                    -1.43077   4.50584   0.00007 
 H                    -3.90821   4.04554   0.00007 
 C                    -0.39064   0.00803  -0.00002 
 O                     0.38551   2.66237   0.00004 
 H                     0.91853   1.61641   0.00001 
 
 Add virtual bond connecting atoms H25        and N11        Dist= 2.49D+00.
 Add virtual bond connecting atoms H25        and O24        Dist= 2.22D+00.
 Initializing the GIC definitions file.
 Number of initial coordinates =   142
 Number of input entries/lines =    52
 Number of additional coordinates =     2
 Number of removed coordinates =     0
 Number of frozen coordinates =     2
 Number of final active and frozen coordinates =   144
 ITRead=  0  0  0  0  0  0  0  0  0  0  0  0  0  0  0  0  0  0  0  0
 ITRead=  0  0  0  0  0
 MicOpt= -1 -1 -1 -1 -1 -1 -1 -1 -1 -1 -1 -1 -1 -1 -1 -1 -1 -1 -1 -1
 MicOpt= -1 -1 -1 -1 -1
 NAtoms=     25 NQM=       25 NQMF=       0 NMMI=      0 NMMIF=      0
                NMic=       0 NMicF=      0.
                    Isotopes and Nuclear Properties:
 (Nuclear quadrupole moments (NQMom) in fm**2, nuclear magnetic moments (NMagM)
  in nuclear magnetons)

  Atom         1           2           3           4           5           6           7           8           9          10
 IAtWgt=          12          12          12          12          12          12           1           1           1           1
 AtmWgt=  12.0000000  12.0000000  12.0000000  12.0000000  12.0000000  12.0000000   1.0078250   1.0078250   1.0078250   1.0078250
 NucSpn=           0           0           0           0           0           0           1           1           1           1
 AtZEff=  -0.0000000  -0.0000000  -0.0000000  -0.0000000  -0.0000000  -0.0000000  -0.0000000  -0.0000000  -0.0000000  -0.0000000
 NQMom=    0.0000000   0.0000000   0.0000000   0.0000000   0.0000000   0.0000000   0.0000000   0.0000000   0.0000000   0.0000000
 NMagM=    0.0000000   0.0000000   0.0000000   0.0000000   0.0000000   0.0000000   2.7928460   2.7928460   2.7928460   2.7928460
 AtZNuc=   6.0000000   6.0000000   6.0000000   6.0000000   6.0000000   6.0000000   1.0000000   1.0000000   1.0000000   1.0000000

  Atom        11          12          13          14          15          16          17          18          19          20
 IAtWgt=          14          32          12          12          12          12           1          12          12           1
 AtmWgt=  14.0030740  31.9720718  12.0000000  12.0000000  12.0000000  12.0000000   1.0078250  12.0000000  12.0000000   1.0078250
 NucSpn=           2           0           0           0           0           0           1           0           0           1
 AtZEff=  -0.0000000  -0.0000000  -0.0000000  -0.0000000  -0.0000000  -0.0000000  -0.0000000  -0.0000000  -0.0000000  -0.0000000
 NQMom=    2.0440000   0.0000000   0.0000000   0.0000000   0.0000000   0.0000000   0.0000000   0.0000000   0.0000000   0.0000000
 NMagM=    0.4037610   0.0000000   0.0000000   0.0000000   0.0000000   0.0000000   2.7928460   0.0000000   0.0000000   2.7928460
 AtZNuc=   7.0000000  16.0000000   6.0000000   6.0000000   6.0000000   6.0000000   1.0000000   6.0000000   6.0000000   1.0000000

  Atom        21          22          23          24          25
 IAtWgt=           1           1          12          16           1
 AtmWgt=   1.0078250   1.0078250  12.0000000  15.9949146   1.0078250
 NucSpn=           1           1           0           0           1
 AtZEff=  -0.0000000  -0.0000000  -0.0000000  -0.0000000  -0.0000000
 NQMom=    0.0000000   0.0000000   0.0000000   0.0000000   0.0000000
 NMagM=    2.7928460   2.7928460   0.0000000   0.0000000   2.7928460
 AtZNuc=   1.0000000   1.0000000   6.0000000   8.0000000   1.0000000
 Leave Link  101 at Mon Jul 13 14:29:01 2020, MaxMem=  7784628224 cpu:              32.7 elap:               3.3
 (Enter /gpfs/loomis/apps/avx/software/Gaussian/16-C.01_AVX/g16/l103.exe)

 GradGradGradGradGradGradGradGradGradGradGradGradGradGradGradGradGradGrad
 Berny optimization.
 Initialization pass.
                           ----------------------------
                           !    Initial Parameters    !
                           ! (Angstroms and Degrees)  !
 --------------------------                            --------------------------
 ! Name  Definition              Value          Derivative Info.                !
 --------------------------------------------------------------------------------
 ! R1    R(1,2)                  1.3916         estimate D2E/DX2                !
 ! R2    R(1,6)                  1.3936         estimate D2E/DX2                !
 ! R3    R(1,7)                  1.0907         estimate D2E/DX2                !
 ! R4    R(2,3)                  1.4251         estimate D2E/DX2                !
 ! R5    R(2,12)                 1.7539         estimate D2E/DX2                !
 ! R6    R(3,4)                  1.4117         estimate D2E/DX2                !
 ! R7    R(3,11)                 1.3539         estimate D2E/DX2                !
 ! R8    R(4,5)                  1.3861         estimate D2E/DX2                !
 ! R9    R(4,8)                  1.0905         estimate D2E/DX2                !
 ! R10   R(5,6)                  1.4064         estimate D2E/DX2                !
 ! R11   R(5,9)                  1.0915         estimate D2E/DX2                !
 ! R12   R(6,10)                 1.0908         estimate D2E/DX2                !
 ! R13   R(11,23)                1.36           estimate D2E/DX2                !
 ! R14   R(11,25)                1.3169         estimate D2E/DX2                !
 ! R15   R(12,23)                1.7646         estimate D2E/DX2                !
 ! R16   R(13,14)                1.4049         estimate D2E/DX2                !
 ! R17   R(13,15)                1.4786         estimate D2E/DX2                !
 ! R18   R(13,23)                1.4158         estimate D2E/DX2                !
 ! R19   R(14,16)                1.3993         estimate D2E/DX2                !
 ! R20   R(14,17)                1.0915         estimate D2E/DX2                !
 ! R21   R(15,18)                1.4129         estimate D2E/DX2                !
 ! R22   R(15,24)                1.2934         estimate D2E/DX2                !
 ! R23   R(16,19)                1.409          estimate D2E/DX2                !
 ! R24   R(16,20)                1.0913         estimate D2E/DX2                !
 ! R25   R(18,19)                1.3933         estimate D2E/DX2                !
 ! R26   R(18,21)                1.0906         estimate D2E/DX2                !
 ! R27   R(19,22)                1.0902         estimate D2E/DX2                !
 ! R28   R(24,25)                1.1739         estimate D2E/DX2                !
 ! A1    A(2,1,6)              118.3755         estimate D2E/DX2                !
 ! A2    A(2,1,7)              120.7314         estimate D2E/DX2                !
 ! A3    A(6,1,7)              120.8931         estimate D2E/DX2                !
 ! A4    A(1,2,3)              121.7703         estimate D2E/DX2                !
 ! A5    A(1,2,12)             127.8288         estimate D2E/DX2                !
 ! A6    A(3,2,12)             110.4009         estimate D2E/DX2                !
 ! A7    A(2,3,4)              118.8985         estimate D2E/DX2                !
 ! A8    A(2,3,11)             114.0668         estimate D2E/DX2                !
 ! A9    A(4,3,11)             127.0347         estimate D2E/DX2                !
 ! A10   A(3,4,5)              118.8372         estimate D2E/DX2                !
 ! A11   A(3,4,8)              119.6687         estimate D2E/DX2                !
 ! A12   A(5,4,8)              121.4941         estimate D2E/DX2                !
 ! A13   A(4,5,6)              121.6042         estimate D2E/DX2                !
 ! A14   A(4,5,9)              119.189          estimate D2E/DX2                !
 ! A15   A(6,5,9)              119.2068         estimate D2E/DX2                !
 ! A16   A(1,6,5)              120.5144         estimate D2E/DX2                !
 ! A17   A(1,6,10)             119.6292         estimate D2E/DX2                !
 ! A18   A(5,6,10)             119.8565         estimate D2E/DX2                !
 ! A19   A(3,11,23)            113.0656         estimate D2E/DX2                !
 ! A20   A(3,11,25)            145.3883         estimate D2E/DX2                !
 ! A21   A(23,11,25)           101.5461         estimate D2E/DX2                !
 ! A22   A(2,12,23)             89.1021         estimate D2E/DX2                !
 ! A23   A(14,13,15)           117.9583         estimate D2E/DX2                !
 ! A24   A(14,13,23)           124.7227         estimate D2E/DX2                !
 ! A25   A(15,13,23)           117.319          estimate D2E/DX2                !
 ! A26   A(13,14,16)           120.6501         estimate D2E/DX2                !
 ! A27   A(13,14,17)           119.6865         estimate D2E/DX2                !
 ! A28   A(16,14,17)           119.6634         estimate D2E/DX2                !
 ! A29   A(13,15,18)           119.4968         estimate D2E/DX2                !
 ! A30   A(13,15,24)           119.3561         estimate D2E/DX2                !
 ! A31   A(18,15,24)           121.1471         estimate D2E/DX2                !
 ! A32   A(14,16,19)           121.4734         estimate D2E/DX2                !
 ! A33   A(14,16,20)           119.0155         estimate D2E/DX2                !
 ! A34   A(19,16,20)           119.5112         estimate D2E/DX2                !
 ! A35   A(15,18,19)           120.5797         estimate D2E/DX2                !
 ! A36   A(15,18,21)           117.4207         estimate D2E/DX2                !
 ! A37   A(19,18,21)           121.9996         estimate D2E/DX2                !
 ! A38   A(16,19,18)           119.8417         estimate D2E/DX2                !
 ! A39   A(16,19,22)           119.9491         estimate D2E/DX2                !
 ! A40   A(18,19,22)           120.2092         estimate D2E/DX2                !
 ! A41   A(11,23,12)           113.3646         estimate D2E/DX2                !
 ! A42   A(11,23,13)           121.2934         estimate D2E/DX2                !
 ! A43   A(12,23,13)           125.3419         estimate D2E/DX2                !
 ! A44   A(15,24,25)           106.6523         estimate D2E/DX2                !
 ! A45   A(11,25,24)           153.8331         estimate D2E/DX2                !
 ! D1    D(6,1,2,3)              0.0            estimate D2E/DX2                !
 ! D2    D(6,1,2,12)          -180.0            estimate D2E/DX2                !
 ! D3    D(7,1,2,3)            179.9999         estimate D2E/DX2                !
 ! D4    D(7,1,2,12)             0.0            estimate D2E/DX2                !
 ! D5    D(2,1,6,5)             -0.0001         estimate D2E/DX2                !
 ! D6    D(2,1,6,10)           180.0            estimate D2E/DX2                !
 ! D7    D(7,1,6,5)           -180.0            estimate D2E/DX2                !
 ! D8    D(7,1,6,10)             0.0            estimate D2E/DX2                !
 ! D9    D(1,2,3,4)              0.0001         estimate D2E/DX2                !
 ! D10   D(1,2,3,11)           180.0            estimate D2E/DX2                !
 ! D11   D(12,2,3,4)          -180.0            estimate D2E/DX2                !
 ! D12   D(12,2,3,11)            0.0            estimate D2E/DX2                !
 ! D13   D(1,2,12,23)          179.9998         estimate D2E/DX2                !
 ! D14   D(3,2,12,23)           -0.0002         estimate D2E/DX2                !
 ! D15   D(2,3,4,5)             -0.0001         estimate D2E/DX2                !
 ! D16   D(2,3,4,8)            180.0            estimate D2E/DX2                !
 ! D17   D(11,3,4,5)          -180.0            estimate D2E/DX2                !
 ! D18   D(11,3,4,8)             0.0            estimate D2E/DX2                !
 ! D19   D(2,3,11,23)            0.0003         estimate D2E/DX2                !
 ! D20   D(2,3,11,25)          179.9972         estimate D2E/DX2                !
 ! D21   D(4,3,11,23)         -179.9998         estimate D2E/DX2                !
 ! D22   D(4,3,11,25)           -0.0029         estimate D2E/DX2                !
 ! D23   D(3,4,5,6)              0.0            estimate D2E/DX2                !
 ! D24   D(3,4,5,9)           -180.0            estimate D2E/DX2                !
 ! D25   D(8,4,5,6)            180.0            estimate D2E/DX2                !
 ! D26   D(8,4,5,9)              0.0            estimate D2E/DX2                !
 ! D27   D(4,5,6,1)              0.0            estimate D2E/DX2                !
 ! D28   D(4,5,6,10)          -180.0            estimate D2E/DX2                !
 ! D29   D(9,5,6,1)           -180.0            estimate D2E/DX2                !
 ! D30   D(9,5,6,10)             0.0            estimate D2E/DX2                !
 ! D31   D(3,11,23,12)          -0.0004         estimate D2E/DX2                !
 ! D32   D(3,11,23,13)         179.999          estimate D2E/DX2                !
 ! D33   D(25,11,23,12)       -179.9986         estimate D2E/DX2                !
 ! D34   D(25,11,23,13)          0.0007         estimate D2E/DX2                !
 ! D35   D(3,11,25,24)        -179.9976         estimate D2E/DX2                !
 ! D36   D(23,11,25,24)         -0.0005         estimate D2E/DX2                !
 ! D37   D(2,12,23,11)           0.0003         estimate D2E/DX2                !
 ! D38   D(2,12,23,13)        -179.999          estimate D2E/DX2                !
 ! D39   D(15,13,14,16)          0.0002         estimate D2E/DX2                !
 ! D40   D(15,13,14,17)       -179.9999         estimate D2E/DX2                !
 ! D41   D(23,13,14,16)       -179.9999         estimate D2E/DX2                !
 ! D42   D(23,13,14,17)         -0.0001         estimate D2E/DX2                !
 ! D43   D(14,13,15,18)         -0.0002         estimate D2E/DX2                !
 ! D44   D(14,13,15,24)        179.9996         estimate D2E/DX2                !
 ! D45   D(23,13,15,18)        179.9999         estimate D2E/DX2                !
 ! D46   D(23,13,15,24)         -0.0003         estimate D2E/DX2                !
 ! D47   D(14,13,23,11)        179.9996         estimate D2E/DX2                !
 ! D48   D(14,13,23,12)         -0.0011         estimate D2E/DX2                !
 ! D49   D(15,13,23,11)         -0.0005         estimate D2E/DX2                !
 ! D50   D(15,13,23,12)        179.9988         estimate D2E/DX2                !
 ! D51   D(13,14,16,19)          0.0            estimate D2E/DX2                !
 ! D52   D(13,14,16,20)        180.0            estimate D2E/DX2                !
 ! D53   D(17,14,16,19)       -179.9999         estimate D2E/DX2                !
 ! D54   D(17,14,16,20)          0.0001         estimate D2E/DX2                !
 ! D55   D(13,15,18,19)          0.0002         estimate D2E/DX2                !
 ! D56   D(13,15,18,21)        179.9999         estimate D2E/DX2                !
 ! D57   D(24,15,18,19)       -179.9996         estimate D2E/DX2                !
 ! D58   D(24,15,18,21)          0.0001         estimate D2E/DX2                !
 ! D59   D(13,15,24,25)          0.0006         estimate D2E/DX2                !
 ! D60   D(18,15,24,25)       -179.9996         estimate D2E/DX2                !
 ! D61   D(14,16,19,18)          0.0            estimate D2E/DX2                !
 ! D62   D(14,16,19,22)       -180.0            estimate D2E/DX2                !
 ! D63   D(20,16,19,18)        180.0            estimate D2E/DX2                !
 ! D64   D(20,16,19,22)          0.0            estimate D2E/DX2                !
 ! D65   D(15,18,19,16)         -0.0001         estimate D2E/DX2                !
 ! D66   D(15,18,19,22)        179.9999         estimate D2E/DX2                !
 ! D67   D(21,18,19,16)       -179.9998         estimate D2E/DX2                !
 ! D68   D(21,18,19,22)          0.0002         estimate D2E/DX2                !
 ! D69   D(15,24,25,11)         -0.0002         estimate D2E/DX2                !
 ! Qtot  GIC-1                   0.0            Frozen                          !
 ! Ptot  GIC-2                  20.0            Frozen                          !
 --------------------------------------------------------------------------------
 NOTE: GIC-type coordinates are in arbitrary units.
 Trust Radius=3.00D-01 FncErr=5.00D-06 GrdErr=5.00D-06 EigMax=2.50D+02 EigMin=1.00D-04
 Number of steps in this run=    150 maximum allowed number of steps=    150.
 GradGradGradGradGradGradGradGradGradGradGradGradGradGradGradGradGradGrad

 Leave Link  103 at Mon Jul 13 14:29:01 2020, MaxMem=  7784628224 cpu:               0.2 elap:               0.0
 (Enter /gpfs/loomis/apps/avx/software/Gaussian/16-C.01_AVX/g16/l202.exe)
                          Input orientation:                          
 ---------------------------------------------------------------------
 Center     Atomic      Atomic             Coordinates (Angstroms)
 Number     Number       Type             X           Y           Z
 ---------------------------------------------------------------------
      1          6           0        1.647797   -3.263001   -0.000021
      2          6           0        0.999952   -2.031361   -0.000022
      3          6           0        1.722940   -0.803248   -0.000023
      4          6           0        3.134098   -0.842338   -0.000024
      5          6           0        3.768786   -2.074637   -0.000023
      6          6           0        3.041361   -3.278349   -0.000021
      7          1           0        1.077522   -4.192728   -0.000019
      8          1           0        3.699924    0.089913   -0.000025
      9          1           0        4.859702   -2.111562   -0.000023
     10          1           0        3.570140   -4.232363   -0.000020
     11          7           0        0.937749    0.299666   -0.000023
     12         16           0       -0.726809   -1.724265   -0.000021
     13          6           0       -1.368342    1.031994    0.000005
     14          6           0       -2.756080    0.813362    0.000005
     15          6           0       -0.886837    2.429974    0.000033
     16          6           0       -3.648080    1.891482    0.000026
     17          1           0       -3.142497   -0.207458   -0.000015
     18          6           0       -1.823045    3.488240    0.000053
     19          6           0       -3.191135    3.224334    0.000050
     20          1           0       -4.720759    1.690972    0.000025
     21          1           0       -1.430766    4.505843    0.000074
     22          1           0       -3.908212    4.045540    0.000068
     23          6           0       -0.390644    0.008027   -0.000017
     24          8           0        0.385509    2.662367    0.000042
     25          1           0        0.918528    1.616405    0.000012
 ---------------------------------------------------------------------
                    Distance matrix (angstroms):
                    1          2          3          4          5
     1  C    0.000000
     2  C    1.391632   0.000000
     3  C    2.460901   1.425123   0.000000
     4  C    2.840546   2.443022   1.411700   0.000000
     5  C    2.431214   2.769172   2.408717   1.386142   0.000000
     6  C    1.393648   2.392139   2.804346   2.437775   1.406438
     7  H    1.090690   2.162758   3.450382   3.931236   3.424793
     8  H    3.931063   3.433607   2.169378   1.090528   2.165646
     9  H    3.412059   3.860583   3.398670   2.142110   1.091540
    10  H    2.152920   3.383825   3.894994   3.417952   2.166850
    11  N    3.632735   2.331857   1.353862   2.475504   3.694872
    12  S    2.829569   1.753856   2.617163   3.960354   4.509228
    13  C    5.248245   3.872074   3.595016   4.876996   6.003436
    14  C    6.000906   4.711712   4.761833   6.118460   7.135434
    15  C    6.231721   4.843913   4.155077   5.184202   6.478144
    16  C    7.390197   6.082179   6.009112   7.312436   8.410708
    17  H    5.681835   4.526201   4.901779   6.308622   7.159063
    18  C    7.591179   6.199621   5.566945   6.582338   7.887596
    19  C    8.093255   6.722168   6.353703   7.519734   8.747548
    20  H    8.068479   6.825122   6.909587   8.253269   9.287205
    21  H    8.356583   6.974484   6.175136   7.031431   8.386779
    22  H    9.180633   7.811453   7.431058   8.572368   9.817987
    23  C    3.854201   2.468372   2.263935   3.625869   4.651703
    24  O    6.058330   4.733775   3.714729   4.453954   5.821149
    25  H    4.933603   3.648675   2.549862   3.309708   4.663449
                    6          7          8          9         10
     6  C    0.000000
     7  H    2.166276   0.000000
     8  H    3.432039   5.021753   0.000000
     9  H    2.160499   4.316959   2.488288   0.000000
    10  H    1.090757   2.492933   4.324224   2.482089   0.000000
    11  N    4.150586   4.494567   2.770127   4.603882   5.241065
    12  S    4.076062   3.057600   4.784058   5.599920   4.975372
    13  C    6.166403   5.768879   5.155078   6.976422   7.218175
    14  C    7.095944   6.305350   6.496412   8.158144   8.091996
    15  C    6.929336   6.907886   5.149200   7.324497   8.015696
    16  C    8.454334   7.703825   7.565634   9.402484   9.465948
    17  H    6.904379   5.804389   6.848879   8.225618   7.826835
    18  C    8.333616   8.210393   6.484737   8.718766   9.417757
    19  C    9.007157   8.557700   7.570421   9.658559  10.065643
    20  H    9.216542   8.260629   8.571539  10.307497  10.189450
    21  H    8.977391   9.052990   6.769373   9.130171  10.068033
    22  H   10.096332   9.629465   8.575005  10.713833  11.155690
    23  C    4.751728   4.449927   4.091387   5.662048   5.802475
    24  O    6.507354   6.889935   4.195577   6.542843   7.594681
    25  H    5.335263   5.811308   3.172749   5.424996   6.421770
                   11         12         13         14         15
    11  N    0.000000
    12  S    2.620506   0.000000
    13  C    2.419579   2.829934   0.000000
    14  C    3.729378   3.249230   1.404855   0.000000
    15  C    2.804876   4.157321   1.478579   2.471336   0.000000
    16  C    4.854247   4.648381   2.436376   1.399288   2.813261
    17  H    4.111640   2.852411   2.164224   1.091509   3.470454
    18  C    4.217700   5.326532   2.497979   2.832936   1.412944
    19  C    5.059780   5.528249   2.851128   2.449910   2.437374
    20  H    5.827044   5.255043   3.416570   2.151781   3.904494
    21  H    4.827193   6.269753   3.474410   3.923120   2.145947
    22  H    6.124942   6.588777   3.941117   3.431382   3.426187
    23  C    1.360030   1.764609   1.415769   2.498771   2.472253
    24  O    2.426382   4.525461   2.394600   3.645327   1.293396
    25  H    1.316880   3.723870   2.360362   3.761333   1.980212
                   16         17         18         19         20
    16  C    0.000000
    17  H    2.158973   0.000000
    18  C    2.424952   3.924173   0.000000
    19  C    1.409005   3.432137   1.393311   0.000000
    20  H    1.091257   2.468795   3.409826   2.165860   0.000000
    21  H    3.428027   5.014502   1.090596   2.177421   4.329844
    22  H    2.169709   4.321379   2.158357   1.090220   2.490828
    23  C    3.762751   2.760277   3.763463   4.264667   4.645665
    24  O    4.106594   4.547826   2.357918   3.620523   5.197844
    25  H    4.574886   4.451786   3.319637   4.413022   5.639780
                   21         22         23         24         25
    21  H    0.000000
    22  H    2.519845   0.000000
    23  C    4.616514   5.354886   0.000000
    24  O    2.587906   4.511010   2.765490   0.000000
    25  H    3.723981   5.403528   2.073839   1.173945   0.000000
 Symmetry turned off by external request.
 Stoichiometry    C13H9NOS
 Framework group  C1[X(C13H9NOS)]
 Deg. of freedom    69
 Full point group                 C1      NOp   1
 Rotational constants (GHZ):           1.3834394           0.2860562           0.2370425
 Leave Link  202 at Mon Jul 13 14:29:02 2020, MaxMem=  7784628224 cpu:               0.1 elap:               0.2
 (Enter /gpfs/loomis/apps/avx/software/Gaussian/16-C.01_AVX/g16/l301.exe)
 Standard basis: CC-pVDZ (5D, 7F)
 Ernie: Thresh=  0.10000D-02 Tol=  0.10000D-05 Strict=F.
 Ernie:  40 primitive shells out of 425 were deleted.
   273 basis functions,   629 primitive gaussians,   289 cartesian basis functions
    59 alpha electrons       59 beta electrons
       nuclear repulsion energy      1098.7046424787 Hartrees.
 IExCor= 4639 DFT=T Ex+Corr=wB97XD ExCW=0 ScaHFX=  1.000000
 ScaDFX=  1.000000  1.000000  1.000000  1.000000 ScalE2=  1.000000  1.000000
 IRadAn=      5 IRanWt=     -1 IRanGd=            0 ICorTp=0 IEmpDi=121
 HFx  wShort=  0.000000 wLong=  0.200000 cFull=  0.222036 cShort=  0.000000 cLong=  0.777964
 DFx  wShort=  0.000000 wLong=  0.200000 cFull=  0.000000 cShort=  0.000000 cLong=  1.000000
 NAtoms=   25 NActive=   25 NUniq=   25 SFac= 1.00D+00 NAtFMM=   60 NAOKFM=F Big=F
 Integral buffers will be    131072 words long.
 Raffenetti 1 integral format.
 Two-electron integral symmetry is turned off.
 R6Disp:  Grimme-D2 Dispersion energy=       -0.0139378959 Hartrees.
 Nuclear repulsion after empirical dispersion term =     1098.6907045828 Hartrees.
 ------------------------------------------------------------------------------
 Polarizable Continuum Model (PCM)
 =================================
 Model                : PCM.
 Atomic radii         : UFF (Universal Force Field).
 Polarization charges : Total charges.
 Charge compensation  : None.
 Solution method      : On-the-fly selection.
 Cavity type          : Scaled VdW (van der Waals Surface) (Alpha=1.100).
 Cavity algorithm     : GePol (No added spheres)
                        Default sphere list used, NSphG=   25.
                        Lebedev-Laikov grids with approx.  5.0 points / Ang**2.
                        Smoothing algorithm: York/Karplus (Gamma=1.0000).
                        Polarization charges: spherical gaussians, with
                                              point-specific exponents (IZeta= 3).
                        Self-potential: point-specific (ISelfS= 7).
                        Self-field    : sphere-specific E.n sum rule (ISelfD= 2).
 1st derivatives      : Analytical E(r).r(x)/FMM algorithm (CHGder, D1EAlg=3).
                        Cavity 1st derivative terms included.
 Solvent              : CarbonTetraChloride, Eps=   2.228000 Eps(inf)=   2.131892
 ------------------------------------------------------------------------------
 GePol: Number of generator spheres                  =      25
 GePol: Total number of spheres                      =      25
 GePol: Number of exposed spheres                    =      25 (100.00%)
 GePol: Number of points                             =    2173
 GePol: Average weight of points                     =       0.13
 GePol: Minimum weight of points                     =   0.22D-10
 GePol: Maximum weight of points                     =    0.20577
 GePol: Number of points with low weight             =     122
 GePol: Fraction of low-weight points (<1% of avg)   =       5.61%
 GePol: Cavity surface area                          =    273.420 Ang**2
 GePol: Cavity volume                                =    292.911 Ang**3
 Leave Link  301 at Mon Jul 13 14:29:02 2020, MaxMem=  7784628224 cpu:               0.8 elap:               0.1
 (Enter /gpfs/loomis/apps/avx/software/Gaussian/16-C.01_AVX/g16/l302.exe)
 NPDir=0 NMtPBC=     1 NCelOv=     1 NCel=       1 NClECP=     1 NCelD=      1
         NCelK=      1 NCelE2=     1 NClLst=     1 CellRange=     0.0.
 One-electron integrals computed using PRISM.
 NBasis=   273 RedAO= T EigKep=  3.11D-04  NBF=   273
 NBsUse=   273 1.00D-06 EigRej= -1.00D+00 NBFU=   273
 Precomputing XC quadrature grid using
 IXCGrd= 4 IRadAn=           5 IRanWt=          -1 IRanGd=           0 AccXCQ= 0.00D+00.
 Generated NRdTot=       0 NPtTot=           0 NUsed=           0 NTot=          32
 NSgBfM=   288   288   288   288   288 MxSgAt=    25 MxSgA2=    25.
 Leave Link  302 at Mon Jul 13 14:29:02 2020, MaxMem=  7784628224 cpu:               3.6 elap:               0.4
 (Enter /gpfs/loomis/apps/avx/software/Gaussian/16-C.01_AVX/g16/l303.exe)
 DipDrv:  MaxL=1.
 Leave Link  303 at Mon Jul 13 14:29:02 2020, MaxMem=  7784628224 cpu:               0.4 elap:               0.1
 (Enter /gpfs/loomis/apps/avx/software/Gaussian/16-C.01_AVX/g16/l308.exe)
 Leave Link  308 at Mon Jul 13 14:29:02 2020, MaxMem=  7784628224 cpu:               0.5 elap:               0.1
 (Enter /gpfs/loomis/apps/avx/software/Gaussian/16-C.01_AVX/g16/l401.exe)
 ExpMin= 1.22D-01 ExpMax= 1.11D+05 ExpMxC= 1.07D+03 IAcc=3 IRadAn=         5 AccDes= 0.00D+00
 Harris functional with IExCor= 4639 and IRadAn=       5 diagonalized for initial guess.
 HarFok:  IExCor= 4639 AccDes= 0.00D+00 IRadAn=         5 IDoV= 1 UseB2=F ITyADJ=14
 ICtDFT=  3500011 ScaDFX=  1.000000  1.000000  1.000000  1.000000
 FoFCou: FMM=F IPFlag=           0 FMFlag=      100000 FMFlg1=           0
         NFxFlg=           0 DoJE=T BraDBF=F KetDBF=T FulRan=T
         wScrn=  0.000000 ICntrl=       500 IOpCl=  0 I1Cent=   200000004 NGrid=           0
         NMat0=    1 NMatS0=      1 NMatT0=    0 NMatD0=    1 NMtDS0=    0 NMtDT0=    0
 Symmetry not used in FoFCou.
 Harris En= -994.459146042580    
 JPrj=0 DoOrth=F DoCkMO=F.
 Leave Link  401 at Mon Jul 13 14:29:04 2020, MaxMem=  7784628224 cpu:              13.7 elap:               1.4
 (Enter /gpfs/loomis/apps/avx/software/Gaussian/16-C.01_AVX/g16/l502.exe)
 Two-electron integral symmetry not used.
 Closed shell SCF:
 Using DIIS extrapolation, IDIIS=  1040.
 NGot=  7784628224 LenX=  7784455381 LenY=  7784371419
 Requested convergence on RMS density matrix=1.00D-08 within 128 cycles.
 Requested convergence on MAX density matrix=1.00D-06.
 Requested convergence on             energy=1.00D-06.
 No special actions if energy rises.
 Fock matrices will be formed incrementally for  20 cycles.

 Cycle   1  Pass 1  IDiag  1:
 FoFJK:  IHMeth= 1 ICntrl=       0 DoSepK=T KAlg= 0 I1Cent=           0 FoldK=F
 IRaf=         1 NMat=       1 IRICut=       1 DoRegI=T DoRafI=F ISym2E= 0 IDoP0=0 IntGTp=1.
 FoFCou: FMM=F IPFlag=           0 FMFlag=      100000 FMFlg1=           0
         NFxFlg=           0 DoJE=T BraDBF=F KetDBF=F FulRan=T
         wScrn=  0.000000 ICntrl=       500 IOpCl=  0 I1Cent=           0 NGrid=           0
         NMat0=    1 NMatS0=      1 NMatT0=    0 NMatD0=    1 NMtDS0=    0 NMtDT0=    0
 Symmetry not used in FoFCou.
 Inv3:  Mode=1 IEnd=    14165787.
 Iteration    1 A*A^-1 deviation from unit magnitude is 5.55D-15 for   2154.
 Iteration    1 A*A^-1 deviation from orthogonality  is 2.47D-15 for   2170   2058.
 Iteration    1 A^-1*A deviation from unit magnitude is 5.55D-15 for   2154.
 Iteration    1 A^-1*A deviation from orthogonality  is 2.09D-15 for   2170   2058.
 E= -1028.57654671711    
 DIIS: error= 3.62D-02 at cycle   1 NSaved=   1.
 NSaved= 1 IEnMin= 1 EnMin= -1028.57654671711     IErMin= 1 ErrMin= 3.62D-02
 ErrMax= 3.62D-02  0.00D+00 EMaxC= 1.00D-01 BMatC= 3.92D-01 BMatP= 3.92D-01
 IDIUse=3 WtCom= 6.38D-01 WtEn= 3.62D-01
 Coeff-Com:  0.100D+01
 Coeff-En:   0.100D+01
 Coeff:      0.100D+01
 Gap=     0.346 Goal=   None    Shift=    0.000
 GapD=    0.346 DampG=1.000 DampE=0.500 DampFc=0.5000 IDamp=-1.
 Damping current iteration by 5.00D-01
 RMSDP=3.53D-03 MaxDP=2.25D-01              OVMax= 1.76D-01

 Cycle   2  Pass 1  IDiag  1:
 RMSU=  1.76D-03    CP:  9.93D-01
 E= -1028.69471972669     Delta-E=       -0.118173009573 Rises=F Damp=T
 DIIS: error= 1.24D-02 at cycle   2 NSaved=   2.
 NSaved= 2 IEnMin= 2 EnMin= -1028.69471972669     IErMin= 2 ErrMin= 1.24D-02
 ErrMax= 1.24D-02  0.00D+00 EMaxC= 1.00D-01 BMatC= 5.77D-02 BMatP= 3.92D-01
 IDIUse=3 WtCom= 8.76D-01 WtEn= 1.24D-01
 Coeff-Com: -0.290D+00 0.129D+01
 Coeff-En:   0.000D+00 0.100D+01
 Coeff:     -0.254D+00 0.125D+01
 Gap=     0.301 Goal=   None    Shift=    0.000
 RMSDP=1.14D-03 MaxDP=2.41D-02 DE=-1.18D-01 OVMax= 1.15D-01

 Cycle   3  Pass 1  IDiag  1:
 RMSU=  1.08D-03    CP:  9.91D-01  1.20D+00
 E= -1028.79981772507     Delta-E=       -0.105097998389 Rises=F Damp=F
 DIIS: error= 5.83D-03 at cycle   3 NSaved=   3.
 NSaved= 3 IEnMin= 3 EnMin= -1028.79981772507     IErMin= 3 ErrMin= 5.83D-03
 ErrMax= 5.83D-03  0.00D+00 EMaxC= 1.00D-01 BMatC= 1.33D-02 BMatP= 5.77D-02
 IDIUse=3 WtCom= 9.42D-01 WtEn= 5.83D-02
 Coeff-Com: -0.199D+00 0.477D+00 0.722D+00
 Coeff-En:   0.000D+00 0.000D+00 0.100D+01
 Coeff:     -0.187D+00 0.449D+00 0.739D+00
 Gap=     0.260 Goal=   None    Shift=    0.000
 RMSDP=5.20D-04 MaxDP=1.77D-02 DE=-1.05D-01 OVMax= 3.78D-02

 Cycle   4  Pass 1  IDiag  1:
 RMSU=  4.09D-04    CP:  9.89D-01  1.35D+00  8.49D-01
 E= -1028.81219362577     Delta-E=       -0.012375900694 Rises=F Damp=F
 DIIS: error= 2.05D-03 at cycle   4 NSaved=   4.
 NSaved= 4 IEnMin= 4 EnMin= -1028.81219362577     IErMin= 4 ErrMin= 2.05D-03
 ErrMax= 2.05D-03  0.00D+00 EMaxC= 1.00D-01 BMatC= 1.64D-03 BMatP= 1.33D-02
 IDIUse=3 WtCom= 9.79D-01 WtEn= 2.05D-02
 Coeff-Com: -0.706D-01 0.140D+00 0.351D+00 0.580D+00
 Coeff-En:   0.000D+00 0.000D+00 0.000D+00 0.100D+01
 Coeff:     -0.691D-01 0.137D+00 0.344D+00 0.589D+00
 Gap=     0.257 Goal=   None    Shift=    0.000
 RMSDP=1.65D-04 MaxDP=9.68D-03 DE=-1.24D-02 OVMax= 1.34D-02

 Cycle   5  Pass 1  IDiag  1:
 RMSU=  1.03D-04    CP:  9.89D-01  1.36D+00  9.17D-01  7.49D-01
 E= -1028.81389143136     Delta-E=       -0.001697805593 Rises=F Damp=F
 DIIS: error= 3.75D-04 at cycle   5 NSaved=   5.
 NSaved= 5 IEnMin= 5 EnMin= -1028.81389143136     IErMin= 5 ErrMin= 3.75D-04
 ErrMax= 3.75D-04  0.00D+00 EMaxC= 1.00D-01 BMatC= 5.01D-05 BMatP= 1.64D-03
 IDIUse=3 WtCom= 9.96D-01 WtEn= 3.75D-03
 Coeff-Com: -0.147D-02-0.302D-02 0.348D-01 0.159D+00 0.811D+00
 Coeff-En:   0.000D+00 0.000D+00 0.000D+00 0.000D+00 0.100D+01
 Coeff:     -0.147D-02-0.301D-02 0.347D-01 0.158D+00 0.811D+00
 Gap=     0.258 Goal=   None    Shift=    0.000
 RMSDP=5.06D-05 MaxDP=1.54D-03 DE=-1.70D-03 OVMax= 4.78D-03

 Cycle   6  Pass 1  IDiag  1:
 RMSU=  3.23D-05    CP:  9.89D-01  1.37D+00  9.35D-01  8.28D-01  1.07D+00
 E= -1028.81399515678     Delta-E=       -0.000103725420 Rises=F Damp=F
 DIIS: error= 1.64D-04 at cycle   6 NSaved=   6.
 NSaved= 6 IEnMin= 6 EnMin= -1028.81399515678     IErMin= 6 ErrMin= 1.64D-04
 ErrMax= 1.64D-04  0.00D+00 EMaxC= 1.00D-01 BMatC= 8.52D-06 BMatP= 5.01D-05
 IDIUse=3 WtCom= 9.98D-01 WtEn= 1.64D-03
 Coeff-Com:  0.143D-01-0.294D-01-0.569D-01-0.598D-01 0.211D+00 0.921D+00
 Coeff-En:   0.000D+00 0.000D+00 0.000D+00 0.000D+00 0.000D+00 0.100D+01
 Coeff:      0.142D-01-0.294D-01-0.568D-01-0.597D-01 0.210D+00 0.921D+00
 Gap=     0.259 Goal=   None    Shift=    0.000
 RMSDP=2.87D-05 MaxDP=1.49D-03 DE=-1.04D-04 OVMax= 2.62D-03

 Cycle   7  Pass 1  IDiag  1:
 RMSU=  1.47D-05    CP:  9.89D-01  1.37D+00  9.46D-01  8.55D-01  1.24D+00
                    CP:  1.24D+00
 E= -1028.81402004952     Delta-E=       -0.000024892739 Rises=F Damp=F
 DIIS: error= 1.12D-04 at cycle   7 NSaved=   7.
 NSaved= 7 IEnMin= 7 EnMin= -1028.81402004952     IErMin= 7 ErrMin= 1.12D-04
 ErrMax= 1.12D-04  0.00D+00 EMaxC= 1.00D-01 BMatC= 1.99D-06 BMatP= 8.52D-06
 IDIUse=3 WtCom= 9.99D-01 WtEn= 1.12D-03
 Coeff-Com:  0.628D-02-0.120D-01-0.287D-01-0.458D-01-0.131D-01 0.406D+00
 Coeff-Com:  0.687D+00
 Coeff-En:   0.000D+00 0.000D+00 0.000D+00 0.000D+00 0.000D+00 0.000D+00
 Coeff-En:   0.100D+01
 Coeff:      0.627D-02-0.120D-01-0.287D-01-0.457D-01-0.131D-01 0.405D+00
 Coeff:      0.688D+00
 Gap=     0.259 Goal=   None    Shift=    0.000
 RMSDP=9.60D-06 MaxDP=4.06D-04 DE=-2.49D-05 OVMax= 1.15D-03

 Cycle   8  Pass 1  IDiag  1:
 RMSU=  6.00D-06    CP:  9.89D-01  1.37D+00  9.48D-01  8.62D-01  1.27D+00
                    CP:  1.42D+00  1.11D+00
 E= -1028.81402389993     Delta-E=       -0.000003850404 Rises=F Damp=F
 DIIS: error= 4.06D-05 at cycle   8 NSaved=   8.
 NSaved= 8 IEnMin= 8 EnMin= -1028.81402389993     IErMin= 8 ErrMin= 4.06D-05
 ErrMax= 4.06D-05  0.00D+00 EMaxC= 1.00D-01 BMatC= 3.00D-07 BMatP= 1.99D-06
 IDIUse=1 WtCom= 1.00D+00 WtEn= 0.00D+00
 Coeff-Com: -0.110D-02 0.247D-02 0.352D-02 0.620D-03-0.404D-01-0.654D-01
 Coeff-Com:  0.235D+00 0.865D+00
 Coeff:     -0.110D-02 0.247D-02 0.352D-02 0.620D-03-0.404D-01-0.654D-01
 Coeff:      0.235D+00 0.865D+00
 Gap=     0.259 Goal=   None    Shift=    0.000
 RMSDP=4.79D-06 MaxDP=1.47D-04 DE=-3.85D-06 OVMax= 6.68D-04

 Cycle   9  Pass 1  IDiag  1:
 RMSU=  2.27D-06    CP:  9.89D-01  1.37D+00  9.47D-01  8.61D-01  1.28D+00
                    CP:  1.49D+00  1.32D+00  1.15D+00
 E= -1028.81402471719     Delta-E=       -0.000000817264 Rises=F Damp=F
 DIIS: error= 1.59D-05 at cycle   9 NSaved=   9.
 NSaved= 9 IEnMin= 9 EnMin= -1028.81402471719     IErMin= 9 ErrMin= 1.59D-05
 ErrMax= 1.59D-05  0.00D+00 EMaxC= 1.00D-01 BMatC= 4.22D-08 BMatP= 3.00D-07
 IDIUse=1 WtCom= 1.00D+00 WtEn= 0.00D+00
 Coeff-Com: -0.112D-02 0.223D-02 0.471D-02 0.638D-02-0.108D-01-0.811D-01
 Coeff-Com: -0.123D-01 0.261D+00 0.831D+00
 Coeff:     -0.112D-02 0.223D-02 0.471D-02 0.638D-02-0.108D-01-0.811D-01
 Coeff:     -0.123D-01 0.261D+00 0.831D+00
 Gap=     0.259 Goal=   None    Shift=    0.000
 RMSDP=2.17D-06 MaxDP=5.77D-05 DE=-8.17D-07 OVMax= 3.44D-04

 Cycle  10  Pass 1  IDiag  1:
 RMSU=  1.05D-06    CP:  9.89D-01  1.37D+00  9.47D-01  8.61D-01  1.28D+00
                    CP:  1.52D+00  1.41D+00  1.31D+00  1.22D+00
 E= -1028.81402488046     Delta-E=       -0.000000163268 Rises=F Damp=F
 DIIS: error= 8.20D-06 at cycle  10 NSaved=  10.
 NSaved=10 IEnMin=10 EnMin= -1028.81402488046     IErMin=10 ErrMin= 8.20D-06
 ErrMax= 8.20D-06  0.00D+00 EMaxC= 1.00D-01 BMatC= 1.17D-08 BMatP= 4.22D-08
 IDIUse=1 WtCom= 1.00D+00 WtEn= 0.00D+00
 Coeff-Com: -0.160D-03 0.268D-03 0.951D-03 0.236D-02 0.428D-02-0.198D-01
 Coeff-Com: -0.470D-01-0.934D-01 0.311D+00 0.842D+00
 Coeff:     -0.160D-03 0.268D-03 0.951D-03 0.236D-02 0.428D-02-0.198D-01
 Coeff:     -0.470D-01-0.934D-01 0.311D+00 0.842D+00
 Gap=     0.259 Goal=   None    Shift=    0.000
 RMSDP=1.20D-06 MaxDP=3.21D-05 DE=-1.63D-07 OVMax= 1.99D-04

 Cycle  11  Pass 1  IDiag  1:
 RMSU=  4.81D-07    CP:  9.89D-01  1.37D+00  9.47D-01  8.61D-01  1.28D+00
                    CP:  1.53D+00  1.44D+00  1.39D+00  1.52D+00  1.22D+00
 E= -1028.81402492494     Delta-E=       -0.000000044485 Rises=F Damp=F
 DIIS: error= 4.08D-06 at cycle  11 NSaved=  11.
 NSaved=11 IEnMin=11 EnMin= -1028.81402492494     IErMin=11 ErrMin= 4.08D-06
 ErrMax= 4.08D-06  0.00D+00 EMaxC= 1.00D-01 BMatC= 1.86D-09 BMatP= 1.17D-08
 IDIUse=1 WtCom= 1.00D+00 WtEn= 0.00D+00
 Coeff-Com:  0.223D-03-0.460D-03-0.835D-03-0.742D-03 0.414D-02 0.101D-01
 Coeff-Com: -0.541D-02-0.826D-01-0.688D-01 0.215D+00 0.929D+00
 Coeff:      0.223D-03-0.460D-03-0.835D-03-0.742D-03 0.414D-02 0.101D-01
 Coeff:     -0.541D-02-0.826D-01-0.688D-01 0.215D+00 0.929D+00
 Gap=     0.259 Goal=   None    Shift=    0.000
 RMSDP=5.52D-07 MaxDP=1.44D-05 DE=-4.45D-08 OVMax= 1.04D-04

 Cycle  12  Pass 1  IDiag  1:
 RMSU=  1.96D-07    CP:  9.89D-01  1.37D+00  9.47D-01  8.61D-01  1.28D+00
                    CP:  1.54D+00  1.45D+00  1.42D+00  1.67D+00  1.51D+00
                    CP:  1.18D+00
 E= -1028.81402493420     Delta-E=       -0.000000009258 Rises=F Damp=F
 DIIS: error= 1.26D-06 at cycle  12 NSaved=  12.
 NSaved=12 IEnMin=12 EnMin= -1028.81402493420     IErMin=12 ErrMin= 1.26D-06
 ErrMax= 1.26D-06  0.00D+00 EMaxC= 1.00D-01 BMatC= 4.86D-10 BMatP= 1.86D-09
 IDIUse=1 WtCom= 1.00D+00 WtEn= 0.00D+00
 Coeff-Com:  0.109D-03-0.213D-03-0.481D-03-0.765D-03 0.890D-03 0.742D-02
 Coeff-Com:  0.902D-02-0.147D-01-0.939D-01-0.127D+00 0.333D+00 0.887D+00
 Coeff:      0.109D-03-0.213D-03-0.481D-03-0.765D-03 0.890D-03 0.742D-02
 Coeff:      0.902D-02-0.147D-01-0.939D-01-0.127D+00 0.333D+00 0.887D+00
 Gap=     0.259 Goal=   None    Shift=    0.000
 RMSDP=2.95D-07 MaxDP=6.81D-06 DE=-9.26D-09 OVMax= 4.78D-05

 Cycle  13  Pass 1  IDiag  1:
 RMSU=  7.71D-08    CP:  9.89D-01  1.37D+00  9.47D-01  8.61D-01  1.28D+00
                    CP:  1.54D+00  1.46D+00  1.43D+00  1.74D+00  1.65D+00
                    CP:  1.48D+00  1.15D+00
 E= -1028.81402493604     Delta-E=       -0.000000001841 Rises=F Damp=F
 DIIS: error= 4.54D-07 at cycle  13 NSaved=  13.
 NSaved=13 IEnMin=13 EnMin= -1028.81402493604     IErMin=13 ErrMin= 4.54D-07
 ErrMax= 4.54D-07  0.00D+00 EMaxC= 1.00D-01 BMatC= 3.51D-11 BMatP= 4.86D-10
 IDIUse=1 WtCom= 1.00D+00 WtEn= 0.00D+00
 Coeff-Com: -0.683D-05 0.165D-04 0.735D-05-0.833D-04-0.243D-03 0.323D-03
 Coeff-Com:  0.336D-02 0.803D-02-0.913D-02-0.609D-01-0.526D-01 0.208D+00
 Coeff-Com:  0.904D+00
 Coeff:     -0.683D-05 0.165D-04 0.735D-05-0.833D-04-0.243D-03 0.323D-03
 Coeff:      0.336D-02 0.803D-02-0.913D-02-0.609D-01-0.526D-01 0.208D+00
 Coeff:      0.904D+00
 Gap=     0.259 Goal=   None    Shift=    0.000
 RMSDP=6.71D-08 MaxDP=1.71D-06 DE=-1.84D-09 OVMax= 1.00D-05

 Cycle  14  Pass 1  IDiag  1:
 RMSU=  2.61D-08    CP:  9.89D-01  1.37D+00  9.47D-01  8.61D-01  1.28D+00
                    CP:  1.54D+00  1.46D+00  1.43D+00  1.75D+00  1.68D+00
                    CP:  1.54D+00  1.31D+00  1.16D+00
 E= -1028.81402493616     Delta-E=       -0.000000000123 Rises=F Damp=F
 DIIS: error= 9.54D-08 at cycle  14 NSaved=  14.
 NSaved=14 IEnMin=14 EnMin= -1028.81402493616     IErMin=14 ErrMin= 9.54D-08
 ErrMax= 9.54D-08  0.00D+00 EMaxC= 1.00D-01 BMatC= 4.42D-12 BMatP= 3.51D-11
 IDIUse=1 WtCom= 1.00D+00 WtEn= 0.00D+00
 Coeff-Com: -0.112D-04 0.228D-04 0.437D-04 0.357D-04-0.140D-03-0.526D-03
 Coeff-Com:  0.311D-03 0.340D-02 0.489D-02-0.827D-02-0.411D-01-0.955D-02
 Coeff-Com:  0.284D+00 0.767D+00
 Coeff:     -0.112D-04 0.228D-04 0.437D-04 0.357D-04-0.140D-03-0.526D-03
 Coeff:      0.311D-03 0.340D-02 0.489D-02-0.827D-02-0.411D-01-0.955D-02
 Coeff:      0.284D+00 0.767D+00
 Gap=     0.259 Goal=   None    Shift=    0.000
 RMSDP=1.60D-08 MaxDP=4.08D-07 DE=-1.23D-10 OVMax= 1.70D-06

 Cycle  15  Pass 1  IDiag  1:
 RMSU=  1.01D-08    CP:  9.89D-01  1.37D+00  9.47D-01  8.61D-01  1.28D+00
                    CP:  1.54D+00  1.46D+00  1.43D+00  1.75D+00  1.68D+00
                    CP:  1.55D+00  1.35D+00  1.26D+00  1.07D+00
 E= -1028.81402493616     Delta-E=        0.000000000004 Rises=F Damp=F
 DIIS: error= 7.21D-08 at cycle  15 NSaved=  15.
 NSaved=15 IEnMin=14 EnMin= -1028.81402493616     IErMin=15 ErrMin= 7.21D-08
 ErrMax= 7.21D-08  0.00D+00 EMaxC= 1.00D-01 BMatC= 8.59D-13 BMatP= 4.42D-12
 IDIUse=1 WtCom= 1.00D+00 WtEn= 0.00D+00
 Coeff-Com: -0.277D-05 0.512D-05 0.152D-04 0.269D-04-0.127D-04-0.297D-03
 Coeff-Com: -0.524D-03-0.177D-03 0.377D-02 0.818D-02-0.609D-02-0.436D-01
 Coeff-Com: -0.535D-01 0.294D+00 0.799D+00
 Coeff:     -0.277D-05 0.512D-05 0.152D-04 0.269D-04-0.127D-04-0.297D-03
 Coeff:     -0.524D-03-0.177D-03 0.377D-02 0.818D-02-0.609D-02-0.436D-01
 Coeff:     -0.535D-01 0.294D+00 0.799D+00
 Gap=     0.259 Goal=   None    Shift=    0.000
 RMSDP=7.38D-09 MaxDP=1.84D-07 DE= 4.32D-12 OVMax= 8.67D-07

 Error on total polarization charges =  0.00840
 SCF Done:  E(RwB97XD) =  -1028.81402494     A.U. after   15 cycles
            NFock= 15  Conv=0.74D-08     -V/T= 2.0050
 KE= 1.023713006922D+03 PE=-4.609507110497D+03 EE= 1.458289374056D+03
 Leave Link  502 at Mon Jul 13 14:30:28 2020, MaxMem=  7784628224 cpu:             836.9 elap:              84.4
 (Enter /gpfs/loomis/apps/avx/software/Gaussian/16-C.01_AVX/g16/l801.exe)
 DoSCS=F DFT=T ScalE2(SS,OS)=  1.000000  1.000000
 ExpMin= 1.22D-01 ExpMax= 1.11D+05 ExpMxC= 1.07D+03 IAcc=3 IRadAn=         5 AccDes= 0.00D+00
 HarFok:  IExCor=  205 AccDes= 0.00D+00 IRadAn=         5 IDoV=-2 UseB2=F ITyADJ=14
 ICtDFT= 12500011 ScaDFX=  1.000000  1.000000  1.000000  1.000000
 Largest valence mixing into a core orbital is  9.51D-05
 Largest core mixing into a valence orbital is  3.02D-05
 Range of M.O.s used for correlation:    21   273
 NBasis=   273 NAE=    59 NBE=    59 NFC=    20 NFV=     0
 NROrb=    253 NOA=    39 NOB=    39 NVA=   214 NVB=   214

 **** Warning!!: The largest alpha MO coefficient is  0.10773610D+02

 Leave Link  801 at Mon Jul 13 14:30:29 2020, MaxMem=  7784628224 cpu:               2.8 elap:               0.3
 (Enter /gpfs/loomis/apps/avx/software/Gaussian/16-C.01_AVX/g16/l914.exe)
 RHF ground state
 Keep R1, R2, and R3 ints in memory in canonical form, NReq=4262515490.
 FoFCou: FMM=F IPFlag=           0 FMFlag=           0 FMFlg1=           0
         NFxFlg=           0 DoJE=F BraDBF=F KetDBF=F FulRan=T
         wScrn=  0.000000 ICntrl=       600 IOpCl=  0 I1Cent=           0 NGrid=           0
         NMat0=    1 NMatS0=  37401 NMatT0=    0 NMatD0=    1 NMtDS0=    0 NMtDT0=    0
 Symmetry not used in FoFCou.
 Two-electron integral symmetry not used.
 MDV=  7784628224 DFT=T DoStab=F Mixed=T DoRPA=T DoScal=F NonHer=T
 NEqPCM:  Using equilibrium solvation (IEInf=0, Eps=   2.2280, EpsInf=   2.1319)
 Making orbital integer symmetry assigments:
    12 initial guesses have been made.
 Convergence on wavefunction:    0.000001000000000
 Davidson Disk Diagonalization:  ConvIn= 1.00D-06 SkipCon=T Conv= 1.00D-06.
 Max sub-space:  2000 roots to seek:    12 dimension of matrix:        16692
 Iteration     1 Dimension    12 NMult     0 NNew     12
 CISAX will form    12 AO SS matrices at one time.
 NMat=    12 NSing=    12 JSym2X= 0.
 New state      3 was old state      5
 Excitation Energies [eV] at current iteration:
 Root      1 :     3.849701859976971
 Root      2 :     4.957261851620562
 Root      3 :     4.983222980648002
 Root      4 :     5.162724616707382
 Root      5 :     5.890059809949114
 Root      6 :     6.156599894268051
 Root      7 :     6.317650148386925
 Root      8 :     6.447903825894705
 Root      9 :     6.863806565587115
 Root     10 :     7.132474552329629
 Root     11 :     7.259577917365550
 Root     12 :     7.966950500486353
 Iteration     2 Dimension    18 NMult    12 NNew      6
 CISAX will form     6 AO SS matrices at one time.
 NMat=     6 NSing=     6 JSym2X= 0.
 Root      1 not converged, maximum delta is    0.043803065438253
 Root      2 not converged, maximum delta is    0.088136403683166
 Root      3 not converged, maximum delta is    0.061912349264838
 Excitation Energies [eV] at current iteration:
 Root      1 :     3.363208211925898   Change is   -0.486493648051074
 Root      2 :     4.420458367467511   Change is   -0.536803484153051
 Root      3 :     4.772524094826879   Change is   -0.210698885821123
 Iteration     3 Dimension    24 NMult    18 NNew      6
 CISAX will form     6 AO SS matrices at one time.
 NMat=     6 NSing=     6 JSym2X= 0.
 Root      1 not converged, maximum delta is    0.021544508084227
 Root      2 not converged, maximum delta is    0.022968351660176
 Root      3 not converged, maximum delta is    0.026604408146998
 Excitation Energies [eV] at current iteration:
 Root      1 :     3.328424646262672   Change is   -0.034783565663226
 Root      2 :     4.387390985816514   Change is   -0.033067381650997
 Root      3 :     4.756702953682855   Change is   -0.015821141144023
 Iteration     4 Dimension    30 NMult    24 NNew      6
 CISAX will form     6 AO SS matrices at one time.
 NMat=     6 NSing=     6 JSym2X= 0.
 Root      1 not converged, maximum delta is    0.008017756246203
 Root      2 not converged, maximum delta is    0.012099037492855
 Root      3 not converged, maximum delta is    0.008506796461771
 Excitation Energies [eV] at current iteration:
 Root      1 :     3.323565122255275   Change is   -0.004859524007397
 Root      2 :     4.381514764479298   Change is   -0.005876221337216
 Root      3 :     4.755272791562810   Change is   -0.001430162120046
 Iteration     5 Dimension    36 NMult    30 NNew      6
 CISAX will form     6 AO SS matrices at one time.
 NMat=     6 NSing=     6 JSym2X= 0.
 Root      1 not converged, maximum delta is    0.003107480515165
 Root      2 not converged, maximum delta is    0.003231721081747
 Root      3 not converged, maximum delta is    0.001784148231292
 Excitation Energies [eV] at current iteration:
 Root      1 :     3.323084784572373   Change is   -0.000480337682902
 Root      2 :     4.380878643125887   Change is   -0.000636121353411
 Root      3 :     4.755147260800919   Change is   -0.000125530761891
 Iteration     6 Dimension    42 NMult    36 NNew      6
 CISAX will form     6 AO SS matrices at one time.
 NMat=     6 NSing=     6 JSym2X= 0.
 Root      1 not converged, maximum delta is    0.000553994075197
 Root      2 not converged, maximum delta is    0.001557204928972
 Root      3 not converged, maximum delta is    0.000315177698778
 Excitation Energies [eV] at current iteration:
 Root      1 :     3.323033512172768   Change is   -0.000051272399606
 Root      2 :     4.380787417880316   Change is   -0.000091225245571
 Root      3 :     4.755136037097492   Change is   -0.000011223703426
 Iteration     7 Dimension    48 NMult    42 NNew      6
 CISAX will form     6 AO SS matrices at one time.
 NMat=     6 NSing=     6 JSym2X= 0.
 Root      1 not converged, maximum delta is    0.000200575524101
 Root      2 not converged, maximum delta is    0.001513879937287
 Root      3 not converged, maximum delta is    0.000092628877053
 Excitation Energies [eV] at current iteration:
 Root      1 :     3.323029760627630   Change is   -0.000003751545138
 Root      2 :     4.380769502310459   Change is   -0.000017915569857
 Root      3 :     4.755135354019952   Change is   -0.000000683077540
 Iteration     8 Dimension    54 NMult    48 NNew      6
 CISAX will form     6 AO SS matrices at one time.
 NMat=     6 NSing=     6 JSym2X= 0.
 Root      1 not converged, maximum delta is    0.000033182959018
 Root      2 not converged, maximum delta is    0.000526243573640
 Root      3 not converged, maximum delta is    0.000129813461309
 Excitation Energies [eV] at current iteration:
 Root      1 :     3.323029458993946   Change is   -0.000000301633684
 Root      2 :     4.380766820236327   Change is   -0.000002682074131
 Root      3 :     4.755135295316017   Change is   -0.000000058703935
 Iteration     9 Dimension    60 NMult    54 NNew      6
 CISAX will form     6 AO SS matrices at one time.
 NMat=     6 NSing=     6 JSym2X= 0.
 Root      1 not converged, maximum delta is    0.000010060546063
 Root      2 not converged, maximum delta is    0.000176869586773
 Root      3 not converged, maximum delta is    0.008837092940317
 Excitation Energies [eV] at current iteration:
 Root      1 :     3.323029441829377   Change is   -0.000000017164569
 Root      2 :     4.380766372071942   Change is   -0.000000448164386
 Root      3 :     4.755135005586862   Change is   -0.000000289729156
 Iteration    10 Dimension    66 NMult    60 NNew      6
 CISAX will form     6 AO SS matrices at one time.
 NMat=     6 NSing=     6 JSym2X= 0.
 Root      1 not converged, maximum delta is    0.000002157182042
 Root      2 not converged, maximum delta is    0.000038220141905
 No map to state      3
 Excitation Energies [eV] at current iteration:
 Root      1 :     3.323029440786590   Change is   -0.000000001042787
 Root      2 :     4.380766314599913   Change is   -0.000000057472030
 Root      3 :     4.731433507955132
 Iteration    11 Dimension    72 NMult    66 NNew      6
 CISAX will form     6 AO SS matrices at one time.
 NMat=     6 NSing=     6 JSym2X= 0.
 Root      1 has converged.
 Root      2 not converged, maximum delta is    0.000005004430721
 Root      3 not converged, maximum delta is    0.003993115681919
 Excitation Energies [eV] at current iteration:
 Root      1 :     3.323029440722443   Change is   -0.000000000064148
 Root      2 :     4.380766310453813   Change is   -0.000000004146099
 Root      3 :     4.729642013133772   Change is   -0.001791494821360
 Iteration    12 Dimension    76 NMult    72 NNew      4
 CISAX will form     4 AO SS matrices at one time.
 NMat=     4 NSing=     4 JSym2X= 0.
 Root      1 has converged.
 Root      2 has converged.
 Root      3 not converged, maximum delta is    0.000747406275451
 Excitation Energies [eV] at current iteration:
 Root      1 :     3.323029440721775   Change is   -0.000000000000668
 Root      2 :     4.380766310244201   Change is   -0.000000000209612
 Root      3 :     4.729527452983215   Change is   -0.000114560150556
 Iteration    13 Dimension    78 NMult    76 NNew      2
 CISAX will form     2 AO SS matrices at one time.
 NMat=     2 NSing=     2 JSym2X= 0.
 Root      1 has converged.
 Root      2 has converged.
 Root      3 not converged, maximum delta is    0.000505817547551
 Excitation Energies [eV] at current iteration:
 Root      1 :     3.323029440721700   Change is   -0.000000000000074
 Root      2 :     4.380766310237033   Change is   -0.000000000007168
 Root      3 :     4.729516095312924   Change is   -0.000011357670292
 Iteration    14 Dimension    80 NMult    78 NNew      2
 CISAX will form     2 AO SS matrices at one time.
 NMat=     2 NSing=     2 JSym2X= 0.
 Root      1 has converged.
 Root      2 has converged.
 Root      3 not converged, maximum delta is    0.000281238708016
 Excitation Energies [eV] at current iteration:
 Root      1 :     3.323029440721676   Change is   -0.000000000000025
 Root      2 :     4.380766310236170   Change is   -0.000000000000863
 Root      3 :     4.729514522254266   Change is   -0.000001573058658
 Iteration    15 Dimension    82 NMult    80 NNew      2
 CISAX will form     2 AO SS matrices at one time.
 NMat=     2 NSing=     2 JSym2X= 0.
 Root      1 has converged.
 Root      2 has converged.
 Root      3 not converged, maximum delta is    0.000120742798706
 Excitation Energies [eV] at current iteration:
 Root      1 :     3.323029440721750   Change is    0.000000000000074
 Root      2 :     4.380766310236115   Change is   -0.000000000000056
 Root      3 :     4.729514281412007   Change is   -0.000000240842259
 Iteration    16 Dimension    84 NMult    82 NNew      2
 CISAX will form     2 AO SS matrices at one time.
 NMat=     2 NSing=     2 JSym2X= 0.
 Root      1 has converged.
 Root      2 has converged.
 Root      3 not converged, maximum delta is    0.000034633036654
 Excitation Energies [eV] at current iteration:
 Root      1 :     3.323029440721601   Change is   -0.000000000000148
 Root      2 :     4.380766310235832   Change is   -0.000000000000282
 Root      3 :     4.729514253489173   Change is   -0.000000027922834
 Iteration    17 Dimension    86 NMult    84 NNew      2
 CISAX will form     2 AO SS matrices at one time.
 NMat=     2 NSing=     2 JSym2X= 0.
 Root      1 has converged.
 Root      2 has converged.
 Root      3 not converged, maximum delta is    0.000009504365877
 Excitation Energies [eV] at current iteration:
 Root      1 :     3.323029440721502   Change is   -0.000000000000099
 Root      2 :     4.380766310235439   Change is   -0.000000000000394
 Root      3 :     4.729514250166953   Change is   -0.000000003322220
 Iteration    18 Dimension    88 NMult    86 NNew      2
 CISAX will form     2 AO SS matrices at one time.
 NMat=     2 NSing=     2 JSym2X= 0.
 Root      1 has converged.
 Root      2 has converged.
 Root      3 not converged, maximum delta is    0.000001991397899
 Excitation Energies [eV] at current iteration:
 Root      1 :     3.323029440721453   Change is   -0.000000000000049
 Root      2 :     4.380766310235288   Change is   -0.000000000000150
 Root      3 :     4.729514249828008   Change is   -0.000000000338945
 Iteration    19 Dimension    90 NMult    88 NNew      2
 CISAX will form     2 AO SS matrices at one time.
 NMat=     2 NSing=     2 JSym2X= 0.
 Root      1 has converged.
 Root      2 has converged.
 Root      3 has converged.
 Excitation Energies [eV] at current iteration:
 Root      1 :     3.323029440721453   Change is    0.000000000000000
 Root      2 :     4.380766310235232   Change is   -0.000000000000056
 Root      3 :     4.729514249799258   Change is   -0.000000000028750
 Convergence achieved on expansion vectors.
 ***********************************************************************
 Excited states from <AA,BB:AA,BB> singles matrix:
 ***********************************************************************
 
 1PDM for each excited state written to RWF  633
 Ground to excited state transition densities written to RWF  633
 Ground to excited state transition electric dipole moments (Au):
       state          X           Y           Z        Dip. S.      Osc.
         1         1.3780     -2.1406     -0.0000      6.4812      0.5277
         2         1.6077     -0.7596     -0.0000      3.1617      0.3393
         3        -0.6726     -0.0584     -0.0000      0.4558      0.0528
 Ground to excited state transition velocity dipole moments (Au):
       state          X           Y           Z        Dip. S.      Osc.
         1        -0.1627      0.2618      0.0000      0.0950      0.5185
         2        -0.2539      0.1130      0.0000      0.0772      0.3198
         3         0.1157      0.0094      0.0000      0.0135      0.0517
 Ground to excited state transition magnetic dipole moments (Au):
       state          X           Y           Z
         1         0.0000      0.0000     -0.9022
         2         0.0000     -0.0000      1.1706
         3         0.0000     -0.0000     -0.0255
 Ground to excited state transition velocity quadrupole moments (Au):
       state          XX          YY          ZZ          XY          XZ          YZ
         1        -0.0426      0.5630     -0.0135     -0.2450     -0.0000      0.0000
         2         0.3272     -0.6539      0.0036      0.0611      0.0000     -0.0000
         3         0.3450     -0.0594     -0.0241     -0.2340      0.0000      0.0000
 <0|del|b> * <b|rxdel|0> + <0|del|b> * <b|delr+rdel|0>
 Rotatory Strengths (R) in cgs (10**-40 erg-esu-cm/Gauss)
       state          XX          YY          ZZ    R(velocity)    E-M Angle
         1         0.0127     -0.0158      0.0203      0.0057       90.00
         2        -0.0003      0.0026     -0.0076     -0.0017       90.00
         3        -0.0011      0.0103      0.0064      0.0052       90.00
 1/2[<0|r|b>*<b|rxdel|0> + (<0|rxdel|b>*<b|r|0>)*]
 Rotatory Strengths (R) in cgs (10**-40 erg-esu-cm/Gauss)
       state          XX          YY          ZZ     R(length)
         1        -0.0055      0.0424     -0.0203      0.0055
         2        -0.0046     -0.0042      0.0045     -0.0014
         3         0.0169     -0.0012     -0.0000      0.0052
  1/2[<0|del|b>*<b|r|0> + (<0|r|b>*<b|del|0>)*] (Au)
       state          X           Y           Z        Dip. S.   Osc.(frdel)
         1        -0.2242     -0.5604     -0.0000      0.7845      0.5230
         2        -0.4081     -0.0859     -0.0000      0.4940      0.3293
         3        -0.0778     -0.0005     -0.0000      0.0784      0.0522

 Excitation energies and oscillator strengths:
 
 Excited state symmetry could not be determined.
 Excited State   1:      Singlet-?Sym    3.3230 eV  373.11 nm  f=0.5277  <S**2>=0.000
      59 -> 60         0.69268
 This state for optimization and/or second-order correction.
 Total Energy, E(TD-HF/TD-DFT) =  -1028.69190585    
 Copying the excited state density for this state as the 1-particle RhoCI density.
 
 Excited state symmetry could not be determined.
 Excited State   2:      Singlet-?Sym    4.3808 eV  283.02 nm  f=0.3393  <S**2>=0.000
      57 -> 60         0.13907
      58 -> 60         0.66090
      59 -> 64        -0.10262
 
 Excited state symmetry could not be determined.
 Excited State   3:      Singlet-?Sym    4.7295 eV  262.15 nm  f=0.0528  <S**2>=0.000
      55 -> 61        -0.10995
      57 -> 60         0.57968
      57 -> 62        -0.15428
      58 -> 60        -0.14178
      58 -> 61        -0.19129
      59 -> 61        -0.23213
 SavETr:  write IOETrn=   770 NScale= 10 NData=  16 NLR=1 NState=    3 LETran=      64.
 The selected state is a singlet.
 CISGrd: IGrad=2 NXY=2 DFT=T
 CISAX will form     1 AO SS matrices at one time.
 NMat=     1 NSing=     1 JSym2X= 0.
 GePol: Maximum number of non-zero 1st derivatives   =     258
 Leave Link  914 at Mon Jul 13 14:34:42 2020, MaxMem=  7784628224 cpu:            2502.5 elap:             253.3
 (Enter /gpfs/loomis/apps/avx/software/Gaussian/16-C.01_AVX/g16/l1002.exe)
 Minotr:  Closed shell wavefunction.
          Computing CIS/TDA/TD derivatives.
          Using Z-Vector for PSCF gradient.
          Skipping F1 and S1 gradient terms here.
          IDoAtm=1111111111111111111111111
 NEqPCM:  Using equilibrium solvation (IEInf=0, Eps=   2.2280, EpsInf=   2.1319)
          Frozen-core window.
          Direct CPHF calculation.
          Differentiating once with respect to electric field.
                with respect to dipole field.
          Differentiating once with respect to nuclear coordinates.
          Requested convergence is 1.0D-10 RMS, and 1.0D-09 maximum.
          NewPWx=F KeepS1=T KeepF1=T KeepIn=T MapXYZ=F SortEE=F KeepMc=T.
 Keep R1 ints in memory in canonical form, NReq=1421356584.
 FoFCou: FMM=F IPFlag=           0 FMFlag=           0 FMFlg1=           0
         NFxFlg=           0 DoJE=F BraDBF=F KetDBF=F FulRan=T
         wScrn=  0.000000 ICntrl=       600 IOpCl=  0 I1Cent=           0 NGrid=           0
         NMat0=    1 NMatS0=  37401 NMatT0=    0 NMatD0=    1 NMtDS0=    0 NMtDT0=    0
 Symmetry not used in FoFCou.
 Two-electron integral symmetry not used.
          MDV=    7784628224 using IRadAn=       5.
          Solving linear equations separately, MaxMat=       0.
          There are     1 degrees of freedom in the 1st order CPHF.  IDoFFX=0 NUNeed=     1.
 LinEq1:  Iter=  0 NonCon=     1 RMS=5.25D-03 Max=2.56D-01 NDo=     1
 AX will form     1 AO Fock derivatives at one time.
 LinEq1:  Iter=  1 NonCon=     1 RMS=2.19D-03 Max=1.00D-01 NDo=     1
 LinEq1:  Iter=  2 NonCon=     1 RMS=1.35D-03 Max=4.35D-02 NDo=     1
 LinEq1:  Iter=  3 NonCon=     1 RMS=4.96D-04 Max=1.35D-02 NDo=     1
 LinEq1:  Iter=  4 NonCon=     1 RMS=2.69D-04 Max=9.94D-03 NDo=     1
 LinEq1:  Iter=  5 NonCon=     1 RMS=1.41D-04 Max=6.38D-03 NDo=     1
 LinEq1:  Iter=  6 NonCon=     1 RMS=6.51D-05 Max=2.69D-03 NDo=     1
 LinEq1:  Iter=  7 NonCon=     1 RMS=3.64D-05 Max=1.17D-03 NDo=     1
 LinEq1:  Iter=  8 NonCon=     1 RMS=1.53D-05 Max=4.97D-04 NDo=     1
 LinEq1:  Iter=  9 NonCon=     1 RMS=8.39D-06 Max=2.50D-04 NDo=     1
 LinEq1:  Iter= 10 NonCon=     1 RMS=3.20D-06 Max=8.53D-05 NDo=     1
 LinEq1:  Iter= 11 NonCon=     1 RMS=1.79D-06 Max=9.06D-05 NDo=     1
 LinEq1:  Iter= 12 NonCon=     1 RMS=8.21D-07 Max=2.13D-05 NDo=     1
 LinEq1:  Iter= 13 NonCon=     1 RMS=3.44D-07 Max=1.00D-05 NDo=     1
 LinEq1:  Iter= 14 NonCon=     1 RMS=1.47D-07 Max=3.51D-06 NDo=     1
 LinEq1:  Iter= 15 NonCon=     1 RMS=7.42D-08 Max=2.45D-06 NDo=     1
 LinEq1:  Iter= 16 NonCon=     1 RMS=3.15D-08 Max=9.50D-07 NDo=     1
 LinEq1:  Iter= 17 NonCon=     1 RMS=1.53D-08 Max=6.41D-07 NDo=     1
 LinEq1:  Iter= 18 NonCon=     1 RMS=5.59D-09 Max=1.65D-07 NDo=     1
 LinEq1:  Iter= 19 NonCon=     1 RMS=2.92D-09 Max=7.44D-08 NDo=     1
 LinEq1:  Iter= 20 NonCon=     1 RMS=1.33D-09 Max=4.21D-08 NDo=     1
 LinEq1:  Iter= 21 NonCon=     1 RMS=3.22D-10 Max=7.82D-09 NDo=     1
 LinEq1:  Iter= 22 NonCon=     1 RMS=1.24D-10 Max=2.75D-09 NDo=     1
 LinEq1:  Iter= 23 NonCon=     0 RMS=5.42D-11 Max=9.12D-10 NDo=     1
 Linear equations converged to 1.000D-10 1.000D-09 after    23 iterations.
 End of Minotr F.D. properties file   721 does not exist.
 End of Minotr F.D. properties file   722 does not exist.
 End of Minotr F.D. properties file   788 does not exist.
 Leave Link 1002 at Mon Jul 13 14:36:22 2020, MaxMem=  7784628224 cpu:             740.1 elap:              99.4
 (Enter /gpfs/loomis/apps/avx/software/Gaussian/16-C.01_AVX/g16/l601.exe)
 Copying SCF densities to generalized density rwf, IOpCl= 0 IROHF=0.

 **********************************************************************

            Population analysis using the SCF Density.

 **********************************************************************

 Alpha  occ. eigenvalues --  -89.09572 -19.25507 -14.48630 -10.40493 -10.37375
 Alpha  occ. eigenvalues --  -10.35969 -10.35279 -10.32587 -10.32041 -10.32002
 Alpha  occ. eigenvalues --  -10.31830 -10.31779 -10.31730 -10.31623 -10.29994
 Alpha  occ. eigenvalues --  -10.29694  -8.11560  -6.06414  -6.06064  -6.05609
 Alpha  occ. eigenvalues --   -1.14579  -1.09293  -0.97128  -0.95535  -0.92417
 Alpha  occ. eigenvalues --   -0.88907  -0.85499  -0.83918  -0.82311  -0.75888
 Alpha  occ. eigenvalues --   -0.71289  -0.70731  -0.68740  -0.68062  -0.63537
 Alpha  occ. eigenvalues --   -0.60784  -0.59166  -0.58060  -0.55539  -0.54482
 Alpha  occ. eigenvalues --   -0.54334  -0.53347  -0.52794  -0.51006  -0.49853
 Alpha  occ. eigenvalues --   -0.49754  -0.47164  -0.46276  -0.45588  -0.44930
 Alpha  occ. eigenvalues --   -0.44104  -0.42911  -0.42318  -0.40531  -0.36554
 Alpha  occ. eigenvalues --   -0.35645  -0.32608  -0.31223  -0.27626
 Alpha virt. eigenvalues --   -0.01757   0.04633   0.06680   0.07122   0.07862
 Alpha virt. eigenvalues --    0.10743   0.13989   0.15004   0.16321   0.17863
 Alpha virt. eigenvalues --    0.18742   0.20872   0.21589   0.22229   0.22564
 Alpha virt. eigenvalues --    0.23743   0.23930   0.24607   0.28246   0.29939
 Alpha virt. eigenvalues --    0.32194   0.33229   0.35247   0.35895   0.36965
 Alpha virt. eigenvalues --    0.38306   0.38751   0.40677   0.42958   0.43270
 Alpha virt. eigenvalues --    0.47192   0.47713   0.50241   0.51449   0.51620
 Alpha virt. eigenvalues --    0.52338   0.53237   0.53814   0.54606   0.55299
 Alpha virt. eigenvalues --    0.56052   0.56343   0.56666   0.57314   0.58345
 Alpha virt. eigenvalues --    0.58392   0.58457   0.58880   0.59528   0.60364
 Alpha virt. eigenvalues --    0.60486   0.60717   0.62155   0.62436   0.63080
 Alpha virt. eigenvalues --    0.64978   0.65471   0.66743   0.67597   0.68988
 Alpha virt. eigenvalues --    0.70343   0.70501   0.72103   0.72580   0.72788
 Alpha virt. eigenvalues --    0.72976   0.74609   0.75243   0.76126   0.77785
 Alpha virt. eigenvalues --    0.79106   0.79147   0.80112   0.81791   0.82138
 Alpha virt. eigenvalues --    0.83396   0.88885   0.89247   0.91042   0.93300
 Alpha virt. eigenvalues --    0.94747   0.95007   0.96193   0.96329   0.97080
 Alpha virt. eigenvalues --    0.98417   0.98933   1.00191   1.00272   1.01689
 Alpha virt. eigenvalues --    1.02582   1.05304   1.06298   1.07280   1.07518
 Alpha virt. eigenvalues --    1.08245   1.08843   1.10032   1.11072   1.11842
 Alpha virt. eigenvalues --    1.12329   1.12614   1.13078   1.15070   1.15377
 Alpha virt. eigenvalues --    1.15955   1.19508   1.20141   1.22771   1.23034
 Alpha virt. eigenvalues --    1.25943   1.28472   1.33478   1.34420   1.34774
 Alpha virt. eigenvalues --    1.34859   1.36900   1.38361   1.41219   1.47214
 Alpha virt. eigenvalues --    1.49006   1.49158   1.50529   1.54185   1.55096
 Alpha virt. eigenvalues --    1.56509   1.56658   1.57184   1.58548   1.58576
 Alpha virt. eigenvalues --    1.59325   1.60231   1.64109   1.66669   1.66686
 Alpha virt. eigenvalues --    1.68948   1.69271   1.69761   1.70315   1.71194
 Alpha virt. eigenvalues --    1.72081   1.72576   1.73392   1.73520   1.75435
 Alpha virt. eigenvalues --    1.76887   1.79102   1.80338   1.81146   1.82940
 Alpha virt. eigenvalues --    1.83300   1.83691   1.84572   1.85128   1.85188
 Alpha virt. eigenvalues --    1.87438   1.88553   1.88699   1.88965   1.92208
 Alpha virt. eigenvalues --    1.92533   1.92871   1.93529   1.95116   1.95705
 Alpha virt. eigenvalues --    1.98533   2.00354   2.01898   2.02640   2.03953
 Alpha virt. eigenvalues --    2.04854   2.07964   2.09302   2.11079   2.13509
 Alpha virt. eigenvalues --    2.14754   2.17219   2.18008   2.20822   2.24220
 Alpha virt. eigenvalues --    2.26818   2.29830   2.31523   2.38628   2.40404
 Alpha virt. eigenvalues --    2.41241   2.41355   2.43384   2.45318   2.47255
 Alpha virt. eigenvalues --    2.48306   2.50760   2.52410   2.53265   2.62205
 Alpha virt. eigenvalues --    2.62829   2.71796   2.73649   2.75150   2.80216
 Alpha virt. eigenvalues --    2.81829   2.84231   2.85648   2.90094   2.93092
 Alpha virt. eigenvalues --    2.93618   3.03435   3.09471   3.19248   3.37760
 Alpha virt. eigenvalues --    3.46866   3.57023   3.63471   3.88696
          Condensed to atoms (all electrons):
               1          2          3          4          5          6
     1  C    4.729183   0.478909   0.005287  -0.051540  -0.013590   0.522727
     2  C    0.478909   5.311597   0.338041  -0.043132  -0.066244  -0.009660
     3  C    0.005287   0.338041   4.782371   0.502595  -0.004721  -0.063729
     4  C   -0.051540  -0.043132   0.502595   4.770770   0.523713  -0.013811
     5  C   -0.013590  -0.066244  -0.004721   0.523713   4.727514   0.494291
     6  C    0.522727  -0.009660  -0.063729  -0.013811   0.494291   4.739146
     7  H    0.402483  -0.038829   0.008613  -0.000533   0.008139  -0.039258
     8  H   -0.000741   0.011417  -0.029851   0.393620  -0.042865   0.007705
     9  H    0.008831  -0.000551   0.008542  -0.038708   0.404912  -0.045040
    10  H   -0.042220   0.009580  -0.000518   0.008606  -0.043325   0.406486
    11  N    0.006066  -0.054461   0.426170  -0.039907   0.003020   0.000143
    12  S   -0.065902   0.337992  -0.110789   0.006079   0.000256   0.003716
    13  C   -0.000186   0.002867   0.008949  -0.000669   0.000009   0.000002
    14  C   -0.000006   0.000101   0.000188   0.000006  -0.000000  -0.000000
    15  C    0.000003  -0.000344   0.000627   0.000060  -0.000000   0.000000
    16  C    0.000000  -0.000003   0.000004  -0.000000   0.000000   0.000000
    17  H   -0.000005   0.000094   0.000002  -0.000000   0.000000   0.000000
    18  C    0.000000   0.000006  -0.000021  -0.000000  -0.000000  -0.000000
    19  C   -0.000000   0.000000   0.000001   0.000000   0.000000   0.000000
    20  H   -0.000000  -0.000000  -0.000000   0.000000   0.000000  -0.000000
    21  H   -0.000000  -0.000000   0.000001  -0.000000   0.000000   0.000000
    22  H    0.000000  -0.000000  -0.000000  -0.000000   0.000000  -0.000000
    23  C    0.003872  -0.050555  -0.117938   0.000802   0.000252  -0.000173
    24  O    0.000002  -0.000076  -0.001704  -0.000074  -0.000001  -0.000000
    25  H   -0.000026   0.004314  -0.013997  -0.001597  -0.000033   0.000009
               7          8          9         10         11         12
     1  C    0.402483  -0.000741   0.008831  -0.042220   0.006066  -0.065902
     2  C   -0.038829   0.011417  -0.000551   0.009580  -0.054461   0.337992
     3  C    0.008613  -0.029851   0.008542  -0.000518   0.426170  -0.110789
     4  C   -0.000533   0.393620  -0.038708   0.008606  -0.039907   0.006079
     5  C    0.008139  -0.042865   0.404912  -0.043325   0.003020   0.000256
     6  C   -0.039258   0.007705  -0.045040   0.406486   0.000143   0.003716
     7  H    0.657847   0.000033  -0.000150  -0.011800  -0.000107  -0.007121
     8  H    0.000033   0.652344  -0.012332  -0.000122  -0.002375  -0.000193
     9  H   -0.000150  -0.012332   0.664831  -0.012324  -0.000109   0.000022
    10  H   -0.011800  -0.000122  -0.012324   0.663119   0.000002  -0.000150
    11  N   -0.000107  -0.002375  -0.000109   0.000002   6.455803  -0.064841
    12  S   -0.007121  -0.000193   0.000022  -0.000150  -0.064841  15.457152
    13  C    0.000005   0.000044  -0.000000  -0.000000  -0.020190  -0.062367
    14  C    0.000001   0.000001   0.000000  -0.000000   0.003252  -0.007712
    15  C   -0.000000  -0.000015   0.000000   0.000000  -0.012196   0.004134
    16  C    0.000000  -0.000000  -0.000000   0.000000  -0.000091   0.000019
    17  H    0.000001   0.000000  -0.000000  -0.000000   0.000230   0.007241
    18  C   -0.000000  -0.000000  -0.000000  -0.000000  -0.000613  -0.000140
    19  C    0.000000   0.000000  -0.000000  -0.000000   0.000050   0.000023
    20  H    0.000000  -0.000000   0.000000   0.000000   0.000001   0.000002
    21  H   -0.000000   0.000000  -0.000000   0.000000   0.000022   0.000004
    22  H    0.000000  -0.000000  -0.000000  -0.000000  -0.000000  -0.000000
    23  C    0.000118  -0.000821   0.000007   0.000004   0.529739   0.322846
    24  O   -0.000000  -0.000214   0.000000  -0.000000  -0.082428  -0.000324
    25  H    0.000002   0.001179  -0.000006  -0.000000   0.176312   0.002980
              13         14         15         16         17         18
     1  C   -0.000186  -0.000006   0.000003   0.000000  -0.000005   0.000000
     2  C    0.002867   0.000101  -0.000344  -0.000003   0.000094   0.000006
     3  C    0.008949   0.000188   0.000627   0.000004   0.000002  -0.000021
     4  C   -0.000669   0.000006   0.000060  -0.000000  -0.000000  -0.000000
     5  C    0.000009  -0.000000  -0.000000   0.000000   0.000000  -0.000000
     6  C    0.000002  -0.000000   0.000000   0.000000   0.000000  -0.000000
     7  H    0.000005   0.000001  -0.000000   0.000000   0.000001  -0.000000
     8  H    0.000044   0.000001  -0.000015  -0.000000   0.000000  -0.000000
     9  H   -0.000000   0.000000   0.000000  -0.000000  -0.000000  -0.000000
    10  H   -0.000000  -0.000000   0.000000   0.000000  -0.000000  -0.000000
    11  N   -0.020190   0.003252  -0.012196  -0.000091   0.000230  -0.000613
    12  S   -0.062367  -0.007712   0.004134   0.000019   0.007241  -0.000140
    13  C    5.335592   0.469889   0.257449  -0.007567  -0.038985  -0.042874
    14  C    0.469889   4.812681   0.000956   0.532499   0.399726  -0.055788
    15  C    0.257449   0.000956   4.762168  -0.059465   0.007128   0.499068
    16  C   -0.007567   0.532499  -0.059465   4.750847  -0.033784  -0.019234
[...]
 -0.01148505,-0.00601721,0.00000007,-0.01343582,0.02119310,-0.00000001,
 0.01272583,-0.00291806,-0.00000004,0.00031965,0.00974534,0.,-0.0039190
 1,-0.00355201,0.,0.00007082,0.00024831,0.00000001,-0.00013528,-0.00017
 063,0.,-0.00016450,0.00016251,0.,-0.00008052,-0.00004091,-0.00000002,0
 .01778025,-0.02121548,-0.00000030,0.00265955,-0.00583983,-0.00000001,0
 .05670354,0.02657415,0.00000052,0.04839078,-0.23953225,-0.00000362,0.0
 0212245,-0.00585613,0.00000030,0.01802041,0.62136645,-0.00000001,-0.00
 000005,-0.00004636,-0.00000025,-0.00000012,-0.00009401,-0.00000026,0.0
 0000043,-0.00016563,0.00000026,-0.00000006,-0.00022224,0.,0.00000020,-
 0.00002824,-0.00000008,-0.00000007,0.00001555,0.,0.,-0.00002897,0.,0.,
 -0.00002414,0.,0.,0.00001226,0.,0.,0.00004788,0.00000037,-0.00000045,0
 .00215514,0.00000006,-0.00000015,-0.00003329,0.00000119,0.00000042,0.0
 0221805,0.00000106,-0.00000368,-0.05226314,0.00000003,0.00000001,-0.00
 446940,-0.00000095,0.00000897,0.13112747,0.00024372,-0.00002877,0.,-0.
 00081410,0.00015958,0.,0.00030010,0.00002012,0.,0.00008484,0.00008012,
 0.,0.00007501,0.00010182,0.,-0.00009065,-0.00010034,0.,-0.00001621,0.0
 0000005,0.,0.00002850,0.00000034,0.,0.00000533,-0.00000066,0.,0.000029
 45,-0.00000583,0.,0.00036896,0.00054587,0.00000001,-0.00098520,0.00151
 569,0.,-0.00552068,-0.02920111,-0.00000055,-0.09452102,-0.09648696,-0.
 00000168,-0.00502954,0.00293459,0.00000009,0.01075193,0.01987633,0.000
 00037,0.09713153,0.00003709,-0.00005214,0.,-0.00029960,0.00031899,0.,0
 .00010859,0.00034492,0.,0.00015367,0.00000625,0.,0.00002527,0.00020093
 ,0.,-0.00014960,-0.00009989,0.,-0.00000905,0.00001657,0.,0.00001106,-0
 .00000970,0.,-0.00000543,0.00000239,0.,-0.00000233,0.00000328,0.,0.000
 31124,0.00034609,0.00000005,0.00023207,-0.00089269,-0.00000001,0.00176
 566,-0.00150540,-0.00000011,-0.09582843,-0.30674699,-0.00000519,0.0006
 2464,0.00175838,-0.00000011,-0.01158591,-0.01787103,-0.00000037,0.1010
 0725,0.32488346,0.,0.,-0.00004155,0.00000001,0.00000001,-0.00034937,0.
 00000002,-0.00000002,0.00021362,0.,0.,0.00009838,0.,0.,0.00000484,0.,0
 .,0.00002115,0.,0.,0.00000507,0.,0.,0.00001422,0.,0.,-0.00000073,0.,0.
 ,-0.00000622,0.,0.00000007,-0.00155837,-0.00000003,0.00000003,0.000551
 55,0.00000003,-0.00000004,0.00387921,-0.00000165,-0.00000528,-0.031748
 55,0.00000007,-0.00000011,0.00744558,-0.00000026,-0.00000039,0.0024660
 2,0.00000178,0.00000573,0.02071508,-0.00186256,0.00094279,0.00000007,-
 0.00295673,-0.00343797,0.,-0.00524001,0.01180875,-0.00000006,0.0056251
 4,-0.00112686,0.,-0.00025342,0.00228156,0.,0.00131534,-0.00131061,0.,-
 0.00011790,0.00010209,0.,0.00007362,-0.00002348,0.,0.00008660,0.000014
 52,0.,0.00007877,-0.00005217,-0.00000002,0.01348796,0.00278814,0.00000
 039,-0.00082952,-0.00373649,0.00000006,0.01989993,0.02113734,0.0000005
 4,-0.02383543,0.02349798,0.00000040,-0.16791338,0.07722261,0.00000163,
 -0.01326911,-0.06341665,-0.00000122,-0.00056038,-0.00003400,0.00000002
 ,0.71441751,0.00045188,-0.00022400,0.,-0.00158226,-0.00136051,0.,-0.00
 043443,0.00191488,0.00000002,0.00035246,-0.00007304,0.,0.00024342,0.00
 066096,0.,-0.00061830,-0.00042841,0.,-0.00000361,0.00004711,0.,-0.0000
 5309,-0.00002267,0.,-0.00001734,-0.00000251,0.,0.00001746,0.00000027,0
 .,0.00393064,-0.00102602,-0.00000003,0.00139762,-0.00274245,-0.0000001
 0,0.02001653,-0.03748790,-0.00000075,-0.00177426,0.00029472,0.00000002
 ,0.10436099,-0.25461989,-0.00000399,-0.03327209,-0.01156575,-0.0000002
 2,-0.00025217,0.00059819,0.00000002,0.04256570,0.71548749,0.00000003,0
 .,0.00011118,0.00000003,0.00000005,0.00080785,0.00000014,-0.00000012,0
 .00191567,-0.00000007,0.,-0.00039736,0.00000001,-0.00000003,-0.0000548
 3,-0.00000002,0.00000003,-0.00010232,0.,0.,0.00009882,0.,0.,0.00008598
 ,0.,0.,0.00003672,0.,0.,-0.00006243,-0.00000001,0.00000039,-0.00620104
 ,0.,-0.00000009,0.00068423,0.00000040,-0.00000096,0.01176985,-0.000000
 15,0.00000015,-0.00237585,0.00000208,-0.00000408,-0.06552308,-0.000000
 59,-0.00000034,0.00526768,-0.00000001,0.00000003,-0.00094720,0.0000005
 7,0.00001240,0.10986046,0.00203193,0.00014091,-0.00000008,0.00699778,0
 .00607377,-0.00000005,0.01135439,-0.01976441,0.00000002,-0.01017587,0.
 00227341,0.00000002,0.00016535,-0.00602897,0.,0.00037424,0.00288671,0.
 ,0.00005802,-0.00013336,-0.00000001,0.00003684,0.00008469,0.,-0.000043
 68,-0.00005699,0.,-0.00002987,0.00007193,0.00000002,-0.02151217,0.0124
 0236,0.00000009,0.00098256,0.00505286,-0.00000004,-0.01851552,-0.02103
 573,-0.00000051,0.05874793,-0.00650657,-0.00000021,-0.04393181,0.02343
 583,0.00000012,-0.14440605,-0.01482378,0.00000006,-0.00243176,0.004625
 74,0.00000007,-0.35971394,-0.06122350,-0.00000053,0.70113741,0.0002328
 3,0.00037014,-0.00000002,0.00046928,0.00003002,0.00000003,0.00206811,-
 0.00081118,0.00000009,-0.00151250,0.00037489,0.,0.00005860,-0.00092188
 ,-0.00000001,0.00033131,-0.00012058,0.,-0.00002433,0.00000013,0.,0.000
 00390,-0.00002201,0.,0.00002749,-0.00003759,0.,0.00001764,0.00002153,0
 .,0.00183328,0.00505312,-0.00000011,-0.00125915,-0.00022527,-0.0000000
 5,-0.01916789,-0.01462020,-0.00000019,0.03431418,-0.05943591,-0.000001
 27,0.01774442,0.02607118,0.00000023,-0.09285946,-0.29259590,-0.0000040
 8,0.00340657,-0.00103092,-0.00000013,-0.02122735,-0.12255965,-0.000001
 49,-0.04677793,0.68837326,0.,0.,0.00017723,0.,-0.00000002,-0.00038615,
 0.,0.00000004,-0.00105047,0.,0.,0.00009358,0.,0.,0.00008976,0.00000001
 ,-0.00000001,0.00000526,0.,0.,-0.00003994,0.,0.,-0.00011046,0.,0.,-0.0
 0000198,0.,0.,0.00000165,0.00000007,0.,0.00162206,-0.00000001,0.,0.000
 37824,-0.00000035,-0.00000026,-0.00247208,0.00000057,-0.00000123,0.008
 72554,0.00000035,0.00000060,0.00226034,-0.00000150,-0.00000433,-0.0591
 9907,0.00000007,-0.00000011,0.00476923,0.00000024,-0.00000144,-0.04876
 339,-0.00000215,0.00001111,0.11142125,0.00005811,-0.00009000,0.,-0.000
 10799,0.00009487,0.,-0.00000055,-0.00007370,0.,0.00000570,0.00002238,0
 .,0.00001476,0.00009262,0.,-0.00014322,-0.00000094,0.,0.00000647,0.000
 00850,0.,-0.00000328,-0.00000620,0.,-0.00001257,0.00000657,0.,-0.00000
 873,0.00000511,0.,-0.00017516,0.00041855,0.,0.00006085,-0.00005498,0.,
 0.00014879,0.00336699,0.00000008,-0.01421695,-0.00726544,-0.00000009,0
 .00055531,0.00023207,0.,-0.33785175,-0.05176150,-0.00000034,0.00075304
 ,0.00006212,-0.00000001,0.00151242,-0.00172237,-0.00000003,-0.00545619
 ,0.00204347,0.00000006,0.35528768,-0.00000369,-0.00000107,0.,-0.000091
 67,-0.00012075,0.,-0.00001585,0.00027782,0.,0.00010762,-0.00006687,0.,
 0.00001584,0.00007820,0.,-0.00001585,-0.00003940,0.,-0.00000009,-0.000
 00001,0.,-0.00000042,-0.00000019,0.,0.00000212,-0.00000288,0.,0.000001
 96,-0.00000160,0.,0.00047727,-0.00039327,0.00000001,0.00002861,-0.0000
 1388,0.,0.00352747,-0.00388768,-0.00000019,0.02339505,0.00821079,-0.00
 000001,0.00049166,-0.00112611,0.,-0.05215144,-0.06919417,-0.00000047,-
 0.00021566,0.00087790,0.00000008,-0.00094120,-0.00539215,-0.00000020,-
 0.02918120,0.00042086,-0.00000005,0.05531326,0.06814828,0.,0.,-0.00002
 858,0.,0.,0.00004136,0.,0.,0.00051935,0.,0.,0.00012501,0.,0.,-0.000069
 61,0.,0.,0.00001448,0.,0.,0.00000836,0.,0.,0.00003595,0.,0.,-0.0000262
 0,0.,0.,-0.00000118,0.,-0.00000001,-0.00069049,0.,0.,-0.00011437,0.000
 00004,-0.00000016,0.00598561,0.00000049,-0.00000001,0.00691510,0.,-0.0
 0000001,-0.00120741,-0.00000032,-0.00000044,-0.03832721,-0.00000001,0.
 00000008,-0.00338046,0.00000001,-0.00000018,0.00515303,-0.00000052,-0.
 00000015,0.00657034,0.00000034,0.00000072,0.02287620,-0.00010389,0.000
 03031,0.,0.00009680,0.00005718,0.,-0.00013451,0.00005676,0.,0.00004461
 ,-0.00000063,0.,-0.00002375,-0.00002837,0.,0.00007922,0.00000988,0.,0.
 00000098,-0.00000584,0.,-0.00000433,0.00000206,0.,0.00000344,-0.000000
 52,0.,-0.00000242,-0.00000179,0.,0.00024572,-0.00045153,-0.00000002,-0
 .00028980,0.00014769,0.,-0.00374077,0.00304647,0.00000005,0.00026778,0
 .00012183,0.,0.00921228,0.02072061,0.00000046,-0.00583042,0.00070434,0
 .00000002,0.00012041,-0.00009277,0.,-0.09321231,-0.09771015,-0.0000020
 6,-0.00332599,-0.02854964,-0.00000060,-0.00036687,-0.00141299,-0.00000
 002,0.09297158,0.00007573,0.00002800,0.,-0.00011080,-0.00004063,0.,0.0
 0012673,0.00001565,0.,-0.00001817,-0.00000578,0.,0.00000029,-0.0000300
 9,0.,0.00002199,-0.00002009,0.,-0.00000610,0.00000239,0.,0.00000895,0.
 00000217,0.,0.00000673,-0.00000215,0.,0.00000857,-0.00000186,0.,-0.000
 31472,0.00046654,0.00000002,0.00025207,-0.00014907,0.,0.00395514,-0.00
 139873,-0.00000010,0.00013579,0.00028597,0.00000002,-0.01268228,-0.017
 90606,-0.00000049,-0.00031388,0.00129591,-0.00000013,-0.00008092,-0.00
 006871,0.,-0.09532825,-0.31235279,-0.00000585,0.00212500,0.00046968,-0
 .00000011,0.00008534,-0.00008661,0.00000001,0.10368551,0.32758779,0.,0
 .,-0.00034007,-0.00000003,-0.00000001,-0.00013239,-0.00000003,0.000000
 05,0.00028495,0.00000003,0.,0.00001129,0.,0.00000002,-0.00005636,0.,0.
 ,0.00004643,0.,0.,-0.00001000,0.,0.,0.00004719,0.,0.,-0.00000535,0.,0.
 ,0.00006411,0.00000005,-0.00000004,0.00009550,0.,-0.00000002,-0.000268
 42,0.00000012,-0.00000009,0.00370864,-0.00000002,0.00000003,-0.0004922
 5,-0.00000041,-0.00000047,0.00345022,0.00000003,-0.00000015,0.00661091
 ,0.,0.,-0.00044448,-0.00000205,-0.00000603,-0.03224903,0.00000016,0.00
 000004,0.00416968,0.,0.,-0.00048466,0.00000218,0.00000646,0.02206500,0
 .00003686,-0.00004522,0.,-0.00015708,0.00001698,0.,0.00006859,0.000178
 25,0.,0.00008087,-0.00001871,0.,0.00001710,0.00012063,0.,-0.00009989,-
 0.00004419,0.,0.00000087,0.00000828,0.,0.,-0.00000666,0.,-0.00000780,0
 .00000349,0.,-0.00000405,0.00000312,0.,0.00031767,0.00051475,0.0000000
 3,-0.00002363,0.00001147,0.,0.00016337,-0.00070468,-0.00000002,-0.0006
 5861,-0.00242226,-0.00000003,-0.00336275,-0.00323907,-0.00000003,0.010
 02973,-0.01097515,-0.00000022,0.00035402,-0.00046813,0.,-0.01354452,0.
 02485215,0.00000052,-0.18372728,0.14472373,0.00000312,0.00065419,0.000
 36894,0.,0.00111098,-0.00024193,-0.00000001,0.19097877,0.00003432,0.00
 008361,0.,0.00035136,0.00026850,0.,0.00047601,-0.00080803,0.,-0.000430
 54,0.00010748,0.,-0.00001160,-0.00034747,0.,0.00014801,0.00013214,0.,-
 0.00000586,-0.00001071,0.,0.00000911,0.00000939,0.,0.00000894,-0.00000
 581,0.,0.00000712,-0.00000126,0.,-0.00085607,0.00050678,0.,-0.00007054
 ,0.00026366,0.,-0.00132926,0.00029868,0.00000003,-0.00245384,-0.004032
 86,-0.00000016,-0.00210067,-0.00017214,-0.00000013,0.02144075,-0.01527
 634,-0.00000038,0.00097922,-0.00098351,-0.00000004,-0.00680733,0.00819
 013,0.00000012,0.14383731,-0.22286366,-0.00000400,-0.00009595,0.000969
 82,0.00000008,0.00030888,0.00058651,0.00000008,-0.15371251,0.23289196,
 0.,0.,0.00003067,0.00000002,0.,0.00003823,0.,-0.00000002,-0.00014462,-
 0.00000001,0.,0.00003381,0.,-0.00000001,0.00000938,0.,0.,-0.00000114,0
 .,0.,0.00000021,0.,0.,0.00000935,0.,0.,-0.00000081,0.,0.,-0.00001692,-
 0.00000003,-0.00000001,0.00045631,0.,0.00000002,-0.00021097,-0.0000000
 3,0.00000002,-0.00143140,0.00000002,-0.00000017,0.00441459,-0.00000006
 ,-0.00000013,0.00695038,0.00000040,-0.00000024,0.00236999,0.00000002,-
 0.00000004,0.00097215,-0.00000006,0.00000002,0.00390373,0.00000305,-0.
 00000403,-0.03154809,-0.00000001,0.00000008,-0.00315267,0.,0.00000011,
 -0.00389986,-0.00000334,0.00000438,0.02194975,-0.00478477,-0.00665369,
 0.,-0.01433269,0.01487151,0.00000013,-0.08556526,0.05172064,0.00000052
 ,0.01936058,-0.00461742,-0.00000003,-0.00077883,0.01331168,-0.00000001
 ,-0.00762079,-0.00388303,0.,0.00037278,-0.00044081,0.,-0.00055655,-0.0
 0022836,0.,-0.00011346,0.00018363,0.,-0.00066362,-0.00010382,0.,-0.320
 32285,-0.06078495,0.00000062,-0.04618237,-0.04233322,-0.00000004,-0.20
 185302,0.12070682,0.00000293,-0.04506364,0.03938810,0.00000094,0.02207
 317,0.00957709,0.00000019,-0.00007016,-0.01724107,-0.00000028,0.000309
 49,-0.00002053,-0.00000004,-0.00658166,-0.01119530,-0.00000036,0.00823
 084,-0.00007191,0.00000004,-0.00069284,0.00053481,0.,0.00090172,-0.000
 89925,-0.00000006,-0.00032204,0.00061641,0.00000002,0.68875419,-0.0028
 2984,0.00360169,-0.00000007,0.03926819,-0.02125584,-0.00000006,0.02647
 371,-0.00278550,-0.00000011,-0.00162114,-0.00579819,0.00000005,-0.0011
 6812,-0.00520728,0.,0.00547437,0.00094822,0.,-0.00008195,-0.00075384,0
 .,-0.00017684,0.00029239,0.,0.00046376,-0.00053883,0.,-0.00010080,0.00
 000264,0.00000001,-0.05880125,-0.10239500,-0.00000034,-0.01801836,-0.1
 5048517,-0.00000017,0.09871346,-0.22061665,-0.00000345,0.01900908,0.01
 134684,0.00000002,0.02662004,-0.05032754,-0.00000118,-0.00540271,0.000
 14579,-0.00000006,-0.00152459,0.00054849,0.00000007,-0.01530451,0.0030
 5922,0.00000011,0.00711959,0.00445781,0.00000011,-0.00063382,0.0011276
 4,0.00000002,0.00037302,-0.00055624,-0.00000007,0.00029887,0.00002525,
 0.,-0.09850365,0.54518997,-0.00000002,0.,0.00163709,0.00000008,-0.0000
 0005,-0.00118275,0.00000012,0.00000003,0.00504731,-0.00000003,0.000000
 02,0.00403439,-0.00000001,-0.00000011,0.00105008,0.00000011,0.00000003
 ,0.00088137,0.,0.,-0.00043033,0.,0.,-0.00072172,0.,0.,-0.00066269,0.,0
 .,-0.00026061,0.00000193,-0.00000017,-0.03716965,0.00000010,-0.0000006
 9,-0.01954364,0.00000196,-0.00000280,-0.03891951,0.00000033,0.00000011
 ,0.00874477,0.00000062,-0.00000133,0.00615267,0.00000006,-0.00000036,0
 .00277828,-0.00000002,0.00000004,-0.00146961,-0.00000067,0.00000013,-0
 .00006067,0.00000050,0.00000021,-0.00098685,0.,0.00000003,-0.00092947,
 0.,-0.00000004,0.00165096,0.00000001,0.,0.00010037,-0.00000473,0.00000
 520,0.06925802,0.00101258,0.00194648,-0.00000002,0.00377730,0.00770249
 ,-0.00000012,0.01716897,-0.00862665,0.00000009,-0.00509083,0.00125068,
 0.00000004,-0.00071413,-0.00483771,0.,0.00253289,0.00200049,0.,-0.0002
 5776,0.00018903,0.,0.00036115,0.00004272,0.,0.00001091,0.00004696,0.,0
 .00003383,0.00006538,0.,-0.00902863,0.06528335,0.00000196,0.00027534,0
 .00652882,0.00000011,-0.05004758,-0.01834838,-0.00000059,0.02385032,-0
 .01092155,-0.00000035,-0.42820985,-0.07915571,-0.00000280,-0.01237705,
 0.01465151,0.00000031,-0.00112525,-0.00077489,-0.00000002,-0.06788359,
 0.01452820,-0.00000004,0.00107284,0.00112513,0.00000009,-0.00009951,-0
 .00024828,0.,0.00221425,-0.00072598,0.00000004,-0.00202365,-0.00039331
 ,0.,-0.00362498,-0.00414819,-0.00000005,0.55370389,-0.00146008,-0.0015
 3983,0.00000002,-0.00116127,-0.00794400,0.00000012,-0.02096407,0.00241
 367,-0.00000037,0.00360413,-0.00136501,-0.00000003,0.00033305,0.003219
 62,0.,-0.00099144,-0.00178626,0.,0.00026531,-0.00043958,0.,0.00001418,
 0.00018789,0.,0.00020110,-0.00013426,0.,0.00005575,-0.00011377,0.,0.03
 741075,-0.09663694,-0.00000304,0.00055896,-0.00360222,0.,-0.03282027,-
 0.01187693,-0.00000067,-0.01052157,-0.00580735,-0.00000011,-0.06664295
 ,-0.12133747,-0.00000170,0.00184824,-0.00837326,-0.00000018,-0.0018645
 9,-0.00002691,0.00000005,0.04325012,0.01843434,0.00000019,0.00391069,-
 0.00344749,-0.00000020,-0.00001976,0.00043388,0.00000001,-0.00179322,0
 .00243507,0.00000016,0.00182283,0.00064662,0.00000003,0.00917204,0.012
 80563,0.00000030,0.05783153,0.25275178,-0.00000007,-0.00000006,0.00041
 372,-0.00000003,-0.00000031,-0.00093243,-0.00000071,0.00000008,-0.0005
 7545,0.00000013,-0.00000003,0.00040244,0.,0.00000010,0.00017767,-0.000
 00001,-0.00000008,0.00005402,0.,-0.00000001,-0.00008599,0.,0.,-0.00017
 501,0.,0.,-0.00004681,0.,0.,-0.00009237,0.00000120,-0.00000325,0.01881
 727,0.00000002,-0.00000007,-0.00117117,-0.00000071,-0.00000063,0.01620
 191,-0.00000022,-0.00000019,0.00190432,-0.00000250,-0.00000181,-0.0505
 1173,-0.00000004,-0.00000017,0.00003990,-0.00000004,0.00000004,-0.0017
 9804,0.00000062,0.00000024,0.01131989,0.00000014,-0.00000012,0.0037102
 3,0.,0.,0.00011892,-0.00000006,0.00000010,-0.00325738,0.00000003,0.000
 00001,-0.00026351,0.00000039,0.00000037,-0.00316912,0.00000256,0.00000
 541,0.04323213,-0.00045275,-0.00061582,0.,-0.00387326,-0.00308076,0.00
 000001,-0.00614296,0.01118716,0.00000012,0.00354877,-0.00085186,-0.000
 00002,0.00022619,0.00244033,-0.00000001,-0.00088974,-0.00102599,0.,0.0
 0007971,-0.00001104,0.,-0.00047888,-0.00011887,0.,0.00004723,-0.000034
 87,0.,-0.00000107,-0.00008482,0.,-0.03278340,-0.02962215,-0.00000090,-
 0.00265331,-0.00621912,-0.00000003,0.00674756,-0.00376490,-0.00000018,
 -0.00792940,0.00296759,0.00000012,-0.04004707,0.02333315,0.00000051,0.
 00214346,-0.00605941,-0.00000012,0.00053847,0.00030625,0.00000002,0.00
 127718,-0.00285818,0.00000008,0.00208001,0.00305021,0.00000002,0.00007
 828,0.00001374,0.,-0.00023468,0.00023444,0.,0.00011828,0.00005003,-0.0
 0000001,-0.00087323,-0.01549833,-0.00000030,-0.02553145,-0.02203947,-0
 .00000072,0.10500604,0.00344725,0.00165160,-0.00000008,0.00459168,0.01
 500073,-0.00000016,0.03606153,-0.01575638,0.00000063,-0.00966719,0.003
 96059,0.00000006,-0.00112583,-0.00749598,0.00000001,0.00164654,0.00333
 470,0.,-0.00037419,0.00055901,0.,0.00027193,-0.00030233,0.,-0.00030497
 ,0.00023840,0.,-0.00011891,0.00022427,0.,-0.04406299,0.01827752,0.0000
 0092,0.00265876,0.01354214,0.00000008,-0.02797152,0.01302170,0.0000006
 2,0.02751302,-0.00992219,-0.00000042,0.04686765,0.01643006,0.00000061,
 -0.00708927,0.02176490,0.00000046,-0.00086595,-0.00061796,-0.00000007,
 -0.01286473,0.00117042,-0.00000034,-0.00850836,-0.00695039,-0.00000011
 ,-0.00002717,-0.00021856,0.00000001,0.00078288,-0.00055687,0.00000005,
 -0.00104497,-0.00047874,0.,-0.01310573,-0.02283151,-0.00000053,-0.0450
 1214,-0.02889724,0.00000036,0.04830270,-0.01514790,0.00000008,0.000000
 12,0.00040856,-0.00000001,0.00000038,0.00168067,0.00000101,0.00000034,
 -0.00435690,-0.00000007,0.00000005,-0.00077111,-0.00000006,-0.00000012
 ,-0.00010500,0.00000007,0.00000003,-0.00006914,-0.00000002,0.00000003,
 -0.00004547,0.00000001,-0.00000002,0.00004208,0.,0.00000001,0.00006777
 ,0.,0.,0.00005294,-0.00000154,0.00000027,-0.02436070,0.00000013,0.0000
 0041,0.00136368,-0.00000064,0.00000040,-0.00507005,0.00000063,-0.00000
 029,0.00025448,0.00000133,0.00000068,0.00028201,-0.00000017,0.00000047
 ,-0.00020743,-0.00000003,-0.00000003,0.00058847,-0.00000047,-0.0000001
 2,0.00572212,-0.00000016,-0.00000008,0.00056411,0.,0.,0.00004861,0.000
 00003,0.,-0.00056462,-0.00000004,0.,-0.00056893,-0.00000023,-0.0000004
 2,0.00417133,-0.00000123,0.00000003,-0.03431343,0.00000139,-0.00000211
 ,0.05518594\\-0.00023544,-0.00002978,-0.00000004,-0.00026073,0.0002132
 9,0.00000002,0.00016851,0.00009446,0.00000003,0.00015007,-0.00020322,0
 .,-0.00000828,-0.00032829,-0.00000002,-0.00022353,-0.00029227,0.000000
 04,-0.00005402,0.00001464,0.00000002,0.00005370,0.00001375,-0.00000001
 ,0.00002401,-0.00005341,0.,-0.00003136,-0.00005588,0.00000002,0.000334
 91,0.00024601,-0.00000018,0.00023399,0.00077943,0.,0.00018058,0.000080
 34,0.00000002,0.00020234,-0.00024634,0.00000004,0.00004155,0.00009318,
 -0.00000002,-0.00006370,-0.00027964,-0.00000005,-0.00000647,-0.0000518
 4,0.,-0.00025213,-0.00000259,0.,-0.00020663,-0.00027399,0.,-0.00003910
 ,-0.00005253,0.00000001,-0.00002374,0.00003143,0.00000003,-0.00005775,
 -0.00003458,0.,0.00021342,0.00012150,-0.00000001,-0.00007606,0.0001328
 1,0.00000005,-0.00006413,0.00008354,0.00000004\\\@
 The archive entry for this job was punched.


 I (ERNEST RUTHERFORD) CAME INTO THE ROOM, WHICH WAS HALF DARK, AND PRESENTLY
 SPOTTED LORD KELVIN IN THE AUDIENCE AND REALIZED I WAS IN TROUBLE AT
 THE LAST PART OF MY SPEECH DEALING THE AGE OF THE EARTH, WHERE MY VIEWS
 CONFLICTED WITH HIS.  TO MY RELIEF KELVIN FELL FAST ASLEEP, BUT AS I CAME
 TO THE IMPORTANT POINT, I SAW THE OLD BIRD SIT UP AND COCK A BALEFUL GLANCE
 AT ME! THEN A SUDDEN INSPIRATION CAME AND I SAID LORD KELVIN HAD LIMITED
 THE AGE OF THE EARTH PROVIDED NO NEW SOURCE WAS DISCOVERED. THAT
 PROPHETIC UTTERANCE REFERS TO WHAT WE ARE NOW CONSIDERING TONIGHT, RADIUM!
 BEHOLD!  THE OLD BOY BEAMED UPON ME.
 Job cpu time:       0 days  3 hours  0 minutes 36.9 seconds.
 Elapsed time:       0 days  0 hours 18 minutes 34.3 seconds.
 File lengths (MBytes):  RWF=   1376 Int=      0 D2E=      0 Chk=     48 Scr=      8
 Normal termination of Gaussian 16 at Mon Jul 13 14:55:18 2020.
