 Entering Gaussian System, Link 0=g16
 Initial command:
 /gpfs/loomis/apps/avx/software/Gaussian/16-C.01_AVX/g16/l1.exe "/home/fas/batista/pev4/scratch60/gauss-scratch/Gau-77271.inp" -scrdir="/home/fas/batista/pev4/scratch60/gauss-scratch/"
 Entering Link 1 = /gpfs/loomis/apps/avx/software/Gaussian/16-C.01_AVX/g16/l1.exe PID=     77272.
  
 Copyright (c) 1988-2019, Gaussian, Inc.  All Rights Reserved.
  
 This is part of the Gaussian(R) 16 program.  It is based on
 the Gaussian(R) 09 system (copyright 2009, Gaussian, Inc.),
 the Gaussian(R) 03 system (copyright 2003, Gaussian, Inc.),
 the Gaussian(R) 98 system (copyright 1998, Gaussian, Inc.),
 the Gaussian(R) 94 system (copyright 1995, Gaussian, Inc.),
 the Gaussian 92(TM) system (copyright 1992, Gaussian, Inc.),
 the Gaussian 90(TM) system (copyright 1990, Gaussian, Inc.),
 the Gaussian 88(TM) system (copyright 1988, Gaussian, Inc.),
 the Gaussian 86(TM) system (copyright 1986, Carnegie Mellon
 University), and the Gaussian 82(TM) system (copyright 1983,
 Carnegie Mellon University). Gaussian is a federally registered
 trademark of Gaussian, Inc.
  
 This software contains proprietary and confidential information,
 including trade secrets, belonging to Gaussian, Inc.
  
 This software is provided under written license and may be
 used, copied, transmitted, or stored only in accord with that
 written license.
  
 The following legend is applicable only to US Government
 contracts under FAR:
  
                    RESTRICTED RIGHTS LEGEND
  
 Use, reproduction and disclosure by the US Government is
 subject to restrictions as set forth in subparagraphs (a)
 and (c) of the Commercial Computer Software - Restricted
 Rights clause in FAR 52.227-19.
  
 Gaussian, Inc.
 340 Quinnipiac St., Bldg. 40, Wallingford CT 06492
  
  
 ---------------------------------------------------------------
 Warning -- This program may not be used in any manner that
 competes with the business of Gaussian, Inc. or will provide
 assistance to any competitor of Gaussian, Inc.  The licensee
 of this program is prohibited from giving any competitor of
 Gaussian, Inc. access to this program.  By using this program,
 the user acknowledges that Gaussian, Inc. is engaged in the
 business of creating and licensing software in the field of
 computational chemistry and represents and warrants to the
 licensee that it is not a competitor of Gaussian, Inc. and that
 it will not use this program in any manner prohibited above.
 ---------------------------------------------------------------
  

 Cite this work as:
 Gaussian 16, Revision C.01,
 M. J. Frisch, G. W. Trucks, H. B. Schlegel, G. E. Scuseria, 
 M. A. Robb, J. R. Cheeseman, G. Scalmani, V. Barone, 
 G. A. Petersson, H. Nakatsuji, X. Li, M. Caricato, A. V. Marenich, 
 J. Bloino, B. G. Janesko, R. Gomperts, B. Mennucci, H. P. Hratchian, 
 J. V. Ortiz, A. F. Izmaylov, J. L. Sonnenberg, D. Williams-Young, 
 F. Ding, F. Lipparini, F. Egidi, J. Goings, B. Peng, A. Petrone, 
 T. Henderson, D. Ranasinghe, V. G. Zakrzewski, J. Gao, N. Rega, 
 G. Zheng, W. Liang, M. Hada, M. Ehara, K. Toyota, R. Fukuda, 
 J. Hasegawa, M. Ishida, T. Nakajima, Y. Honda, O. Kitao, H. Nakai, 
 T. Vreven, K. Throssell, J. A. Montgomery, Jr., J. E. Peralta, 
 F. Ogliaro, M. J. Bearpark, J. J. Heyd, E. N. Brothers, K. N. Kudin, 
 V. N. Staroverov, T. A. Keith, R. Kobayashi, J. Normand, 
 K. Raghavachari, A. P. Rendell, J. C. Burant, S. S. Iyengar, 
 J. Tomasi, M. Cossi, J. M. Millam, M. Klene, C. Adamo, R. Cammi, 
 J. W. Ochterski, R. L. Martin, K. Morokuma, O. Farkas, 
 J. B. Foresman, and D. J. Fox, Gaussian, Inc., Wallingford CT, 2019.
 
 ******************************************
 Gaussian 16:  ES64L-G16RevC.01  3-Jul-2019
                13-Jul-2020 
 ******************************************
 %chk=config_11_2.chk
 %mem=58GB
 %nprocshared=10
 Will use up to   10 processors via shared memory.
 ----------------------------------------------------------------------
 #p opt=addgic freq td wb97xd/cc-pvdz nosymm int=ultrafine scrf=(solven
 t=CarbonTetraChloride)
 ----------------------------------------------------------------------
 1/18=20,19=15,26=6,38=1,145=903/1,3;
 2/9=110,12=2,15=1,17=6,18=5,40=1/2;
 3/5=16,11=9,25=1,30=1,70=2201,71=1,72=11,74=-58,75=-5/1,2,3,8;
 4//1;
 5/5=2,38=5,53=11/2;
 8/6=1,10=1/1;
 9/15=2,42=1,70=2/14;
 10/5=4,31=1/2;
 6/7=2,8=2,9=2,10=2/1;
 7/12=6,13=5,30=1/1,2,3,16;
 1/18=20,19=15,26=6,145=903/3(2);
 2/9=110,15=1/2;
 99//99;
 2/9=110,15=1/2;
 3/5=16,11=9,25=1,30=1,70=2205,71=1,72=11,74=-58,75=-5/1,2,3,8;
 4/5=5,16=3,69=1/1;
 5/5=2,38=5,53=11/2;
 8/6=1,10=1/1;
 9/15=2,42=1,49=4,70=2/14;
 10/5=4,31=1/2;
 7/12=6,13=5,30=1/1,2,3,16;
 1/18=20,19=15,26=6,145=903/3(-8);
 2/9=110,15=1/2;
 6/7=2,8=2,9=2,10=2/1;
 99/9=10/99;
 Leave Link    1 at Mon Jul 13 18:46:55 2020, MaxMem=  7784628224 cpu:               4.2 elap:               0.5
 (Enter /gpfs/loomis/apps/avx/software/Gaussian/16-C.01_AVX/g16/l101.exe)
 ------------------------------------------------
 NM 2D-scan of HBT TD-WB97XD pVDZ in CTC Relaxed.
 ------------------------------------------------
 Symbolic Z-matrix:
 Charge =  0 Multiplicity = 1
 C                     1.75001  -3.26666  -0.00002 
 C                     1.00948  -2.07942  -0.00002 
 C                     1.67569  -0.8295   -0.00002 
 C                     3.07046  -0.75046  -0.00002 
 C                     3.79749  -1.93576  -0.00002 
 C                     3.14833  -3.17886  -0.00003 
 H                     1.25502  -4.2415   -0.00003 
 H                     3.55999   0.22656  -0.00002 
 H                     4.88977  -1.89476  -0.00002 
 H                     3.73999  -4.09713  -0.00003 
 N                     0.82164   0.24362  -0.00002 
 S                    -0.74944  -1.84019  -0.00002 
 C                    -1.43184   1.00619  0. 
 C                    -2.813     0.89132  -0.00001 
 C                    -0.84062   2.38853   0.00003 
 C                    -3.64748   2.04677   0.00002 
 H                    -3.28494  -0.09766  -0.00005 
 C                    -1.73084   3.50385   0.00006 
 C                    -3.11495   3.3388    0.00006 
 H                    -4.73049   1.90491   0.00001 
 H                    -1.25516   4.4886    0.00009 
 H                    -3.77744   4.20658   0.00009 
 C                    -0.49468  -0.08488  -0.00001 
 O                     0.40479   2.58074   0.00003 
 H                     1.03662   1.03798  -0.00001 
 
 Initializing the GIC definitions file.
 Number of initial coordinates =   134
 Number of input entries/lines =    52
 Number of additional coordinates =     2
 Number of removed coordinates =     0
 Number of frozen coordinates =     2
 Number of final active and frozen coordinates =   136
 ITRead=  0  0  0  0  0  0  0  0  0  0  0  0  0  0  0  0  0  0  0  0
 ITRead=  0  0  0  0  0
 MicOpt= -1 -1 -1 -1 -1 -1 -1 -1 -1 -1 -1 -1 -1 -1 -1 -1 -1 -1 -1 -1
 MicOpt= -1 -1 -1 -1 -1
 NAtoms=     25 NQM=       25 NQMF=       0 NMMI=      0 NMMIF=      0
                NMic=       0 NMicF=      0.
                    Isotopes and Nuclear Properties:
 (Nuclear quadrupole moments (NQMom) in fm**2, nuclear magnetic moments (NMagM)
  in nuclear magnetons)

  Atom         1           2           3           4           5           6           7           8           9          10
 IAtWgt=          12          12          12          12          12          12           1           1           1           1
 AtmWgt=  12.0000000  12.0000000  12.0000000  12.0000000  12.0000000  12.0000000   1.0078250   1.0078250   1.0078250   1.0078250
 NucSpn=           0           0           0           0           0           0           1           1           1           1
 AtZEff=  -0.0000000  -0.0000000  -0.0000000  -0.0000000  -0.0000000  -0.0000000  -0.0000000  -0.0000000  -0.0000000  -0.0000000
 NQMom=    0.0000000   0.0000000   0.0000000   0.0000000   0.0000000   0.0000000   0.0000000   0.0000000   0.0000000   0.0000000
 NMagM=    0.0000000   0.0000000   0.0000000   0.0000000   0.0000000   0.0000000   2.7928460   2.7928460   2.7928460   2.7928460
 AtZNuc=   6.0000000   6.0000000   6.0000000   6.0000000   6.0000000   6.0000000   1.0000000   1.0000000   1.0000000   1.0000000

  Atom        11          12          13          14          15          16          17          18          19          20
 IAtWgt=          14          32          12          12          12          12           1          12          12           1
 AtmWgt=  14.0030740  31.9720718  12.0000000  12.0000000  12.0000000  12.0000000   1.0078250  12.0000000  12.0000000   1.0078250
 NucSpn=           2           0           0           0           0           0           1           0           0           1
 AtZEff=  -0.0000000  -0.0000000  -0.0000000  -0.0000000  -0.0000000  -0.0000000  -0.0000000  -0.0000000  -0.0000000  -0.0000000
 NQMom=    2.0440000   0.0000000   0.0000000   0.0000000   0.0000000   0.0000000   0.0000000   0.0000000   0.0000000   0.0000000
 NMagM=    0.4037610   0.0000000   0.0000000   0.0000000   0.0000000   0.0000000   2.7928460   0.0000000   0.0000000   2.7928460
 AtZNuc=   7.0000000  16.0000000   6.0000000   6.0000000   6.0000000   6.0000000   1.0000000   6.0000000   6.0000000   1.0000000

  Atom        21          22          23          24          25
 IAtWgt=           1           1          12          16           1
 AtmWgt=   1.0078250   1.0078250  12.0000000  15.9949146   1.0078250
 NucSpn=           1           1           0           0           1
 AtZEff=  -0.0000000  -0.0000000  -0.0000000  -0.0000000  -0.0000000
 NQMom=    0.0000000   0.0000000   0.0000000   0.0000000   0.0000000
 NMagM=    2.7928460   2.7928460   0.0000000   0.0000000   2.7928460
 AtZNuc=   1.0000000   1.0000000   6.0000000   8.0000000   1.0000000
 Leave Link  101 at Mon Jul 13 18:46:58 2020, MaxMem=  7784628224 cpu:              31.4 elap:               3.2
 (Enter /gpfs/loomis/apps/avx/software/Gaussian/16-C.01_AVX/g16/l103.exe)

 GradGradGradGradGradGradGradGradGradGradGradGradGradGradGradGradGradGrad
 Berny optimization.
 Initialization pass.
                           ----------------------------
                           !    Initial Parameters    !
                           ! (Angstroms and Degrees)  !
 --------------------------                            --------------------------
 ! Name  Definition              Value          Derivative Info.                !
 --------------------------------------------------------------------------------
 ! R1    R(1,2)                  1.3993         estimate D2E/DX2                !
 ! R2    R(1,6)                  1.4011         estimate D2E/DX2                !
 ! R3    R(1,7)                  1.0933         estimate D2E/DX2                !
 ! R4    R(2,3)                  1.4164         estimate D2E/DX2                !
 ! R5    R(2,12)                 1.7751         estimate D2E/DX2                !
 ! R6    R(3,4)                  1.397          estimate D2E/DX2                !
 ! R7    R(3,11)                 1.3715         estimate D2E/DX2                !
 ! R8    R(4,5)                  1.3905         estimate D2E/DX2                !
 ! R9    R(4,8)                  1.0928         estimate D2E/DX2                !
 ! R10   R(5,6)                  1.4024         estimate D2E/DX2                !
 ! R11   R(5,9)                  1.0931         estimate D2E/DX2                !
 ! R12   R(6,10)                 1.0924         estimate D2E/DX2                !
 ! R13   R(11,23)                1.3567         estimate D2E/DX2                !
 ! R14   R(11,25)                0.8229         estimate D2E/DX2                !
 ! R15   R(12,23)                1.7737         estimate D2E/DX2                !
 ! R16   R(13,14)                1.3859         estimate D2E/DX2                !
 ! R17   R(13,15)                1.5035         estimate D2E/DX2                !
 ! R18   R(13,23)                1.4383         estimate D2E/DX2                !
 ! R19   R(14,16)                1.4253         estimate D2E/DX2                !
 ! R20   R(14,17)                1.0958         estimate D2E/DX2                !
 ! R21   R(15,18)                1.427          estimate D2E/DX2                !
 ! R22   R(15,24)                1.2602         estimate D2E/DX2                !
 ! R23   R(16,19)                1.3975         estimate D2E/DX2                !
 ! R24   R(16,20)                1.0923         estimate D2E/DX2                !
 ! R25   R(18,19)                1.3939         estimate D2E/DX2                !
 ! R26   R(18,21)                1.0936         estimate D2E/DX2                !
 ! R27   R(19,22)                1.0918         estimate D2E/DX2                !
 ! A1    A(2,1,6)              118.3607         estimate D2E/DX2                !
 ! A2    A(2,1,7)              121.1264         estimate D2E/DX2                !
 ! A3    A(6,1,7)              120.5129         estimate D2E/DX2                !
 ! A4    A(1,2,3)              119.9887         estimate D2E/DX2                !
 ! A5    A(1,2,12)             129.6988         estimate D2E/DX2                !
 ! A6    A(3,2,12)             110.3124         estimate D2E/DX2                !
 ! A7    A(2,3,4)              121.301          estimate D2E/DX2                !
 ! A8    A(2,3,11)             113.4274         estimate D2E/DX2                !
 ! A9    A(4,3,11)             125.2716         estimate D2E/DX2                !
 ! A10   A(3,4,5)              118.2807         estimate D2E/DX2                !
 ! A11   A(3,4,8)              119.8563         estimate D2E/DX2                !
 ! A12   A(5,4,8)              121.863          estimate D2E/DX2                !
 ! A13   A(4,5,6)              120.9022         estimate D2E/DX2                !
 ! A14   A(4,5,9)              119.3746         estimate D2E/DX2                !
 ! A15   A(6,5,9)              119.7232         estimate D2E/DX2                !
 ! A16   A(1,6,5)              121.1667         estimate D2E/DX2                !
 ! A17   A(1,6,10)             119.202          estimate D2E/DX2                !
 ! A18   A(5,6,10)             119.6313         estimate D2E/DX2                !
 ! A19   A(3,11,23)            114.5019         estimate D2E/DX2                !
 ! A20   A(3,11,25)            126.3418         estimate D2E/DX2                !
 ! A21   A(23,11,25)           119.1563         estimate D2E/DX2                !
 ! A22   A(2,12,23)             89.4873         estimate D2E/DX2                !
 ! A23   A(14,13,15)           117.9104         estimate D2E/DX2                !
 ! A24   A(14,13,23)           125.9063         estimate D2E/DX2                !
 ! A25   A(15,13,23)           116.1833         estimate D2E/DX2                !
 ! A26   A(13,14,16)           121.0829         estimate D2E/DX2                !
 ! A27   A(13,14,17)           120.2645         estimate D2E/DX2                !
 ! A28   A(16,14,17)           118.6526         estimate D2E/DX2                !
 ! A29   A(13,15,18)           118.2477         estimate D2E/DX2                !
 ! A30   A(13,15,24)           121.9297         estimate D2E/DX2                !
 ! A31   A(18,15,24)           119.8226         estimate D2E/DX2                !
 ! A32   A(14,16,19)           121.7632         estimate D2E/DX2                !
 ! A33   A(14,16,20)           118.3746         estimate D2E/DX2                !
 ! A34   A(19,16,20)           119.8622         estimate D2E/DX2                !
 ! A35   A(15,18,19)           121.7962         estimate D2E/DX2                !
 ! A36   A(15,18,21)           115.6212         estimate D2E/DX2                !
 ! A37   A(19,18,21)           122.5825         estimate D2E/DX2                !
 ! A38   A(16,19,18)           119.1996         estimate D2E/DX2                !
 ! A39   A(16,19,22)           120.241          estimate D2E/DX2                !
 ! A40   A(18,19,22)           120.5594         estimate D2E/DX2                !
 ! A41   A(11,23,12)           112.271          estimate D2E/DX2                !
 ! A42   A(11,23,13)           116.6476         estimate D2E/DX2                !
 ! A43   A(12,23,13)           131.0814         estimate D2E/DX2                !
 ! D1    D(6,1,2,3)              0.0            estimate D2E/DX2                !
 ! D2    D(6,1,2,12)          -179.9999         estimate D2E/DX2                !
 ! D3    D(7,1,2,3)            179.9999         estimate D2E/DX2                !
 ! D4    D(7,1,2,12)             0.0            estimate D2E/DX2                !
 ! D5    D(2,1,6,5)              0.0            estimate D2E/DX2                !
 ! D6    D(2,1,6,10)           180.0            estimate D2E/DX2                !
 ! D7    D(7,1,6,5)           -179.9999         estimate D2E/DX2                !
 ! D8    D(7,1,6,10)             0.0001         estimate D2E/DX2                !
 ! D9    D(1,2,3,4)              0.0            estimate D2E/DX2                !
 ! D10   D(1,2,3,11)           179.9999         estimate D2E/DX2                !
 ! D11   D(12,2,3,4)           179.9999         estimate D2E/DX2                !
 ! D12   D(12,2,3,11)           -0.0001         estimate D2E/DX2                !
 ! D13   D(1,2,12,23)          180.0            estimate D2E/DX2                !
 ! D14   D(3,2,12,23)            0.0            estimate D2E/DX2                !
 ! D15   D(2,3,4,5)              0.0            estimate D2E/DX2                !
 ! D16   D(2,3,4,8)           -180.0            estimate D2E/DX2                !
 ! D17   D(11,3,4,5)          -179.9999         estimate D2E/DX2                !
 ! D18   D(11,3,4,8)             0.0001         estimate D2E/DX2                !
 ! D19   D(2,3,11,23)            0.0002         estimate D2E/DX2                !
 ! D20   D(2,3,11,25)          179.9997         estimate D2E/DX2                !
 ! D21   D(4,3,11,23)         -179.9999         estimate D2E/DX2                !
 ! D22   D(4,3,11,25)           -0.0003         estimate D2E/DX2                !
 ! D23   D(3,4,5,6)              0.0            estimate D2E/DX2                !
 ! D24   D(3,4,5,9)           -180.0            estimate D2E/DX2                !
 ! D25   D(8,4,5,6)           -180.0            estimate D2E/DX2                !
 ! D26   D(8,4,5,9)              0.0            estimate D2E/DX2                !
 ! D27   D(4,5,6,1)              0.0            estimate D2E/DX2                !
 ! D28   D(4,5,6,10)          -180.0            estimate D2E/DX2                !
 ! D29   D(9,5,6,1)            180.0            estimate D2E/DX2                !
 ! D30   D(9,5,6,10)             0.0            estimate D2E/DX2                !
 ! D31   D(3,11,23,12)          -0.0001         estimate D2E/DX2                !
 ! D32   D(3,11,23,13)         179.9996         estimate D2E/DX2                !
 ! D33   D(25,11,23,12)       -179.9997         estimate D2E/DX2                !
 ! D34   D(25,11,23,13)          0.0            estimate D2E/DX2                !
 ! D35   D(2,12,23,11)           0.0            estimate D2E/DX2                !
 ! D36   D(2,12,23,13)        -179.9996         estimate D2E/DX2                !
 ! D37   D(15,13,14,16)         -0.0009         estimate D2E/DX2                !
 ! D38   D(15,13,14,17)        179.9994         estimate D2E/DX2                !
 ! D39   D(23,13,14,16)        179.999          estimate D2E/DX2                !
 ! D40   D(23,13,14,17)         -0.0007         estimate D2E/DX2                !
 ! D41   D(14,13,15,18)          0.0009         estimate D2E/DX2                !
 ! D42   D(14,13,15,24)       -179.9991         estimate D2E/DX2                !
 ! D43   D(23,13,15,18)       -179.999          estimate D2E/DX2                !
 ! D44   D(23,13,15,24)          0.001          estimate D2E/DX2                !
 ! D45   D(14,13,23,11)        179.9991         estimate D2E/DX2                !
 ! D46   D(14,13,23,12)         -0.0013         estimate D2E/DX2                !
 ! D47   D(15,13,23,11)         -0.0009         estimate D2E/DX2                !
 ! D48   D(15,13,23,12)        179.9987         estimate D2E/DX2                !
 ! D49   D(13,14,16,19)          0.0002         estimate D2E/DX2                !
 ! D50   D(13,14,16,20)       -179.9997         estimate D2E/DX2                !
 ! D51   D(17,14,16,19)        180.0            estimate D2E/DX2                !
 ! D52   D(17,14,16,20)          0.0            estimate D2E/DX2                !
 ! D53   D(13,15,18,19)         -0.0003         estimate D2E/DX2                !
 ! D54   D(13,15,18,21)        179.9997         estimate D2E/DX2                !
 ! D55   D(24,15,18,19)        179.9997         estimate D2E/DX2                !
 ! D56   D(24,15,18,21)         -0.0003         estimate D2E/DX2                !
 ! D57   D(14,16,19,18)          0.0004         estimate D2E/DX2                !
 ! D58   D(14,16,19,22)       -179.9998         estimate D2E/DX2                !
 ! D59   D(20,16,19,18)       -179.9997         estimate D2E/DX2                !
 ! D60   D(20,16,19,22)          0.0002         estimate D2E/DX2                !
 ! D61   D(15,18,19,16)         -0.0003         estimate D2E/DX2                !
 ! D62   D(15,18,19,22)        179.9998         estimate D2E/DX2                !
 ! D63   D(21,18,19,16)        179.9996         estimate D2E/DX2                !
 ! D64   D(21,18,19,22)         -0.0002         estimate D2E/DX2                !
 ! Qtot  GIC-1                  50.0            Frozen                          !
 ! Ptot  GIC-2                -120.0            Frozen                          !
 --------------------------------------------------------------------------------
 NOTE: GIC-type coordinates are in arbitrary units.
 Trust Radius=3.00D-01 FncErr=5.00D-06 GrdErr=5.00D-06 EigMax=2.50D+02 EigMin=1.00D-04
 Number of steps in this run=    146 maximum allowed number of steps=    150.
 GradGradGradGradGradGradGradGradGradGradGradGradGradGradGradGradGradGrad

 Leave Link  103 at Mon Jul 13 18:46:58 2020, MaxMem=  7784628224 cpu:               0.2 elap:               0.0
 (Enter /gpfs/loomis/apps/avx/software/Gaussian/16-C.01_AVX/g16/l202.exe)
                          Input orientation:                          
 ---------------------------------------------------------------------
 Center     Atomic      Atomic             Coordinates (Angstroms)
 Number     Number       Type             X           Y           Z
 ---------------------------------------------------------------------
      1          6           0        1.750008   -3.266663   -0.000025
      2          6           0        1.009478   -2.079423   -0.000021
      3          6           0        1.675692   -0.829499   -0.000018
      4          6           0        3.070457   -0.750465   -0.000018
      5          6           0        3.797486   -1.935756   -0.000022
      6          6           0        3.148327   -3.178864   -0.000025
      7          1           0        1.255016   -4.241498   -0.000026
      8          1           0        3.559995    0.226562   -0.000015
      9          1           0        4.889769   -1.894762   -0.000022
     10          1           0        3.739993   -4.097132   -0.000028
     11          7           0        0.821636    0.243625   -0.000016
     12         16           0       -0.749438   -1.840190   -0.000017
     13          6           0       -1.431842    1.006186   -0.000001
     14          6           0       -2.813000    0.891318   -0.000013
     15          6           0       -0.840618    2.388531    0.000030
     16          6           0       -3.647480    2.046773    0.000021
     17          1           0       -3.284935   -0.097659   -0.000046
     18          6           0       -1.730841    3.503848    0.000065
     19          6           0       -3.114951    3.338804    0.000064
     20          1           0       -4.730485    1.904914    0.000015
     21          1           0       -1.255162    4.488600    0.000092
     22          1           0       -3.777441    4.206582    0.000094
     23          6           0       -0.494679   -0.084885   -0.000013
     24          8           0        0.404794    2.580742    0.000026
     25          1           0        1.036616    1.037985   -0.000010
 ---------------------------------------------------------------------
                    Distance matrix (angstroms):
                    1          2          3          4          5
     1  C    0.000000
     2  C    1.399259   0.000000
     3  C    2.438296   1.416386   0.000000
     4  C    2.841626   2.452298   1.397002   0.000000
     5  C    2.442023   2.791707   2.392868   1.390499   0.000000
     6  C    1.401072   2.404880   2.772755   2.429648   1.402399
     7  H    1.093308   2.175974   3.437835   3.934862   3.432288
     8  H    3.934294   3.438416   2.160061   1.092808   2.175322
     9  H    3.426399   3.884683   3.386012   2.149259   1.093052
    10  H    2.156320   3.395123   3.865070   3.412984   2.162140
    11  N    3.630977   2.330629   1.371497   2.458741   3.688547
    12  S    2.877856   1.775110   2.627309   3.972291   4.547928
    13  C    5.327420   3.934593   3.609225   4.832857   6.000074
    14  C    6.173317   4.841139   4.807240   6.108233   7.189636
    15  C    6.220335   4.835852   4.085038   5.014958   6.341252
    16  C    7.574000   6.221957   6.050545   7.277033   8.443225
    17  H    5.949222   4.729627   5.014320   6.388831   7.317055
    18  C    7.612892   6.219506   5.512020   6.414954   7.755752
    19  C    8.203659   6.809412   6.350198   7.414944   8.694986
    20  H    8.291080   6.987282   6.965351   8.240493   9.352916
    21  H    8.317160   6.947482   6.072238   6.794025   8.173225
    22  H    9.295272   7.901167   7.422854   8.453757   9.752325
    23  C    3.893884   2.498133   2.294550   3.626733   4.674228
    24  O    6.000145   4.699232   3.639358   4.266462   5.648816
    25  H    4.363361   3.117525   1.973807   2.708331   4.057775
                    6          7          8          9         10
     6  C    0.000000
     7  H    2.171133   0.000000
     8  H    3.430219   5.027573   0.000000
     9  H    2.163687   4.326500   2.503660   0.000000
    10  H    1.092375   2.489167   4.327439   2.484435   0.000000
    11  N    4.138468   4.506012   2.738411   4.595911   5.230580
    12  S    4.121240   3.127957   4.779401   5.639471   5.024816
    13  C    6.204239   5.895540   5.052350   6.955448   7.265791
    14  C    7.218296   6.549393   6.407570   8.191147   8.235675
    15  C    6.848910   6.953343   4.903010   7.154295   7.940140
    16  C    8.572647   7.973508   7.433764   9.403208   9.608450
    17  H    7.133070   6.146752   6.852604   8.369908   8.083650
    18  C    8.274353   8.300948   6.223628   8.542685   9.365090
    19  C    9.039284   8.749720   7.364846   9.563773  10.113526
    20  H    9.376592   8.579313   8.458660  10.343444  10.381404
    21  H    8.841986   9.083810   6.430451   8.860445   9.933094
    22  H   10.124775   9.833396   8.347366  10.599383  11.201048
    23  C    4.779561   4.509864   4.066617   5.680487   5.833573
    24  O    6.379658   6.875016   3.936681   6.336019   7.464419
    25  H    4.716051   5.283999   2.650631   4.842291   5.803246
                   11         12         13         14         15
    11  N    0.000000
    12  S    2.609705   0.000000
    13  C    2.379005   2.927035   0.000000
    14  C    3.691895   3.423364   1.385927   0.000000
    15  C    2.713617   4.229704   1.503470   2.476275   0.000000
    16  C    4.819164   4.848415   2.447830   1.425284   2.827591
    17  H    4.120729   3.076550   2.156949   1.095809   3.486521
    18  C    4.140555   5.433405   2.515495   2.827787   1.427034
    19  C    5.007680   5.693649   2.876450   2.466043   2.464875
    20  H    5.795337   5.465761   3.418883   2.168900   3.919815
    21  H    4.725770   6.348964   3.486893   3.920115   2.140592
    22  H    6.070959   6.762563   3.967918   3.452698   3.454017
    23  C    1.356689   1.773697   1.438301   2.515468   2.497491
    24  O    2.374000   4.569124   2.419185   3.634330   1.260158
    25  H    0.822936   3.387312   2.468663   3.852409   2.312571
                   16         17         18         19         20
    16  C    0.000000
    17  H    2.174863   0.000000
    18  C    2.407607   3.922507   0.000000
    19  C    1.397473   3.440665   1.393915   0.000000
    20  H    1.092257   2.469800   3.399184   2.160091   0.000000
    21  H    3.418436   5.015351   1.093621   2.186514   4.330509
    22  H    2.163715   4.332326   2.163887   1.091756   2.491178
    23  C    3.805800   2.790285   3.795668   4.311319   4.679888
    24  O    4.087303   4.559379   2.326599   3.600453   5.179560
    25  H    4.791494   4.468277   3.706656   4.746502   5.831898
                   21         22         23         24         25
    21  H    0.000000
    22  H    2.537997   0.000000
    23  C    4.636280   5.403074   0.000000
    24  O    2.528908   4.487142   2.813293   0.000000
    25  H    4.142342   5.763260   1.898869   1.667123   0.000000
 Symmetry turned off by external request.
 Stoichiometry    C13H9NOS
 Framework group  C1[X(C13H9NOS)]
 Deg. of freedom    69
 Full point group                 C1      NOp   1
 Rotational constants (GHZ):           1.3576507           0.2852594           0.2357297
 Leave Link  202 at Mon Jul 13 18:46:58 2020, MaxMem=  7784628224 cpu:               0.4 elap:               0.1
 (Enter /gpfs/loomis/apps/avx/software/Gaussian/16-C.01_AVX/g16/l301.exe)
 Standard basis: CC-pVDZ (5D, 7F)
 Ernie: Thresh=  0.10000D-02 Tol=  0.10000D-05 Strict=F.
 Ernie:  40 primitive shells out of 425 were deleted.
   273 basis functions,   629 primitive gaussians,   289 cartesian basis functions
    59 alpha electrons       59 beta electrons
       nuclear repulsion energy      1096.7248896016 Hartrees.
 IExCor= 4639 DFT=T Ex+Corr=wB97XD ExCW=0 ScaHFX=  1.000000
 ScaDFX=  1.000000  1.000000  1.000000  1.000000 ScalE2=  1.000000  1.000000
 IRadAn=      5 IRanWt=     -1 IRanGd=            0 ICorTp=0 IEmpDi=121
 HFx  wShort=  0.000000 wLong=  0.200000 cFull=  0.222036 cShort=  0.000000 cLong=  0.777964
 DFx  wShort=  0.000000 wLong=  0.200000 cFull=  0.000000 cShort=  0.000000 cLong=  1.000000
 NAtoms=   25 NActive=   25 NUniq=   25 SFac= 1.00D+00 NAtFMM=   60 NAOKFM=F Big=F
 Integral buffers will be    131072 words long.
 Raffenetti 1 integral format.
 Two-electron integral symmetry is turned off.
 R6Disp:  Grimme-D2 Dispersion energy=       -0.0141430458 Hartrees.
 Nuclear repulsion after empirical dispersion term =     1096.7107465559 Hartrees.
 ------------------------------------------------------------------------------
 Polarizable Continuum Model (PCM)
 =================================
 Model                : PCM.
 Atomic radii         : UFF (Universal Force Field).
 Polarization charges : Total charges.
 Charge compensation  : None.
 Solution method      : On-the-fly selection.
 Cavity type          : Scaled VdW (van der Waals Surface) (Alpha=1.100).
 Cavity algorithm     : GePol (No added spheres)
                        Default sphere list used, NSphG=   25.
                        Lebedev-Laikov grids with approx.  5.0 points / Ang**2.
                        Smoothing algorithm: York/Karplus (Gamma=1.0000).
                        Polarization charges: spherical gaussians, with
                                              point-specific exponents (IZeta= 3).
                        Self-potential: point-specific (ISelfS= 7).
                        Self-field    : sphere-specific E.n sum rule (ISelfD= 2).
 1st derivatives      : Analytical E(r).r(x)/FMM algorithm (CHGder, D1EAlg=3).
                        Cavity 1st derivative terms included.
 Solvent              : CarbonTetraChloride, Eps=   2.228000 Eps(inf)=   2.131892
 ------------------------------------------------------------------------------
 GePol: Number of generator spheres                  =      25
 GePol: Total number of spheres                      =      25
 GePol: Number of exposed spheres                    =      25 (100.00%)
 GePol: Number of points                             =    2191
 GePol: Average weight of points                     =       0.13
 GePol: Minimum weight of points                     =   0.39D-08
 GePol: Maximum weight of points                     =    0.20577
 GePol: Number of points with low weight             =     122
 GePol: Fraction of low-weight points (<1% of avg)   =       5.57%
 GePol: Cavity surface area                          =    275.698 Ang**2
 GePol: Cavity volume                                =    294.479 Ang**3
 Leave Link  301 at Mon Jul 13 18:46:58 2020, MaxMem=  7784628224 cpu:               0.8 elap:               0.1
 (Enter /gpfs/loomis/apps/avx/software/Gaussian/16-C.01_AVX/g16/l302.exe)
 NPDir=0 NMtPBC=     1 NCelOv=     1 NCel=       1 NClECP=     1 NCelD=      1
         NCelK=      1 NCelE2=     1 NClLst=     1 CellRange=     0.0.
 One-electron integrals computed using PRISM.
 NBasis=   273 RedAO= T EigKep=  3.07D-04  NBF=   273
 NBsUse=   273 1.00D-06 EigRej= -1.00D+00 NBFU=   273
 Precomputing XC quadrature grid using
 IXCGrd= 4 IRadAn=           5 IRanWt=          -1 IRanGd=           0 AccXCQ= 0.00D+00.
 Generated NRdTot=       0 NPtTot=           0 NUsed=           0 NTot=          32
 NSgBfM=   288   288   288   288   288 MxSgAt=    25 MxSgA2=    25.
 Leave Link  302 at Mon Jul 13 18:46:58 2020, MaxMem=  7784628224 cpu:               2.6 elap:               0.3
 (Enter /gpfs/loomis/apps/avx/software/Gaussian/16-C.01_AVX/g16/l303.exe)
 DipDrv:  MaxL=1.
 Leave Link  303 at Mon Jul 13 18:46:58 2020, MaxMem=  7784628224 cpu:               0.5 elap:               0.1
 (Enter /gpfs/loomis/apps/avx/software/Gaussian/16-C.01_AVX/g16/l308.exe)
 Leave Link  308 at Mon Jul 13 18:46:59 2020, MaxMem=  7784628224 cpu:               0.6 elap:               0.1
 (Enter /gpfs/loomis/apps/avx/software/Gaussian/16-C.01_AVX/g16/l401.exe)
 ExpMin= 1.22D-01 ExpMax= 1.11D+05 ExpMxC= 1.07D+03 IAcc=3 IRadAn=         5 AccDes= 0.00D+00
 Harris functional with IExCor= 4639 and IRadAn=       5 diagonalized for initial guess.
 HarFok:  IExCor= 4639 AccDes= 0.00D+00 IRadAn=         5 IDoV= 1 UseB2=F ITyADJ=14
 ICtDFT=  3500011 ScaDFX=  1.000000  1.000000  1.000000  1.000000
 FoFCou: FMM=F IPFlag=           0 FMFlag=      100000 FMFlg1=           0
         NFxFlg=           0 DoJE=T BraDBF=F KetDBF=T FulRan=T
         wScrn=  0.000000 ICntrl=       500 IOpCl=  0 I1Cent=   200000004 NGrid=           0
         NMat0=    1 NMatS0=      1 NMatT0=    0 NMatD0=    1 NMtDS0=    0 NMtDT0=    0
 Symmetry not used in FoFCou.
 Harris En= -994.392267875286    
 JPrj=0 DoOrth=F DoCkMO=F.
 Leave Link  401 at Mon Jul 13 18:47:00 2020, MaxMem=  7784628224 cpu:              13.3 elap:               1.4
 (Enter /gpfs/loomis/apps/avx/software/Gaussian/16-C.01_AVX/g16/l502.exe)
 Two-electron integral symmetry not used.
 Closed shell SCF:
 Using DIIS extrapolation, IDIIS=  1040.
 NGot=  7784628224 LenX=  7784455381 LenY=  7784371419
 Requested convergence on RMS density matrix=1.00D-08 within 128 cycles.
 Requested convergence on MAX density matrix=1.00D-06.
 Requested convergence on             energy=1.00D-06.
 No special actions if energy rises.
 Fock matrices will be formed incrementally for  20 cycles.

 Cycle   1  Pass 1  IDiag  1:
 FoFJK:  IHMeth= 1 ICntrl=       0 DoSepK=T KAlg= 0 I1Cent=           0 FoldK=F
 IRaf=         1 NMat=       1 IRICut=       1 DoRegI=T DoRafI=F ISym2E= 0 IDoP0=0 IntGTp=1.
 FoFCou: FMM=F IPFlag=           0 FMFlag=      100000 FMFlg1=           0
         NFxFlg=           0 DoJE=T BraDBF=F KetDBF=F FulRan=T
         wScrn=  0.000000 ICntrl=       500 IOpCl=  0 I1Cent=           0 NGrid=           0
         NMat0=    1 NMatS0=      1 NMatT0=    0 NMatD0=    1 NMtDS0=    0 NMtDT0=    0
 Symmetry not used in FoFCou.
 Inv3:  Mode=1 IEnd=    14401443.
 Iteration    1 A*A^-1 deviation from unit magnitude is 5.11D-15 for   2189.
 Iteration    1 A*A^-1 deviation from orthogonality  is 3.26D-15 for   1303    384.
 Iteration    1 A^-1*A deviation from unit magnitude is 5.44D-15 for   2174.
 Iteration    1 A^-1*A deviation from orthogonality  is 2.38D-15 for   2190   2094.
 E= -1028.49145690594    
 DIIS: error= 3.94D-02 at cycle   1 NSaved=   1.
 NSaved= 1 IEnMin= 1 EnMin= -1028.49145690594     IErMin= 1 ErrMin= 3.94D-02
 ErrMax= 3.94D-02  0.00D+00 EMaxC= 1.00D-01 BMatC= 3.95D-01 BMatP= 3.95D-01
 IDIUse=3 WtCom= 6.06D-01 WtEn= 3.94D-01
 Coeff-Com:  0.100D+01
 Coeff-En:   0.100D+01
 Coeff:      0.100D+01
 Gap=     0.304 Goal=   None    Shift=    0.000
 GapD=    0.304 DampG=1.000 DampE=0.500 DampFc=0.5000 IDamp=-1.
 Damping current iteration by 5.00D-01
 RMSDP=3.70D-03 MaxDP=2.51D-01              OVMax= 2.20D-01

 Cycle   2  Pass 1  IDiag  1:
 RMSU=  1.85D-03    CP:  9.95D-01
 E= -1028.61428415627     Delta-E=       -0.122827250325 Rises=F Damp=T
 DIIS: error= 1.24D-02 at cycle   2 NSaved=   2.
 NSaved= 2 IEnMin= 2 EnMin= -1028.61428415627     IErMin= 2 ErrMin= 1.24D-02
 ErrMax= 1.24D-02  0.00D+00 EMaxC= 1.00D-01 BMatC= 5.84D-02 BMatP= 3.95D-01
 IDIUse=3 WtCom= 8.76D-01 WtEn= 1.24D-01
 Coeff-Com: -0.281D+00 0.128D+01
 Coeff-En:   0.000D+00 0.100D+01
 Coeff:     -0.246D+00 0.125D+01
 Gap=     0.367 Goal=   None    Shift=    0.000
 RMSDP=1.17D-03 MaxDP=3.05D-02 DE=-1.23D-01 OVMax= 1.54D-01

 Cycle   3  Pass 1  IDiag  1:
 RMSU=  1.14D-03    CP:  9.92D-01  1.15D+00
 E= -1028.72600746706     Delta-E=       -0.111723310792 Rises=F Damp=F
 DIIS: error= 6.99D-03 at cycle   3 NSaved=   3.
 NSaved= 3 IEnMin= 3 EnMin= -1028.72600746706     IErMin= 3 ErrMin= 6.99D-03
 ErrMax= 6.99D-03  0.00D+00 EMaxC= 1.00D-01 BMatC= 1.56D-02 BMatP= 5.84D-02
 IDIUse=3 WtCom= 9.30D-01 WtEn= 6.99D-02
 Coeff-Com: -0.203D+00 0.499D+00 0.704D+00
 Coeff-En:   0.000D+00 0.000D+00 0.100D+01
 Coeff:     -0.189D+00 0.464D+00 0.724D+00
 Gap=     0.232 Goal=   None    Shift=    0.000
 RMSDP=5.58D-04 MaxDP=2.24D-02 DE=-1.12D-01 OVMax= 4.99D-02

 Cycle   4  Pass 1  IDiag  1:
 RMSU=  4.41D-04    CP:  9.91D-01  1.31D+00  8.51D-01
 E= -1028.74163450763     Delta-E=       -0.015627040571 Rises=F Damp=F
 DIIS: error= 2.33D-03 at cycle   4 NSaved=   4.
 NSaved= 4 IEnMin= 4 EnMin= -1028.74163450763     IErMin= 4 ErrMin= 2.33D-03
 ErrMax= 2.33D-03  0.00D+00 EMaxC= 1.00D-01 BMatC= 1.92D-03 BMatP= 1.56D-02
 IDIUse=3 WtCom= 9.77D-01 WtEn= 2.33D-02
 Coeff-Com: -0.712D-01 0.140D+00 0.340D+00 0.591D+00
 Coeff-En:   0.000D+00 0.000D+00 0.000D+00 0.100D+01
 Coeff:     -0.695D-01 0.137D+00 0.332D+00 0.601D+00
 Gap=     0.235 Goal=   None    Shift=    0.000
 RMSDP=1.75D-04 MaxDP=9.81D-03 DE=-1.56D-02 OVMax= 1.40D-02

 Cycle   5  Pass 1  IDiag  1:
 RMSU=  1.16D-04    CP:  9.91D-01  1.32D+00  9.24D-01  7.73D-01
 E= -1028.74377704518     Delta-E=       -0.002142537547 Rises=F Damp=F
 DIIS: error= 5.85D-04 at cycle   5 NSaved=   5.
 NSaved= 5 IEnMin= 5 EnMin= -1028.74377704518     IErMin= 5 ErrMin= 5.85D-04
 ErrMax= 5.85D-04  0.00D+00 EMaxC= 1.00D-01 BMatC= 6.26D-05 BMatP= 1.92D-03
 IDIUse=3 WtCom= 9.94D-01 WtEn= 5.85D-03
 Coeff-Com:  0.538D-03-0.757D-02 0.198D-01 0.149D+00 0.838D+00
 Coeff-En:   0.000D+00 0.000D+00 0.000D+00 0.000D+00 0.100D+01
 Coeff:      0.535D-03-0.753D-02 0.197D-01 0.148D+00 0.839D+00
 Gap=     0.236 Goal=   None    Shift=    0.000
 RMSDP=6.27D-05 MaxDP=2.01D-03 DE=-2.14D-03 OVMax= 7.25D-03

 Cycle   6  Pass 1  IDiag  1:
 RMSU=  3.96D-05    CP:  9.90D-01  1.33D+00  9.43D-01  8.65D-01  1.13D+00
 E= -1028.74393483552     Delta-E=       -0.000157790344 Rises=F Damp=F
 DIIS: error= 2.35D-04 at cycle   6 NSaved=   6.
 NSaved= 6 IEnMin= 6 EnMin= -1028.74393483552     IErMin= 6 ErrMin= 2.35D-04
 ErrMax= 2.35D-04  0.00D+00 EMaxC= 1.00D-01 BMatC= 1.17D-05 BMatP= 6.26D-05
 IDIUse=3 WtCom= 9.98D-01 WtEn= 2.35D-03
 Coeff-Com:  0.177D-01-0.359D-01-0.706D-01-0.902D-01 0.202D+00 0.977D+00
 Coeff-En:   0.000D+00 0.000D+00 0.000D+00 0.000D+00 0.000D+00 0.100D+01
 Coeff:      0.177D-01-0.358D-01-0.704D-01-0.900D-01 0.202D+00 0.977D+00
 Gap=     0.237 Goal=   None    Shift=    0.000
 RMSDP=4.19D-05 MaxDP=1.88D-03 DE=-1.58D-04 OVMax= 4.64D-03

 Cycle   7  Pass 1  IDiag  1:
 RMSU=  1.93D-05    CP:  9.90D-01  1.33D+00  9.56D-01  9.02D-01  1.35D+00
                    CP:  1.38D+00
 E= -1028.74397948074     Delta-E=       -0.000044645215 Rises=F Damp=F
 DIIS: error= 8.89D-05 at cycle   7 NSaved=   7.
 NSaved= 7 IEnMin= 7 EnMin= -1028.74397948074     IErMin= 7 ErrMin= 8.89D-05
 ErrMax= 8.89D-05  0.00D+00 EMaxC= 1.00D-01 BMatC= 2.07D-06 BMatP= 1.17D-05
 IDIUse=1 WtCom= 1.00D+00 WtEn= 0.00D+00
 Coeff-Com:  0.611D-02-0.114D-01-0.250D-01-0.496D-01-0.190D-01 0.344D+00
 Coeff-Com:  0.755D+00
 Coeff:      0.611D-02-0.114D-01-0.250D-01-0.496D-01-0.190D-01 0.344D+00
 Coeff:      0.755D+00
 Gap=     0.237 Goal=   None    Shift=    0.000
 RMSDP=1.28D-05 MaxDP=4.54D-04 DE=-4.46D-05 OVMax= 1.83D-03

 Cycle   8  Pass 1  IDiag  1:
 RMSU=  7.26D-06    CP:  9.90D-01  1.33D+00  9.57D-01  9.07D-01  1.39D+00
                    CP:  1.59D+00  1.19D+00
 E= -1028.74398546825     Delta-E=       -0.000005987508 Rises=F Damp=F
 DIIS: error= 4.46D-05 at cycle   8 NSaved=   8.
 NSaved= 8 IEnMin= 8 EnMin= -1028.74398546825     IErMin= 8 ErrMin= 4.46D-05
 ErrMax= 4.46D-05  0.00D+00 EMaxC= 1.00D-01 BMatC= 5.25D-07 BMatP= 2.07D-06
 IDIUse=1 WtCom= 1.00D+00 WtEn= 0.00D+00
 Coeff-Com: -0.204D-02 0.434D-02 0.929D-02 0.500D-02-0.427D-01-0.129D+00
 Coeff-Com:  0.253D+00 0.903D+00
 Coeff:     -0.204D-02 0.434D-02 0.929D-02 0.500D-02-0.427D-01-0.129D+00
 Coeff:      0.253D+00 0.903D+00
 Gap=     0.237 Goal=   None    Shift=    0.000
 RMSDP=8.23D-06 MaxDP=1.83D-04 DE=-5.99D-06 OVMax= 1.16D-03

 Cycle   9  Pass 1  IDiag  1:
 RMSU=  3.28D-06    CP:  9.90D-01  1.33D+00  9.57D-01  9.06D-01  1.41D+00
                    CP:  1.70D+00  1.47D+00  1.21D+00
 E= -1028.74398729629     Delta-E=       -0.000001828044 Rises=F Damp=F
 DIIS: error= 2.60D-05 at cycle   9 NSaved=   9.
 NSaved= 9 IEnMin= 9 EnMin= -1028.74398729629     IErMin= 9 ErrMin= 2.60D-05
 ErrMax= 2.60D-05  0.00D+00 EMaxC= 1.00D-01 BMatC= 7.26D-08 BMatP= 5.25D-07
 IDIUse=1 WtCom= 1.00D+00 WtEn= 0.00D+00
 Coeff-Com: -0.105D-02 0.204D-02 0.506D-02 0.641D-02-0.603D-02-0.856D-01
 Coeff-Com: -0.378D-01 0.219D+00 0.898D+00
 Coeff:     -0.105D-02 0.204D-02 0.506D-02 0.641D-02-0.603D-02-0.856D-01
 Coeff:     -0.378D-01 0.219D+00 0.898D+00
 Gap=     0.237 Goal=   None    Shift=    0.000
 RMSDP=3.73D-06 MaxDP=1.17D-04 DE=-1.83D-06 OVMax= 6.59D-04

 Cycle  10  Pass 1  IDiag  1:
 RMSU=  1.55D-06    CP:  9.90D-01  1.33D+00  9.57D-01  9.06D-01  1.42D+00
                    CP:  1.75D+00  1.57D+00  1.44D+00  1.24D+00
 E= -1028.74398765326     Delta-E=       -0.000000356965 Rises=F Damp=F
 DIIS: error= 9.35D-06 at cycle  10 NSaved=  10.
 NSaved=10 IEnMin=10 EnMin= -1028.74398765326     IErMin=10 ErrMin= 9.35D-06
 ErrMax= 9.35D-06  0.00D+00 EMaxC= 1.00D-01 BMatC= 3.65D-08 BMatP= 7.26D-08
 IDIUse=1 WtCom= 1.00D+00 WtEn= 0.00D+00
 Coeff-Com:  0.111D-04-0.101D-03 0.301D-03 0.166D-02 0.761D-02-0.122D-01
 Coeff-Com: -0.748D-01-0.132D+00 0.475D+00 0.735D+00
 Coeff:      0.111D-04-0.101D-03 0.301D-03 0.166D-02 0.761D-02-0.122D-01
 Coeff:     -0.748D-01-0.132D+00 0.475D+00 0.735D+00
 Gap=     0.237 Goal=   None    Shift=    0.000
 RMSDP=1.97D-06 MaxDP=5.65D-05 DE=-3.57D-07 OVMax= 2.89D-04

 Cycle  11  Pass 1  IDiag  1:
 RMSU=  6.82D-07    CP:  9.90D-01  1.33D+00  9.57D-01  9.06D-01  1.43D+00
                    CP:  1.77D+00  1.62D+00  1.54D+00  1.59D+00  1.02D+00
 E= -1028.74398774326     Delta-E=       -0.000000090005 Rises=F Damp=F
 DIIS: error= 4.67D-06 at cycle  11 NSaved=  11.
 NSaved=11 IEnMin=11 EnMin= -1028.74398774326     IErMin=11 ErrMin= 4.67D-06
 ErrMax= 4.67D-06  0.00D+00 EMaxC= 1.00D-01 BMatC= 3.73D-09 BMatP= 3.65D-08
 IDIUse=1 WtCom= 1.00D+00 WtEn= 0.00D+00
 Coeff-Com:  0.301D-03-0.619D-03-0.113D-02-0.111D-02 0.557D-02 0.139D-01
 Coeff-Com: -0.194D-01-0.102D+00 0.372D-01 0.207D+00 0.860D+00
 Coeff:      0.301D-03-0.619D-03-0.113D-02-0.111D-02 0.557D-02 0.139D-01
 Coeff:     -0.194D-01-0.102D+00 0.372D-01 0.207D+00 0.860D+00
 Gap=     0.237 Goal=   None    Shift=    0.000
 RMSDP=7.03D-07 MaxDP=2.08D-05 DE=-9.00D-08 OVMax= 1.26D-04

 Cycle  12  Pass 1  IDiag  1:
 RMSU=  2.59D-07    CP:  9.90D-01  1.33D+00  9.57D-01  9.07D-01  1.43D+00
                    CP:  1.77D+00  1.63D+00  1.57D+00  1.71D+00  1.23D+00
                    CP:  1.14D+00
 E= -1028.74398775663     Delta-E=       -0.000000013368 Rises=F Damp=F
 DIIS: error= 1.51D-06 at cycle  12 NSaved=  12.
 NSaved=12 IEnMin=12 EnMin= -1028.74398775663     IErMin=12 ErrMin= 1.51D-06
 ErrMax= 1.51D-06  0.00D+00 EMaxC= 1.00D-01 BMatC= 1.06D-09 BMatP= 3.73D-09
 IDIUse=1 WtCom= 1.00D+00 WtEn= 0.00D+00
 Coeff-Com:  0.129D-03-0.251D-03-0.531D-03-0.899D-03 0.105D-02 0.823D-02
 Coeff-Com:  0.638D-02-0.209D-01-0.705D-01-0.947D-01 0.360D+00 0.812D+00
 Coeff:      0.129D-03-0.251D-03-0.531D-03-0.899D-03 0.105D-02 0.823D-02
 Coeff:      0.638D-02-0.209D-01-0.705D-01-0.947D-01 0.360D+00 0.812D+00
 Gap=     0.237 Goal=   None    Shift=    0.000
 RMSDP=3.72D-07 MaxDP=1.10D-05 DE=-1.34D-08 OVMax= 5.53D-05

 Cycle  13  Pass 1  IDiag  1:
 RMSU=  9.89D-08    CP:  9.90D-01  1.33D+00  9.57D-01  9.07D-01  1.43D+00
                    CP:  1.77D+00  1.63D+00  1.59D+00  1.78D+00  1.29D+00
                    CP:  1.39D+00  1.05D+00
 E= -1028.74398775934     Delta-E=       -0.000000002715 Rises=F Damp=F
 DIIS: error= 5.00D-07 at cycle  13 NSaved=  13.
 NSaved=13 IEnMin=13 EnMin= -1028.74398775934     IErMin=13 ErrMin= 5.00D-07
 ErrMax= 5.00D-07  0.00D+00 EMaxC= 1.00D-01 BMatC= 6.62D-11 BMatP= 1.06D-09
 IDIUse=1 WtCom= 1.00D+00 WtEn= 0.00D+00
 Coeff-Com: -0.147D-04 0.318D-04 0.576D-04-0.353D-04-0.270D-03-0.693D-04
 Coeff-Com:  0.333D-02 0.765D-02-0.121D-01-0.511D-01-0.429D-01 0.147D+00
 Coeff-Com:  0.949D+00
 Coeff:     -0.147D-04 0.318D-04 0.576D-04-0.353D-04-0.270D-03-0.693D-04
 Coeff:      0.333D-02 0.765D-02-0.121D-01-0.511D-01-0.429D-01 0.147D+00
 Coeff:      0.949D+00
 Gap=     0.237 Goal=   None    Shift=    0.000
 RMSDP=9.54D-08 MaxDP=2.09D-06 DE=-2.71D-09 OVMax= 1.23D-05

 Cycle  14  Pass 1  IDiag  1:
 RMSU=  3.64D-08    CP:  9.90D-01  1.33D+00  9.57D-01  9.07D-01  1.43D+00
                    CP:  1.77D+00  1.63D+00  1.59D+00  1.80D+00  1.31D+00
                    CP:  1.45D+00  1.21D+00  1.20D+00
 E= -1028.74398775955     Delta-E=       -0.000000000208 Rises=F Damp=F
 DIIS: error= 1.61D-07 at cycle  14 NSaved=  14.
 NSaved=14 IEnMin=14 EnMin= -1028.74398775955     IErMin=14 ErrMin= 1.61D-07
 ErrMax= 1.61D-07  0.00D+00 EMaxC= 1.00D-01 BMatC= 8.53D-12 BMatP= 6.62D-11
 IDIUse=1 WtCom= 1.00D+00 WtEn= 0.00D+00
 Coeff-Com: -0.139D-04 0.279D-04 0.582D-04 0.530D-04-0.170D-03-0.691D-03
 Coeff-Com:  0.512D-03 0.393D-02 0.291D-02-0.834D-02-0.408D-01-0.241D-01
 Coeff-Com:  0.325D+00 0.741D+00
 Coeff:     -0.139D-04 0.279D-04 0.582D-04 0.530D-04-0.170D-03-0.691D-03
 Coeff:      0.512D-03 0.393D-02 0.291D-02-0.834D-02-0.408D-01-0.241D-01
 Coeff:      0.325D+00 0.741D+00
 Gap=     0.237 Goal=   None    Shift=    0.000
 RMSDP=1.97D-08 MaxDP=5.94D-07 DE=-2.08D-10 OVMax= 2.17D-06

 Cycle  15  Pass 1  IDiag  1:
 RMSU=  1.18D-08    CP:  9.90D-01  1.33D+00  9.57D-01  9.07D-01  1.43D+00
                    CP:  1.77D+00  1.63D+00  1.59D+00  1.80D+00  1.31D+00
                    CP:  1.46D+00  1.23D+00  1.31D+00  1.10D+00
 E= -1028.74398775957     Delta-E=       -0.000000000023 Rises=F Damp=F
 DIIS: error= 7.23D-08 at cycle  15 NSaved=  15.
 NSaved=15 IEnMin=15 EnMin= -1028.74398775957     IErMin=15 ErrMin= 7.23D-08
 ErrMax= 7.23D-08  0.00D+00 EMaxC= 1.00D-01 BMatC= 1.28D-12 BMatP= 8.53D-12
 IDIUse=1 WtCom= 1.00D+00 WtEn= 0.00D+00
 Coeff-Com: -0.241D-05 0.432D-05 0.119D-04 0.321D-04-0.128D-04-0.287D-03
 Coeff-Com: -0.558D-03-0.148D-03 0.391D-02 0.852D-02-0.599D-02-0.473D-01
 Coeff-Com: -0.855D-01 0.207D+00 0.921D+00
 Coeff:     -0.241D-05 0.432D-05 0.119D-04 0.321D-04-0.128D-04-0.287D-03
 Coeff:     -0.558D-03-0.148D-03 0.391D-02 0.852D-02-0.599D-02-0.473D-01
 Coeff:     -0.855D-01 0.207D+00 0.921D+00
 Gap=     0.237 Goal=   None    Shift=    0.000
 RMSDP=1.24D-08 MaxDP=3.18D-07 DE=-2.25D-11 OVMax= 1.51D-06

 Cycle  16  Pass 1  IDiag  1:
 RMSU=  5.15D-09    CP:  9.90D-01  1.33D+00  9.57D-01  9.07D-01  1.43D+00
                    CP:  1.77D+00  1.63D+00  1.59D+00  1.80D+00  1.32D+00
                    CP:  1.46D+00  1.24D+00  1.38D+00  1.29D+00  1.19D+00
 E= -1028.74398775957     Delta-E=        0.000000000005 Rises=F Damp=F
 DIIS: error= 2.64D-08 at cycle  16 NSaved=  16.
 NSaved=16 IEnMin=15 EnMin= -1028.74398775957     IErMin=16 ErrMin= 2.64D-08
 ErrMax= 2.64D-08  0.00D+00 EMaxC= 1.00D-01 BMatC= 1.59D-13 BMatP= 1.28D-12
 IDIUse=1 WtCom= 1.00D+00 WtEn= 0.00D+00
 Coeff-Com:  0.510D-06-0.114D-05-0.148D-05 0.397D-05 0.722D-05-0.215D-04
 Coeff-Com: -0.191D-03-0.358D-03 0.633D-03 0.275D-02 0.207D-02-0.105D-01
 Coeff-Com: -0.459D-01-0.292D-01 0.257D+00 0.823D+00
 Coeff:      0.510D-06-0.114D-05-0.148D-05 0.397D-05 0.722D-05-0.215D-04
 Coeff:     -0.191D-03-0.358D-03 0.633D-03 0.275D-02 0.207D-02-0.105D-01
 Coeff:     -0.459D-01-0.292D-01 0.257D+00 0.823D+00
 Gap=     0.237 Goal=   None    Shift=    0.000
 RMSDP=3.70D-09 MaxDP=1.15D-07 DE= 4.55D-12 OVMax= 5.06D-07

 Error on total polarization charges =  0.00874
 SCF Done:  E(RwB97XD) =  -1028.74398776     A.U. after   16 cycles
            NFock= 16  Conv=0.37D-08     -V/T= 2.0045
 KE= 1.024102836911D+03 PE=-4.605363839127D+03 EE= 1.455806267900D+03
 Leave Link  502 at Mon Jul 13 18:48:28 2020, MaxMem=  7784628224 cpu:             869.0 elap:              87.8
 (Enter /gpfs/loomis/apps/avx/software/Gaussian/16-C.01_AVX/g16/l801.exe)
 DoSCS=F DFT=T ScalE2(SS,OS)=  1.000000  1.000000
 ExpMin= 1.22D-01 ExpMax= 1.11D+05 ExpMxC= 1.07D+03 IAcc=3 IRadAn=         5 AccDes= 0.00D+00
 HarFok:  IExCor=  205 AccDes= 0.00D+00 IRadAn=         5 IDoV=-2 UseB2=F ITyADJ=14
 ICtDFT= 12500011 ScaDFX=  1.000000  1.000000  1.000000  1.000000
 Largest valence mixing into a core orbital is  9.59D-05
 Largest core mixing into a valence orbital is  3.17D-05
 Range of M.O.s used for correlation:    21   273
 NBasis=   273 NAE=    59 NBE=    59 NFC=    20 NFV=     0
 NROrb=    253 NOA=    39 NOB=    39 NVA=   214 NVB=   214
 Leave Link  801 at Mon Jul 13 18:48:28 2020, MaxMem=  7784628224 cpu:               0.9 elap:               0.1
 (Enter /gpfs/loomis/apps/avx/software/Gaussian/16-C.01_AVX/g16/l914.exe)
 RHF ground state
 Keep R1, R2, and R3 ints in memory in canonical form, NReq=4262515490.
 FoFCou: FMM=F IPFlag=           0 FMFlag=           0 FMFlg1=           0
         NFxFlg=           0 DoJE=F BraDBF=F KetDBF=F FulRan=T
         wScrn=  0.000000 ICntrl=       600 IOpCl=  0 I1Cent=           0 NGrid=           0
         NMat0=    1 NMatS0=  37401 NMatT0=    0 NMatD0=    1 NMtDS0=    0 NMtDT0=    0
 Symmetry not used in FoFCou.
 Two-electron integral symmetry not used.
 MDV=  7784628224 DFT=T DoStab=F Mixed=T DoRPA=T DoScal=F NonHer=T
 NEqPCM:  Using equilibrium solvation (IEInf=0, Eps=   2.2280, EpsInf=   2.1319)
 Making orbital integer symmetry assigments:
    12 initial guesses have been made.
 Convergence on wavefunction:    0.000001000000000
 Davidson Disk Diagonalization:  ConvIn= 1.00D-06 SkipCon=T Conv= 1.00D-06.
 Max sub-space:  2000 roots to seek:    12 dimension of matrix:        16692
 Iteration     1 Dimension    12 NMult     0 NNew     12
 CISAX will form    12 AO SS matrices at one time.
 NMat=    12 NSing=    12 JSym2X= 0.
 New state      2 was old state      3
 New state      3 was old state      4
 Excitation Energies [eV] at current iteration:
 Root      1 :     3.436022992263446
 Root      2 :     3.742933005563925
 Root      3 :     4.852392357065288
 Root      4 :     5.157254113841804
 Root      5 :     5.171275322507063
 Root      6 :     5.706078012156602
 Root      7 :     5.899599321832581
 Root      8 :     6.314153334275658
 Root      9 :     6.460410391912384
 Root     10 :     6.707019080651039
 Root     11 :     6.934362225438332
 Root     12 :     7.176951493111969
 Iteration     2 Dimension    18 NMult    12 NNew      6
 CISAX will form     6 AO SS matrices at one time.
 NMat=     6 NSing=     6 JSym2X= 0.
 Root      1 not converged, maximum delta is    0.045752111416573
 Root      2 not converged, maximum delta is    0.110927292982996
 Root      3 not converged, maximum delta is    0.081832563674191
 Excitation Energies [eV] at current iteration:
 Root      1 :     2.917523553157235   Change is   -0.518499439106211
 Root      2 :     3.527269541771702   Change is   -0.215663463792222
 Root      3 :     4.397571062138558   Change is   -0.454821294926731
 Iteration     3 Dimension    24 NMult    18 NNew      6
 CISAX will form     6 AO SS matrices at one time.
 NMat=     6 NSing=     6 JSym2X= 0.
 Root      1 not converged, maximum delta is    0.016382012571073
 Root      2 not converged, maximum delta is    0.030023920041007
 Root      3 not converged, maximum delta is    0.028925667996846
 Excitation Energies [eV] at current iteration:
 Root      1 :     2.886609738370848   Change is   -0.030913814786387
 Root      2 :     3.506012440732928   Change is   -0.021257101038775
 Root      3 :     4.367945248575315   Change is   -0.029625813563243
 Iteration     4 Dimension    30 NMult    24 NNew      6
 CISAX will form     6 AO SS matrices at one time.
 NMat=     6 NSing=     6 JSym2X= 0.
 Root      1 not converged, maximum delta is    0.008625839972613
 Root      2 not converged, maximum delta is    0.009655912054182
 Root      3 not converged, maximum delta is    0.016214731045695
 Excitation Energies [eV] at current iteration:
 Root      1 :     2.881776793645727   Change is   -0.004832944725121
 Root      2 :     3.504078611985378   Change is   -0.001933828747550
 Root      3 :     4.361741449894682   Change is   -0.006203798680633
 Iteration     5 Dimension    36 NMult    30 NNew      6
 CISAX will form     6 AO SS matrices at one time.
 NMat=     6 NSing=     6 JSym2X= 0.
 Root      1 not converged, maximum delta is    0.001765898732671
 Root      2 not converged, maximum delta is    0.001396688972351
 Root      3 not converged, maximum delta is    0.008676569993364
 Excitation Energies [eV] at current iteration:
 Root      1 :     2.881131756118197   Change is   -0.000645037527529
 Root      2 :     3.503963438197935   Change is   -0.000115173787442
 Root      3 :     4.360376496332243   Change is   -0.001364953562439
 Iteration     6 Dimension    42 NMult    36 NNew      6
 CISAX will form     6 AO SS matrices at one time.
 NMat=     6 NSing=     6 JSym2X= 0.
 Root      1 not converged, maximum delta is    0.000383893705386
 Root      2 not converged, maximum delta is    0.000309132326737
 Root      3 not converged, maximum delta is    0.002210922161857
 Excitation Energies [eV] at current iteration:
 Root      1 :     2.881086624398911   Change is   -0.000045131719286
 Root      2 :     3.503958041604143   Change is   -0.000005396593793
 Root      3 :     4.360194939041559   Change is   -0.000181557290684
 Iteration     7 Dimension    48 NMult    42 NNew      6
 CISAX will form     6 AO SS matrices at one time.
 NMat=     6 NSing=     6 JSym2X= 0.
 Root      1 not converged, maximum delta is    0.000099315984426
 Root      2 not converged, maximum delta is    0.000126960019241
 Root      3 not converged, maximum delta is    0.000589380120922
 Excitation Energies [eV] at current iteration:
 Root      1 :     2.881083182634498   Change is   -0.000003441764413
 Root      2 :     3.503957569326600   Change is   -0.000000472277543
 Root      3 :     4.360172530467813   Change is   -0.000022408573746
 Iteration     8 Dimension    54 NMult    48 NNew      6
 CISAX will form     6 AO SS matrices at one time.
 NMat=     6 NSing=     6 JSym2X= 0.
 Root      1 not converged, maximum delta is    0.000025678044708
 Root      2 not converged, maximum delta is    0.000015245019402
 Root      3 not converged, maximum delta is    0.000250360099723
 Excitation Energies [eV] at current iteration:
 Root      1 :     2.881083039288357   Change is   -0.000000143346141
 Root      2 :     3.503957547588877   Change is   -0.000000021737723
 Root      3 :     4.360170043992775   Change is   -0.000002486475038
 Iteration     9 Dimension    60 NMult    54 NNew      6
 CISAX will form     6 AO SS matrices at one time.
 NMat=     6 NSing=     6 JSym2X= 0.
 Root      1 not converged, maximum delta is    0.000009351247116
 Root      2 not converged, maximum delta is    0.000003227599722
 Root      3 not converged, maximum delta is    0.000076645482985
 Excitation Energies [eV] at current iteration:
 Root      1 :     2.881083026183984   Change is   -0.000000013104373
 Root      2 :     3.503957546654553   Change is   -0.000000000934324
 Root      3 :     4.360169775645225   Change is   -0.000000268347550
 Iteration    10 Dimension    66 NMult    60 NNew      6
 CISAX will form     6 AO SS matrices at one time.
 NMat=     6 NSing=     6 JSym2X= 0.
 Root      1 not converged, maximum delta is    0.000002217848829
 Root      2 not converged, maximum delta is    0.000001898519214
 Root      3 not converged, maximum delta is    0.000034193527527
 Excitation Energies [eV] at current iteration:
 Root      1 :     2.881083025481202   Change is   -0.000000000702781
 Root      2 :     3.503957546567464   Change is   -0.000000000087088
 Root      3 :     4.360169728645380   Change is   -0.000000046999845
 Iteration    11 Dimension    72 NMult    66 NNew      6
 CISAX will form     6 AO SS matrices at one time.
 NMat=     6 NSing=     6 JSym2X= 0.
 Root      1 has converged.
 Root      2 has converged.
 Root      3 not converged, maximum delta is    0.000009850584216
 Excitation Energies [eV] at current iteration:
 Root      1 :     2.881083025437746   Change is   -0.000000000043457
 Root      2 :     3.503957546556461   Change is   -0.000000000011003
 Root      3 :     4.360169723980398   Change is   -0.000000004664982
 Iteration    12 Dimension    74 NMult    72 NNew      2
 CISAX will form     2 AO SS matrices at one time.
 NMat=     2 NSing=     2 JSym2X= 0.
 Root      1 has converged.
 Root      2 has converged.
 Root      3 not converged, maximum delta is    0.000002227000112
 Excitation Energies [eV] at current iteration:
 Root      1 :     2.881083025436975   Change is   -0.000000000000770
 Root      2 :     3.503957546556508   Change is    0.000000000000047
 Root      3 :     4.360169723558498   Change is   -0.000000000421901
 Iteration    13 Dimension    76 NMult    74 NNew      2
 CISAX will form     2 AO SS matrices at one time.
 NMat=     2 NSing=     2 JSym2X= 0.
 Root      1 has converged.
 Root      2 has converged.
 Root      3 has converged.
 Excitation Energies [eV] at current iteration:
 Root      1 :     2.881083025436947   Change is   -0.000000000000028
 Root      2 :     3.503957546556414   Change is   -0.000000000000094
 Root      3 :     4.360169723521392   Change is   -0.000000000037105
 Convergence achieved on expansion vectors.
 ***********************************************************************
 Excited states from <AA,BB:AA,BB> singles matrix:
 ***********************************************************************
 
 1PDM for each excited state written to RWF  633
 Ground to excited state transition densities written to RWF  633
 Ground to excited state transition electric dipole moments (Au):
       state          X           Y           Z        Dip. S.      Osc.
         1         1.1361     -2.2585     -0.0000      6.3917      0.4512
         2        -0.0000      0.0001     -0.0040      0.0000      0.0000
         3        -1.7149      1.0530      0.0000      4.0496      0.4326
 Ground to excited state transition velocity dipole moments (Au):
       state          X           Y           Z        Dip. S.      Osc.
         1        -0.1155      0.2412      0.0000      0.0715      0.4502
         2         0.0000     -0.0000      0.0004      0.0000      0.0000
         3         0.2696     -0.1580     -0.0000      0.0976      0.4062
 Ground to excited state transition magnetic dipole moments (Au):
       state          X           Y           Z
         1         0.0000      0.0000     -1.2060
         2         0.3913     -0.0108      0.0000
         3        -0.0000      0.0000     -0.8889
 Ground to excited state transition velocity quadrupole moments (Au):
       state          XX          YY          ZZ          XY          XZ          YZ
         1        -0.0332      0.6379     -0.0117     -0.2555     -0.0000      0.0000
         2         0.0000     -0.0000      0.0000      0.0000     -0.0057      0.0191
         3        -0.3884      0.4444      0.0015      0.0991     -0.0000      0.0000
 <0|del|b> * <b|rxdel|0> + <0|del|b> * <b|delr+rdel|0>
 Rotatory Strengths (R) in cgs (10**-40 erg-esu-cm/Gauss)
       state          XX          YY          ZZ    R(velocity)    E-M Angle
         1         0.0155     -0.0237      0.0229      0.0049       90.00
         2         0.0001      0.0037      0.0037      0.0025       90.00
         3        -0.0031      0.0015     -0.0073     -0.0030       90.00
 1/2[<0|r|b>*<b|rxdel|0> + (<0|rxdel|b>*<b|r|0>)*]
 Rotatory Strengths (R) in cgs (10**-40 erg-esu-cm/Gauss)
       state          XX          YY          ZZ     R(length)
         1        -0.0121      0.0578     -0.0302      0.0051
         2         0.0071      0.0004      0.0000      0.0025
         3        -0.0040     -0.0083      0.0037     -0.0029
  1/2[<0|del|b>*<b|r|0> + (<0|r|b>*<b|del|0>)*] (Au)
       state          X           Y           Z        Dip. S.   Osc.(frdel)
         1        -0.1312     -0.5447     -0.0000      0.6759      0.4506
         2        -0.0000     -0.0000     -0.0000      0.0000      0.0000
         3        -0.4623     -0.1664     -0.0000      0.6286      0.4191

 Excitation energies and oscillator strengths:
 
 Excited state symmetry could not be determined.
 Excited State   1:      Singlet-?Sym    2.8811 eV  430.34 nm  f=0.4512  <S**2>=0.000
      59 -> 60         0.69847
 This state for optimization and/or second-order correction.
 Total Energy, E(TD-HF/TD-DFT) =  -1028.63810991    
 Copying the excited state density for this state as the 1-particle RhoCI density.
 
 Excited state symmetry could not be determined.
 Excited State   2:      Singlet-?Sym    3.5040 eV  353.84 nm  f=0.0000  <S**2>=0.000
      58 -> 60         0.68338
      58 -> 62         0.11623
      58 -> 64         0.11625
 
 Excited state symmetry could not be determined.
 Excited State   3:      Singlet-?Sym    4.3602 eV  284.36 nm  f=0.4326  <S**2>=0.000
      57 -> 60         0.68230
 SavETr:  write IOETrn=   770 NScale= 10 NData=  16 NLR=1 NState=    3 LETran=      64.
 The selected state is a singlet.
 CISGrd: IGrad=2 NXY=2 DFT=T
 CISAX will form     1 AO SS matrices at one time.
 NMat=     1 NSing=     1 JSym2X= 0.
 GePol: Maximum number of non-zero 1st derivatives   =     271
 Leave Link  914 at Mon Jul 13 18:51:26 2020, MaxMem=  7784628224 cpu:            1753.3 elap:             177.9
 (Enter /gpfs/loomis/apps/avx/software/Gaussian/16-C.01_AVX/g16/l1002.exe)
 Minotr:  Closed shell wavefunction.
          Computing CIS/TDA/TD derivatives.
          Using Z-Vector for PSCF gradient.
          Skipping F1 and S1 gradient terms here.
          IDoAtm=1111111111111111111111111
 NEqPCM:  Using equilibrium solvation (IEInf=0, Eps=   2.2280, EpsInf=   2.1319)
          Frozen-core window.
          Direct CPHF calculation.
          Differentiating once with respect to electric field.
                with respect to dipole field.
          Differentiating once with respect to nuclear coordinates.
          Requested convergence is 1.0D-10 RMS, and 1.0D-09 maximum.
          NewPWx=F KeepS1=T KeepF1=T KeepIn=T MapXYZ=F SortEE=F KeepMc=T.
 Keep R1 ints in memory in canonical form, NReq=1421498713.
 FoFCou: FMM=F IPFlag=           0 FMFlag=           0 FMFlg1=           0
         NFxFlg=           0 DoJE=F BraDBF=F KetDBF=F FulRan=T
         wScrn=  0.000000 ICntrl=       600 IOpCl=  0 I1Cent=           0 NGrid=           0
         NMat0=    1 NMatS0=  37401 NMatT0=    0 NMatD0=    1 NMtDS0=    0 NMtDT0=    0
 Symmetry not used in FoFCou.
 Two-electron integral symmetry not used.
          MDV=    7784628224 using IRadAn=       5.
          Solving linear equations separately, MaxMat=       0.
          There are     1 degrees of freedom in the 1st order CPHF.  IDoFFX=0 NUNeed=     1.
 LinEq1:  Iter=  0 NonCon=     1 RMS=6.77D-03 Max=5.38D-01 NDo=     1
 AX will form     1 AO Fock derivatives at one time.
 LinEq1:  Iter=  1 NonCon=     1 RMS=3.13D-03 Max=1.73D-01 NDo=     1
 LinEq1:  Iter=  2 NonCon=     1 RMS=1.65D-03 Max=4.14D-02 NDo=     1
 LinEq1:  Iter=  3 NonCon=     1 RMS=7.52D-04 Max=2.07D-02 NDo=     1
 LinEq1:  Iter=  4 NonCon=     1 RMS=4.57D-04 Max=1.38D-02 NDo=     1
 LinEq1:  Iter=  5 NonCon=     1 RMS=2.22D-04 Max=7.16D-03 NDo=     1
 LinEq1:  Iter=  6 NonCon=     1 RMS=9.08D-05 Max=4.20D-03 NDo=     1
 LinEq1:  Iter=  7 NonCon=     1 RMS=4.81D-05 Max=1.65D-03 NDo=     1
 LinEq1:  Iter=  8 NonCon=     1 RMS=1.82D-05 Max=5.82D-04 NDo=     1
 LinEq1:  Iter=  9 NonCon=     1 RMS=8.59D-06 Max=2.19D-04 NDo=     1
 LinEq1:  Iter= 10 NonCon=     1 RMS=3.21D-06 Max=7.98D-05 NDo=     1
 LinEq1:  Iter= 11 NonCon=     1 RMS=1.61D-06 Max=6.41D-05 NDo=     1
 LinEq1:  Iter= 12 NonCon=     1 RMS=6.91D-07 Max=1.85D-05 NDo=     1
 LinEq1:  Iter= 13 NonCon=     1 RMS=3.57D-07 Max=1.21D-05 NDo=     1
 LinEq1:  Iter= 14 NonCon=     1 RMS=1.16D-07 Max=3.19D-06 NDo=     1
 LinEq1:  Iter= 15 NonCon=     1 RMS=5.89D-08 Max=1.56D-06 NDo=     1
 LinEq1:  Iter= 16 NonCon=     1 RMS=2.55D-08 Max=7.95D-07 NDo=     1
 LinEq1:  Iter= 17 NonCon=     1 RMS=1.29D-08 Max=3.86D-07 NDo=     1
 LinEq1:  Iter= 18 NonCon=     1 RMS=5.63D-09 Max=1.33D-07 NDo=     1
 LinEq1:  Iter= 19 NonCon=     1 RMS=2.41D-09 Max=6.89D-08 NDo=     1
 LinEq1:  Iter= 20 NonCon=     1 RMS=1.23D-09 Max=2.73D-08 NDo=     1
 LinEq1:  Iter= 21 NonCon=     1 RMS=3.98D-10 Max=1.26D-08 NDo=     1
 LinEq1:  Iter= 22 NonCon=     1 RMS=1.80D-10 Max=5.35D-09 NDo=     1
 LinEq1:  Iter= 23 NonCon=     1 RMS=7.52D-11 Max=2.00D-09 NDo=     1
 LinEq1:  Iter= 24 NonCon=     0 RMS=2.01D-11 Max=4.69D-10 NDo=     1
 Linear equations converged to 1.000D-10 1.000D-09 after    24 iterations.
 End of Minotr F.D. properties file   721 does not exist.
 End of Minotr F.D. properties file   722 does not exist.
 End of Minotr F.D. properties file   788 does not exist.
 Leave Link 1002 at Mon Jul 13 18:53:02 2020, MaxMem=  7784628224 cpu:             732.5 elap:              96.5
 (Enter /gpfs/loomis/apps/avx/software/Gaussian/16-C.01_AVX/g16/l601.exe)
 Copying SCF densities to generalized density rwf, IOpCl= 0 IROHF=0.

 **********************************************************************

            Population analysis using the SCF Density.

 **********************************************************************

 Alpha  occ. eigenvalues --  -89.11054 -19.20690 -14.50695 -10.42202 -10.37424
 Alpha  occ. eigenvalues --  -10.36640 -10.35829 -10.33692 -10.32930 -10.32669
 Alpha  occ. eigenvalues --  -10.32531 -10.31522 -10.31284 -10.30683 -10.29266
 Alpha  occ. eigenvalues --  -10.28300  -8.12938  -6.07832  -6.07459  -6.06941
 Alpha  occ. eigenvalues --   -1.14595  -1.09342  -0.98697  -0.95478  -0.93380
 Alpha  occ. eigenvalues --   -0.89164  -0.86803  -0.83959  -0.81036  -0.76702
 Alpha  occ. eigenvalues --   -0.75536  -0.72062  -0.69447  -0.67562  -0.65442
 Alpha  occ. eigenvalues --   -0.60747  -0.59716  -0.56683  -0.56191  -0.56034
 Alpha  occ. eigenvalues --   -0.54915  -0.53533  -0.53146  -0.50786  -0.49296
 Alpha  occ. eigenvalues --   -0.48718  -0.48517  -0.46894  -0.45419  -0.44834
 Alpha  occ. eigenvalues --   -0.44351  -0.42873  -0.42309  -0.40115  -0.36794
 Alpha  occ. eigenvalues --   -0.33773  -0.31579  -0.31414  -0.25768
 Alpha virt. eigenvalues --   -0.02046   0.03538   0.05700   0.05773   0.09374
 Alpha virt. eigenvalues --    0.10407   0.12316   0.14531   0.16165   0.17389
 Alpha virt. eigenvalues --    0.19031   0.20143   0.21134   0.21167   0.22946
 Alpha virt. eigenvalues --    0.23550   0.23867   0.25421   0.28741   0.30186
 Alpha virt. eigenvalues --    0.30604   0.33439   0.35599   0.35808   0.36533
 Alpha virt. eigenvalues --    0.38439   0.38806   0.39980   0.42169   0.44767
 Alpha virt. eigenvalues --    0.46447   0.48887   0.50052   0.51043   0.51268
 Alpha virt. eigenvalues --    0.52630   0.52820   0.53094   0.53892   0.55545
 Alpha virt. eigenvalues --    0.56142   0.56243   0.56412   0.56715   0.57526
 Alpha virt. eigenvalues --    0.57757   0.59180   0.59533   0.59606   0.60388
 Alpha virt. eigenvalues --    0.61231   0.61439   0.61656   0.62191   0.63222
 Alpha virt. eigenvalues --    0.64497   0.66430   0.67152   0.68602   0.69160
 Alpha virt. eigenvalues --    0.69942   0.70448   0.71894   0.71956   0.72737
 Alpha virt. eigenvalues --    0.74139   0.75006   0.75673   0.76275   0.78588
 Alpha virt. eigenvalues --    0.79127   0.79135   0.80915   0.82078   0.82742
 Alpha virt. eigenvalues --    0.84390   0.87213   0.89523   0.91318   0.92056
 Alpha virt. eigenvalues --    0.93277   0.94513   0.95992   0.96570   0.97224
 Alpha virt. eigenvalues --    0.98890   0.99487   1.00090   1.00336   1.00983
 Alpha virt. eigenvalues --    1.02414   1.04816   1.05455   1.06159   1.07140
 Alpha virt. eigenvalues --    1.07949   1.08475   1.10201   1.10888   1.11343
 Alpha virt. eigenvalues --    1.11578   1.12588   1.13471   1.14425   1.15939
 Alpha virt. eigenvalues --    1.17136   1.18063   1.20230   1.23922   1.24150
 Alpha virt. eigenvalues --    1.26325   1.27598   1.31554   1.31741   1.33886
 Alpha virt. eigenvalues --    1.34864   1.35614   1.38539   1.41119   1.44529
 Alpha virt. eigenvalues --    1.49168   1.49241   1.52974   1.54844   1.54858
 Alpha virt. eigenvalues --    1.56081   1.57009   1.57306   1.57467   1.59707
 Alpha virt. eigenvalues --    1.59844   1.62467   1.62498   1.64538   1.67624
 Alpha virt. eigenvalues --    1.68064   1.69761   1.70176   1.71338   1.71871
 Alpha virt. eigenvalues --    1.72081   1.72959   1.73690   1.74882   1.75193
 Alpha virt. eigenvalues --    1.77727   1.78924   1.80046   1.81414   1.82166
 Alpha virt. eigenvalues --    1.82874   1.83988   1.84368   1.85357   1.85893
 Alpha virt. eigenvalues --    1.86806   1.89676   1.90872   1.91795   1.92266
 Alpha virt. eigenvalues --    1.92683   1.93585   1.94909   1.96578   1.98212
 Alpha virt. eigenvalues --    2.00147   2.00861   2.02069   2.04695   2.05897
 Alpha virt. eigenvalues --    2.06502   2.07063   2.09512   2.09916   2.12343
 Alpha virt. eigenvalues --    2.17668   2.18822   2.22090   2.23713   2.27028
 Alpha virt. eigenvalues --    2.27291   2.29853   2.35165   2.37556   2.39583
 Alpha virt. eigenvalues --    2.40561   2.42522   2.46206   2.48446   2.49894
 Alpha virt. eigenvalues --    2.52179   2.52971   2.58129   2.60631   2.63495
 Alpha virt. eigenvalues --    2.66172   2.69342   2.72903   2.77332   2.79920
 Alpha virt. eigenvalues --    2.80946   2.81938   2.83740   2.87393   2.90412
 Alpha virt. eigenvalues --    2.93183   3.01169   3.16527   3.33751   3.47503
 Alpha virt. eigenvalues --    3.51946   3.56730   3.66752   3.85513
          Condensed to atoms (all electrons):
               1          2          3          4          5          6
     1  C    4.733896   0.478907   0.007201  -0.049196  -0.012354   0.515648
     2  C    0.478907   5.391818   0.279387  -0.071892  -0.066212  -0.008476
     3  C    0.007201   0.279387   4.852306   0.522561  -0.005011  -0.065959
     4  C   -0.049196  -0.071892   0.522561   4.807587   0.519884  -0.018518
     5  C   -0.012354  -0.066212  -0.005011   0.519884   4.716579   0.500902
     6  C    0.515648  -0.008476  -0.065959  -0.018518   0.500902   4.738216
     7  H    0.405096  -0.041974   0.008759  -0.000462   0.007988  -0.036892
     8  H   -0.000575   0.010261  -0.022446   0.393088  -0.040162   0.007126
     9  H    0.008234  -0.000226   0.007967  -0.038443   0.405591  -0.042701
    10  H   -0.042117   0.009551  -0.000653   0.008805  -0.042870   0.407334
    11  N    0.003790  -0.040536   0.431617  -0.053514   0.002625   0.000416
    12  S   -0.060441   0.338304  -0.132620   0.003087   0.000192   0.003624
    13  C   -0.000181   0.000851   0.014174  -0.000337   0.000014  -0.000002
    14  C   -0.000003  -0.000014   0.000254   0.000007  -0.000000  -0.000000
    15  C    0.000001  -0.000161   0.000822   0.000022  -0.000001   0.000000
    16  C    0.000000  -0.000001   0.000004   0.000000   0.000000   0.000000
    17  H   -0.000002   0.000043  -0.000006  -0.000000   0.000000  -0.000000
    18  C    0.000000   0.000010  -0.000055  -0.000002  -0.000000   0.000000
    19  C   -0.000000  -0.000000   0.000002  -0.000000   0.000000   0.000000
    20  H   -0.000000  -0.000000  -0.000000   0.000000  -0.000000  -0.000000
    21  H   -0.000000   0.000000  -0.000000  -0.000000  -0.000000  -0.000000
    22  H    0.000000  -0.000000  -0.000000  -0.000000  -0.000000  -0.000000
    23  C    0.003344  -0.054093  -0.095191   0.005989   0.000259  -0.000305
    24  O    0.000002  -0.000249  -0.001542   0.000129  -0.000001  -0.000000
    25  H    0.000217   0.015148  -0.018327  -0.019388  -0.000384  -0.000021
               7          8          9         10         11         12
     1  C    0.405096  -0.000575   0.008234  -0.042117   0.003790  -0.060441
     2  C   -0.041974   0.010261  -0.000226   0.009551  -0.040536   0.338304
     3  C    0.008759  -0.022446   0.007967  -0.000653   0.431617  -0.132620
     4  C   -0.000462   0.393088  -0.038443   0.008805  -0.053514   0.003087
     5  C    0.007988  -0.040162   0.405591  -0.042870   0.002625   0.000192
     6  C   -0.036892   0.007126  -0.042701   0.407334   0.000416   0.003624
     7  H    0.645981   0.000027  -0.000131  -0.011803  -0.000107  -0.006023
     8  H    0.000027   0.633178  -0.010987  -0.000123  -0.006119  -0.000249
     9  H   -0.000131  -0.010987   0.653518  -0.012029  -0.000103   0.000022
    10  H   -0.011803  -0.000123  -0.012029   0.655689   0.000004  -0.000117
    11  N   -0.000107  -0.006119  -0.000103   0.000004   5.782544  -0.043150
    12  S   -0.006023  -0.000249   0.000022  -0.000117  -0.043150  15.429456
    13  C    0.000006   0.000072  -0.000000  -0.000000  -0.031176  -0.062841
    14  C    0.000000   0.000001   0.000000  -0.000000   0.003188  -0.004278
    15  C   -0.000000  -0.000010   0.000000   0.000000  -0.000886   0.003374
    16  C   -0.000000  -0.000000  -0.000000   0.000000  -0.000091  -0.000057
    17  H    0.000000   0.000000  -0.000000  -0.000000   0.000245   0.004686
    18  C   -0.000000  -0.000000  -0.000000  -0.000000  -0.000653  -0.000061
    19  C    0.000000   0.000000   0.000000   0.000000   0.000043   0.000013
    20  H   -0.000000  -0.000000   0.000000   0.000000   0.000001  -0.000001
    21  H   -0.000000   0.000000  -0.000000   0.000000   0.000010   0.000003
    22  H    0.000000  -0.000000  -0.000000  -0.000000  -0.000000  -0.000000
    23  C    0.000126  -0.000636   0.000007   0.000003   0.500221   0.310196
    24  O    0.000000  -0.000253  -0.000000  -0.000000  -0.039941  -0.000209
    25  H    0.000007   0.001218  -0.000021  -0.000000   0.379734   0.005470
              13         14         15         16         17         18
     1  C   -0.000181  -0.000003   0.000001   0.000000  -0.000002   0.000000
     2  C    0.000851  -0.000014  -0.000161  -0.000001   0.000043   0.000010
     3  C    0.014174   0.000254   0.000822   0.000004  -0.000006  -0.000055
     4  C   -0.000337   0.000007   0.000022   0.000000  -0.000000  -0.000002
     5  C    0.000014  -0.000000  -0.000001   0.000000   0.000000  -0.000000
     6  C   -0.000002  -0.000000   0.000000   0.000000  -0.000000   0.000000
     7  H    0.000006   0.000000  -0.000000  -0.000000   0.000000  -0.000000
     8  H    0.000072   0.000001  -0.000010  -0.000000   0.000000  -0.000000
     9  H   -0.000000   0.000000   0.000000  -0.000000  -0.000000  -0.000000
    10  H   -0.000000  -0.000000   0.000000   0.000000  -0.000000  -0.000000
    11  N   -0.031176   0.003188  -0.000886  -0.000091   0.000245  -0.000653
    12  S   -0.062841  -0.004278   0.003374  -0.000057   0.004686  -0.000061
    13  C    5.499371   0.427828   0.182955  -0.005294  -0.043284  -0.039384
    14  C    0.427828   4.847862   0.015741   0.535830   0.401825  -0.063241
    15  C    0.182955   0.015741   4.720622  -0.057753   0.006751   0.469674
    16  C   -0.005294   0.535830  -0.057753   4.783469  -0.034417  -0.017999
    17  H   -0.043284   0.401825   0.006751  -0.034417   0.686350  -0.001020
    18  C   -0.039384  -0.063241   0.469674  -0.017999  -0.001020   4.898588
    19  C   -0.049126  -0.015615  -0.009604   0.469728   0.008551   0.490261
    20  H    0.009111  -0.036684  -0.000215   0.400100  -0.012437   0.008361
    21  H    0.015248  -0.000688  -0.022489   0.007668   0.000052   0.371075
    22  H   -0.001478   0.009199   0.008656  -0.046849  -0.000186  -0.038200
    23  C    0.336155  -0.099963  -0.075749   0.006800  -0.019219   0.011006
    24  O   -0.088574   0.006043   0.652295  -0.000174  -0.000071  -0.068873
    25  H   -0.045791  -0.000590  -0.009246   0.000063  -0.000072   0.004329
              19         20         21         22         23         24
     1  C   -0.000000  -0.000000  -0.000000   0.000000   0.003344   0.000002
     2  C   -0.000000  -0.000000   0.000000  -0.000000  -0.054093  -0.000249
     3  C    0.000002  -0.000000  -0.000000  -0.000000  -0.095191  -0.001542
     4  C   -0.000000   0.000000  -0.000000  -0.000000   0.005989   0.000129
     5  C    0.000000  -0.000000  -0.000000  -0.000000   0.000259  -0.000001
     6  C    0.000000  -0.000000  -0.000000  -0.000000  -0.000305  -0.000000
     7  H    0.000000  -0.000000  -0.000000   0.000000   0.000126   0.000000
     8  H    0.000000  -0.000000   0.000000  -0.000000  -0.000636  -0.000253
     9  H    0.000000   0.000000  -0.000000  -0.000000   0.000007  -0.000000
    10  H    0.000000   0.000000   0.000000  -0.000000   0.000003  -0.000000
    11  N    0.000043   0.000001   0.000010  -0.000000   0.500221  -0.039941
    12  S    0.000013  -0.000001   0.000003  -0.000000   0.310196  -0.000209
    13  C   -0.049126   0.009111   0.015248  -0.001478   0.336155  -0.088574
    14  C   -0.015615  -0.036684  -0.000688   0.009199  -0.099963   0.006043
    15  C   -0.009604  -0.000215  -0.022489   0.008656  -0.075749   0.652295
    16  C    0.469728   0.400100   0.007668  -0.046849   0.006800  -0.000174
    17  H    0.008551  -0.012437   0.000052  -0.000186  -0.019219  -0.000071
    18  C    0.490261   0.008361   0.371075  -0.038200   0.011006  -0.068873
    19  C    4.761619  -0.047712  -0.048064   0.402361  -0.000005   0.005373
    20  H   -0.047712   0.689332  -0.000182  -0.012448  -0.000343   0.000000
    21  H   -0.048064  -0.000182   0.681598  -0.012514  -0.000448   0.006479
    22  H    0.402361  -0.012448  -0.012514   0.677371   0.000013  -0.000094
    23  C   -0.000005  -0.000343  -0.000448   0.000013   5.140890  -0.018383
    24  O    0.005373   0.000000   0.006479  -0.000094  -0.018383   7.857389
    25  H   -0.000411  -0.000000   0.000008   0.000006   0.008020   0.084774
              25
     1  C    0.000217
     2  C    0.015148
     3  C   -0.018327
     4  C   -0.019388
     5  C   -0.000384
     6  C   -0.000021
     7  H    0.000007
     8  H    0.001218
     9  H   -0.000021
    10  H   -0.000000
    11  N    0.379734
    12  S    0.005470
    13  C   -0.045791
    14  C   -0.000590
    15  C   -0.009246
    16  C    0.000063
    17  H   -0.000072
    18  C    0.004329
[...]
 11,-0.00007206,-0.00000056,-0.00000039,-0.00010998,-0.00000083,0.00000
 106,-0.00048181,0.00000068,-0.00000005,-0.00019084,-0.00000005,0.00000
 041,-0.00000402,-0.00000008,-0.00000017,0.00002300,0.,0.00000001,-0.00
 003520,0.,0.,-0.00001606,0.,0.,0.00001398,0.,0.,0.00003160,0.00000050,
 -0.00000102,0.00227229,0.00000026,-0.00000024,-0.00045645,0.00000211,0
 .00000207,0.00143768,0.00000014,-0.00000910,-0.05456808,0.00000219,-0.
 00000099,-0.00512971,0.00001171,0.00003478,0.12398943,0.00015880,0.000
 07674,0.,-0.00047738,0.00020696,0.00000004,0.00037398,-0.00014640,-0.0
 0000003,-0.00008875,0.00007284,0.,0.00005345,-0.00007010,0.,0.00003383
 ,-0.00002339,0.,-0.00001393,-0.00000591,0.,0.00002880,0.00000479,0.,0.
 00000993,-0.00000294,0.,0.00002719,-0.00000220,0.,0.00062892,0.0005918
 0,0.00000015,-0.00090253,0.00122762,-0.00000041,-0.00813553,-0.0298911
 1,-0.00000200,-0.10807662,-0.10833519,-0.00000811,-0.00428417,0.003778
 82,-0.00000036,0.01095433,0.01831742,0.00000123,0.11266895,-0.00002060
 ,-0.00004451,-0.00000001,-0.00006994,0.00032698,-0.00000004,0.00014386
 ,0.00005896,-0.00000005,-0.00003252,0.00000540,0.,0.00000870,0.0000286
 6,0.,-0.00006630,0.00001351,0.,-0.00000119,0.00001292,0.,0.00000403,-0
 .00000449,0.,-0.00000605,0.00000065,0.,-0.00001063,0.00000326,0.,0.000
 06973,0.00029942,0.00000016,-0.00055305,-0.00000545,0.00000012,0.00143
 641,0.00042092,-0.00000038,-0.10678667,-0.28904680,-0.00001791,0.00066
 618,0.00187087,-0.00000055,-0.01391291,-0.01751889,-0.00000150,0.11466
 492,0.30532475,0.00000001,0.00000008,0.00004100,0.00000017,0.00000016,
 -0.00015966,0.00000038,-0.00000033,0.00056300,-0.00000022,0.00000003,0
 .00003433,0.00000002,-0.00000016,-0.00000252,0.00000007,0.00000006,-0.
 00001679,0.,0.,0.00003047,0.,0.,0.00003145,0.,0.,0.00000216,0.,0.,-0.0
 0001494,0.00000025,0.00000093,-0.00202439,-0.00000053,0.00000025,0.001
 01657,0.00000077,-0.00000217,0.00776479,-0.00000882,-0.00001749,-0.036
 52104,-0.00000066,0.00000027,0.00954290,-0.00000044,-0.00000139,0.0035
 1950,0.00000917,0.00001984,0.02153708,-0.00167980,0.00037696,0.0000002
 5,-0.00408429,-0.00409870,0.00000027,-0.00572707,0.01062585,-0.0000008
 9,0.00547506,-0.00039397,-0.00000006,-0.00035637,0.00218501,-0.0000000
 3,0.00114012,-0.00119503,0.00000002,-0.00012907,0.00008768,0.,0.000075
 84,0.00000764,-0.00000002,0.00010612,0.00001145,0.,0.00010304,-0.00005
 894,-0.00000005,0.01124480,0.00068358,0.00000148,0.00114434,-0.0033868
 6,-0.00000018,0.02679907,0.00891736,0.00000112,-0.03534784,0.02352662,
 0.00000060,-0.11974868,0.05925903,0.00000539,-0.02143953,-0.08510873,-
 0.00000645,-0.00062956,0.00057714,0.00000024,0.68272645,0.00081509,-0.
 00001164,-0.00000008,0.00044837,0.00040496,-0.00000006,0.00142405,-0.0
 0220747,0.00000018,-0.00151904,0.00011386,0.00000001,0.00019041,-0.000
 57183,0.,-0.00042357,0.00022634,0.,0.00001798,-0.00000426,0.,-0.000016
 73,-0.00000575,0.,-0.00002795,-0.00000368,0.,0.00000137,0.00001828,0.0
 0000002,-0.00130547,0.00025269,-0.00000042,0.00106410,-0.00032418,-0.0
 0000005,0.00822640,-0.03008883,-0.00000225,0.01006248,-0.00737403,-0.0
 0000016,0.06599267,-0.23381491,-0.00001293,-0.03595649,0.00694602,-0.0
 0000017,-0.00008742,0.00077755,0.00000009,0.06214304,0.66873985,0.0000
 0016,0.00000007,0.00025229,0.00000018,0.00000029,0.00059240,0.00000077
 ,-0.00000063,0.00128471,-0.00000038,0.,-0.00023259,0.00000006,-0.00000
 016,-0.00004636,-0.00000005,0.00000010,-0.00015292,0.,0.,0.00013445,0.
 ,0.,0.00010265,0.,0.,0.00002605,0.,0.,-0.00007780,-0.00000044,0.000001
 84,-0.00453395,0.00000002,-0.00000015,0.00221132,0.00000063,-0.0000022
 8,0.01311934,-0.00000025,0.00000070,-0.00491191,0.00000513,-0.00001332
 ,-0.06828893,-0.00000259,-0.00000132,0.00763859,0.00000011,0.00000023,
 -0.00221209,0.00000927,0.00004315,0.10837848,0.00187428,0.00028086,-0.
 00000025,0.00562580,0.00472893,-0.00000050,0.00857578,-0.01363314,0.00
 000058,-0.00751247,0.00049933,0.00000016,0.00053170,-0.00361997,0.0000
 0010,-0.00050768,0.00173986,-0.00000002,0.00010172,-0.00009900,-0.0000
 0003,-0.00000920,0.00001845,-0.00000002,-0.00008671,-0.00002973,-0.000
 00002,-0.00006142,0.00007059,0.00000006,-0.01188055,0.00788245,-0.0000
 0015,-0.00066900,0.00222339,-0.00000004,-0.01826200,-0.01302995,-0.000
 00117,0.06129831,-0.00697399,0.00000091,-0.05264992,0.02444491,-0.0000
 0070,-0.15676186,-0.02828552,-0.00000262,-0.00222570,0.00445638,0.0000
 0012,-0.32865751,-0.04958189,-0.00000478,0.66069958,0.00000861,0.00091
 482,-0.00000009,0.00264420,0.00114359,-0.00000001,0.00316498,-0.003766
 56,0.00000040,-0.00318258,0.00037765,0.00000004,0.00020433,-0.00238696
 ,0.00000006,0.00100991,0.00081857,-0.00000005,0.00000219,-0.00005171,0
 .,0.00001670,-0.00000085,0.,0.00002248,-0.00004621,0.,0.00001822,0.000
 03375,0.,0.00067037,0.00459841,-0.00000117,-0.00169495,0.00037013,0.00
 000012,-0.03046311,-0.00254863,-0.00000055,0.04521703,-0.05951655,-0.0
 0000381,0.00228549,0.02237640,0.00000017,-0.12160727,-0.31393099,-0.00
 001979,0.00347297,-0.00229549,-0.00000039,0.01872914,-0.12296486,-0.00
 000578,-0.05194884,0.72043327,0.,0.00000005,0.00013101,0.00000018,0.,-
 0.00027638,0.00000001,-0.00000019,-0.00103843,-0.00000018,0.00000003,0
 .00010664,0.,-0.00000014,0.00009016,0.00000006,0.00000003,0.00002763,0
 .,0.,-0.00006033,0.,0.,-0.00011991,0.,0.,-0.00000676,0.,0.,0.00000085,
 0.00000013,-0.00000023,0.00139925,-0.00000009,0.00000013,-0.00004981,-
 0.00000268,-0.00000036,-0.00114923,0.00000384,-0.00000480,0.00752684,0
 .00000068,0.00000276,0.00127914,-0.00000955,-0.00001921,-0.05701410,0.
 00000014,-0.00000031,0.00379082,-0.00000102,-0.00000624,-0.04926498,-0
 .00000003,0.00004501,0.11336476,0.00007769,-0.00009261,0.,-0.00011549,
 0.00010938,0.,-0.00001095,-0.00006208,0.,0.00001890,0.00000994,0.,0.00
 000290,0.00010164,0.,-0.00014640,-0.00001371,0.,0.00000430,0.00000796,
 0.,0.00000079,-0.00000485,0.,-0.00001085,0.00000540,0.,-0.00000835,0.0
 0000357,0.,-0.00014705,0.00036675,-0.00000001,0.00002867,0.00000699,0.
 ,0.00056157,0.00293019,0.00000018,-0.01334648,-0.00616878,-0.00000065,
 0.00062881,0.00033825,0.00000005,-0.34125484,-0.04322862,-0.00000615,0
 .00071072,0.00012860,0.00000002,0.00121378,-0.00220830,-0.00000025,-0.
 00655216,0.00276604,0.00000011,0.35876058,-0.00000556,0.00001310,0.,-0
 .00002953,-0.00009296,0.,0.00001415,0.00018439,-0.00000004,0.00005688,
 -0.00004843,0.,0.00001003,0.00003300,0.,0.00000881,-0.00002484,0.,-0.0
 0000088,-0.00000199,0.,0.00000084,0.00000159,0.,0.00000429,-0.00000375
 ,0.,0.00000318,-0.00000175,0.,0.00041725,-0.00040978,0.00000004,0.0000
 2533,0.00002860,-0.00000001,0.00270384,-0.00444699,-0.00000048,0.02461
 417,0.00650453,0.00000042,0.00046928,-0.00091457,0.00000008,-0.0427238
 1,-0.06550042,-0.00000277,-0.00023212,0.00087431,0.00000020,-0.0014758
 9,-0.00521610,-0.00000089,-0.02874417,0.00260128,-0.00000056,0.0456473
 0,0.06427361,0.,0.,0.00000499,-0.00000003,-0.00000002,0.00007059,0.000
 00001,0.00000008,0.00047419,0.00000003,0.,0.00005055,0.,0.00000001,-0.
 00005701,0.,0.,0.00000180,0.,0.,0.00001400,0.,0.,0.00003560,0.,0.,-0.0
 0001428,0.,0.,-0.00000941,0.00000003,0.00000001,-0.00001697,0.,-0.0000
 0002,-0.00009789,-0.00000006,-0.00000041,0.00406194,0.00000131,0.00000
 017,0.00485546,-0.00000002,-0.00000018,-0.00152679,-0.00000569,-0.0000
 0292,-0.03472203,0.,0.00000020,-0.00225354,0.00000006,-0.00000082,0.00
 655213,-0.00000224,-0.00000033,0.00672022,0.00000663,0.00000352,0.0214
 2155,-0.00010922,0.00002480,0.,0.00008308,0.00004699,0.,-0.00009560,0.
 00007572,0.00000001,0.00004344,0.00001198,0.,-0.00001988,-0.00003727,0
 .,0.00008547,0.00001476,0.,0.00000036,-0.00000392,0.,-0.00000506,0.000
 00073,0.,0.00000331,-0.00000048,0.,-0.00000220,-0.00000204,0.,0.000171
 03,-0.00019528,-0.00000005,-0.00026929,0.00010455,0.00000002,-0.002823
 47,0.00283052,0.00000014,0.00001961,0.00031834,0.,0.00897007,0.0188706
 6,0.00000157,-0.00595197,0.00087915,0.,0.00007546,-0.00010964,-0.00000
 002,-0.10459791,-0.10981006,-0.00000890,-0.00531639,-0.02821913,-0.000
 00226,-0.00046322,-0.00142134,-0.00000010,0.10688426,0.00004699,0.0000
 5415,0.00000004,-0.00011724,-0.00013181,0.00000003,0.00007307,0.000057
 46,-0.00000001,-0.00000950,-0.00000534,0.,0.00001295,-0.00003099,0.,0.
 00004258,-0.00001647,0.,-0.00000646,0.00000198,0.,0.00000754,0.0000034
 2,0.,0.00000715,-0.00000311,0.,0.00001103,-0.00000101,0.,-0.00019088,0
 .00025286,-0.00000005,0.00031806,-0.00022804,0.00000007,0.00396847,-0.
 00270870,-0.00000032,0.00050826,0.00028875,0.00000006,-0.01518726,-0.0
 1827527,-0.00000181,0.00005207,0.00140997,-0.00000039,-0.00007817,-0.0
 0004225,-0.00000003,-0.10789855,-0.29725383,-0.00002148,0.00286653,0.0
 0202816,-0.00000028,0.00010885,-0.00002119,0.00000008,0.11702962,0.311
 99130,0.00000001,-0.00000006,-0.00037033,-0.00000019,-0.00000006,-0.00
 030227,-0.00000017,0.00000021,0.00012173,0.00000015,-0.00000001,0.0000
 2710,0.,0.00000011,-0.00005868,-0.00000005,-0.00000004,0.00007727,0.,0
 .,-0.00002970,0.,0.,0.00003732,0.,0.,-0.00000823,0.,0.,0.00007785,-0.0
 0000013,-0.00000046,0.00071748,0.00000013,0.,-0.00083172,0.00000050,0.
 00000010,0.00222232,0.00000004,-0.00000013,-0.00004392,-0.00000246,-0.
 00000228,0.00436246,-0.00000007,-0.00000047,0.00552068,-0.00000005,-0.
 00000003,0.00017163,-0.00000841,-0.00002160,-0.03148210,0.00000032,0.0
 0000002,0.00458462,0.,0.00000003,-0.00049321,0.00000947,0.00002345,0.0
 2080415,0.00004264,-0.00001574,0.,0.00002247,0.00011207,-0.00000001,0.
 00019161,-0.00014042,-0.00000003,-0.00008922,0.00000263,0.,0.00001387,
 -0.00001079,0.,-0.00004968,0.00001451,0.,0.00000116,0.00000340,0.,0.00
 000569,-0.00000335,0.,-0.00000603,0.00000109,0.,-0.00000382,0.00000355
 ,0.,0.00017868,0.00048691,0.00000008,-0.00007529,0.00012165,-0.0000000
 4,-0.00049168,-0.00042350,-0.00000012,0.00007773,-0.00273961,-0.000000
 22,-0.00278076,-0.00386816,-0.00000029,0.01047649,-0.01151311,-0.00000
 086,0.00039838,-0.00053488,0.00000002,-0.01193681,0.02654578,0.0000019
 9,-0.16415135,0.13951297,0.00000917,0.00072033,0.00039588,0.00000009,0
 .00106103,-0.00035906,0.,0.16867332,0.00000218,0.00005864,0.,0.0001636
 6,0.00008901,-0.00000003,0.00020129,-0.00031456,-0.00000001,-0.0001836
 4,0.00001911,0.,0.00000848,-0.00014684,0.,0.00007620,0.00004968,0.,-0.
 00000180,-0.00000703,0.,0.00000123,0.00000505,0.,0.00000559,-0.0000028
 7,0.,0.00000501,-0.00000146,0.,-0.00030633,0.00005244,0.00000006,-0.00
 008166,0.00005833,0.,-0.00052089,0.00037936,0.00000004,-0.00329891,-0.
 00347771,-0.00000076,-0.00212444,0.00050433,-0.00000040,0.02024199,-0.
 01609099,-0.00000122,0.00089985,-0.00109464,-0.00000009,-0.00490094,0.
 00641317,0.00000030,0.13801416,-0.24076814,-0.00001469,-0.00012100,0.0
 0098511,0.00000042,0.00027641,0.00060526,0.00000027,-0.14858972,0.2520
 1214,0.,0.00000003,0.00000544,0.00000009,0.00000004,0.00007969,0.00000
 011,-0.00000014,0.00013139,-0.00000010,0.00000001,0.00000265,0.,-0.000
 00007,0.00000012,0.00000003,0.00000003,-0.00000526,0.,0.,0.00000700,0.
 ,0.,0.00001209,0.,0.,0.00000062,0.,0.,-0.00000932,0.00000001,0.0000001
 8,-0.00018459,-0.00000006,0.,-0.00010393,0.00000011,-0.00000014,-0.000
 78858,-0.00000031,-0.00000071,0.00618879,-0.00000049,-0.00000040,0.006
 51961,0.00000168,-0.00000125,0.00320944,0.00000008,-0.00000015,0.00052
 314,0.00000017,0.00000040,0.00328992,0.00000852,-0.00001482,-0.0336816
 7,0.00000006,0.00000039,-0.00412370,0.00000004,0.00000035,-0.00341064,
 -0.00000984,0.00001602,0.02347789,-0.00107071,-0.00757098,0.00000014,-
 0.00552406,0.02158273,-0.00000002,-0.05817798,0.02853787,0.00000069,0.
 00737751,-0.00223871,-0.00000018,-0.00131279,0.00561484,-0.00000013,-0
 .00598927,-0.00240403,0.00000007,0.00035192,-0.00063457,0.00000005,-0.
 00061799,-0.00008760,-0.00000002,0.00015637,-0.00006541,0.00000001,-0.
 00062877,-0.00023076,0.00000004,-0.36583647,-0.04944890,0.00000811,-0.
 04714062,-0.03889282,0.00000173,-0.15025710,0.06780610,0.00000274,-0.0
 3462717,0.03435786,0.00000082,0.04133294,0.00824160,0.00000048,-0.0047
 4980,-0.00940859,-0.00000029,0.00017496,0.00057637,-0.00000081,-0.0069
 4598,-0.00334602,-0.00000108,0.00107134,0.00343355,0.00000071,-0.00051
 136,0.00070928,-0.00000005,0.00054002,-0.00112236,0.00000021,0.0000166
 9,0.00003275,-0.00000021,0.65666475,-0.00062397,-0.00056946,-0.0000000
 8,0.02356936,-0.01586366,0.00000055,0.01660167,0.01170055,-0.00000124,
 0.00184180,-0.00586747,0.00000035,-0.00046906,-0.00120407,0.00000011,0
 .00156175,-0.00073605,-0.00000002,0.00015262,-0.00048019,0.00000003,-0
 .00040623,0.00005122,-0.00000003,0.00032227,-0.00044524,-0.00000002,-0
 .00023138,0.00002398,0.00000001,-0.03605888,-0.12703570,0.00000212,-0.
 00255230,-0.15897700,0.00000322,0.04310314,-0.17116010,-0.00000163,0.0
 2415774,0.00707389,0.00000044,0.01483165,-0.04872898,-0.00000120,-0.00
 372287,0.00140706,-0.00000107,-0.00141266,0.00050622,0.00000099,-0.014
 12067,-0.00124836,0.00000015,0.00918831,-0.00065034,-0.00000005,-0.000
 55369,0.00093863,0.00000007,0.00061534,-0.00062611,-0.00000049,0.00007
 673,0.00035625,0.00000028,-0.05300248,0.50006646,-0.00000010,0.0000002
 2,0.00080032,-0.00000074,-0.00000004,-0.00106113,0.00000007,-0.0000000
 9,0.00440960,0.00000003,0.00000031,0.00181952,0.00000001,-0.00000014,0
 .00123751,0.00000031,0.00000010,0.00061941,-0.00000001,0.00000002,-0.0
 0027860,0.00000002,-0.00000002,-0.00066156,-0.00000001,0.,-0.00043692,
 0.00000002,0.,-0.00020197,0.00000986,0.00000393,-0.02735806,0.00000091
 ,0.00000257,-0.01613908,0.00000006,-0.00000085,-0.03281344,-0.00000039
 ,0.00000125,0.00664639,0.00000159,-0.00000178,0.00316230,0.00000020,-0
 .00000128,0.00503783,0.00000014,0.00000028,-0.00355119,-0.00000089,0.0
 0000018,-0.00102657,0.00000056,0.00000030,-0.00048141,0.00000004,0.000
 00011,-0.00099833,0.,-0.00000026,0.00223748,0.00000008,0.00000005,-0.0
 0045327,-0.00001243,-0.00000474,0.06289037,-0.00033944,0.00124021,0.00
 000015,-0.00041830,0.00100876,-0.00000019,0.00654070,0.00010174,-0.000
 00054,-0.00044175,-0.00019089,0.00000010,0.00003216,-0.00086572,0.0000
 0007,0.00142122,0.00019212,-0.00000001,-0.00017141,0.00014288,-0.00000
 002,0.00031414,0.00007315,-0.00000009,0.00004909,0.00000356,-0.0000000
 2,0.00009199,0.00002205,-0.00000003,0.00751195,0.03175550,0.00000309,0
 .00068442,-0.00057828,-0.00000026,-0.03746509,-0.04460381,-0.00000329,
 0.00455855,-0.00516081,-0.00000036,-0.53166902,-0.06954021,-0.00001469
 ,-0.01058652,-0.00545036,-0.00000071,-0.00172316,-0.00076712,0.0000000
 5,-0.09004611,0.02783137,-0.00000005,0.01588459,0.01333899,0.00000087,
 -0.00023346,-0.00044679,0.00000001,0.00173383,-0.00010128,0.00000080,-
 0.00243910,0.00027069,0.00000010,-0.01835486,0.00690892,-0.00000026,0.
 65264898,-0.00064391,-0.00037409,0.,0.00066191,-0.00300512,0.00000037,
 -0.00831439,-0.00085931,0.00000015,0.00095167,-0.00032368,-0.00000006,
 -0.00001080,0.00067315,-0.00000003,0.00005189,-0.00051281,0.00000001,0
 .00011024,-0.00021479,0.00000003,0.00007439,0.00002771,0.,0.00010876,-
 0.00006668,0.,0.00002970,-0.00004248,0.,0.01680084,-0.03959181,-0.0000
 0445,0.00029655,0.00035428,0.00000018,-0.04312555,-0.01012562,-0.00000
 133,-0.00266010,-0.00994767,-0.00000114,-0.06928023,-0.09832742,-0.000
 00442,0.00088442,-0.00267567,-0.00000002,-0.00232088,-0.00014653,-0.00
 000024,0.03958701,0.01742013,-0.00000005,0.00220345,-0.00238987,-0.000
 00074,-0.00005817,0.00038107,0.00000016,-0.00154837,0.00283969,0.00000
 107,0.00155967,0.00027456,0.00000011,0.00385416,0.01030538,0.00000048,
 0.06775191,0.14582960,-0.00000019,-0.00000005,0.00023850,0.00000011,-0
 .00000065,-0.00042628,-0.00000143,0.00000017,-0.00063501,0.00000027,0.
 ,0.00021029,-0.00000004,0.00000009,0.00022234,0.00000010,-0.00000011,0
 .00006967,0.00000002,-0.00000003,-0.00010805,0.,0.,-0.00026713,0.00000
 002,0.,-0.00003875,0.,0.,-0.00007413,0.00000228,-0.00000536,0.01220103
 ,0.00000002,0.00000006,-0.00171097,-0.00000255,-0.00000309,0.01628228,
 -0.00000010,-0.00000074,0.00253489,-0.00001448,-0.00000428,-0.05561983
 ,-0.00000048,-0.00000058,0.00001384,-0.00000004,0.00000011,-0.00176952
 ,-0.00000019,0.00000082,0.01801921,0.00000106,0.00000050,0.00368510,0.
 ,0.,0.00015146,0.00000006,0.00000058,-0.00388247,0.00000006,0.00000003
 ,-0.00058239,0.00000041,0.00000087,-0.00245849,0.00001674,0.00001054,0
 .02092093,0.00134033,0.00061421,-0.00000003,-0.00367984,0.00495133,-0.
 00000019,0.01403281,0.02451837,-0.00000092,0.00105148,0.00100951,-0.00
 000006,-0.00015867,-0.00018348,0.00000002,-0.00032082,-0.00006803,0.00
 000002,-0.00021652,0.00030791,-0.00000002,-0.00108271,-0.00061475,0.00
 000002,0.00000775,-0.00001800,0.,-0.00004549,-0.00007610,0.,-0.1227520
 9,-0.15025637,0.00000512,-0.00423297,-0.00245575,0.00000004,0.00202820
 ,-0.00054158,-0.00000048,-0.00025689,-0.00000631,0.00000001,-0.0108021
 1,0.00335168,0.00000039,0.00044675,-0.00007413,-0.00000009,0.00025964,
 0.00013918,0.00000020,0.00129790,-0.00048018,0.00000043,-0.00035919,0.
 00059770,-0.00000011,0.00007158,-0.00000042,0.00000003,-0.00001679,0.0
 0001761,-0.00000007,0.00014366,-0.00007016,0.,-0.00594157,-0.02977709,
 0.00000094,0.00241662,-0.00696416,-0.00000162,0.12676894,0.00032169,-0
 .00031952,0.00000011,0.00299149,0.00262596,-0.00000002,0.00333768,-0.0
 2037900,0.00000070,-0.00301397,0.00260704,0.,-0.00030514,-0.00166195,0
 .00000005,-0.00022920,0.00100992,-0.00000005,0.00004672,0.00009761,0.,
 0.00070922,-0.00054426,-0.00000002,-0.00021562,0.00017283,-0.00000001,
 -0.00004862,0.00009122,-0.00000002,-0.14332339,-0.39240420,0.00001493,
 0.00296211,0.00798878,-0.00000019,-0.00747697,0.00493587,0.00000129,0.
 00599779,-0.00344240,-0.00000025,0.02291397,0.00642287,0.00000148,-0.0
 0364985,0.00659426,0.00000066,-0.00070623,-0.00032534,-0.00000059,-0.0
 0407926,-0.00022312,-0.00000077,-0.00267136,-0.00437887,-0.00000019,-0
 .00001903,-0.00013646,-0.00000002,0.00024798,-0.00018887,0.00000033,-0
 .00063852,0.00004183,-0.00000014,-0.00629389,0.00116308,-0.00000062,-0
 .02293657,-0.00950203,0.00000114,0.15607899,0.39975475,-0.00000002,0.0
 0000019,0.00059444,0.00000003,0.00000033,0.00345467,0.00000104,0.00000
 064,0.00113771,-0.00000006,-0.00000006,-0.00165673,-0.00000001,-0.0000
 0013,-0.00057405,0.00000013,0.00000004,-0.00002782,-0.00000003,0.00000
 002,-0.00007483,-0.00000002,-0.00000001,0.00031801,0.,0.,0.00011959,0.
 ,0.,0.00002310,0.00000464,0.00001538,-0.01576995,0.00000006,0.00000022
 ,0.00375513,0.00000006,-0.00000043,-0.00210881,-0.00000052,0.00000004,
 -0.00017233,0.00000127,0.00000109,0.00098902,0.00000009,-0.00000031,0.
 00009249,-0.00000006,0.,-0.00004316,-0.00000066,-0.00000010,0.00062868
 ,0.00000016,0.00000014,0.00043597,-0.00000001,0.,-0.00010133,0.0000000
 2,0.,-0.00004881,-0.00000005,0.00000002,-0.00010441,-0.00000099,0.0000
 0137,-0.00094070,-0.00000145,-0.00000063,-0.00697652,-0.00000363,-0.00
 001781,0.01705065\\0.00265486,0.00339897,-0.00000007,0.00482541,0.0064
 1733,0.00000005,0.00813299,-0.00065592,-0.00000022,-0.00167438,0.00273
 490,0.00000011,0.00017174,-0.00049027,0.,0.00254674,0.00256991,-0.0000
 0009,0.00007758,0.00039109,-0.00000014,0.00006524,0.00014036,0.0000000
 2,0.00001871,0.00027121,0.,0.00021563,0.00023556,-0.00000005,-0.014313
 63,0.00755601,0.00000368,0.00214851,0.00388614,-0.00000116,-0.00809882
 ,0.00403236,0.00000088,0.00628658,0.00043646,0.00000002,0.01349709,0.0
 0212884,-0.00000645,-0.00249971,0.00862449,-0.00000014,0.00001843,0.00
 011236,0.00000003,-0.00202091,0.00052845,0.00000265,-0.00360092,0.0007
 6920,0.00000033,-0.00015879,0.00029857,0.00000021,0.00002341,-0.000030
 87,-0.00000012,-0.00034404,0.00002439,0.,-0.00899676,-0.00610653,0.000
 00059,-0.00659543,-0.01152901,0.00000151,0.00762046,-0.02574401,-0.000
 00163\\\@
 The archive entry for this job was punched.


 SUCCESS IS NEVER CERTAIN,
 FAILURE IS NEVER FINAL.
 Job cpu time:       0 days  2 hours 50 minutes 38.7 seconds.
 Elapsed time:       0 days  0 hours 17 minutes 37.2 seconds.
 File lengths (MBytes):  RWF=   1380 Int=      0 D2E=      0 Chk=     48 Scr=      8
 Normal termination of Gaussian 16 at Mon Jul 13 19:43:06 2020.
