 Entering Gaussian System, Link 0=g16
 Initial command:
 /gpfs/loomis/apps/avx/software/Gaussian/16-C.01_AVX/g16/l1.exe "/home/fas/batista/pev4/scratch60/gauss-scratch/Gau-206273.inp" -scrdir="/home/fas/batista/pev4/scratch60/gauss-scratch/"
 Entering Link 1 = /gpfs/loomis/apps/avx/software/Gaussian/16-C.01_AVX/g16/l1.exe PID=    206275.
  
 Copyright (c) 1988-2019, Gaussian, Inc.  All Rights Reserved.
  
 This is part of the Gaussian(R) 16 program.  It is based on
 the Gaussian(R) 09 system (copyright 2009, Gaussian, Inc.),
 the Gaussian(R) 03 system (copyright 2003, Gaussian, Inc.),
 the Gaussian(R) 98 system (copyright 1998, Gaussian, Inc.),
 the Gaussian(R) 94 system (copyright 1995, Gaussian, Inc.),
 the Gaussian 92(TM) system (copyright 1992, Gaussian, Inc.),
 the Gaussian 90(TM) system (copyright 1990, Gaussian, Inc.),
 the Gaussian 88(TM) system (copyright 1988, Gaussian, Inc.),
 the Gaussian 86(TM) system (copyright 1986, Carnegie Mellon
 University), and the Gaussian 82(TM) system (copyright 1983,
 Carnegie Mellon University). Gaussian is a federally registered
 trademark of Gaussian, Inc.
  
 This software contains proprietary and confidential information,
 including trade secrets, belonging to Gaussian, Inc.
  
 This software is provided under written license and may be
 used, copied, transmitted, or stored only in accord with that
 written license.
  
 The following legend is applicable only to US Government
 contracts under FAR:
  
                    RESTRICTED RIGHTS LEGEND
  
 Use, reproduction and disclosure by the US Government is
 subject to restrictions as set forth in subparagraphs (a)
 and (c) of the Commercial Computer Software - Restricted
 Rights clause in FAR 52.227-19.
  
 Gaussian, Inc.
 340 Quinnipiac St., Bldg. 40, Wallingford CT 06492
  
  
 ---------------------------------------------------------------
 Warning -- This program may not be used in any manner that
 competes with the business of Gaussian, Inc. or will provide
 assistance to any competitor of Gaussian, Inc.  The licensee
 of this program is prohibited from giving any competitor of
 Gaussian, Inc. access to this program.  By using this program,
 the user acknowledges that Gaussian, Inc. is engaged in the
 business of creating and licensing software in the field of
 computational chemistry and represents and warrants to the
 licensee that it is not a competitor of Gaussian, Inc. and that
 it will not use this program in any manner prohibited above.
 ---------------------------------------------------------------
  

 Cite this work as:
 Gaussian 16, Revision C.01,
 M. J. Frisch, G. W. Trucks, H. B. Schlegel, G. E. Scuseria, 
 M. A. Robb, J. R. Cheeseman, G. Scalmani, V. Barone, 
 G. A. Petersson, H. Nakatsuji, X. Li, M. Caricato, A. V. Marenich, 
 J. Bloino, B. G. Janesko, R. Gomperts, B. Mennucci, H. P. Hratchian, 
 J. V. Ortiz, A. F. Izmaylov, J. L. Sonnenberg, D. Williams-Young, 
 F. Ding, F. Lipparini, F. Egidi, J. Goings, B. Peng, A. Petrone, 
 T. Henderson, D. Ranasinghe, V. G. Zakrzewski, J. Gao, N. Rega, 
 G. Zheng, W. Liang, M. Hada, M. Ehara, K. Toyota, R. Fukuda, 
 J. Hasegawa, M. Ishida, T. Nakajima, Y. Honda, O. Kitao, H. Nakai, 
 T. Vreven, K. Throssell, J. A. Montgomery, Jr., J. E. Peralta, 
 F. Ogliaro, M. J. Bearpark, J. J. Heyd, E. N. Brothers, K. N. Kudin, 
 V. N. Staroverov, T. A. Keith, R. Kobayashi, J. Normand, 
 K. Raghavachari, A. P. Rendell, J. C. Burant, S. S. Iyengar, 
 J. Tomasi, M. Cossi, J. M. Millam, M. Klene, C. Adamo, R. Cammi, 
 J. W. Ochterski, R. L. Martin, K. Morokuma, O. Farkas, 
 J. B. Foresman, and D. J. Fox, Gaussian, Inc., Wallingford CT, 2019.
 
 ******************************************
 Gaussian 16:  ES64L-G16RevC.01  3-Jul-2019
                13-Jul-2020 
 ******************************************
 %chk=config_10_12.chk
 %mem=58GB
 %nprocshared=10
 Will use up to   10 processors via shared memory.
 ----------------------------------------------------------------------
 #p opt=addgic freq td wb97xd/cc-pvdz nosymm int=ultrafine scrf=(solven
 t=CarbonTetraChloride)
 ----------------------------------------------------------------------
 1/18=20,19=15,26=6,38=1,145=903/1,3;
 2/9=110,12=2,15=1,17=6,18=5,40=1/2;
 3/5=16,11=9,25=1,30=1,70=2201,71=1,72=11,74=-58,75=-5/1,2,3,8;
 4//1;
 5/5=2,38=5,53=11/2;
 8/6=1,10=1/1;
 9/15=2,42=1,70=2/14;
 10/5=4,31=1/2;
 6/7=2,8=2,9=2,10=2/1;
 7/12=6,13=5,30=1/1,2,3,16;
 1/18=20,19=15,26=6,145=903/3(2);
 2/9=110,15=1/2;
 99//99;
 2/9=110,15=1/2;
 3/5=16,11=9,25=1,30=1,70=2205,71=1,72=11,74=-58,75=-5/1,2,3,8;
 4/5=5,16=3,69=1/1;
 5/5=2,38=5,53=11/2;
 8/6=1,10=1/1;
 9/15=2,42=1,49=4,70=2/14;
 10/5=4,31=1/2;
 7/12=6,13=5,30=1/1,2,3,16;
 1/18=20,19=15,26=6,145=903/3(-8);
 2/9=110,15=1/2;
 6/7=2,8=2,9=2,10=2/1;
 99/9=10/99;
 Leave Link    1 at Mon Jul 13 16:06:55 2020, MaxMem=  7784628224 cpu:               3.5 elap:               0.4
 (Enter /gpfs/loomis/apps/avx/software/Gaussian/16-C.01_AVX/g16/l101.exe)
 ------------------------------------------------
 NM 2D-scan of HBT TD-WB97XD pVDZ in CTC Relaxed.
 ------------------------------------------------
 Symbolic Z-matrix:
 Charge =  0 Multiplicity = 1
 C                     1.60621  -3.25356  -0.00002 
 C                     1.00682  -1.99453  -0.00002 
 C                     1.7635   -0.79236  -0.00002 
 C                     3.15943  -0.87852  -0.00003 
 C                     3.7558   -2.14021  -0.00002 
 C                     2.99794  -3.31838  -0.00002 
 H                     0.99617  -4.15962  -0.00002 
 H                     3.76681   0.02906  -0.00003 
 H                     4.84575  -2.20544  -0.00002 
 H                     3.49656  -4.28917  -0.00002 
 N                     0.9633    0.34029  -0.00003 
 S                    -0.71454  -1.66745  -0.00002 
 C                    -1.35788   1.05362   0.00001 
 C                    -2.71498   0.77816   0.00001 
 C                    -0.87706   2.45405   0.00003 
 C                    -3.6542    1.8402    0.00003 
 H                    -3.07637  -0.25351  0. 
 C                    -1.86975   3.48223   0.00005 
 C                    -3.23486   3.17296   0.00004 
 H                    -4.71989   1.60143   0.00003 
 H                    -1.51152   4.51381   0.00007 
 H                    -3.97564   3.97404   0.00006 
 C                    -0.36327   0.03658  -0.00002 
 O                     0.36529   2.68022   0.00005 
 H                     1.07196   1.18029   0. 
 
 Initializing the GIC definitions file.
 Number of initial coordinates =   134
 Number of input entries/lines =    52
 Number of additional coordinates =     2
 Number of removed coordinates =     0
 Number of frozen coordinates =     2
 Number of final active and frozen coordinates =   136
 ITRead=  0  0  0  0  0  0  0  0  0  0  0  0  0  0  0  0  0  0  0  0
 ITRead=  0  0  0  0  0
 MicOpt= -1 -1 -1 -1 -1 -1 -1 -1 -1 -1 -1 -1 -1 -1 -1 -1 -1 -1 -1 -1
 MicOpt= -1 -1 -1 -1 -1
 NAtoms=     25 NQM=       25 NQMF=       0 NMMI=      0 NMMIF=      0
                NMic=       0 NMicF=      0.
                    Isotopes and Nuclear Properties:
 (Nuclear quadrupole moments (NQMom) in fm**2, nuclear magnetic moments (NMagM)
  in nuclear magnetons)

  Atom         1           2           3           4           5           6           7           8           9          10
 IAtWgt=          12          12          12          12          12          12           1           1           1           1
 AtmWgt=  12.0000000  12.0000000  12.0000000  12.0000000  12.0000000  12.0000000   1.0078250   1.0078250   1.0078250   1.0078250
 NucSpn=           0           0           0           0           0           0           1           1           1           1
 AtZEff=  -0.0000000  -0.0000000  -0.0000000  -0.0000000  -0.0000000  -0.0000000  -0.0000000  -0.0000000  -0.0000000  -0.0000000
 NQMom=    0.0000000   0.0000000   0.0000000   0.0000000   0.0000000   0.0000000   0.0000000   0.0000000   0.0000000   0.0000000
 NMagM=    0.0000000   0.0000000   0.0000000   0.0000000   0.0000000   0.0000000   2.7928460   2.7928460   2.7928460   2.7928460
 AtZNuc=   6.0000000   6.0000000   6.0000000   6.0000000   6.0000000   6.0000000   1.0000000   1.0000000   1.0000000   1.0000000

  Atom        11          12          13          14          15          16          17          18          19          20
 IAtWgt=          14          32          12          12          12          12           1          12          12           1
 AtmWgt=  14.0030740  31.9720718  12.0000000  12.0000000  12.0000000  12.0000000   1.0078250  12.0000000  12.0000000   1.0078250
 NucSpn=           2           0           0           0           0           0           1           0           0           1
 AtZEff=  -0.0000000  -0.0000000  -0.0000000  -0.0000000  -0.0000000  -0.0000000  -0.0000000  -0.0000000  -0.0000000  -0.0000000
 NQMom=    2.0440000   0.0000000   0.0000000   0.0000000   0.0000000   0.0000000   0.0000000   0.0000000   0.0000000   0.0000000
 NMagM=    0.4037610   0.0000000   0.0000000   0.0000000   0.0000000   0.0000000   2.7928460   0.0000000   0.0000000   2.7928460
 AtZNuc=   7.0000000  16.0000000   6.0000000   6.0000000   6.0000000   6.0000000   1.0000000   6.0000000   6.0000000   1.0000000

  Atom        21          22          23          24          25
 IAtWgt=           1           1          12          16           1
 AtmWgt=   1.0078250   1.0078250  12.0000000  15.9949146   1.0078250
 NucSpn=           1           1           0           0           1
 AtZEff=  -0.0000000  -0.0000000  -0.0000000  -0.0000000  -0.0000000
 NQMom=    0.0000000   0.0000000   0.0000000   0.0000000   0.0000000
 NMagM=    2.7928460   2.7928460   0.0000000   0.0000000   2.7928460
 AtZNuc=   1.0000000   1.0000000   6.0000000   8.0000000   1.0000000
 Leave Link  101 at Mon Jul 13 16:06:58 2020, MaxMem=  7784628224 cpu:              32.3 elap:               3.3
 (Enter /gpfs/loomis/apps/avx/software/Gaussian/16-C.01_AVX/g16/l103.exe)

 GradGradGradGradGradGradGradGradGradGradGradGradGradGradGradGradGradGrad
 Berny optimization.
 Initialization pass.
                           ----------------------------
                           !    Initial Parameters    !
                           ! (Angstroms and Degrees)  !
 --------------------------                            --------------------------
 ! Name  Definition              Value          Derivative Info.                !
 --------------------------------------------------------------------------------
 ! R1    R(1,2)                  1.3944         estimate D2E/DX2                !
 ! R2    R(1,6)                  1.3932         estimate D2E/DX2                !
 ! R3    R(1,7)                  1.0923         estimate D2E/DX2                !
 ! R4    R(2,3)                  1.4205         estimate D2E/DX2                !
 ! R5    R(2,12)                 1.7522         estimate D2E/DX2                !
 ! R6    R(3,4)                  1.3986         estimate D2E/DX2                !
 ! R7    R(3,11)                 1.3868         estimate D2E/DX2                !
 ! R8    R(4,5)                  1.3955         estimate D2E/DX2                !
 ! R9    R(4,8)                  1.0921         estimate D2E/DX2                !
 ! R10   R(5,6)                  1.4009         estimate D2E/DX2                !
 ! R11   R(5,9)                  1.0919         estimate D2E/DX2                !
 ! R12   R(6,10)                 1.0914         estimate D2E/DX2                !
 ! R13   R(11,23)                1.3609         estimate D2E/DX2                !
 ! R14   R(11,25)                0.847          estimate D2E/DX2                !
 ! R15   R(12,23)                1.7399         estimate D2E/DX2                !
 ! R16   R(13,14)                1.3848         estimate D2E/DX2                !
 ! R17   R(13,15)                1.4807         estimate D2E/DX2                !
 ! R18   R(13,23)                1.4225         estimate D2E/DX2                !
 ! R19   R(14,16)                1.4178         estimate D2E/DX2                !
 ! R20   R(14,17)                1.0931         estimate D2E/DX2                !
 ! R21   R(15,18)                1.4292         estimate D2E/DX2                !
 ! R22   R(15,24)                1.2628         estimate D2E/DX2                !
 ! R23   R(16,19)                1.3972         estimate D2E/DX2                !
 ! R24   R(16,20)                1.0921         estimate D2E/DX2                !
 ! R25   R(18,19)                1.3997         estimate D2E/DX2                !
 ! R26   R(18,21)                1.092          estimate D2E/DX2                !
 ! R27   R(19,22)                1.0911         estimate D2E/DX2                !
 ! A1    A(2,1,6)              118.1244         estimate D2E/DX2                !
 ! A2    A(2,1,7)              120.5903         estimate D2E/DX2                !
 ! A3    A(6,1,7)              121.2853         estimate D2E/DX2                !
 ! A4    A(1,2,3)              122.3548         estimate D2E/DX2                !
 ! A5    A(1,2,12)             126.2167         estimate D2E/DX2                !
 ! A6    A(3,2,12)             111.4285         estimate D2E/DX2                !
 ! A7    A(2,3,4)              118.6556         estimate D2E/DX2                !
 ! A8    A(2,3,11)             112.572          estimate D2E/DX2                !
 ! A9    A(4,3,11)             128.7724         estimate D2E/DX2                !
 ! A10   A(3,4,5)              118.8304         estimate D2E/DX2                !
 ! A11   A(3,4,8)              120.26           estimate D2E/DX2                !
 ! A12   A(5,4,8)              120.9096         estimate D2E/DX2                !
 ! A13   A(4,5,6)              121.9503         estimate D2E/DX2                !
 ! A14   A(4,5,9)              118.7234         estimate D2E/DX2                !
 ! A15   A(6,5,9)              119.3263         estimate D2E/DX2                !
 ! A16   A(1,6,5)              120.0845         estimate D2E/DX2                !
 ! A17   A(1,6,10)             119.8524         estimate D2E/DX2                !
 ! A18   A(5,6,10)             120.0631         estimate D2E/DX2                !
 ! A19   A(3,11,23)            112.345          estimate D2E/DX2                !
 ! A20   A(3,11,25)            137.3885         estimate D2E/DX2                !
 ! A21   A(23,11,25)           110.2665         estimate D2E/DX2                !
 ! A22   A(2,12,23)             89.1112         estimate D2E/DX2                !
 ! A23   A(14,13,15)           120.4231         estimate D2E/DX2                !
 ! A24   A(14,13,23)           122.8871         estimate D2E/DX2                !
 ! A25   A(15,13,23)           116.6899         estimate D2E/DX2                !
 ! A26   A(13,14,16)           120.0144         estimate D2E/DX2                !
 ! A27   A(13,14,17)           120.7791         estimate D2E/DX2                !
 ! A28   A(16,14,17)           119.2065         estimate D2E/DX2                !
 ! A29   A(13,15,18)           117.0567         estimate D2E/DX2                !
 ! A30   A(13,15,24)           119.2673         estimate D2E/DX2                !
 ! A31   A(18,15,24)           123.676          estimate D2E/DX2                !
 ! A32   A(14,16,19)           121.046          estimate D2E/DX2                !
 ! A33   A(14,16,20)           118.8594         estimate D2E/DX2                !
 ! A34   A(19,16,20)           120.0946         estimate D2E/DX2                !
 ! A35   A(15,18,19)           121.2292         estimate D2E/DX2                !
 ! A36   A(15,18,21)           116.8556         estimate D2E/DX2                !
 ! A37   A(19,18,21)           121.9152         estimate D2E/DX2                !
 ! A38   A(16,19,18)           120.2307         estimate D2E/DX2                !
 ! A39   A(16,19,22)           119.7736         estimate D2E/DX2                !
 ! A40   A(18,19,22)           119.9958         estimate D2E/DX2                !
 ! A41   A(11,23,12)           114.5434         estimate D2E/DX2                !
 ! A42   A(11,23,13)           121.4653         estimate D2E/DX2                !
 ! A43   A(12,23,13)           123.9913         estimate D2E/DX2                !
 ! D1    D(6,1,2,3)              0.0            estimate D2E/DX2                !
 ! D2    D(6,1,2,12)          -180.0            estimate D2E/DX2                !
 ! D3    D(7,1,2,3)            179.9999         estimate D2E/DX2                !
 ! D4    D(7,1,2,12)            -0.0001         estimate D2E/DX2                !
 ! D5    D(2,1,6,5)             -0.0001         estimate D2E/DX2                !
 ! D6    D(2,1,6,10)           179.9999         estimate D2E/DX2                !
 ! D7    D(7,1,6,5)            180.0            estimate D2E/DX2                !
 ! D8    D(7,1,6,10)             0.0            estimate D2E/DX2                !
 ! D9    D(1,2,3,4)              0.0002         estimate D2E/DX2                !
 ! D10   D(1,2,3,11)          -180.0            estimate D2E/DX2                !
 ! D11   D(12,2,3,4)          -179.9999         estimate D2E/DX2                !
 ! D12   D(12,2,3,11)            0.0            estimate D2E/DX2                !
 ! D13   D(1,2,12,23)          179.9998         estimate D2E/DX2                !
 ! D14   D(3,2,12,23)           -0.0002         estimate D2E/DX2                !
 ! D15   D(2,3,4,5)             -0.0002         estimate D2E/DX2                !
 ! D16   D(2,3,4,8)            179.9999         estimate D2E/DX2                !
 ! D17   D(11,3,4,5)          -180.0            estimate D2E/DX2                !
 ! D18   D(11,3,4,8)             0.0001         estimate D2E/DX2                !
 ! D19   D(2,3,11,23)            0.0003         estimate D2E/DX2                !
 ! D20   D(2,3,11,25)          179.997          estimate D2E/DX2                !
 ! D21   D(4,3,11,23)         -179.9998         estimate D2E/DX2                !
 ! D22   D(4,3,11,25)           -0.0031         estimate D2E/DX2                !
 ! D23   D(3,4,5,6)              0.0            estimate D2E/DX2                !
 ! D24   D(3,4,5,9)           -179.9999         estimate D2E/DX2                !
 ! D25   D(8,4,5,6)            180.0            estimate D2E/DX2                !
 ! D26   D(8,4,5,9)              0.0            estimate D2E/DX2                !
 ! D27   D(4,5,6,1)              0.0001         estimate D2E/DX2                !
 ! D28   D(4,5,6,10)          -179.9999         estimate D2E/DX2                !
 ! D29   D(9,5,6,1)           -179.9999         estimate D2E/DX2                !
 ! D30   D(9,5,6,10)             0.0            estimate D2E/DX2                !
 ! D31   D(3,11,23,12)          -0.0005         estimate D2E/DX2                !
 ! D32   D(3,11,23,13)         179.9987         estimate D2E/DX2                !
 ! D33   D(25,11,23,12)       -179.9981         estimate D2E/DX2                !
 ! D34   D(25,11,23,13)          0.001          estimate D2E/DX2                !
 ! D35   D(2,12,23,11)           0.0004         estimate D2E/DX2                !
 ! D36   D(2,12,23,13)        -179.9987         estimate D2E/DX2                !
 ! D37   D(15,13,14,16)          0.0006         estimate D2E/DX2                !
 ! D38   D(15,13,14,17)       -179.9997         estimate D2E/DX2                !
 ! D39   D(23,13,14,16)       -179.9995         estimate D2E/DX2                !
 ! D40   D(23,13,14,17)          0.0002         estimate D2E/DX2                !
 ! D41   D(14,13,15,18)         -0.0007         estimate D2E/DX2                !
 ! D42   D(14,13,15,24)        179.9991         estimate D2E/DX2                !
 ! D43   D(23,13,15,18)        179.9994         estimate D2E/DX2                !
 ! D44   D(23,13,15,24)         -0.0008         estimate D2E/DX2                !
 ! D45   D(14,13,23,11)        179.9998         estimate D2E/DX2                !
 ! D46   D(14,13,23,12)         -0.0011         estimate D2E/DX2                !
 ! D47   D(15,13,23,11)         -0.0003         estimate D2E/DX2                !
 ! D48   D(15,13,23,12)        179.9988         estimate D2E/DX2                !
 ! D49   D(13,14,16,19)         -0.0001         estimate D2E/DX2                !
 ! D50   D(13,14,16,20)        179.9999         estimate D2E/DX2                !
 ! D51   D(17,14,16,19)       -179.9999         estimate D2E/DX2                !
 ! D52   D(17,14,16,20)          0.0001         estimate D2E/DX2                !
 ! D53   D(13,15,18,19)          0.0004         estimate D2E/DX2                !
 ! D54   D(13,15,18,21)        179.9999         estimate D2E/DX2                !
 ! D55   D(24,15,18,19)       -179.9994         estimate D2E/DX2                !
 ! D56   D(24,15,18,21)          0.0002         estimate D2E/DX2                !
 ! D57   D(14,16,19,18)         -0.0002         estimate D2E/DX2                !
 ! D58   D(14,16,19,22)        179.9999         estimate D2E/DX2                !
 ! D59   D(20,16,19,18)        179.9998         estimate D2E/DX2                !
 ! D60   D(20,16,19,22)          0.0            estimate D2E/DX2                !
 ! D61   D(15,18,19,16)          0.0            estimate D2E/DX2                !
 ! D62   D(15,18,19,22)        179.9999         estimate D2E/DX2                !
 ! D63   D(21,18,19,16)       -179.9995         estimate D2E/DX2                !
 ! D64   D(21,18,19,22)          0.0004         estimate D2E/DX2                !
 ! Qtot  GIC-1                  40.0            Frozen                          !
 ! Ptot  GIC-2                  80.0            Frozen                          !
 --------------------------------------------------------------------------------
 NOTE: GIC-type coordinates are in arbitrary units.
 Trust Radius=3.00D-01 FncErr=5.00D-06 GrdErr=5.00D-06 EigMax=2.50D+02 EigMin=1.00D-04
 Number of steps in this run=    146 maximum allowed number of steps=    150.
 GradGradGradGradGradGradGradGradGradGradGradGradGradGradGradGradGradGrad

 Leave Link  103 at Mon Jul 13 16:06:58 2020, MaxMem=  7784628224 cpu:               0.1 elap:               0.0
 (Enter /gpfs/loomis/apps/avx/software/Gaussian/16-C.01_AVX/g16/l202.exe)
                          Input orientation:                          
 ---------------------------------------------------------------------
 Center     Atomic      Atomic             Coordinates (Angstroms)
 Number     Number       Type             X           Y           Z
 ---------------------------------------------------------------------
      1          6           0        1.606210   -3.253565   -0.000019
      2          6           0        1.006823   -1.994534   -0.000022
      3          6           0        1.763504   -0.792359   -0.000024
      4          6           0        3.159434   -0.878516   -0.000026
      5          6           0        3.755799   -2.140215   -0.000023
      6          6           0        2.997944   -3.318384   -0.000019
      7          1           0        0.996173   -4.159621   -0.000017
      8          1           0        3.766815    0.029061   -0.000029
      9          1           0        4.845754   -2.205442   -0.000024
     10          1           0        3.496558   -4.289174   -0.000016
     11          7           0        0.963302    0.340295   -0.000026
     12         16           0       -0.714538   -1.667446   -0.000023
     13          6           0       -1.357878    1.053621    0.000008
     14          6           0       -2.714978    0.778161    0.000012
     15          6           0       -0.877060    2.454047    0.000034
     16          6           0       -3.654203    1.840202    0.000029
     17          1           0       -3.076370   -0.253512   -0.000002
     18          6           0       -1.869754    3.482225    0.000047
     19          6           0       -3.234859    3.172962    0.000044
     20          1           0       -4.719886    1.601431    0.000030
     21          1           0       -1.511519    4.513814    0.000068
     22          1           0       -3.975640    3.974035    0.000056
     23          6           0       -0.363272    0.036576   -0.000019
     24          8           0        0.365285    2.680224    0.000048
     25          1           0        1.071965    1.180286    0.000002
 ---------------------------------------------------------------------
                    Distance matrix (angstroms):
                    1          2          3          4          5
     1  C    0.000000
     2  C    1.394426   0.000000
     3  C    2.466227   1.420490   0.000000
     4  C    2.837845   2.424713   1.398587   0.000000
     5  C    2.420802   2.752834   2.405402   1.395541   0.000000
     6  C    1.393243   2.391055   2.811520   2.445207   1.400867
     7  H    1.092284   2.165113   3.453585   3.930057   3.419582
     8  H    3.929866   3.422352   2.165176   1.092065   2.169303
     9  H    3.404880   3.844721   3.390733   2.145789   1.091905
    10  H    2.155435   3.385875   3.902716   3.427279   2.164540
    11  N    3.650912   2.335235   1.386805   2.511671   3.735099
    12  S    2.810986   1.752161   2.628016   3.953489   4.495267
    13  C    5.228544   3.857857   3.626385   4.913172   6.029120
    14  C    5.909947   4.641081   4.745875   6.103547   7.098441
    15  C    6.224425   4.831035   4.184702   5.234431   6.524618
    16  C    7.322459   6.035757   6.023448   7.336012   8.411412
    17  H    5.561194   4.438876   4.869778   6.267048   7.087890
    18  C    7.579789   6.186242   5.610048   6.656485   7.953533
    19  C    8.045880   6.685423   6.380235   7.569773   8.780612
    20  H    7.974364   6.762112   6.911192   8.260377   9.264834
    21  H    8.369732   6.978585   6.235483   7.134075   8.486504
    22  H    9.132100   7.774880   7.460314   8.628820   9.856937
    23  C    3.834564   2.450014   2.282610   3.639622   4.658880
    24  O    6.062157   4.718574   3.743508   4.524588   5.893404
    25  H    4.465921   3.175488   2.090348   2.931926   4.269507
                    6          7          8          9         10
     6  C    0.000000
     7  H    2.171351   0.000000
     8  H    3.434611   5.022102   0.000000
     9  H    2.157092   4.317186   2.481353   0.000000
    10  H    1.091351   2.503739   4.326684   2.482392   0.000000
    11  N    4.186371   4.500036   2.820735   4.642651   5.277249
    12  S    4.063018   3.022824   4.791728   5.586259   4.960522
    13  C    6.171517   5.720092   5.226108   7.007606   7.218795
    14  C    7.029876   6.176919   6.524935   8.128133   8.016299
    15  C    6.952455   6.873835   5.238906   7.379800   8.037386
    16  C    8.417961   7.591039   7.638831   9.413634   9.418207
    17  H    6.803730   5.642987   6.849017   8.159049   7.712973
    18  C    8.363180   8.161578   6.610239   8.800432   9.444149
    19  C    8.999189   8.465719   7.675125   9.706881  10.049649
    20  H    9.152567   8.115605   8.631132  10.295327  10.109855
    21  H    9.037621   9.028676   6.926314   9.250045  10.127854
    22  H   10.090107   9.532853   8.689558  10.770466  11.140662
    23  C    4.749056   4.410914   4.130094   5.671031   5.797447
    24  O    6.550893   6.868879   4.312664   6.629052   7.640509
    25  H    4.893611   5.340445   2.930450   5.069974   5.982778
                   11         12         13         14         15
    11  N    0.000000
    12  S    2.616519   0.000000
    13  C    2.428315   2.796086   0.000000
    14  C    3.704250   3.159550   1.384773   0.000000
    15  C    2.802657   4.124697   1.480668   2.487275   0.000000
    16  C    4.855005   4.576595   2.427306   1.417771   2.844174
    17  H    4.083082   2.752719   2.159123   1.093139   3.488243
    18  C    4.230596   5.277655   2.481962   2.833084   1.429192
    19  C    5.064441   5.457249   2.831018   2.450581   2.464965
    20  H    5.821434   5.169949   3.406346   2.167356   3.936276
    21  H    4.852114   6.232428   3.463602   3.924719   2.155267
    22  H    6.131657   6.516218   3.921925   3.435532   3.451312
    23  C    1.360899   1.739850   1.422541   2.465860   2.471467
    24  O    2.415139   4.479761   2.369627   3.620202   1.262766
    25  H    0.846990   3.361721   2.433142   3.808233   2.328340
                   16         17         18         19         20
    16  C    0.000000
    17  H    2.171987   0.000000
    18  C    2.424974   3.925768   0.000000
    19  C    1.397175   3.430137   1.399698   0.000000
    20  H    1.092105   2.478297   3.414768   2.162178   0.000000
    21  H    3.426265   5.017585   1.092020   2.183526   4.333081
    22  H    2.157908   4.322134   2.162552   1.091089   2.486595
    23  C    3.752771   2.728563   3.760584   4.252403   4.629132
    24  O    4.106327   4.522367   2.374575   3.633708   5.198343
    25  H    4.772017   4.389130   3.735323   4.745471   5.807142
                   21         22         23         24         25
    21  H    0.000000
    22  H    2.522548   0.000000
    23  C    4.622135   5.343481   0.000000
    24  O    2.623823   4.529633   2.742202   0.000000
    25  H    4.217440   5.769172   1.835205   1.658074   0.000000
 Symmetry turned off by external request.
 Stoichiometry    C13H9NOS
 Framework group  C1[X(C13H9NOS)]
 Deg. of freedom    69
 Full point group                 C1      NOp   1
 Rotational constants (GHZ):           1.4047197           0.2861464           0.2377217
 Leave Link  202 at Mon Jul 13 16:06:58 2020, MaxMem=  7784628224 cpu:               0.1 elap:               0.0
 (Enter /gpfs/loomis/apps/avx/software/Gaussian/16-C.01_AVX/g16/l301.exe)
 Standard basis: CC-pVDZ (5D, 7F)
 Ernie: Thresh=  0.10000D-02 Tol=  0.10000D-05 Strict=F.
 Ernie:  40 primitive shells out of 425 were deleted.
   273 basis functions,   629 primitive gaussians,   289 cartesian basis functions
    59 alpha electrons       59 beta electrons
       nuclear repulsion energy      1101.7237037439 Hartrees.
 IExCor= 4639 DFT=T Ex+Corr=wB97XD ExCW=0 ScaHFX=  1.000000
 ScaDFX=  1.000000  1.000000  1.000000  1.000000 ScalE2=  1.000000  1.000000
 IRadAn=      5 IRanWt=     -1 IRanGd=            0 ICorTp=0 IEmpDi=121
 HFx  wShort=  0.000000 wLong=  0.200000 cFull=  0.222036 cShort=  0.000000 cLong=  0.777964
 DFx  wShort=  0.000000 wLong=  0.200000 cFull=  0.000000 cShort=  0.000000 cLong=  1.000000
 NAtoms=   25 NActive=   25 NUniq=   25 SFac= 1.00D+00 NAtFMM=   60 NAOKFM=F Big=F
 Integral buffers will be    131072 words long.
 Raffenetti 1 integral format.
 Two-electron integral symmetry is turned off.
 R6Disp:  Grimme-D2 Dispersion energy=       -0.0140152602 Hartrees.
 Nuclear repulsion after empirical dispersion term =     1101.7096884838 Hartrees.
 ------------------------------------------------------------------------------
 Polarizable Continuum Model (PCM)
 =================================
 Model                : PCM.
 Atomic radii         : UFF (Universal Force Field).
 Polarization charges : Total charges.
 Charge compensation  : None.
 Solution method      : On-the-fly selection.
 Cavity type          : Scaled VdW (van der Waals Surface) (Alpha=1.100).
 Cavity algorithm     : GePol (No added spheres)
                        Default sphere list used, NSphG=   25.
                        Lebedev-Laikov grids with approx.  5.0 points / Ang**2.
                        Smoothing algorithm: York/Karplus (Gamma=1.0000).
                        Polarization charges: spherical gaussians, with
                                              point-specific exponents (IZeta= 3).
                        Self-potential: point-specific (ISelfS= 7).
                        Self-field    : sphere-specific E.n sum rule (ISelfD= 2).
 1st derivatives      : Analytical E(r).r(x)/FMM algorithm (CHGder, D1EAlg=3).
                        Cavity 1st derivative terms included.
 Solvent              : CarbonTetraChloride, Eps=   2.228000 Eps(inf)=   2.131892
 ------------------------------------------------------------------------------
 GePol: Number of generator spheres                  =      25
 GePol: Total number of spheres                      =      25
 GePol: Number of exposed spheres                    =      25 (100.00%)
 GePol: Number of points                             =    2185
 GePol: Average weight of points                     =       0.12
 GePol: Minimum weight of points                     =   0.44D-07
 GePol: Maximum weight of points                     =    0.20577
 GePol: Number of points with low weight             =     152
 GePol: Fraction of low-weight points (<1% of avg)   =       6.96%
 GePol: Cavity surface area                          =    271.759 Ang**2
 GePol: Cavity volume                                =    291.483 Ang**3
 Leave Link  301 at Mon Jul 13 16:06:58 2020, MaxMem=  7784628224 cpu:               0.7 elap:               0.1
 (Enter /gpfs/loomis/apps/avx/software/Gaussian/16-C.01_AVX/g16/l302.exe)
 NPDir=0 NMtPBC=     1 NCelOv=     1 NCel=       1 NClECP=     1 NCelD=      1
         NCelK=      1 NCelE2=     1 NClLst=     1 CellRange=     0.0.
 One-electron integrals computed using PRISM.
 NBasis=   273 RedAO= T EigKep=  3.05D-04  NBF=   273
 NBsUse=   273 1.00D-06 EigRej= -1.00D+00 NBFU=   273
 Precomputing XC quadrature grid using
 IXCGrd= 4 IRadAn=           5 IRanWt=          -1 IRanGd=           0 AccXCQ= 0.00D+00.
 Generated NRdTot=       0 NPtTot=           0 NUsed=           0 NTot=          32
 NSgBfM=   288   288   288   288   288 MxSgAt=    25 MxSgA2=    25.
 Leave Link  302 at Mon Jul 13 16:06:58 2020, MaxMem=  7784628224 cpu:               2.6 elap:               0.3
 (Enter /gpfs/loomis/apps/avx/software/Gaussian/16-C.01_AVX/g16/l303.exe)
 DipDrv:  MaxL=1.
 Leave Link  303 at Mon Jul 13 16:06:58 2020, MaxMem=  7784628224 cpu:               0.4 elap:               0.1
 (Enter /gpfs/loomis/apps/avx/software/Gaussian/16-C.01_AVX/g16/l308.exe)
 Leave Link  308 at Mon Jul 13 16:06:59 2020, MaxMem=  7784628224 cpu:               0.5 elap:               0.1
 (Enter /gpfs/loomis/apps/avx/software/Gaussian/16-C.01_AVX/g16/l401.exe)
 ExpMin= 1.22D-01 ExpMax= 1.11D+05 ExpMxC= 1.07D+03 IAcc=3 IRadAn=         5 AccDes= 0.00D+00
 Harris functional with IExCor= 4639 and IRadAn=       5 diagonalized for initial guess.
 HarFok:  IExCor= 4639 AccDes= 0.00D+00 IRadAn=         5 IDoV= 1 UseB2=F ITyADJ=14
 ICtDFT=  3500011 ScaDFX=  1.000000  1.000000  1.000000  1.000000
 FoFCou: FMM=F IPFlag=           0 FMFlag=      100000 FMFlg1=           0
         NFxFlg=           0 DoJE=T BraDBF=F KetDBF=T FulRan=T
         wScrn=  0.000000 ICntrl=       500 IOpCl=  0 I1Cent=   200000004 NGrid=           0
         NMat0=    1 NMatS0=      1 NMatT0=    0 NMatD0=    1 NMtDS0=    0 NMtDT0=    0
 Symmetry not used in FoFCou.
 Harris En= -994.400426736034    
 JPrj=0 DoOrth=F DoCkMO=F.
 Leave Link  401 at Mon Jul 13 16:07:00 2020, MaxMem=  7784628224 cpu:              13.5 elap:               1.4
 (Enter /gpfs/loomis/apps/avx/software/Gaussian/16-C.01_AVX/g16/l502.exe)
 Two-electron integral symmetry not used.
 Closed shell SCF:
 Using DIIS extrapolation, IDIIS=  1040.
 NGot=  7784628224 LenX=  7784455381 LenY=  7784371419
 Requested convergence on RMS density matrix=1.00D-08 within 128 cycles.
 Requested convergence on MAX density matrix=1.00D-06.
 Requested convergence on             energy=1.00D-06.
 No special actions if energy rises.
 Fock matrices will be formed incrementally for  20 cycles.

 Cycle   1  Pass 1  IDiag  1:
 FoFJK:  IHMeth= 1 ICntrl=       0 DoSepK=T KAlg= 0 I1Cent=           0 FoldK=F
 IRaf=         1 NMat=       1 IRICut=       1 DoRegI=T DoRafI=F ISym2E= 0 IDoP0=0 IntGTp=1.
 FoFCou: FMM=F IPFlag=           0 FMFlag=      100000 FMFlg1=           0
         NFxFlg=           0 DoJE=T BraDBF=F KetDBF=F FulRan=T
         wScrn=  0.000000 ICntrl=       500 IOpCl=  0 I1Cent=           0 NGrid=           0
         NMat0=    1 NMatS0=      1 NMatT0=    0 NMatD0=    1 NMtDS0=    0 NMtDT0=    0
 Symmetry not used in FoFCou.
 Inv3:  Mode=1 IEnd=    14322675.
 Iteration    1 A*A^-1 deviation from unit magnitude is 3.11D-15 for   2167.
 Iteration    1 A*A^-1 deviation from orthogonality  is 1.83D-15 for   2159   2021.
 Iteration    1 A^-1*A deviation from unit magnitude is 3.11D-15 for   2166.
 Iteration    1 A^-1*A deviation from orthogonality  is 1.76D-15 for   2169   1997.
 E= -1028.51437845025    
 DIIS: error= 3.99D-02 at cycle   1 NSaved=   1.
 NSaved= 1 IEnMin= 1 EnMin= -1028.51437845025     IErMin= 1 ErrMin= 3.99D-02
 ErrMax= 3.99D-02  0.00D+00 EMaxC= 1.00D-01 BMatC= 3.92D-01 BMatP= 3.92D-01
 IDIUse=3 WtCom= 6.01D-01 WtEn= 3.99D-01
 Coeff-Com:  0.100D+01
 Coeff-En:   0.100D+01
 Coeff:      0.100D+01
 Gap=     0.309 Goal=   None    Shift=    0.000
 GapD=    0.309 DampG=1.000 DampE=0.500 DampFc=0.5000 IDamp=-1.
 Damping current iteration by 5.00D-01
 RMSDP=3.64D-03 MaxDP=2.45D-01              OVMax= 2.07D-01

 Cycle   2  Pass 1  IDiag  1:
 RMSU=  1.81D-03    CP:  9.95D-01
 E= -1028.63442562912     Delta-E=       -0.120047178875 Rises=F Damp=T
 DIIS: error= 1.25D-02 at cycle   2 NSaved=   2.
 NSaved= 2 IEnMin= 2 EnMin= -1028.63442562912     IErMin= 2 ErrMin= 1.25D-02
 ErrMax= 1.25D-02  0.00D+00 EMaxC= 1.00D-01 BMatC= 5.83D-02 BMatP= 3.92D-01
 IDIUse=3 WtCom= 8.75D-01 WtEn= 1.25D-01
 Coeff-Com: -0.288D+00 0.129D+01
 Coeff-En:   0.000D+00 0.100D+01
 Coeff:     -0.252D+00 0.125D+01
 Gap=     0.278 Goal=   None    Shift=    0.000
 RMSDP=1.17D-03 MaxDP=2.60D-02 DE=-1.20D-01 OVMax= 1.46D-01

 Cycle   3  Pass 1  IDiag  1:
 RMSU=  1.13D-03    CP:  9.93D-01  1.16D+00
 E= -1028.74289875969     Delta-E=       -0.108473130569 Rises=F Damp=F
 DIIS: error= 6.45D-03 at cycle   3 NSaved=   3.
 NSaved= 3 IEnMin= 3 EnMin= -1028.74289875969     IErMin= 3 ErrMin= 6.45D-03
 ErrMax= 6.45D-03  0.00D+00 EMaxC= 1.00D-01 BMatC= 1.53D-02 BMatP= 5.83D-02
 IDIUse=3 WtCom= 9.36D-01 WtEn= 6.45D-02
 Coeff-Com: -0.205D+00 0.500D+00 0.704D+00
 Coeff-En:   0.000D+00 0.000D+00 0.100D+01
 Coeff:     -0.191D+00 0.468D+00 0.723D+00
 Gap=     0.237 Goal=   None    Shift=    0.000
 RMSDP=5.55D-04 MaxDP=1.81D-02 DE=-1.08D-01 OVMax= 4.65D-02

 Cycle   4  Pass 1  IDiag  1:
 RMSU=  4.38D-04    CP:  9.91D-01  1.32D+00  8.41D-01
 E= -1028.75800352497     Delta-E=       -0.015104765276 Rises=F Damp=F
 DIIS: error= 2.10D-03 at cycle   4 NSaved=   4.
 NSaved= 4 IEnMin= 4 EnMin= -1028.75800352497     IErMin= 4 ErrMin= 2.10D-03
 ErrMax= 2.10D-03  0.00D+00 EMaxC= 1.00D-01 BMatC= 1.89D-03 BMatP= 1.53D-02
 IDIUse=3 WtCom= 9.79D-01 WtEn= 2.10D-02
 Coeff-Com: -0.719D-01 0.142D+00 0.341D+00 0.589D+00
 Coeff-En:   0.000D+00 0.000D+00 0.000D+00 0.100D+01
 Coeff:     -0.704D-01 0.139D+00 0.334D+00 0.597D+00
 Gap=     0.238 Goal=   None    Shift=    0.000
 RMSDP=1.76D-04 MaxDP=9.73D-03 DE=-1.51D-02 OVMax= 1.37D-02

 Cycle   5  Pass 1  IDiag  1:
 RMSU=  1.12D-04    CP:  9.91D-01  1.33D+00  9.16D-01  7.65D-01
 E= -1028.76006753871     Delta-E=       -0.002064013746 Rises=F Damp=F
 DIIS: error= 5.24D-04 at cycle   5 NSaved=   5.
 NSaved= 5 IEnMin= 5 EnMin= -1028.76006753871     IErMin= 5 ErrMin= 5.24D-04
 ErrMax= 5.24D-04  0.00D+00 EMaxC= 1.00D-01 BMatC= 6.16D-05 BMatP= 1.89D-03
 IDIUse=3 WtCom= 9.95D-01 WtEn= 5.24D-03
 Coeff-Com: -0.762D-03-0.490D-02 0.276D-01 0.157D+00 0.821D+00
 Coeff-En:   0.000D+00 0.000D+00 0.000D+00 0.000D+00 0.100D+01
 Coeff:     -0.758D-03-0.487D-02 0.275D-01 0.156D+00 0.822D+00
 Gap=     0.239 Goal=   None    Shift=    0.000
 RMSDP=6.07D-05 MaxDP=1.96D-03 DE=-2.06D-03 OVMax= 6.19D-03

 Cycle   6  Pass 1  IDiag  1:
 RMSU=  3.94D-05    CP:  9.91D-01  1.33D+00  9.32D-01  8.55D-01  1.12D+00
 E= -1028.76021008714     Delta-E=       -0.000142548425 Rises=F Damp=F
 DIIS: error= 2.81D-04 at cycle   6 NSaved=   6.
 NSaved= 6 IEnMin= 6 EnMin= -1028.76021008714     IErMin= 6 ErrMin= 2.81D-04
 ErrMax= 2.81D-04  0.00D+00 EMaxC= 1.00D-01 BMatC= 1.10D-05 BMatP= 6.16D-05
 IDIUse=3 WtCom= 9.97D-01 WtEn= 2.81D-03
 Coeff-Com:  0.176D-01-0.359D-01-0.682D-01-0.837D-01 0.197D+00 0.973D+00
 Coeff-En:   0.000D+00 0.000D+00 0.000D+00 0.000D+00 0.000D+00 0.100D+01
 Coeff:      0.176D-01-0.358D-01-0.680D-01-0.835D-01 0.196D+00 0.973D+00
 Gap=     0.240 Goal=   None    Shift=    0.000
 RMSDP=3.99D-05 MaxDP=1.88D-03 DE=-1.43D-04 OVMax= 5.13D-03

 Cycle   7  Pass 1  IDiag  1:
 RMSU=  1.99D-05    CP:  9.91D-01  1.34D+00  9.45D-01  8.92D-01  1.33D+00
                    CP:  1.32D+00
 E= -1028.76025112772     Delta-E=       -0.000041040583 Rises=F Damp=F
 DIIS: error= 8.57D-05 at cycle   7 NSaved=   7.
 NSaved= 7 IEnMin= 7 EnMin= -1028.76025112772     IErMin= 7 ErrMin= 8.57D-05
 ErrMax= 8.57D-05  0.00D+00 EMaxC= 1.00D-01 BMatC= 3.06D-06 BMatP= 1.10D-05
 IDIUse=1 WtCom= 1.00D+00 WtEn= 0.00D+00
 Coeff-Com:  0.763D-02-0.145D-01-0.308D-01-0.557D-01-0.223D-01 0.451D+00
 Coeff-Com:  0.664D+00
 Coeff:      0.763D-02-0.145D-01-0.308D-01-0.557D-01-0.223D-01 0.451D+00
 Coeff:      0.664D+00
 Gap=     0.240 Goal=   None    Shift=    0.000
 RMSDP=1.36D-05 MaxDP=4.99D-04 DE=-4.10D-05 OVMax= 1.39D-03

 Cycle   8  Pass 1  IDiag  1:
 RMSU=  8.36D-06    CP:  9.91D-01  1.34D+00  9.46D-01  8.98D-01  1.37D+00
                    CP:  1.55D+00  1.09D+00
 E= -1028.76025746864     Delta-E=       -0.000006340924 Rises=F Damp=F
 DIIS: error= 6.27D-05 at cycle   8 NSaved=   8.
 NSaved= 8 IEnMin= 8 EnMin= -1028.76025746864     IErMin= 8 ErrMin= 6.27D-05
 ErrMax= 6.27D-05  0.00D+00 EMaxC= 1.00D-01 BMatC= 3.87D-07 BMatP= 3.06D-06
 IDIUse=1 WtCom= 1.00D+00 WtEn= 0.00D+00
 Coeff-Com: -0.138D-02 0.306D-02 0.636D-02 0.107D-02-0.454D-01-0.735D-01
 Coeff-Com:  0.168D+00 0.942D+00
 Coeff:     -0.138D-02 0.306D-02 0.636D-02 0.107D-02-0.454D-01-0.735D-01
 Coeff:      0.168D+00 0.942D+00
 Gap=     0.240 Goal=   None    Shift=    0.000
 RMSDP=8.07D-06 MaxDP=2.18D-04 DE=-6.34D-06 OVMax= 1.36D-03

 Cycle   9  Pass 1  IDiag  1:
 RMSU=  3.32D-06    CP:  9.91D-01  1.34D+00  9.46D-01  8.98D-01  1.39D+00
                    CP:  1.66D+00  1.35D+00  1.19D+00
 E= -1028.76025930973     Delta-E=       -0.000001841087 Rises=F Damp=F
 DIIS: error= 1.94D-05 at cycle   9 NSaved=   9.
 NSaved= 9 IEnMin= 9 EnMin= -1028.76025930973     IErMin= 9 ErrMin= 1.94D-05
 ErrMax= 1.94D-05  0.00D+00 EMaxC= 1.00D-01 BMatC= 1.36D-07 BMatP= 3.87D-07
 IDIUse=1 WtCom= 1.00D+00 WtEn= 0.00D+00
 Coeff-Com: -0.148D-02 0.291D-02 0.676D-02 0.812D-02-0.137D-01-0.965D-01
 Coeff-Com: -0.828D-01 0.370D+00 0.807D+00
 Coeff:     -0.148D-02 0.291D-02 0.676D-02 0.812D-02-0.137D-01-0.965D-01
 Coeff:     -0.828D-01 0.370D+00 0.807D+00
 Gap=     0.240 Goal=   None    Shift=    0.000
 RMSDP=4.18D-06 MaxDP=1.28D-04 DE=-1.84D-06 OVMax= 6.19D-04

 Cycle  10  Pass 1  IDiag  1:
 RMSU=  1.58D-06    CP:  9.91D-01  1.34D+00  9.46D-01  8.98D-01  1.40D+00
                    CP:  1.72D+00  1.44D+00  1.46D+00  1.21D+00
 E= -1028.76025974583     Delta-E=       -0.000000436100 Rises=F Damp=F
 DIIS: error= 1.01D-05 at cycle  10 NSaved=  10.
 NSaved=10 IEnMin=10 EnMin= -1028.76025974583     IErMin=10 ErrMin= 1.01D-05
 ErrMax= 1.01D-05  0.00D+00 EMaxC= 1.00D-01 BMatC= 2.25D-08 BMatP= 1.36D-07
 IDIUse=1 WtCom= 1.00D+00 WtEn= 0.00D+00
 Coeff-Com:  0.538D-04-0.182D-03 0.161D-03 0.149D-02 0.775D-02-0.718D-02
 Coeff-Com: -0.866D-01-0.861D-01 0.273D+00 0.898D+00
 Coeff:      0.538D-04-0.182D-03 0.161D-03 0.149D-02 0.775D-02-0.718D-02
 Coeff:     -0.866D-01-0.861D-01 0.273D+00 0.898D+00
 Gap=     0.240 Goal=   None    Shift=    0.000
 RMSDP=2.06D-06 MaxDP=5.17D-05 DE=-4.36D-07 OVMax= 3.57D-04

 Cycle  11  Pass 1  IDiag  1:
 RMSU=  6.08D-07    CP:  9.91D-01  1.34D+00  9.46D-01  8.98D-01  1.40D+00
                    CP:  1.74D+00  1.48D+00  1.58D+00  1.52D+00  1.21D+00
 E= -1028.76025984419     Delta-E=       -0.000000098359 Rises=F Damp=F
 DIIS: error= 4.01D-06 at cycle  11 NSaved=  11.
 NSaved=11 IEnMin=11 EnMin= -1028.76025984419     IErMin=11 ErrMin= 4.01D-06
 ErrMax= 4.01D-06  0.00D+00 EMaxC= 1.00D-01 BMatC= 4.21D-09 BMatP= 2.25D-08
 IDIUse=1 WtCom= 1.00D+00 WtEn= 0.00D+00
 Coeff-Com:  0.292D-03-0.601D-03-0.107D-02-0.994D-03 0.526D-02 0.146D-01
 Coeff-Com: -0.208D-01-0.781D-01-0.532D-01 0.276D+00 0.859D+00
 Coeff:      0.292D-03-0.601D-03-0.107D-02-0.994D-03 0.526D-02 0.146D-01
 Coeff:     -0.208D-01-0.781D-01-0.532D-01 0.276D+00 0.859D+00
 Gap=     0.241 Goal=   None    Shift=    0.000
 RMSDP=7.67D-07 MaxDP=1.94D-05 DE=-9.84D-08 OVMax= 1.24D-04

 Cycle  12  Pass 1  IDiag  1:
 RMSU=  2.42D-07    CP:  9.91D-01  1.34D+00  9.46D-01  8.99D-01  1.40D+00
                    CP:  1.75D+00  1.49D+00  1.62D+00  1.63D+00  1.45D+00
                    CP:  1.19D+00
 E= -1028.76025985792     Delta-E=       -0.000000013732 Rises=F Damp=F
 DIIS: error= 1.34D-06 at cycle  12 NSaved=  12.
 NSaved=12 IEnMin=12 EnMin= -1028.76025985792     IErMin=12 ErrMin= 1.34D-06
 ErrMax= 1.34D-06  0.00D+00 EMaxC= 1.00D-01 BMatC= 6.38D-10 BMatP= 4.21D-09
 IDIUse=1 WtCom= 1.00D+00 WtEn= 0.00D+00
 Coeff-Com:  0.120D-03-0.232D-03-0.493D-03-0.841D-03 0.726D-03 0.803D-02
 Coeff-Com:  0.697D-02-0.113D-01-0.775D-01-0.695D-01 0.292D+00 0.852D+00
 Coeff:      0.120D-03-0.232D-03-0.493D-03-0.841D-03 0.726D-03 0.803D-02
 Coeff:      0.697D-02-0.113D-01-0.775D-01-0.695D-01 0.292D+00 0.852D+00
 Gap=     0.241 Goal=   None    Shift=    0.000
 RMSDP=3.18D-07 MaxDP=8.37D-06 DE=-1.37D-08 OVMax= 5.03D-05

 Cycle  13  Pass 1  IDiag  1:
 RMSU=  9.03D-08    CP:  9.91D-01  1.34D+00  9.46D-01  8.99D-01  1.40D+00
                    CP:  1.75D+00  1.49D+00  1.64D+00  1.68D+00  1.55D+00
                    CP:  1.41D+00  1.10D+00
 E= -1028.76025986011     Delta-E=       -0.000000002184 Rises=F Damp=F
 DIIS: error= 4.22D-07 at cycle  13 NSaved=  13.
 NSaved=13 IEnMin=13 EnMin= -1028.76025986011     IErMin=13 ErrMin= 4.22D-07
 ErrMax= 4.22D-07  0.00D+00 EMaxC= 1.00D-01 BMatC= 5.67D-11 BMatP= 6.38D-10
 IDIUse=1 WtCom= 1.00D+00 WtEn= 0.00D+00
 Coeff-Com: -0.163D-04 0.351D-04 0.575D-04-0.246D-04-0.347D-03-0.761D-04
 Coeff-Com:  0.266D-02 0.739D-02-0.717D-02-0.421D-01-0.697D-01 0.153D+00
 Coeff-Com:  0.956D+00
 Coeff:     -0.163D-04 0.351D-04 0.575D-04-0.246D-04-0.347D-03-0.761D-04
 Coeff:      0.266D-02 0.739D-02-0.717D-02-0.421D-01-0.697D-01 0.153D+00
 Coeff:      0.956D+00
 Gap=     0.241 Goal=   None    Shift=    0.000
 RMSDP=9.40D-08 MaxDP=2.00D-06 DE=-2.18D-09 OVMax= 1.21D-05

 Cycle  14  Pass 1  IDiag  1:
 RMSU=  3.24D-08    CP:  9.91D-01  1.34D+00  9.46D-01  8.99D-01  1.40D+00
                    CP:  1.75D+00  1.49D+00  1.64D+00  1.69D+00  1.57D+00
                    CP:  1.47D+00  1.26D+00  1.20D+00
 E= -1028.76025986028     Delta-E=       -0.000000000180 Rises=F Damp=F
 DIIS: error= 1.35D-07 at cycle  14 NSaved=  14.
 NSaved=14 IEnMin=14 EnMin= -1028.76025986028     IErMin=14 ErrMin= 1.35D-07
 ErrMax= 1.35D-07  0.00D+00 EMaxC= 1.00D-01 BMatC= 5.14D-12 BMatP= 5.67D-11
 IDIUse=1 WtCom= 1.00D+00 WtEn= 0.00D+00
 Coeff-Com: -0.115D-04 0.229D-04 0.476D-04 0.552D-04-0.127D-03-0.610D-03
 Coeff-Com: -0.206D-03 0.266D-02 0.510D-02-0.631D-03-0.357D-01-0.401D-01
 Coeff-Com:  0.220D+00 0.849D+00
 Coeff:     -0.115D-04 0.229D-04 0.476D-04 0.552D-04-0.127D-03-0.610D-03
 Coeff:     -0.206D-03 0.266D-02 0.510D-02-0.631D-03-0.357D-01-0.401D-01
 Coeff:      0.220D+00 0.849D+00
 Gap=     0.241 Goal=   None    Shift=    0.000
 RMSDP=1.80D-08 MaxDP=3.84D-07 DE=-1.80D-10 OVMax= 2.24D-06

 Cycle  15  Pass 1  IDiag  1:
 RMSU=  1.11D-08    CP:  9.91D-01  1.34D+00  9.46D-01  8.99D-01  1.40D+00
                    CP:  1.75D+00  1.49D+00  1.64D+00  1.69D+00  1.58D+00
                    CP:  1.48D+00  1.28D+00  1.32D+00  1.15D+00
 E= -1028.76025986031     Delta-E=       -0.000000000022 Rises=F Damp=F
 DIIS: error= 7.96D-08 at cycle  15 NSaved=  15.
 NSaved=15 IEnMin=15 EnMin= -1028.76025986031     IErMin=15 ErrMin= 7.96D-08
 ErrMax= 7.96D-08  0.00D+00 EMaxC= 1.00D-01 BMatC= 8.71D-13 BMatP= 5.14D-12
 IDIUse=1 WtCom= 1.00D+00 WtEn= 0.00D+00
 Coeff-Com: -0.227D-05 0.407D-05 0.109D-04 0.300D-04 0.130D-06-0.265D-03
 Coeff-Com: -0.549D-03-0.284D-03 0.288D-02 0.659D-02-0.130D-02-0.466D-01
 Coeff-Com: -0.855D-01 0.234D+00 0.891D+00
 Coeff:     -0.227D-05 0.407D-05 0.109D-04 0.300D-04 0.130D-06-0.265D-03
 Coeff:     -0.549D-03-0.284D-03 0.288D-02 0.659D-02-0.130D-02-0.466D-01
 Coeff:     -0.855D-01 0.234D+00 0.891D+00
 Gap=     0.241 Goal=   None    Shift=    0.000
 RMSDP=1.15D-08 MaxDP=3.03D-07 DE=-2.21D-11 OVMax= 1.61D-06

 Cycle  16  Pass 1  IDiag  1:
 RMSU=  4.34D-09    CP:  9.91D-01  1.34D+00  9.46D-01  8.99D-01  1.40D+00
                    CP:  1.75D+00  1.49D+00  1.64D+00  1.69D+00  1.58D+00
                    CP:  1.48D+00  1.30D+00  1.38D+00  1.33D+00  1.14D+00
 E= -1028.76025986031     Delta-E=       -0.000000000004 Rises=F Damp=F
 DIIS: error= 2.51D-08 at cycle  16 NSaved=  16.
 NSaved=16 IEnMin=16 EnMin= -1028.76025986031     IErMin=16 ErrMin= 2.51D-08
 ErrMax= 2.51D-08  0.00D+00 EMaxC= 1.00D-01 BMatC= 1.16D-13 BMatP= 8.71D-13
 IDIUse=1 WtCom= 1.00D+00 WtEn= 0.00D+00
 Coeff-Com:  0.857D-06-0.177D-05-0.308D-05-0.425D-06 0.113D-04 0.114D-04
 Coeff-Com: -0.894D-04-0.310D-03 0.401D-04 0.141D-02 0.390D-02-0.589D-02
 Coeff-Com: -0.348D-01-0.673D-01 0.208D+00 0.895D+00
 Coeff:      0.857D-06-0.177D-05-0.308D-05-0.425D-06 0.113D-04 0.114D-04
 Coeff:     -0.894D-04-0.310D-03 0.401D-04 0.141D-02 0.390D-02-0.589D-02
 Coeff:     -0.348D-01-0.673D-01 0.208D+00 0.895D+00
 Gap=     0.241 Goal=   None    Shift=    0.000
 RMSDP=3.04D-09 MaxDP=1.10D-07 DE=-3.87D-12 OVMax= 3.54D-07

 Error on total polarization charges =  0.00864
 SCF Done:  E(RwB97XD) =  -1028.76025986     A.U. after   16 cycles
            NFock= 16  Conv=0.30D-08     -V/T= 2.0045
 KE= 1.024177909781D+03 PE=-4.615477353239D+03 EE= 1.460829495114D+03
 Leave Link  502 at Mon Jul 13 16:08:28 2020, MaxMem=  7784628224 cpu:             874.1 elap:              88.1
 (Enter /gpfs/loomis/apps/avx/software/Gaussian/16-C.01_AVX/g16/l801.exe)
 DoSCS=F DFT=T ScalE2(SS,OS)=  1.000000  1.000000
 ExpMin= 1.22D-01 ExpMax= 1.11D+05 ExpMxC= 1.07D+03 IAcc=3 IRadAn=         5 AccDes= 0.00D+00
 HarFok:  IExCor=  205 AccDes= 0.00D+00 IRadAn=         5 IDoV=-2 UseB2=F ITyADJ=14
 ICtDFT= 12500011 ScaDFX=  1.000000  1.000000  1.000000  1.000000
 Largest valence mixing into a core orbital is  9.47D-05
 Largest core mixing into a valence orbital is  3.25D-05
 Range of M.O.s used for correlation:    21   273
 NBasis=   273 NAE=    59 NBE=    59 NFC=    20 NFV=     0
 NROrb=    253 NOA=    39 NOB=    39 NVA=   214 NVB=   214
 Leave Link  801 at Mon Jul 13 16:08:28 2020, MaxMem=  7784628224 cpu:               2.8 elap:               0.3
 (Enter /gpfs/loomis/apps/avx/software/Gaussian/16-C.01_AVX/g16/l914.exe)
 RHF ground state
 Keep R1, R2, and R3 ints in memory in canonical form, NReq=4262515490.
 FoFCou: FMM=F IPFlag=           0 FMFlag=           0 FMFlg1=           0
         NFxFlg=           0 DoJE=F BraDBF=F KetDBF=F FulRan=T
         wScrn=  0.000000 ICntrl=       600 IOpCl=  0 I1Cent=           0 NGrid=           0
         NMat0=    1 NMatS0=  37401 NMatT0=    0 NMatD0=    1 NMtDS0=    0 NMtDT0=    0
 Symmetry not used in FoFCou.
 Two-electron integral symmetry not used.
 MDV=  7784628224 DFT=T DoStab=F Mixed=T DoRPA=T DoScal=F NonHer=T
 NEqPCM:  Using equilibrium solvation (IEInf=0, Eps=   2.2280, EpsInf=   2.1319)
 Making orbital integer symmetry assigments:
    12 initial guesses have been made.
 Convergence on wavefunction:    0.000001000000000
 Davidson Disk Diagonalization:  ConvIn= 1.00D-06 SkipCon=T Conv= 1.00D-06.
 Max sub-space:  2000 roots to seek:    12 dimension of matrix:        16692
 Iteration     1 Dimension    12 NMult     0 NNew     12
 CISAX will form    12 AO SS matrices at one time.
 NMat=    12 NSing=    12 JSym2X= 0.
 New state      2 was old state      4
 Excitation Energies [eV] at current iteration:
 Root      1 :     3.467459258021376
 Root      2 :     3.814461210645562
 Root      3 :     4.857179273764887
 Root      4 :     5.243128019986905
 Root      5 :     5.320728871191132
 Root      6 :     5.735582519269036
 Root      7 :     5.904330695495691
 Root      8 :     6.401306259351934
 Root      9 :     6.507558041515153
 Root     10 :     6.814958782718296
 Root     11 :     6.962584614289672
 Root     12 :     7.200433216061204
 Iteration     2 Dimension    18 NMult    12 NNew      6
 CISAX will form     6 AO SS matrices at one time.
 NMat=     6 NSing=     6 JSym2X= 0.
 Root      1 not converged, maximum delta is    0.044021349449408
 Root      2 not converged, maximum delta is    0.110585357385132
 Root      3 not converged, maximum delta is    0.079298689831039
 Excitation Energies [eV] at current iteration:
 Root      1 :     2.955863784024316   Change is   -0.511595473997060
 Root      2 :     3.604698396463327   Change is   -0.209762814182235
 Root      3 :     4.388738465038355   Change is   -0.468440808726532
 Iteration     3 Dimension    24 NMult    18 NNew      6
 CISAX will form     6 AO SS matrices at one time.
 NMat=     6 NSing=     6 JSym2X= 0.
 Root      1 not converged, maximum delta is    0.015747316789334
 Root      2 not converged, maximum delta is    0.030469654558613
 Root      3 not converged, maximum delta is    0.027265635410288
 Excitation Energies [eV] at current iteration:
 Root      1 :     2.925340426729541   Change is   -0.030523357294775
 Root      2 :     3.584421224611200   Change is   -0.020277171852126
 Root      3 :     4.359828644228529   Change is   -0.028909820809826
 Iteration     4 Dimension    30 NMult    24 NNew      6
 CISAX will form     6 AO SS matrices at one time.
 NMat=     6 NSing=     6 JSym2X= 0.
 Root      1 not converged, maximum delta is    0.008542283785587
 Root      2 not converged, maximum delta is    0.010451182716073
 Root      3 not converged, maximum delta is    0.016863823934431
 Excitation Energies [eV] at current iteration:
 Root      1 :     2.920553765224820   Change is   -0.004786661504721
 Root      2 :     3.582464159612690   Change is   -0.001957064998510
 Root      3 :     4.353635647432177   Change is   -0.006192996796352
 Iteration     5 Dimension    36 NMult    30 NNew      6
 CISAX will form     6 AO SS matrices at one time.
 NMat=     6 NSing=     6 JSym2X= 0.
 Root      1 not converged, maximum delta is    0.002079963490341
 Root      2 not converged, maximum delta is    0.001441825331270
 Root      3 not converged, maximum delta is    0.009389140732751
 Excitation Energies [eV] at current iteration:
 Root      1 :     2.919945448493972   Change is   -0.000608316730848
 Root      2 :     3.582347330689430   Change is   -0.000116828923260
 Root      3 :     4.352267650860798   Change is   -0.001367996571378
 Iteration     6 Dimension    42 NMult    36 NNew      6
 CISAX will form     6 AO SS matrices at one time.
 NMat=     6 NSing=     6 JSym2X= 0.
 Root      1 not converged, maximum delta is    0.000366978491797
 Root      2 not converged, maximum delta is    0.000352266704160
 Root      3 not converged, maximum delta is    0.002498276975139
 Excitation Energies [eV] at current iteration:
 Root      1 :     2.919902910460537   Change is   -0.000042538033435
 Root      2 :     3.582341519925242   Change is   -0.000005810764188
 Root      3 :     4.352080179217926   Change is   -0.000187471642872
 Iteration     7 Dimension    48 NMult    42 NNew      6
 CISAX will form     6 AO SS matrices at one time.
 NMat=     6 NSing=     6 JSym2X= 0.
 Root      1 not converged, maximum delta is    0.000108917418253
 Root      2 not converged, maximum delta is    0.000133020944997
 Root      3 not converged, maximum delta is    0.000467956040006
 Excitation Energies [eV] at current iteration:
 Root      1 :     2.919899296505144   Change is   -0.000003613955393
 Root      2 :     3.582340994649568   Change is   -0.000000525275674
 Root      3 :     4.352060598669135   Change is   -0.000019580548792
 Iteration     8 Dimension    54 NMult    48 NNew      6
 CISAX will form     6 AO SS matrices at one time.
 NMat=     6 NSing=     6 JSym2X= 0.
 Root      1 not converged, maximum delta is    0.000031061710638
 Root      2 not converged, maximum delta is    0.000013259675015
 Root      3 not converged, maximum delta is    0.000163961315612
 Excitation Energies [eV] at current iteration:
 Root      1 :     2.919899092293499   Change is   -0.000000204211645
 Root      2 :     3.582340971043341   Change is   -0.000000023606227
 Root      3 :     4.352058742839962   Change is   -0.000001855829172
 Iteration     9 Dimension    60 NMult    54 NNew      6
 CISAX will form     6 AO SS matrices at one time.
 NMat=     6 NSing=     6 JSym2X= 0.
 Root      1 not converged, maximum delta is    0.000010442182969
 Root      2 not converged, maximum delta is    0.000002338435335
 Root      3 not converged, maximum delta is    0.000030839702699
 Excitation Energies [eV] at current iteration:
 Root      1 :     2.919899075307121   Change is   -0.000000016986377
 Root      2 :     3.582340970022843   Change is   -0.000000001020497
 Root      3 :     4.352058620306551   Change is   -0.000000122533411
 Iteration    10 Dimension    66 NMult    60 NNew      6
 CISAX will form     6 AO SS matrices at one time.
 NMat=     6 NSing=     6 JSym2X= 0.
 Root      1 not converged, maximum delta is    0.000003392139049
 Root      2 not converged, maximum delta is    0.000001352554495
 Root      3 not converged, maximum delta is    0.000015908492922
 Excitation Energies [eV] at current iteration:
 Root      1 :     2.919899074224422   Change is   -0.000000001082699
 Root      2 :     3.582340969950764   Change is   -0.000000000072080
 Root      3 :     4.352058606001787   Change is   -0.000000014304765
 Iteration    11 Dimension    72 NMult    66 NNew      6
 CISAX will form     6 AO SS matrices at one time.
 NMat=     6 NSing=     6 JSym2X= 0.
 Root      1 has converged.
 Root      2 has converged.
 Root      3 not converged, maximum delta is    0.000003925732132
 Excitation Energies [eV] at current iteration:
 Root      1 :     2.919899074139030   Change is   -0.000000000085392
 Root      2 :     3.582340969941699   Change is   -0.000000000009065
 Root      3 :     4.352058604753901   Change is   -0.000000001247886
 Iteration    12 Dimension    74 NMult    72 NNew      2
 CISAX will form     2 AO SS matrices at one time.
 NMat=     2 NSing=     2 JSym2X= 0.
 Root      1 has converged.
 Root      2 has converged.
 Root      3 has converged.
 Excitation Energies [eV] at current iteration:
 Root      1 :     2.919899074138101   Change is   -0.000000000000929
 Root      2 :     3.582340969941676   Change is   -0.000000000000023
 Root      3 :     4.352058604677776   Change is   -0.000000000076124
 Convergence achieved on expansion vectors.
 ***********************************************************************
 Excited states from <AA,BB:AA,BB> singles matrix:
 ***********************************************************************
 
 1PDM for each excited state written to RWF  633
 Ground to excited state transition densities written to RWF  633
 Ground to excited state transition electric dipole moments (Au):
       state          X           Y           Z        Dip. S.      Osc.
         1         1.1602     -2.2183     -0.0000      6.2669      0.4483
         2        -0.0000      0.0000     -0.0018      0.0000      0.0000
         3        -1.5861      0.9916      0.0000      3.4992      0.3731
 Ground to excited state transition velocity dipole moments (Au):
       state          X           Y           Z        Dip. S.      Osc.
         1        -0.1205      0.2417      0.0000      0.0729      0.4530
         2         0.0000     -0.0000      0.0008      0.0000      0.0000
         3         0.2488     -0.1491     -0.0000      0.0841      0.3507
 Ground to excited state transition magnetic dipole moments (Au):
       state          X           Y           Z
         1         0.0000      0.0000     -1.0953
         2         0.3730      0.0103      0.0000
         3        -0.0000      0.0000     -1.1147
 Ground to excited state transition velocity quadrupole moments (Au):
       state          XX          YY          ZZ          XY          XZ          YZ
         1         0.0414      0.6422     -0.0132     -0.2807     -0.0000      0.0000
         2        -0.0000     -0.0000      0.0000      0.0000     -0.0080      0.0182
         3        -0.4961      0.5586      0.0049      0.0869      0.0000      0.0000
 <0|del|b> * <b|rxdel|0> + <0|del|b> * <b|delr+rdel|0>
 Rotatory Strengths (R) in cgs (10**-40 erg-esu-cm/Gauss)
       state          XX          YY          ZZ    R(velocity)    E-M Angle
         1         0.0049     -0.0193      0.0170      0.0009       90.00
         2        -0.0002      0.0012      0.0010      0.0007       90.00
         3         0.0040      0.0043     -0.0067      0.0005       90.00
 1/2[<0|r|b>*<b|rxdel|0> + (<0|rxdel|b>*<b|r|0>)*]
 Rotatory Strengths (R) in cgs (10**-40 erg-esu-cm/Gauss)
       state          XX          YY          ZZ     R(length)
         1        -0.0080      0.0376     -0.0277      0.0006
         2         0.0024     -0.0003      0.0000      0.0007
         3        -0.0049     -0.0027      0.0100      0.0008
  1/2[<0|del|b>*<b|r|0> + (<0|r|b>*<b|del|0>)*] (Au)
       state          X           Y           Z        Dip. S.   Osc.(frdel)
         1        -0.1398     -0.5361     -0.0000      0.6759      0.4506
         2        -0.0000     -0.0000     -0.0000      0.0000      0.0000
         3        -0.3946     -0.1479     -0.0000      0.5425      0.3616

 Excitation energies and oscillator strengths:
 
 Excited state symmetry could not be determined.
 Excited State   1:      Singlet-?Sym    2.9199 eV  424.62 nm  f=0.4483  <S**2>=0.000
      59 -> 60         0.69817
 This state for optimization and/or second-order correction.
 Total Energy, E(TD-HF/TD-DFT) =  -1028.65295554    
 Copying the excited state density for this state as the 1-particle RhoCI density.
 
 Excited state symmetry could not be determined.
 Excited State   2:      Singlet-?Sym    3.5823 eV  346.10 nm  f=0.0000  <S**2>=0.000
      57 -> 60         0.68401
      57 -> 62         0.11500
      57 -> 64         0.11660
 
 Excited state symmetry could not be determined.
 Excited State   3:      Singlet-?Sym    4.3521 eV  284.89 nm  f=0.3731  <S**2>=0.000
      58 -> 60         0.68340
 SavETr:  write IOETrn=   770 NScale= 10 NData=  16 NLR=1 NState=    3 LETran=      64.
 The selected state is a singlet.
 CISGrd: IGrad=2 NXY=2 DFT=T
 CISAX will form     1 AO SS matrices at one time.
 NMat=     1 NSing=     1 JSym2X= 0.
 GePol: Maximum number of non-zero 1st derivatives   =     255
 Leave Link  914 at Mon Jul 13 16:11:21 2020, MaxMem=  7784628224 cpu:            1678.5 elap:             172.6
 (Enter /gpfs/loomis/apps/avx/software/Gaussian/16-C.01_AVX/g16/l1002.exe)
 Minotr:  Closed shell wavefunction.
          Computing CIS/TDA/TD derivatives.
          Using Z-Vector for PSCF gradient.
          Skipping F1 and S1 gradient terms here.
          IDoAtm=1111111111111111111111111
 NEqPCM:  Using equilibrium solvation (IEInf=0, Eps=   2.2280, EpsInf=   2.1319)
          Frozen-core window.
          Direct CPHF calculation.
          Differentiating once with respect to electric field.
                with respect to dipole field.
          Differentiating once with respect to nuclear coordinates.
          Requested convergence is 1.0D-10 RMS, and 1.0D-09 maximum.
          NewPWx=F KeepS1=T KeepF1=T KeepIn=T MapXYZ=F SortEE=F KeepMc=T.
 Keep R1 ints in memory in canonical form, NReq=1421443322.
 FoFCou: FMM=F IPFlag=           0 FMFlag=           0 FMFlg1=           0
         NFxFlg=           0 DoJE=F BraDBF=F KetDBF=F FulRan=T
         wScrn=  0.000000 ICntrl=       600 IOpCl=  0 I1Cent=           0 NGrid=           0
         NMat0=    1 NMatS0=  37401 NMatT0=    0 NMatD0=    1 NMtDS0=    0 NMtDT0=    0
 Symmetry not used in FoFCou.
 Two-electron integral symmetry not used.
          MDV=    7784628224 using IRadAn=       5.
          Solving linear equations separately, MaxMat=       0.
          There are     1 degrees of freedom in the 1st order CPHF.  IDoFFX=0 NUNeed=     1.
 LinEq1:  Iter=  0 NonCon=     1 RMS=6.73D-03 Max=5.25D-01 NDo=     1
 AX will form     1 AO Fock derivatives at one time.
 LinEq1:  Iter=  1 NonCon=     1 RMS=3.10D-03 Max=1.74D-01 NDo=     1
 LinEq1:  Iter=  2 NonCon=     1 RMS=1.65D-03 Max=4.13D-02 NDo=     1
 LinEq1:  Iter=  3 NonCon=     1 RMS=7.43D-04 Max=2.04D-02 NDo=     1
 LinEq1:  Iter=  4 NonCon=     1 RMS=4.39D-04 Max=1.27D-02 NDo=     1
 LinEq1:  Iter=  5 NonCon=     1 RMS=2.15D-04 Max=6.71D-03 NDo=     1
 LinEq1:  Iter=  6 NonCon=     1 RMS=8.89D-05 Max=4.07D-03 NDo=     1
 LinEq1:  Iter=  7 NonCon=     1 RMS=4.59D-05 Max=1.52D-03 NDo=     1
 LinEq1:  Iter=  8 NonCon=     1 RMS=1.71D-05 Max=5.73D-04 NDo=     1
 LinEq1:  Iter=  9 NonCon=     1 RMS=8.28D-06 Max=2.29D-04 NDo=     1
 LinEq1:  Iter= 10 NonCon=     1 RMS=3.00D-06 Max=6.28D-05 NDo=     1
 LinEq1:  Iter= 11 NonCon=     1 RMS=1.53D-06 Max=6.47D-05 NDo=     1
 LinEq1:  Iter= 12 NonCon=     1 RMS=6.39D-07 Max=1.44D-05 NDo=     1
 LinEq1:  Iter= 13 NonCon=     1 RMS=3.38D-07 Max=1.00D-05 NDo=     1
 LinEq1:  Iter= 14 NonCon=     1 RMS=1.13D-07 Max=3.12D-06 NDo=     1
 LinEq1:  Iter= 15 NonCon=     1 RMS=5.71D-08 Max=1.64D-06 NDo=     1
 LinEq1:  Iter= 16 NonCon=     1 RMS=2.58D-08 Max=8.69D-07 NDo=     1
 LinEq1:  Iter= 17 NonCon=     1 RMS=1.19D-08 Max=4.02D-07 NDo=     1
 LinEq1:  Iter= 18 NonCon=     1 RMS=5.57D-09 Max=1.75D-07 NDo=     1
 LinEq1:  Iter= 19 NonCon=     1 RMS=2.41D-09 Max=7.58D-08 NDo=     1
 LinEq1:  Iter= 20 NonCon=     1 RMS=1.23D-09 Max=2.87D-08 NDo=     1
 LinEq1:  Iter= 21 NonCon=     1 RMS=3.97D-10 Max=1.27D-08 NDo=     1
 LinEq1:  Iter= 22 NonCon=     1 RMS=1.69D-10 Max=5.27D-09 NDo=     1
 LinEq1:  Iter= 23 NonCon=     1 RMS=7.21D-11 Max=1.58D-09 NDo=     1
 LinEq1:  Iter= 24 NonCon=     0 RMS=2.12D-11 Max=5.40D-10 NDo=     1
 Linear equations converged to 1.000D-10 1.000D-09 after    24 iterations.
 End of Minotr F.D. properties file   721 does not exist.
 End of Minotr F.D. properties file   722 does not exist.
 End of Minotr F.D. properties file   788 does not exist.
 Leave Link 1002 at Mon Jul 13 16:13:06 2020, MaxMem=  7784628224 cpu:             776.2 elap:             105.1
 (Enter /gpfs/loomis/apps/avx/software/Gaussian/16-C.01_AVX/g16/l601.exe)
 Copying SCF densities to generalized density rwf, IOpCl= 0 IROHF=0.

 **********************************************************************

            Population analysis using the SCF Density.

 **********************************************************************

 Alpha  occ. eigenvalues --  -89.10483 -19.20653 -14.51103 -10.41563 -10.37982
 Alpha  occ. eigenvalues --  -10.36393 -10.35683 -10.33430 -10.33084 -10.32623
 Alpha  occ. eigenvalues --  -10.32467 -10.31506 -10.30859 -10.30636 -10.29309
 Alpha  occ. eigenvalues --  -10.28496  -8.12530  -6.07396  -6.07036  -6.06547
 Alpha  occ. eigenvalues --   -1.14197  -1.09175  -0.98906  -0.95929  -0.93489
 Alpha  occ. eigenvalues --   -0.89286  -0.87114  -0.83759  -0.81307  -0.76838
 Alpha  occ. eigenvalues --   -0.74659  -0.72239  -0.69101  -0.67935  -0.65784
 Alpha  occ. eigenvalues --   -0.60901  -0.59740  -0.56792  -0.56159  -0.56011
 Alpha  occ. eigenvalues --   -0.55035  -0.53833  -0.53099  -0.50498  -0.49126
 Alpha  occ. eigenvalues --   -0.48851  -0.48742  -0.46986  -0.45453  -0.44903
 Alpha  occ. eigenvalues --   -0.44164  -0.43137  -0.42459  -0.40130  -0.36798
 Alpha  occ. eigenvalues --   -0.33725  -0.31557  -0.31534  -0.25970
 Alpha virt. eigenvalues --   -0.01920   0.03626   0.05453   0.06321   0.09332
 Alpha virt. eigenvalues --    0.10620   0.14037   0.14747   0.16541   0.17417
 Alpha virt. eigenvalues --    0.18815   0.20158   0.21129   0.21292   0.23119
 Alpha virt. eigenvalues --    0.23549   0.24317   0.25690   0.28330   0.29706
 Alpha virt. eigenvalues --    0.30926   0.33944   0.35545   0.35737   0.36611
 Alpha virt. eigenvalues --    0.37980   0.39380   0.40003   0.41709   0.44394
 Alpha virt. eigenvalues --    0.46789   0.48339   0.50863   0.51340   0.51379
 Alpha virt. eigenvalues --    0.52781   0.52843   0.53041   0.54365   0.55408
 Alpha virt. eigenvalues --    0.56339   0.56473   0.56475   0.56946   0.57757
 Alpha virt. eigenvalues --    0.58088   0.58769   0.59506   0.59574   0.60229
 Alpha virt. eigenvalues --    0.61006   0.61495   0.61908   0.62862   0.62901
 Alpha virt. eigenvalues --    0.64785   0.66601   0.67051   0.68671   0.69199
 Alpha virt. eigenvalues --    0.70416   0.70818   0.71983   0.72464   0.73032
 Alpha virt. eigenvalues --    0.74339   0.75242   0.75968   0.76895   0.78310
 Alpha virt. eigenvalues --    0.78727   0.79779   0.81176   0.81523   0.83549
 Alpha virt. eigenvalues --    0.84247   0.88599   0.89547   0.91610   0.92604
 Alpha virt. eigenvalues --    0.94030   0.94407   0.95985   0.97253   0.97321
 Alpha virt. eigenvalues --    0.98571   0.99249   1.00417   1.00897   1.01311
 Alpha virt. eigenvalues --    1.02689   1.05233   1.05623   1.06248   1.07320
 Alpha virt. eigenvalues --    1.08365   1.09399   1.10078   1.10895   1.11179
 Alpha virt. eigenvalues --    1.12544   1.13317   1.13668   1.14696   1.15078
 Alpha virt. eigenvalues --    1.17052   1.19395   1.20082   1.22911   1.24115
 Alpha virt. eigenvalues --    1.26359   1.27666   1.31983   1.33354   1.34396
 Alpha virt. eigenvalues --    1.34594   1.36977   1.38384   1.40873   1.45685
 Alpha virt. eigenvalues --    1.49097   1.49405   1.53171   1.54652   1.54944
 Alpha virt. eigenvalues --    1.56392   1.57298   1.57488   1.57837   1.59470
 Alpha virt. eigenvalues --    1.60475   1.61950   1.62670   1.65420   1.67630
 Alpha virt. eigenvalues --    1.68501   1.70082   1.71192   1.71561   1.71998
 Alpha virt. eigenvalues --    1.72108   1.73466   1.73557   1.74390   1.75036
 Alpha virt. eigenvalues --    1.78361   1.79182   1.80421   1.81779   1.81875
 Alpha virt. eigenvalues --    1.83158   1.84657   1.84711   1.85358   1.86182
 Alpha virt. eigenvalues --    1.87236   1.89583   1.91171   1.91675   1.92148
 Alpha virt. eigenvalues --    1.93850   1.94331   1.95764   1.96287   1.98237
 Alpha virt. eigenvalues --    2.00101   2.00333   2.01831   2.03963   2.04679
 Alpha virt. eigenvalues --    2.06938   2.07604   2.10099   2.10300   2.15404
 Alpha virt. eigenvalues --    2.17423   2.17433   2.22249   2.23943   2.25685
 Alpha virt. eigenvalues --    2.27066   2.29416   2.34153   2.37832   2.39252
 Alpha virt. eigenvalues --    2.41539   2.42599   2.46443   2.48618   2.49988
 Alpha virt. eigenvalues --    2.52063   2.54772   2.58995   2.61222   2.63249
 Alpha virt. eigenvalues --    2.67495   2.70407   2.74028   2.76420   2.79596
 Alpha virt. eigenvalues --    2.81708   2.82163   2.84232   2.87681   2.91034
 Alpha virt. eigenvalues --    2.92954   3.02162   3.16842   3.30802   3.49202
 Alpha virt. eigenvalues --    3.51576   3.58177   3.66702   3.80810
          Condensed to atoms (all electrons):
               1          2          3          4          5          6
     1  C    4.732463   0.488592   0.008827  -0.052650  -0.011653   0.508965
     2  C    0.488592   5.355931   0.276258  -0.056565  -0.073123  -0.004120
     3  C    0.008827   0.276258   4.912564   0.518615  -0.000721  -0.068003
     4  C   -0.052650  -0.056565   0.518615   4.788567   0.517043  -0.011887
     5  C   -0.011653  -0.073123  -0.000721   0.517043   4.726793   0.499528
     6  C    0.508965  -0.004120  -0.068003  -0.011887   0.499528   4.734669
     7  H    0.404394  -0.039556   0.009256  -0.000626   0.008123  -0.039079
     8  H   -0.000580   0.010754  -0.027329   0.394801  -0.040924   0.007391
     9  H    0.008811  -0.000481   0.008282  -0.038098   0.405489  -0.043988
    10  H   -0.042638   0.009482  -0.000514   0.008489  -0.042327   0.407732
    11  N    0.003629  -0.033127   0.384296  -0.054263   0.002189   0.000356
    12  S   -0.069165   0.334468  -0.131305   0.004329   0.000151   0.004337
    13  C   -0.000245  -0.000304   0.015298  -0.000275   0.000013  -0.000000
    14  C   -0.000008   0.000064   0.000469   0.000008  -0.000000  -0.000000
    15  C    0.000004  -0.000192   0.000053   0.000021  -0.000001   0.000000
    16  C    0.000000  -0.000004   0.000003  -0.000000   0.000000   0.000000
    17  H   -0.000008   0.000155   0.000003   0.000000   0.000000   0.000000
    18  C    0.000000   0.000010  -0.000037  -0.000000  -0.000000  -0.000000
    19  C   -0.000000   0.000000   0.000002   0.000000  -0.000000   0.000000
    20  H   -0.000000  -0.000000  -0.000000   0.000000  -0.000000  -0.000000
    21  H   -0.000000   0.000000  -0.000001  -0.000000  -0.000000   0.000000
    22  H    0.000000  -0.000000  -0.000000  -0.000000   0.000000  -0.000000
    23  C    0.003354  -0.050449  -0.102894   0.002877   0.000345  -0.000345
    24  O    0.000002  -0.000198  -0.000404   0.000054   0.000001  -0.000000
    25  H    0.000253   0.013978  -0.043972  -0.010445  -0.000226  -0.000017
               7          8          9         10         11         12
     1  C    0.404394  -0.000580   0.008811  -0.042638   0.003629  -0.069165
     2  C   -0.039556   0.010754  -0.000481   0.009482  -0.033127   0.334468
     3  C    0.009256  -0.027329   0.008282  -0.000514   0.384296  -0.131305
     4  C   -0.000626   0.394801  -0.038098   0.008489  -0.054263   0.004329
     5  C    0.008123  -0.040924   0.405489  -0.042327   0.002189   0.000151
     6  C   -0.039079   0.007391  -0.043988   0.407732   0.000356   0.004337
     7  H    0.649112   0.000027  -0.000146  -0.011315  -0.000093  -0.007606
     8  H    0.000027   0.638621  -0.011977  -0.000109  -0.004723  -0.000242
     9  H   -0.000146  -0.011977   0.656036  -0.012154  -0.000100   0.000021
    10  H   -0.011315  -0.000109  -0.012154   0.655820   0.000005  -0.000146
    11  N   -0.000093  -0.004723  -0.000100   0.000005   5.859315  -0.046231
    12  S   -0.007606  -0.000242   0.000021  -0.000146  -0.046231  15.449693
    13  C    0.000002   0.000037  -0.000000  -0.000000  -0.025533  -0.070206
    14  C    0.000001   0.000001   0.000000  -0.000000   0.003760  -0.009463
    15  C   -0.000000  -0.000005   0.000000   0.000000  -0.006479   0.004967
    16  C    0.000000  -0.000000  -0.000000  -0.000000  -0.000082   0.000191
    17  H    0.000001   0.000000   0.000000  -0.000000   0.000256   0.007683
    18  C    0.000000  -0.000000   0.000000  -0.000000  -0.000554  -0.000146
    19  C    0.000000   0.000000  -0.000000   0.000000   0.000026   0.000019
    20  H    0.000000  -0.000000   0.000000   0.000000   0.000001   0.000005
    21  H   -0.000000   0.000000  -0.000000   0.000000   0.000008   0.000004
    22  H    0.000000  -0.000000  -0.000000  -0.000000  -0.000000  -0.000000
    23  C    0.000227  -0.000628   0.000006   0.000005   0.513242   0.312315
    24  O    0.000000  -0.000162   0.000000  -0.000000  -0.038980  -0.000090
    25  H    0.000007   0.000813  -0.000012  -0.000000   0.379002   0.006355
              13         14         15         16         17         18
     1  C   -0.000245  -0.000008   0.000004   0.000000  -0.000008   0.000000
     2  C   -0.000304   0.000064  -0.000192  -0.000004   0.000155   0.000010
     3  C    0.015298   0.000469   0.000053   0.000003   0.000003  -0.000037
     4  C   -0.000275   0.000008   0.000021  -0.000000   0.000000  -0.000000
     5  C    0.000013  -0.000000  -0.000001   0.000000   0.000000  -0.000000
     6  C   -0.000000  -0.000000   0.000000   0.000000   0.000000  -0.000000
     7  H    0.000002   0.000001  -0.000000   0.000000   0.000001   0.000000
     8  H    0.000037   0.000001  -0.000005  -0.000000   0.000000  -0.000000
     9  H   -0.000000   0.000000   0.000000  -0.000000   0.000000   0.000000
    10  H   -0.000000  -0.000000   0.000000  -0.000000  -0.000000  -0.000000
    11  N   -0.025533   0.003760  -0.006479  -0.000082   0.000256  -0.000554
    12  S   -0.070206  -0.009463   0.004967   0.000191   0.007683  -0.000146
    13  C    5.497752   0.423943   0.163459  -0.004815  -0.041539  -0.040903
    14  C    0.423943   4.870182   0.010336   0.538871   0.398784  -0.063285
    15  C    0.163459   0.010336   4.734831  -0.055091   0.006058   0.456547
    16  C   -0.004815   0.538871  -0.055091   4.763826  -0.031189  -0.018034
    17  H   -0.041539   0.398784   0.006058  -0.031189   0.676715  -0.000912
    18  C   -0.040903  -0.063285   0.456547  -0.018034  -0.000912   4.914317
    19  C   -0.053368  -0.018082  -0.003942   0.475744   0.008246   0.496529
    20  H    0.009164  -0.036539  -0.000156   0.400160  -0.012010   0.008288
    21  H    0.015930  -0.000647  -0.024610   0.007692   0.000055   0.371527
    22  H   -0.001727   0.009838   0.008606  -0.046532  -0.000201  -0.039462
    23  C    0.348713  -0.097678  -0.068757   0.006296  -0.021442   0.011110
    24  O   -0.100289   0.006545   0.664714  -0.000180  -0.000076  -0.066907
    25  H   -0.051557  -0.000920  -0.006830   0.000070  -0.000094   0.003849
              19         20         21         22         23         24
     1  C   -0.000000  -0.000000  -0.000000   0.000000   0.003354   0.000002
     2  C    0.000000  -0.000000   0.000000  -0.000000  -0.050449  -0.000198
     3  C    0.000002  -0.000000  -0.000001  -0.000000  -0.102894  -0.000404
     4  C    0.000000   0.000000  -0.000000  -0.000000   0.002877   0.000054
     5  C   -0.000000  -0.000000  -0.000000   0.000000   0.000345   0.000001
     6  C    0.000000  -0.000000   0.000000  -0.000000  -0.000345  -0.000000
     7  H    0.000000   0.000000  -0.000000   0.000000   0.000227   0.000000
     8  H    0.000000  -0.000000   0.000000  -0.000000  -0.000628  -0.000162
     9  H   -0.000000   0.000000  -0.000000  -0.000000   0.000006   0.000000
    10  H    0.000000   0.000000   0.000000  -0.000000   0.000005  -0.000000
    11  N    0.000026   0.000001   0.000008  -0.000000   0.513242  -0.038980
    12  S    0.000019   0.000005   0.000004  -0.000000   0.312315  -0.000090
    13  C   -0.053368   0.009164   0.015930  -0.001727   0.348713  -0.100289
    14  C   -0.018082  -0.036539  -0.000647   0.009838  -0.097678   0.006545
    15  C   -0.003942  -0.000156  -0.024610   0.008606  -0.068757   0.664714
    16  C    0.475744   0.400160   0.007692  -0.046532   0.006296  -0.000180
    17  H    0.008246  -0.012010   0.000055  -0.000201  -0.021442  -0.000076
    18  C    0.496529   0.008288   0.371527  -0.039462   0.011110  -0.066907
    19  C    4.749453  -0.047113  -0.047315   0.402882   0.000347   0.004529
    20  H   -0.047113   0.689151  -0.000160  -0.012605  -0.000397   0.000001
    21  H   -0.047315  -0.000160   0.683297  -0.012899  -0.000495   0.005390
    22  H    0.402882  -0.012605  -0.012899   0.677316   0.000008  -0.000076
    23  C    0.000347  -0.000397  -0.000495   0.000008   5.113645  -0.015987
    24  O    0.004529   0.000001   0.005390  -0.000076  -0.015987   7.856742
    25  H   -0.000369  -0.000000   0.000001   0.000005   0.032415   0.086736
              25
     1  C    0.000253
     2  C    0.013978
     3  C   -0.043972
     4  C   -0.010445
     5  C   -0.000226
     6  C   -0.000017
     7  H    0.000007
     8  H    0.000813
     9  H   -0.000012
    10  H   -0.000000
    11  N    0.379002
    12  S    0.006355
    13  C   -0.051557
    14  C   -0.000920
    15  C   -0.006830
    16  C    0.000070
    17  H   -0.000094
    18  C    0.003849
    19  C   -0.000369
    20  H   -0.000000
    21  H    0.000001
    22  H    0.000005
    23  C    0.032415
    24  O    0.086736
    25  H    0.615565
 Mulliken charges:
               1
     1  C    0.017655
     2  C   -0.231574
     3  C    0.241253
     4  C   -0.009994
     5  C    0.009301
     6  C    0.004460
     7  H    0.027270
     8  H    0.034234
     9  H    0.028310
    10  H    0.027670
    11  N    0.064079
    12  S    0.210062
    13  C   -0.083552
    14  C   -0.036181
    15  C    0.116468
    16  C   -0.036926
    17  H    0.009512
[...]
 18,0.00000003,-0.00003713,-0.00009593,0.00000002,-0.00001014,0.0000967
 8,0.,-0.00002316,-0.00004009,-0.00000003,0.00718749,-0.01041184,-0.000
 00013,0.00204015,-0.00220219,0.,0.05283511,0.01823346,0.00000131,0.026
 69227,-0.20814236,-0.00000502,0.02401929,-0.01080157,0.00000105,0.0672
 0953,0.62998919,-0.00000002,-0.00000006,-0.00004821,-0.00000028,-0.000
 00011,0.00002583,-0.00000031,0.00000048,-0.00045320,0.00000028,-0.0000
 0005,-0.00026337,-0.00000001,0.00000019,0.00000103,-0.00000006,-0.0000
 0008,0.00001919,0.,0.,-0.00003754,0.,0.,-0.00001894,0.,0.,0.00002278,0
 .,0.,0.00003191,0.00000017,-0.00000045,0.00236186,0.00000011,-0.000000
 12,-0.00069650,0.00000094,0.00000119,0.00219856,0.00000011,-0.00000431
 ,-0.05338162,0.00000084,-0.00000029,-0.00518573,0.00000521,0.00001566,
 0.12383993,0.00023523,0.00005715,0.,-0.00061701,0.00027006,0.00000005,
 0.00039019,-0.00023320,-0.00000002,-0.00008237,0.00012351,0.,0.0000613
 6,-0.00008631,0.,0.00003269,-0.00003828,0.,-0.00002050,-0.00000856,0.,
 0.00003624,0.00000549,0.,0.00001266,-0.00000481,0.,0.00003681,-0.00000
 880,0.,0.00059291,0.00067260,0.00000006,-0.00146043,0.00157721,-0.0000
 0018,-0.00470915,-0.02971719,-0.00000116,-0.08771395,-0.08768026,-0.00
 000331,-0.00445091,0.00329871,-0.00000010,0.01039138,0.02121500,0.0000
 0076,0.09064580,0.00005994,-0.00002466,0.,-0.00019226,0.00059088,0.,0.
 00030241,0.00000403,-0.00000004,-0.00000375,0.00005585,0.,0.00001948,0
 .00006494,0.,-0.00010531,-0.00002513,0.,-0.00001243,0.00001349,0.,0.00
 002110,-0.00000478,0.,-0.00000227,0.00000157,0.,0.00000135,0.00000244,
 0.,0.00008118,0.00034691,0.00000011,0.00027022,-0.00060727,0.00000015,
 0.00064720,-0.00311798,-0.00000029,-0.08611927,-0.30953845,-0.00001046
 ,0.00014146,0.00245303,-0.00000027,-0.01103320,-0.01704313,-0.00000079
 ,0.09167993,0.32852481,0.00000002,0.00000003,0.00001203,0.00000010,0.0
 0000008,-0.00043771,0.00000017,-0.00000022,0.00058208,-0.00000011,0.00
 000003,0.00010364,0.,-0.00000008,-0.00001562,0.00000003,0.00000002,0.0
 0000002,0.,0.,0.00002752,0.,0.,0.00002163,0.,0.,-0.00000416,0.,0.,-0.0
 0000749,0.00000007,0.00000045,-0.00206070,-0.00000024,0.00000022,0.001
 55363,0.00000034,-0.00000122,0.00742025,-0.00000355,-0.00001038,-0.035
 52214,-0.00000023,0.00000020,0.00942134,-0.00000028,-0.00000051,0.0036
 4683,0.00000384,0.00001144,0.02052817,-0.00123970,0.00020327,0.0000001
 4,-0.00500783,-0.00363045,0.00000018,-0.00535332,0.01229211,-0.0000004
 1,0.00562901,-0.00099645,-0.00000006,-0.00021977,0.00240294,0.,0.00073
 156,-0.00152738,-0.00000001,-0.00010806,0.00010264,0.,0.00005408,-0.00
 002918,0.,0.00010945,0.00001002,0.,0.00008263,-0.00006410,-0.00000003,
 0.01167394,-0.00159003,0.00000045,0.00058099,-0.00325720,0.00000006,0.
 02411120,0.01329948,0.00000060,-0.03830209,0.02038153,0.00000015,-0.13
 388899,0.07175395,0.00000273,-0.00868855,-0.08522364,-0.00000277,-0.00
 057328,0.00022456,0.00000014,0.66178799,0.00061055,-0.00005554,-0.0000
 0003,0.00005690,-0.00004332,0.,0.00082159,-0.00134705,0.00000008,-0.00
 094079,0.00017190,0.,0.00013164,-0.00034991,0.,-0.00027065,0.00015651,
 0.,0.00000045,0.00001058,0.,-0.00000638,0.00000308,0.,-0.00001573,-0.0
 0000453,0.,0.00001508,0.00000771,0.,-0.00036425,0.00043702,-0.00000016
 ,0.00139828,-0.00090063,-0.00000002,0.01429323,-0.02858419,-0.00000054
 ,0.00706233,-0.00325375,-0.00000009,0.07554098,-0.22563868,-0.00000434
 ,-0.03658109,-0.00485177,-0.00000056,-0.00024436,0.00073622,0.,0.05690
 881,0.68992321,0.00000008,0.,0.00019032,0.00000006,0.00000013,0.000484
 71,0.00000029,-0.00000031,0.00127316,-0.00000014,0.00000001,-0.0001506
 4,0.00000003,-0.00000005,-0.00006545,-0.00000004,0.00000004,-0.0001170
 7,0.,0.,0.00012215,0.,0.,0.00008257,0.,0.,0.00000943,0.,0.,-0.00006303
 ,-0.00000035,0.00000071,-0.00340861,0.,-0.00000017,0.00165554,0.000000
 61,-0.00000155,0.01333705,-0.00000040,0.00000067,-0.00521299,0.0000027
 0,-0.00000437,-0.06671919,-0.00000105,-0.00000117,0.00737397,0.0000000
 4,0.00000010,-0.00212695,0.00000520,0.00001916,0.10824610,0.00111694,0
 .00050866,-0.00000013,0.00639145,0.00365967,-0.00000029,0.00729995,-0.
 01441002,0.00000022,-0.00704316,0.00126902,0.00000010,0.00026041,-0.00
 366683,0.00000003,0.00012948,0.00200942,0.,0.00007098,-0.00009327,-0.0
 0000002,0.00000418,0.00005364,-0.00000001,-0.00008728,-0.00003185,0.,-
 0.00003936,0.00006071,0.00000003,-0.01233846,0.00844017,0.00000015,-0.
 00008239,0.00172944,-0.00000006,-0.01403378,-0.01331577,-0.00000060,0.
 05723551,0.00467659,0.00000065,-0.05733091,0.01736236,-0.00000083,-0.1
 4439825,-0.01156291,-0.00000061,-0.00307659,0.00457832,0.00000005,-0.3
 1859246,-0.07066012,-0.00000325,0.66893434,0.00012392,0.00101912,-0.00
 000007,0.00350879,0.00139272,-0.00000006,0.00368260,-0.00585209,0.0000
 0020,-0.00381150,0.00079695,0.00000006,0.00007194,-0.00267307,0.000000
 02,0.00106070,0.00101662,-0.00000002,-0.00000996,-0.00004848,0.,0.0000
 2844,0.00003343,0.,0.00000690,-0.00005641,0.,0.00002375,0.00002827,0.0
 0000001,-0.00116006,0.00566028,-0.00000046,-0.00173686,0.00069113,0.00
 000003,-0.03088696,-0.00659685,-0.00000037,0.05679743,-0.05586326,-0.0
 0000145,-0.00709323,0.02456370,-0.00000023,-0.10426170,-0.31940836,-0.
 00000814,0.00335460,-0.00129524,-0.00000025,-0.00247556,-0.12903559,-0
 .00000252,-0.05653610,0.70431889,0.,0.00000003,0.00012892,0.00000012,0
 .00000002,-0.00038134,0.00000006,-0.00000016,-0.00101529,-0.00000012,0
 .00000002,0.00007866,0.,-0.00000008,0.00009142,0.00000003,0.00000002,0
 .00001714,0.,0.,-0.00005786,0.,0.,-0.00011460,0.,0.,-0.00000027,0.,0.,
 0.00000979,0.,0.00000002,0.00109749,-0.00000005,0.00000010,0.00035125,
 -0.00000116,-0.00000033,-0.00139821,0.00000212,-0.00000189,0.00816697,
 -0.00000038,0.00000137,0.00147291,-0.00000351,-0.00000785,-0.05803201,
 0.00000005,-0.00000017,0.00374096,-0.00000149,-0.00000304,-0.04993407,
 0.00000116,0.00001752,0.11458882,0.00006621,-0.00010965,0.,-0.00010981
 ,0.00012827,0.,-0.00003248,-0.00007889,0.,0.00002780,0.00001442,0.,0.0
 0000559,0.00010535,0.,-0.00015216,-0.00000457,0.,0.00000663,0.00000582
 ,0.,-0.00000072,-0.00000650,0.,-0.00001057,0.00000783,0.,-0.00000913,0
 .00000473,0.,-0.00018653,0.00039448,0.,0.00006192,0.00001090,0.,-0.000
 09475,0.00344671,0.00000011,-0.01499315,-0.00835240,-0.00000040,0.0005
 7231,0.00044193,0.00000004,-0.33108053,-0.06741100,-0.00000376,0.00072
 382,0.00010362,0.,0.00146609,-0.00147509,-0.00000009,-0.00401758,0.002
 20484,0.,0.34812259,0.00001159,-0.00000615,0.,-0.00006780,-0.00008220,
 0.,0.00001601,0.00020923,-0.00000002,0.00006014,-0.00005688,0.,0.00001
 315,0.00004953,0.,-0.00001753,-0.00002981,0.,0.00000025,-0.00000136,0.
 ,-0.00000003,0.00000029,0.,0.00000245,-0.00000318,0.,0.00000171,-0.000
 00131,0.,0.00036247,-0.00041888,0.00000001,0.00002443,0.00003258,0.,0.
 00319556,-0.00384018,-0.00000023,0.02245712,0.00832811,0.00000026,0.00
 064111,-0.00080323,0.00000004,-0.06706564,-0.07551439,-0.00000166,-0.0
 0026521,0.00083543,0.00000010,-0.00073475,-0.00539935,-0.00000037,-0.0
 2925800,-0.00006019,-0.00000033,0.07155287,0.07469027,0.,0.,-0.0000099
 7,-0.00000003,0.,0.00008029,0.,0.00000004,0.00044422,0.00000002,0.,0.0
 0006485,0.,0.00000001,-0.00005773,0.,0.,0.00000607,0.,0.,0.00001180,0.
 ,0.,0.00003591,0.,0.,-0.00001717,0.,0.,-0.00000680,0.00000002,-0.00000
 002,0.00009303,0.00000001,0.,-0.00020021,-0.00000004,-0.00000023,0.004
 16541,0.00000056,0.,0.00499157,0.00000001,-0.00000005,-0.00153587,-0.0
 0000375,-0.00000168,-0.03487724,0.,0.00000013,-0.00227559,0.00000006,-
 0.00000027,0.00656269,-0.00000093,-0.00000023,0.00636475,0.00000408,0.
 00000201,0.02171765,-0.00011269,0.00003512,0.,0.00010682,0.00005046,0.
 ,-0.00010517,0.00007539,0.,0.00003808,0.00000506,0.,-0.00002044,-0.000
 03323,0.,0.00008178,0.00001064,0.,0.00000013,-0.00000464,0.,-0.0000041
 4,0.00000121,0.,0.00000273,-0.00000109,0.,-0.00000308,-0.00000143,0.,0
 .00024577,-0.00021463,-0.00000003,-0.00030386,0.00014991,0.00000002,-0
 .00362304,0.00297079,0.00000002,-0.00007168,0.00028555,0.,0.00913633,0
 .02137312,0.00000084,-0.00589029,0.00018716,-0.00000006,0.00009628,-0.
 00009016,0.,-0.08401854,-0.08637709,-0.00000339,-0.00269840,-0.0287961
 2,-0.00000102,-0.00034122,-0.00144671,-0.00000003,0.08356562,0.0000390
 4,0.00005538,0.00000001,-0.00010880,-0.00013034,0.00000001,0.00004817,
 0.00006679,0.,0.00000300,-0.00000325,0.,0.00000490,-0.00003732,0.,0.00
 005666,-0.00002054,0.,-0.00000677,0.00000247,0.,0.00000607,0.00000369,
 0.,0.00000787,-0.00000352,0.,0.00001101,-0.00000332,0.,-0.00014406,0.0
 0008392,-0.00000003,0.00026692,-0.00021157,0.00000003,0.00399637,-0.00
 211189,-0.00000006,0.00038350,0.00034869,0.00000001,-0.01265813,-0.017
 14569,-0.00000089,-0.00070090,0.00137978,-0.00000016,-0.00006709,-0.00
 008546,-0.00000003,-0.08484035,-0.31881069,-0.00001044,0.00247928,-0.0
 0082479,-0.00000024,0.00006138,-0.00017427,0.00000003,0.09248668,0.334
 44199,0.,-0.00000003,-0.00033004,-0.00000011,-0.00000004,-0.00028875,-
 0.00000010,0.00000015,-0.00001430,0.00000009,-0.00000002,0.00001637,0.
 ,0.00000006,-0.00004076,-0.00000002,-0.00000002,0.00007771,0.,0.,-0.00
 003465,0.,0.,0.00002928,0.,0.,-0.00000510,0.,0.,0.00006691,0.00000002,
 -0.00000026,0.00066284,0.00000007,0.00000002,-0.00083895,0.00000005,0.
 00000025,0.00264042,0.00000009,-0.00000014,-0.00000062,-0.00000092,-0.
 00000084,0.00399098,-0.00000011,-0.00000018,0.00549484,-0.00000002,-0.
 00000001,0.00022343,-0.00000326,-0.00001079,-0.03129615,0.00000027,-0.
 00000006,0.00423635,0.,0.,-0.00043182,0.00000360,0.00001152,0.02076082
 ,0.00004607,-0.00003480,0.,-0.00000971,0.00011033,0.,0.00015316,-0.000
 11182,-0.00000001,-0.00005603,0.00000948,0.,0.00001173,0.00001567,0.,-
 0.00006690,0.00000937,0.,0.00000204,0.00000301,0.,0.00000461,-0.000005
 06,0.,-0.00000638,0.00000240,0.,-0.00000398,0.00000386,0.,0.00011508,0
 .00043183,0.00000003,-0.00005639,0.00010296,-0.00000002,-0.00035165,-0
 .00050560,-0.00000006,0.00059324,-0.00233755,-0.00000008,-0.00248574,-
 0.00417172,-0.00000010,0.00926385,-0.00905184,-0.00000024,0.00034519,-
 0.00038759,0.,-0.01414778,0.02443735,0.00000062,-0.19261694,0.14472209
 ,0.00000343,0.00068747,0.00034236,0.00000003,0.00106939,-0.00029835,0.
 ,0.19967335,-0.00000429,0.00007727,0.,0.00017941,0.00009148,-0.0000000
 1,0.00021270,-0.00035653,0.,-0.00019457,0.00004579,0.,0.00000233,-0.00
 016159,0.,0.00009527,0.00005539,0.,-0.00000488,-0.00000507,0.,0.000004
 55,0.00000618,0.,0.00000522,-0.00000428,0.,0.00000637,-0.00000230,0.,-
 0.00027456,0.00014030,0.00000003,-0.00010342,0.00002627,0.,-0.00064481
 ,0.00025705,0.,-0.00288622,-0.00416725,-0.00000030,-0.00237931,-0.0000
 8931,-0.00000019,0.02283013,-0.01527178,-0.00000043,0.00104070,-0.0010
 4654,-0.00000004,-0.00701517,0.00833491,0.00000014,0.14322263,-0.21236
 457,-0.00000457,-0.00016068,0.00101999,0.00000016,0.00033156,0.0006325
 8,0.00000011,-0.15413775,0.22201207,-0.00000001,0.00000002,0.00000545,
 0.00000005,0.,0.00008838,0.00000004,-0.00000005,0.00015037,-0.00000004
 ,0.00000001,0.00001000,0.,-0.00000004,-0.00000320,0.00000003,0.0000000
 1,-0.00000703,0.,0.,0.00000901,0.,0.,0.00001590,0.,0.,-0.00000044,0.,0
 .,-0.00001103,0.00000004,0.00000009,-0.00023738,-0.00000004,-0.0000000
 1,-0.00007891,0.00000008,-0.00000005,-0.00082504,-0.00000008,-0.000000
 28,0.00606394,-0.00000026,-0.00000030,0.00649005,0.00000071,-0.0000005
 1,0.00319316,0.00000002,-0.00000004,0.00054719,-0.00000012,0.00000031,
 0.00332767,0.00000323,-0.00000466,-0.03337820,0.00000004,0.00000016,-0
 .00411057,0.00000004,0.00000015,-0.00341063,-0.00000363,0.00000507,0.0
 2324078,-0.00280665,-0.00672718,0.00000005,-0.00524553,0.02139907,0.,-
 0.05820539,0.03569634,0.00000087,0.00644429,-0.00274577,-0.00000002,-0
 .00094524,0.00472889,-0.00000004,-0.00522588,-0.00174486,0.00000006,0.
 00026817,-0.00065576,0.00000001,-0.00068223,-0.00000872,-0.00000001,0.
 00016625,-0.00009949,0.,-0.00064957,-0.00012739,0.00000002,-0.35927427
 ,-0.04258143,0.00000535,-0.05005616,-0.05149296,0.00000104,-0.16852159
 ,0.07752097,0.00000218,-0.04280022,0.03208195,0.00000064,0.04124616,0.
 01510725,0.00000040,-0.00370549,-0.01025450,-0.00000003,0.00033839,0.0
 0064198,-0.00000042,-0.00538355,-0.00342986,-0.00000050,-0.00030540,0.
 00405657,0.00000031,-0.00058170,0.00065546,-0.00000004,0.00065589,-0.0
 0102531,0.00000013,0.00006292,-0.00004506,-0.00000013,0.68204781,-0.00
 012775,-0.00001544,-0.00000008,0.02442440,-0.02095345,0.00000008,0.021
 36006,0.01054830,-0.00000069,0.00076413,-0.00669270,0.00000013,-0.0004
 9702,-0.00111804,0.00000004,0.00136401,-0.00083830,-0.00000001,0.00007
 456,-0.00049010,0.00000001,-0.00047339,0.00011865,0.,0.00028304,-0.000
 51489,0.,-0.00020225,0.00004391,0.00000001,-0.03111928,-0.12734074,-0.
 00000005,-0.01539217,-0.17107618,0.00000253,0.06068483,-0.18337423,-0.
 00000212,0.02273374,0.01181617,0.00000009,0.01869861,-0.04756088,-0.00
 000088,-0.00480060,0.00152670,-0.00000050,-0.00191807,0.00004992,0.000
 00046,-0.01330058,-0.00327954,-0.00000012,0.00799687,-0.00006903,0.000
 00008,-0.00077060,0.00099779,0.00000003,0.00074161,-0.00054655,-0.0000
 0027,-0.00000311,0.00036578,0.00000012,-0.06640245,0.52817209,-0.00000
 003,0.00000014,0.00092812,-0.00000034,-0.00000021,-0.00083745,0.000000
 26,-0.00000014,0.00520179,0.00000006,0.00000014,0.00169397,0.00000002,
 -0.00000006,0.00114882,0.00000018,0.00000003,0.00078516,0.,0.00000001,
 -0.00039221,0.,0.,-0.00057818,0.,0.,-0.00043989,0.00000001,0.,-0.00020
 052,0.00000699,0.00000114,-0.02748006,0.00000077,0.00000197,-0.0180377
 4,0.00000125,-0.00000187,-0.03394517,-0.00000028,0.00000067,0.00802246
 ,0.00000121,-0.00000114,0.00359264,0.00000018,-0.00000078,0.00451756,0
 .00000002,0.00000011,-0.00325128,-0.00000073,-0.00000003,-0.00036417,0
 .00000040,0.00000036,-0.00054711,0.00000001,0.00000005,-0.00099468,0.0
 0000001,-0.00000011,0.00206955,0.00000004,0.00000002,-0.00041826,-0.00
 000996,-0.00000068,0.06281117,-0.00041331,0.00132810,0.00000006,-0.000
 66254,0.00060673,-0.00000010,0.00588805,0.00098848,-0.00000028,-0.0000
 6851,0.00000602,0.00000003,-0.00003984,-0.00093116,0.00000004,0.001564
 25,0.00008597,-0.00000002,-0.00015636,0.00015575,-0.00000001,0.0002474
 4,0.00000763,-0.00000002,0.00005229,0.00000684,0.,0.00009253,-0.000001
 13,-0.00000001,0.00377915,0.02541239,0.00000161,-0.00011904,-0.0013823
 9,-0.00000010,-0.03162408,-0.05112917,-0.00000188,0.00442783,-0.004580
 27,-0.00000010,-0.49446165,-0.09361644,-0.00000687,-0.00973920,-0.0074
 6221,-0.00000022,-0.00148647,-0.00100422,-0.00000002,-0.09219266,0.019
 25391,-0.00000061,0.01545569,0.01645381,0.00000049,-0.00020279,-0.0004
 8653,0.,0.00223215,0.00001047,0.00000026,-0.00240481,-0.00003380,0.,-0
 .01948321,0.00731864,0.00000001,0.61523397,-0.00040374,-0.00022478,0.,
 0.00038177,-0.00209903,0.00000011,-0.00585565,0.00002585,-0.00000004,0
 .00061566,-0.00036565,0.,0.00002222,0.00049170,0.,0.00000004,-0.000433
 77,0.,0.00005064,-0.00016306,0.,0.00008855,0.00003799,0.,0.00008614,-0
 .00006582,0.,0.00002271,-0.00003713,0.,0.01383057,-0.02391379,-0.00000
 142,0.00024818,0.00082560,-0.00000006,-0.04787094,-0.01704979,-0.00000
 097,-0.00137595,-0.01031133,-0.00000058,-0.09489549,-0.11021054,-0.000
 00201,0.00049277,-0.00325215,-0.00000006,-0.00243003,-0.00053417,-0.00
 000009,0.03015381,0.02228798,0.00000017,0.00358572,-0.00140032,-0.0000
 0036,-0.00011429,0.00032498,0.00000008,-0.00193500,0.00315247,0.000000
 44,0.00138144,0.00044232,0.00000008,0.00165692,0.01016321,0.00000042,0
 .10775374,0.14085926,-0.00000010,0.00000002,0.00022877,0.00000011,-0.0
 0000026,-0.00020573,-0.00000051,0.00000012,-0.00039280,0.00000007,0.,0
 .00010301,-0.00000003,-0.00000001,0.00017022,0.00000008,-0.00000004,0.
 00003342,0.,-0.00000001,-0.00009011,0.,0.,-0.00018636,0.,0.,-0.0000194
 9,0.,0.,-0.00005944,0.00000119,-0.00000172,0.00788482,-0.00000004,0.00
 000009,-0.00096066,-0.00000128,-0.00000184,0.01772961,-0.00000027,-0.0
 0000029,0.00241700,-0.00000682,-0.00000177,-0.05663539,-0.00000006,-0.
 00000042,0.00019228,-0.00000003,0.00000005,-0.00212621,-0.00000063,0.0
 0000041,0.01620321,0.00000043,0.00000030,0.00422974,0.,0.,0.00006708,-
 0.00000001,0.00000020,-0.00358502,0.00000002,0.00000002,-0.00057279,0.
 00000003,0.00000073,-0.00304373,0.00000820,0.00000489,0.02490407,0.001
 25901,0.00043348,-0.00000003,-0.00368945,0.00444570,-0.00000006,0.0142
 3962,0.01941671,0.00000007,0.00119161,0.00019683,-0.00000004,-0.000093
 33,-0.00014167,0.,-0.00024573,0.00001060,0.,-0.00016597,0.00031383,0.,
 -0.00084447,-0.00050146,0.,-0.00000965,-0.00001167,0.,-0.00004093,-0.0
 0005201,0.,-0.11419169,-0.12972556,-0.00000046,-0.00422810,-0.00286527
 ,0.00000006,0.00199694,-0.00010211,-0.00000018,-0.00048883,-0.00000368
 ,0.00000003,-0.01039693,0.00109361,0.00000010,0.00063655,-0.00031930,-
 0.00000006,0.00025169,0.00017769,0.00000010,0.00148963,-0.00016568,0.0
 0000019,-0.00023800,0.00067168,-0.00000004,0.00007269,0.00000552,0.000
 00001,-0.00003841,-0.00001158,-0.00000004,0.00017821,-0.00004637,0.,-0
 .00735781,-0.03143722,-0.00000007,0.00408113,-0.00548979,-0.00000037,0
 .11663221,-0.00002626,-0.00018409,0.00000005,0.00321846,0.00208737,-0.
 00000016,0.00080206,-0.01475174,-0.00000012,-0.00273739,0.00213524,0.0
 0000007,-0.00020160,-0.00156872,0.00000005,0.00001079,0.00100745,-0.00
 000001,0.00008667,0.00003794,0.,0.00038315,-0.00022803,-0.00000002,-0.
 00015772,0.00014719,0.,-0.00002174,0.00008726,-0.00000001,-0.13097126,
 -0.38239397,-0.00000019,0.00265598,0.00684477,-0.00000031,-0.00599114,
 0.00315878,0.00000045,0.00559208,-0.00239551,-0.00000015,0.01801894,0.
 00657691,0.00000059,-0.00373363,0.00549502,0.00000027,-0.00059280,-0.0
 0035670,-0.00000021,-0.00304828,-0.00051455,-0.00000006,-0.00209764,-0
 .00397284,-0.00000016,0.00000053,-0.00009683,0.,0.00019584,-0.00005854
 ,0.00000012,-0.00052696,-0.00003818,-0.00000008,-0.00620467,0.00006757
 ,-0.00000003,-0.01876117,-0.00855003,-0.00000047,0.14410774,0.38746425
 ,-0.00000002,0.00000016,0.00072433,-0.00000001,0.00000012,0.00318226,0
 .00000034,0.00000069,-0.00247609,0.00000012,-0.00000005,-0.00124539,-0
 .00000004,-0.00000003,-0.00043214,0.00000010,-0.00000002,-0.00006747,-
 0.00000002,0.00000002,-0.00004625,0.,0.,0.00010447,0.,0.,0.00009873,0.
 ,0.,0.00001980,-0.00000112,-0.00000232,-0.01505138,0.00000017,0.000000
 28,0.00333076,-0.00000003,-0.00000010,-0.00175884,-0.00000017,-0.00000
 004,-0.00016957,0.00000054,0.00000054,0.00067446,0.00000002,-0.0000000
 6,0.00007463,-0.00000003,0.,-0.00000089,-0.00000021,-0.00000010,0.0005
 8974,0.,0.00000003,0.00028377,0.,0.,-0.00008767,0.00000001,0.,0.000007
 30,-0.00000003,0.,-0.00008842,0.00000007,0.00000110,-0.00024079,-0.000
 00046,-0.00000061,-0.00628549,0.00000078,0.00000040,0.01886013\\0.0006
 0711,0.00168563,-0.00000004,0.00229252,0.00345749,-0.00000007,0.004079
 62,-0.00030594,0.00000013,-0.00027822,0.00050915,0.00000005,-0.0000807
 6,-0.00120652,0.00000003,0.00040266,0.00054447,-0.00000003,-0.00007113
 ,0.00023500,-0.00000002,0.00015390,0.00001766,0.,0.00000631,0.00000141
 ,0.,0.00002504,0.00003339,0.,-0.00565615,0.00468586,0.00000053,0.00149
 460,0.00427290,-0.00000012,-0.00304665,0.00211926,0.00000007,0.0032112
 7,-0.00033465,0.00000008,0.00588634,0.00117577,-0.00000008,-0.00117520
 ,0.00284875,0.00000005,0.00011859,-0.00001386,0.00000009,-0.00174174,0
 .00014201,0.00000001,-0.00224026,-0.00039134,0.00000002,-0.00008658,0.
 00002512,-0.00000004,-0.00010672,-0.00002789,0.,-0.00028354,-0.0001020
 4,-0.00000004,-0.00363680,-0.00229681,-0.00000020,-0.00315114,-0.00471
 648,0.00000004,0.00327694,-0.01235834,-0.00000045\\\@
 The archive entry for this job was punched.


 There was a great rattling of the words for the fewness of ideas.
                   -- Charles Baxter in Gryphon
 Job cpu time:       0 days  2 hours 52 minutes 47.9 seconds.
 Elapsed time:       0 days  0 hours 17 minutes 54.3 seconds.
 File lengths (MBytes):  RWF=   1380 Int=      0 D2E=      0 Chk=     48 Scr=      8
 Normal termination of Gaussian 16 at Mon Jul 13 16:57:17 2020.
