 Entering Gaussian System, Link 0=g16
 Initial command:
 /gpfs/loomis/apps/avx/software/Gaussian/16-C.01_AVX/g16/l1.exe "/home/fas/batista/pev4/scratch60/gauss-scratch/Gau-30001.inp" -scrdir="/home/fas/batista/pev4/scratch60/gauss-scratch/"
 Entering Link 1 = /gpfs/loomis/apps/avx/software/Gaussian/16-C.01_AVX/g16/l1.exe PID=     30002.
  
 Copyright (c) 1988-2019, Gaussian, Inc.  All Rights Reserved.
  
 This is part of the Gaussian(R) 16 program.  It is based on
 the Gaussian(R) 09 system (copyright 2009, Gaussian, Inc.),
 the Gaussian(R) 03 system (copyright 2003, Gaussian, Inc.),
 the Gaussian(R) 98 system (copyright 1998, Gaussian, Inc.),
 the Gaussian(R) 94 system (copyright 1995, Gaussian, Inc.),
 the Gaussian 92(TM) system (copyright 1992, Gaussian, Inc.),
 the Gaussian 90(TM) system (copyright 1990, Gaussian, Inc.),
 the Gaussian 88(TM) system (copyright 1988, Gaussian, Inc.),
 the Gaussian 86(TM) system (copyright 1986, Carnegie Mellon
 University), and the Gaussian 82(TM) system (copyright 1983,
 Carnegie Mellon University). Gaussian is a federally registered
 trademark of Gaussian, Inc.
  
 This software contains proprietary and confidential information,
 including trade secrets, belonging to Gaussian, Inc.
  
 This software is provided under written license and may be
 used, copied, transmitted, or stored only in accord with that
 written license.
  
 The following legend is applicable only to US Government
 contracts under FAR:
  
                    RESTRICTED RIGHTS LEGEND
  
 Use, reproduction and disclosure by the US Government is
 subject to restrictions as set forth in subparagraphs (a)
 and (c) of the Commercial Computer Software - Restricted
 Rights clause in FAR 52.227-19.
  
 Gaussian, Inc.
 340 Quinnipiac St., Bldg. 40, Wallingford CT 06492
  
  
 ---------------------------------------------------------------
 Warning -- This program may not be used in any manner that
 competes with the business of Gaussian, Inc. or will provide
 assistance to any competitor of Gaussian, Inc.  The licensee
 of this program is prohibited from giving any competitor of
 Gaussian, Inc. access to this program.  By using this program,
 the user acknowledges that Gaussian, Inc. is engaged in the
 business of creating and licensing software in the field of
 computational chemistry and represents and warrants to the
 licensee that it is not a competitor of Gaussian, Inc. and that
 it will not use this program in any manner prohibited above.
 ---------------------------------------------------------------
  

 Cite this work as:
 Gaussian 16, Revision C.01,
 M. J. Frisch, G. W. Trucks, H. B. Schlegel, G. E. Scuseria, 
 M. A. Robb, J. R. Cheeseman, G. Scalmani, V. Barone, 
 G. A. Petersson, H. Nakatsuji, X. Li, M. Caricato, A. V. Marenich, 
 J. Bloino, B. G. Janesko, R. Gomperts, B. Mennucci, H. P. Hratchian, 
 J. V. Ortiz, A. F. Izmaylov, J. L. Sonnenberg, D. Williams-Young, 
 F. Ding, F. Lipparini, F. Egidi, J. Goings, B. Peng, A. Petrone, 
 T. Henderson, D. Ranasinghe, V. G. Zakrzewski, J. Gao, N. Rega, 
 G. Zheng, W. Liang, M. Hada, M. Ehara, K. Toyota, R. Fukuda, 
 J. Hasegawa, M. Ishida, T. Nakajima, Y. Honda, O. Kitao, H. Nakai, 
 T. Vreven, K. Throssell, J. A. Montgomery, Jr., J. E. Peralta, 
 F. Ogliaro, M. J. Bearpark, J. J. Heyd, E. N. Brothers, K. N. Kudin, 
 V. N. Staroverov, T. A. Keith, R. Kobayashi, J. Normand, 
 K. Raghavachari, A. P. Rendell, J. C. Burant, S. S. Iyengar, 
 J. Tomasi, M. Cossi, J. M. Millam, M. Klene, C. Adamo, R. Cammi, 
 J. W. Ochterski, R. L. Martin, K. Morokuma, O. Farkas, 
 J. B. Foresman, and D. J. Fox, Gaussian, Inc., Wallingford CT, 2019.
 
 ******************************************
 Gaussian 16:  ES64L-G16RevC.01  3-Jul-2019
                14-Jul-2020 
 ******************************************
 %chk=config_2_17.chk
 %mem=58GB
 %nprocshared=10
 Will use up to   10 processors via shared memory.
 ----------------------------------------------------------------------
 #p opt=addgic freq td wb97xd/cc-pvdz nosymm int=ultrafine scrf=(solven
 t=CarbonTetraChloride)
 ----------------------------------------------------------------------
 1/18=20,19=15,26=6,38=1,145=903/1,3;
 2/9=110,12=2,15=1,17=6,18=5,40=1/2;
 3/5=16,11=9,25=1,30=1,70=2201,71=1,72=11,74=-58,75=-5/1,2,3,8;
 4//1;
 5/5=2,38=5,53=11/2;
 8/6=1,10=1/1;
 9/15=2,42=1,70=2/14;
 10/5=4,31=1/2;
 6/7=2,8=2,9=2,10=2/1;
 7/12=6,13=5,30=1/1,2,3,16;
 1/18=20,19=15,26=6,145=903/3(2);
 2/9=110,15=1/2;
 99//99;
 2/9=110,15=1/2;
 3/5=16,11=9,25=1,30=1,70=2205,71=1,72=11,74=-58,75=-5/1,2,3,8;
 4/5=5,16=3,69=1/1;
 5/5=2,38=5,53=11/2;
 8/6=1,10=1/1;
 9/15=2,42=1,49=4,70=2/14;
 10/5=4,31=1/2;
 7/12=6,13=5,30=1/1,2,3,16;
 1/18=20,19=15,26=6,145=903/3(-8);
 2/9=110,15=1/2;
 6/7=2,8=2,9=2,10=2/1;
 99/9=10/99;
 Leave Link    1 at Tue Jul 14 12:56:23 2020, MaxMem=  7784628224 cpu:               3.1 elap:               0.3
 (Enter /gpfs/loomis/apps/avx/software/Gaussian/16-C.01_AVX/g16/l101.exe)
 ------------------------------------------------
 NM 2D-scan of HBT TD-WB97XD pVDZ in CTC Relaxed.
 ------------------------------------------------
 Symbolic Z-matrix:
 Charge =  0 Multiplicity = 1
 C                     1.5316   -3.25662  -0.00002 
 C                     0.99212  -1.9719   -0.00002 
 C                     1.78261  -0.77335  -0.00003 
 C                     3.20629  -0.94644  -0.00003 
 C                     3.73579  -2.23505  -0.00002 
 C                     2.91979  -3.39132  -0.00002 
 H                     0.8732   -4.13358  -0.00001 
 H                     3.86177  -0.0669   -0.00004 
 H                     4.82504  -2.3596   -0.00002 
 H                     3.3758   -4.38659  -0.00001 
 N                     1.06369   0.36835  -0.00003 
 S                    -0.70023  -1.58979  -0.00003 
 C                    -1.30045   1.06444   0.00001 
 C                    -2.68637   0.72377   0.00003 
 C                    -0.9314    2.4791    0.00004 
 C                    -3.6504    1.71827   0.00003 
 H                    -2.97829  -0.33266   0.00002 
 C                    -1.93043   3.47059   0.00004 
 C                    -3.28129   3.09287   0.00003 
 H                    -4.71056   1.44707   0.00004 
 H                    -1.63299   4.52571   0.00006 
 H                    -4.06084   3.8608    0.00004 
 C                    -0.27655   0.11107  -0.00002 
 O                     0.36013   2.75087   0.00006 
 H                     0.84051   2.08657   0.00003 
 
 Initializing the GIC definitions file.
 Number of initial coordinates =   131
 Number of input entries/lines =    52
 Number of additional coordinates =     2
 Number of removed coordinates =     0
 Number of frozen coordinates =     2
 Number of final active and frozen coordinates =   133
 ITRead=  0  0  0  0  0  0  0  0  0  0  0  0  0  0  0  0  0  0  0  0
 ITRead=  0  0  0  0  0
 MicOpt= -1 -1 -1 -1 -1 -1 -1 -1 -1 -1 -1 -1 -1 -1 -1 -1 -1 -1 -1 -1
 MicOpt= -1 -1 -1 -1 -1
 NAtoms=     25 NQM=       25 NQMF=       0 NMMI=      0 NMMIF=      0
                NMic=       0 NMicF=      0.
                    Isotopes and Nuclear Properties:
 (Nuclear quadrupole moments (NQMom) in fm**2, nuclear magnetic moments (NMagM)
  in nuclear magnetons)

  Atom         1           2           3           4           5           6           7           8           9          10
 IAtWgt=          12          12          12          12          12          12           1           1           1           1
 AtmWgt=  12.0000000  12.0000000  12.0000000  12.0000000  12.0000000  12.0000000   1.0078250   1.0078250   1.0078250   1.0078250
 NucSpn=           0           0           0           0           0           0           1           1           1           1
 AtZEff=  -0.0000000  -0.0000000  -0.0000000  -0.0000000  -0.0000000  -0.0000000  -0.0000000  -0.0000000  -0.0000000  -0.0000000
 NQMom=    0.0000000   0.0000000   0.0000000   0.0000000   0.0000000   0.0000000   0.0000000   0.0000000   0.0000000   0.0000000
 NMagM=    0.0000000   0.0000000   0.0000000   0.0000000   0.0000000   0.0000000   2.7928460   2.7928460   2.7928460   2.7928460
 AtZNuc=   6.0000000   6.0000000   6.0000000   6.0000000   6.0000000   6.0000000   1.0000000   1.0000000   1.0000000   1.0000000

  Atom        11          12          13          14          15          16          17          18          19          20
 IAtWgt=          14          32          12          12          12          12           1          12          12           1
 AtmWgt=  14.0030740  31.9720718  12.0000000  12.0000000  12.0000000  12.0000000   1.0078250  12.0000000  12.0000000   1.0078250
 NucSpn=           2           0           0           0           0           0           1           0           0           1
 AtZEff=  -0.0000000  -0.0000000  -0.0000000  -0.0000000  -0.0000000  -0.0000000  -0.0000000  -0.0000000  -0.0000000  -0.0000000
 NQMom=    2.0440000   0.0000000   0.0000000   0.0000000   0.0000000   0.0000000   0.0000000   0.0000000   0.0000000   0.0000000
 NMagM=    0.4037610   0.0000000   0.0000000   0.0000000   0.0000000   0.0000000   2.7928460   0.0000000   0.0000000   2.7928460
 AtZNuc=   7.0000000  16.0000000   6.0000000   6.0000000   6.0000000   6.0000000   1.0000000   6.0000000   6.0000000   1.0000000

  Atom        21          22          23          24          25
 IAtWgt=           1           1          12          16           1
 AtmWgt=   1.0078250   1.0078250  12.0000000  15.9949146   1.0078250
 NucSpn=           1           1           0           0           1
 AtZEff=  -0.0000000  -0.0000000  -0.0000000  -0.0000000  -0.0000000
 NQMom=    0.0000000   0.0000000   0.0000000   0.0000000   0.0000000
 NMagM=    2.7928460   2.7928460   0.0000000   0.0000000   2.7928460
 AtZNuc=   1.0000000   1.0000000   6.0000000   8.0000000   1.0000000
 Leave Link  101 at Tue Jul 14 12:56:27 2020, MaxMem=  7784628224 cpu:              31.0 elap:               3.2
 (Enter /gpfs/loomis/apps/avx/software/Gaussian/16-C.01_AVX/g16/l103.exe)

 GradGradGradGradGradGradGradGradGradGradGradGradGradGradGradGradGradGrad
 Berny optimization.
 Initialization pass.
                           ----------------------------
                           !    Initial Parameters    !
                           ! (Angstroms and Degrees)  !
 --------------------------                            --------------------------
 ! Name  Definition              Value          Derivative Info.                !
 --------------------------------------------------------------------------------
 ! R1    R(1,2)                  1.3934         estimate D2E/DX2                !
 ! R2    R(1,6)                  1.3947         estimate D2E/DX2                !
 ! R3    R(1,7)                  1.0966         estimate D2E/DX2                !
 ! R4    R(2,3)                  1.4358         estimate D2E/DX2                !
 ! R5    R(2,12)                 1.735          estimate D2E/DX2                !
 ! R6    R(3,4)                  1.4342         estimate D2E/DX2                !
 ! R7    R(3,11)                 1.3492         estimate D2E/DX2                !
 ! R8    R(4,5)                  1.3932         estimate D2E/DX2                !
 ! R9    R(4,8)                  1.0969         estimate D2E/DX2                !
 ! R10   R(5,6)                  1.4152         estimate D2E/DX2                !
 ! R11   R(5,9)                  1.0963         estimate D2E/DX2                !
 ! R12   R(6,10)                 1.0948         estimate D2E/DX2                !
 ! R13   R(11,23)                1.3647         estimate D2E/DX2                !
 ! R14   R(12,23)                1.7528         estimate D2E/DX2                !
 ! R15   R(13,14)                1.4272         estimate D2E/DX2                !
 ! R16   R(13,15)                1.462          estimate D2E/DX2                !
 ! R17   R(13,23)                1.399          estimate D2E/DX2                !
 ! R18   R(14,16)                1.3851         estimate D2E/DX2                !
 ! R19   R(14,17)                1.096          estimate D2E/DX2                !
 ! R20   R(15,18)                1.4075         estimate D2E/DX2                !
 ! R21   R(15,24)                1.3198         estimate D2E/DX2                !
 ! R22   R(16,19)                1.4233         estimate D2E/DX2                !
 ! R23   R(16,20)                1.0943         estimate D2E/DX2                !
 ! R24   R(18,19)                1.4027         estimate D2E/DX2                !
 ! R25   R(18,21)                1.0962         estimate D2E/DX2                !
 ! R26   R(19,22)                1.0943         estimate D2E/DX2                !
 ! R27   R(24,25)                0.8198         estimate D2E/DX2                !
 ! A1    A(2,1,6)              118.3208         estimate D2E/DX2                !
 ! A2    A(2,1,7)              120.3229         estimate D2E/DX2                !
 ! A3    A(6,1,7)              121.3563         estimate D2E/DX2                !
 ! A4    A(1,2,3)              123.8153         estimate D2E/DX2                !
 ! A5    A(1,2,12)             125.5021         estimate D2E/DX2                !
 ! A6    A(3,2,12)             110.6826         estimate D2E/DX2                !
 ! A7    A(2,3,4)              116.4739         estimate D2E/DX2                !
 ! A8    A(2,3,11)             114.3957         estimate D2E/DX2                !
 ! A9    A(4,3,11)             129.1304         estimate D2E/DX2                !
 ! A10   A(3,4,5)              119.2706         estimate D2E/DX2                !
 ! A11   A(3,4,8)              119.7631         estimate D2E/DX2                !
 ! A12   A(5,4,8)              120.9663         estimate D2E/DX2                !
 ! A13   A(4,5,6)              122.4502         estimate D2E/DX2                !
 ! A14   A(4,5,9)              118.8618         estimate D2E/DX2                !
 ! A15   A(6,5,9)              118.688          estimate D2E/DX2                !
 ! A16   A(1,6,5)              119.6692         estimate D2E/DX2                !
 ! A17   A(1,6,10)             120.1583         estimate D2E/DX2                !
 ! A18   A(5,6,10)             120.1725         estimate D2E/DX2                !
 ! A19   A(3,11,23)            111.3315         estimate D2E/DX2                !
 ! A20   A(2,12,23)             88.7359         estimate D2E/DX2                !
 ! A21   A(14,13,15)           118.4307         estimate D2E/DX2                !
 ! A22   A(14,13,23)           123.2329         estimate D2E/DX2                !
 ! A23   A(15,13,23)           118.3364         estimate D2E/DX2                !
 ! A24   A(13,14,16)           120.2991         estimate D2E/DX2                !
 ! A25   A(13,14,17)           119.257          estimate D2E/DX2                !
 ! A26   A(16,14,17)           120.4439         estimate D2E/DX2                !
 ! A27   A(13,15,18)           120.1622         estimate D2E/DX2                !
 ! A28   A(13,15,24)           116.5041         estimate D2E/DX2                !
 ! A29   A(18,15,24)           123.3336         estimate D2E/DX2                !
 ! A30   A(14,16,19)           120.8604         estimate D2E/DX2                !
 ! A31   A(14,16,20)           119.7598         estimate D2E/DX2                !
 ! A32   A(19,16,20)           119.3799         estimate D2E/DX2                !
 ! A33   A(15,18,19)           119.595          estimate D2E/DX2                !
 ! A34   A(15,18,21)           119.0399         estimate D2E/DX2                !
 ! A35   A(19,18,21)           121.3651         estimate D2E/DX2                !
 ! A36   A(16,19,18)           120.6526         estimate D2E/DX2                !
 ! A37   A(16,19,22)           119.5393         estimate D2E/DX2                !
 ! A38   A(18,19,22)           119.8081         estimate D2E/DX2                !
 ! A39   A(11,23,12)           114.8542         estimate D2E/DX2                !
 ! A40   A(11,23,13)           126.1761         estimate D2E/DX2                !
 ! A41   A(12,23,13)           118.9697         estimate D2E/DX2                !
 ! A42   A(15,24,25)           113.9887         estimate D2E/DX2                !
 ! D1    D(6,1,2,3)              0.0            estimate D2E/DX2                !
 ! D2    D(6,1,2,12)           180.0            estimate D2E/DX2                !
 ! D3    D(7,1,2,3)            179.9999         estimate D2E/DX2                !
 ! D4    D(7,1,2,12)            -0.0001         estimate D2E/DX2                !
 ! D5    D(2,1,6,5)             -0.0001         estimate D2E/DX2                !
 ! D6    D(2,1,6,10)           179.9999         estimate D2E/DX2                !
 ! D7    D(7,1,6,5)            179.9999         estimate D2E/DX2                !
 ! D8    D(7,1,6,10)             0.0            estimate D2E/DX2                !
 ! D9    D(1,2,3,4)              0.0002         estimate D2E/DX2                !
 ! D10   D(1,2,3,11)          -179.9999         estimate D2E/DX2                !
 ! D11   D(12,2,3,4)          -179.9998         estimate D2E/DX2                !
 ! D12   D(12,2,3,11)            0.0001         estimate D2E/DX2                !
 ! D13   D(1,2,12,23)          179.9996         estimate D2E/DX2                !
 ! D14   D(3,2,12,23)           -0.0004         estimate D2E/DX2                !
 ! D15   D(2,3,4,5)             -0.0002         estimate D2E/DX2                !
 ! D16   D(2,3,4,8)            179.9999         estimate D2E/DX2                !
 ! D17   D(11,3,4,5)           180.0            estimate D2E/DX2                !
 ! D18   D(11,3,4,8)             0.0            estimate D2E/DX2                !
 ! D19   D(2,3,11,23)            0.0004         estimate D2E/DX2                !
 ! D20   D(4,3,11,23)         -179.9998         estimate D2E/DX2                !
 ! D21   D(3,4,5,6)              0.0            estimate D2E/DX2                !
 ! D22   D(3,4,5,9)           -179.9999         estimate D2E/DX2                !
 ! D23   D(8,4,5,6)            180.0            estimate D2E/DX2                !
 ! D24   D(8,4,5,9)              0.0            estimate D2E/DX2                !
 ! D25   D(4,5,6,1)              0.0001         estimate D2E/DX2                !
 ! D26   D(4,5,6,10)          -179.9999         estimate D2E/DX2                !
 ! D27   D(9,5,6,1)           -179.9999         estimate D2E/DX2                !
 ! D28   D(9,5,6,10)             0.0            estimate D2E/DX2                !
 ! D29   D(3,11,23,12)          -0.0007         estimate D2E/DX2                !
 ! D30   D(3,11,23,13)         179.9982         estimate D2E/DX2                !
 ! D31   D(2,12,23,11)           0.0006         estimate D2E/DX2                !
 ! D32   D(2,12,23,13)        -179.9984         estimate D2E/DX2                !
 ! D33   D(15,13,14,16)          0.0013         estimate D2E/DX2                !
 ! D34   D(15,13,14,17)       -179.9992         estimate D2E/DX2                !
 ! D35   D(23,13,14,16)       -179.9988         estimate D2E/DX2                !
 ! D36   D(23,13,14,17)          0.0007         estimate D2E/DX2                !
 ! D37   D(14,13,15,18)         -0.0015         estimate D2E/DX2                !
 ! D38   D(14,13,15,24)        179.9982         estimate D2E/DX2                !
 ! D39   D(23,13,15,18)        179.9985         estimate D2E/DX2                !
 ! D40   D(23,13,15,24)         -0.0017         estimate D2E/DX2                !
 ! D41   D(14,13,23,11)       -179.9998         estimate D2E/DX2                !
 ! D42   D(14,13,23,12)         -0.0009         estimate D2E/DX2                !
 ! D43   D(15,13,23,11)          0.0001         estimate D2E/DX2                !
 ! D44   D(15,13,23,12)        179.999          estimate D2E/DX2                !
 ! D45   D(13,14,16,19)         -0.0003         estimate D2E/DX2                !
 ! D46   D(13,14,16,20)        179.9996         estimate D2E/DX2                !
 ! D47   D(17,14,16,19)       -179.9998         estimate D2E/DX2                !
 ! D48   D(17,14,16,20)          0.0001         estimate D2E/DX2                !
 ! D49   D(13,15,18,19)          0.0008         estimate D2E/DX2                !
 ! D50   D(13,15,18,21)       -179.9999         estimate D2E/DX2                !
 ! D51   D(24,15,18,19)       -179.999          estimate D2E/DX2                !
 ! D52   D(24,15,18,21)          0.0004         estimate D2E/DX2                !
 ! D53   D(13,15,24,25)          0.0019         estimate D2E/DX2                !
 ! D54   D(18,15,24,25)       -179.9983         estimate D2E/DX2                !
 ! D55   D(14,16,19,18)         -0.0005         estimate D2E/DX2                !
 ! D56   D(14,16,19,22)        179.9998         estimate D2E/DX2                !
 ! D57   D(20,16,19,18)        179.9996         estimate D2E/DX2                !
 ! D58   D(20,16,19,22)         -0.0001         estimate D2E/DX2                !
 ! D59   D(15,18,19,16)          0.0002         estimate D2E/DX2                !
 ! D60   D(15,18,19,22)        180.0            estimate D2E/DX2                !
 ! D61   D(21,18,19,16)       -179.9991         estimate D2E/DX2                !
 ! D62   D(21,18,19,22)          0.0006         estimate D2E/DX2                !
 ! Qtot  GIC-1                 -40.0            Frozen                          !
 ! Ptot  GIC-2                 180.0            Frozen                          !
 --------------------------------------------------------------------------------
 NOTE: GIC-type coordinates are in arbitrary units.
 Trust Radius=3.00D-01 FncErr=5.00D-06 GrdErr=5.00D-06 EigMax=2.50D+02 EigMin=1.00D-04
 Number of steps in this run=    143 maximum allowed number of steps=    150.
 GradGradGradGradGradGradGradGradGradGradGradGradGradGradGradGradGradGrad

 Leave Link  103 at Tue Jul 14 12:56:27 2020, MaxMem=  7784628224 cpu:               0.5 elap:               0.1
 (Enter /gpfs/loomis/apps/avx/software/Gaussian/16-C.01_AVX/g16/l202.exe)
                          Input orientation:                          
 ---------------------------------------------------------------------
 Center     Atomic      Atomic             Coordinates (Angstroms)
 Number     Number       Type             X           Y           Z
 ---------------------------------------------------------------------
      1          6           0        1.531603   -3.256621   -0.000017
      2          6           0        0.992122   -1.971905   -0.000023
      3          6           0        1.782607   -0.773347   -0.000028
      4          6           0        3.206290   -0.946445   -0.000030
      5          6           0        3.735794   -2.235048   -0.000024
      6          6           0        2.919791   -3.391319   -0.000016
      7          1           0        0.873198   -4.133583   -0.000012
      8          1           0        3.861774   -0.066895   -0.000037
      9          1           0        4.825042   -2.359603   -0.000025
     10          1           0        3.375802   -4.386593   -0.000010
     11          7           0        1.063694    0.368348   -0.000032
     12         16           0       -0.700230   -1.589787   -0.000026
     13          6           0       -1.300445    1.064438    0.000012
     14          6           0       -2.686367    0.723770    0.000025
     15          6           0       -0.931403    2.479100    0.000036
     16          6           0       -3.650404    1.718268    0.000033
     17          1           0       -2.978292   -0.332663    0.000021
     18          6           0       -1.930429    3.470590    0.000039
     19          6           0       -3.281292    3.092866    0.000035
     20          1           0       -4.710562    1.447067    0.000037
     21          1           0       -1.632989    4.525712    0.000055
     22          1           0       -4.060841    3.860799    0.000038
     23          6           0       -0.276550    0.111067   -0.000022
     24          8           0        0.360132    2.750874    0.000059
     25          1           0        0.840513    2.086569    0.000033
 ---------------------------------------------------------------------
                    Distance matrix (angstroms):
                    1          2          3          4          5
     1  C    0.000000
     2  C    1.393390   0.000000
     3  C    2.495927   1.435760   0.000000
     4  C    2.853330   2.440105   1.434168   0.000000
     5  C    2.429418   2.756263   2.439572   1.393153   0.000000
     6  C    1.394707   2.393877   2.854289   2.461604   1.415212
     7  H    1.096613   2.164947   3.481122   3.949832   3.434952
     8  H    3.950196   3.444411   2.195908   1.096935   2.171810
     9  H    3.413412   3.852479   3.431125   2.148808   1.096346
    10  H    2.162847   3.393030   3.948900   3.444322   2.181453
    11  N    3.655043   2.341347   1.349187   2.513842   3.730656
    12  S    2.785572   1.734954   2.613628   3.959140   4.482708
    13  C    5.166434   3.804634   3.589243   4.935009   6.020824
    14  C    5.799550   4.560476   4.713076   6.124788   7.070980
    15  C    6.242186   4.848854   4.236067   5.371672   6.633696
    16  C    7.183503   5.930465   5.977102   7.356286   8.377627
    17  H    5.374819   4.295497   4.781251   6.214964   6.978397
    18  C    7.565780   6.177544   5.638940   6.774665   8.041169
    19  C    7.967430   6.626761   6.371082   7.642300   8.810572
    20  H    7.815965   6.649058   6.862324   8.270759   9.214061
    21  H    8.401151   7.007869   6.304469   7.305006   8.633175
    22  H    9.051690   7.717050   7.457962   8.713254   9.896812
    23  C    3.822400   2.438914   2.241053   3.639850   4.647921
    24  O    6.120649   4.764877   3.800470   4.665917   6.021172
    25  H    5.387698   4.061305   3.011090   3.846567   5.201830
                    6          7          8          9         10
     6  C    0.000000
     7  H    2.177039   0.000000
     8  H    3.455304   5.046735   0.000000
     9  H    2.166662   4.331753   2.486844   0.000000
    10  H    1.094767   2.515361   4.346948   2.491784   0.000000
    11  N    4.192875   4.505960   2.831730   4.646446   5.287278
    12  S    4.043521   2.991082   4.809478   5.578642   4.943294
    13  C    6.137114   5.634195   5.284735   7.017525   7.181993
    14  C    6.954349   6.021992   6.595703   8.119634   7.928789
    15  C    7.020934   6.854499   5.427397   7.519954   8.104921
    16  C    8.323181   7.396427   7.721375   9.405436   9.307894
    17  H    6.644001   5.411189   6.845227   8.062289   7.537165
    18  C    8.403001   8.104553   6.787004   8.923427   9.481108
    19  C    8.972072   8.335548   7.810729   9.769446  10.012952
    20  H    9.035058   7.894431   8.705001  10.267351   9.971002
    21  H    9.132753   9.014675   7.161317   9.440007  10.223364
    22  H   10.065905   9.394408   8.842772  10.846766  11.105095
    23  C    4.741656   4.397610   4.142149   5.668374   5.793843
    24  O    6.654201   6.903549   4.494588   6.786192   7.748400
    25  H    5.859237   6.220239   3.710179   5.970337   6.951944
                   11         12         13         14         15
    11  N    0.000000
    12  S    2.635474   0.000000
    13  C    2.464487   2.721244   0.000000
    14  C    3.766866   3.049146   1.427176   0.000000
    15  C    2.904424   4.075449   1.462005   2.482152   0.000000
    16  C    4.903570   4.432466   2.439221   1.385061   2.823443
    17  H    4.102324   2.601908   2.183360   1.096026   3.477896
    18  C    4.311458   5.207765   2.487257   2.848941   1.407518
    19  C    5.128538   5.346880   2.835185   2.442652   2.428722
    20  H    5.874153   5.030433   3.431516   2.149541   3.917542
    21  H    4.955378   6.186224   3.477212   3.945169   2.163526
    22  H    6.201457   6.403327   3.929303   3.424928   3.420888
    23  C    1.364715   1.752829   1.399027   2.486488   2.456911
    24  O    2.484236   4.468301   2.366767   3.659277   1.319820
    25  H    1.732655   3.986162   2.372437   3.781019   1.814874
                   16         17         18         19         20
    16  C    0.000000
    17  H    2.158252   0.000000
    18  C    2.455392   3.944966   0.000000
    19  C    1.423292   3.438903   1.402679   0.000000
    20  H    1.094297   2.483587   3.438574   2.179786   0.000000
    21  H    3.457123   5.041195   1.096244   2.184022   4.353103
    22  H    2.181490   4.330940   2.165853   1.094266   2.499648
    23  C    3.737109   2.737938   3.744558   4.233155   4.630914
    24  O    4.141337   4.544588   2.400971   3.657449   5.235634
    25  H    4.505994   4.520614   3.097359   4.242866   5.587790
                   21         22         23         24         25
    21  H    0.000000
    22  H    2.517255   0.000000
    23  C    4.618335   5.327415   0.000000
    24  O    2.668816   4.558173   2.715501   0.000000
    25  H    3.473849   5.212597   2.269458   0.819797   0.000000
 Symmetry turned off by external request.
 Stoichiometry    C13H9NOS
 Framework group  C1[X(C13H9NOS)]
 Deg. of freedom    69
 Full point group                 C1      NOp   1
 Rotational constants (GHZ):           1.3989311           0.2864499           0.2377645
 Leave Link  202 at Tue Jul 14 12:56:27 2020, MaxMem=  7784628224 cpu:               0.3 elap:               0.1
 (Enter /gpfs/loomis/apps/avx/software/Gaussian/16-C.01_AVX/g16/l301.exe)
 Standard basis: CC-pVDZ (5D, 7F)
 Ernie: Thresh=  0.10000D-02 Tol=  0.10000D-05 Strict=F.
 Ernie:  40 primitive shells out of 425 were deleted.
   273 basis functions,   629 primitive gaussians,   289 cartesian basis functions
    59 alpha electrons       59 beta electrons
       nuclear repulsion energy      1100.2536022571 Hartrees.
 IExCor= 4639 DFT=T Ex+Corr=wB97XD ExCW=0 ScaHFX=  1.000000
 ScaDFX=  1.000000  1.000000  1.000000  1.000000 ScalE2=  1.000000  1.000000
 IRadAn=      5 IRanWt=     -1 IRanGd=            0 ICorTp=0 IEmpDi=121
 HFx  wShort=  0.000000 wLong=  0.200000 cFull=  0.222036 cShort=  0.000000 cLong=  0.777964
 DFx  wShort=  0.000000 wLong=  0.200000 cFull=  0.000000 cShort=  0.000000 cLong=  1.000000
 NAtoms=   25 NActive=   25 NUniq=   25 SFac= 1.00D+00 NAtFMM=   60 NAOKFM=F Big=F
 Integral buffers will be    131072 words long.
 Raffenetti 1 integral format.
 Two-electron integral symmetry is turned off.
 R6Disp:  Grimme-D2 Dispersion energy=       -0.0138051946 Hartrees.
 Nuclear repulsion after empirical dispersion term =     1100.2397970624 Hartrees.
 ------------------------------------------------------------------------------
 Polarizable Continuum Model (PCM)
 =================================
 Model                : PCM.
 Atomic radii         : UFF (Universal Force Field).
 Polarization charges : Total charges.
 Charge compensation  : None.
 Solution method      : On-the-fly selection.
 Cavity type          : Scaled VdW (van der Waals Surface) (Alpha=1.100).
 Cavity algorithm     : GePol (No added spheres)
                        Default sphere list used, NSphG=   25.
                        Lebedev-Laikov grids with approx.  5.0 points / Ang**2.
                        Smoothing algorithm: York/Karplus (Gamma=1.0000).
                        Polarization charges: spherical gaussians, with
                                              point-specific exponents (IZeta= 3).
                        Self-potential: point-specific (ISelfS= 7).
                        Self-field    : sphere-specific E.n sum rule (ISelfD= 2).
 1st derivatives      : Analytical E(r).r(x)/FMM algorithm (CHGder, D1EAlg=3).
                        Cavity 1st derivative terms included.
 Solvent              : CarbonTetraChloride, Eps=   2.228000 Eps(inf)=   2.131892
 ------------------------------------------------------------------------------
 GePol: Number of generator spheres                  =      25
 GePol: Total number of spheres                      =      25
 GePol: Number of exposed spheres                    =      25 (100.00%)
 GePol: Number of points                             =    2190
 GePol: Average weight of points                     =       0.12
 GePol: Minimum weight of points                     =   0.59D-08
 GePol: Maximum weight of points                     =    0.20577
 GePol: Number of points with low weight             =     148
 GePol: Fraction of low-weight points (<1% of avg)   =       6.76%
 GePol: Cavity surface area                          =    272.000 Ang**2
 GePol: Cavity volume                                =    292.458 Ang**3
 Leave Link  301 at Tue Jul 14 12:56:27 2020, MaxMem=  7784628224 cpu:               0.9 elap:               0.1
 (Enter /gpfs/loomis/apps/avx/software/Gaussian/16-C.01_AVX/g16/l302.exe)
 NPDir=0 NMtPBC=     1 NCelOv=     1 NCel=       1 NClECP=     1 NCelD=      1
         NCelK=      1 NCelE2=     1 NClLst=     1 CellRange=     0.0.
 One-electron integrals computed using PRISM.
 NBasis=   273 RedAO= T EigKep=  3.31D-04  NBF=   273
 NBsUse=   273 1.00D-06 EigRej= -1.00D+00 NBFU=   273
 Precomputing XC quadrature grid using
 IXCGrd= 4 IRadAn=           5 IRanWt=          -1 IRanGd=           0 AccXCQ= 0.00D+00.
 Generated NRdTot=       0 NPtTot=           0 NUsed=           0 NTot=          32
 NSgBfM=   288   288   288   288   288 MxSgAt=    25 MxSgA2=    25.
 Leave Link  302 at Tue Jul 14 12:56:27 2020, MaxMem=  7784628224 cpu:               3.8 elap:               0.4
 (Enter /gpfs/loomis/apps/avx/software/Gaussian/16-C.01_AVX/g16/l303.exe)
 DipDrv:  MaxL=1.
 Leave Link  303 at Tue Jul 14 12:56:28 2020, MaxMem=  7784628224 cpu:               0.4 elap:               0.1
 (Enter /gpfs/loomis/apps/avx/software/Gaussian/16-C.01_AVX/g16/l308.exe)
 Leave Link  308 at Tue Jul 14 12:56:28 2020, MaxMem=  7784628224 cpu:               0.5 elap:               0.1
 (Enter /gpfs/loomis/apps/avx/software/Gaussian/16-C.01_AVX/g16/l401.exe)
 ExpMin= 1.22D-01 ExpMax= 1.11D+05 ExpMxC= 1.07D+03 IAcc=3 IRadAn=         5 AccDes= 0.00D+00
 Harris functional with IExCor= 4639 and IRadAn=       5 diagonalized for initial guess.
 HarFok:  IExCor= 4639 AccDes= 0.00D+00 IRadAn=         5 IDoV= 1 UseB2=F ITyADJ=14
 ICtDFT=  3500011 ScaDFX=  1.000000  1.000000  1.000000  1.000000
 FoFCou: FMM=F IPFlag=           0 FMFlag=      100000 FMFlg1=           0
         NFxFlg=           0 DoJE=T BraDBF=F KetDBF=T FulRan=T
         wScrn=  0.000000 ICntrl=       500 IOpCl=  0 I1Cent=   200000004 NGrid=           0
         NMat0=    1 NMatS0=      1 NMatT0=    0 NMatD0=    1 NMtDS0=    0 NMtDT0=    0
 Symmetry not used in FoFCou.
 Harris En= -994.401580199136    
 JPrj=0 DoOrth=F DoCkMO=F.
 Leave Link  401 at Tue Jul 14 12:56:29 2020, MaxMem=  7784628224 cpu:              13.5 elap:               1.5
 (Enter /gpfs/loomis/apps/avx/software/Gaussian/16-C.01_AVX/g16/l502.exe)
 Two-electron integral symmetry not used.
 Closed shell SCF:
 Using DIIS extrapolation, IDIIS=  1040.
 NGot=  7784628224 LenX=  7784455381 LenY=  7784371419
 Requested convergence on RMS density matrix=1.00D-08 within 128 cycles.
 Requested convergence on MAX density matrix=1.00D-06.
 Requested convergence on             energy=1.00D-06.
 No special actions if energy rises.
 Fock matrices will be formed incrementally for  20 cycles.

 Cycle   1  Pass 1  IDiag  1:
 FoFJK:  IHMeth= 1 ICntrl=       0 DoSepK=T KAlg= 0 I1Cent=           0 FoldK=F
 IRaf=         1 NMat=       1 IRICut=       1 DoRegI=T DoRafI=F ISym2E= 0 IDoP0=0 IntGTp=1.
 FoFCou: FMM=F IPFlag=           0 FMFlag=      100000 FMFlg1=           0
         NFxFlg=           0 DoJE=T BraDBF=F KetDBF=F FulRan=T
         wScrn=  0.000000 ICntrl=       500 IOpCl=  0 I1Cent=           0 NGrid=           0
         NMat0=    1 NMatS0=      1 NMatT0=    0 NMatD0=    1 NMtDS0=    0 NMtDT0=    0
 Symmetry not used in FoFCou.
 Inv3:  Mode=1 IEnd=    14388300.
 Iteration    1 A*A^-1 deviation from unit magnitude is 4.88D-15 for   2165.
 Iteration    1 A*A^-1 deviation from orthogonality  is 1.53D-15 for   1882    342.
 Iteration    1 A^-1*A deviation from unit magnitude is 4.88D-15 for   2165.
 Iteration    1 A^-1*A deviation from orthogonality  is 1.91D-15 for   1106    605.
 E= -1028.56720310363    
 DIIS: error= 3.04D-02 at cycle   1 NSaved=   1.
 NSaved= 1 IEnMin= 1 EnMin= -1028.56720310363     IErMin= 1 ErrMin= 3.04D-02
 ErrMax= 3.04D-02  0.00D+00 EMaxC= 1.00D-01 BMatC= 3.70D-01 BMatP= 3.70D-01
 IDIUse=3 WtCom= 6.96D-01 WtEn= 3.04D-01
 Coeff-Com:  0.100D+01
 Coeff-En:   0.100D+01
 Coeff:      0.100D+01
 Gap=     0.352 Goal=   None    Shift=    0.000
 GapD=    0.352 DampG=1.000 DampE=0.500 DampFc=0.5000 IDamp=-1.
 Damping current iteration by 5.00D-01
 RMSDP=3.37D-03 MaxDP=2.20D-01              OVMax= 1.69D-01

 Cycle   2  Pass 1  IDiag  1:
 RMSU=  1.68D-03    CP:  9.93D-01
 E= -1028.67480158989     Delta-E=       -0.107598486257 Rises=F Damp=T
 DIIS: error= 1.13D-02 at cycle   2 NSaved=   2.
 NSaved= 2 IEnMin= 2 EnMin= -1028.67480158989     IErMin= 2 ErrMin= 1.13D-02
 ErrMax= 1.13D-02  0.00D+00 EMaxC= 1.00D-01 BMatC= 5.69D-02 BMatP= 3.70D-01
 IDIUse=3 WtCom= 8.87D-01 WtEn= 1.13D-01
 Coeff-Com: -0.342D+00 0.134D+01
 Coeff-En:   0.000D+00 0.100D+01
 Coeff:     -0.303D+00 0.130D+01
 Gap=     0.306 Goal=   None    Shift=    0.000
 RMSDP=1.10D-03 MaxDP=2.10D-02 DE=-1.08D-01 OVMax= 1.17D-01

 Cycle   3  Pass 1  IDiag  1:
 RMSU=  1.03D-03    CP:  9.91D-01  1.22D+00
 E= -1028.76829411820     Delta-E=       -0.093492528311 Rises=F Damp=F
 DIIS: error= 5.71D-03 at cycle   3 NSaved=   3.
 NSaved= 3 IEnMin= 3 EnMin= -1028.76829411820     IErMin= 3 ErrMin= 5.71D-03
 ErrMax= 5.71D-03  0.00D+00 EMaxC= 1.00D-01 BMatC= 1.08D-02 BMatP= 5.69D-02
 IDIUse=3 WtCom= 9.43D-01 WtEn= 5.71D-02
 Coeff-Com: -0.207D+00 0.477D+00 0.730D+00
 Coeff-En:   0.000D+00 0.000D+00 0.100D+01
 Coeff:     -0.195D+00 0.450D+00 0.746D+00
 Gap=     0.265 Goal=   None    Shift=    0.000
 RMSDP=4.78D-04 MaxDP=1.50D-02 DE=-9.35D-02 OVMax= 3.81D-02

 Cycle   4  Pass 1  IDiag  1:
 RMSU=  3.50D-04    CP:  9.89D-01  1.39D+00  8.61D-01
 E= -1028.77917713614     Delta-E=       -0.010883017938 Rises=F Damp=F
 DIIS: error= 2.02D-03 at cycle   4 NSaved=   4.
 NSaved= 4 IEnMin= 4 EnMin= -1028.77917713614     IErMin= 4 ErrMin= 2.02D-03
 ErrMax= 2.02D-03  0.00D+00 EMaxC= 1.00D-01 BMatC= 1.35D-03 BMatP= 1.08D-02
 IDIUse=3 WtCom= 9.80D-01 WtEn= 2.02D-02
 Coeff-Com: -0.771D-01 0.153D+00 0.360D+00 0.564D+00
 Coeff-En:   0.000D+00 0.000D+00 0.000D+00 0.100D+01
 Coeff:     -0.755D-01 0.150D+00 0.353D+00 0.573D+00
 Gap=     0.263 Goal=   None    Shift=    0.000
 RMSDP=1.44D-04 MaxDP=7.57D-03 DE=-1.09D-02 OVMax= 1.09D-02

 Cycle   5  Pass 1  IDiag  1:
 RMSU=  9.62D-05    CP:  9.89D-01  1.40D+00  9.24D-01  7.55D-01
 E= -1028.78063798982     Delta-E=       -0.001460853682 Rises=F Damp=F
 DIIS: error= 4.11D-04 at cycle   5 NSaved=   5.
 NSaved= 5 IEnMin= 5 EnMin= -1028.78063798982     IErMin= 5 ErrMin= 4.11D-04
 ErrMax= 4.11D-04  0.00D+00 EMaxC= 1.00D-01 BMatC= 6.04D-05 BMatP= 1.35D-03
 IDIUse=3 WtCom= 9.96D-01 WtEn= 4.11D-03
 Coeff-Com: -0.395D-02 0.221D-02 0.501D-01 0.194D+00 0.757D+00
 Coeff-En:   0.000D+00 0.000D+00 0.000D+00 0.000D+00 0.100D+01
 Coeff:     -0.393D-02 0.220D-02 0.499D-01 0.194D+00 0.758D+00
 Gap=     0.264 Goal=   None    Shift=    0.000
 RMSDP=4.90D-05 MaxDP=1.60D-03 DE=-1.46D-03 OVMax= 4.40D-03

 Cycle   6  Pass 1  IDiag  1:
 RMSU=  3.27D-05    CP:  9.89D-01  1.40D+00  9.41D-01  8.41D-01  1.03D+00
 E= -1028.78074267761     Delta-E=       -0.000104687789 Rises=F Damp=F
 DIIS: error= 1.41D-04 at cycle   6 NSaved=   6.
 NSaved= 6 IEnMin= 6 EnMin= -1028.78074267761     IErMin= 6 ErrMin= 1.41D-04
 ErrMax= 1.41D-04  0.00D+00 EMaxC= 1.00D-01 BMatC= 8.57D-06 BMatP= 6.04D-05
 IDIUse=3 WtCom= 9.99D-01 WtEn= 1.41D-03
 Coeff-Com:  0.154D-01-0.318D-01-0.558D-01-0.454D-01 0.220D+00 0.898D+00
 Coeff-En:   0.000D+00 0.000D+00 0.000D+00 0.000D+00 0.000D+00 0.100D+01
 Coeff:      0.153D-01-0.318D-01-0.557D-01-0.453D-01 0.220D+00 0.898D+00
 Gap=     0.264 Goal=   None    Shift=    0.000
 RMSDP=2.91D-05 MaxDP=1.54D-03 DE=-1.05D-04 OVMax= 2.59D-03

 Cycle   7  Pass 1  IDiag  1:
 RMSU=  1.57D-05    CP:  9.89D-01  1.40D+00  9.53D-01  8.79D-01  1.19D+00
                    CP:  1.18D+00
 E= -1028.78076746868     Delta-E=       -0.000024791075 Rises=F Damp=F
 DIIS: error= 8.24D-05 at cycle   7 NSaved=   7.
 NSaved= 7 IEnMin= 7 EnMin= -1028.78076746868     IErMin= 7 ErrMin= 8.24D-05
 ErrMax= 8.24D-05  0.00D+00 EMaxC= 1.00D-01 BMatC= 1.88D-06 BMatP= 8.57D-06
 IDIUse=1 WtCom= 1.00D+00 WtEn= 0.00D+00
 Coeff-Com:  0.696D-02-0.134D-01-0.299D-01-0.450D-01-0.197D-01 0.377D+00
 Coeff-Com:  0.725D+00
 Coeff:      0.696D-02-0.134D-01-0.299D-01-0.450D-01-0.197D-01 0.377D+00
 Coeff:      0.725D+00
 Gap=     0.264 Goal=   None    Shift=    0.000
 RMSDP=9.82D-06 MaxDP=5.12D-04 DE=-2.48D-05 OVMax= 1.14D-03

 Cycle   8  Pass 1  IDiag  1:
 RMSU=  6.25D-06    CP:  9.89D-01  1.40D+00  9.55D-01  8.85D-01  1.23D+00
                    CP:  1.35D+00  1.09D+00
 E= -1028.78077125723     Delta-E=       -0.000003788544 Rises=F Damp=F
 DIIS: error= 3.08D-05 at cycle   8 NSaved=   8.
 NSaved= 8 IEnMin= 8 EnMin= -1028.78077125723     IErMin= 8 ErrMin= 3.08D-05
 ErrMax= 3.08D-05  0.00D+00 EMaxC= 1.00D-01 BMatC= 2.13D-07 BMatP= 1.88D-06
 IDIUse=1 WtCom= 1.00D+00 WtEn= 0.00D+00
 Coeff-Com: -0.103D-02 0.234D-02 0.249D-02-0.202D-02-0.404D-01-0.510D-01
 Coeff-Com:  0.210D+00 0.880D+00
 Coeff:     -0.103D-02 0.234D-02 0.249D-02-0.202D-02-0.404D-01-0.510D-01
 Coeff:      0.210D+00 0.880D+00
 Gap=     0.264 Goal=   None    Shift=    0.000
 RMSDP=4.33D-06 MaxDP=1.40D-04 DE=-3.79D-06 OVMax= 6.02D-04

 Cycle   9  Pass 1  IDiag  1:
 RMSU=  2.04D-06    CP:  9.89D-01  1.40D+00  9.55D-01  8.86D-01  1.24D+00
                    CP:  1.41D+00  1.28D+00  1.11D+00
 E= -1028.78077185646     Delta-E=       -0.000000599237 Rises=F Damp=F
 DIIS: error= 1.48D-05 at cycle   9 NSaved=   9.
 NSaved= 9 IEnMin= 9 EnMin= -1028.78077185646     IErMin= 9 ErrMin= 1.48D-05
 ErrMax= 1.48D-05  0.00D+00 EMaxC= 1.00D-01 BMatC= 4.75D-08 BMatP= 2.13D-07
 IDIUse=1 WtCom= 1.00D+00 WtEn= 0.00D+00
 Coeff-Com: -0.128D-02 0.259D-02 0.478D-02 0.534D-02-0.142D-01-0.720D-01
 Coeff-Com: -0.254D-02 0.365D+00 0.713D+00
 Coeff:     -0.128D-02 0.259D-02 0.478D-02 0.534D-02-0.142D-01-0.720D-01
 Coeff:     -0.254D-02 0.365D+00 0.713D+00
 Gap=     0.264 Goal=   None    Shift=    0.000
 RMSDP=1.67D-06 MaxDP=5.64D-05 DE=-5.99D-07 OVMax= 1.55D-04

 Cycle  10  Pass 1  IDiag  1:
 RMSU=  9.18D-07    CP:  9.89D-01  1.40D+00  9.55D-01  8.85D-01  1.25D+00
                    CP:  1.43D+00  1.32D+00  1.26D+00  1.06D+00
 E= -1028.78077195998     Delta-E=       -0.000000103518 Rises=F Damp=F
 DIIS: error= 6.58D-06 at cycle  10 NSaved=  10.
 NSaved=10 IEnMin=10 EnMin= -1028.78077195998     IErMin=10 ErrMin= 6.58D-06
 ErrMax= 6.58D-06  0.00D+00 EMaxC= 1.00D-01 BMatC= 7.05D-09 BMatP= 4.75D-08
 IDIUse=1 WtCom= 1.00D+00 WtEn= 0.00D+00
 Coeff-Com: -0.233D-03 0.427D-03 0.113D-02 0.241D-02 0.264D-02-0.200D-01
 Coeff-Com: -0.415D-01-0.393D-01 0.241D+00 0.854D+00
 Coeff:     -0.233D-03 0.427D-03 0.113D-02 0.241D-02 0.264D-02-0.200D-01
 Coeff:     -0.415D-01-0.393D-01 0.241D+00 0.854D+00
 Gap=     0.264 Goal=   None    Shift=    0.000
 RMSDP=9.25D-07 MaxDP=3.18D-05 DE=-1.04D-07 OVMax= 1.41D-04

 Cycle  11  Pass 1  IDiag  1:
 RMSU=  4.13D-07    CP:  9.89D-01  1.40D+00  9.55D-01  8.85D-01  1.25D+00
                    CP:  1.44D+00  1.35D+00  1.32D+00  1.29D+00  1.15D+00
 E= -1028.78077198657     Delta-E=       -0.000000026590 Rises=F Damp=F
 DIIS: error= 3.26D-06 at cycle  11 NSaved=  11.
 NSaved=11 IEnMin=11 EnMin= -1028.78077198657     IErMin=11 ErrMin= 3.26D-06
 ErrMax= 3.26D-06  0.00D+00 EMaxC= 1.00D-01 BMatC= 1.45D-09 BMatP= 7.05D-09
 IDIUse=1 WtCom= 1.00D+00 WtEn= 0.00D+00
 Coeff-Com:  0.151D-03-0.315D-03-0.493D-03-0.953D-04 0.318D-02 0.436D-02
 Coeff-Com: -0.814D-02-0.592D-01-0.637D-01 0.270D+00 0.854D+00
 Coeff:      0.151D-03-0.315D-03-0.493D-03-0.953D-04 0.318D-02 0.436D-02
 Coeff:     -0.814D-02-0.592D-01-0.637D-01 0.270D+00 0.854D+00
 Gap=     0.264 Goal=   None    Shift=    0.000
 RMSDP=3.71D-07 MaxDP=8.38D-06 DE=-2.66D-08 OVMax= 5.92D-05

 Cycle  12  Pass 1  IDiag  1:
 RMSU=  1.57D-07    CP:  9.89D-01  1.40D+00  9.55D-01  8.85D-01  1.25D+00
                    CP:  1.44D+00  1.36D+00  1.33D+00  1.38D+00  1.39D+00
                    CP:  1.16D+00
 E= -1028.78077199167     Delta-E=       -0.000000005094 Rises=F Damp=F
 DIIS: error= 8.56D-07 at cycle  12 NSaved=  12.
 NSaved=12 IEnMin=12 EnMin= -1028.78077199167     IErMin=12 ErrMin= 8.56D-07
 ErrMax= 8.56D-07  0.00D+00 EMaxC= 1.00D-01 BMatC= 2.63D-10 BMatP= 1.45D-09
 IDIUse=1 WtCom= 1.00D+00 WtEn= 0.00D+00
 Coeff-Com:  0.101D-03-0.197D-03-0.428D-03-0.582D-03 0.623D-03 0.579D-02
 Coeff-Com:  0.723D-02-0.891D-02-0.928D-01-0.109D+00 0.223D+00 0.975D+00
 Coeff:      0.101D-03-0.197D-03-0.428D-03-0.582D-03 0.623D-03 0.579D-02
 Coeff:      0.723D-02-0.891D-02-0.928D-01-0.109D+00 0.223D+00 0.975D+00
 Gap=     0.264 Goal=   None    Shift=    0.000
 RMSDP=2.26D-07 MaxDP=5.01D-06 DE=-5.09D-09 OVMax= 3.53D-05

 Cycle  13  Pass 1  IDiag  1:
 RMSU=  6.71D-08    CP:  9.89D-01  1.40D+00  9.55D-01  8.85D-01  1.25D+00
                    CP:  1.44D+00  1.36D+00  1.34D+00  1.43D+00  1.52D+00
                    CP:  1.45D+00  1.28D+00
 E= -1028.78077199296     Delta-E=       -0.000000001299 Rises=F Damp=F
 DIIS: error= 3.90D-07 at cycle  13 NSaved=  13.
 NSaved=13 IEnMin=13 EnMin= -1028.78077199296     IErMin=13 ErrMin= 3.90D-07
 ErrMax= 3.90D-07  0.00D+00 EMaxC= 1.00D-01 BMatC= 3.45D-11 BMatP= 2.63D-10
 IDIUse=1 WtCom= 1.00D+00 WtEn= 0.00D+00
 Coeff-Com:  0.192D-05-0.117D-05-0.349D-04-0.134D-03-0.219D-03 0.820D-03
 Coeff-Com:  0.339D-02 0.794D-02-0.159D-01-0.635D-01-0.876D-01 0.261D+00
 Coeff-Com:  0.894D+00
 Coeff:      0.192D-05-0.117D-05-0.349D-04-0.134D-03-0.219D-03 0.820D-03
 Coeff:      0.339D-02 0.794D-02-0.159D-01-0.635D-01-0.876D-01 0.261D+00
 Coeff:      0.894D+00
 Gap=     0.264 Goal=   None    Shift=    0.000
 RMSDP=6.59D-08 MaxDP=1.51D-06 DE=-1.30D-09 OVMax= 8.92D-06

 Cycle  14  Pass 1  IDiag  1:
 RMSU=  2.73D-08    CP:  9.89D-01  1.40D+00  9.55D-01  8.85D-01  1.25D+00
                    CP:  1.44D+00  1.36D+00  1.35D+00  1.44D+00  1.56D+00
                    CP:  1.52D+00  1.50D+00  1.16D+00
 E= -1028.78077199308     Delta-E=       -0.000000000112 Rises=F Damp=F
 DIIS: error= 1.41D-07 at cycle  14 NSaved=  14.
 NSaved=14 IEnMin=14 EnMin= -1028.78077199308     IErMin=14 ErrMin= 1.41D-07
 ErrMax= 1.41D-07  0.00D+00 EMaxC= 1.00D-01 BMatC= 5.46D-12 BMatP= 3.45D-11
 IDIUse=1 WtCom= 1.00D+00 WtEn= 0.00D+00
 Coeff-Com: -0.113D-04 0.232D-04 0.388D-04 0.192D-04-0.139D-03-0.386D-03
 Coeff-Com:  0.368D-03 0.377D-02 0.393D-02-0.882D-02-0.559D-01-0.119D-01
 Coeff-Com:  0.337D+00 0.732D+00
 Coeff:     -0.113D-04 0.232D-04 0.388D-04 0.192D-04-0.139D-03-0.386D-03
 Coeff:      0.368D-03 0.377D-02 0.393D-02-0.882D-02-0.559D-01-0.119D-01
 Coeff:      0.337D+00 0.732D+00
 Gap=     0.264 Goal=   None    Shift=    0.000
 RMSDP=1.66D-08 MaxDP=3.87D-07 DE=-1.12D-10 OVMax= 2.31D-06

 Cycle  15  Pass 1  IDiag  1:
 RMSU=  9.44D-09    CP:  9.89D-01  1.40D+00  9.55D-01  8.85D-01  1.25D+00
                    CP:  1.44D+00  1.36D+00  1.35D+00  1.44D+00  1.56D+00
                    CP:  1.54D+00  1.54D+00  1.30D+00  1.02D+00
 E= -1028.78077199308     Delta-E=       -0.000000000008 Rises=F Damp=F
 DIIS: error= 3.95D-08 at cycle  15 NSaved=  15.
 NSaved=15 IEnMin=15 EnMin= -1028.78077199308     IErMin=15 ErrMin= 3.95D-08
 ErrMax= 3.95D-08  0.00D+00 EMaxC= 1.00D-01 BMatC= 6.46D-13 BMatP= 5.46D-12
 IDIUse=1 WtCom= 1.00D+00 WtEn= 0.00D+00
 Coeff-Com: -0.303D-05 0.564D-05 0.165D-04 0.282D-04-0.454D-05-0.274D-03
 Coeff-Com: -0.574D-03-0.338D-03 0.406D-02 0.954D-02-0.264D-03-0.539D-01
 Coeff-Com: -0.743D-01 0.178D+00 0.938D+00
 Coeff:     -0.303D-05 0.564D-05 0.165D-04 0.282D-04-0.454D-05-0.274D-03
 Coeff:     -0.574D-03-0.338D-03 0.406D-02 0.954D-02-0.264D-03-0.539D-01
 Coeff:     -0.743D-01 0.178D+00 0.938D+00
 Gap=     0.264 Goal=   None    Shift=    0.000
 RMSDP=8.58D-09 MaxDP=1.95D-07 DE=-7.50D-12 OVMax= 9.46D-07

 Error on total polarization charges =  0.00795
 SCF Done:  E(RwB97XD) =  -1028.78077199     A.U. after   15 cycles
            NFock= 15  Conv=0.86D-08     -V/T= 2.0047
 KE= 1.023984967971D+03 PE=-4.612734933984D+03 EE= 1.459729396958D+03
 Leave Link  502 at Tue Jul 14 12:57:50 2020, MaxMem=  7784628224 cpu:             802.8 elap:              81.0
 (Enter /gpfs/loomis/apps/avx/software/Gaussian/16-C.01_AVX/g16/l801.exe)
 DoSCS=F DFT=T ScalE2(SS,OS)=  1.000000  1.000000
 ExpMin= 1.22D-01 ExpMax= 1.11D+05 ExpMxC= 1.07D+03 IAcc=3 IRadAn=         5 AccDes= 0.00D+00
 HarFok:  IExCor=  205 AccDes= 0.00D+00 IRadAn=         5 IDoV=-2 UseB2=F ITyADJ=14
 ICtDFT= 12500011 ScaDFX=  1.000000  1.000000  1.000000  1.000000
 Largest valence mixing into a core orbital is  9.42D-05
 Largest core mixing into a valence orbital is  3.42D-05
 Range of M.O.s used for correlation:    21   273
 NBasis=   273 NAE=    59 NBE=    59 NFC=    20 NFV=     0
 NROrb=    253 NOA=    39 NOB=    39 NVA=   214 NVB=   214

 **** Warning!!: The largest alpha MO coefficient is  0.10665809D+02

 Leave Link  801 at Tue Jul 14 12:57:51 2020, MaxMem=  7784628224 cpu:               0.9 elap:               0.1
 (Enter /gpfs/loomis/apps/avx/software/Gaussian/16-C.01_AVX/g16/l914.exe)
 RHF ground state
 Keep R1, R2, and R3 ints in memory in canonical form, NReq=4262515490.
 FoFCou: FMM=F IPFlag=           0 FMFlag=           0 FMFlg1=           0
         NFxFlg=           0 DoJE=F BraDBF=F KetDBF=F FulRan=T
         wScrn=  0.000000 ICntrl=       600 IOpCl=  0 I1Cent=           0 NGrid=           0
         NMat0=    1 NMatS0=  37401 NMatT0=    0 NMatD0=    1 NMtDS0=    0 NMtDT0=    0
 Symmetry not used in FoFCou.
 Two-electron integral symmetry not used.
 MDV=  7784628224 DFT=T DoStab=F Mixed=T DoRPA=T DoScal=F NonHer=T
 NEqPCM:  Using equilibrium solvation (IEInf=0, Eps=   2.2280, EpsInf=   2.1319)
 Making orbital integer symmetry assigments:
    12 initial guesses have been made.
 Convergence on wavefunction:    0.000001000000000
 Davidson Disk Diagonalization:  ConvIn= 1.00D-06 SkipCon=T Conv= 1.00D-06.
 Max sub-space:  2000 roots to seek:    12 dimension of matrix:        16692
 Iteration     1 Dimension    12 NMult     0 NNew     12
 CISAX will form    12 AO SS matrices at one time.
 NMat=    12 NSing=    12 JSym2X= 0.
 New state      2 was old state      3
 New state      3 was old state      2
 Excitation Energies [eV] at current iteration:
 Root      1 :     4.092856640547924
 Root      2 :     4.936662414308160
 Root      3 :     5.037412744306017
 Root      4 :     5.342322408703700
 Root      5 :     6.060455492497578
 Root      6 :     6.176529907749953
 Root      7 :     6.292794445419636
 Root      8 :     6.506857630570525
 Root      9 :     6.886547891694977
 Root     10 :     7.144797113961386
 Root     11 :     7.499756480896971
 Root     12 :     7.709743680524084
 Iteration     2 Dimension    18 NMult    12 NNew      6
 CISAX will form     6 AO SS matrices at one time.
 NMat=     6 NSing=     6 JSym2X= 0.
 Root      1 not converged, maximum delta is    0.056524178427931
 Root      2 not converged, maximum delta is    0.389962254663851
 Root      3 not converged, maximum delta is    0.378751532586794
 Excitation Energies [eV] at current iteration:
 Root      1 :     3.608096893561739   Change is   -0.484759746986185
 Root      2 :     4.486691209594269   Change is   -0.449971204713892
 Root      3 :     4.578531281278839   Change is   -0.458881463027179
 Iteration     3 Dimension    24 NMult    18 NNew      6
 CISAX will form     6 AO SS matrices at one time.
 NMat=     6 NSing=     6 JSym2X= 0.
 Root      1 not converged, maximum delta is    0.021994380755387
 Root      2 not converged, maximum delta is    0.037949393304572
 Root      3 not converged, maximum delta is    0.029063042940079
 Excitation Energies [eV] at current iteration:
 Root      1 :     3.574189348526771   Change is   -0.033907545034969
 Root      2 :     4.441133745071840   Change is   -0.045557464522428
 Root      3 :     4.533860332580555   Change is   -0.044670948698284
 Iteration     4 Dimension    30 NMult    24 NNew      6
 CISAX will form     6 AO SS matrices at one time.
 NMat=     6 NSing=     6 JSym2X= 0.
 Root      1 not converged, maximum delta is    0.007028986447653
 Root      2 not converged, maximum delta is    0.012758177289034
 Root      3 not converged, maximum delta is    0.007416211378295
 Excitation Energies [eV] at current iteration:
 Root      1 :     3.570712361967372   Change is   -0.003476986559398
 Root      2 :     4.434945051811639   Change is   -0.006188693260201
 Root      3 :     4.529061033812474   Change is   -0.004799298768080
 Iteration     5 Dimension    36 NMult    30 NNew      6
 CISAX will form     6 AO SS matrices at one time.
 NMat=     6 NSing=     6 JSym2X= 0.
 Root      1 not converged, maximum delta is    0.002243224085370
 Root      2 not converged, maximum delta is    0.003156888861322
 Root      3 not converged, maximum delta is    0.003666122145939
 Excitation Energies [eV] at current iteration:
 Root      1 :     3.570404297852214   Change is   -0.000308064115159
 Root      2 :     4.434406430174648   Change is   -0.000538621636992
 Root      3 :     4.528321610506465   Change is   -0.000739423306009
 Iteration     6 Dimension    42 NMult    36 NNew      6
 CISAX will form     6 AO SS matrices at one time.
 NMat=     6 NSing=     6 JSym2X= 0.
 Root      1 not converged, maximum delta is    0.000516025155518
 Root      2 not converged, maximum delta is    0.000498465902301
 Root      3 not converged, maximum delta is    0.001055556326235
 Excitation Energies [eV] at current iteration:
 Root      1 :     3.570374068419861   Change is   -0.000030229432352
 Root      2 :     4.434366088484666   Change is   -0.000040341689982
 Root      3 :     4.528256382939889   Change is   -0.000065227566576
 Iteration     7 Dimension    48 NMult    42 NNew      6
 CISAX will form     6 AO SS matrices at one time.
 NMat=     6 NSing=     6 JSym2X= 0.
 Root      1 not converged, maximum delta is    0.000110259307166
 Root      2 not converged, maximum delta is    0.000175363234433
 Root      3 not converged, maximum delta is    0.000204359060483
 Excitation Energies [eV] at current iteration:
 Root      1 :     3.570372251688073   Change is   -0.000001816731788
 Root      2 :     4.434361638015092   Change is   -0.000004450469574
 Root      3 :     4.528251799006909   Change is   -0.000004583932981
 Iteration     8 Dimension    54 NMult    48 NNew      6
 CISAX will form     6 AO SS matrices at one time.
 NMat=     6 NSing=     6 JSym2X= 0.
 Root      1 not converged, maximum delta is    0.000019428478825
 Root      2 not converged, maximum delta is    0.000067910690745
 Root      3 not converged, maximum delta is    0.000060915529841
 Excitation Energies [eV] at current iteration:
 Root      1 :     3.570372148988112   Change is   -0.000000102699962
 Root      2 :     4.434361255556594   Change is   -0.000000382458498
 Root      3 :     4.528251395007847   Change is   -0.000000403999061
 Iteration     9 Dimension    60 NMult    54 NNew      6
 CISAX will form     6 AO SS matrices at one time.
 NMat=     6 NSing=     6 JSym2X= 0.
 Root      1 not converged, maximum delta is    0.000005326106855
 Root      2 not converged, maximum delta is    0.000019504911230
 Root      3 not converged, maximum delta is    0.000012695029673
 Excitation Energies [eV] at current iteration:
 Root      1 :     3.570372141777630   Change is   -0.000000007210482
 Root      2 :     4.434361220334933   Change is   -0.000000035221660
 Root      3 :     4.528251365325665   Change is   -0.000000029682183
 Iteration    10 Dimension    66 NMult    60 NNew      6
 CISAX will form     6 AO SS matrices at one time.
 NMat=     6 NSing=     6 JSym2X= 0.
 Root      1 has converged.
 Root      2 not converged, maximum delta is    0.000002841730435
 Root      3 not converged, maximum delta is    0.000003071920603
 Excitation Energies [eV] at current iteration:
 Root      1 :     3.570372141484177   Change is   -0.000000000293452
 Root      2 :     4.434361218952054   Change is   -0.000000001382880
 Root      3 :     4.528251363929159   Change is   -0.000000001396506
 Iteration    11 Dimension    70 NMult    66 NNew      4
 CISAX will form     4 AO SS matrices at one time.
 NMat=     4 NSing=     4 JSym2X= 0.
 Root      1 has converged.
 Root      2 not converged, maximum delta is    0.000001045019642
 Root      3 has converged.
 Excitation Energies [eV] at current iteration:
 Root      1 :     3.570372141480447   Change is   -0.000000000003730
 Root      2 :     4.434361218869500   Change is   -0.000000000082553
 Root      3 :     4.528251363870901   Change is   -0.000000000058258
 Iteration    12 Dimension    72 NMult    70 NNew      2
 CISAX will form     2 AO SS matrices at one time.
 NMat=     2 NSing=     2 JSym2X= 0.
 Root      1 has converged.
 Root      2 has converged.
 Root      3 has converged.
 Excitation Energies [eV] at current iteration:
 Root      1 :     3.570372141480170   Change is   -0.000000000000276
 Root      2 :     4.434361218865793   Change is   -0.000000000003708
 Root      3 :     4.528251363870829   Change is   -0.000000000000073
 Convergence achieved on expansion vectors.
 ***********************************************************************
 Excited states from <AA,BB:AA,BB> singles matrix:
 ***********************************************************************
 
 1PDM for each excited state written to RWF  633
 Ground to excited state transition densities written to RWF  633
 Ground to excited state transition electric dipole moments (Au):
       state          X           Y           Z        Dip. S.      Osc.
         1        -1.9173      2.2772      0.0000      8.8618      0.7752
         2         0.9112     -0.2022     -0.0000      0.8711      0.0946
         3        -1.0149     -0.0259      0.0000      1.0307      0.1143
 Ground to excited state transition velocity dipole moments (Au):
       state          X           Y           Z        Dip. S.      Osc.
         1         0.2455     -0.2966     -0.0000      0.1483      0.7533
         2        -0.1453      0.0254      0.0000      0.0218      0.0890
         3         0.1673      0.0054     -0.0000      0.0280      0.1122
 Ground to excited state transition magnetic dipole moments (Au):
       state          X           Y           Z
         1        -0.0000     -0.0000      0.2175
         2         0.0000     -0.0000      1.2802
         3         0.0000     -0.0000      0.0030
 Ground to excited state transition velocity quadrupole moments (Au):
       state          XX          YY          ZZ          XY          XZ          YZ
         1        -0.0826     -0.3491      0.0110      0.2343      0.0000     -0.0000
         2         0.3445     -0.8094      0.0023      0.1564     -0.0000     -0.0000
         3         0.4799      0.0969     -0.0285     -0.3311     -0.0000      0.0000
 <0|del|b> * <b|rxdel|0> + <0|del|b> * <b|delr+rdel|0>
 Rotatory Strengths (R) in cgs (10**-40 erg-esu-cm/Gauss)
       state          XX          YY          ZZ    R(velocity)    E-M Angle
         1         0.0131     -0.0062      0.0167      0.0079       90.00
         2         0.0013      0.0022     -0.0048     -0.0004       90.00
         3         0.0001      0.0034      0.0032      0.0022       90.00
 1/2[<0|r|b>*<b|rxdel|0> + (<0|rxdel|b>*<b|r|0>)*]
 Rotatory Strengths (R) in cgs (10**-40 erg-esu-cm/Gauss)
       state          XX          YY          ZZ     R(length)
         1        -0.0008      0.0292     -0.0048      0.0079
         2        -0.0032     -0.0006      0.0019     -0.0006
         3         0.0070     -0.0002     -0.0000      0.0023
  1/2[<0|del|b>*<b|r|0> + (<0|r|b>*<b|del|0>)*] (Au)
       state          X           Y           Z        Dip. S.   Osc.(frdel)
         1        -0.4706     -0.6755     -0.0000      1.1462      0.7641
         2        -0.1324     -0.0051     -0.0000      0.1375      0.0917
         3        -0.1698     -0.0001     -0.0000      0.1699      0.1133

 Excitation energies and oscillator strengths:
 
 Excited state symmetry could not be determined.
 Excited State   1:      Singlet-?Sym    3.5704 eV  347.26 nm  f=0.7752  <S**2>=0.000
      59 -> 60         0.68646
 This state for optimization and/or second-order correction.
 Total Energy, E(TD-HF/TD-DFT) =  -1028.64956323    
 Copying the excited state density for this state as the 1-particle RhoCI density.
 
 Excited state symmetry could not be determined.
 Excited State   2:      Singlet-?Sym    4.4344 eV  279.60 nm  f=0.0946  <S**2>=0.000
      57 -> 60         0.64497
      59 -> 61         0.11864
      59 -> 62        -0.15659
 
 Excited state symmetry could not be determined.
 Excited State   3:      Singlet-?Sym    4.5283 eV  273.80 nm  f=0.1143  <S**2>=0.000
      58 -> 60         0.62980
      58 -> 63        -0.13114
      59 -> 61         0.18173
      59 -> 62         0.10547
 SavETr:  write IOETrn=   770 NScale= 10 NData=  16 NLR=1 NState=    3 LETran=      64.
 The selected state is a singlet.
 CISGrd: IGrad=2 NXY=2 DFT=T
 CISAX will form     1 AO SS matrices at one time.
 NMat=     1 NSing=     1 JSym2X= 0.
 GePol: Maximum number of non-zero 1st derivatives   =     250
 Leave Link  914 at Tue Jul 14 13:00:33 2020, MaxMem=  7784628224 cpu:            1594.9 elap:             161.9
 (Enter /gpfs/loomis/apps/avx/software/Gaussian/16-C.01_AVX/g16/l1002.exe)
 Minotr:  Closed shell wavefunction.
          Computing CIS/TDA/TD derivatives.
          Using Z-Vector for PSCF gradient.
          Skipping F1 and S1 gradient terms here.
          IDoAtm=1111111111111111111111111
 NEqPCM:  Using equilibrium solvation (IEInf=0, Eps=   2.2280, EpsInf=   2.1319)
          Frozen-core window.
          Direct CPHF calculation.
          Differentiating once with respect to electric field.
                with respect to dipole field.
          Differentiating once with respect to nuclear coordinates.
          Requested convergence is 1.0D-10 RMS, and 1.0D-09 maximum.
          NewPWx=F KeepS1=T KeepF1=T KeepIn=T MapXYZ=F SortEE=F KeepMc=T.
 Keep R1 ints in memory in canonical form, NReq=1421489105.
 FoFCou: FMM=F IPFlag=           0 FMFlag=           0 FMFlg1=           0
         NFxFlg=           0 DoJE=F BraDBF=F KetDBF=F FulRan=T
         wScrn=  0.000000 ICntrl=       600 IOpCl=  0 I1Cent=           0 NGrid=           0
         NMat0=    1 NMatS0=  37401 NMatT0=    0 NMatD0=    1 NMtDS0=    0 NMtDT0=    0
 Symmetry not used in FoFCou.
 Two-electron integral symmetry not used.
          MDV=    7784628224 using IRadAn=       5.
          Solving linear equations separately, MaxMat=       0.
          There are     1 degrees of freedom in the 1st order CPHF.  IDoFFX=0 NUNeed=     1.
 LinEq1:  Iter=  0 NonCon=     1 RMS=3.43D-03 Max=1.74D-01 NDo=     1
 AX will form     1 AO Fock derivatives at one time.
 LinEq1:  Iter=  1 NonCon=     1 RMS=1.32D-03 Max=6.23D-02 NDo=     1
 LinEq1:  Iter=  2 NonCon=     1 RMS=7.28D-04 Max=3.17D-02 NDo=     1
 LinEq1:  Iter=  3 NonCon=     1 RMS=2.90D-04 Max=9.43D-03 NDo=     1
 LinEq1:  Iter=  4 NonCon=     1 RMS=1.56D-04 Max=6.24D-03 NDo=     1
 LinEq1:  Iter=  5 NonCon=     1 RMS=8.72D-05 Max=3.05D-03 NDo=     1
 LinEq1:  Iter=  6 NonCon=     1 RMS=3.86D-05 Max=1.43D-03 NDo=     1
 LinEq1:  Iter=  7 NonCon=     1 RMS=2.52D-05 Max=9.69D-04 NDo=     1
 LinEq1:  Iter=  8 NonCon=     1 RMS=8.54D-06 Max=3.12D-04 NDo=     1
 LinEq1:  Iter=  9 NonCon=     1 RMS=4.56D-06 Max=1.30D-04 NDo=     1
 LinEq1:  Iter= 10 NonCon=     1 RMS=1.56D-06 Max=6.12D-05 NDo=     1
 LinEq1:  Iter= 11 NonCon=     1 RMS=6.95D-07 Max=2.83D-05 NDo=     1
 LinEq1:  Iter= 12 NonCon=     1 RMS=3.11D-07 Max=8.83D-06 NDo=     1
 LinEq1:  Iter= 13 NonCon=     1 RMS=1.12D-07 Max=2.74D-06 NDo=     1
 LinEq1:  Iter= 14 NonCon=     1 RMS=5.75D-08 Max=1.71D-06 NDo=     1
 LinEq1:  Iter= 15 NonCon=     1 RMS=2.00D-08 Max=4.92D-07 NDo=     1
 LinEq1:  Iter= 16 NonCon=     1 RMS=8.49D-09 Max=2.97D-07 NDo=     1
 LinEq1:  Iter= 17 NonCon=     1 RMS=3.95D-09 Max=1.13D-07 NDo=     1
 LinEq1:  Iter= 18 NonCon=     1 RMS=1.73D-09 Max=5.27D-08 NDo=     1
 LinEq1:  Iter= 19 NonCon=     1 RMS=6.93D-10 Max=2.43D-08 NDo=     1
 LinEq1:  Iter= 20 NonCon=     1 RMS=3.91D-10 Max=1.12D-08 NDo=     1
 LinEq1:  Iter= 21 NonCon=     1 RMS=1.47D-10 Max=3.63D-09 NDo=     1
 LinEq1:  Iter= 22 NonCon=     1 RMS=6.29D-11 Max=1.57D-09 NDo=     1
 LinEq1:  Iter= 23 NonCon=     0 RMS=2.91D-11 Max=7.22D-10 NDo=     1
 Linear equations converged to 1.000D-10 1.000D-09 after    23 iterations.
 End of Minotr F.D. properties file   721 does not exist.
 End of Minotr F.D. properties file   722 does not exist.
 End of Minotr F.D. properties file   788 does not exist.
 Leave Link 1002 at Tue Jul 14 13:02:05 2020, MaxMem=  7784628224 cpu:             692.2 elap:              92.5
 (Enter /gpfs/loomis/apps/avx/software/Gaussian/16-C.01_AVX/g16/l601.exe)
 Copying SCF densities to generalized density rwf, IOpCl= 0 IROHF=0.

 **********************************************************************

            Population analysis using the SCF Density.

 **********************************************************************

 Alpha  occ. eigenvalues --  -89.08399 -19.28054 -14.46517 -10.39044 -10.38701
 Alpha  occ. eigenvalues --  -10.34986 -10.34271 -10.32629 -10.32552 -10.32534
 Alpha  occ. eigenvalues --  -10.31958 -10.31673 -10.31382 -10.31335 -10.31332
 Alpha  occ. eigenvalues --  -10.31063  -8.10500  -6.05325  -6.04989  -6.04572
 Alpha  occ. eigenvalues --   -1.21139  -1.07762  -0.96969  -0.95538  -0.91949
 Alpha  occ. eigenvalues --   -0.88660  -0.85896  -0.84436  -0.82378  -0.76575
 Alpha  occ. eigenvalues --   -0.72453  -0.70193  -0.69996  -0.68123  -0.64638
 Alpha  occ. eigenvalues --   -0.60260  -0.59400  -0.58464  -0.56128  -0.54695
 Alpha  occ. eigenvalues --   -0.53892  -0.53584  -0.52649  -0.50768  -0.50417
 Alpha  occ. eigenvalues --   -0.49159  -0.47742  -0.46101  -0.45654  -0.44883
 Alpha  occ. eigenvalues --   -0.43790  -0.43161  -0.41994  -0.39674  -0.37250
 Alpha  occ. eigenvalues --   -0.36380  -0.32105  -0.31553  -0.28281
 Alpha virt. eigenvalues --   -0.01833   0.05244   0.06620   0.06932   0.08166
 Alpha virt. eigenvalues --    0.11222   0.14354   0.15326   0.17161   0.17964
 Alpha virt. eigenvalues --    0.18593   0.21303   0.21588   0.22240   0.22685
 Alpha virt. eigenvalues --    0.23831   0.23874   0.24245   0.28166   0.30422
 Alpha virt. eigenvalues --    0.32252   0.33451   0.34754   0.35832   0.37124
 Alpha virt. eigenvalues --    0.37917   0.38940   0.40710   0.43463   0.45011
 Alpha virt. eigenvalues --    0.46508   0.49039   0.50428   0.51346   0.51482
 Alpha virt. eigenvalues --    0.52474   0.53522   0.54418   0.55025   0.55880
 Alpha virt. eigenvalues --    0.55994   0.56285   0.57115   0.57938   0.57988
 Alpha virt. eigenvalues --    0.58595   0.58997   0.59192   0.59627   0.60122
 Alpha virt. eigenvalues --    0.60818   0.60983   0.62000   0.62718   0.63456
 Alpha virt. eigenvalues --    0.65418   0.66158   0.66573   0.67830   0.69245
 Alpha virt. eigenvalues --    0.71264   0.71511   0.72526   0.72644   0.73372
 Alpha virt. eigenvalues --    0.73657   0.74424   0.75796   0.75946   0.78745
 Alpha virt. eigenvalues --    0.78858   0.79229   0.80466   0.81525   0.82185
 Alpha virt. eigenvalues --    0.85336   0.90491   0.91242   0.93002   0.94245
 Alpha virt. eigenvalues --    0.95088   0.95138   0.95671   0.97193   0.97270
 Alpha virt. eigenvalues --    0.98078   0.98750   1.00589   1.00979   1.02312
 Alpha virt. eigenvalues --    1.02485   1.05837   1.06564   1.07221   1.08035
 Alpha virt. eigenvalues --    1.08295   1.08542   1.09723   1.10428   1.11039
 Alpha virt. eigenvalues --    1.11950   1.12722   1.14551   1.14787   1.15690
 Alpha virt. eigenvalues --    1.16299   1.19815   1.20289   1.21605   1.22385
 Alpha virt. eigenvalues --    1.24960   1.30132   1.32607   1.34396   1.35255
 Alpha virt. eigenvalues --    1.36793   1.36862   1.39241   1.40655   1.46239
 Alpha virt. eigenvalues --    1.48460   1.48802   1.50978   1.51445   1.53453
 Alpha virt. eigenvalues --    1.55119   1.56114   1.56552   1.56683   1.57158
 Alpha virt. eigenvalues --    1.58245   1.59478   1.61822   1.65654   1.66489
 Alpha virt. eigenvalues --    1.67212   1.68803   1.69354   1.70252   1.70926
 Alpha virt. eigenvalues --    1.72135   1.72405   1.72601   1.73566   1.75225
 Alpha virt. eigenvalues --    1.75641   1.77390   1.79543   1.80942   1.81963
 Alpha virt. eigenvalues --    1.82884   1.82970   1.84556   1.84819   1.84917
 Alpha virt. eigenvalues --    1.86155   1.88008   1.88733   1.89488   1.91994
 Alpha virt. eigenvalues --    1.92009   1.92987   1.93242   1.94368   1.96908
 Alpha virt. eigenvalues --    2.00098   2.00355   2.02919   2.03253   2.03926
 Alpha virt. eigenvalues --    2.05497   2.07640   2.08615   2.11305   2.12429
 Alpha virt. eigenvalues --    2.17337   2.17638   2.19816   2.23923   2.24711
 Alpha virt. eigenvalues --    2.25588   2.27978   2.35700   2.37598   2.42056
 Alpha virt. eigenvalues --    2.42157   2.42291   2.45863   2.46605   2.46969
 Alpha virt. eigenvalues --    2.48626   2.49488   2.53367   2.57117   2.62132
 Alpha virt. eigenvalues --    2.63081   2.71709   2.74619   2.76053   2.78963
 Alpha virt. eigenvalues --    2.80854   2.83313   2.87536   2.90002   2.94251
 Alpha virt. eigenvalues --    2.99754   3.05713   3.14092   3.19729   3.29889
 Alpha virt. eigenvalues --    3.47782   3.54733   3.71018   4.14673
          Condensed to atoms (all electrons):
               1          2          3          4          5          6
     1  C    4.767174   0.447647   0.015902  -0.055561  -0.014716   0.519066
     2  C    0.447647   5.323514   0.335289  -0.025674  -0.068688  -0.004998
     3  C    0.015902   0.335289   4.775306   0.475690  -0.002904  -0.063383
     4  C   -0.055561  -0.025674   0.475690   4.794761   0.524078  -0.010611
     5  C   -0.014716  -0.068688  -0.002904   0.524078   4.745240   0.487019
     6  C    0.519066  -0.004998  -0.063383  -0.010611   0.487019   4.749075
     7  H    0.399804  -0.035975   0.008114  -0.000544   0.007847  -0.039943
     8  H   -0.001087   0.012331  -0.037216   0.394508  -0.043386   0.007992
     9  H    0.009160  -0.000953   0.008702  -0.039103   0.404235  -0.045941
    10  H   -0.042434   0.009376  -0.000504   0.008179  -0.042592   0.405624
    11  N    0.008846  -0.066161   0.510132  -0.041902   0.003187  -0.000244
    12  S   -0.074132   0.341135  -0.100069   0.007879   0.000231   0.004075
    13  C   -0.000204   0.003536   0.006580  -0.000523   0.000008   0.000006
    14  C   -0.000018   0.000043   0.000491   0.000008  -0.000000  -0.000000
    15  C    0.000009  -0.000006  -0.001436  -0.000003  -0.000000  -0.000000
    16  C    0.000000  -0.000009   0.000008  -0.000000   0.000000  -0.000000
    17  H   -0.000011   0.000215  -0.000009   0.000000   0.000000   0.000000
    18  C    0.000000   0.000008  -0.000035  -0.000000  -0.000000  -0.000000
    19  C   -0.000000   0.000000   0.000002   0.000000   0.000000   0.000000
    20  H   -0.000000  -0.000000  -0.000000  -0.000000  -0.000000  -0.000000
    21  H   -0.000000  -0.000000   0.000000   0.000000  -0.000000   0.000000
    22  H    0.000000  -0.000000  -0.000000  -0.000000   0.000000  -0.000000
    23  C    0.005075  -0.056166  -0.130200  -0.001404   0.000315  -0.000217
    24  O    0.000001  -0.000026  -0.001577  -0.000027  -0.000000  -0.000000
    25  H   -0.000061   0.001752  -0.002202  -0.000260  -0.000014   0.000008
               7          8          9         10         11         12
     1  C    0.399804  -0.001087   0.009160  -0.042434   0.008846  -0.074132
     2  C   -0.035975   0.012331  -0.000953   0.009376  -0.066161   0.341135
     3  C    0.008114  -0.037216   0.008702  -0.000504   0.510132  -0.100069
     4  C   -0.000544   0.394508  -0.039103   0.008179  -0.041902   0.007879
     5  C    0.007847  -0.043386   0.404235  -0.042592   0.003187   0.000231
     6  C   -0.039943   0.007992  -0.045941   0.405624  -0.000244   0.004075
     7  H    0.660611   0.000034  -0.000162  -0.010997  -0.000097  -0.007781
     8  H    0.000034   0.660928  -0.012850  -0.000106  -0.000943  -0.000109
     9  H   -0.000162  -0.012850   0.668115  -0.011984  -0.000086   0.000018
    10  H   -0.010997  -0.000106  -0.011984   0.663703  -0.000000  -0.000176
    11  N   -0.000097  -0.000943  -0.000086  -0.000000   6.481148  -0.078506
    12  S   -0.007781  -0.000109   0.000018  -0.000176  -0.078506  15.512831
    13  C   -0.000001   0.000029  -0.000000  -0.000000  -0.013937  -0.062217
    14  C    0.000001   0.000001   0.000000  -0.000000   0.003912  -0.013819
    15  C   -0.000000  -0.000024   0.000000   0.000000  -0.025662   0.006177
    16  C    0.000000   0.000000  -0.000000  -0.000000  -0.000066   0.000419
    17  H    0.000002   0.000000  -0.000000  -0.000000   0.000211   0.009475
    18  C    0.000000  -0.000000  -0.000000  -0.000000  -0.000581  -0.000213
    19  C   -0.000000   0.000000  -0.000000  -0.000000   0.000030   0.000023
    20  H    0.000000   0.000000   0.000000   0.000000   0.000001   0.000015
    21  H   -0.000000   0.000000  -0.000000   0.000000   0.000003   0.000004
    22  H    0.000000  -0.000000  -0.000000  -0.000000  -0.000000  -0.000000
    23  C    0.000131  -0.000930   0.000007   0.000004   0.540522   0.300432
    24  O   -0.000000  -0.000071   0.000000  -0.000000  -0.040258  -0.000102
    25  H    0.000001   0.000845  -0.000002   0.000000   0.067308   0.002847
              13         14         15         16         17         18
     1  C   -0.000204  -0.000018   0.000009   0.000000  -0.000011   0.000000
     2  C    0.003536   0.000043  -0.000006  -0.000009   0.000215   0.000008
     3  C    0.006580   0.000491  -0.001436   0.000008  -0.000009  -0.000035
     4  C   -0.000523   0.000008  -0.000003  -0.000000   0.000000  -0.000000
     5  C    0.000008  -0.000000  -0.000000   0.000000   0.000000  -0.000000
     6  C    0.000006  -0.000000  -0.000000  -0.000000   0.000000  -0.000000
     7  H   -0.000001   0.000001  -0.000000   0.000000   0.000002   0.000000
     8  H    0.000029   0.000001  -0.000024   0.000000   0.000000  -0.000000
     9  H   -0.000000   0.000000   0.000000  -0.000000  -0.000000  -0.000000
    10  H   -0.000000  -0.000000   0.000000  -0.000000  -0.000000  -0.000000
    11  N   -0.013937   0.003912  -0.025662  -0.000066   0.000211  -0.000581
    12  S   -0.062217  -0.013819   0.006177   0.000419   0.009475  -0.000213
    13  C    5.322636   0.493224   0.268586  -0.013050  -0.033691  -0.070771
    14  C    0.493224   4.817717  -0.019944   0.532098   0.398543  -0.053079
    15  C    0.268586  -0.019944   4.862050  -0.057876   0.006728   0.477241
    16  C   -0.013050   0.532098  -0.057876   4.729681  -0.033408  -0.017366
    17  H   -0.033691   0.398543   0.006728  -0.033408   0.652115  -0.000617
    18  C   -0.070771  -0.053079   0.477241  -0.017366  -0.000617   4.837932
    19  C   -0.049964  -0.021722  -0.010407   0.493891   0.007792   0.516404
    20  H    0.008623  -0.034630  -0.000253   0.401672  -0.011882   0.008014
    21  H    0.011891  -0.000431  -0.024678   0.006847   0.000039   0.381076
    22  H   -0.001166   0.009416   0.008896  -0.042457  -0.000158  -0.042221
    23  C    0.324049  -0.084043  -0.073262   0.006840  -0.023154   0.008031
    24  O   -0.093465   0.003777   0.523720  -0.000021  -0.000053  -0.052698
    25  H   -0.046394  -0.001347   0.004646   0.000010   0.000011   0.007668
              19         20         21         22         23         24
     1  C   -0.000000  -0.000000  -0.000000   0.000000   0.005075   0.000001
     2  C    0.000000  -0.000000  -0.000000  -0.000000  -0.056166  -0.000026
     3  C    0.000002  -0.000000   0.000000  -0.000000  -0.130200  -0.001577
     4  C    0.000000  -0.000000   0.000000  -0.000000  -0.001404  -0.000027
     5  C    0.000000  -0.000000  -0.000000   0.000000   0.000315  -0.000000
     6  C    0.000000  -0.000000   0.000000  -0.000000  -0.000217  -0.000000
     7  H   -0.000000   0.000000  -0.000000   0.000000   0.000131  -0.000000
     8  H    0.000000   0.000000   0.000000  -0.000000  -0.000930  -0.000071
     9  H   -0.000000   0.000000  -0.000000  -0.000000   0.000007   0.000000
    10  H   -0.000000   0.000000   0.000000  -0.000000   0.000004  -0.000000
    11  N    0.000030   0.000001   0.000003  -0.000000   0.540522  -0.040258
    12  S    0.000023   0.000015   0.000004  -0.000000   0.300432  -0.000102
    13  C   -0.049964   0.008623   0.011891  -0.001166   0.324049  -0.093465
    14  C   -0.021722  -0.034630  -0.000431   0.009416  -0.084043   0.003777
    15  C   -0.010407  -0.000253  -0.024678   0.008896  -0.073262   0.523720
    16  C    0.493891   0.401672   0.006847  -0.042457   0.006840  -0.000021
    17  H    0.007792  -0.011882   0.000039  -0.000158  -0.023154  -0.000053
    18  C    0.516404   0.008014   0.381076  -0.042221   0.008031  -0.052698
    19  C    4.726593  -0.045602  -0.042052   0.406491   0.000970   0.002291
    20  H   -0.045602   0.669765  -0.000124  -0.011497  -0.000359   0.000003
    21  H   -0.042052  -0.000124   0.650490  -0.011704  -0.000415   0.001747
    22  H    0.406491  -0.011497  -0.011704   0.656296  -0.000011  -0.000045
    23  C    0.000970  -0.000359  -0.000415  -0.000011   5.099215  -0.000479
    24  O    0.002291   0.000003   0.001747  -0.000045  -0.000479   7.258158
    25  H   -0.000042  -0.000001   0.000119   0.000006   0.003881   0.417899
              25
     1  C   -0.000061
     2  C    0.001752
     3  C   -0.002202
     4  C   -0.000260
     5  C   -0.000014
     6  C    0.000008
     7  H    0.000001
     8  H    0.000845
     9  H   -0.000002
    10  H    0.000000
    11  N    0.067308
    12  S    0.002847
    13  C   -0.046394
    14  C   -0.001347
    15  C    0.004646
    16  C    0.000010
    17  H    0.000011
    18  C    0.007668
    19  C   -0.000042
    20  H   -0.000001
    21  H    0.000119
    22  H    0.000006
    23  C    0.003881
    24  O    0.417899
    25  H    0.538228
 Mulliken charges:
               1
     1  C    0.015541
     2  C   -0.216192
     3  C    0.203320
     4  C   -0.029490
     5  C    0.000142
     6  C   -0.007529
     7  H    0.018956
     8  H    0.020051
     9  H    0.020843
    10  H    0.021906
    11  N   -0.346858
    12  S    0.151563
    13  C   -0.053783
    14  C   -0.030201
    15  C    0.055496
    16  C   -0.007213
    17  H    0.027852
    18  C    0.001207
    19  C    0.015303
    20  H    0.016255
    21  H    0.027189
    22  H    0.028154
    23  C    0.081169
    24  O   -0.018775
    25  H    0.005094
 Sum of Mulliken charges =  -0.00000
 Mulliken charges with hydrogens summed into heavy atoms:
               1
     1  C    0.034497
     2  C   -0.216192
     3  C    0.203320
     4  C   -0.009439
     5  C    0.020985
     6  C    0.014377
    11  N   -0.346858
    12  S    0.151563
    13  C   -0.053783
    14  C   -0.002349
    15  C    0.055496
    16  C    0.009042
    18  C    0.028395
    19  C    0.043457
    23  C    0.081169
    24  O   -0.013681
 Electronic spatial extent (au):  <R**2>=           4328.0226
 Charge=             -0.0000 electrons
 Dipole moment (field-independent basis, Debye):
    X=             -1.1451    Y=             -1.5765    Z=              0.0000  Tot=              1.9485
 Quadrupole moment (field-independent basis, Debye-Ang):
   XX=            -82.9926   YY=            -87.9263   ZZ=           -104.3063
   XY=             -7.3462   XZ=             -0.0001   YZ=             -0.0000
 Traceless Quadrupole moment (field-independent basis, Debye-Ang):
[...]
 -0.00000004,-0.00000471,0.00001392,0.,0.00000450,-0.00001176,0.,-0.000
 00267,0.00000083,0.,0.00001875,-0.00000623,0.,0.00093542,0.00003323,-0
 .00000008,-0.00631615,0.00497340,0.00000105,-0.00287570,-0.02797830,-0
 .00000140,-0.08059475,-0.07569172,0.00000122,-0.00598326,0.00204352,0.
 00000135,0.01005600,0.02258244,0.00000055,0.08748804,0.00028844,-0.000
 11872,0.00000007,-0.00069809,0.00041665,-0.00000061,0.00005968,0.00069
 708,0.00000016,0.00051321,-0.00003250,0.00000008,0.00010137,0.00063773
 ,0.00000003,-0.00047304,-0.00037256,-0.00000002,-0.00002234,0.00001114
 ,-0.00000002,0.00003226,-0.00001816,0.00000002,-0.00000782,0.00000733,
 0.,0.00001635,0.00000347,-0.00000001,0.00080280,-0.00007601,-0.0000001
 1,0.00525495,-0.00432472,-0.00000072,0.00253111,-0.00375519,-0.0000002
 0,-0.07572626,-0.32472904,-0.00000708,-0.00074366,0.00177890,-0.000000
 20,-0.00915847,-0.01713471,0.00000008,0.07333757,0.34801943,0.,-0.0000
 0005,-0.00002455,-0.00000021,-0.00000017,-0.00040837,-0.00000028,0.000
 00050,0.00013593,0.00000028,-0.00000013,0.00009003,0.00000005,0.000000
 30,0.00000502,-0.00000016,-0.00000009,0.00002100,0.,0.00000001,0.00001
 383,-0.00000001,0.,0.00004002,0.,0.,0.00000922,0.,0.,-0.00003343,0.000
 00051,-0.00000026,-0.00129855,0.00000111,-0.00000106,0.00116501,0.0000
 0274,0.00000240,0.00183637,-0.00000121,-0.00000510,-0.02937794,0.00000
 009,-0.00000028,0.00520463,-0.00000041,-0.00000498,0.00309299,-0.00000
 359,0.00000895,0.01919254,-0.00276163,0.00271960,-0.00000043,0.0034803
 7,-0.00088090,0.00000073,-0.00043424,0.00258396,0.00000128,0.00076831,
 0.00018465,-0.00000024,-0.00065751,-0.00245486,-0.00000027,0.00424417,
 0.00058463,0.00000038,-0.00015763,-0.00000294,-0.00000001,0.00020310,0
 .00006598,0.00000010,0.00016269,-0.00006276,0.00000002,0.00011965,-0.0
 0005980,0.00000006,0.00486795,0.00576584,-0.00000242,-0.00224023,0.000
 26372,-0.00000046,0.01032510,0.02485883,0.00000265,-0.01427000,0.02126
 724,0.00000460,-0.19789071,0.08122335,0.00002460,-0.00366814,-0.054640
 35,-0.00000335,0.00000319,0.00027433,-0.00000017,0.71047673,0.00030453
 ,-0.00077887,-0.00000010,-0.00484657,-0.00348643,-0.00000068,-0.002415
 00,0.00785310,0.00000008,0.00312350,-0.00098787,0.00000042,0.00068207,
 0.00319745,0.00000020,-0.00179772,-0.00162144,-0.00000021,0.00002068,0
 .00012024,0.,-0.00013676,-0.00007875,-0.00000002,-0.00005744,0.0000246
 4,-0.00000003,0.00000026,0.00000054,0.00000002,0.00930881,-0.00387464,
 0.00000099,0.00120774,-0.00596737,0.00000031,0.02889927,-0.03299880,-0
 .00000534,-0.00775657,0.00324414,0.00000094,0.12345436,-0.25021584,-0.
 00003231,-0.03224405,-0.01737457,0.00000136,-0.00053265,0.00012417,-0.
 00000008,0.03624639,0.73637263,0.00000014,-0.00000067,0.00027646,-0.00
 000266,-0.00000171,0.00070826,-0.00000158,0.00000352,0.00128799,0.0000
 0168,-0.00000040,-0.00034919,0.00000027,0.00000179,-0.00003885,-0.0000
 0106,-0.00000104,-0.00007902,0.00000003,0.00000004,0.00005372,-0.00000
 009,-0.00000005,0.00004837,-0.00000003,0.00000001,0.00003300,-0.000000
 02,0.00000002,-0.00008119,0.00000289,-0.00000495,-0.00292553,0.0000007
 1,-0.00000187,-0.00040658,0.00000474,-0.00000485,0.01098201,-0.0000008
 6,-0.00000134,-0.00162332,0.00002258,-0.00002434,-0.06522959,-0.000001
 04,0.00000217,0.00545489,-0.00000018,-0.00000007,-0.00059326,-0.000072
 44,0.00003968,0.11299613,0.00255434,-0.00156957,0.00000044,0.00098253,
 0.00335661,0.00000002,0.00552831,-0.01127764,-0.00000129,-0.00507374,0
 .00142790,-0.00000030,0.00031369,-0.00155051,0.00000007,-0.00210555,0.
 00119202,-0.00000015,0.00010260,-0.00002432,0.00000002,-0.00006022,0.0
 0000004,-0.00000008,-0.00011702,0.00001683,0.,-0.00006745,0.00006521,-
 0.00000004,-0.01389663,0.00441391,-0.00000093,0.00290177,0.00227700,0.
 00000037,-0.01005127,-0.02192846,-0.00000273,0.03937570,0.00345407,-0.
 00000403,-0.04850486,0.03044109,0.00001007,-0.13392944,-0.01867611,0.0
 0000424,-0.00327720,0.00433971,0.00000180,-0.35412137,-0.08611601,0.00
 002516,0.72348931,0.00115593,-0.00178498,0.00000012,-0.00703742,-0.003
 31632,-0.00000119,-0.00246795,0.01028329,-0.00000026,0.00435373,-0.001
 56611,0.00000058,0.00081771,0.00530209,0.00000033,-0.00349445,-0.00300
 556,-0.00000042,0.00006674,0.00013697,0.,-0.00017719,-0.00016340,-0.00
 000005,-0.00009549,0.00004854,-0.00000004,-0.00006899,0.00004695,-0.00
 000002,0.00999759,-0.00450552,0.00000150,-0.00068967,-0.00452133,0.000
 00091,-0.00781629,-0.01596995,-0.00000071,0.02769691,-0.05812191,-0.00
 000947,0.00660859,0.03885129,0.00000237,-0.07754043,-0.30212657,-0.000
 01433,0.00292566,-0.00089521,-0.00000059,-0.04048861,-0.13889653,-0.00
 000018,-0.03565876,0.67815371,-0.00000032,0.00000015,0.00010341,-0.000
 00035,-0.00000053,-0.00046072,-0.00000058,0.00000173,-0.00081729,0.000
 00078,-0.00000027,0.00008261,0.00000005,0.00000044,0.00007582,0.000000
 10,-0.00000022,0.00000474,0.,0.00000002,-0.00002988,0.00000001,0.,-0.0
 0011023,0.,0.,-0.00000077,0.,0.,0.00002272,0.00000217,-0.00000024,0.00
 102880,-0.00000040,-0.00000047,0.00066544,-0.00000052,0.00000210,-0.00
 458989,-0.00000087,-0.00000632,0.00929483,0.00000657,-0.00000289,0.001
 54906,0.00000075,-0.00001984,-0.06090839,0.00000120,-0.00000048,0.0062
 1528,0.00002506,0.00000269,-0.05065806,-0.00006351,0.00005222,0.119043
 95,0.00004034,-0.00008403,0.,-0.00009096,0.00008499,0.,0.00002318,-0.0
 0012082,0.00000005,-0.00001721,0.00003781,0.00000002,0.00002709,0.0000
 8534,0.,-0.00014638,0.00001371,0.,0.00000773,0.00000836,0.,-0.00000668
 ,-0.00000661,0.,-0.00001356,0.00000732,0.,-0.00000853,0.00000618,0.,-0
 .00024878,0.00043510,-0.00000011,0.00007672,-0.00008212,-0.00000002,-0
 .00046251,0.00354991,0.00000088,-0.01531975,-0.00933059,0.00000151,0.0
 0053757,0.00029378,-0.00000009,-0.32763311,-0.07252796,0.00002389,0.00
 078511,0.00009258,-0.00000037,0.00162114,-0.00106491,0.00000028,-0.003
 23238,0.00180642,0.00000106,0.34440900,-0.00001409,0.00000334,0.,-0.00
 008026,-0.00012360,0.,-0.00000692,0.00024573,-0.00000005,0.00008848,-0
 .00006934,-0.00000001,0.00002297,0.00006789,0.00000001,-0.00001557,-0.
 00002355,0.,0.00000144,0.00000030,0.,-0.00000248,-0.00000093,0.,-0.000
 00023,-0.00000250,0.,0.00000098,-0.00000049,0.,0.00043500,-0.00040949,
 0.00000008,0.00004726,-0.00003587,0.,0.00359805,-0.00303798,-0.0000010
 4,0.02170410,0.00945888,-0.00000223,0.00057944,-0.00123504,-0.00000011
 ,-0.07325875,-0.07827018,0.00000407,-0.00004740,0.00085999,0.00000024,
 -0.00020803,-0.00550655,-0.00000091,-0.02974950,-0.00237075,0.00000234
 ,0.07768824,0.07830072,0.00000002,0.,-0.00005750,-0.00000002,-0.000000
 03,0.00005767,-0.00000005,0.00000005,0.00048405,-0.00000002,0.,0.00015
 876,0.,0.,-0.00007295,0.,-0.00000004,0.00002031,0.,0.,0.00000713,0.,0.
 ,0.00003972,0.,0.,-0.00003270,0.,0.,0.00000243,0.00000034,0.00000003,-
 0.00096987,-0.00000010,-0.00000008,-0.00011078,0.00000121,-0.00000111,
 0.00755255,0.00000340,0.00000204,0.00610454,0.00000023,0.00000004,-0.0
 0095996,0.00002418,0.00000380,-0.03813253,-0.00000038,0.00000002,-0.00
 432724,0.00000018,-0.00000106,0.00478074,-0.00000188,-0.00000102,0.004
 73289,-0.00002667,-0.00000302,0.02424259,-0.00013144,0.00006037,-0.000
 00003,0.00013482,0.00004281,-0.00000003,-0.00012928,0.00010150,0.00000
 003,0.00005542,-0.00000973,0.00000001,-0.00002315,-0.00002910,0.,0.000
 10075,0.00001158,0.00000002,-0.00000006,-0.00000517,0.,-0.00000245,0.0
 0000201,0.,0.00000282,-0.00000058,0.,-0.00000254,-0.00000164,0.,0.0003
 0361,-0.00026492,0.00000023,-0.00032054,0.00020962,-0.00000008,-0.0042
 4058,0.00269599,0.00000138,-0.00006181,0.00023354,0.00000001,0.0085614
 7,0.02314642,0.00000089,-0.00556346,-0.00004262,0.00000134,0.00013968,
 -0.00006744,-0.00000010,-0.07750465,-0.07577376,0.00000083,-0.00123559
 ,-0.02884797,-0.00000125,-0.00025709,-0.00142007,-0.00000017,0.0761584
 5,0.00011392,0.00001034,0.00000003,0.00000426,0.00009132,0.00000004,0.
 00017017,-0.00023817,0.,-0.00012738,0.00002954,-0.00000003,-0.00003011
 ,-0.00012370,0.,0.00004665,0.00000963,0.,-0.00000638,-0.00000305,0.,0.
 00001234,0.00000471,0.,0.00001037,-0.00000345,0.,0.00000804,-0.0000029
 9,0.,-0.00043925,0.00033494,-0.00000019,0.00020874,-0.00002445,0.00000
 005,0.00357691,-0.00052913,-0.00000085,0.00035932,0.00021013,-0.000000
 03,-0.01017229,-0.01706774,0.00000002,-0.00101328,0.00163660,0.0000000
 8,-0.00004087,-0.00008671,0.00000005,-0.07321475,-0.32895163,-0.000009
 65,0.00154115,-0.00236429,-0.00000038,0.00005760,-0.00020708,-0.000000
 07,0.08032682,0.34558656,0.00000015,-0.00000002,-0.00028927,0.00000019
 ,0.00000022,-0.00005217,0.00000026,-0.00000065,0.00028626,-0.00000030,
 0.00000009,-0.00001151,-0.00000003,-0.00000017,-0.00004311,-0.00000003
 ,0.00000008,0.00003375,0.,0.,-0.00000548,0.,0.,0.00004443,0.,0.,-0.000
 00157,0.,0.,0.00005114,-0.00000097,0.00000020,-0.00019858,0.00000014,0
 .00000019,-0.00012983,0.00000135,-0.00000158,0.00481258,0.00000066,-0.
 00000024,-0.00069704,-0.00000148,-0.00000218,0.00372854,0.00000093,0.0
 0000047,0.00683221,-0.00000008,0.00000003,-0.00067485,0.00000320,-0.00
 000917,-0.03291563,-0.00000087,0.00000201,0.00294390,0.00000002,0.0000
 0015,-0.00005385,-0.00000118,0.00001003,0.02328665,0.00003544,-0.00009
 582,0.,-0.00037735,-0.00013115,-0.00000002,-0.00012859,0.00058106,0.00
 000006,0.00027661,-0.00009192,0.00000002,0.00005164,0.00031355,0.00000
 002,-0.00020441,-0.00012642,-0.00000002,0.00000430,0.00001116,0.,-0.00
 000862,-0.00001126,0.,-0.00001101,0.00000570,0.,-0.00000573,0.00000383
 ,0.,0.00062119,-0.00006250,-0.00000016,-0.00002513,-0.00018466,0.00000
 001,0.00061727,-0.00051113,-0.00000007,-0.00051188,-0.00204889,0.00000
 017,-0.00377168,-0.00315882,0.00000087,0.00896196,-0.00872476,-0.00000
 129,0.00028637,-0.00038756,0.00000001,-0.01424233,0.02230694,0.0000030
 9,-0.20755711,0.14549807,0.00002944,0.00067411,0.00032720,-0.00000031,
 0.00106742,-0.00014712,-0.00000061,0.21621754,0.00006804,0.00004066,0.
 00000001,0.00024344,0.00027688,0.00000002,0.00037505,-0.00072585,-0.00
 000002,-0.00034779,0.00012704,-0.00000003,-0.00002822,-0.00028633,-0.0
 0000001,0.00010969,0.00009958,0.00000001,-0.00000716,-0.00000826,0.,0.
 00001265,0.00000793,0.,0.00000864,-0.00000487,0.,0.00000729,-0.0000024
 7,0.,-0.00076474,0.00040886,-0.00000014,-0.00002929,0.00027236,0.00000
 003,-0.00141641,-0.00007859,0.00000022,-0.00245594,-0.00459973,-0.0000
 0054,-0.00212907,-0.00030747,-0.00000044,0.02353140,-0.01418925,-0.000
 00359,0.00112670,-0.00093202,-0.00000023,-0.00919081,0.00943258,0.0000
 0094,0.14581686,-0.19905369,-0.00002857,-0.00013823,0.00099453,0.00000
 025,0.00029474,0.00066665,0.00000037,-0.15505395,0.20766194,0.00000012
 ,-0.00000003,0.00005334,0.00000020,0.00000033,0.00006193,0.00000020,-0
 .00000054,-0.00009376,-0.00000023,0.00000004,0.00000817,-0.00000003,-0
 .00000016,0.00001169,0.,0.00000011,-0.00000727,0.,0.,0.00000854,0.,0.,
 0.00002848,0.,0.,0.00000405,0.,0.,-0.00003385,-0.00000050,0.00000057,0
 .00025166,-0.00000005,0.00000026,-0.00022551,-0.00000052,0.00000059,-0
 .00147927,-0.00000017,-0.00000047,0.00411777,0.00000125,-0.00000053,0.
 00703163,0.00000122,-0.00000122,0.00322842,0.00000020,-0.00000019,0.00
 075303,0.00000177,-0.00000094,0.00437921,0.00002936,-0.00002893,-0.032
 97401,-0.00000042,0.00000024,-0.00285881,-0.00000051,0.00000014,-0.004
 00480,-0.00003188,0.00003127,0.02216251,-0.01114283,-0.00066151,-0.000
 00095,-0.00532994,0.00880471,0.00000017,-0.09539589,0.06243865,-0.0000
 0854,0.02394618,-0.00834863,0.00000172,0.00054696,0.01402836,0.0000004
 7,-0.00400319,-0.00105840,-0.00000055,0.00030626,-0.00051803,0.0000000
 9,-0.00045620,-0.00012091,-0.00000010,-0.00024226,0.00025562,0.0000000
 7,-0.00056332,-0.00007879,-0.00000002,-0.28042801,-0.04388051,-0.00002
 564,-0.05330515,-0.03782595,-0.00000247,-0.21556881,0.13984811,0.00000
 779,-0.05528926,0.03885190,0.00000560,0.00676142,0.00422185,0.00000009
 ,0.00320260,-0.01575161,-0.00000107,-0.00032225,-0.00053515,-0.0000004
 8,0.00028595,-0.01595178,-0.00000189,0.00541982,-0.00513831,-0.0000010
 3,-0.00072709,0.00043948,0.00000014,0.00084498,-0.00050768,0.00000040,
 -0.00054078,0.00068784,0.00000038,0.67251632,-0.00856441,0.00935322,0.
 00000018,0.04996493,-0.02702754,0.00000412,0.02824661,-0.01398637,0.00
 000145,-0.00103025,-0.00594892,-0.00000063,-0.00133062,-0.00753550,-0.
 00000031,0.01112739,0.00342663,0.00000093,-0.00024681,-0.00085080,0.,0
 .00021229,0.00045553,-0.00000010,0.00043226,-0.00058574,0.00000010,0.0
 0005715,-0.00007044,-0.00000006,-0.04991334,-0.09047719,-0.00000439,-0
 .02684453,-0.11986275,-0.00000454,0.11643630,-0.23344206,-0.00000639,0
 .01789579,0.01369599,-0.00000046,0.03634850,-0.04150862,-0.00000234,-0
 .00634860,-0.00362877,0.00000013,-0.00127010,0.00029665,0.00000024,-0.
 01739073,0.00528566,0.00000337,0.00714355,0.01021244,-0.00000073,-0.00
 077102,0.00107826,0.00000035,0.00045842,-0.00060755,0.00000006,0.00048
 031,-0.00010228,-0.00000023,-0.14063741,0.50872710,-0.00000135,0.00000
 066,0.00271418,0.00000116,-0.00000032,-0.00335272,-0.00000801,0.000006
 29,0.00362416,0.00000173,-0.00000129,0.00591118,-0.00000020,0.00000071
 ,0.00094049,0.00000019,-0.00000018,0.00105233,0.,-0.00000004,-0.000462
 54,0.00000004,0.00000007,-0.00080992,0.00000012,0.00000005,-0.00090635
 ,0.00000004,-0.00000002,-0.00038243,-0.00001997,-0.00000420,-0.0388101
 4,-0.00000365,-0.00000650,-0.02078379,-0.00000458,0.00000158,-0.041570
 59,0.00000482,0.00000084,0.00806882,0.00000453,-0.00000708,0.00708257,
 -0.00000007,-0.00000030,0.00148881,0.00000015,0.00000015,-0.00041018,-
 0.00000525,0.00000041,0.00029112,0.00000445,0.00000042,-0.00093122,0.,
 0.00000010,-0.00049699,-0.00000006,-0.00000015,0.00118724,0.,0.0000000
 3,0.00021104,0.00002589,0.00000641,0.07633113,0.00146396,0.00266271,0.
 00000047,0.01072640,0.01125187,0.00000267,0.01648843,-0.02062790,-0.00
 000029,-0.01044116,0.00343770,-0.00000185,-0.00215231,-0.01043980,-0.0
 0000064,0.00537083,0.00424694,0.00000057,-0.00028843,-0.00007827,-0.00
 000002,0.00056198,0.00017817,0.00000007,0.00022030,-0.00006044,0.00000
 014,0.00010853,0.00000567,0.,-0.02230982,0.03983836,-0.00001532,0.0002
 3491,0.01137286,-0.00000083,-0.04804769,-0.01986860,0.00000855,0.02720
 636,-0.00936546,-0.00000217,-0.36694858,-0.10460619,0.00006030,-0.0110
 1942,0.01136981,0.00000119,-0.00003145,0.00006838,0.00000043,-0.071690
 83,0.00936267,0.00002002,0.00372266,0.00925072,0.00000083,-0.00009965,
 -0.00011034,-0.00000012,0.00226387,-0.00090824,-0.00000163,-0.00119741
 ,-0.00071528,-0.00000035,0.00889608,-0.01058083,-0.00000332,0.57352412
 ,-0.00036373,-0.00104998,-0.00000010,-0.00100119,-0.00363464,-0.000001
 34,-0.01027660,0.00121450,0.00000051,0.00128892,-0.00072340,0.00000068
 ,0.00018263,0.00140836,0.00000011,-0.00071828,-0.00100553,-0.00000003,
 0.00012185,-0.00027015,-0.00000005,0.00001907,0.00011787,0.,0.00013129
 ,-0.00008378,-0.00000004,0.00002969,-0.00006589,-0.00000001,0.01711583
 ,-0.03796729,0.00001381,0.00071799,-0.00143715,0.00000046,-0.04111102,
 -0.01044376,0.00000399,-0.00062100,-0.00804672,0.00000002,-0.06841176,
 -0.14203197,-0.00000208,-0.00081326,0.00067289,0.00000053,-0.00202272,
 -0.00040884,0.00000001,0.03946445,0.02104094,-0.00000284,-0.00028628,-
 0.00881537,0.00000012,-0.00008423,0.00039912,-0.00000006,-0.00142007,0
 .00184221,0.,0.00148123,0.00065114,-0.00000022,0.00766870,0.00749974,0
 .00000059,-0.04131669,0.42899059,-0.00000038,0.,0.00036934,0.00000002,
 -0.00000074,-0.00052127,-0.00000275,0.00000146,-0.00025431,0.00000082,
 -0.00000054,0.00021941,0.00000036,0.00000086,0.00014486,-0.00000047,0.
 00000016,0.00001812,0.00000004,0.,-0.00004095,0.,0.,-0.00013112,-0.000
 00004,0.,-0.00002264,0.00000001,0.,-0.00008384,0.00000118,0.00000044,0
 .00820740,-0.00000044,-0.00000057,-0.00063940,0.00000781,0.00000189,0.
 01438359,-0.00000283,0.00000122,0.00231711,0.00007575,0.00000940,-0.04
 486827,0.00000167,-0.00000128,-0.00063624,0.,0.00000026,-0.00080494,0.
 00001862,0.00000271,0.00791995,0.00000067,-0.00000247,0.00425739,0.000
 00005,0.00000009,-0.00011438,-0.00000130,0.00000087,-0.00349929,0.0000
 0073,0.00000026,0.00012275,-0.00000141,-0.00000206,-0.00260219,-0.0001
 6090,0.00009334,0.04131005,-0.00087907,-0.00079228,-0.00000029,-0.0039
 5312,-0.00410442,-0.00000110,-0.00753783,0.00954953,-0.00000026,0.0042
 8472,-0.00137798,0.00000091,0.00063144,0.00365010,0.00000026,-0.001563
 20,-0.00144889,-0.00000018,0.00012179,-0.00001751,0.00000004,-0.000370
 46,-0.00003830,-0.00000010,-0.00003005,0.00000716,-0.00000007,-0.00002
 904,-0.00004679,0.00000002,-0.00329780,-0.01458055,0.00001079,-0.00153
 962,-0.00508666,-0.00000042,0.00750027,0.00122434,-0.00000173,-0.00678
 175,0.00234263,0.00000046,-0.05199488,0.03119540,0.00002143,0.00166530
 ,-0.00233655,-0.00000028,0.00033924,0.00010709,-0.00000003,0.00308093,
 -0.00622399,-0.00000058,-0.00116091,-0.00065657,0.00000081,0.00006172,
 -0.00001898,0.00000002,-0.00016068,0.00017106,-0.00000012,-0.00023182,
 -0.00000544,-0.00000003,0.00058840,-0.00387484,0.00000336,-0.11656169,
 0.10022516,0.00006278,0.17781812,0.00267994,0.00104549,0.00000094,0.00
 575003,0.01092756,0.00000262,0.02143037,-0.01624996,-0.00000367,-0.008
 48723,0.00370883,-0.00000160,-0.00148684,-0.00705910,-0.00000042,0.002
 14813,0.00299876,0.00000022,-0.00024427,0.00024927,-0.00000005,0.00026
 490,-0.00009244,-0.00000006,-0.00007589,0.00009930,0.00000008,-0.00003
 300,0.00011518,0.,-0.02624990,0.02312031,-0.00001982,0.00172069,0.0090
 9492,0.00000028,-0.01763480,-0.00102135,0.00000172,0.01478677,-0.00407
 287,-0.00000098,0.02283881,0.02066167,0.00000142,-0.00341600,0.0057393
 3,0.00000031,-0.00004271,0.00003182,0.00000032,-0.01690844,0.00404322,
 0.00000332,0.00135119,0.00444221,-0.00000086,0.00004318,-0.00011541,-0
 .00000009,0.00029925,-0.00021270,0.00000015,-0.00027310,-0.00034934,-0
 .00000009,-0.00623055,-0.01439666,0.00000174,0.11563221,-0.24785288,-0
 .00010529,-0.10786275,0.20514483,-0.00000029,-0.00000070,0.00006463,0.
 00000025,-0.00000148,0.00069521,-0.00000267,-0.00000367,-0.00183534,-0
 .00000067,0.00000007,-0.00039258,0.00000033,-0.00000022,-0.00004273,-0
 .00000021,0.00000021,-0.00002933,0.00000011,-0.00000016,-0.00001838,-0
 .00000015,0.00000012,0.00005207,0.00000003,-0.00000006,0.00004059,0.00
 000001,-0.00000002,0.00004763,0.00000747,0.00000195,-0.00929811,-0.000
 00082,-0.00000244,0.00064491,-0.00000083,0.00000021,-0.00398662,-0.000
 00148,-0.00000017,0.00016693,-0.00000036,-0.00001010,-0.00199446,0.000
 00081,-0.00000032,0.00006237,-0.00000021,-0.00000011,0.00017840,0.0000
 0181,0.00000013,0.00568835,-0.00000085,-0.00000078,0.00145962,-0.00000
 005,0.00000003,0.00000419,-0.00000004,0.00000004,-0.00062975,-0.000000
 05,0.00000016,-0.00075692,0.00000135,0.00000490,0.00261602,0.00009221,
 -0.00010740,-0.02505109,-0.00009570,0.00011982,0.03231439\\-0.00101525
 ,0.00023743,-0.00000025,0.00018566,0.00089550,-0.00000169,0.00098543,0
 .00026876,0.00000528,0.00063704,-0.00091258,0.00000003,-0.00032289,-0.
 00159408,-0.00000027,-0.00106717,-0.00099224,-0.00000034,-0.00016292,0
 .00007270,0.00000013,0.00013502,-0.00012427,0.,-0.00002798,-0.00019175
 ,0.,-0.00015275,-0.00011228,-0.00000004,0.00076041,0.00114948,0.000010
 78,0.00080133,0.00375085,0.00000079,0.00030856,0.00049790,-0.00000390,
 0.00094901,-0.00082780,0.00000158,0.00023448,0.00059888,0.00001004,-0.
 00013188,-0.00131240,-0.00000173,0.00014379,-0.00009906,0.00000065,-0.
 00116434,-0.00013851,-0.00000467,-0.00106011,-0.00125616,-0.00000074,0
 .00000147,-0.00018559,0.00000027,-0.00017110,0.00000395,0.00000054,-0.
 00014776,-0.00015728,0.00000074,0.00064351,0.00071538,-0.00000484,-0.0
 0065204,0.00054481,0.00001611,0.00029049,-0.00083167,-0.00002847\\\@
 The archive entry for this job was punched.


 Children are likely to live up to what you believe of them.
 -- Lady Bird Johnson
 Job cpu time:       0 days  2 hours 49 minutes 23.9 seconds.
 Elapsed time:       0 days  0 hours 17 minutes 24.3 seconds.
 File lengths (MBytes):  RWF=   1380 Int=      0 D2E=      0 Chk=     48 Scr=      8
 Normal termination of Gaussian 16 at Tue Jul 14 13:58:48 2020.
