 Entering Gaussian System, Link 0=g16
 Initial command:
 /gpfs/loomis/apps/avx/software/Gaussian/16-C.01_AVX/g16/l1.exe "/home/fas/batista/pev4/scratch60/gauss-scratch/Gau-192961.inp" -scrdir="/home/fas/batista/pev4/scratch60/gauss-scratch/"
 Entering Link 1 = /gpfs/loomis/apps/avx/software/Gaussian/16-C.01_AVX/g16/l1.exe PID=    192962.
  
 Copyright (c) 1988-2019, Gaussian, Inc.  All Rights Reserved.
  
 This is part of the Gaussian(R) 16 program.  It is based on
 the Gaussian(R) 09 system (copyright 2009, Gaussian, Inc.),
 the Gaussian(R) 03 system (copyright 2003, Gaussian, Inc.),
 the Gaussian(R) 98 system (copyright 1998, Gaussian, Inc.),
 the Gaussian(R) 94 system (copyright 1995, Gaussian, Inc.),
 the Gaussian 92(TM) system (copyright 1992, Gaussian, Inc.),
 the Gaussian 90(TM) system (copyright 1990, Gaussian, Inc.),
 the Gaussian 88(TM) system (copyright 1988, Gaussian, Inc.),
 the Gaussian 86(TM) system (copyright 1986, Carnegie Mellon
 University), and the Gaussian 82(TM) system (copyright 1983,
 Carnegie Mellon University). Gaussian is a federally registered
 trademark of Gaussian, Inc.
  
 This software contains proprietary and confidential information,
 including trade secrets, belonging to Gaussian, Inc.
  
 This software is provided under written license and may be
 used, copied, transmitted, or stored only in accord with that
 written license.
  
 The following legend is applicable only to US Government
 contracts under FAR:
  
                    RESTRICTED RIGHTS LEGEND
  
 Use, reproduction and disclosure by the US Government is
 subject to restrictions as set forth in subparagraphs (a)
 and (c) of the Commercial Computer Software - Restricted
 Rights clause in FAR 52.227-19.
  
 Gaussian, Inc.
 340 Quinnipiac St., Bldg. 40, Wallingford CT 06492
  
  
 ---------------------------------------------------------------
 Warning -- This program may not be used in any manner that
 competes with the business of Gaussian, Inc. or will provide
 assistance to any competitor of Gaussian, Inc.  The licensee
 of this program is prohibited from giving any competitor of
 Gaussian, Inc. access to this program.  By using this program,
 the user acknowledges that Gaussian, Inc. is engaged in the
 business of creating and licensing software in the field of
 computational chemistry and represents and warrants to the
 licensee that it is not a competitor of Gaussian, Inc. and that
 it will not use this program in any manner prohibited above.
 ---------------------------------------------------------------
  

 Cite this work as:
 Gaussian 16, Revision C.01,
 M. J. Frisch, G. W. Trucks, H. B. Schlegel, G. E. Scuseria, 
 M. A. Robb, J. R. Cheeseman, G. Scalmani, V. Barone, 
 G. A. Petersson, H. Nakatsuji, X. Li, M. Caricato, A. V. Marenich, 
 J. Bloino, B. G. Janesko, R. Gomperts, B. Mennucci, H. P. Hratchian, 
 J. V. Ortiz, A. F. Izmaylov, J. L. Sonnenberg, D. Williams-Young, 
 F. Ding, F. Lipparini, F. Egidi, J. Goings, B. Peng, A. Petrone, 
 T. Henderson, D. Ranasinghe, V. G. Zakrzewski, J. Gao, N. Rega, 
 G. Zheng, W. Liang, M. Hada, M. Ehara, K. Toyota, R. Fukuda, 
 J. Hasegawa, M. Ishida, T. Nakajima, Y. Honda, O. Kitao, H. Nakai, 
 T. Vreven, K. Throssell, J. A. Montgomery, Jr., J. E. Peralta, 
 F. Ogliaro, M. J. Bearpark, J. J. Heyd, E. N. Brothers, K. N. Kudin, 
 V. N. Staroverov, T. A. Keith, R. Kobayashi, J. Normand, 
 K. Raghavachari, A. P. Rendell, J. C. Burant, S. S. Iyengar, 
 J. Tomasi, M. Cossi, J. M. Millam, M. Klene, C. Adamo, R. Cammi, 
 J. W. Ochterski, R. L. Martin, K. Morokuma, O. Farkas, 
 J. B. Foresman, and D. J. Fox, Gaussian, Inc., Wallingford CT, 2019.
 
 ******************************************
 Gaussian 16:  ES64L-G16RevC.01  3-Jul-2019
                14-Jul-2020 
 ******************************************
 %chk=config_2_20.chk
 %mem=58GB
 %nprocshared=10
 Will use up to   10 processors via shared memory.
 ----------------------------------------------------------------------
 #p opt=addgic freq td wb97xd/cc-pvdz nosymm int=ultrafine scrf=(solven
 t=CarbonTetraChloride)
 ----------------------------------------------------------------------
 1/18=20,19=15,26=6,38=1,145=903/1,3;
 2/9=110,12=2,15=1,17=6,18=5,40=1/2;
 3/5=16,11=9,25=1,30=1,70=2201,71=1,72=11,74=-58,75=-5/1,2,3,8;
 4//1;
 5/5=2,38=5,53=11/2;
 8/6=1,10=1/1;
 9/15=2,42=1,70=2/14;
 10/5=4,31=1/2;
 6/7=2,8=2,9=2,10=2/1;
 7/12=6,13=5,30=1/1,2,3,16;
 1/18=20,19=15,26=6,145=903/3(2);
 2/9=110,15=1/2;
 99//99;
 2/9=110,15=1/2;
 3/5=16,11=9,25=1,30=1,70=2205,71=1,72=11,74=-58,75=-5/1,2,3,8;
 4/5=5,16=3,69=1/1;
 5/5=2,38=5,53=11/2;
 8/6=1,10=1/1;
 9/15=2,42=1,49=4,70=2/14;
 10/5=4,31=1/2;
 7/12=6,13=5,30=1/1,2,3,16;
 1/18=20,19=15,26=6,145=903/3(-8);
 2/9=110,15=1/2;
 6/7=2,8=2,9=2,10=2/1;
 99/9=10/99;
 Leave Link    1 at Tue Jul 14 16:10:33 2020, MaxMem=  7784628224 cpu:               4.3 elap:               0.5
 (Enter /gpfs/loomis/apps/avx/software/Gaussian/16-C.01_AVX/g16/l101.exe)
 ------------------------------------------------
 NM 2D-scan of HBT TD-WB97XD pVDZ in CTC Relaxed.
 ------------------------------------------------
 Symbolic Z-matrix:
 Charge =  0 Multiplicity = 1
 C                     1.48857  -3.25231  -0.00002 
 C                     0.99186  -1.94565  -0.00002 
 C                     1.80994  -0.76222  -0.00003 
 C                     3.23289  -0.9847   -0.00003 
 C                     3.72325  -2.29668  -0.00002 
 C                     2.87479  -3.43305  -0.00001 
 H                     0.79529  -4.10842  -0.00001 
 H                     3.92416  -0.12626  -0.00004 
 H                     4.81179  -2.45285  -0.00003 
 H                     3.30273  -4.44415  -0.00001 
 N                     1.10501   0.39816  -0.00004 
 S                    -0.68963  -1.53762  -0.00003 
 C                    -1.27907   1.07918   0.00001 
 C                    -2.65614   0.68974   0.00003 
 C                    -0.94089   2.49906   0.00004 
 C                    -3.65271   1.65704   0.00004 
 H                    -2.91547  -0.37937   0.00003 
 C                    -1.97245   3.46414   0.00003 
 C                    -3.31781   3.043     0.00003 
 H                    -4.70754   1.35613   0.00004 
 H                    -1.71016   4.5333    0.00005 
 H                    -4.12086   3.79091   0.00003 
 C                    -0.23797   0.14695  -0.00002 
 O                     0.3477    2.77988   0.00007 
 H                     0.86108   2.09585   0.00004 
 
 Initializing the GIC definitions file.
 Number of initial coordinates =   131
 Number of input entries/lines =    52
 Number of additional coordinates =     2
 Number of removed coordinates =     0
 Number of frozen coordinates =     2
 Number of final active and frozen coordinates =   133
 ITRead=  0  0  0  0  0  0  0  0  0  0  0  0  0  0  0  0  0  0  0  0
 ITRead=  0  0  0  0  0
 MicOpt= -1 -1 -1 -1 -1 -1 -1 -1 -1 -1 -1 -1 -1 -1 -1 -1 -1 -1 -1 -1
 MicOpt= -1 -1 -1 -1 -1
 NAtoms=     25 NQM=       25 NQMF=       0 NMMI=      0 NMMIF=      0
                NMic=       0 NMicF=      0.
                    Isotopes and Nuclear Properties:
 (Nuclear quadrupole moments (NQMom) in fm**2, nuclear magnetic moments (NMagM)
  in nuclear magnetons)

  Atom         1           2           3           4           5           6           7           8           9          10
 IAtWgt=          12          12          12          12          12          12           1           1           1           1
 AtmWgt=  12.0000000  12.0000000  12.0000000  12.0000000  12.0000000  12.0000000   1.0078250   1.0078250   1.0078250   1.0078250
 NucSpn=           0           0           0           0           0           0           1           1           1           1
 AtZEff=  -0.0000000  -0.0000000  -0.0000000  -0.0000000  -0.0000000  -0.0000000  -0.0000000  -0.0000000  -0.0000000  -0.0000000
 NQMom=    0.0000000   0.0000000   0.0000000   0.0000000   0.0000000   0.0000000   0.0000000   0.0000000   0.0000000   0.0000000
 NMagM=    0.0000000   0.0000000   0.0000000   0.0000000   0.0000000   0.0000000   2.7928460   2.7928460   2.7928460   2.7928460
 AtZNuc=   6.0000000   6.0000000   6.0000000   6.0000000   6.0000000   6.0000000   1.0000000   1.0000000   1.0000000   1.0000000

  Atom        11          12          13          14          15          16          17          18          19          20
 IAtWgt=          14          32          12          12          12          12           1          12          12           1
 AtmWgt=  14.0030740  31.9720718  12.0000000  12.0000000  12.0000000  12.0000000   1.0078250  12.0000000  12.0000000   1.0078250
 NucSpn=           2           0           0           0           0           0           1           0           0           1
 AtZEff=  -0.0000000  -0.0000000  -0.0000000  -0.0000000  -0.0000000  -0.0000000  -0.0000000  -0.0000000  -0.0000000  -0.0000000
 NQMom=    2.0440000   0.0000000   0.0000000   0.0000000   0.0000000   0.0000000   0.0000000   0.0000000   0.0000000   0.0000000
 NMagM=    0.4037610   0.0000000   0.0000000   0.0000000   0.0000000   0.0000000   2.7928460   0.0000000   0.0000000   2.7928460
 AtZNuc=   7.0000000  16.0000000   6.0000000   6.0000000   6.0000000   6.0000000   1.0000000   6.0000000   6.0000000   1.0000000

  Atom        21          22          23          24          25
 IAtWgt=           1           1          12          16           1
 AtmWgt=   1.0078250   1.0078250  12.0000000  15.9949146   1.0078250
 NucSpn=           1           1           0           0           1
 AtZEff=  -0.0000000  -0.0000000  -0.0000000  -0.0000000  -0.0000000
 NQMom=    0.0000000   0.0000000   0.0000000   0.0000000   0.0000000
 NMagM=    2.7928460   2.7928460   0.0000000   0.0000000   2.7928460
 AtZNuc=   1.0000000   1.0000000   6.0000000   8.0000000   1.0000000
 Leave Link  101 at Tue Jul 14 16:10:36 2020, MaxMem=  7784628224 cpu:              29.7 elap:               3.3
 (Enter /gpfs/loomis/apps/avx/software/Gaussian/16-C.01_AVX/g16/l103.exe)

 GradGradGradGradGradGradGradGradGradGradGradGradGradGradGradGradGradGrad
 Berny optimization.
 Initialization pass.
                           ----------------------------
                           !    Initial Parameters    !
                           ! (Angstroms and Degrees)  !
 --------------------------                            --------------------------
 ! Name  Definition              Value          Derivative Info.                !
 --------------------------------------------------------------------------------
 ! R1    R(1,2)                  1.3979         estimate D2E/DX2                !
 ! R2    R(1,6)                  1.398          estimate D2E/DX2                !
 ! R3    R(1,7)                  1.1016         estimate D2E/DX2                !
 ! R4    R(2,3)                  1.4387         estimate D2E/DX2                !
 ! R5    R(2,12)                 1.7303         estimate D2E/DX2                !
 ! R6    R(3,4)                  1.4402         estimate D2E/DX2                !
 ! R7    R(3,11)                 1.3577         estimate D2E/DX2                !
 ! R8    R(4,5)                  1.4006         estimate D2E/DX2                !
 ! R9    R(4,8)                  1.1022         estimate D2E/DX2                !
 ! R10   R(5,6)                  1.4182         estimate D2E/DX2                !
 ! R11   R(5,9)                  1.0997         estimate D2E/DX2                !
 ! R12   R(6,10)                 1.0979         estimate D2E/DX2                !
 ! R13   R(11,23)                1.3663         estimate D2E/DX2                !
 ! R14   R(12,23)                1.7441         estimate D2E/DX2                !
 ! R15   R(13,14)                1.4311         estimate D2E/DX2                !
 ! R16   R(13,15)                1.4596         estimate D2E/DX2                !
 ! R17   R(13,23)                1.3975         estimate D2E/DX2                !
 ! R18   R(14,16)                1.3888         estimate D2E/DX2                !
 ! R19   R(14,17)                1.1001         estimate D2E/DX2                !
 ! R20   R(15,18)                1.4126         estimate D2E/DX2                !
 ! R21   R(15,24)                1.3188         estimate D2E/DX2                !
 ! R22   R(16,19)                1.4258         estimate D2E/DX2                !
 ! R23   R(16,20)                1.0969         estimate D2E/DX2                !
 ! R24   R(18,19)                1.4097         estimate D2E/DX2                !
 ! R25   R(18,21)                1.1009         estimate D2E/DX2                !
 ! R26   R(19,22)                1.0974         estimate D2E/DX2                !
 ! R27   R(24,25)                0.8553         estimate D2E/DX2                !
 ! A1    A(2,1,6)              118.2423         estimate D2E/DX2                !
 ! A2    A(2,1,7)              120.1857         estimate D2E/DX2                !
 ! A3    A(6,1,7)              121.572          estimate D2E/DX2                !
 ! A4    A(1,2,3)              124.5308         estimate D2E/DX2                !
 ! A5    A(1,2,12)             124.4534         estimate D2E/DX2                !
 ! A6    A(3,2,12)             111.0158         estimate D2E/DX2                !
 ! A7    A(2,3,4)              115.7692         estimate D2E/DX2                !
 ! A8    A(2,3,11)             114.0658         estimate D2E/DX2                !
 ! A9    A(4,3,11)             130.165          estimate D2E/DX2                !
 ! A10   A(3,4,5)              119.3801         estimate D2E/DX2                !
 ! A11   A(3,4,8)              119.9566         estimate D2E/DX2                !
 ! A12   A(5,4,8)              120.6632         estimate D2E/DX2                !
 ! A13   A(4,5,6)              122.7596         estimate D2E/DX2                !
 ! A14   A(4,5,9)              118.6584         estimate D2E/DX2                !
 ! A15   A(6,5,9)              118.582          estimate D2E/DX2                !
 ! A16   A(1,6,5)              119.3181         estimate D2E/DX2                !
 ! A17   A(1,6,10)             120.3686         estimate D2E/DX2                !
 ! A18   A(5,6,10)             120.3134         estimate D2E/DX2                !
 ! A19   A(3,11,23)            110.6838         estimate D2E/DX2                !
 ! A20   A(2,12,23)             88.6306         estimate D2E/DX2                !
 ! A21   A(14,13,15)           119.1884         estimate D2E/DX2                !
 ! A22   A(14,13,23)           122.3666         estimate D2E/DX2                !
 ! A23   A(15,13,23)           118.445          estimate D2E/DX2                !
 ! A24   A(13,14,16)           120.0621         estimate D2E/DX2                !
 ! A25   A(13,14,17)           119.4261         estimate D2E/DX2                !
 ! A26   A(16,14,17)           120.5118         estimate D2E/DX2                !
 ! A27   A(13,15,18)           119.6957         estimate D2E/DX2                !
 ! A28   A(13,15,24)           115.6912         estimate D2E/DX2                !
 ! A29   A(18,15,24)           124.6131         estimate D2E/DX2                !
 ! A30   A(14,16,19)           120.562          estimate D2E/DX2                !
 ! A31   A(14,16,20)           119.9315         estimate D2E/DX2                !
 ! A32   A(19,16,20)           119.5065         estimate D2E/DX2                !
 ! A33   A(15,18,19)           119.5255         estimate D2E/DX2                !
 ! A34   A(15,18,21)           119.3091         estimate D2E/DX2                !
 ! A35   A(19,18,21)           121.1654         estimate D2E/DX2                !
 ! A36   A(16,19,18)           120.9662         estimate D2E/DX2                !
 ! A37   A(16,19,22)           119.3795         estimate D2E/DX2                !
 ! A38   A(18,19,22)           119.6542         estimate D2E/DX2                !
 ! A39   A(11,23,12)           115.6039         estimate D2E/DX2                !
 ! A40   A(11,23,13)           127.5632         estimate D2E/DX2                !
 ! A41   A(12,23,13)           116.8329         estimate D2E/DX2                !
 ! A42   A(15,24,25)           114.5953         estimate D2E/DX2                !
 ! D1    D(6,1,2,3)              0.0            estimate D2E/DX2                !
 ! D2    D(6,1,2,12)           179.9999         estimate D2E/DX2                !
 ! D3    D(7,1,2,3)            179.9999         estimate D2E/DX2                !
 ! D4    D(7,1,2,12)            -0.0001         estimate D2E/DX2                !
 ! D5    D(2,1,6,5)             -0.0002         estimate D2E/DX2                !
 ! D6    D(2,1,6,10)           179.9999         estimate D2E/DX2                !
 ! D7    D(7,1,6,5)            179.9999         estimate D2E/DX2                !
 ! D8    D(7,1,6,10)             0.0            estimate D2E/DX2                !
 ! D9    D(1,2,3,4)              0.0003         estimate D2E/DX2                !
 ! D10   D(1,2,3,11)          -179.9999         estimate D2E/DX2                !
 ! D11   D(12,2,3,4)          -179.9997         estimate D2E/DX2                !
 ! D12   D(12,2,3,11)            0.0001         estimate D2E/DX2                !
 ! D13   D(1,2,12,23)          179.9996         estimate D2E/DX2                !
 ! D14   D(3,2,12,23)           -0.0005         estimate D2E/DX2                !
 ! D15   D(2,3,4,5)             -0.0003         estimate D2E/DX2                !
 ! D16   D(2,3,4,8)            179.9998         estimate D2E/DX2                !
 ! D17   D(11,3,4,5)           180.0            estimate D2E/DX2                !
 ! D18   D(11,3,4,8)             0.0            estimate D2E/DX2                !
 ! D19   D(2,3,11,23)            0.0004         estimate D2E/DX2                !
 ! D20   D(4,3,11,23)         -179.9998         estimate D2E/DX2                !
 ! D21   D(3,4,5,6)              0.0001         estimate D2E/DX2                !
 ! D22   D(3,4,5,9)           -179.9999         estimate D2E/DX2                !
 ! D23   D(8,4,5,6)            180.0            estimate D2E/DX2                !
 ! D24   D(8,4,5,9)              0.0            estimate D2E/DX2                !
 ! D25   D(4,5,6,1)              0.0002         estimate D2E/DX2                !
 ! D26   D(4,5,6,10)          -179.9999         estimate D2E/DX2                !
 ! D27   D(9,5,6,1)           -179.9999         estimate D2E/DX2                !
 ! D28   D(9,5,6,10)             0.0            estimate D2E/DX2                !
 ! D29   D(3,11,23,12)          -0.0008         estimate D2E/DX2                !
 ! D30   D(3,11,23,13)         179.998          estimate D2E/DX2                !
 ! D31   D(2,12,23,11)           0.0007         estimate D2E/DX2                !
 ! D32   D(2,12,23,13)        -179.9982         estimate D2E/DX2                !
 ! D33   D(15,13,14,16)          0.0017         estimate D2E/DX2                !
 ! D34   D(15,13,14,17)       -179.9989         estimate D2E/DX2                !
 ! D35   D(23,13,14,16)       -179.9983         estimate D2E/DX2                !
 ! D36   D(23,13,14,17)          0.001          estimate D2E/DX2                !
 ! D37   D(14,13,15,18)         -0.002          estimate D2E/DX2                !
 ! D38   D(14,13,15,24)        179.9977         estimate D2E/DX2                !
 ! D39   D(23,13,15,18)        179.998          estimate D2E/DX2                !
 ! D40   D(23,13,15,24)         -0.0022         estimate D2E/DX2                !
 ! D41   D(14,13,23,11)       -179.9995         estimate D2E/DX2                !
 ! D42   D(14,13,23,12)         -0.0008         estimate D2E/DX2                !
 ! D43   D(15,13,23,11)          0.0004         estimate D2E/DX2                !
 ! D44   D(15,13,23,12)        179.9992         estimate D2E/DX2                !
 ! D45   D(13,14,16,19)         -0.0004         estimate D2E/DX2                !
 ! D46   D(13,14,16,20)        179.9995         estimate D2E/DX2                !
 ! D47   D(17,14,16,19)       -179.9998         estimate D2E/DX2                !
 ! D48   D(17,14,16,20)          0.0002         estimate D2E/DX2                !
 ! D49   D(13,15,18,19)          0.001          estimate D2E/DX2                !
 ! D50   D(13,15,18,21)       -179.9998         estimate D2E/DX2                !
 ! D51   D(24,15,18,19)       -179.9987         estimate D2E/DX2                !
 ! D52   D(24,15,18,21)          0.0005         estimate D2E/DX2                !
 ! D53   D(13,15,24,25)          0.0024         estimate D2E/DX2                !
 ! D54   D(18,15,24,25)       -179.9979         estimate D2E/DX2                !
 ! D55   D(14,16,19,18)         -0.0007         estimate D2E/DX2                !
 ! D56   D(14,16,19,22)        179.9997         estimate D2E/DX2                !
 ! D57   D(20,16,19,18)        179.9994         estimate D2E/DX2                !
 ! D58   D(20,16,19,22)         -0.0002         estimate D2E/DX2                !
 ! D59   D(15,18,19,16)          0.0004         estimate D2E/DX2                !
 ! D60   D(15,18,19,22)        180.0            estimate D2E/DX2                !
 ! D61   D(21,18,19,16)       -179.9988         estimate D2E/DX2                !
 ! D62   D(21,18,19,22)          0.0008         estimate D2E/DX2                !
 ! Qtot  GIC-1                 -40.0            Frozen                          !
 ! Ptot  GIC-2                 240.0            Frozen                          !
 --------------------------------------------------------------------------------
 NOTE: GIC-type coordinates are in arbitrary units.
 Trust Radius=3.00D-01 FncErr=5.00D-06 GrdErr=5.00D-06 EigMax=2.50D+02 EigMin=1.00D-04
 Number of steps in this run=    143 maximum allowed number of steps=    150.
 GradGradGradGradGradGradGradGradGradGradGradGradGradGradGradGradGradGrad

 Leave Link  103 at Tue Jul 14 16:10:37 2020, MaxMem=  7784628224 cpu:               0.2 elap:               0.0
 (Enter /gpfs/loomis/apps/avx/software/Gaussian/16-C.01_AVX/g16/l202.exe)
                          Input orientation:                          
 ---------------------------------------------------------------------
 Center     Atomic      Atomic             Coordinates (Angstroms)
 Number     Number       Type             X           Y           Z
 ---------------------------------------------------------------------
      1          6           0        1.488572   -3.252307   -0.000015
      2          6           0        0.991860   -1.945646   -0.000023
      3          6           0        1.809943   -0.762223   -0.000030
      4          6           0        3.232889   -0.984704   -0.000033
      5          6           0        3.723255   -2.296682   -0.000024
      6          6           0        2.874794   -3.433049   -0.000014
      7          1           0        0.795287   -4.108424   -0.000009
      8          1           0        3.924158   -0.126258   -0.000041
      9          1           0        4.811786   -2.452854   -0.000025
     10          1           0        3.302733   -4.444150   -0.000006
     11          7           0        1.105011    0.398161   -0.000035
     12         16           0       -0.689634   -1.537616   -0.000028
     13          6           0       -1.279074    1.079184    0.000014
     14          6           0       -2.656144    0.689736    0.000033
     15          6           0       -0.940891    2.499063    0.000037
     16          6           0       -3.652707    1.657043    0.000035
     17          1           0       -2.915474   -0.379370    0.000034
     18          6           0       -1.972454    3.464137    0.000034
     19          6           0       -3.317806    3.043000    0.000029
     20          1           0       -4.707544    1.356127    0.000041
     21          1           0       -1.710165    4.533304    0.000048
     22          1           0       -4.120856    3.790914    0.000027
     23          6           0       -0.237969    0.146955   -0.000024
     24          8           0        0.347696    2.779882    0.000066
     25          1           0        0.861083    2.095854    0.000036
 ---------------------------------------------------------------------
                    Distance matrix (angstroms):
                    1          2          3          4          5
     1  C    0.000000
     2  C    1.397886   0.000000
     3  C    2.510737   1.438662   0.000000
     4  C    2.860886   2.438364   1.440234   0.000000
     5  C    2.430438   2.753860   2.452616   1.400623   0.000000
     6  C    1.397956   2.399543   2.875277   2.474394   1.418173
     7  H    1.101626   2.171693   3.496654   3.962263   3.443168
     8  H    3.962861   3.450876   2.207795   1.102172   2.179702
     9  H    3.418023   3.853452   3.445185   2.156011   1.099677
    10  H    2.170638   3.403330   3.973035   3.460151   2.188255
    11  N    3.670563   2.346536   1.357726   2.537751   3.757310
    12  S    2.772138   1.730292   2.617082   3.961300   4.477697
    13  C    5.140203   3.782425   3.596222   4.961597   6.034879
    14  C    5.719998   4.500352   4.696181   6.122455   7.043821
    15  C    6.243440   4.846747   4.266506   5.436641   6.689799
    16  C    7.108760   5.878041   5.974395   7.374975   8.368796
    17  H    5.258268   4.209570   4.740901   6.178090   6.910051
    18  C    7.555747   6.168704   5.671741   6.847465   8.101119
    19  C    7.920363   6.592405   6.385415   7.689863   8.836783
    20  H    7.722015   6.586722   6.853104   8.278283   9.188111
    21  H    8.417105   7.019810   6.358755   7.408252   8.727586
    22  H    9.004035   7.684269   7.476994   8.768358   9.929194
    23  C    3.812601   2.427232   2.240658   3.650686   4.654315
    24  O    6.139129   4.769231   3.832059   4.743042   6.096384
    25  H    5.384847   4.043615   3.011468   3.887840   5.242748
                    6          7          8          9         10
     6  C    0.000000
     7  H    2.186431   0.000000
     8  H    3.469298   5.064335   0.000000
     9  H    2.170880   4.344327   2.490168   0.000000
    10  H    1.097933   2.529821   4.362380   2.498499   0.000000
    11  N    4.220225   4.517216   2.867509   4.676373   5.317702
    12  S    4.037055   2.968846   4.824833   5.577032   4.938313
    13  C    6.133096   5.586972   5.341041   7.040872   7.176362
    14  C    6.898451   5.910560   6.630703   8.102213   7.865430
    15  C    7.053325   6.831778   5.528201   7.590439   8.137354
    16  C    8.277518   7.281844   7.783897   9.409511   9.252172
    17  H    6.546156   5.260760   6.844314   8.000618   7.428898
    18  C    8.430123   8.062510   6.903692   9.002038   9.506239
    19  C    8.960329   8.249872   7.905076   9.812985   9.994445
    20  H    8.968169   7.755158   8.758067  10.253096   9.889780
    21  H    9.191552   8.997597   7.311437   9.557314  10.282209
    22  H   10.056081   9.304193   8.947988  10.898474  11.087198
    23  C    4.744019   4.379026   4.171085   5.679704   5.797828
    24  O    6.707215   6.902833   4.608333   6.878200   7.805055
    25  H    5.884199   6.204627   3.784206   6.024849   6.980925
                   11         12         13         14         15
    11  N    0.000000
    12  S    2.639694   0.000000
    13  C    2.479447   2.682365   0.000000
    14  C    3.772440   2.971238   1.431080   0.000000
    15  C    2.932491   4.044490   1.459597   2.493142   0.000000
    16  C    4.921450   4.357252   2.442960   1.388820   2.839533
    17  H    4.094979   2.509163   2.192073   1.100109   3.490609
    18  C    4.344076   5.163638   2.483701   2.857400   1.412618
    19  C    5.153298   5.281034   2.830723   2.444514   2.438359
    20  H    5.890967   4.951499   3.439637   2.156923   3.936239
    21  H    5.002462   6.156099   3.480917   3.958269   2.174838
    22  H    6.230607   6.337706   3.928002   3.429677   3.432355
    23  C    1.366272   1.744070   1.397481   2.478343   2.454895
    24  O    2.499225   4.440365   2.353456   3.659476   1.318831
    25  H    1.715128   3.950548   2.369365   3.787882   1.846533
                   16         17         18         19         20
    16  C    0.000000
    17  H    2.165754   0.000000
    18  C    2.467558   3.957503   0.000000
    19  C    1.425846   3.445938   1.409726   0.000000
    20  H    1.096919   2.494687   3.453176   2.185614   0.000000
    21  H    3.470786   5.058373   1.100870   2.192149   4.367921
    22  H    2.184621   4.340992   2.173112   1.097391   2.504474
    23  C    3.733738   2.728745   3.743279   4.227585   4.630248
    24  O    4.154996   4.541933   2.418946   3.674933   5.251907
    25  H    4.535069   4.515431   3.146605   4.284879   5.617544
                   21         22         23         24         25
    21  H    0.000000
    22  H    2.522415   0.000000
    23  C    4.626816   5.324965   0.000000
    24  O    2.703568   4.581500   2.697279   0.000000
    25  H    3.542947   5.262408   2.237437   0.855255   0.000000
 Symmetry turned off by external request.
 Stoichiometry    C13H9NOS
 Framework group  C1[X(C13H9NOS)]
 Deg. of freedom    69
 Full point group                 C1      NOp   1
 Rotational constants (GHZ):           1.4034936           0.2864699           0.2379097
 Leave Link  202 at Tue Jul 14 16:10:37 2020, MaxMem=  7784628224 cpu:               0.4 elap:               0.1
 (Enter /gpfs/loomis/apps/avx/software/Gaussian/16-C.01_AVX/g16/l301.exe)
 Standard basis: CC-pVDZ (5D, 7F)
 Ernie: Thresh=  0.10000D-02 Tol=  0.10000D-05 Strict=F.
 Ernie:  40 primitive shells out of 425 were deleted.
   273 basis functions,   629 primitive gaussians,   289 cartesian basis functions
    59 alpha electrons       59 beta electrons
       nuclear repulsion energy      1099.9635233354 Hartrees.
 IExCor= 4639 DFT=T Ex+Corr=wB97XD ExCW=0 ScaHFX=  1.000000
 ScaDFX=  1.000000  1.000000  1.000000  1.000000 ScalE2=  1.000000  1.000000
 IRadAn=      5 IRanWt=     -1 IRanGd=            0 ICorTp=0 IEmpDi=121
 HFx  wShort=  0.000000 wLong=  0.200000 cFull=  0.222036 cShort=  0.000000 cLong=  0.777964
 DFx  wShort=  0.000000 wLong=  0.200000 cFull=  0.000000 cShort=  0.000000 cLong=  1.000000
 NAtoms=   25 NActive=   25 NUniq=   25 SFac= 1.00D+00 NAtFMM=   60 NAOKFM=F Big=F
 Integral buffers will be    131072 words long.
 Raffenetti 1 integral format.
 Two-electron integral symmetry is turned off.
 R6Disp:  Grimme-D2 Dispersion energy=       -0.0137601654 Hartrees.
 Nuclear repulsion after empirical dispersion term =     1099.9497631700 Hartrees.
 ------------------------------------------------------------------------------
 Polarizable Continuum Model (PCM)
 =================================
 Model                : PCM.
 Atomic radii         : UFF (Universal Force Field).
 Polarization charges : Total charges.
 Charge compensation  : None.
 Solution method      : On-the-fly selection.
 Cavity type          : Scaled VdW (van der Waals Surface) (Alpha=1.100).
 Cavity algorithm     : GePol (No added spheres)
                        Default sphere list used, NSphG=   25.
                        Lebedev-Laikov grids with approx.  5.0 points / Ang**2.
                        Smoothing algorithm: York/Karplus (Gamma=1.0000).
                        Polarization charges: spherical gaussians, with
                                              point-specific exponents (IZeta= 3).
                        Self-potential: point-specific (ISelfS= 7).
                        Self-field    : sphere-specific E.n sum rule (ISelfD= 2).
 1st derivatives      : Analytical E(r).r(x)/FMM algorithm (CHGder, D1EAlg=3).
                        Cavity 1st derivative terms included.
 Solvent              : CarbonTetraChloride, Eps=   2.228000 Eps(inf)=   2.131892
 ------------------------------------------------------------------------------
 GePol: Number of generator spheres                  =      25
 GePol: Total number of spheres                      =      25
 GePol: Number of exposed spheres                    =      25 (100.00%)
 GePol: Number of points                             =    2174
 GePol: Average weight of points                     =       0.13
 GePol: Minimum weight of points                     =   0.32D-09
 GePol: Maximum weight of points                     =    0.20577
 GePol: Number of points with low weight             =     138
 GePol: Fraction of low-weight points (<1% of avg)   =       6.35%
 GePol: Cavity surface area                          =    272.283 Ang**2
 GePol: Cavity volume                                =    292.897 Ang**3
 Leave Link  301 at Tue Jul 14 16:10:37 2020, MaxMem=  7784628224 cpu:               0.7 elap:               0.1
 (Enter /gpfs/loomis/apps/avx/software/Gaussian/16-C.01_AVX/g16/l302.exe)
 NPDir=0 NMtPBC=     1 NCelOv=     1 NCel=       1 NClECP=     1 NCelD=      1
         NCelK=      1 NCelE2=     1 NClLst=     1 CellRange=     0.0.
 One-electron integrals computed using PRISM.
 NBasis=   273 RedAO= T EigKep=  3.41D-04  NBF=   273
 NBsUse=   273 1.00D-06 EigRej= -1.00D+00 NBFU=   273
 Precomputing XC quadrature grid using
 IXCGrd= 4 IRadAn=           5 IRanWt=          -1 IRanGd=           0 AccXCQ= 0.00D+00.
 Generated NRdTot=       0 NPtTot=           0 NUsed=           0 NTot=          32
 NSgBfM=   288   288   288   288   288 MxSgAt=    25 MxSgA2=    25.
 Leave Link  302 at Tue Jul 14 16:10:37 2020, MaxMem=  7784628224 cpu:               5.7 elap:               0.7
 (Enter /gpfs/loomis/apps/avx/software/Gaussian/16-C.01_AVX/g16/l303.exe)
 DipDrv:  MaxL=1.
 Leave Link  303 at Tue Jul 14 16:10:37 2020, MaxMem=  7784628224 cpu:               0.5 elap:               0.1
 (Enter /gpfs/loomis/apps/avx/software/Gaussian/16-C.01_AVX/g16/l308.exe)
 Leave Link  308 at Tue Jul 14 16:10:38 2020, MaxMem=  7784628224 cpu:               0.7 elap:               0.1
 (Enter /gpfs/loomis/apps/avx/software/Gaussian/16-C.01_AVX/g16/l401.exe)
 ExpMin= 1.22D-01 ExpMax= 1.11D+05 ExpMxC= 1.07D+03 IAcc=3 IRadAn=         5 AccDes= 0.00D+00
 Harris functional with IExCor= 4639 and IRadAn=       5 diagonalized for initial guess.
 HarFok:  IExCor= 4639 AccDes= 0.00D+00 IRadAn=         5 IDoV= 1 UseB2=F ITyADJ=14
 ICtDFT=  3500011 ScaDFX=  1.000000  1.000000  1.000000  1.000000
 FoFCou: FMM=F IPFlag=           0 FMFlag=      100000 FMFlg1=           0
         NFxFlg=           0 DoJE=T BraDBF=F KetDBF=T FulRan=T
         wScrn=  0.000000 ICntrl=       500 IOpCl=  0 I1Cent=   200000004 NGrid=           0
         NMat0=    1 NMatS0=      1 NMatT0=    0 NMatD0=    1 NMtDS0=    0 NMtDT0=    0
 Symmetry not used in FoFCou.
 Harris En= -994.418970130452    
 JPrj=0 DoOrth=F DoCkMO=F.
 Leave Link  401 at Tue Jul 14 16:10:39 2020, MaxMem=  7784628224 cpu:              14.0 elap:               1.5
 (Enter /gpfs/loomis/apps/avx/software/Gaussian/16-C.01_AVX/g16/l502.exe)
 Two-electron integral symmetry not used.
 Closed shell SCF:
 Using DIIS extrapolation, IDIIS=  1040.
 NGot=  7784628224 LenX=  7784455381 LenY=  7784371419
 Requested convergence on RMS density matrix=1.00D-08 within 128 cycles.
 Requested convergence on MAX density matrix=1.00D-06.
 Requested convergence on             energy=1.00D-06.
 No special actions if energy rises.
 Fock matrices will be formed incrementally for  20 cycles.

 Cycle   1  Pass 1  IDiag  1:
 FoFJK:  IHMeth= 1 ICntrl=       0 DoSepK=T KAlg= 0 I1Cent=           0 FoldK=F
 IRaf=         1 NMat=       1 IRICut=       1 DoRegI=T DoRafI=F ISym2E= 0 IDoP0=0 IntGTp=1.
 FoFCou: FMM=F IPFlag=           0 FMFlag=      100000 FMFlg1=           0
         NFxFlg=           0 DoJE=T BraDBF=F KetDBF=F FulRan=T
         wScrn=  0.000000 ICntrl=       500 IOpCl=  0 I1Cent=           0 NGrid=           0
         NMat0=    1 NMatS0=      1 NMatT0=    0 NMatD0=    1 NMtDS0=    0 NMtDT0=    0
 Symmetry not used in FoFCou.
 Inv3:  Mode=1 IEnd=    14178828.
 Iteration    1 A*A^-1 deviation from unit magnitude is 4.44D-15 for   2155.
 Iteration    1 A*A^-1 deviation from orthogonality  is 1.30D-15 for    530    488.
 Iteration    1 A^-1*A deviation from unit magnitude is 4.66D-15 for   2155.
 Iteration    1 A^-1*A deviation from orthogonality  is 2.00D-15 for   2134   1391.
 E= -1028.57799895162    
 DIIS: error= 3.02D-02 at cycle   1 NSaved=   1.
 NSaved= 1 IEnMin= 1 EnMin= -1028.57799895162     IErMin= 1 ErrMin= 3.02D-02
 ErrMax= 3.02D-02  0.00D+00 EMaxC= 1.00D-01 BMatC= 3.71D-01 BMatP= 3.71D-01
 IDIUse=3 WtCom= 6.98D-01 WtEn= 3.02D-01
 Coeff-Com:  0.100D+01
 Coeff-En:   0.100D+01
 Coeff:      0.100D+01
 Gap=     0.346 Goal=   None    Shift=    0.000
 GapD=    0.346 DampG=1.000 DampE=0.500 DampFc=0.5000 IDamp=-1.
 Damping current iteration by 5.00D-01
 RMSDP=3.36D-03 MaxDP=2.18D-01              OVMax= 1.65D-01

 Cycle   2  Pass 1  IDiag  1:
 RMSU=  1.67D-03    CP:  9.93D-01
 E= -1028.68492154768     Delta-E=       -0.106922596061 Rises=F Damp=T
 DIIS: error= 1.06D-02 at cycle   2 NSaved=   2.
 NSaved= 2 IEnMin= 2 EnMin= -1028.68492154768     IErMin= 2 ErrMin= 1.06D-02
 ErrMax= 1.06D-02  0.00D+00 EMaxC= 1.00D-01 BMatC= 5.71D-02 BMatP= 3.71D-01
 IDIUse=3 WtCom= 8.94D-01 WtEn= 1.06D-01
 Coeff-Com: -0.343D+00 0.134D+01
 Coeff-En:   0.000D+00 0.100D+01
 Coeff:     -0.306D+00 0.131D+01
 Gap=     0.306 Goal=   None    Shift=    0.000
 RMSDP=1.09D-03 MaxDP=2.11D-02 DE=-1.07D-01 OVMax= 1.13D-01

 Cycle   3  Pass 1  IDiag  1:
 RMSU=  1.02D-03    CP:  9.91D-01  1.22D+00
 E= -1028.77763990717     Delta-E=       -0.092718359494 Rises=F Damp=F
 DIIS: error= 5.50D-03 at cycle   3 NSaved=   3.
 NSaved= 3 IEnMin= 3 EnMin= -1028.77763990717     IErMin= 3 ErrMin= 5.50D-03
 ErrMax= 5.50D-03  0.00D+00 EMaxC= 1.00D-01 BMatC= 1.10D-02 BMatP= 5.71D-02
 IDIUse=3 WtCom= 9.45D-01 WtEn= 5.50D-02
 Coeff-Com: -0.210D+00 0.482D+00 0.728D+00
 Coeff-En:   0.000D+00 0.000D+00 0.100D+01
 Coeff:     -0.198D+00 0.455D+00 0.743D+00
 Gap=     0.265 Goal=   None    Shift=    0.000
 RMSDP=4.79D-04 MaxDP=1.31D-02 DE=-9.27D-02 OVMax= 3.78D-02

 Cycle   4  Pass 1  IDiag  1:
 RMSU=  3.51D-04    CP:  9.89D-01  1.39D+00  8.60D-01
 E= -1028.78868452725     Delta-E=       -0.011044620074 Rises=F Damp=F
 DIIS: error= 2.00D-03 at cycle   4 NSaved=   4.
 NSaved= 4 IEnMin= 4 EnMin= -1028.78868452725     IErMin= 4 ErrMin= 2.00D-03
 ErrMax= 2.00D-03  0.00D+00 EMaxC= 1.00D-01 BMatC= 1.28D-03 BMatP= 1.10D-02
 IDIUse=3 WtCom= 9.80D-01 WtEn= 2.00D-02
 Coeff-Com: -0.765D-01 0.152D+00 0.354D+00 0.571D+00
 Coeff-En:   0.000D+00 0.000D+00 0.000D+00 0.100D+01
 Coeff:     -0.750D-01 0.149D+00 0.347D+00 0.580D+00
 Gap=     0.263 Goal=   None    Shift=    0.000
 RMSDP=1.43D-04 MaxDP=6.71D-03 DE=-1.10D-02 OVMax= 1.06D-02

 Cycle   5  Pass 1  IDiag  1:
 RMSU=  9.51D-05    CP:  9.89D-01  1.40D+00  9.22D-01  7.55D-01
 E= -1028.79007068473     Delta-E=       -0.001386157485 Rises=F Damp=F
 DIIS: error= 4.07D-04 at cycle   5 NSaved=   5.
 NSaved= 5 IEnMin= 5 EnMin= -1028.79007068473     IErMin= 5 ErrMin= 4.07D-04
 ErrMax= 4.07D-04  0.00D+00 EMaxC= 1.00D-01 BMatC= 5.63D-05 BMatP= 1.28D-03
 IDIUse=3 WtCom= 9.96D-01 WtEn= 4.07D-03
 Coeff-Com: -0.296D-02 0.253D-03 0.460D-01 0.190D+00 0.767D+00
 Coeff-En:   0.000D+00 0.000D+00 0.000D+00 0.000D+00 0.100D+01
 Coeff:     -0.295D-02 0.252D-03 0.458D-01 0.189D+00 0.768D+00
 Gap=     0.263 Goal=   None    Shift=    0.000
 RMSDP=4.93D-05 MaxDP=1.56D-03 DE=-1.39D-03 OVMax= 4.60D-03

 Cycle   6  Pass 1  IDiag  1:
 RMSU=  3.24D-05    CP:  9.89D-01  1.40D+00  9.40D-01  8.43D-01  1.03D+00
 E= -1028.79017137310     Delta-E=       -0.000100688366 Rises=F Damp=F
 DIIS: error= 1.44D-04 at cycle   6 NSaved=   6.
 NSaved= 6 IEnMin= 6 EnMin= -1028.79017137310     IErMin= 6 ErrMin= 1.44D-04
 ErrMax= 1.44D-04  0.00D+00 EMaxC= 1.00D-01 BMatC= 8.02D-06 BMatP= 5.63D-05
 IDIUse=3 WtCom= 9.99D-01 WtEn= 1.44D-03
 Coeff-Com:  0.153D-01-0.316D-01-0.546D-01-0.470D-01 0.218D+00 0.900D+00
 Coeff-En:   0.000D+00 0.000D+00 0.000D+00 0.000D+00 0.000D+00 0.100D+01
 Coeff:      0.153D-01-0.316D-01-0.546D-01-0.470D-01 0.217D+00 0.901D+00
 Gap=     0.264 Goal=   None    Shift=    0.000
 RMSDP=2.80D-05 MaxDP=1.55D-03 DE=-1.01D-04 OVMax= 2.43D-03

 Cycle   7  Pass 1  IDiag  1:
 RMSU=  1.50D-05    CP:  9.89D-01  1.40D+00  9.52D-01  8.78D-01  1.19D+00
                    CP:  1.17D+00
 E= -1028.79019507296     Delta-E=       -0.000023699866 Rises=F Damp=F
 DIIS: error= 7.70D-05 at cycle   7 NSaved=   7.
 NSaved= 7 IEnMin= 7 EnMin= -1028.79019507296     IErMin= 7 ErrMin= 7.70D-05
 ErrMax= 7.70D-05  0.00D+00 EMaxC= 1.00D-01 BMatC= 1.74D-06 BMatP= 8.02D-06
 IDIUse=1 WtCom= 1.00D+00 WtEn= 0.00D+00
 Coeff-Com:  0.669D-02-0.129D-01-0.284D-01-0.443D-01-0.212D-01 0.371D+00
 Coeff-Com:  0.729D+00
 Coeff:      0.669D-02-0.129D-01-0.284D-01-0.443D-01-0.212D-01 0.371D+00
 Coeff:      0.729D+00
 Gap=     0.264 Goal=   None    Shift=    0.000
 RMSDP=9.50D-06 MaxDP=4.84D-04 DE=-2.37D-05 OVMax= 1.03D-03

 Cycle   8  Pass 1  IDiag  1:
 RMSU=  5.78D-06    CP:  9.89D-01  1.40D+00  9.54D-01  8.84D-01  1.23D+00
                    CP:  1.35D+00  1.11D+00
 E= -1028.79019860052     Delta-E=       -0.000003527559 Rises=F Damp=F
 DIIS: error= 2.85D-05 at cycle   8 NSaved=   8.
 NSaved= 8 IEnMin= 8 EnMin= -1028.79019860052     IErMin= 8 ErrMin= 2.85D-05
 ErrMax= 2.85D-05  0.00D+00 EMaxC= 1.00D-01 BMatC= 1.92D-07 BMatP= 1.74D-06
 IDIUse=1 WtCom= 1.00D+00 WtEn= 0.00D+00
 Coeff-Com: -0.124D-02 0.274D-02 0.335D-02-0.505D-03-0.407D-01-0.610D-01
 Coeff-Com:  0.201D+00 0.897D+00
 Coeff:     -0.124D-02 0.274D-02 0.335D-02-0.505D-03-0.407D-01-0.610D-01
 Coeff:      0.201D+00 0.897D+00
 Gap=     0.264 Goal=   None    Shift=    0.000
 RMSDP=4.23D-06 MaxDP=1.44D-04 DE=-3.53D-06 OVMax= 5.87D-04

 Cycle   9  Pass 1  IDiag  1:
 RMSU=  1.94D-06    CP:  9.89D-01  1.40D+00  9.54D-01  8.85D-01  1.24D+00
                    CP:  1.41D+00  1.31D+00  1.12D+00
 E= -1028.79019917182     Delta-E=       -0.000000571295 Rises=F Damp=F
 DIIS: error= 1.41D-05 at cycle   9 NSaved=   9.
 NSaved= 9 IEnMin= 9 EnMin= -1028.79019917182     IErMin= 9 ErrMin= 1.41D-05
 ErrMax= 1.41D-05  0.00D+00 EMaxC= 1.00D-01 BMatC= 3.70D-08 BMatP= 1.92D-07
 IDIUse=1 WtCom= 1.00D+00 WtEn= 0.00D+00
 Coeff-Com: -0.121D-02 0.244D-02 0.449D-02 0.536D-02-0.130D-01-0.698D-01
 Coeff-Com: -0.776D-02 0.330D+00 0.750D+00
 Coeff:     -0.121D-02 0.244D-02 0.449D-02 0.536D-02-0.130D-01-0.698D-01
 Coeff:     -0.776D-02 0.330D+00 0.750D+00
 Gap=     0.264 Goal=   None    Shift=    0.000
 RMSDP=1.63D-06 MaxDP=5.88D-05 DE=-5.71D-07 OVMax= 1.64D-04

 Cycle  10  Pass 1  IDiag  1:
 RMSU=  8.89D-07    CP:  9.89D-01  1.40D+00  9.54D-01  8.84D-01  1.25D+00
                    CP:  1.43D+00  1.36D+00  1.28D+00  1.10D+00
 E= -1028.79019926404     Delta-E=       -0.000000092220 Rises=F Damp=F
 DIIS: error= 6.98D-06 at cycle  10 NSaved=  10.
 NSaved=10 IEnMin=10 EnMin= -1028.79019926404     IErMin=10 ErrMin= 6.98D-06
 ErrMax= 6.98D-06  0.00D+00 EMaxC= 1.00D-01 BMatC= 7.65D-09 BMatP= 3.70D-08
 IDIUse=1 WtCom= 1.00D+00 WtEn= 0.00D+00
 Coeff-Com: -0.216D-03 0.394D-03 0.105D-02 0.236D-02 0.275D-02-0.197D-01
 Coeff-Com: -0.413D-01-0.444D-01 0.301D+00 0.798D+00
 Coeff:     -0.216D-03 0.394D-03 0.105D-02 0.236D-02 0.275D-02-0.197D-01
 Coeff:     -0.413D-01-0.444D-01 0.301D+00 0.798D+00
 Gap=     0.264 Goal=   None    Shift=    0.000
 RMSDP=8.63D-07 MaxDP=2.85D-05 DE=-9.22D-08 OVMax= 1.37D-04

 Cycle  11  Pass 1  IDiag  1:
 RMSU=  4.05D-07    CP:  9.89D-01  1.40D+00  9.54D-01  8.84D-01  1.25D+00
                    CP:  1.44D+00  1.39D+00  1.33D+00  1.34D+00  1.10D+00
 E= -1028.79019928908     Delta-E=       -0.000000025040 Rises=F Damp=F
 DIIS: error= 3.43D-06 at cycle  11 NSaved=  11.
 NSaved=11 IEnMin=11 EnMin= -1028.79019928908     IErMin=11 ErrMin= 3.43D-06
 ErrMax= 3.43D-06  0.00D+00 EMaxC= 1.00D-01 BMatC= 1.53D-09 BMatP= 7.65D-09
 IDIUse=1 WtCom= 1.00D+00 WtEn= 0.00D+00
 Coeff-Com:  0.155D-03-0.323D-03-0.499D-03-0.118D-03 0.332D-02 0.450D-02
 Coeff-Com: -0.780D-02-0.638D-01-0.547D-01 0.277D+00 0.842D+00
 Coeff:      0.155D-03-0.323D-03-0.499D-03-0.118D-03 0.332D-02 0.450D-02
 Coeff:     -0.780D-02-0.638D-01-0.547D-01 0.277D+00 0.842D+00
 Gap=     0.264 Goal=   None    Shift=    0.000
 RMSDP=3.76D-07 MaxDP=8.77D-06 DE=-2.50D-08 OVMax= 6.02D-05

 Cycle  12  Pass 1  IDiag  1:
 RMSU=  1.56D-07    CP:  9.89D-01  1.40D+00  9.54D-01  8.84D-01  1.25D+00
                    CP:  1.44D+00  1.40D+00  1.35D+00  1.44D+00  1.34D+00
                    CP:  1.15D+00
 E= -1028.79019929429     Delta-E=       -0.000000005218 Rises=F Damp=F
 DIIS: error= 8.64D-07 at cycle  12 NSaved=  12.
 NSaved=12 IEnMin=12 EnMin= -1028.79019929429     IErMin=12 ErrMin= 8.64D-07
 ErrMax= 8.64D-07  0.00D+00 EMaxC= 1.00D-01 BMatC= 2.64D-10 BMatP= 1.53D-09
 IDIUse=1 WtCom= 1.00D+00 WtEn= 0.00D+00
 Coeff-Com:  0.102D-03-0.199D-03-0.426D-03-0.600D-03 0.698D-03 0.584D-02
 Coeff-Com:  0.783D-02-0.108D-01-0.106D+00-0.914D-01 0.226D+00 0.969D+00
 Coeff:      0.102D-03-0.199D-03-0.426D-03-0.600D-03 0.698D-03 0.584D-02
 Coeff:      0.783D-02-0.108D-01-0.106D+00-0.914D-01 0.226D+00 0.969D+00
 Gap=     0.264 Goal=   None    Shift=    0.000
 RMSDP=2.28D-07 MaxDP=5.10D-06 DE=-5.22D-09 OVMax= 3.62D-05

 Cycle  13  Pass 1  IDiag  1:
 RMSU=  6.65D-08    CP:  9.89D-01  1.40D+00  9.54D-01  8.84D-01  1.25D+00
                    CP:  1.44D+00  1.40D+00  1.36D+00  1.49D+00  1.47D+00
                    CP:  1.44D+00  1.28D+00
 E= -1028.79019929559     Delta-E=       -0.000000001295 Rises=F Damp=F
 DIIS: error= 3.95D-07 at cycle  13 NSaved=  13.
 NSaved=13 IEnMin=13 EnMin= -1028.79019929559     IErMin=13 ErrMin= 3.95D-07
 ErrMax= 3.95D-07  0.00D+00 EMaxC= 1.00D-01 BMatC= 3.55D-11 BMatP= 2.64D-10
 IDIUse=1 WtCom= 1.00D+00 WtEn= 0.00D+00
 Coeff-Com:  0.888D-06 0.986D-06-0.311D-04-0.135D-03-0.225D-03 0.751D-03
 Coeff-Com:  0.370D-02 0.807D-02-0.197D-01-0.615D-01-0.891D-01 0.261D+00
 Coeff-Com:  0.897D+00
 Coeff:      0.888D-06 0.986D-06-0.311D-04-0.135D-03-0.225D-03 0.751D-03
 Coeff:      0.370D-02 0.807D-02-0.197D-01-0.615D-01-0.891D-01 0.261D+00
 Coeff:      0.897D+00
 Gap=     0.264 Goal=   None    Shift=    0.000
 RMSDP=6.75D-08 MaxDP=1.51D-06 DE=-1.30D-09 OVMax= 9.34D-06

 Cycle  14  Pass 1  IDiag  1:
 RMSU=  2.68D-08    CP:  9.89D-01  1.40D+00  9.54D-01  8.84D-01  1.25D+00
                    CP:  1.44D+00  1.40D+00  1.36D+00  1.51D+00  1.51D+00
                    CP:  1.51D+00  1.50D+00  1.18D+00
 E= -1028.79019929570     Delta-E=       -0.000000000113 Rises=F Damp=F
 DIIS: error= 1.26D-07 at cycle  14 NSaved=  14.
 NSaved=14 IEnMin=14 EnMin= -1028.79019929570     IErMin=14 ErrMin= 1.26D-07
 ErrMax= 1.26D-07  0.00D+00 EMaxC= 1.00D-01 BMatC= 5.15D-12 BMatP= 3.55D-11
 IDIUse=1 WtCom= 1.00D+00 WtEn= 0.00D+00
 Coeff-Com: -0.113D-04 0.231D-04 0.382D-04 0.192D-04-0.141D-03-0.406D-03
 Coeff-Com:  0.428D-03 0.379D-02 0.395D-02-0.956D-02-0.547D-01-0.820D-02
 Coeff-Com:  0.326D+00 0.739D+00
 Coeff:     -0.113D-04 0.231D-04 0.382D-04 0.192D-04-0.141D-03-0.406D-03
 Coeff:      0.428D-03 0.379D-02 0.395D-02-0.956D-02-0.547D-01-0.820D-02
 Coeff:      0.326D+00 0.739D+00
 Gap=     0.264 Goal=   None    Shift=    0.000
 RMSDP=1.62D-08 MaxDP=3.76D-07 DE=-1.13D-10 OVMax= 2.23D-06

 Cycle  15  Pass 1  IDiag  1:
 RMSU=  9.58D-09    CP:  9.89D-01  1.40D+00  9.54D-01  8.84D-01  1.25D+00
                    CP:  1.44D+00  1.40D+00  1.36D+00  1.51D+00  1.51D+00
                    CP:  1.52D+00  1.54D+00  1.31D+00  1.03D+00
 E= -1028.79019929572     Delta-E=       -0.000000000014 Rises=F Damp=F
 DIIS: error= 4.47D-08 at cycle  15 NSaved=  15.
 NSaved=15 IEnMin=15 EnMin= -1028.79019929572     IErMin=15 ErrMin= 4.47D-08
 ErrMax= 4.47D-08  0.00D+00 EMaxC= 1.00D-01 BMatC= 7.18D-13 BMatP= 5.15D-12
 IDIUse=1 WtCom= 1.00D+00 WtEn= 0.00D+00
 Coeff-Com: -0.314D-05 0.585D-05 0.169D-04 0.297D-04-0.517D-05-0.285D-03
 Coeff-Com: -0.626D-03-0.321D-03 0.507D-02 0.910D-02-0.889D-03-0.551D-01
 Coeff-Com: -0.778D-01 0.202D+00 0.919D+00
 Coeff:     -0.314D-05 0.585D-05 0.169D-04 0.297D-04-0.517D-05-0.285D-03
 Coeff:     -0.626D-03-0.321D-03 0.507D-02 0.910D-02-0.889D-03-0.551D-01
 Coeff:     -0.778D-01 0.202D+00 0.919D+00
 Gap=     0.264 Goal=   None    Shift=    0.000
 RMSDP=8.81D-09 MaxDP=2.00D-07 DE=-1.43D-11 OVMax= 9.80D-07

 Error on total polarization charges =  0.00799
 SCF Done:  E(RwB97XD) =  -1028.79019930     A.U. after   15 cycles
            NFock= 15  Conv=0.88D-08     -V/T= 2.0049
 KE= 1.023742742262D+03 PE=-4.611993679902D+03 EE= 1.459510975174D+03
 Leave Link  502 at Tue Jul 14 16:12:03 2020, MaxMem=  7784628224 cpu:             829.7 elap:              83.9
 (Enter /gpfs/loomis/apps/avx/software/Gaussian/16-C.01_AVX/g16/l801.exe)
 DoSCS=F DFT=T ScalE2(SS,OS)=  1.000000  1.000000
 ExpMin= 1.22D-01 ExpMax= 1.11D+05 ExpMxC= 1.07D+03 IAcc=3 IRadAn=         5 AccDes= 0.00D+00
 HarFok:  IExCor=  205 AccDes= 0.00D+00 IRadAn=         5 IDoV=-2 UseB2=F ITyADJ=14
 ICtDFT= 12500011 ScaDFX=  1.000000  1.000000  1.000000  1.000000
 Largest valence mixing into a core orbital is  9.38D-05
 Largest core mixing into a valence orbital is  3.46D-05
 Range of M.O.s used for correlation:    21   273
 NBasis=   273 NAE=    59 NBE=    59 NFC=    20 NFV=     0
 NROrb=    253 NOA=    39 NOB=    39 NVA=   214 NVB=   214

 **** Warning!!: The largest alpha MO coefficient is  0.10793624D+02

 Leave Link  801 at Tue Jul 14 16:12:04 2020, MaxMem=  7784628224 cpu:               3.8 elap:               0.5
 (Enter /gpfs/loomis/apps/avx/software/Gaussian/16-C.01_AVX/g16/l914.exe)
 RHF ground state
 Keep R1, R2, and R3 ints in memory in canonical form, NReq=4262515490.
 FoFCou: FMM=F IPFlag=           0 FMFlag=           0 FMFlg1=           0
         NFxFlg=           0 DoJE=F BraDBF=F KetDBF=F FulRan=T
         wScrn=  0.000000 ICntrl=       600 IOpCl=  0 I1Cent=           0 NGrid=           0
         NMat0=    1 NMatS0=  37401 NMatT0=    0 NMatD0=    1 NMtDS0=    0 NMtDT0=    0
 Symmetry not used in FoFCou.
 Two-electron integral symmetry not used.
 MDV=  7784628224 DFT=T DoStab=F Mixed=T DoRPA=T DoScal=F NonHer=T
 NEqPCM:  Using equilibrium solvation (IEInf=0, Eps=   2.2280, EpsInf=   2.1319)
 Making orbital integer symmetry assigments:
    12 initial guesses have been made.
 Convergence on wavefunction:    0.000001000000000
 Davidson Disk Diagonalization:  ConvIn= 1.00D-06 SkipCon=T Conv= 1.00D-06.
 Max sub-space:  2000 roots to seek:    12 dimension of matrix:        16692
 Iteration     1 Dimension    12 NMult     0 NNew     12
 CISAX will form    12 AO SS matrices at one time.
 NMat=    12 NSing=    12 JSym2X= 0.
 New state      2 was old state      3
 New state      3 was old state      2
 Excitation Energies [eV] at current iteration:
 Root      1 :     4.063151795201156
 Root      2 :     4.901295933409142
 Root      3 :     5.029744081493933
 Root      4 :     5.369832704671725
 Root      5 :     6.085179556873080
 Root      6 :     6.148870017532705
 Root      7 :     6.270691830143820
 Root      8 :     6.463479279275902
 Root      9 :     6.867144270665579
 Root     10 :     7.118914779224122
 Root     11 :     7.462392935021839
 Root     12 :     7.663562819763687
 Iteration     2 Dimension    18 NMult    12 NNew      6
 CISAX will form     6 AO SS matrices at one time.
 NMat=     6 NSing=     6 JSym2X= 0.
 Root      1 not converged, maximum delta is    0.057581157253075
 Root      2 not converged, maximum delta is    0.292265055003132
 Root      3 not converged, maximum delta is    0.277733429241944
 Excitation Energies [eV] at current iteration:
 Root      1 :     3.581825006756875   Change is   -0.481326788444281
 Root      2 :     4.447697975164779   Change is   -0.453597958244364
 Root      3 :     4.569774586071914   Change is   -0.459969495422019
 Iteration     3 Dimension    24 NMult    18 NNew      6
 CISAX will form     6 AO SS matrices at one time.
 NMat=     6 NSing=     6 JSym2X= 0.
 Root      1 not converged, maximum delta is    0.021953650470414
 Root      2 not converged, maximum delta is    0.036200802984604
 Root      3 not converged, maximum delta is    0.029952402946163
 Excitation Energies [eV] at current iteration:
 Root      1 :     3.547497551021390   Change is   -0.034327455735484
 Root      2 :     4.403153857765665   Change is   -0.044544117399113
 Root      3 :     4.524573189755618   Change is   -0.045201396316296
 Iteration     4 Dimension    30 NMult    24 NNew      6
 CISAX will form     6 AO SS matrices at one time.
 NMat=     6 NSing=     6 JSym2X= 0.
 Root      1 not converged, maximum delta is    0.006891917073393
 Root      2 not converged, maximum delta is    0.012595846002613
 Root      3 not converged, maximum delta is    0.007837270671247
 Excitation Energies [eV] at current iteration:
 Root      1 :     3.544012277957056   Change is   -0.003485273064334
 Root      2 :     4.396937678013373   Change is   -0.006216179752293
 Root      3 :     4.519553379655794   Change is   -0.005019810099824
 Iteration     5 Dimension    36 NMult    30 NNew      6
 CISAX will form     6 AO SS matrices at one time.
 NMat=     6 NSing=     6 JSym2X= 0.
 Root      1 not converged, maximum delta is    0.002203880849501
 Root      2 not converged, maximum delta is    0.003081757934245
 Root      3 not converged, maximum delta is    0.003808968091443
 Excitation Energies [eV] at current iteration:
 Root      1 :     3.543709780344952   Change is   -0.000302497612105
 Root      2 :     4.396397913439992   Change is   -0.000539764573380
 Root      3 :     4.518746474714426   Change is   -0.000806904941368
 Iteration     6 Dimension    42 NMult    36 NNew      6
 CISAX will form     6 AO SS matrices at one time.
 NMat=     6 NSing=     6 JSym2X= 0.
 Root      1 not converged, maximum delta is    0.000517516367943
 Root      2 not converged, maximum delta is    0.000603926698866
 Root      3 not converged, maximum delta is    0.001098636340462
 Excitation Energies [eV] at current iteration:
 Root      1 :     3.543679220185956   Change is   -0.000030560158996
 Root      2 :     4.396355254944217   Change is   -0.000042658495776
 Root      3 :     4.518677349456320   Change is   -0.000069125258107
 Iteration     7 Dimension    48 NMult    42 NNew      6
 CISAX will form     6 AO SS matrices at one time.
 NMat=     6 NSing=     6 JSym2X= 0.
 Root      1 not converged, maximum delta is    0.000110679887900
 Root      2 not converged, maximum delta is    0.000176979566767
 Root      3 not converged, maximum delta is    0.000198299146005
 Excitation Energies [eV] at current iteration:
 Root      1 :     3.543677326864365   Change is   -0.000001893321591
 Root      2 :     4.396350765602284   Change is   -0.000004489341933
 Root      3 :     4.518672535748880   Change is   -0.000004813707440
 Iteration     8 Dimension    54 NMult    48 NNew      6
 CISAX will form     6 AO SS matrices at one time.
 NMat=     6 NSing=     6 JSym2X= 0.
 Root      1 not converged, maximum delta is    0.000021161245851
 Root      2 not converged, maximum delta is    0.000066947138707
 Root      3 not converged, maximum delta is    0.000059679954596
 Excitation Energies [eV] at current iteration:
 Root      1 :     3.543677213581231   Change is   -0.000000113283133
 Root      2 :     4.396350385149853   Change is   -0.000000380452430
 Root      3 :     4.518672103486900   Change is   -0.000000432261980
 Iteration     9 Dimension    60 NMult    54 NNew      6
 CISAX will form     6 AO SS matrices at one time.
 NMat=     6 NSing=     6 JSym2X= 0.
 Root      1 not converged, maximum delta is    0.000006063312024
 Root      2 not converged, maximum delta is    0.000017820353558
 Root      3 not converged, maximum delta is    0.000013264543844
 Excitation Energies [eV] at current iteration:
 Root      1 :     3.543677205560443   Change is   -0.000000008020788
 Root      2 :     4.396350351112914   Change is   -0.000000034036940
 Root      3 :     4.518672072726722   Change is   -0.000000030760177
 Iteration    10 Dimension    66 NMult    60 NNew      6
 CISAX will form     6 AO SS matrices at one time.
 NMat=     6 NSing=     6 JSym2X= 0.
 Root      1 not converged, maximum delta is    0.000001001470207
 Root      2 not converged, maximum delta is    0.000002558567216
 Root      3 not converged, maximum delta is    0.000003467446259
 Excitation Energies [eV] at current iteration:
 Root      1 :     3.543677205241396   Change is   -0.000000000319047
 Root      2 :     4.396350349765835   Change is   -0.000000001347079
 Root      3 :     4.518672071271185   Change is   -0.000000001455537
 Iteration    11 Dimension    72 NMult    66 NNew      6
 CISAX will form     6 AO SS matrices at one time.
 NMat=     6 NSing=     6 JSym2X= 0.
 Root      1 has converged.
 Root      2 has converged.
 Root      3 has converged.
 Excitation Energies [eV] at current iteration:
 Root      1 :     3.543677205228915   Change is   -0.000000000012481
 Root      2 :     4.396350349686346   Change is   -0.000000000079490
 Root      3 :     4.518672071208838   Change is   -0.000000000062347
 Convergence achieved on expansion vectors.
 ***********************************************************************
 Excited states from <AA,BB:AA,BB> singles matrix:
 ***********************************************************************
 
 1PDM for each excited state written to RWF  633
 Ground to excited state transition densities written to RWF  633
 Ground to excited state transition electric dipole moments (Au):
       state          X           Y           Z        Dip. S.      Osc.
         1        -1.8927      2.2510      0.0000      8.6494      0.7509
         2         0.8052     -0.1798     -0.0000      0.6807      0.0733
         3        -1.0999      0.0263      0.0000      1.2106      0.1340
 Ground to excited state transition velocity dipole moments (Au):
       state          X           Y           Z        Dip. S.      Osc.
         1         0.2409     -0.2915     -0.0000      0.1430      0.7321
         2        -0.1272      0.0217      0.0000      0.0166      0.0687
         3         0.1806     -0.0027     -0.0000      0.0326      0.1310
 Ground to excited state transition magnetic dipole moments (Au):
       state          X           Y           Z
         1         0.0000     -0.0000      0.1473
         2         0.0000     -0.0000      1.3263
         3         0.0000     -0.0000     -0.1012
 Ground to excited state transition velocity quadrupole moments (Au):
       state          XX          YY          ZZ          XY          XZ          YZ
         1        -0.1332     -0.3287      0.0117      0.2463      0.0000     -0.0000
         2         0.3845     -0.8196     -0.0002      0.1444     -0.0000     -0.0000
         3         0.4569      0.1690     -0.0287     -0.3350     -0.0000      0.0000
 <0|del|b> * <b|rxdel|0> + <0|del|b> * <b|delr+rdel|0>
 Rotatory Strengths (R) in cgs (10**-40 erg-esu-cm/Gauss)
       state          XX          YY          ZZ    R(velocity)    E-M Angle
         1         0.0121     -0.0042      0.0154      0.0077       90.00
         2         0.0028      0.0026     -0.0048      0.0002       90.00
         3         0.0002      0.0039      0.0034      0.0025       90.00
 1/2[<0|r|b>*<b|rxdel|0> + (<0|rxdel|b>*<b|r|0>)*]
 Rotatory Strengths (R) in cgs (10**-40 erg-esu-cm/Gauss)
       state          XX          YY          ZZ     R(length)
         1         0.0002      0.0262     -0.0032      0.0077
         2        -0.0039     -0.0002      0.0035     -0.0002
         3         0.0074      0.0002      0.0002      0.0026
  1/2[<0|del|b>*<b|r|0> + (<0|r|b>*<b|del|0>)*] (Au)
       state          X           Y           Z        Dip. S.   Osc.(frdel)
         1        -0.4559     -0.6562     -0.0000      1.1121      0.7414
         2        -0.1024     -0.0039     -0.0000      0.1063      0.0709
         3        -0.1987     -0.0001     -0.0000      0.1988      0.1325

 Excitation energies and oscillator strengths:
 
 Excited state symmetry could not be determined.
 Excited State   1:      Singlet-?Sym    3.5437 eV  349.87 nm  f=0.7509  <S**2>=0.000
      59 -> 60         0.68623
 This state for optimization and/or second-order correction.
 Total Energy, E(TD-HF/TD-DFT) =  -1028.65997155    
 Copying the excited state density for this state as the 1-particle RhoCI density.
 
 Excited state symmetry could not be determined.
 Excited State   2:      Singlet-?Sym    4.3964 eV  282.02 nm  f=0.0733  <S**2>=0.000
      57 -> 60         0.65114
      59 -> 61         0.12935
      59 -> 62        -0.14734
 
 Excited state symmetry could not be determined.
 Excited State   3:      Singlet-?Sym    4.5187 eV  274.38 nm  f=0.1340  <S**2>=0.000
      58 -> 60         0.63466
      58 -> 63        -0.12342
      59 -> 61         0.16794
      59 -> 62         0.12373
 SavETr:  write IOETrn=   770 NScale= 10 NData=  16 NLR=1 NState=    3 LETran=      64.
 The selected state is a singlet.
 CISGrd: IGrad=2 NXY=2 DFT=T
 CISAX will form     1 AO SS matrices at one time.
 NMat=     1 NSing=     1 JSym2X= 0.
 GePol: Maximum number of non-zero 1st derivatives   =     242
 Leave Link  914 at Tue Jul 14 16:14:44 2020, MaxMem=  7784628224 cpu:            1568.7 elap:             159.7
 (Enter /gpfs/loomis/apps/avx/software/Gaussian/16-C.01_AVX/g16/l1002.exe)
 Minotr:  Closed shell wavefunction.
          Computing CIS/TDA/TD derivatives.
          Using Z-Vector for PSCF gradient.
          Skipping F1 and S1 gradient terms here.
          IDoAtm=1111111111111111111111111
 NEqPCM:  Using equilibrium solvation (IEInf=0, Eps=   2.2280, EpsInf=   2.1319)
          Frozen-core window.
          Direct CPHF calculation.
          Differentiating once with respect to electric field.
                with respect to dipole field.
          Differentiating once with respect to nuclear coordinates.
          Requested convergence is 1.0D-10 RMS, and 1.0D-09 maximum.
          NewPWx=F KeepS1=T KeepF1=T KeepIn=T MapXYZ=F SortEE=F KeepMc=T.
 Keep R1 ints in memory in canonical form, NReq=1421356584.
 FoFCou: FMM=F IPFlag=           0 FMFlag=           0 FMFlg1=           0
         NFxFlg=           0 DoJE=F BraDBF=F KetDBF=F FulRan=T
         wScrn=  0.000000 ICntrl=       600 IOpCl=  0 I1Cent=           0 NGrid=           0
         NMat0=    1 NMatS0=  37401 NMatT0=    0 NMatD0=    1 NMtDS0=    0 NMtDT0=    0
 Symmetry not used in FoFCou.
 Two-electron integral symmetry not used.
          MDV=    7784628224 using IRadAn=       5.
          Solving linear equations separately, MaxMat=       0.
          There are     1 degrees of freedom in the 1st order CPHF.  IDoFFX=0 NUNeed=     1.
 LinEq1:  Iter=  0 NonCon=     1 RMS=3.48D-03 Max=1.80D-01 NDo=     1
 AX will form     1 AO Fock derivatives at one time.
 LinEq1:  Iter=  1 NonCon=     1 RMS=1.32D-03 Max=6.07D-02 NDo=     1
 LinEq1:  Iter=  2 NonCon=     1 RMS=7.22D-04 Max=3.24D-02 NDo=     1
 LinEq1:  Iter=  3 NonCon=     1 RMS=2.86D-04 Max=9.75D-03 NDo=     1
 LinEq1:  Iter=  4 NonCon=     1 RMS=1.51D-04 Max=6.70D-03 NDo=     1
 LinEq1:  Iter=  5 NonCon=     1 RMS=8.47D-05 Max=2.91D-03 NDo=     1
 LinEq1:  Iter=  6 NonCon=     1 RMS=3.62D-05 Max=1.33D-03 NDo=     1
 LinEq1:  Iter=  7 NonCon=     1 RMS=2.47D-05 Max=8.56D-04 NDo=     1
 LinEq1:  Iter=  8 NonCon=     1 RMS=8.62D-06 Max=3.10D-04 NDo=     1
 LinEq1:  Iter=  9 NonCon=     1 RMS=4.76D-06 Max=1.40D-04 NDo=     1
 LinEq1:  Iter= 10 NonCon=     1 RMS=1.63D-06 Max=6.16D-05 NDo=     1
 LinEq1:  Iter= 11 NonCon=     1 RMS=7.46D-07 Max=3.06D-05 NDo=     1
 LinEq1:  Iter= 12 NonCon=     1 RMS=3.36D-07 Max=8.84D-06 NDo=     1
 LinEq1:  Iter= 13 NonCon=     1 RMS=1.24D-07 Max=2.32D-06 NDo=     1
 LinEq1:  Iter= 14 NonCon=     1 RMS=6.53D-08 Max=1.85D-06 NDo=     1
 LinEq1:  Iter= 15 NonCon=     1 RMS=2.20D-08 Max=5.92D-07 NDo=     1
 LinEq1:  Iter= 16 NonCon=     1 RMS=9.93D-09 Max=3.19D-07 NDo=     1
 LinEq1:  Iter= 17 NonCon=     1 RMS=4.41D-09 Max=1.12D-07 NDo=     1
 LinEq1:  Iter= 18 NonCon=     1 RMS=1.85D-09 Max=5.51D-08 NDo=     1
 LinEq1:  Iter= 19 NonCon=     1 RMS=7.87D-10 Max=2.79D-08 NDo=     1
 LinEq1:  Iter= 20 NonCon=     1 RMS=4.41D-10 Max=1.43D-08 NDo=     1
 LinEq1:  Iter= 21 NonCon=     1 RMS=1.69D-10 Max=4.19D-09 NDo=     1
 LinEq1:  Iter= 22 NonCon=     1 RMS=7.81D-11 Max=2.02D-09 NDo=     1
 LinEq1:  Iter= 23 NonCon=     0 RMS=3.17D-11 Max=6.14D-10 NDo=     1
 Linear equations converged to 1.000D-10 1.000D-09 after    23 iterations.
 End of Minotr F.D. properties file   721 does not exist.
 End of Minotr F.D. properties file   722 does not exist.
 End of Minotr F.D. properties file   788 does not exist.
 Leave Link 1002 at Tue Jul 14 16:16:19 2020, MaxMem=  7784628224 cpu:             716.8 elap:              95.5
 (Enter /gpfs/loomis/apps/avx/software/Gaussian/16-C.01_AVX/g16/l601.exe)
 Copying SCF densities to generalized density rwf, IOpCl= 0 IROHF=0.

 **********************************************************************

            Population analysis using the SCF Density.

 **********************************************************************

 Alpha  occ. eigenvalues --  -89.08316 -19.28264 -14.46796 -10.39037 -10.38766
 Alpha  occ. eigenvalues --  -10.35251 -10.34299 -10.32753 -10.32719 -10.32455
 Alpha  occ. eigenvalues --  -10.32090 -10.31941 -10.31544 -10.31543 -10.31498
 Alpha  occ. eigenvalues --  -10.31201  -8.10465  -6.05286  -6.04950  -6.04537
 Alpha  occ. eigenvalues --   -1.20272  -1.07710  -0.96823  -0.95415  -0.92058
 Alpha  occ. eigenvalues --   -0.88546  -0.85649  -0.84383  -0.82209  -0.76361
 Alpha  occ. eigenvalues --   -0.72253  -0.70111  -0.70008  -0.67904  -0.64540
 Alpha  occ. eigenvalues --   -0.60213  -0.59374  -0.58427  -0.56064  -0.54628
 Alpha  occ. eigenvalues --   -0.53882  -0.53581  -0.52556  -0.50661  -0.50229
 Alpha  occ. eigenvalues --   -0.49100  -0.47486  -0.46102  -0.45645  -0.44809
 Alpha  occ. eigenvalues --   -0.43857  -0.43067  -0.41915  -0.39673  -0.37345
 Alpha  occ. eigenvalues --   -0.36318  -0.32027  -0.31515  -0.28296
 Alpha virt. eigenvalues --   -0.01886   0.05109   0.06562   0.06792   0.08277
 Alpha virt. eigenvalues --    0.11093   0.14354   0.15283   0.17334   0.17851
 Alpha virt. eigenvalues --    0.18625   0.21201   0.21419   0.22126   0.22433
 Alpha virt. eigenvalues --    0.23716   0.23794   0.23968   0.27965   0.30193
 Alpha virt. eigenvalues --    0.32158   0.33294   0.34547   0.35549   0.36967
 Alpha virt. eigenvalues --    0.37806   0.39026   0.40592   0.43224   0.44625
 Alpha virt. eigenvalues --    0.46324   0.49030   0.50131   0.51269   0.51384
 Alpha virt. eigenvalues --    0.52382   0.53525   0.54377   0.54817   0.55705
 Alpha virt. eigenvalues --    0.56045   0.56238   0.56929   0.57748   0.57895
 Alpha virt. eigenvalues --    0.58386   0.58879   0.58963   0.59412   0.60158
 Alpha virt. eigenvalues --    0.60848   0.61014   0.61423   0.62846   0.63322
 Alpha virt. eigenvalues --    0.65431   0.66095   0.66639   0.67615   0.69241
 Alpha virt. eigenvalues --    0.71089   0.71469   0.72366   0.72456   0.73119
 Alpha virt. eigenvalues --    0.73364   0.74135   0.75529   0.75864   0.78532
 Alpha virt. eigenvalues --    0.78670   0.79137   0.80199   0.81222   0.82186
 Alpha virt. eigenvalues --    0.86083   0.89675   0.91608   0.92870   0.94189
 Alpha virt. eigenvalues --    0.94923   0.95070   0.95410   0.96945   0.97301
 Alpha virt. eigenvalues --    0.97941   0.98514   1.00542   1.00909   1.02114
 Alpha virt. eigenvalues --    1.02518   1.05915   1.06509   1.07069   1.07779
 Alpha virt. eigenvalues --    1.07897   1.08399   1.10045   1.10063   1.10912
 Alpha virt. eigenvalues --    1.11788   1.12396   1.14217   1.14804   1.15813
 Alpha virt. eigenvalues --    1.16023   1.19638   1.20518   1.21311   1.22190
 Alpha virt. eigenvalues --    1.24865   1.30309   1.32058   1.34038   1.34934
 Alpha virt. eigenvalues --    1.36789   1.37321   1.39312   1.39984   1.46569
 Alpha virt. eigenvalues --    1.48460   1.48628   1.50514   1.51998   1.53058
 Alpha virt. eigenvalues --    1.54751   1.55939   1.56222   1.56387   1.56912
 Alpha virt. eigenvalues --    1.58058   1.59044   1.61673   1.65344   1.65993
 Alpha virt. eigenvalues --    1.66426   1.68486   1.68837   1.70050   1.70700
 Alpha virt. eigenvalues --    1.71659   1.72230   1.72259   1.73393   1.75136
 Alpha virt. eigenvalues --    1.75557   1.77281   1.79247   1.80463   1.81488
 Alpha virt. eigenvalues --    1.82509   1.82578   1.83971   1.84260   1.84491
 Alpha virt. eigenvalues --    1.85604   1.87656   1.88473   1.89270   1.91519
 Alpha virt. eigenvalues --    1.91658   1.92724   1.92926   1.94090   1.97002
 Alpha virt. eigenvalues --    1.99551   2.00215   2.01732   2.02356   2.03319
 Alpha virt. eigenvalues --    2.05051   2.07146   2.08077   2.11059   2.12312
 Alpha virt. eigenvalues --    2.17185   2.17928   2.19210   2.23264   2.23574
 Alpha virt. eigenvalues --    2.24885   2.28323   2.34710   2.36928   2.41339
 Alpha virt. eigenvalues --    2.41703   2.41925   2.44965   2.45748   2.46221
 Alpha virt. eigenvalues --    2.47419   2.48308   2.52597   2.54090   2.60868
 Alpha virt. eigenvalues --    2.62408   2.71090   2.73541   2.74911   2.77510
 Alpha virt. eigenvalues --    2.79786   2.82260   2.86266   2.88770   2.91843
 Alpha virt. eigenvalues --    2.99531   3.04030   3.10700   3.16470   3.29492
 Alpha virt. eigenvalues --    3.45328   3.52540   3.69837   4.08477
          Condensed to atoms (all electrons):
               1          2          3          4          5          6
     1  C    4.775186   0.449111   0.015572  -0.055016  -0.016070   0.516912
     2  C    0.449111   5.314662   0.339203  -0.024146  -0.067920  -0.005879
     3  C    0.015572   0.339203   4.782117   0.470568  -0.003492  -0.061304
     4  C   -0.055016  -0.024146   0.470568   4.806077   0.522295  -0.010746
     5  C   -0.016070  -0.067920  -0.003492   0.522295   4.751216   0.486410
     6  C    0.516912  -0.005879  -0.061304  -0.010746   0.486410   4.751677
     7  H    0.399507  -0.035515   0.007869  -0.000559   0.007642  -0.039575
     8  H   -0.001037   0.011903  -0.038653   0.395248  -0.042348   0.007791
     9  H    0.009079  -0.001002   0.008538  -0.038848   0.403898  -0.045596
    10  H   -0.042327   0.009121  -0.000482   0.007916  -0.041881   0.405449
    11  N    0.008530  -0.065752   0.505856  -0.041490   0.003148  -0.000279
    12  S   -0.075867   0.337983  -0.099258   0.007901   0.000244   0.004160
    13  C   -0.000206   0.003445   0.006019  -0.000462   0.000007   0.000006
    14  C   -0.000021   0.000089   0.000477   0.000008  -0.000000  -0.000000
    15  C    0.000009  -0.000035  -0.001267  -0.000001  -0.000000  -0.000000
    16  C    0.000000  -0.000013   0.000008  -0.000000   0.000000  -0.000000
    17  H   -0.000016   0.000294  -0.000017   0.000000   0.000000   0.000000
    18  C    0.000000   0.000009  -0.000031  -0.000000  -0.000000  -0.000000
    19  C   -0.000000   0.000000   0.000002   0.000000  -0.000000   0.000000
    20  H   -0.000000  -0.000000  -0.000000  -0.000000  -0.000000  -0.000000
    21  H   -0.000000  -0.000000   0.000000   0.000000  -0.000000   0.000000
    22  H    0.000000  -0.000000  -0.000000  -0.000000   0.000000  -0.000000
    23  C    0.005051  -0.055627  -0.128854  -0.001578   0.000302  -0.000220
    24  O    0.000001  -0.000025  -0.001596  -0.000022   0.000000  -0.000000
    25  H   -0.000059   0.001752  -0.002224  -0.000174  -0.000016   0.000007
               7          8          9         10         11         12
     1  C    0.399507  -0.001037   0.009079  -0.042327   0.008530  -0.075867
     2  C   -0.035515   0.011903  -0.001002   0.009121  -0.065752   0.337983
     3  C    0.007869  -0.038653   0.008538  -0.000482   0.505856  -0.099258
     4  C   -0.000559   0.395248  -0.038848   0.007916  -0.041490   0.007901
     5  C    0.007642  -0.042348   0.403898  -0.041881   0.003148   0.000244
     6  C   -0.039575   0.007791  -0.045596   0.405449  -0.000279   0.004160
     7  H    0.656924   0.000032  -0.000161  -0.010451  -0.000089  -0.007823
     8  H    0.000032   0.657186  -0.012605  -0.000099  -0.000964  -0.000114
     9  H   -0.000161  -0.012605   0.665084  -0.011658  -0.000077   0.000017
    10  H   -0.010451  -0.000099  -0.011658   0.660441   0.000000  -0.000181
    11  N   -0.000089  -0.000964  -0.000077   0.000000   6.493273  -0.077381
    12  S   -0.007823  -0.000114   0.000017  -0.000181  -0.077381  15.518435
    13  C   -0.000004   0.000026  -0.000000  -0.000000  -0.015761  -0.061395
    14  C    0.000002   0.000001   0.000000  -0.000000   0.003910  -0.017418
    15  C   -0.000000  -0.000019   0.000000   0.000000  -0.024726   0.006491
    16  C    0.000000   0.000000  -0.000000  -0.000000  -0.000056   0.000675
    17  H    0.000001   0.000000   0.000000  -0.000000   0.000208   0.009473
    18  C    0.000000  -0.000000   0.000000  -0.000000  -0.000569  -0.000256
    19  C   -0.000000   0.000000  -0.000000  -0.000000   0.000025   0.000024
    20  H    0.000000   0.000000   0.000000   0.000000   0.000001   0.000025
    21  H   -0.000000   0.000000  -0.000000   0.000000   0.000004   0.000004
    22  H    0.000000  -0.000000  -0.000000  -0.000000  -0.000000  -0.000000
    23  C    0.000154  -0.000864   0.000007   0.000005   0.538262   0.298090
    24  O   -0.000000  -0.000056   0.000000  -0.000000  -0.040960  -0.000086
    25  H    0.000001   0.000728  -0.000002   0.000000   0.070690   0.002949
              13         14         15         16         17         18
     1  C   -0.000206  -0.000021   0.000009   0.000000  -0.000016   0.000000
     2  C    0.003445   0.000089  -0.000035  -0.000013   0.000294   0.000009
     3  C    0.006019   0.000477  -0.001267   0.000008  -0.000017  -0.000031
     4  C   -0.000462   0.000008  -0.000001  -0.000000   0.000000  -0.000000
     5  C    0.000007  -0.000000  -0.000000   0.000000   0.000000  -0.000000
     6  C    0.000006  -0.000000  -0.000000  -0.000000   0.000000  -0.000000
     7  H   -0.000004   0.000002  -0.000000   0.000000   0.000001   0.000000
     8  H    0.000026   0.000001  -0.000019   0.000000   0.000000  -0.000000
     9  H   -0.000000   0.000000   0.000000  -0.000000   0.000000   0.000000
    10  H   -0.000000  -0.000000   0.000000  -0.000000  -0.000000  -0.000000
    11  N   -0.015761   0.003910  -0.024726  -0.000056   0.000208  -0.000569
    12  S   -0.061395  -0.017418   0.006491   0.000675   0.009473  -0.000256
    13  C    5.314563   0.487310   0.277641  -0.014104  -0.032236  -0.066690
    14  C    0.487310   4.831685  -0.018210   0.530837   0.398182  -0.052392
    15  C    0.277641  -0.018210   4.842144  -0.055552   0.006170   0.472987
    16  C   -0.014104   0.530837  -0.055552   4.731649  -0.032814  -0.018257
    17  H   -0.032236   0.398182   0.006170  -0.032814   0.643865  -0.000580
    18  C   -0.066690  -0.052392   0.472987  -0.018257  -0.000580   4.846980
    19  C   -0.050491  -0.022726  -0.010801   0.493699   0.007488   0.516046
    20  H    0.008485  -0.034478  -0.000250   0.401454  -0.011406   0.007789
    21  H    0.011814  -0.000460  -0.025246   0.006702   0.000037   0.381048
    22  H   -0.001246   0.009427   0.008708  -0.042053  -0.000155  -0.042052
    23  C    0.330600  -0.082322  -0.076926   0.006688  -0.023775   0.008161
    24  O   -0.096816   0.003908   0.528766  -0.000045  -0.000051  -0.051272
    25  H   -0.042739  -0.001325   0.002561   0.000015   0.000002   0.006681
              19         20         21         22         23         24
     1  C   -0.000000  -0.000000  -0.000000   0.000000   0.005051   0.000001
     2  C    0.000000  -0.000000  -0.000000  -0.000000  -0.055627  -0.000025
     3  C    0.000002  -0.000000   0.000000  -0.000000  -0.128854  -0.001596
     4  C    0.000000  -0.000000   0.000000  -0.000000  -0.001578  -0.000022
     5  C   -0.000000  -0.000000  -0.000000   0.000000   0.000302   0.000000
     6  C    0.000000  -0.000000   0.000000  -0.000000  -0.000220  -0.000000
     7  H   -0.000000   0.000000  -0.000000   0.000000   0.000154  -0.000000
     8  H    0.000000   0.000000   0.000000  -0.000000  -0.000864  -0.000056
     9  H   -0.000000   0.000000  -0.000000  -0.000000   0.000007   0.000000
    10  H   -0.000000   0.000000   0.000000  -0.000000   0.000005  -0.000000
    11  N    0.000025   0.000001   0.000004  -0.000000   0.538262  -0.040960
    12  S    0.000024   0.000025   0.000004  -0.000000   0.298090  -0.000086
    13  C   -0.050491   0.008485   0.011814  -0.001246   0.330600  -0.096816
    14  C   -0.022726  -0.034478  -0.000460   0.009427  -0.082322   0.003908
    15  C   -0.010801  -0.000250  -0.025246   0.008708  -0.076926   0.528766
    16  C    0.493699   0.401454   0.006702  -0.042053   0.006688  -0.000045
    17  H    0.007488  -0.011406   0.000037  -0.000155  -0.023775  -0.000051
    18  C    0.516046   0.007789   0.381048  -0.042052   0.008161  -0.051272
    19  C    4.730332  -0.044868  -0.041507   0.406012   0.001019   0.002218
    20  H   -0.044868   0.666791  -0.000115  -0.011244  -0.000356   0.000002
    21  H   -0.041507  -0.000115   0.647877  -0.011431  -0.000407   0.001706
    22  H    0.406012  -0.011244  -0.011431   0.653746  -0.000015  -0.000042
    23  C    0.001019  -0.000356  -0.000407  -0.000015   5.092882  -0.000855
    24  O    0.002218   0.000002   0.001706  -0.000042  -0.000855   7.304806
    25  H   -0.000043  -0.000001   0.000081   0.000006   0.002036   0.405519
              25
     1  C   -0.000059
     2  C    0.001752
     3  C   -0.002224
     4  C   -0.000174
     5  C   -0.000016
     6  C    0.000007
     7  H    0.000001
     8  H    0.000728
     9  H   -0.000002
    10  H    0.000000
    11  N    0.070690
    12  S    0.002949
    13  C   -0.042739
    14  C   -0.001325
    15  C    0.002561
    16  C    0.000015
    17  H    0.000002
    18  C    0.006681
    19  C   -0.000043
    20  H   -0.000001
    21  H    0.000081
    22  H    0.000006
    23  C    0.002036
    24  O    0.405519
    25  H    0.513788
 Mulliken charges:
               1
     1  C    0.011662
     2  C   -0.211658
     3  C    0.200948
     4  C   -0.036971
     5  C   -0.003433
     6  C   -0.008813
     7  H    0.022048
     8  H    0.023844
     9  H    0.023326
    10  H    0.024147
    11  N   -0.355801
    12  S    0.153311
    13  C   -0.057767
    14  C   -0.036482
    15  C    0.067558
    16  C   -0.008832
    17  H    0.035331
    18  C   -0.007602
    19  C    0.013571
    20  H    0.018171
    21  H    0.029894
    22  H    0.030339
    23  C    0.088543
    24  O   -0.055100
    25  H    0.039768
 Sum of Mulliken charges =  -0.00000
 Mulliken charges with hydrogens summed into heavy atoms:
               1
     1  C    0.033710
     2  C   -0.211658
     3  C    0.200948
     4  C   -0.013127
     5  C    0.019892
     6  C    0.015334
    11  N   -0.355801
    12  S    0.153311
    13  C   -0.057767
    14  C   -0.001151
    15  C    0.067558
    16  C    0.009339
    18  C    0.022292
    19  C    0.043909
    23  C    0.088543
    24  O   -0.015332
 Electronic spatial extent (au):  <R**2>=           4326.4419
 Charge=             -0.0000 electrons
 Dipole moment (field-independent basis, Debye):
    X=             -1.2060    Y=             -1.6932    Z=              0.0000  Tot=              2.0788
 Quadrupole moment (field-independent basis, Debye-Ang):
   XX=            -82.9681   YY=            -88.2298   ZZ=           -104.4612
   XY=             -7.2395   XZ=             -0.0001   YZ=             -0.0001
 Traceless Quadrupole moment (field-independent basis, Debye-Ang):
   XX=              8.9183   YY=              3.6566   ZZ=            -12.5748
   XY=             -7.2395   XZ=             -0.0001   YZ=             -0.0001
 Octapole moment (field-independent basis, Debye-Ang**2):
  XXX=             -0.7720  YYY=            -13.2276  ZZZ=              0.0001  XYY=             -9.6951
  XXY=              6.8626  XXZ=              0.0002  XZZ=              0.6998  YZZ=              4.8269
  YYZ=              0.0000  XYZ=             -0.0003
[...]
 00006,0.00014848,0.00025756,0.00000001,-0.00023153,-0.00020639,0.,-0.0
 0001639,0.00000293,-0.00000002,0.00002604,-0.00000999,0.,0.00000338,-0
 .00000067,0.,0.00003421,-0.00001131,0.,0.00064438,0.00020776,-0.000000
 17,-0.00004848,0.00067462,0.,-0.00200850,-0.02758921,-0.00000068,-0.07
 433012,-0.07012717,0.00000266,-0.00581399,0.00192026,0.00000121,0.0093
 9495,0.02315160,0.00000002,0.07482795,0.00022702,-0.00018003,0.0000000
 5,-0.00047106,0.00048666,-0.00000001,0.00007749,0.00083514,0.00000017,
 0.00049402,-0.00005017,0.00000004,0.00011680,0.00063012,0.00000003,-0.
 00049902,-0.00035448,-0.00000006,-0.00002123,0.00001561,0.,0.00002329,
 -0.00002074,0.00000002,-0.00000905,0.00000778,0.,0.00000685,0.00000422
 ,-0.00000002,0.00088348,-0.00017147,-0.00000007,0.00135534,-0.00186820
 ,-0.00000013,0.00244756,-0.00478007,-0.00000011,-0.07105958,-0.3292746
 6,0.00000026,-0.00098986,0.00187620,-0.00000002,-0.00805408,-0.0163842
 2,0.00000054,0.07172143,0.34968301,-0.00000009,-0.00000001,-0.00001693
 ,-0.00000009,-0.00000031,-0.00047656,-0.00000029,0.00000060,0.00014277
 ,0.00000026,-0.00000014,0.00009139,0.00000005,0.00000024,0.00000380,-0
 .00000009,-0.00000007,0.00002199,0.,0.00000001,0.00001434,-0.00000002,
 0.,0.00004211,0.,0.,0.00001105,0.,0.,-0.00003651,0.00000055,-0.0000003
 0,-0.00138187,-0.00000022,-0.00000018,0.00148211,0.00000193,0.00000224
 ,0.00161420,0.00000055,0.00000236,-0.02872839,0.,-0.00000025,0.0051150
 4,-0.00000010,-0.00000390,0.00315463,-0.00000329,-0.00000033,0.0184789
 1,-0.00288643,0.00305447,-0.00000034,0.00389801,-0.00092953,0.00000064
 ,-0.00043867,0.00231831,0.00000093,0.00075883,0.00016288,-0.00000019,-
 0.00074044,-0.00265289,-0.00000024,0.00452921,0.00065787,0.00000037,-0
 .00016309,-0.00000516,0.,0.00021313,0.00006185,0.00000009,0.00016130,-
 0.00006999,0.00000002,0.00012772,-0.00006724,0.00000003,0.00440199,0.0
 0574126,-0.00000150,-0.00216994,0.00086519,-0.00000056,0.00773886,0.02
 578780,0.00000200,-0.01376863,0.02059654,0.00000365,-0.20125183,0.0800
 2984,0.00002011,-0.00132345,-0.05332474,-0.00000239,-0.00007062,0.0003
 3890,-0.00000006,0.69368237,0.00042723,-0.00093651,-0.00000006,-0.0051
 4956,-0.00330472,-0.00000054,-0.00201740,0.00806793,0.00000019,0.00291
 712,-0.00094674,0.00000037,0.00074354,0.00304651,0.00000015,-0.0018398
 9,-0.00166466,-0.00000019,0.00002357,0.00012344,0.,-0.00014171,-0.0000
 7246,-0.00000002,-0.00004749,0.00002214,-0.00000002,-0.00000291,0.0000
 0271,0.00000001,0.00943827,-0.00368118,0.00000051,0.00110021,-0.006474
 76,0.00000012,0.03086886,-0.03263201,-0.00000413,-0.00853246,0.0038571
 4,0.00000061,0.12021794,-0.24288381,-0.00002280,-0.03150095,-0.0194822
 1,0.00000140,-0.00052019,0.00007417,-0.00000020,0.03457220,0.73757782,
 0.00000019,-0.00000061,0.00024548,-0.00000221,-0.00000123,0.00072589,-
 0.00000107,0.00000278,0.00133942,0.00000120,-0.00000031,-0.00031986,0.
 00000024,0.00000136,-0.00005608,-0.00000091,-0.00000082,-0.00009411,0.
 00000002,0.00000003,0.00007035,-0.00000008,-0.00000003,0.00005515,-0.0
 0000002,0.00000001,0.00002913,-0.00000002,0.00000002,-0.00007168,0.000
 00234,-0.00000382,-0.00294976,0.00000054,-0.00000160,-0.00045679,0.000
 00406,-0.00000378,0.01130697,-0.00000087,-0.00000109,-0.00170992,0.000
 01801,-0.00001659,-0.06534745,-0.00000051,0.00000195,0.00538609,-0.000
 00014,-0.00000008,-0.00057408,-0.00005603,0.00002593,0.11376687,0.0023
 8874,-0.00156710,0.00000034,0.00113768,0.00319677,0.00000006,0.0052799
 9,-0.01132899,-0.00000102,-0.00494276,0.00155309,-0.00000028,0.0002763
 3,-0.00149821,0.00000008,-0.00201991,0.00124614,-0.00000014,0.00009981
 ,-0.00002469,0.00000001,-0.00005726,0.00000267,-0.00000006,-0.00011558
 ,0.00002363,0.,-0.00006411,0.00006327,-0.00000003,-0.01370504,0.004634
 34,-0.00000093,0.00286163,0.00215361,0.00000028,-0.00851751,-0.0212388
 2,-0.00000194,0.03744678,0.00672027,-0.00000313,-0.04928780,0.02793028
 ,0.00000745,-0.13116302,-0.01592717,0.00000424,-0.00342468,0.00415151,
 0.00000139,-0.34304799,-0.09070387,0.00001927,0.71761953,0.00166402,-0
 .00234324,0.00000013,-0.00766492,-0.00269234,-0.00000106,-0.00171836,0
 .00992998,-0.00000009,0.00379695,-0.00146111,0.00000047,0.00096546,0.0
 0523353,0.00000028,-0.00402736,-0.00303600,-0.00000041,0.00008188,0.00
 013279,0.,-0.00019652,-0.00016256,-0.00000006,-0.00009732,0.00005326,-
 0.00000004,-0.00008337,0.00006127,0.,0.00916858,-0.00428463,0.00000099
 ,-0.00071366,-0.00486016,0.00000084,-0.00671097,-0.01698169,-0.0000003
 0,0.02984799,-0.05754462,-0.00000711,0.00421761,0.03985790,0.00000201,
 -0.07362344,-0.30657355,-0.00000789,0.00289947,-0.00072492,-0.00000040
 ,-0.04489104,-0.14204159,0.00000059,-0.03449542,0.67767302,-0.00000027
 ,0.00000014,0.00010318,-0.00000021,-0.00000039,-0.00051956,-0.00000044
 ,0.00000128,-0.00080404,0.00000059,-0.00000022,0.00008622,0.00000005,0
 .00000029,0.00007247,0.00000011,-0.00000013,0.00000810,0.,0.00000001,-
 0.00003216,0.00000001,0.,-0.00011186,0.,0.,0.00000087,0.,0.,0.00002481
 ,0.00000153,-0.00000028,0.00095413,-0.00000020,-0.00000028,0.00079711,
 -0.00000039,0.00000157,-0.00470862,-0.00000096,-0.00000442,0.00950426,
 0.00000515,-0.00000213,0.00134894,0.00000199,-0.00001273,-0.06090401,0
 .00000093,-0.00000009,0.00614760,0.00001910,0.00000315,-0.05083380,-0.
 00004957,0.00003393,0.11950171,0.00004164,-0.00009053,0.,-0.00008715,0
 .00009733,0.,0.00003427,-0.00014344,0.00000005,-0.00002338,0.00004394,
 0.00000002,0.00002871,0.00008308,0.,-0.00015012,0.00001632,0.,0.000008
 10,0.00000830,0.,-0.00000709,-0.00000650,0.,-0.00001330,0.00000802,0.,
 -0.00000899,0.00000650,0.,-0.00026753,0.00045446,-0.00000007,0.0000842
 5,-0.00010120,-0.00000004,-0.00067955,0.00362102,0.00000068,-0.0155530
 9,-0.01004947,0.00000155,0.00050999,0.00032251,-0.00000008,-0.32379902
 ,-0.07938860,0.00002148,0.00072388,0.00006332,-0.00000029,0.00163987,-
 0.00081991,0.00000032,-0.00236235,0.00184747,0.00000079,0.34025146,-0.
 00001004,0.00000128,0.,-0.00008510,-0.00012006,0.,-0.00000112,0.000243
 02,-0.00000002,0.00008060,-0.00006956,0.,0.00002355,0.00006307,0.,-0.0
 0001622,-0.00002269,0.,0.00000170,0.00000069,0.,-0.00000275,-0.0000007
 1,0.,-0.00000022,-0.00000249,0.,0.00000079,-0.00000059,0.,0.00041195,-
 0.00039615,0.00000002,0.00004286,-0.00002186,0.,0.00364637,-0.00282252
 ,-0.00000069,0.02101887,0.00985287,-0.00000194,0.00062685,-0.00120525,
 -0.00000009,-0.08018319,-0.08274960,0.00000489,-0.00008490,0.00088960,
 0.00000016,0.00001695,-0.00546827,-0.00000057,-0.02969101,-0.00313880,
 0.00000207,0.08497314,0.08286748,0.00000004,0.,-0.00006304,0.00000006,
 0.00000004,0.00006600,0.00000003,-0.00000014,0.00045366,-0.00000011,0.
 00000003,0.00016184,-0.00000002,-0.00000007,-0.00006924,0.00000002,0.,
 0.00002108,0.,0.,0.00000718,0.,0.,0.00003870,0.,0.,-0.00003477,0.,0.,0
 .00000336,0.00000010,0.00000018,-0.00091024,-0.00000012,-0.00000003,-0
 .00012763,0.00000084,-0.00000074,0.00750812,0.00000280,0.00000157,0.00
 610720,0.00000021,0.00000004,-0.00095801,0.00002170,0.00000497,-0.0380
 5547,-0.00000032,-0.00000011,-0.00428197,0.00000019,-0.00000063,0.0048
 0704,-0.00000115,-0.00000096,0.00465484,-0.00002398,-0.00000426,0.0242
 2732,-0.00013971,0.00006700,-0.00000002,0.00014193,0.00003287,-0.00000
 002,-0.00014808,0.00011937,0.00000003,0.00006590,-0.00001593,0.,-0.000
 02120,-0.00002073,0.,0.00010012,0.00000929,0.00000001,-0.00000044,-0.0
 0000551,0.,-0.00000260,0.00000194,0.,0.00000240,-0.00000070,0.,-0.0000
 0273,-0.00000137,0.,0.00035217,-0.00030156,0.00000019,-0.00032427,0.00
 023030,-0.00000006,-0.00448972,0.00267020,0.00000114,-0.00007360,0.000
 23404,0.00000002,0.00840234,0.02393831,0.00000056,-0.00550116,-0.00024
 225,0.00000102,0.00013681,-0.00005094,-0.00000007,-0.07263691,-0.06653
 620,0.00000096,-0.00048957,-0.02889867,-0.00000084,-0.00021952,-0.0014
 1530,-0.00000010,0.07075794,0.00010263,0.00001759,0.00000002,0.0000216
 6,0.00008865,0.00000002,0.00014547,-0.00024292,0.,-0.00012121,0.000030
 14,-0.00000002,-0.00003641,-0.00012844,0.,0.00006031,0.00001393,0.,-0.
 00000639,-0.00000381,0.,0.00001305,0.00000465,0.,0.00001053,-0.0000038
 6,0.,0.00000848,-0.00000346,0.,-0.00041870,0.00029815,-0.00000011,0.00
 019194,-0.00000637,0.00000005,0.00347158,-0.00035178,-0.00000064,0.000
 34680,0.00020620,-0.00000003,-0.00940434,-0.01645781,0.00000014,-0.001
 23216,0.00160505,0.00000008,-0.00003307,-0.00009044,0.00000004,-0.0644
 1205,-0.33362014,-0.00000640,0.00159110,-0.00325731,-0.00000030,0.0000
 5433,-0.00025109,-0.00000006,0.07078196,0.35062237,0.00000009,0.,-0.00
 028469,0.00000018,0.00000017,-0.00007144,0.00000019,-0.00000050,0.0002
 4792,-0.00000023,0.00000008,-0.00000970,-0.00000003,-0.00000014,-0.000
 03965,0.,0.00000007,0.00003917,0.,0.,-0.00000898,0.,0.,0.00004151,0.,0
 .,-0.00000217,0.,0.,0.00005005,-0.00000070,0.00000020,-0.00013735,0.00
 000005,0.00000013,-0.00014085,0.00000121,-0.00000122,0.00493573,0.0000
 0045,-0.00000009,-0.00068652,-0.00000096,-0.00000195,0.00355708,0.0000
 0071,0.00000034,0.00678720,-0.00000006,-0.00000001,-0.00067270,0.00000
 258,-0.00000600,-0.03274705,-0.00000054,0.00000168,0.00285855,0.000000
 02,0.00000011,-0.00003634,-0.00000136,0.00000667,0.02320894,0.00005371
 ,-0.00011966,0.,-0.00040990,-0.00010695,-0.00000002,-0.00010427,0.0005
 9551,0.00000005,0.00026691,-0.00009410,0.00000002,0.00005969,0.0003177
 3,0.00000001,-0.00022702,-0.00013109,-0.00000002,0.00000512,0.00001172
 ,0.,-0.00000992,-0.00001132,0.,-0.00001092,0.00000616,0.,-0.00000678,0
 .00000441,0.,0.00060051,-0.00006180,-0.00000013,-0.00002668,-0.0002154
 1,0.00000001,0.00069874,-0.00049757,-0.00000007,-0.00037769,-0.0019328
 1,0.00000017,-0.00366411,-0.00323697,0.00000066,0.00854929,-0.00811788
 ,-0.00000083,0.00025925,-0.00034818,0.00000002,-0.01459296,0.02147249,
 0.00000227,-0.21529506,0.14482214,0.00002201,0.00063304,0.00035622,-0.
 00000024,0.00105760,-0.00013869,-0.00000048,0.22444853,0.00005691,0.00
 004807,0.00000001,0.00023726,0.00026343,0.,0.00034824,-0.00069554,-0.0
 0000002,-0.00031766,0.00013097,-0.00000003,-0.00003114,-0.00026808,0.,
 0.00011253,0.00009321,0.00000001,-0.00000851,-0.00000794,0.,0.00001373
 ,0.00000693,0.,0.00000817,-0.00000482,0.,0.00000826,-0.00000293,0.,-0.
 00071593,0.00041200,-0.00000011,-0.00001110,0.00023478,0.00000004,-0.0
 0139767,-0.00011962,0.00000017,-0.00234736,-0.00477399,-0.00000029,-0.
 00225857,-0.00047757,-0.00000026,0.02426361,-0.01389337,-0.00000274,0.
 00112760,-0.00087114,-0.00000018,-0.00990248,0.00967196,0.00000074,0.1
 4501566,-0.19103161,-0.00002028,-0.00013823,0.00101535,0.00000016,0.00
 032537,0.00063850,0.00000023,-0.15427776,0.19938813,0.00000011,-0.0000
 0004,0.00005995,0.00000015,0.00000026,0.00008085,0.00000014,-0.0000004
 4,-0.00009223,-0.00000018,0.00000002,-0.00000085,-0.00000003,-0.000000
 10,0.00001347,-0.00000003,0.00000008,-0.00000707,0.,0.,0.00000665,0.,0
 .,0.00003054,0.,0.,0.00000490,0.,0.,-0.00003680,-0.00000044,0.00000045
 ,0.00026636,-0.00000003,0.00000022,-0.00027312,-0.00000042,0.00000041,
 -0.00150148,-0.00000006,-0.00000018,0.00413574,0.00000096,-0.00000034,
 0.00691638,0.00000081,-0.00000076,0.00338325,0.00000017,-0.00000018,0.
 00076932,0.00000149,-0.00000086,0.00436695,0.00002197,-0.00002057,-0.0
 3298016,-0.00000038,0.00000015,-0.00289057,-0.00000041,0.00000010,-0.0
 0399847,-0.00002395,0.00002217,0.02212917,-0.01048105,-0.00075785,-0.0
 0000081,-0.00630756,0.00937119,0.00000045,-0.09360095,0.06439393,-0.00
 000649,0.02399004,-0.00983797,0.00000163,0.00108069,0.01493164,0.00000
 039,-0.00502733,-0.00129630,-0.00000060,0.00026953,-0.00050704,0.00000
 009,-0.00047365,-0.00009481,-0.00000007,-0.00023214,0.00026018,0.00000
 005,-0.00060080,-0.00006206,-0.00000002,-0.27869109,-0.04204427,-0.000
 02087,-0.05314598,-0.04240157,-0.00000317,-0.22302287,0.13948400,0.000
 00926,-0.05628803,0.03718875,0.00000470,0.00643967,0.00584819,0.000000
 50,0.00335417,-0.01488647,-0.00000070,0.00011794,-0.00062768,-0.000000
 53,0.00137294,-0.01594311,-0.00000152,0.00468199,-0.00492107,-0.000000
 71,-0.00075199,0.00042798,0.00000022,0.00087134,-0.00046077,0.00000025
 ,-0.00054461,0.00063402,0.00000032,0.67774229,-0.00807241,0.01010583,0
 .00000007,0.04997249,-0.02892412,0.00000348,0.02839431,-0.01465160,0.0
 0000099,-0.00107381,-0.00632136,-0.00000052,-0.00143386,-0.00737721,-0
 .00000026,0.01122459,0.00332687,0.00000084,-0.00034599,-0.00079896,0.0
 0000002,0.00024414,0.00043110,-0.00000006,0.00041827,-0.00061188,0.000
 00009,0.00009345,-0.00009456,-0.00000005,-0.04888061,-0.08989345,-0.00
 000435,-0.03064041,-0.12852123,-0.00000622,0.11803069,-0.23013120,-0.0
 0000778,0.01741133,0.01418188,-0.00000015,0.03788108,-0.04029303,-0.00
 000262,-0.00617351,-0.00422187,0.00000023,-0.00175902,0.00066669,0.000
 00029,-0.01786596,0.00505991,0.00000301,0.00673480,0.01126580,-0.00000
 068,-0.00080861,0.00105985,0.00000020,0.00050201,-0.00061875,0.0000000
 3,0.00050739,-0.00010273,-0.00000018,-0.13904646,0.51661769,-0.0000011
 8,0.00000061,0.00283100,0.00000147,0.00000008,-0.00321058,-0.00000636,
 0.00000474,0.00334490,0.00000120,-0.00000114,0.00580422,-0.00000020,0.
 00000036,0.00095682,0.00000029,-0.00000002,0.00110184,0.,-0.00000004,-
 0.00052417,0.00000005,0.00000006,-0.00076340,0.00000012,0.00000003,-0.
 00090664,0.00000003,-0.00000002,-0.00040050,-0.00001583,-0.00000381,-0
 .03871002,-0.00000375,-0.00000770,-0.02023248,-0.00000159,-0.00000149,
 -0.04155872,0.00000471,0.00000032,0.00826185,0.00000448,-0.00000596,0.
 00749866,-0.00000016,-0.00000005,0.00132175,0.00000028,-0.00000001,-0.
 00029239,-0.00000463,0.00000053,0.00028930,0.00000379,0.00000062,-0.00
 095139,-0.00000003,0.00000008,-0.00049791,-0.00000006,-0.00000011,0.00
 120270,0.,0.00000003,0.00023231,0.00001782,0.00001073,0.07497231,0.000
 81662,0.00335360,0.00000033,0.01171265,0.01074219,0.00000218,0.0158290
 8,-0.02077168,-0.00000045,-0.00982561,0.00352037,-0.00000152,-0.002435
 74,-0.01040602,-0.00000055,0.00603720,0.00443979,0.00000056,-0.0003062
 0,-0.00005929,0.,0.00057326,0.00015008,0.00000008,0.00020474,-0.000060
 19,0.00000012,0.00012912,-0.00000932,0.00000001,-0.02348913,0.04125995
 ,-0.00001184,0.00011492,0.01214449,-0.00000049,-0.05005340,-0.02195863
 ,0.00000702,0.02760664,-0.00849472,-0.00000147,-0.36886496,-0.10703741
 ,0.00004636,-0.01121441,0.01062113,0.00000069,-0.00020380,0.00013915,0
 .00000045,-0.06950239,0.00812372,0.00001450,0.00395877,0.00969794,0.00
 000074,-0.00009918,-0.00011977,-0.00000021,0.00234026,-0.00068632,-0.0
 0000131,-0.00114677,-0.00074303,-0.00000018,0.00819207,-0.01150971,-0.
 00000320,0.56918262,-0.00033798,-0.00106783,-0.00000010,-0.00081195,-0
 .00350016,-0.00000100,-0.01008090,0.00094922,0.00000046,0.00100320,-0.
 00064202,0.00000046,0.00017066,0.00119929,0.00000007,-0.00069826,-0.00
 093207,-0.00000001,0.00011160,-0.00028722,-0.00000005,0.00003395,0.000
 12908,0.,0.00013042,-0.00009181,-0.00000002,0.00002734,-0.00006273,0.,
 0.01802774,-0.03711601,0.00001015,0.00072390,-0.00105235,0.00000049,-0
 .04319650,-0.01270200,0.00000299,-0.00024988,-0.00815415,0.,-0.0695869
 6,-0.14299107,-0.00000163,-0.00085127,0.00067363,0.00000041,-0.0020084
 8,-0.00048614,0.00000004,0.03728966,0.02212373,-0.00000199,0.00001455,
 -0.00882902,0.00000011,-0.00009432,0.00039447,-0.00000004,-0.00172900,
 0.00169748,0.00000015,0.00146474,0.00070788,-0.00000019,0.00776384,0.0
 0768320,0.00000059,-0.02707820,0.41846608,-0.00000027,-0.00000006,0.00
 037137,-0.00000028,-0.00000078,-0.00052141,-0.00000248,0.00000175,-0.0
 0022023,0.00000091,-0.00000056,0.00021991,0.00000034,0.00000093,0.0001
 3646,-0.00000050,0.,0.00002091,0.00000004,0.,-0.00004977,0.,0.,-0.0001
 2489,-0.00000003,0.,-0.00002059,0.,0.,-0.00008160,0.00000150,-0.000000
 63,0.00791441,-0.00000031,-0.00000068,-0.00055954,0.00000672,0.0000021
 1,0.01513148,-0.00000243,0.00000078,0.00235571,0.00005834,0.00000669,-
 0.04456493,0.00000131,-0.00000086,-0.00067335,-0.00000002,0.00000025,-
 0.00081688,0.00001366,0.00000242,0.00724006,0.00000045,-0.00000215,0.0
 0432622,0.00000004,0.00000007,-0.00012445,-0.00000098,0.00000054,-0.00
 349482,0.00000055,0.00000023,0.00013165,-0.00000116,-0.00000141,-0.002
 69605,-0.00012075,0.00006860,0.04265734,-0.00078135,-0.00105935,-0.000
 00025,-0.00445840,-0.00429985,-0.00000098,-0.00831703,0.00997034,-0.00
 000004,0.00433535,-0.00156225,0.00000077,0.00078615,0.00388186,0.00000
 023,-0.00187095,-0.00158706,-0.00000018,0.00014501,-0.00004338,0.00000
 003,-0.00035909,-0.00001363,-0.00000008,-0.00002525,0.00000462,-0.0000
 0006,-0.00003672,-0.00004377,0.,-0.00146390,-0.01670747,0.00000912,-0.
 00163243,-0.00567078,-0.00000051,0.00740453,0.00147854,-0.00000129,-0.
 00726347,0.00207350,0.00000029,-0.05248643,0.02975874,0.00001644,0.001
 79377,-0.00231310,-0.00000018,0.00038943,0.00008454,-0.00000005,0.0040
 6912,-0.00614948,-0.00000054,-0.00125862,-0.00096740,0.00000060,0.0000
 6704,-0.00001823,0.00000004,-0.00017930,0.00015027,-0.00000007,-0.0002
 1569,-0.00000193,-0.00000003,0.00105535,-0.00380415,0.00000272,-0.1095
 5637,0.08996212,0.00004535,0.16985925,0.00230181,0.00141931,0.00000075
 ,0.00641510,0.01076287,0.00000210,0.02136685,-0.01661516,-0.00000324,-
 0.00826419,0.00393176,-0.00000127,-0.00169727,-0.00720965,-0.00000032,
 0.00264173,0.00316325,0.00000023,-0.00025150,0.00027515,-0.00000003,0.
 00023388,-0.00011021,-0.00000007,-0.00007642,0.00010521,0.00000006,-0.
 00001660,0.00010846,0.,-0.02830308,0.02343136,-0.00001518,0.00164851,0
 .00945427,0.00000026,-0.01886653,-0.00142546,0.00000159,0.01507452,-0.
 00349250,-0.00000060,0.02312863,0.02076153,0.00000095,-0.00352994,0.00
 546709,0.00000014,-0.00015766,0.00008748,0.00000030,-0.01737262,0.0035
 8161,0.00000249,0.00144359,0.00475560,-0.00000061,0.00004109,-0.000118
 03,-0.00000013,0.00030551,-0.00018651,0.00000006,-0.00026834,-0.000361
 86,-0.00000003,-0.00741628,-0.01783687,0.00000156,0.10474189,-0.236109
 48,-0.00007724,-0.09312271,0.19616079,-0.00000024,-0.00000058,0.000095
 80,0.00000019,-0.00000118,0.00072280,-0.00000200,-0.00000310,-0.002089
 17,-0.00000060,0.00000013,-0.00039103,0.00000026,-0.00000019,-0.000020
 00,-0.00000018,0.00000015,-0.00003524,0.00000009,-0.00000013,-0.000015
 03,-0.00000009,0.00000010,0.00002891,0.00000002,-0.00000005,0.00004101
 ,0.,-0.00000002,0.00004249,0.00000607,0.00000184,-0.00919395,-0.000000
 62,-0.00000188,0.00060033,-0.00000080,-0.00000002,-0.00396792,-0.00000
 111,-0.00000010,0.00019227,-0.00000049,-0.00000728,-0.00231649,0.00000
 062,-0.00000033,0.00007806,-0.00000015,-0.00000012,0.00018902,0.000001
 08,0.00000009,0.00553188,-0.00000053,-0.00000048,0.00145659,-0.0000000
 4,0.00000002,-0.00000669,-0.00000001,0.00000002,-0.00059814,-0.0000000
 5,0.00000011,-0.00074672,0.00000096,0.00000429,0.00292657,0.00006895,-
 0.00007949,-0.02655701,-0.00007134,0.00008821,0.03403166\\-0.00180750,
 0.00087121,-0.00000027,0.00094796,0.00261631,-0.00000113,0.00301558,0.
 00047534,0.00000462,0.00108766,-0.00150461,0.00000012,-0.00063863,-0.0
 0338337,-0.00000033,-0.00188253,-0.00172541,-0.00000031,-0.00033198,0.
 00019896,0.00000011,0.00028242,-0.00025829,0.00000004,-0.00006474,-0.0
 0036951,0.,-0.00029364,-0.00020739,0.,-0.00019001,0.00327154,0.0000078
 9,0.00190569,0.00812602,0.00000067,-0.00043102,0.00157812,-0.00000329,
 0.00280870,-0.00173120,0.00000155,0.00213331,0.00147780,0.00000679,-0.
 00060324,-0.00154856,-0.00000140,0.00028999,-0.00016459,0.00000060,-0.
 00258397,-0.00022386,-0.00000255,-0.00265361,-0.00252444,-0.00000081,-
 0.00000880,-0.00033487,0.00000026,-0.00034497,0.00001333,0.00000039,-0
 .00032097,-0.00030307,0.00000054,0.00029241,0.00071172,-0.00000374,-0.
 00215102,-0.00017013,0.00001375,0.00154290,-0.00489106,-0.00002351\\\@
 The archive entry for this job was punched.


 LIFE IS A CONTINUAL STRUGGLE AGAINST THE TENDENCY TO PRODUCE ENTROPY.
 Job cpu time:       0 days  2 hours 53 minutes 10.1 seconds.
 Elapsed time:       0 days  0 hours 17 minutes 59.7 seconds.
 File lengths (MBytes):  RWF=   1376 Int=      0 D2E=      0 Chk=     48 Scr=      8
 Normal termination of Gaussian 16 at Tue Jul 14 17:13:44 2020.
