 Entering Gaussian System, Link 0=g16
 Initial command:
 /gpfs/loomis/apps/avx/software/Gaussian/16-C.01_AVX/g16/l1.exe "/home/fas/batista/pev4/scratch60/gauss-scratch/Gau-56994.inp" -scrdir="/home/fas/batista/pev4/scratch60/gauss-scratch/"
 Entering Link 1 = /gpfs/loomis/apps/avx/software/Gaussian/16-C.01_AVX/g16/l1.exe PID=     56995.
  
 Copyright (c) 1988-2019, Gaussian, Inc.  All Rights Reserved.
  
 This is part of the Gaussian(R) 16 program.  It is based on
 the Gaussian(R) 09 system (copyright 2009, Gaussian, Inc.),
 the Gaussian(R) 03 system (copyright 2003, Gaussian, Inc.),
 the Gaussian(R) 98 system (copyright 1998, Gaussian, Inc.),
 the Gaussian(R) 94 system (copyright 1995, Gaussian, Inc.),
 the Gaussian 92(TM) system (copyright 1992, Gaussian, Inc.),
 the Gaussian 90(TM) system (copyright 1990, Gaussian, Inc.),
 the Gaussian 88(TM) system (copyright 1988, Gaussian, Inc.),
 the Gaussian 86(TM) system (copyright 1986, Carnegie Mellon
 University), and the Gaussian 82(TM) system (copyright 1983,
 Carnegie Mellon University). Gaussian is a federally registered
 trademark of Gaussian, Inc.
  
 This software contains proprietary and confidential information,
 including trade secrets, belonging to Gaussian, Inc.
  
 This software is provided under written license and may be
 used, copied, transmitted, or stored only in accord with that
 written license.
  
 The following legend is applicable only to US Government
 contracts under FAR:
  
                    RESTRICTED RIGHTS LEGEND
  
 Use, reproduction and disclosure by the US Government is
 subject to restrictions as set forth in subparagraphs (a)
 and (c) of the Commercial Computer Software - Restricted
 Rights clause in FAR 52.227-19.
  
 Gaussian, Inc.
 340 Quinnipiac St., Bldg. 40, Wallingford CT 06492
  
  
 ---------------------------------------------------------------
 Warning -- This program may not be used in any manner that
 competes with the business of Gaussian, Inc. or will provide
 assistance to any competitor of Gaussian, Inc.  The licensee
 of this program is prohibited from giving any competitor of
 Gaussian, Inc. access to this program.  By using this program,
 the user acknowledges that Gaussian, Inc. is engaged in the
 business of creating and licensing software in the field of
 computational chemistry and represents and warrants to the
 licensee that it is not a competitor of Gaussian, Inc. and that
 it will not use this program in any manner prohibited above.
 ---------------------------------------------------------------
  

 Cite this work as:
 Gaussian 16, Revision C.01,
 M. J. Frisch, G. W. Trucks, H. B. Schlegel, G. E. Scuseria, 
 M. A. Robb, J. R. Cheeseman, G. Scalmani, V. Barone, 
 G. A. Petersson, H. Nakatsuji, X. Li, M. Caricato, A. V. Marenich, 
 J. Bloino, B. G. Janesko, R. Gomperts, B. Mennucci, H. P. Hratchian, 
 J. V. Ortiz, A. F. Izmaylov, J. L. Sonnenberg, D. Williams-Young, 
 F. Ding, F. Lipparini, F. Egidi, J. Goings, B. Peng, A. Petrone, 
 T. Henderson, D. Ranasinghe, V. G. Zakrzewski, J. Gao, N. Rega, 
 G. Zheng, W. Liang, M. Hada, M. Ehara, K. Toyota, R. Fukuda, 
 J. Hasegawa, M. Ishida, T. Nakajima, Y. Honda, O. Kitao, H. Nakai, 
 T. Vreven, K. Throssell, J. A. Montgomery, Jr., J. E. Peralta, 
 F. Ogliaro, M. J. Bearpark, J. J. Heyd, E. N. Brothers, K. N. Kudin, 
 V. N. Staroverov, T. A. Keith, R. Kobayashi, J. Normand, 
 K. Raghavachari, A. P. Rendell, J. C. Burant, S. S. Iyengar, 
 J. Tomasi, M. Cossi, J. M. Millam, M. Klene, C. Adamo, R. Cammi, 
 J. W. Ochterski, R. L. Martin, K. Morokuma, O. Farkas, 
 J. B. Foresman, and D. J. Fox, Gaussian, Inc., Wallingford CT, 2019.
 
 ******************************************
 Gaussian 16:  ES64L-G16RevC.01  3-Jul-2019
                14-Jul-2020 
 ******************************************
 %chk=config_6_19.chk
 %mem=58GB
 %nprocshared=10
 Will use up to   10 processors via shared memory.
 ----------------------------------------------------------------------
 #p opt=addgic freq td wb97xd/cc-pvdz nosymm int=ultrafine scrf=(solven
 t=CarbonTetraChloride)
 ----------------------------------------------------------------------
 1/18=20,19=15,26=6,38=1,145=903/1,3;
 2/9=110,12=2,15=1,17=6,18=5,40=1/2;
 3/5=16,11=9,25=1,30=1,70=2201,71=1,72=11,74=-58,75=-5/1,2,3,8;
 4//1;
 5/5=2,38=5,53=11/2;
 8/6=1,10=1/1;
 9/15=2,42=1,70=2/14;
 10/5=4,31=1/2;
 6/7=2,8=2,9=2,10=2/1;
 7/12=6,13=5,30=1/1,2,3,16;
 1/18=20,19=15,26=6,145=903/3(2);
 2/9=110,15=1/2;
 99//99;
 2/9=110,15=1/2;
 3/5=16,11=9,25=1,30=1,70=2205,71=1,72=11,74=-58,75=-5/1,2,3,8;
 4/5=5,16=3,69=1/1;
 5/5=2,38=5,53=11/2;
 8/6=1,10=1/1;
 9/15=2,42=1,49=4,70=2/14;
 10/5=4,31=1/2;
 7/12=6,13=5,30=1/1,2,3,16;
 1/18=20,19=15,26=6,145=903/3(-8);
 2/9=110,15=1/2;
 6/7=2,8=2,9=2,10=2/1;
 99/9=10/99;
 Leave Link    1 at Tue Jul 14 16:03:29 2020, MaxMem=  7784628224 cpu:               4.7 elap:               0.5
 (Enter /gpfs/loomis/apps/avx/software/Gaussian/16-C.01_AVX/g16/l101.exe)
 ------------------------------------------------
 NM 2D-scan of HBT TD-WB97XD pVDZ in CTC Relaxed.
 ------------------------------------------------
 Symbolic Z-matrix:
 Charge =  0 Multiplicity = 1
 C                     1.50436  -3.24862  -0.00002 
 C                     0.99908  -1.94383  -0.00002 
 C                     1.81406  -0.76617  -0.00003 
 C                     3.22276  -0.96987  -0.00003 
 C                     3.72699  -2.28008  -0.00002 
 C                     2.89137  -3.41745  -0.00001 
 H                     0.81782  -4.10886  -0.00001 
 H                     3.90787  -0.10796  -0.00004 
 H                     4.81551  -2.4224   -0.00003 
 H                     3.32658  -4.42422  -0.00001 
 N                     1.07547   0.39904  -0.00003 
 S                    -0.69149  -1.55036  -0.00003 
 C                    -1.29711   1.08115   0.00001 
 C                    -2.65534   0.69991   0.00003 
 C                    -0.91846   2.49652   0.00004 
 C                    -3.65576   1.6874    0.00003 
 H                    -2.9331   -0.36315   0.00003 
 C                    -1.96313   3.46673   0.00004 
 C                    -3.31285   3.05811   0.00003 
 H                    -4.7107    1.38784   0.00004 
 H                    -1.68802   4.53115   0.00005 
 H                    -4.10826   3.81259   0.00003 
 C                    -0.26204   0.12765  -0.00002 
 O                     0.34405   2.75906   0.00006 
 H                     0.98709   1.64736   0.00002 
 
 Add virtual bond connecting atoms H25        and N11        Dist= 2.36D+00.
 Add virtual bond connecting atoms H25        and O24        Dist= 2.43D+00.
 Initializing the GIC definitions file.
 Number of initial coordinates =   142
 Number of input entries/lines =    52
 Number of additional coordinates =     2
 Number of removed coordinates =     0
 Number of frozen coordinates =     2
 Number of final active and frozen coordinates =   144
 ITRead=  0  0  0  0  0  0  0  0  0  0  0  0  0  0  0  0  0  0  0  0
 ITRead=  0  0  0  0  0
 MicOpt= -1 -1 -1 -1 -1 -1 -1 -1 -1 -1 -1 -1 -1 -1 -1 -1 -1 -1 -1 -1
 MicOpt= -1 -1 -1 -1 -1
 NAtoms=     25 NQM=       25 NQMF=       0 NMMI=      0 NMMIF=      0
                NMic=       0 NMicF=      0.
                    Isotopes and Nuclear Properties:
 (Nuclear quadrupole moments (NQMom) in fm**2, nuclear magnetic moments (NMagM)
  in nuclear magnetons)

  Atom         1           2           3           4           5           6           7           8           9          10
 IAtWgt=          12          12          12          12          12          12           1           1           1           1
 AtmWgt=  12.0000000  12.0000000  12.0000000  12.0000000  12.0000000  12.0000000   1.0078250   1.0078250   1.0078250   1.0078250
 NucSpn=           0           0           0           0           0           0           1           1           1           1
 AtZEff=  -0.0000000  -0.0000000  -0.0000000  -0.0000000  -0.0000000  -0.0000000  -0.0000000  -0.0000000  -0.0000000  -0.0000000
 NQMom=    0.0000000   0.0000000   0.0000000   0.0000000   0.0000000   0.0000000   0.0000000   0.0000000   0.0000000   0.0000000
 NMagM=    0.0000000   0.0000000   0.0000000   0.0000000   0.0000000   0.0000000   2.7928460   2.7928460   2.7928460   2.7928460
 AtZNuc=   6.0000000   6.0000000   6.0000000   6.0000000   6.0000000   6.0000000   1.0000000   1.0000000   1.0000000   1.0000000

  Atom        11          12          13          14          15          16          17          18          19          20
 IAtWgt=          14          32          12          12          12          12           1          12          12           1
 AtmWgt=  14.0030740  31.9720718  12.0000000  12.0000000  12.0000000  12.0000000   1.0078250  12.0000000  12.0000000   1.0078250
 NucSpn=           2           0           0           0           0           0           1           0           0           1
 AtZEff=  -0.0000000  -0.0000000  -0.0000000  -0.0000000  -0.0000000  -0.0000000  -0.0000000  -0.0000000  -0.0000000  -0.0000000
 NQMom=    2.0440000   0.0000000   0.0000000   0.0000000   0.0000000   0.0000000   0.0000000   0.0000000   0.0000000   0.0000000
 NMagM=    0.4037610   0.0000000   0.0000000   0.0000000   0.0000000   0.0000000   2.7928460   0.0000000   0.0000000   2.7928460
 AtZNuc=   7.0000000  16.0000000   6.0000000   6.0000000   6.0000000   6.0000000   1.0000000   6.0000000   6.0000000   1.0000000

  Atom        21          22          23          24          25
 IAtWgt=           1           1          12          16           1
 AtmWgt=   1.0078250   1.0078250  12.0000000  15.9949146   1.0078250
 NucSpn=           1           1           0           0           1
 AtZEff=  -0.0000000  -0.0000000  -0.0000000  -0.0000000  -0.0000000
 NQMom=    0.0000000   0.0000000   0.0000000   0.0000000   0.0000000
 NMagM=    2.7928460   2.7928460   0.0000000   0.0000000   2.7928460
 AtZNuc=   1.0000000   1.0000000   6.0000000   8.0000000   1.0000000
 Leave Link  101 at Tue Jul 14 16:03:32 2020, MaxMem=  7784628224 cpu:              32.6 elap:               3.3
 (Enter /gpfs/loomis/apps/avx/software/Gaussian/16-C.01_AVX/g16/l103.exe)

 GradGradGradGradGradGradGradGradGradGradGradGradGradGradGradGradGradGrad
 Berny optimization.
 Initialization pass.
                           ----------------------------
                           !    Initial Parameters    !
                           ! (Angstroms and Degrees)  !
 --------------------------                            --------------------------
 ! Name  Definition              Value          Derivative Info.                !
 --------------------------------------------------------------------------------
 ! R1    R(1,2)                  1.3992         estimate D2E/DX2                !
 ! R2    R(1,6)                  1.3972         estimate D2E/DX2                !
 ! R3    R(1,7)                  1.1006         estimate D2E/DX2                !
 ! R4    R(2,3)                  1.4322         estimate D2E/DX2                !
 ! R5    R(2,12)                 1.7358         estimate D2E/DX2                !
 ! R6    R(3,4)                  1.4234         estimate D2E/DX2                !
 ! R7    R(3,11)                 1.3796         estimate D2E/DX2                !
 ! R8    R(4,5)                  1.4039         estimate D2E/DX2                !
 ! R9    R(4,8)                  1.101          estimate D2E/DX2                !
 ! R10   R(5,6)                  1.4113         estimate D2E/DX2                !
 ! R11   R(5,9)                  1.0978         estimate D2E/DX2                !
 ! R12   R(6,10)                 1.0968         estimate D2E/DX2                !
 ! R13   R(11,23)                1.3648         estimate D2E/DX2                !
 ! R14   R(11,25)                1.2514         estimate D2E/DX2                !
 ! R15   R(12,23)                1.7321         estimate D2E/DX2                !
 ! R16   R(13,14)                1.4107         estimate D2E/DX2                !
 ! R17   R(13,15)                1.4651         estimate D2E/DX2                !
 ! R18   R(13,23)                1.4073         estimate D2E/DX2                !
 ! R19   R(14,16)                1.4057         estimate D2E/DX2                !
 ! R20   R(14,17)                1.0988         estimate D2E/DX2                !
 ! R21   R(15,18)                1.4257         estimate D2E/DX2                !
 ! R22   R(15,24)                1.2895         estimate D2E/DX2                !
 ! R23   R(16,19)                1.413          estimate D2E/DX2                !
 ! R24   R(16,20)                1.0966         estimate D2E/DX2                !
 ! R25   R(18,19)                1.4102         estimate D2E/DX2                !
 ! R26   R(18,21)                1.0994         estimate D2E/DX2                !
 ! R27   R(19,22)                1.0963         estimate D2E/DX2                !
 ! R28   R(24,25)                1.2843         estimate D2E/DX2                !
 ! A1    A(2,1,6)              118.1086         estimate D2E/DX2                !
 ! A2    A(2,1,7)              120.2385         estimate D2E/DX2                !
 ! A3    A(6,1,7)              121.6529         estimate D2E/DX2                !
 ! A4    A(1,2,3)              124.1467         estimate D2E/DX2                !
 ! A5    A(1,2,12)             124.2709         estimate D2E/DX2                !
 ! A6    A(3,2,12)             111.5824         estimate D2E/DX2                !
 ! A7    A(2,3,4)              116.4563         estimate D2E/DX2                !
 ! A8    A(2,3,11)             112.9464         estimate D2E/DX2                !
 ! A9    A(4,3,11)             130.5973         estimate D2E/DX2                !
 ! A10   A(3,4,5)              119.277          estimate D2E/DX2                !
 ! A11   A(3,4,8)              120.2523         estimate D2E/DX2                !
 ! A12   A(5,4,8)              120.4707         estimate D2E/DX2                !
 ! A13   A(4,5,6)              122.6466         estimate D2E/DX2                !
 ! A14   A(4,5,9)              118.4978         estimate D2E/DX2                !
 ! A15   A(6,5,9)              118.8557         estimate D2E/DX2                !
 ! A16   A(1,6,5)              119.3648         estimate D2E/DX2                !
 ! A17   A(1,6,10)             120.3174         estimate D2E/DX2                !
 ! A18   A(5,6,10)             120.3178         estimate D2E/DX2                !
 ! A19   A(3,11,23)            110.8994         estimate D2E/DX2                !
 ! A20   A(3,11,25)            151.6806         estimate D2E/DX2                !
 ! A21   A(23,11,25)            97.42           estimate D2E/DX2                !
 ! A22   A(2,12,23)             88.7466         estimate D2E/DX2                !
 ! A23   A(14,13,15)           120.6558         estimate D2E/DX2                !
 ! A24   A(14,13,23)           121.6703         estimate D2E/DX2                !
 ! A25   A(15,13,23)           117.6739         estimate D2E/DX2                !
 ! A26   A(13,14,16)           119.6942         estimate D2E/DX2                !
 ! A27   A(13,14,17)           120.322          estimate D2E/DX2                !
 ! A28   A(16,14,17)           119.9838         estimate D2E/DX2                !
 ! A29   A(13,15,18)           117.9065         estimate D2E/DX2                !
 ! A30   A(13,15,24)           116.7245         estimate D2E/DX2                !
 ! A31   A(18,15,24)           125.3689         estimate D2E/DX2                !
 ! A32   A(14,16,19)           120.5817         estimate D2E/DX2                !
 ! A33   A(14,16,20)           119.5206         estimate D2E/DX2                !
 ! A34   A(19,16,20)           119.8977         estimate D2E/DX2                !
 ! A35   A(15,18,19)           120.2732         estimate D2E/DX2                !
 ! A36   A(15,18,21)           118.3921         estimate D2E/DX2                !
 ! A37   A(19,18,21)           121.3347         estimate D2E/DX2                !
 ! A38   A(16,19,18)           120.8885         estimate D2E/DX2                !
 ! A39   A(16,19,22)           119.4414         estimate D2E/DX2                !
 ! A40   A(18,19,22)           119.6701         estimate D2E/DX2                !
 ! A41   A(11,23,12)           115.8253         estimate D2E/DX2                !
 ! A42   A(11,23,13)           125.8791         estimate D2E/DX2                !
 ! A43   A(12,23,13)           118.2956         estimate D2E/DX2                !
 ! A44   A(15,24,25)           108.2988         estimate D2E/DX2                !
 ! A45   A(11,25,24)           154.0036         estimate D2E/DX2                !
 ! D1    D(6,1,2,3)             -0.0001         estimate D2E/DX2                !
 ! D2    D(6,1,2,12)           179.9999         estimate D2E/DX2                !
 ! D3    D(7,1,2,3)            179.9999         estimate D2E/DX2                !
 ! D4    D(7,1,2,12)            -0.0001         estimate D2E/DX2                !
 ! D5    D(2,1,6,5)             -0.0002         estimate D2E/DX2                !
 ! D6    D(2,1,6,10)           179.9999         estimate D2E/DX2                !
 ! D7    D(7,1,6,5)            179.9999         estimate D2E/DX2                !
 ! D8    D(7,1,6,10)             0.0            estimate D2E/DX2                !
 ! D9    D(1,2,3,4)              0.0003         estimate D2E/DX2                !
 ! D10   D(1,2,3,11)          -179.9999         estimate D2E/DX2                !
 ! D11   D(12,2,3,4)          -179.9997         estimate D2E/DX2                !
 ! D12   D(12,2,3,11)            0.0001         estimate D2E/DX2                !
 ! D13   D(1,2,12,23)          179.9996         estimate D2E/DX2                !
 ! D14   D(3,2,12,23)           -0.0004         estimate D2E/DX2                !
 ! D15   D(2,3,4,5)             -0.0003         estimate D2E/DX2                !
 ! D16   D(2,3,4,8)            179.9998         estimate D2E/DX2                !
 ! D17   D(11,3,4,5)           180.0            estimate D2E/DX2                !
 ! D18   D(11,3,4,8)             0.0001         estimate D2E/DX2                !
 ! D19   D(2,3,11,23)            0.0004         estimate D2E/DX2                !
 ! D20   D(2,3,11,25)          179.9941         estimate D2E/DX2                !
 ! D21   D(4,3,11,23)         -179.9998         estimate D2E/DX2                !
 ! D22   D(4,3,11,25)           -0.0061         estimate D2E/DX2                !
 ! D23   D(3,4,5,6)              0.0001         estimate D2E/DX2                !
 ! D24   D(3,4,5,9)           -179.9999         estimate D2E/DX2                !
 ! D25   D(8,4,5,6)            180.0            estimate D2E/DX2                !
 ! D26   D(8,4,5,9)              0.0            estimate D2E/DX2                !
 ! D27   D(4,5,6,1)              0.0002         estimate D2E/DX2                !
 ! D28   D(4,5,6,10)          -179.9999         estimate D2E/DX2                !
 ! D29   D(9,5,6,1)           -179.9999         estimate D2E/DX2                !
 ! D30   D(9,5,6,10)             0.0            estimate D2E/DX2                !
 ! D31   D(3,11,23,12)          -0.0008         estimate D2E/DX2                !
 ! D32   D(3,11,23,13)         179.998          estimate D2E/DX2                !
 ! D33   D(25,11,23,12)       -179.9977         estimate D2E/DX2                !
 ! D34   D(25,11,23,13)          0.0011         estimate D2E/DX2                !
 ! D35   D(3,11,25,24)        -179.9958         estimate D2E/DX2                !
 ! D36   D(23,11,25,24)         -0.0017         estimate D2E/DX2                !
 ! D37   D(2,12,23,11)           0.0007         estimate D2E/DX2                !
 ! D38   D(2,12,23,13)        -179.9982         estimate D2E/DX2                !
 ! D39   D(15,13,14,16)          0.0016         estimate D2E/DX2                !
 ! D40   D(15,13,14,17)       -179.999          estimate D2E/DX2                !
 ! D41   D(23,13,14,16)       -179.9985         estimate D2E/DX2                !
 ! D42   D(23,13,14,17)          0.0009         estimate D2E/DX2                !
 ! D43   D(14,13,15,18)         -0.0019         estimate D2E/DX2                !
 ! D44   D(14,13,15,24)        179.9978         estimate D2E/DX2                !
 ! D45   D(23,13,15,18)        179.9982         estimate D2E/DX2                !
 ! D46   D(23,13,15,24)         -0.0021         estimate D2E/DX2                !
 ! D47   D(14,13,23,11)       -179.9996         estimate D2E/DX2                !
 ! D48   D(14,13,23,12)         -0.0008         estimate D2E/DX2                !
 ! D49   D(15,13,23,11)          0.0003         estimate D2E/DX2                !
 ! D50   D(15,13,23,12)        179.9991         estimate D2E/DX2                !
 ! D51   D(13,14,16,19)         -0.0004         estimate D2E/DX2                !
 ! D52   D(13,14,16,20)        179.9996         estimate D2E/DX2                !
 ! D53   D(17,14,16,19)       -179.9998         estimate D2E/DX2                !
 ! D54   D(17,14,16,20)          0.0002         estimate D2E/DX2                !
 ! D55   D(13,15,18,19)          0.0009         estimate D2E/DX2                !
 ! D56   D(13,15,18,21)       -179.9999         estimate D2E/DX2                !
 ! D57   D(24,15,18,19)       -179.9988         estimate D2E/DX2                !
 ! D58   D(24,15,18,21)          0.0004         estimate D2E/DX2                !
 ! D59   D(13,15,24,25)          0.0019         estimate D2E/DX2                !
 ! D60   D(18,15,24,25)       -179.9984         estimate D2E/DX2                !
 ! D61   D(14,16,19,18)         -0.0006         estimate D2E/DX2                !
 ! D62   D(14,16,19,22)        179.9997         estimate D2E/DX2                !
 ! D63   D(20,16,19,18)        179.9995         estimate D2E/DX2                !
 ! D64   D(20,16,19,22)         -0.0002         estimate D2E/DX2                !
 ! D65   D(15,18,19,16)          0.0003         estimate D2E/DX2                !
 ! D66   D(15,18,19,22)        179.9999         estimate D2E/DX2                !
 ! D67   D(21,18,19,16)       -179.9989         estimate D2E/DX2                !
 ! D68   D(21,18,19,22)          0.0008         estimate D2E/DX2                !
 ! D69   D(15,24,25,11)          0.0001         estimate D2E/DX2                !
 ! Qtot  GIC-1                   0.0            Frozen                          !
 ! Ptot  GIC-2                 220.0            Frozen                          !
 --------------------------------------------------------------------------------
 NOTE: GIC-type coordinates are in arbitrary units.
 Trust Radius=3.00D-01 FncErr=5.00D-06 GrdErr=5.00D-06 EigMax=2.50D+02 EigMin=1.00D-04
 Number of steps in this run=    150 maximum allowed number of steps=    150.
 GradGradGradGradGradGradGradGradGradGradGradGradGradGradGradGradGradGrad

 Leave Link  103 at Tue Jul 14 16:03:32 2020, MaxMem=  7784628224 cpu:               0.1 elap:               0.0
 (Enter /gpfs/loomis/apps/avx/software/Gaussian/16-C.01_AVX/g16/l202.exe)
                          Input orientation:                          
 ---------------------------------------------------------------------
 Center     Atomic      Atomic             Coordinates (Angstroms)
 Number     Number       Type             X           Y           Z
 ---------------------------------------------------------------------
      1          6           0        1.504360   -3.248622   -0.000016
      2          6           0        0.999080   -1.943831   -0.000023
      3          6           0        1.814059   -0.766167   -0.000029
      4          6           0        3.222760   -0.969869   -0.000032
      5          6           0        3.726988   -2.280081   -0.000024
      6          6           0        2.891373   -3.417446   -0.000014
      7          1           0        0.817819   -4.108863   -0.000010
      8          1           0        3.907871   -0.107960   -0.000039
      9          1           0        4.815514   -2.422399   -0.000025
     10          1           0        3.326576   -4.424218   -0.000007
     11          7           0        1.075474    0.399040   -0.000034
     12         16           0       -0.691490   -1.550359   -0.000027
     13          6           0       -1.297105    1.081149    0.000014
     14          6           0       -2.655338    0.699914    0.000030
     15          6           0       -0.918463    2.496518    0.000037
     16          6           0       -3.655758    1.687397    0.000035
     17          1           0       -2.933105   -0.363148    0.000029
     18          6           0       -1.963129    3.466727    0.000035
     19          6           0       -3.312846    3.058115    0.000031
     20          1           0       -4.710696    1.387839    0.000040
     21          1           0       -1.688018    4.531152    0.000051
     22          1           0       -4.108263    3.812589    0.000030
     23          6           0       -0.262039    0.127653   -0.000023
     24          8           0        0.344054    2.759061    0.000064
     25          1           0        0.987093    1.647355    0.000022
 ---------------------------------------------------------------------
                    Distance matrix (angstroms):
                    1          2          3          4          5
     1  C    0.000000
     2  C    1.399210   0.000000
     3  C    2.501699   1.432161   0.000000
     4  C    2.854053   2.427624   1.423353   0.000000
     5  C    2.424489   2.748554   2.439515   1.403888   0.000000
     6  C    1.397250   2.398398   2.861797   2.469909   1.411329
     7  H    1.100615   2.172607   3.487996   3.954368   3.436234
     8  H    3.954823   3.439693   2.194831   1.101028   2.179639
     9  H    3.412680   3.846323   3.428095   2.155623   1.097790
    10  H    2.168525   3.401406   3.958415   3.455909   2.181205
    11  N    3.672789   2.344116   1.379570   2.546517   3.769379
    12  S    2.775942   1.735755   2.625402   3.957060   4.478330
    13  C    5.157047   3.797759   3.618276   4.963452   6.044782
    14  C    5.735331   4.510450   4.703712   6.110664   7.043753
    15  C    6.235119   4.836701   4.255795   5.400516   6.663041
    16  C    7.140805   5.903671   5.994904   7.373946   8.381278
    17  H    5.293114   4.237999   4.764240   6.185692   6.930474
    18  C    7.557738   6.168373   5.673142   6.824722   8.087227
    19  C    7.936019   6.603951   6.396115   7.677161   8.834908
    20  H    7.753947   6.610716   6.871111   8.276383   9.200443
    21  H    8.409290   7.010413   6.350285   7.374074   8.701447
    22  H    9.020102   7.695540   7.485914   8.753046   9.925311
    23  C    3.810433   2.425173   2.260331   3.653543   4.659348
    24  O    6.118707   4.748290   3.819444   4.710825   6.069366
    25  H    4.923226   3.591206   2.551266   3.442102   4.788714
                    6          7          8          9         10
     6  C    0.000000
     7  H    2.185791   0.000000
     8  H    3.462074   5.055259   0.000000
     9  H    2.166203   4.338862   2.486050   0.000000
    10  H    1.096811   2.528500   4.355225   2.494838   0.000000
    11  N    4.226470   4.515261   2.877415   4.684914   5.322714
    12  S    4.040163   2.970515   4.820232   5.575621   4.940033
    13  C    6.146601   5.604386   5.339078   7.045493   7.189402
    14  C    6.907869   5.931877   6.612743   8.097066   7.876549
    15  C    7.034900   6.829769   5.484233   7.554750   8.118926
    16  C    8.302068   7.321853   7.773789   9.415566   9.279269
    17  H    6.576722   5.300926   6.845733   8.017581   7.461628
    18  C    8.423659   8.069898   6.873648   8.979522   9.499895
    19  C    8.968010   8.272120   7.884337   9.803380  10.003361
    20  H    8.993454   7.796039   8.747406  10.259951   9.918556
    21  H    9.173386   8.996059   7.268791   9.520914  10.263762
    22  H   10.063216   9.328221   8.923515  10.886179  11.096028
    23  C    4.744653   4.371975   4.176561   5.681928   5.796352
    24  O    6.681173   6.884246   4.573905   6.844084   7.777850
    25  H    5.410960   5.758707   3.407649   5.587460   6.506703
                   11         12         13         14         15
    11  N    0.000000
    12  S    2.631031   0.000000
    13  C    2.468685   2.700298   0.000000
    14  C    3.742925   2.986709   1.410722   0.000000
    15  C    2.893994   4.053238   1.465141   2.498904   0.000000
    16  C    4.903511   4.389755   2.435319   1.405689   2.854376
    17  H    4.080396   2.536593   2.182313   1.098751   3.498066
    18  C    4.317849   5.175734   2.476806   2.852089   1.425704
    19  C    5.131085   5.301843   2.823403   2.448148   2.459361
    20  H    5.870050   4.978657   3.427340   2.167426   3.950975
    21  H    4.971040   6.162617   3.472078   3.951467   2.175304
    22  H    6.206727   6.358896   3.919614   3.435075   3.450633
    23  C    1.364768   1.732095   1.407309   2.460765   2.458132
    24  O    2.470765   4.432094   2.347082   3.638192   1.289527
    25  H    1.251440   3.611512   2.353328   3.763635   2.086198
                   16         17         18         19         20
    16  C    0.000000
    17  H    2.174158   0.000000
    18  C    2.455812   3.950797   0.000000
    19  C    1.412960   3.442273   1.410212   0.000000
    20  H    1.096644   2.495153   3.445418   2.178028   0.000000
    21  H    3.458171   5.050189   1.099402   2.193149   4.360849
    22  H    2.172833   4.337946   2.172837   1.096322   2.498467
    23  C    3.734987   2.715783   3.747416   4.230252   4.623702
    24  O    4.140889   4.526363   2.413273   3.669107   5.237437
    25  H    4.643024   4.405686   3.466111   4.525452   5.703696
                   21         22         23         24         25
    21  H    0.000000
    22  H    2.524663   0.000000
    23  C    4.628630   5.326556   0.000000
    24  O    2.696223   4.575265   2.700307   0.000000
    25  H    3.933510   5.536325   1.967187   1.284286   0.000000
 Symmetry turned off by external request.
 Stoichiometry    C13H9NOS
 Framework group  C1[X(C13H9NOS)]
 Deg. of freedom    69
 Full point group                 C1      NOp   1
 Rotational constants (GHZ):           1.4124500           0.2864309           0.2381387
 Leave Link  202 at Tue Jul 14 16:03:32 2020, MaxMem=  7784628224 cpu:               0.1 elap:               0.0
 (Enter /gpfs/loomis/apps/avx/software/Gaussian/16-C.01_AVX/g16/l301.exe)
 Standard basis: CC-pVDZ (5D, 7F)
 Ernie: Thresh=  0.10000D-02 Tol=  0.10000D-05 Strict=F.
 Ernie:  40 primitive shells out of 425 were deleted.
   273 basis functions,   629 primitive gaussians,   289 cartesian basis functions
    59 alpha electrons       59 beta electrons
       nuclear repulsion energy      1100.4976547215 Hartrees.
 IExCor= 4639 DFT=T Ex+Corr=wB97XD ExCW=0 ScaHFX=  1.000000
 ScaDFX=  1.000000  1.000000  1.000000  1.000000 ScalE2=  1.000000  1.000000
 IRadAn=      5 IRanWt=     -1 IRanGd=            0 ICorTp=0 IEmpDi=121
 HFx  wShort=  0.000000 wLong=  0.200000 cFull=  0.222036 cShort=  0.000000 cLong=  0.777964
 DFx  wShort=  0.000000 wLong=  0.200000 cFull=  0.000000 cShort=  0.000000 cLong=  1.000000
 NAtoms=   25 NActive=   25 NUniq=   25 SFac= 1.00D+00 NAtFMM=   60 NAOKFM=F Big=F
 Integral buffers will be    131072 words long.
 Raffenetti 1 integral format.
 Two-electron integral symmetry is turned off.
 R6Disp:  Grimme-D2 Dispersion energy=       -0.0137975252 Hartrees.
 Nuclear repulsion after empirical dispersion term =     1100.4838571962 Hartrees.
 ------------------------------------------------------------------------------
 Polarizable Continuum Model (PCM)
 =================================
 Model                : PCM.
 Atomic radii         : UFF (Universal Force Field).
 Polarization charges : Total charges.
 Charge compensation  : None.
 Solution method      : On-the-fly selection.
 Cavity type          : Scaled VdW (van der Waals Surface) (Alpha=1.100).
 Cavity algorithm     : GePol (No added spheres)
                        Default sphere list used, NSphG=   25.
                        Lebedev-Laikov grids with approx.  5.0 points / Ang**2.
                        Smoothing algorithm: York/Karplus (Gamma=1.0000).
                        Polarization charges: spherical gaussians, with
                                              point-specific exponents (IZeta= 3).
                        Self-potential: point-specific (ISelfS= 7).
                        Self-field    : sphere-specific E.n sum rule (ISelfD= 2).
 1st derivatives      : Analytical E(r).r(x)/FMM algorithm (CHGder, D1EAlg=3).
                        Cavity 1st derivative terms included.
 Solvent              : CarbonTetraChloride, Eps=   2.228000 Eps(inf)=   2.131892
 ------------------------------------------------------------------------------
 GePol: Number of generator spheres                  =      25
 GePol: Total number of spheres                      =      25
 GePol: Number of exposed spheres                    =      25 (100.00%)
 GePol: Number of points                             =    2169
 GePol: Average weight of points                     =       0.13
 GePol: Minimum weight of points                     =   0.62D-08
 GePol: Maximum weight of points                     =    0.20577
 GePol: Number of points with low weight             =     144
 GePol: Fraction of low-weight points (<1% of avg)   =       6.64%
 GePol: Cavity surface area                          =    271.793 Ang**2
 GePol: Cavity volume                                =    292.489 Ang**3
 Leave Link  301 at Tue Jul 14 16:03:32 2020, MaxMem=  7784628224 cpu:               0.8 elap:               0.1
 (Enter /gpfs/loomis/apps/avx/software/Gaussian/16-C.01_AVX/g16/l302.exe)
 NPDir=0 NMtPBC=     1 NCelOv=     1 NCel=       1 NClECP=     1 NCelD=      1
         NCelK=      1 NCelE2=     1 NClLst=     1 CellRange=     0.0.
 One-electron integrals computed using PRISM.
 NBasis=   273 RedAO= T EigKep=  3.31D-04  NBF=   273
 NBsUse=   273 1.00D-06 EigRej= -1.00D+00 NBFU=   273
 Precomputing XC quadrature grid using
 IXCGrd= 4 IRadAn=           5 IRanWt=          -1 IRanGd=           0 AccXCQ= 0.00D+00.
 Generated NRdTot=       0 NPtTot=           0 NUsed=           0 NTot=          32
 NSgBfM=   288   288   288   288   288 MxSgAt=    25 MxSgA2=    25.
 Leave Link  302 at Tue Jul 14 16:03:33 2020, MaxMem=  7784628224 cpu:               7.8 elap:               0.9
 (Enter /gpfs/loomis/apps/avx/software/Gaussian/16-C.01_AVX/g16/l303.exe)
 DipDrv:  MaxL=1.
 Leave Link  303 at Tue Jul 14 16:03:33 2020, MaxMem=  7784628224 cpu:               0.6 elap:               0.1
 (Enter /gpfs/loomis/apps/avx/software/Gaussian/16-C.01_AVX/g16/l308.exe)
 Leave Link  308 at Tue Jul 14 16:03:34 2020, MaxMem=  7784628224 cpu:               0.5 elap:               0.1
 (Enter /gpfs/loomis/apps/avx/software/Gaussian/16-C.01_AVX/g16/l401.exe)
 ExpMin= 1.22D-01 ExpMax= 1.11D+05 ExpMxC= 1.07D+03 IAcc=3 IRadAn=         5 AccDes= 0.00D+00
 Harris functional with IExCor= 4639 and IRadAn=       5 diagonalized for initial guess.
 HarFok:  IExCor= 4639 AccDes= 0.00D+00 IRadAn=         5 IDoV= 1 UseB2=F ITyADJ=14
 ICtDFT=  3500011 ScaDFX=  1.000000  1.000000  1.000000  1.000000
 FoFCou: FMM=F IPFlag=           0 FMFlag=      100000 FMFlg1=           0
         NFxFlg=           0 DoJE=T BraDBF=F KetDBF=T FulRan=T
         wScrn=  0.000000 ICntrl=       500 IOpCl=  0 I1Cent=   200000004 NGrid=           0
         NMat0=    1 NMatS0=      1 NMatT0=    0 NMatD0=    1 NMtDS0=    0 NMtDT0=    0
 Symmetry not used in FoFCou.
 Harris En= -994.455613298340    
 JPrj=0 DoOrth=F DoCkMO=F.
 Leave Link  401 at Tue Jul 14 16:03:35 2020, MaxMem=  7784628224 cpu:              13.3 elap:               1.4
 (Enter /gpfs/loomis/apps/avx/software/Gaussian/16-C.01_AVX/g16/l502.exe)
 Two-electron integral symmetry not used.
 Closed shell SCF:
 Using DIIS extrapolation, IDIIS=  1040.
 NGot=  7784628224 LenX=  7784455381 LenY=  7784371419
 Requested convergence on RMS density matrix=1.00D-08 within 128 cycles.
 Requested convergence on MAX density matrix=1.00D-06.
 Requested convergence on             energy=1.00D-06.
 No special actions if energy rises.
 Fock matrices will be formed incrementally for  20 cycles.

 Cycle   1  Pass 1  IDiag  1:
 FoFJK:  IHMeth= 1 ICntrl=       0 DoSepK=T KAlg= 0 I1Cent=           0 FoldK=F
 IRaf=         1 NMat=       1 IRICut=       1 DoRegI=T DoRafI=F ISym2E= 0 IDoP0=0 IntGTp=1.
 FoFCou: FMM=F IPFlag=           0 FMFlag=      100000 FMFlg1=           0
         NFxFlg=           0 DoJE=T BraDBF=F KetDBF=F FulRan=T
         wScrn=  0.000000 ICntrl=       500 IOpCl=  0 I1Cent=           0 NGrid=           0
         NMat0=    1 NMatS0=      1 NMatT0=    0 NMatD0=    1 NMtDS0=    0 NMtDT0=    0
 Symmetry not used in FoFCou.
 Inv3:  Mode=1 IEnd=    14113683.
 Iteration    1 A*A^-1 deviation from unit magnitude is 5.11D-15 for   2159.
 Iteration    1 A*A^-1 deviation from orthogonality  is 2.12D-15 for   2155   1997.
 Iteration    1 A^-1*A deviation from unit magnitude is 5.00D-15 for   2163.
 Iteration    1 A^-1*A deviation from orthogonality  is 1.60D-15 for   2153   1995.
 E= -1028.56490767803    
 DIIS: error= 3.38D-02 at cycle   1 NSaved=   1.
 NSaved= 1 IEnMin= 1 EnMin= -1028.56490767803     IErMin= 1 ErrMin= 3.38D-02
 ErrMax= 3.38D-02  0.00D+00 EMaxC= 1.00D-01 BMatC= 3.91D-01 BMatP= 3.91D-01
 IDIUse=3 WtCom= 6.62D-01 WtEn= 3.38D-01
 Coeff-Com:  0.100D+01
 Coeff-En:   0.100D+01
 Coeff:      0.100D+01
 Gap=     0.332 Goal=   None    Shift=    0.000
 GapD=    0.332 DampG=1.000 DampE=0.500 DampFc=0.5000 IDamp=-1.
 Damping current iteration by 5.00D-01
 RMSDP=3.51D-03 MaxDP=2.21D-01              OVMax= 1.72D-01

 Cycle   2  Pass 1  IDiag  1:
 RMSU=  1.75D-03    CP:  9.93D-01
 E= -1028.68052740524     Delta-E=       -0.115619727208 Rises=F Damp=T
 DIIS: error= 1.09D-02 at cycle   2 NSaved=   2.
 NSaved= 2 IEnMin= 2 EnMin= -1028.68052740524     IErMin= 2 ErrMin= 1.09D-02
 ErrMax= 1.09D-02  0.00D+00 EMaxC= 1.00D-01 BMatC= 5.84D-02 BMatP= 3.91D-01
 IDIUse=3 WtCom= 8.91D-01 WtEn= 1.09D-01
 Coeff-Com: -0.288D+00 0.129D+01
 Coeff-En:   0.000D+00 0.100D+01
 Coeff:     -0.257D+00 0.126D+01
 Gap=     0.301 Goal=   None    Shift=    0.000
 RMSDP=1.13D-03 MaxDP=2.48D-02 DE=-1.16D-01 OVMax= 1.14D-01

 Cycle   3  Pass 1  IDiag  1:
 RMSU=  1.09D-03    CP:  9.92D-01  1.18D+00
 E= -1028.78248043610     Delta-E=       -0.101953030861 Rises=F Damp=F
 DIIS: error= 6.87D-03 at cycle   3 NSaved=   3.
 NSaved= 3 IEnMin= 3 EnMin= -1028.78248043610     IErMin= 3 ErrMin= 6.87D-03
 ErrMax= 6.87D-03  0.00D+00 EMaxC= 1.00D-01 BMatC= 1.56D-02 BMatP= 5.84D-02
 IDIUse=3 WtCom= 9.31D-01 WtEn= 6.87D-02
 Coeff-Com: -0.209D+00 0.505D+00 0.703D+00
 Coeff-En:   0.000D+00 0.000D+00 0.100D+01
 Coeff:     -0.194D+00 0.471D+00 0.724D+00
 Gap=     0.256 Goal=   None    Shift=    0.000
 RMSDP=5.63D-04 MaxDP=2.31D-02 DE=-1.02D-01 OVMax= 3.94D-02

 Cycle   4  Pass 1  IDiag  1:
 RMSU=  4.38D-04    CP:  9.89D-01  1.35D+00  8.17D-01
 E= -1028.79672217554     Delta-E=       -0.014241739441 Rises=F Damp=F
 DIIS: error= 2.28D-03 at cycle   4 NSaved=   4.
 NSaved= 4 IEnMin= 4 EnMin= -1028.79672217554     IErMin= 4 ErrMin= 2.28D-03
 ErrMax= 2.28D-03  0.00D+00 EMaxC= 1.00D-01 BMatC= 2.00D-03 BMatP= 1.56D-02
 IDIUse=3 WtCom= 9.77D-01 WtEn= 2.28D-02
 Coeff-Com: -0.736D-01 0.147D+00 0.351D+00 0.576D+00
 Coeff-En:   0.000D+00 0.000D+00 0.000D+00 0.100D+01
 Coeff:     -0.719D-01 0.143D+00 0.343D+00 0.585D+00
 Gap=     0.254 Goal=   None    Shift=    0.000
 RMSDP=1.80D-04 MaxDP=1.04D-02 DE=-1.42D-02 OVMax= 1.42D-02

 Cycle   5  Pass 1  IDiag  1:
 RMSU=  1.06D-04    CP:  9.90D-01  1.36D+00  8.96D-01  7.35D-01
 E= -1028.79877221625     Delta-E=       -0.002050040707 Rises=F Damp=F
 DIIS: error= 4.76D-04 at cycle   5 NSaved=   5.
 NSaved= 5 IEnMin= 5 EnMin= -1028.79877221625     IErMin= 5 ErrMin= 4.76D-04
 ErrMax= 4.76D-04  0.00D+00 EMaxC= 1.00D-01 BMatC= 5.78D-05 BMatP= 2.00D-03
 IDIUse=3 WtCom= 9.95D-01 WtEn= 4.76D-03
 Coeff-Com: -0.379D-02 0.154D-02 0.457D-01 0.170D+00 0.786D+00
 Coeff-En:   0.000D+00 0.000D+00 0.000D+00 0.000D+00 0.100D+01
 Coeff:     -0.377D-02 0.153D-02 0.455D-01 0.169D+00 0.787D+00
 Gap=     0.255 Goal=   None    Shift=    0.000
 RMSDP=5.11D-05 MaxDP=1.84D-03 DE=-2.05D-03 OVMax= 4.51D-03

 Cycle   6  Pass 1  IDiag  1:
 RMSU=  3.36D-05    CP:  9.89D-01  1.36D+00  9.13D-01  8.09D-01  1.06D+00
 E= -1028.79888223615     Delta-E=       -0.000110019897 Rises=F Damp=F
 DIIS: error= 1.93D-04 at cycle   6 NSaved=   6.
 NSaved= 6 IEnMin= 6 EnMin= -1028.79888223615     IErMin= 6 ErrMin= 1.93D-04
 ErrMax= 1.93D-04  0.00D+00 EMaxC= 1.00D-01 BMatC= 1.21D-05 BMatP= 5.78D-05
 IDIUse=3 WtCom= 9.98D-01 WtEn= 1.93D-03
 Coeff-Com:  0.141D-01-0.298D-01-0.505D-01-0.445D-01 0.271D+00 0.840D+00
 Coeff-En:   0.000D+00 0.000D+00 0.000D+00 0.000D+00 0.000D+00 0.100D+01
 Coeff:      0.141D-01-0.298D-01-0.504D-01-0.444D-01 0.271D+00 0.840D+00
 Gap=     0.256 Goal=   None    Shift=    0.000
 RMSDP=2.88D-05 MaxDP=1.43D-03 DE=-1.10D-04 OVMax= 3.14D-03

 Cycle   7  Pass 1  IDiag  1:
 RMSU=  1.61D-05    CP:  9.89D-01  1.36D+00  9.23D-01  8.36D-01  1.22D+00
                    CP:  1.20D+00
 E= -1028.79891086721     Delta-E=       -0.000028631060 Rises=F Damp=F
 DIIS: error= 1.21D-04 at cycle   7 NSaved=   7.
 NSaved= 7 IEnMin= 7 EnMin= -1028.79891086721     IErMin= 7 ErrMin= 1.21D-04
 ErrMax= 1.21D-04  0.00D+00 EMaxC= 1.00D-01 BMatC= 2.70D-06 BMatP= 1.21D-05
 IDIUse=3 WtCom= 9.99D-01 WtEn= 1.21D-03
 Coeff-Com:  0.727D-02-0.140D-01-0.309D-01-0.496D-01-0.653D-02 0.384D+00
 Coeff-Com:  0.710D+00
 Coeff-En:   0.000D+00 0.000D+00 0.000D+00 0.000D+00 0.000D+00 0.000D+00
 Coeff-En:   0.100D+01
 Coeff:      0.726D-02-0.140D-01-0.309D-01-0.495D-01-0.652D-02 0.384D+00
 Coeff:      0.710D+00
 Gap=     0.256 Goal=   None    Shift=    0.000
 RMSDP=1.21D-05 MaxDP=5.77D-04 DE=-2.86D-05 OVMax= 1.42D-03

 Cycle   8  Pass 1  IDiag  1:
 RMSU=  7.14D-06    CP:  9.89D-01  1.36D+00  9.25D-01  8.43D-01  1.26D+00
                    CP:  1.41D+00  1.11D+00
 E= -1028.79891673855     Delta-E=       -0.000005871348 Rises=F Damp=F
 DIIS: error= 4.58D-05 at cycle   8 NSaved=   8.
 NSaved= 8 IEnMin= 8 EnMin= -1028.79891673855     IErMin= 8 ErrMin= 4.58D-05
 ErrMax= 4.58D-05  0.00D+00 EMaxC= 1.00D-01 BMatC= 3.05D-07 BMatP= 2.70D-06
 IDIUse=1 WtCom= 1.00D+00 WtEn= 0.00D+00
 Coeff-Com: -0.112D-02 0.253D-02 0.366D-02 0.124D-03-0.403D-01-0.772D-01
 Coeff-Com:  0.168D+00 0.944D+00
 Coeff:     -0.112D-02 0.253D-02 0.366D-02 0.124D-03-0.403D-01-0.772D-01
 Coeff:      0.168D+00 0.944D+00
 Gap=     0.256 Goal=   None    Shift=    0.000
 RMSDP=5.91D-06 MaxDP=1.98D-04 DE=-5.87D-06 OVMax= 9.08D-04

 Cycle   9  Pass 1  IDiag  1:
 RMSU=  2.58D-06    CP:  9.89D-01  1.36D+00  9.25D-01  8.44D-01  1.27D+00
                    CP:  1.49D+00  1.35D+00  1.25D+00
 E= -1028.79891787080     Delta-E=       -0.000001132243 Rises=F Damp=F
 DIIS: error= 2.22D-05 at cycle   9 NSaved=   9.
 NSaved= 9 IEnMin= 9 EnMin= -1028.79891787080     IErMin= 9 ErrMin= 2.22D-05
 ErrMax= 2.22D-05  0.00D+00 EMaxC= 1.00D-01 BMatC= 5.39D-08 BMatP= 3.05D-07
 IDIUse=1 WtCom= 1.00D+00 WtEn= 0.00D+00
 Coeff-Com: -0.119D-02 0.237D-02 0.494D-02 0.651D-02-0.106D-01-0.803D-01
 Coeff-Com: -0.426D-01 0.278D+00 0.843D+00
 Coeff:     -0.119D-02 0.237D-02 0.494D-02 0.651D-02-0.106D-01-0.803D-01
 Coeff:     -0.426D-01 0.278D+00 0.843D+00
 Gap=     0.256 Goal=   None    Shift=    0.000
 RMSDP=2.67D-06 MaxDP=7.32D-05 DE=-1.13D-06 OVMax= 4.66D-04

 Cycle  10  Pass 1  IDiag  1:
 RMSU=  1.25D-06    CP:  9.89D-01  1.36D+00  9.25D-01  8.43D-01  1.28D+00
                    CP:  1.53D+00  1.43D+00  1.44D+00  1.23D+00
 E= -1028.79891810658     Delta-E=       -0.000000235785 Rises=F Damp=F
 DIIS: error= 9.07D-06 at cycle  10 NSaved=  10.
 NSaved=10 IEnMin=10 EnMin= -1028.79891810658     IErMin=10 ErrMin= 9.07D-06
 ErrMax= 9.07D-06  0.00D+00 EMaxC= 1.00D-01 BMatC= 1.86D-08 BMatP= 5.39D-08
 IDIUse=1 WtCom= 1.00D+00 WtEn= 0.00D+00
 Coeff-Com: -0.180D-03 0.297D-03 0.109D-02 0.262D-02 0.516D-02-0.166D-01
 Coeff-Com: -0.535D-01-0.121D+00 0.362D+00 0.820D+00
 Coeff:     -0.180D-03 0.297D-03 0.109D-02 0.262D-02 0.516D-02-0.166D-01
 Coeff:     -0.535D-01-0.121D+00 0.362D+00 0.820D+00
 Gap=     0.256 Goal=   None    Shift=    0.000
 RMSDP=1.54D-06 MaxDP=4.13D-05 DE=-2.36D-07 OVMax= 2.49D-04

 Cycle  11  Pass 1  IDiag  1:
 RMSU=  5.62D-07    CP:  9.89D-01  1.36D+00  9.25D-01  8.44D-01  1.28D+00
                    CP:  1.54D+00  1.47D+00  1.53D+00  1.58D+00  1.17D+00
 E= -1028.79891817377     Delta-E=       -0.000000067189 Rises=F Damp=F
 DIIS: error= 5.14D-06 at cycle  11 NSaved=  11.
 NSaved=11 IEnMin=11 EnMin= -1028.79891817377     IErMin=11 ErrMin= 5.14D-06
 ErrMax= 5.14D-06  0.00D+00 EMaxC= 1.00D-01 BMatC= 2.35D-09 BMatP= 1.86D-08
 IDIUse=1 WtCom= 1.00D+00 WtEn= 0.00D+00
 Coeff-Com:  0.254D-03-0.526D-03-0.881D-03-0.791D-03 0.459D-02 0.116D-01
 Coeff-Com: -0.464D-02-0.952D-01-0.423D-01 0.204D+00 0.924D+00
 Coeff:      0.254D-03-0.526D-03-0.881D-03-0.791D-03 0.459D-02 0.116D-01
 Coeff:     -0.464D-02-0.952D-01-0.423D-01 0.204D+00 0.924D+00
 Gap=     0.256 Goal=   None    Shift=    0.000
 RMSDP=6.61D-07 MaxDP=1.90D-05 DE=-6.72D-08 OVMax= 1.28D-04

 Cycle  12  Pass 1  IDiag  1:
 RMSU=  2.28D-07    CP:  9.89D-01  1.36D+00  9.25D-01  8.44D-01  1.28D+00
                    CP:  1.55D+00  1.49D+00  1.56D+00  1.73D+00  1.45D+00
                    CP:  1.18D+00
 E= -1028.79891818628     Delta-E=       -0.000000012514 Rises=F Damp=F
 DIIS: error= 1.20D-06 at cycle  12 NSaved=  12.
 NSaved=12 IEnMin=12 EnMin= -1028.79891818628     IErMin=12 ErrMin= 1.20D-06
 ErrMax= 1.20D-06  0.00D+00 EMaxC= 1.00D-01 BMatC= 7.84D-10 BMatP= 2.35D-09
 IDIUse=1 WtCom= 1.00D+00 WtEn= 0.00D+00
 Coeff-Com:  0.136D-03-0.269D-03-0.561D-03-0.875D-03 0.111D-02 0.813D-02
 Coeff-Com:  0.959D-02-0.166D-01-0.939D-01-0.123D+00 0.381D+00 0.835D+00
 Coeff:      0.136D-03-0.269D-03-0.561D-03-0.875D-03 0.111D-02 0.813D-02
 Coeff:      0.959D-02-0.166D-01-0.939D-01-0.123D+00 0.381D+00 0.835D+00
 Gap=     0.256 Goal=   None    Shift=    0.000
 RMSDP=3.43D-07 MaxDP=8.02D-06 DE=-1.25D-08 OVMax= 5.47D-05

 Cycle  13  Pass 1  IDiag  1:
 RMSU=  9.35D-08    CP:  9.89D-01  1.36D+00  9.25D-01  8.44D-01  1.28D+00
                    CP:  1.55D+00  1.49D+00  1.57D+00  1.81D+00  1.56D+00
                    CP:  1.46D+00  1.11D+00
 E= -1028.79891818879     Delta-E=       -0.000000002510 Rises=F Damp=F
 DIIS: error= 5.90D-07 at cycle  13 NSaved=  13.
 NSaved=13 IEnMin=13 EnMin= -1028.79891818879     IErMin=13 ErrMin= 5.90D-07
 ErrMax= 5.90D-07  0.00D+00 EMaxC= 1.00D-01 BMatC= 6.27D-11 BMatP= 7.84D-10
 IDIUse=1 WtCom= 1.00D+00 WtEn= 0.00D+00
 Coeff-Com:  0.551D-05-0.706D-05-0.472D-04-0.180D-03-0.231D-03 0.928D-03
 Coeff-Com:  0.366D-02 0.837D-02-0.201D-01-0.727D-01-0.757D-02 0.253D+00
 Coeff-Com:  0.835D+00
 Coeff:      0.551D-05-0.706D-05-0.472D-04-0.180D-03-0.231D-03 0.928D-03
 Coeff:      0.366D-02 0.837D-02-0.201D-01-0.727D-01-0.757D-02 0.253D+00
 Coeff:      0.835D+00
 Gap=     0.256 Goal=   None    Shift=    0.000
 RMSDP=8.57D-08 MaxDP=2.00D-06 DE=-2.51D-09 OVMax= 1.27D-05

 Cycle  14  Pass 1  IDiag  1:
 RMSU=  3.71D-08    CP:  9.89D-01  1.36D+00  9.25D-01  8.44D-01  1.28D+00
                    CP:  1.55D+00  1.49D+00  1.58D+00  1.82D+00  1.59D+00
                    CP:  1.53D+00  1.27D+00  1.05D+00
 E= -1028.79891818898     Delta-E=       -0.000000000183 Rises=F Damp=F
 DIIS: error= 1.60D-07 at cycle  14 NSaved=  14.
 NSaved=14 IEnMin=14 EnMin= -1028.79891818898     IErMin=14 ErrMin= 1.60D-07
 ErrMax= 1.60D-07  0.00D+00 EMaxC= 1.00D-01 BMatC= 1.30D-11 BMatP= 6.27D-11
 IDIUse=1 WtCom= 1.00D+00 WtEn= 0.00D+00
 Coeff-Com: -0.129D-04 0.269D-04 0.438D-04 0.202D-04-0.207D-03-0.456D-03
 Coeff-Com:  0.534D-03 0.557D-02 0.252D-02-0.179D-01-0.446D-01 0.792D-02
 Coeff-Com:  0.360D+00 0.687D+00
 Coeff:     -0.129D-04 0.269D-04 0.438D-04 0.202D-04-0.207D-03-0.456D-03
 Coeff:      0.534D-03 0.557D-02 0.252D-02-0.179D-01-0.446D-01 0.792D-02
 Coeff:      0.360D+00 0.687D+00
 Gap=     0.256 Goal=   None    Shift=    0.000
 RMSDP=2.29D-08 MaxDP=6.29D-07 DE=-1.83D-10 OVMax= 2.02D-06

 Cycle  15  Pass 1  IDiag  1:
 RMSU=  1.35D-08    CP:  9.89D-01  1.36D+00  9.25D-01  8.44D-01  1.28D+00
                    CP:  1.55D+00  1.49D+00  1.58D+00  1.82D+00  1.60D+00
                    CP:  1.54D+00  1.30D+00  1.19D+00  9.51D-01
 E= -1028.79891818900     Delta-E=       -0.000000000028 Rises=F Damp=F
 DIIS: error= 8.29D-08 at cycle  15 NSaved=  15.
 NSaved=15 IEnMin=15 EnMin= -1028.79891818900     IErMin=15 ErrMin= 8.29D-08
 ErrMax= 8.29D-08  0.00D+00 EMaxC= 1.00D-01 BMatC= 1.02D-12 BMatP= 1.30D-11
 IDIUse=1 WtCom= 1.00D+00 WtEn= 0.00D+00
 Coeff-Com: -0.426D-05 0.806D-05 0.206D-04 0.363D-04-0.189D-04-0.307D-03
 Coeff-Com: -0.607D-03-0.203D-03 0.440D-02 0.853D-02-0.817D-02-0.438D-01
 Coeff-Com: -0.489D-01 0.162D+00 0.927D+00
 Coeff:     -0.426D-05 0.806D-05 0.206D-04 0.363D-04-0.189D-04-0.307D-03
 Coeff:     -0.607D-03-0.203D-03 0.440D-02 0.853D-02-0.817D-02-0.438D-01
 Coeff:     -0.489D-01 0.162D+00 0.927D+00
 Gap=     0.256 Goal=   None    Shift=    0.000
 RMSDP=9.71D-09 MaxDP=1.95D-07 DE=-2.75D-11 OVMax= 1.06D-06

 Error on total polarization charges =  0.00815
 SCF Done:  E(RwB97XD) =  -1028.79891819     A.U. after   15 cycles
            NFock= 15  Conv=0.97D-08     -V/T= 2.0052
 KE= 1.023437246174D+03 PE=-4.612797464507D+03 EE= 1.460077442949D+03
 Leave Link  502 at Tue Jul 14 16:04:58 2020, MaxMem=  7784628224 cpu:             818.7 elap:              82.6
 (Enter /gpfs/loomis/apps/avx/software/Gaussian/16-C.01_AVX/g16/l801.exe)
 DoSCS=F DFT=T ScalE2(SS,OS)=  1.000000  1.000000
 ExpMin= 1.22D-01 ExpMax= 1.11D+05 ExpMxC= 1.07D+03 IAcc=3 IRadAn=         5 AccDes= 0.00D+00
 HarFok:  IExCor=  205 AccDes= 0.00D+00 IRadAn=         5 IDoV=-2 UseB2=F ITyADJ=14
 ICtDFT= 12500011 ScaDFX=  1.000000  1.000000  1.000000  1.000000
 Largest valence mixing into a core orbital is  9.39D-05
 Largest core mixing into a valence orbital is  3.10D-05
 Range of M.O.s used for correlation:    21   273
 NBasis=   273 NAE=    59 NBE=    59 NFC=    20 NFV=     0
 NROrb=    253 NOA=    39 NOB=    39 NVA=   214 NVB=   214

 **** Warning!!: The largest alpha MO coefficient is  0.11754732D+02

 Leave Link  801 at Tue Jul 14 16:04:58 2020, MaxMem=  7784628224 cpu:               1.0 elap:               0.1
 (Enter /gpfs/loomis/apps/avx/software/Gaussian/16-C.01_AVX/g16/l914.exe)
 RHF ground state
 Keep R1, R2, and R3 ints in memory in canonical form, NReq=4262515490.
 FoFCou: FMM=F IPFlag=           0 FMFlag=           0 FMFlg1=           0
         NFxFlg=           0 DoJE=F BraDBF=F KetDBF=F FulRan=T
         wScrn=  0.000000 ICntrl=       600 IOpCl=  0 I1Cent=           0 NGrid=           0
         NMat0=    1 NMatS0=  37401 NMatT0=    0 NMatD0=    1 NMtDS0=    0 NMtDT0=    0
 Symmetry not used in FoFCou.
 Two-electron integral symmetry not used.
 MDV=  7784628224 DFT=T DoStab=F Mixed=T DoRPA=T DoScal=F NonHer=T
 NEqPCM:  Using equilibrium solvation (IEInf=0, Eps=   2.2280, EpsInf=   2.1319)
 Making orbital integer symmetry assigments:
    12 initial guesses have been made.
 Convergence on wavefunction:    0.000001000000000
 Davidson Disk Diagonalization:  ConvIn= 1.00D-06 SkipCon=T Conv= 1.00D-06.
 Max sub-space:  2000 roots to seek:    12 dimension of matrix:        16692
 Iteration     1 Dimension    12 NMult     0 NNew     12
 CISAX will form    12 AO SS matrices at one time.
 NMat=    12 NSing=    12 JSym2X= 0.
 New state      2 was old state      5
 New state      3 was old state      2
 Excitation Energies [eV] at current iteration:
 Root      1 :     3.742701715803698
 Root      2 :     4.813440021695844
 Root      3 :     4.857362973182427
 Root      4 :     5.206920327800310
 Root      5 :     5.893468099694365
 Root      6 :     6.014885083359776
 Root      7 :     6.198961660614373
 Root      8 :     6.328037017010475
 Root      9 :     6.850870510375630
 Root     10 :     7.015260953333789
 Root     11 :     7.108378713690043
 Root     12 :     7.819583952684234
 Iteration     2 Dimension    18 NMult    12 NNew      6
 CISAX will form     6 AO SS matrices at one time.
 NMat=     6 NSing=     6 JSym2X= 0.
 Root      1 not converged, maximum delta is    0.044436649906789
 New state      2 was old state      3
 Root      2 not converged, maximum delta is    0.080234779231777
 New state      3 was old state      2
 Root      3 not converged, maximum delta is    0.081525070147105
 Excitation Energies [eV] at current iteration:
 Root      1 :     3.248743714963225   Change is   -0.493958000840474
 Root      2 :     4.323486942759407   Change is   -0.533876030423020
 Root      3 :     4.608813111662615   Change is   -0.204626910033229
 Iteration     3 Dimension    24 NMult    18 NNew      6
 CISAX will form     6 AO SS matrices at one time.
 NMat=     6 NSing=     6 JSym2X= 0.
 Root      1 not converged, maximum delta is    0.020752744473045
 Root      2 not converged, maximum delta is    0.018646632848371
 Root      3 not converged, maximum delta is    0.028794175277163
 Excitation Energies [eV] at current iteration:
 Root      1 :     3.214017335364364   Change is   -0.034726379598861
 Root      2 :     4.295622888524599   Change is   -0.027864054234809
 Root      3 :     4.592278845263030   Change is   -0.016534266399585
 Iteration     4 Dimension    30 NMult    24 NNew      6
 CISAX will form     6 AO SS matrices at one time.
 NMat=     6 NSing=     6 JSym2X= 0.
 Root      1 not converged, maximum delta is    0.007819269321940
 Root      2 not converged, maximum delta is    0.008182482740547
 Root      3 not converged, maximum delta is    0.010110780999647
 Excitation Energies [eV] at current iteration:
 Root      1 :     3.209005015094899   Change is   -0.005012320269464
 Root      2 :     4.290657396611817   Change is   -0.004965491912781
 Root      3 :     4.590613707636812   Change is   -0.001665137626218
 Iteration     5 Dimension    36 NMult    30 NNew      6
 CISAX will form     6 AO SS matrices at one time.
 NMat=     6 NSing=     6 JSym2X= 0.
 Root      1 not converged, maximum delta is    0.003155087973667
 Root      2 not converged, maximum delta is    0.002593741764040
 Root      3 not converged, maximum delta is    0.002196380858071
 Excitation Energies [eV] at current iteration:
 Root      1 :     3.208475119166637   Change is   -0.000529895928263
 Root      2 :     4.290191226345064   Change is   -0.000466170266753
 Root      3 :     4.590455410585570   Change is   -0.000158297051241
 Iteration     6 Dimension    42 NMult    36 NNew      6
 CISAX will form     6 AO SS matrices at one time.
 NMat=     6 NSing=     6 JSym2X= 0.
 Root      1 not converged, maximum delta is    0.000613816227062
 Root      2 not converged, maximum delta is    0.000776383376912
 Root      3 not converged, maximum delta is    0.000314545785230
 Excitation Energies [eV] at current iteration:
 Root      1 :     3.208418348936873   Change is   -0.000056770229764
 Root      2 :     4.290136423622291   Change is   -0.000054802722772
 Root      3 :     4.590443394365025   Change is   -0.000012016220545
 Iteration     7 Dimension    48 NMult    42 NNew      6
 CISAX will form     6 AO SS matrices at one time.
 NMat=     6 NSing=     6 JSym2X= 0.
 Root      1 not converged, maximum delta is    0.000189920586333
 Root      2 not converged, maximum delta is    0.000315107372668
 Root      3 not converged, maximum delta is    0.000099586071853
 Excitation Energies [eV] at current iteration:
 Root      1 :     3.208414366464677   Change is   -0.000003982472196
 Root      2 :     4.290129522487727   Change is   -0.000006901134564
 Root      3 :     4.590442664778030   Change is   -0.000000729586995
 Iteration     8 Dimension    54 NMult    48 NNew      6
 CISAX will form     6 AO SS matrices at one time.
 NMat=     6 NSing=     6 JSym2X= 0.
 Root      1 not converged, maximum delta is    0.000030277746493
 Root      2 not converged, maximum delta is    0.000070971790616
 Root      3 not converged, maximum delta is    0.000052547949992
 Excitation Energies [eV] at current iteration:
 Root      1 :     3.208414047139241   Change is   -0.000000319325436
 Root      2 :     4.290128919504410   Change is   -0.000000602983317
 Root      3 :     4.590442595695347   Change is   -0.000000069082684
 Iteration     9 Dimension    60 NMult    54 NNew      6
 CISAX will form     6 AO SS matrices at one time.
 NMat=     6 NSing=     6 JSym2X= 0.
 Root      1 not converged, maximum delta is    0.000009300921318
 Root      2 not converged, maximum delta is    0.000027089705289
 Root      3 not converged, maximum delta is    0.000015857805678
 Excitation Energies [eV] at current iteration:
 Root      1 :     3.208414029803996   Change is   -0.000000017335246
 Root      2 :     4.290128871427336   Change is   -0.000000048077075
 Root      3 :     4.590442589742861   Change is   -0.000000005952486
 Iteration    10 Dimension    66 NMult    60 NNew      6
 CISAX will form     6 AO SS matrices at one time.
 NMat=     6 NSing=     6 JSym2X= 0.
 Root      1 not converged, maximum delta is    0.000001701274551
 Root      2 not converged, maximum delta is    0.000005142057759
 Root      3 not converged, maximum delta is    0.000003413582724
 Excitation Energies [eV] at current iteration:
 Root      1 :     3.208414028749707   Change is   -0.000000001054288
 Root      2 :     4.290128867616719   Change is   -0.000000003810616
 Root      3 :     4.590442589217786   Change is   -0.000000000525075
 Iteration    11 Dimension    72 NMult    66 NNew      6
 CISAX will form     6 AO SS matrices at one time.
 NMat=     6 NSing=     6 JSym2X= 0.
 Root      1 has converged.
 Root      2 not converged, maximum delta is    0.000001730449724
 Root      3 has converged.
 Excitation Energies [eV] at current iteration:
 Root      1 :     3.208414028692569   Change is   -0.000000000057138
 Root      2 :     4.290128867330018   Change is   -0.000000000286702
 Root      3 :     4.590442589175361   Change is   -0.000000000042425
 Iteration    12 Dimension    74 NMult    72 NNew      2
 CISAX will form     2 AO SS matrices at one time.
 NMat=     2 NSing=     2 JSym2X= 0.
 Root      1 has converged.
 Root      2 has converged.
 Root      3 has converged.
 Excitation Energies [eV] at current iteration:
 Root      1 :     3.208414028692492   Change is   -0.000000000000077
 Root      2 :     4.290128867310740   Change is   -0.000000000019277
 Root      3 :     4.590442589175415   Change is    0.000000000000054
 Convergence achieved on expansion vectors.
 ***********************************************************************
 Excited states from <AA,BB:AA,BB> singles matrix:
 ***********************************************************************
 
 1PDM for each excited state written to RWF  633
 Ground to excited state transition densities written to RWF  633
 Ground to excited state transition electric dipole moments (Au):
       state          X           Y           Z        Dip. S.      Osc.
         1         1.3299     -2.0976     -0.0000      6.1687      0.4849
         2         1.4185     -0.7225     -0.0000      2.5342      0.2664
         3        -0.0000      0.0001      0.0128      0.0002      0.0000
 Ground to excited state transition velocity dipole moments (Au):
       state          X           Y           Z        Dip. S.      Osc.
         1        -0.1526      0.2499      0.0000      0.0857      0.4847
         2        -0.2195      0.1056      0.0000      0.0593      0.2508
         3         0.0000     -0.0000     -0.0017      0.0000      0.0000
 Ground to excited state transition magnetic dipole moments (Au):
       state          X           Y           Z
         1         0.0000      0.0000     -0.7988
         2         0.0000      0.0000      1.3839
         3         0.0229      0.0603     -0.0001
 Ground to excited state transition velocity quadrupole moments (Au):
       state          XX          YY          ZZ          XY          XZ          YZ
         1         0.0838      0.5479     -0.0148     -0.2847     -0.0000      0.0000
         2         0.4692     -0.7317     -0.0022      0.0326     -0.0000     -0.0000
         3        -0.0001      0.0000      0.0000      0.0000     -0.0223     -0.0146
 <0|del|b> * <b|rxdel|0> + <0|del|b> * <b|delr+rdel|0>
 Rotatory Strengths (R) in cgs (10**-40 erg-esu-cm/Gauss)
       state          XX          YY          ZZ    R(velocity)    E-M Angle
         1         0.0056     -0.0113      0.0160      0.0034       90.00
         2         0.0085      0.0019     -0.0103      0.0001       90.00
         3        -0.0022      0.0005     -0.0009     -0.0009       90.00
 1/2[<0|r|b>*<b|rxdel|0> + (<0|rxdel|b>*<b|r|0>)*]
 Rotatory Strengths (R) in cgs (10**-40 erg-esu-cm/Gauss)
       state          XX          YY          ZZ     R(length)
         1        -0.0025      0.0294     -0.0178      0.0030
         2        -0.0133      0.0017      0.0119      0.0001
         3         0.0003     -0.0035      0.0008     -0.0008
  1/2[<0|del|b>*<b|r|0> + (<0|r|b>*<b|del|0>)*] (Au)
       state          X           Y           Z        Dip. S.   Osc.(frdel)
         1        -0.2029     -0.5242     -0.0000      0.7271      0.4847
         2        -0.3114     -0.0763     -0.0000      0.3876      0.2584
         3        -0.0000     -0.0000     -0.0000      0.0000      0.0000

 Excitation energies and oscillator strengths:
 
 Excited state symmetry could not be determined.
 Excited State   1:      Singlet-?Sym    3.2084 eV  386.43 nm  f=0.4849  <S**2>=0.000
      59 -> 60         0.69339
 This state for optimization and/or second-order correction.
 Total Energy, E(TD-HF/TD-DFT) =  -1028.68101114    
 Copying the excited state density for this state as the 1-particle RhoCI density.
 
 Excited state symmetry could not be determined.
 Excited State   2:      Singlet-?Sym    4.2901 eV  289.00 nm  f=0.2664  <S**2>=0.000
      58 -> 60         0.67149
 
 Excited state symmetry could not be determined.
 Excited State   3:      Singlet-?Sym    4.5904 eV  270.09 nm  f=0.0000  <S**2>=0.000
      56 -> 60         0.68810
      56 -> 64        -0.10453
 SavETr:  write IOETrn=   770 NScale= 10 NData=  16 NLR=1 NState=    3 LETran=      64.
 The selected state is a singlet.
 CISGrd: IGrad=2 NXY=2 DFT=T
 CISAX will form     1 AO SS matrices at one time.
 NMat=     1 NSing=     1 JSym2X= 0.
 GePol: Maximum number of non-zero 1st derivatives   =     240
 Leave Link  914 at Tue Jul 14 16:07:49 2020, MaxMem=  7784628224 cpu:            1686.5 elap:             171.2
 (Enter /gpfs/loomis/apps/avx/software/Gaussian/16-C.01_AVX/g16/l1002.exe)
 Minotr:  Closed shell wavefunction.
          Computing CIS/TDA/TD derivatives.
          Using Z-Vector for PSCF gradient.
          Skipping F1 and S1 gradient terms here.
          IDoAtm=1111111111111111111111111
 NEqPCM:  Using equilibrium solvation (IEInf=0, Eps=   2.2280, EpsInf=   2.1319)
          Frozen-core window.
          Direct CPHF calculation.
          Differentiating once with respect to electric field.
                with respect to dipole field.
          Differentiating once with respect to nuclear coordinates.
          Requested convergence is 1.0D-10 RMS, and 1.0D-09 maximum.
          NewPWx=F KeepS1=T KeepF1=T KeepIn=T MapXYZ=F SortEE=F KeepMc=T.
 Keep R1 ints in memory in canonical form, NReq=1421356584.
 FoFCou: FMM=F IPFlag=           0 FMFlag=           0 FMFlg1=           0
         NFxFlg=           0 DoJE=F BraDBF=F KetDBF=F FulRan=T
         wScrn=  0.000000 ICntrl=       600 IOpCl=  0 I1Cent=           0 NGrid=           0
         NMat0=    1 NMatS0=  37401 NMatT0=    0 NMatD0=    1 NMtDS0=    0 NMtDT0=    0
 Symmetry not used in FoFCou.
 Two-electron integral symmetry not used.
          MDV=    7784628224 using IRadAn=       5.
          Solving linear equations separately, MaxMat=       0.
          There are     1 degrees of freedom in the 1st order CPHF.  IDoFFX=0 NUNeed=     1.
 LinEq1:  Iter=  0 NonCon=     1 RMS=5.60D-03 Max=2.96D-01 NDo=     1
 AX will form     1 AO Fock derivatives at one time.
 LinEq1:  Iter=  1 NonCon=     1 RMS=2.35D-03 Max=1.14D-01 NDo=     1
 LinEq1:  Iter=  2 NonCon=     1 RMS=1.49D-03 Max=5.23D-02 NDo=     1
 LinEq1:  Iter=  3 NonCon=     1 RMS=5.60D-04 Max=1.38D-02 NDo=     1
 LinEq1:  Iter=  4 NonCon=     1 RMS=3.10D-04 Max=1.02D-02 NDo=     1
 LinEq1:  Iter=  5 NonCon=     1 RMS=1.65D-04 Max=8.00D-03 NDo=     1
 LinEq1:  Iter=  6 NonCon=     1 RMS=7.37D-05 Max=3.03D-03 NDo=     1
 LinEq1:  Iter=  7 NonCon=     1 RMS=3.95D-05 Max=9.41D-04 NDo=     1
 LinEq1:  Iter=  8 NonCon=     1 RMS=1.69D-05 Max=5.01D-04 NDo=     1
 LinEq1:  Iter=  9 NonCon=     1 RMS=9.72D-06 Max=2.96D-04 NDo=     1
 LinEq1:  Iter= 10 NonCon=     1 RMS=3.71D-06 Max=1.10D-04 NDo=     1
 LinEq1:  Iter= 11 NonCon=     1 RMS=2.16D-06 Max=1.04D-04 NDo=     1
 LinEq1:  Iter= 12 NonCon=     1 RMS=1.01D-06 Max=2.95D-05 NDo=     1
 LinEq1:  Iter= 13 NonCon=     1 RMS=4.03D-07 Max=1.12D-05 NDo=     1
 LinEq1:  Iter= 14 NonCon=     1 RMS=1.70D-07 Max=4.79D-06 NDo=     1
 LinEq1:  Iter= 15 NonCon=     1 RMS=8.56D-08 Max=2.75D-06 NDo=     1
 LinEq1:  Iter= 16 NonCon=     1 RMS=3.62D-08 Max=1.20D-06 NDo=     1
 LinEq1:  Iter= 17 NonCon=     1 RMS=1.71D-08 Max=6.06D-07 NDo=     1
 LinEq1:  Iter= 18 NonCon=     1 RMS=6.54D-09 Max=1.72D-07 NDo=     1
 LinEq1:  Iter= 19 NonCon=     1 RMS=3.39D-09 Max=1.05D-07 NDo=     1
 LinEq1:  Iter= 20 NonCon=     1 RMS=1.51D-09 Max=5.08D-08 NDo=     1
 LinEq1:  Iter= 21 NonCon=     1 RMS=3.85D-10 Max=9.12D-09 NDo=     1
 LinEq1:  Iter= 22 NonCon=     1 RMS=1.44D-10 Max=2.97D-09 NDo=     1
 LinEq1:  Iter= 23 NonCon=     1 RMS=6.60D-11 Max=1.29D-09 NDo=     1
 LinEq1:  Iter= 24 NonCon=     0 RMS=2.26D-11 Max=9.16D-10 NDo=     1
 Linear equations converged to 1.000D-10 1.000D-09 after    24 iterations.
 End of Minotr F.D. properties file   721 does not exist.
 End of Minotr F.D. properties file   722 does not exist.
 End of Minotr F.D. properties file   788 does not exist.
 Leave Link 1002 at Tue Jul 14 16:09:33 2020, MaxMem=  7784628224 cpu:             751.8 elap:             103.9
 (Enter /gpfs/loomis/apps/avx/software/Gaussian/16-C.01_AVX/g16/l601.exe)
 Copying SCF densities to generalized density rwf, IOpCl= 0 IROHF=0.

 **********************************************************************

            Population analysis using the SCF Density.

 **********************************************************************

 Alpha  occ. eigenvalues --  -89.09383 -19.24551 -14.50055 -10.40480 -10.37182
 Alpha  occ. eigenvalues --  -10.37057 -10.35448 -10.32903 -10.32780 -10.32255
 Alpha  occ. eigenvalues --  -10.32253 -10.32135 -10.31937 -10.31268 -10.30222
 Alpha  occ. eigenvalues --  -10.30015  -8.11533  -6.06369  -6.06022  -6.05579
 Alpha  occ. eigenvalues --   -1.13397  -1.09451  -0.97077  -0.95745  -0.92814
 Alpha  occ. eigenvalues --   -0.88780  -0.85771  -0.83489  -0.82129  -0.75727
 Alpha  occ. eigenvalues --   -0.71654  -0.71077  -0.68496  -0.67397  -0.63687
 Alpha  occ. eigenvalues --   -0.60801  -0.59181  -0.57788  -0.55321  -0.54751
 Alpha  occ. eigenvalues --   -0.54219  -0.53601  -0.52805  -0.50582  -0.49608
 Alpha  occ. eigenvalues --   -0.49400  -0.47060  -0.46402  -0.45570  -0.44911
 Alpha  occ. eigenvalues --   -0.44338  -0.43011  -0.42144  -0.40636  -0.36500
 Alpha  occ. eigenvalues --   -0.35071  -0.32627  -0.31207  -0.27478
 Alpha virt. eigenvalues --   -0.01902   0.04259   0.06039   0.07367   0.07952
 Alpha virt. eigenvalues --    0.10557   0.14615   0.14841   0.17032   0.17643
 Alpha virt. eigenvalues --    0.18595   0.20596   0.21133   0.21517   0.22387
 Alpha virt. eigenvalues --    0.23086   0.23791   0.24630   0.27529   0.28663
 Alpha virt. eigenvalues --    0.32213   0.33175   0.34845   0.35130   0.36586
 Alpha virt. eigenvalues --    0.37979   0.39072   0.40419   0.41495   0.42836
 Alpha virt. eigenvalues --    0.46937   0.47440   0.50791   0.51054   0.51260
 Alpha virt. eigenvalues --    0.51905   0.53138   0.53414   0.53614   0.54943
 Alpha virt. eigenvalues --    0.56120   0.56224   0.56688   0.57106   0.57984
 Alpha virt. eigenvalues --    0.58132   0.58296   0.58586   0.59127   0.60285
 Alpha virt. eigenvalues --    0.60785   0.61175   0.61819   0.62756   0.63066
 Alpha virt. eigenvalues --    0.65444   0.65555   0.66738   0.66823   0.68875
 Alpha virt. eigenvalues --    0.70348   0.71041   0.71808   0.72118   0.72742
 Alpha virt. eigenvalues --    0.73003   0.74638   0.74933   0.75731   0.78074
 Alpha virt. eigenvalues --    0.78523   0.79003   0.79899   0.80704   0.82343
 Alpha virt. eigenvalues --    0.85082   0.87531   0.90757   0.90956   0.93435
 Alpha virt. eigenvalues --    0.94586   0.94597   0.95874   0.96497   0.96913
 Alpha virt. eigenvalues --    0.98207   0.98236   1.00361   1.00663   1.01501
 Alpha virt. eigenvalues --    1.02386   1.05566   1.06081   1.06392   1.07253
 Alpha virt. eigenvalues --    1.07668   1.09654   1.09954   1.10071   1.10888
 Alpha virt. eigenvalues --    1.11889   1.12640   1.14255   1.14807   1.15205
 Alpha virt. eigenvalues --    1.15677   1.19707   1.20262   1.21978   1.22637
 Alpha virt. eigenvalues --    1.25267   1.29163   1.32211   1.33273   1.34231
 Alpha virt. eigenvalues --    1.36599   1.36963   1.39020   1.40567   1.47497
 Alpha virt. eigenvalues --    1.48732   1.50028   1.52141   1.53340   1.54375
 Alpha virt. eigenvalues --    1.56254   1.56552   1.56553   1.57910   1.58246
 Alpha virt. eigenvalues --    1.59179   1.60728   1.63568   1.65772   1.66133
 Alpha virt. eigenvalues --    1.67717   1.68404   1.69636   1.69761   1.70190
 Alpha virt. eigenvalues --    1.71381   1.72214   1.73246   1.73447   1.75874
 Alpha virt. eigenvalues --    1.76442   1.79200   1.79728   1.81174   1.81457
 Alpha virt. eigenvalues --    1.82341   1.83869   1.83932   1.83937   1.84814
 Alpha virt. eigenvalues --    1.86308   1.86758   1.87821   1.89350   1.91671
 Alpha virt. eigenvalues --    1.91696   1.92238   1.93243   1.94588   1.96081
 Alpha virt. eigenvalues --    1.97569   1.98937   1.99294   2.02716   2.02899
 Alpha virt. eigenvalues --    2.04473   2.07082   2.08749   2.10323   2.13009
 Alpha virt. eigenvalues --    2.15632   2.16551   2.18738   2.19772   2.22979
 Alpha virt. eigenvalues --    2.23699   2.25448   2.30576   2.36216   2.40311
 Alpha virt. eigenvalues --    2.40628   2.41581   2.42772   2.44763   2.45623
 Alpha virt. eigenvalues --    2.46865   2.48421   2.49997   2.52554   2.60466
 Alpha virt. eigenvalues --    2.61567   2.71056   2.72632   2.74419   2.77305
 Alpha virt. eigenvalues --    2.79605   2.82708   2.83890   2.88004   2.88713
 Alpha virt. eigenvalues --    2.90254   3.00610   3.11111   3.15297   3.36984
 Alpha virt. eigenvalues --    3.43890   3.52908   3.64113   3.81236
          Condensed to atoms (all electrons):
               1          2          3          4          5          6
     1  C    4.745791   0.484601   0.005378  -0.051320  -0.017135   0.515792
     2  C    0.484601   5.281474   0.346276  -0.036998  -0.066025  -0.009865
     3  C    0.005378   0.346276   4.829602   0.488354  -0.005508  -0.060055
     4  C   -0.051320  -0.036998   0.488354   4.793064   0.519363  -0.011931
     5  C   -0.017135  -0.066025  -0.005508   0.519363   4.740723   0.493998
     6  C    0.515792  -0.009865  -0.060055  -0.011931   0.493998   4.740506
     7  H    0.401604  -0.036743   0.008241  -0.000614   0.007718  -0.039059
     8  H   -0.000624   0.010492  -0.034945   0.396367  -0.040209   0.007378
     9  H    0.008877  -0.000747   0.008343  -0.038037   0.404406  -0.044688
    10  H   -0.042265   0.009062  -0.000443   0.007956  -0.041529   0.406414
    11  N    0.005379  -0.050603   0.396672  -0.039275   0.002891  -0.000016
    12  S   -0.072799   0.327476  -0.107149   0.006300   0.000319   0.004150
    13  C   -0.000212   0.002205   0.007427  -0.000440   0.000007   0.000005
    14  C   -0.000013   0.000224   0.000337   0.000007  -0.000000  -0.000000
    15  C    0.000005  -0.000343   0.000445   0.000026  -0.000000  -0.000000
    16  C    0.000000  -0.000011   0.000005  -0.000000   0.000000  -0.000000
    17  H   -0.000017   0.000295  -0.000011   0.000001   0.000000   0.000000
    18  C    0.000000   0.000007  -0.000008  -0.000000   0.000000  -0.000000
    19  C   -0.000000   0.000001   0.000001   0.000000  -0.000000   0.000000
    20  H   -0.000000  -0.000000  -0.000000  -0.000000  -0.000000  -0.000000
    21  H   -0.000000  -0.000000  -0.000000  -0.000000  -0.000000   0.000000
    22  H    0.000000  -0.000000  -0.000000  -0.000000   0.000000  -0.000000
    23  C    0.003939  -0.047222  -0.120093  -0.000084   0.000242  -0.000190
    24  O    0.000002  -0.000088  -0.001225  -0.000028   0.000000  -0.000000
    25  H    0.000004   0.004506  -0.016825  -0.000884  -0.000030   0.000005
               7          8          9         10         11         12
     1  C    0.401604  -0.000624   0.008877  -0.042265   0.005379  -0.072799
     2  C   -0.036743   0.010492  -0.000747   0.009062  -0.050603   0.327476
     3  C    0.008241  -0.034945   0.008343  -0.000443   0.396672  -0.107149
     4  C   -0.000614   0.396367  -0.038037   0.007956  -0.039275   0.006300
     5  C    0.007718  -0.040209   0.404406  -0.041529   0.002891   0.000319
     6  C   -0.039059   0.007378  -0.044688   0.406414  -0.000016   0.004150
     7  H    0.649813   0.000029  -0.000154  -0.010422  -0.000082  -0.007900
     8  H    0.000029   0.643956  -0.012191  -0.000099  -0.002238  -0.000206
     9  H   -0.000154  -0.012191   0.658076  -0.011676  -0.000082   0.000018
    10  H   -0.010422  -0.000099  -0.011676   0.655363   0.000002  -0.000171
    11  N   -0.000082  -0.002238  -0.000082   0.000002   6.423261  -0.061051
    12  S   -0.007900  -0.000206   0.000018  -0.000171  -0.061051  15.469163
    13  C   -0.000004   0.000025  -0.000000  -0.000000  -0.023166  -0.064004
    14  C    0.000002   0.000000   0.000000  -0.000000   0.003441  -0.015889
    15  C   -0.000000  -0.000007   0.000000   0.000000  -0.012379   0.005449
    16  C    0.000000   0.000000  -0.000000  -0.000000  -0.000063   0.000605
    17  H    0.000001   0.000000   0.000000  -0.000000   0.000217   0.009127
    18  C    0.000000  -0.000000   0.000000  -0.000000  -0.000545  -0.000254
    19  C   -0.000000   0.000000  -0.000000  -0.000000   0.000032   0.000029
    20  H    0.000000   0.000000   0.000000   0.000000   0.000001   0.000022
    21  H   -0.000000   0.000000  -0.000000   0.000000   0.000013   0.000005
    22  H    0.000000  -0.000000   0.000000  -0.000000  -0.000000  -0.000001
    23  C    0.000206  -0.000695   0.000006   0.000006   0.525364   0.317843
    24  O   -0.000000  -0.000097   0.000000  -0.000000  -0.070710  -0.000188
    25  H    0.000002   0.000708  -0.000004  -0.000000   0.213592   0.003550
              13         14         15         16         17         18
     1  C   -0.000212  -0.000013   0.000005   0.000000  -0.000017   0.000000
     2  C    0.002205   0.000224  -0.000343  -0.000011   0.000295   0.000007
     3  C    0.007427   0.000337   0.000445   0.000005  -0.000011  -0.000008
     4  C   -0.000440   0.000007   0.000026  -0.000000   0.000001  -0.000000
     5  C    0.000007  -0.000000  -0.000000   0.000000   0.000000   0.000000
     6  C    0.000005  -0.000000  -0.000000  -0.000000   0.000000  -0.000000
     7  H   -0.000004   0.000002  -0.000000   0.000000   0.000001   0.000000
     8  H    0.000025   0.000000  -0.000007   0.000000   0.000000  -0.000000
     9  H   -0.000000   0.000000   0.000000  -0.000000   0.000000   0.000000
    10  H   -0.000000  -0.000000   0.000000  -0.000000  -0.000000  -0.000000
    11  N   -0.023166   0.003441  -0.012379  -0.000063   0.000217  -0.000545
    12  S   -0.064004  -0.015889   0.005449   0.000605   0.009127  -0.000254
    13  C    5.343083   0.449501   0.249592  -0.010233  -0.034794  -0.040646
    14  C    0.449501   4.858625  -0.000012   0.534086   0.396587  -0.055623
    15  C    0.249592  -0.000012   4.739812  -0.053198   0.005757   0.476517
    16  C   -0.010233   0.534086  -0.053198   4.747317  -0.030777  -0.020380
    17  H   -0.034794   0.396587   0.005757  -0.030777   0.652929  -0.000629
    18  C   -0.040646  -0.055623   0.476517  -0.020380  -0.000629   4.863088
    19  C   -0.053531  -0.021205  -0.007285   0.488877   0.007514   0.511397
    20  H    0.008694  -0.035503  -0.000171   0.400585  -0.011306   0.007839
    21  H    0.013708  -0.000617  -0.025564   0.007161   0.000043   0.377056
    22  H   -0.001527   0.009683   0.008532  -0.044019  -0.000174  -0.040975
    23  C    0.364366  -0.086184  -0.078672   0.006059  -0.023157   0.008739
    24  O   -0.092996   0.005681   0.573575  -0.000109  -0.000062  -0.057423
    25  H   -0.021795  -0.000768  -0.022643   0.000025  -0.000053   0.003077
              19         20         21         22         23         24
     1  C   -0.000000  -0.000000  -0.000000   0.000000   0.003939   0.000002
     2  C    0.000001  -0.000000  -0.000000  -0.000000  -0.047222  -0.000088
     3  C    0.000001  -0.000000  -0.000000  -0.000000  -0.120093  -0.001225
     4  C    0.000000  -0.000000  -0.000000  -0.000000  -0.000084  -0.000028
     5  C   -0.000000  -0.000000  -0.000000   0.000000   0.000242   0.000000
     6  C    0.000000  -0.000000   0.000000  -0.000000  -0.000190  -0.000000
     7  H   -0.000000   0.000000  -0.000000   0.000000   0.000206  -0.000000
     8  H    0.000000   0.000000   0.000000  -0.000000  -0.000695  -0.000097
     9  H   -0.000000   0.000000  -0.000000   0.000000   0.000006   0.000000
    10  H   -0.000000   0.000000   0.000000  -0.000000   0.000006  -0.000000
    11  N    0.000032   0.000001   0.000013  -0.000000   0.525364  -0.070710
    12  S    0.000029   0.000022   0.000005  -0.000001   0.317843  -0.000188
    13  C   -0.053531   0.008694   0.013708  -0.001527   0.364366  -0.092996
    14  C   -0.021205  -0.035503  -0.000617   0.009683  -0.086184   0.005681
    15  C   -0.007285  -0.000171  -0.025564   0.008532  -0.078672   0.573575
    16  C    0.488877   0.400585   0.007161  -0.044019   0.006059  -0.000109
    17  H    0.007514  -0.011306   0.000043  -0.000174  -0.023157  -0.000062
    18  C    0.511397   0.007839   0.377056  -0.040975   0.008739  -0.057423
    19  C    4.732183  -0.045316  -0.044367   0.404287   0.000755   0.003102
    20  H   -0.045316   0.676985  -0.000129  -0.011776  -0.000386   0.000002
    21  H   -0.044367  -0.000129   0.664804  -0.011937  -0.000439   0.003281
    22  H    0.404287  -0.011776  -0.011937   0.663692  -0.000006  -0.000055
    23  C    0.000755  -0.000386  -0.000439  -0.000006   5.060199  -0.005699
    24  O    0.003102   0.000002   0.003281  -0.000055  -0.005699   7.804813
    25  H   -0.000252  -0.000001  -0.000005   0.000007  -0.003868   0.209552
              25
     1  C    0.000004
     2  C    0.004506
     3  C   -0.016825
     4  C   -0.000884
     5  C   -0.000030
     6  C    0.000005
     7  H    0.000002
     8  H    0.000708
     9  H   -0.000004
    10  H   -0.000000
    11  N    0.213592
    12  S    0.003550
    13  C   -0.021795
    14  C   -0.000768
    15  C   -0.022643
    16  C    0.000025
    17  H   -0.000053
    18  C    0.003077
    19  C   -0.000252
    20  H   -0.000001
    21  H   -0.000005
    22  H    0.000007
    23  C   -0.003868
    24  O    0.209552
    25  H    0.396512
 Mulliken charges:
               1
     1  C    0.013013
     2  C   -0.217974
     3  C    0.255181
     4  C   -0.031828
     5  C    0.000769
     6  C   -0.002446
     7  H    0.027362
     8  H    0.032354
     9  H    0.027853
    10  H    0.027802
    11  N   -0.310655
    12  S    0.185554
    13  C   -0.095264
    14  C   -0.042360
    15  C    0.140567
    16  C   -0.025930
    17  H    0.028510
[...]
 -0.00000151,0.05589858,-0.22646544,0.00000471,0.01217696,-0.00541283,0
 .00000085,0.02426239,0.62934930,0.00000002,0.00000002,-0.00001778,0.00
 000022,0.00000019,0.00010410,0.00000038,-0.00000058,-0.00022935,-0.000
 00028,0.00000011,-0.00027737,0.,-0.00000023,-0.00001002,0.00000007,0.0
 0000011,-0.00000451,0.,0.,-0.00001914,0.,0.,-0.00003096,0.,0.,0.000020
 73,0.,0.,0.00004306,-0.00000032,0.00000029,0.00244334,-0.00000014,0.00
 000019,-0.00031963,0.00000117,-0.00000159,0.00296642,-0.00000052,0.000
 00377,-0.05106222,-0.00000056,0.00000014,-0.00463140,-0.00001049,-0.00
 001780,0.12888104,0.00024866,-0.00009101,0.,-0.00073020,0.00025690,-0.
 00000029,0.00032148,-0.00011517,0.,-0.00003024,0.00011384,0.00000003,0
 .00007970,-0.00003490,0.,-0.00004325,-0.00004035,0.00000002,-0.0000145
 1,-0.00000584,0.,0.00002626,0.00000095,0.,0.00000899,-0.00000359,0.,0.
 00002800,-0.00001258,0.,0.00042045,0.00080775,-0.00000012,-0.00618391,
 0.00516021,0.00000112,-0.00222324,-0.02868356,0.00000126,-0.07849913,-
 0.07241172,0.00000462,-0.00480900,0.00267145,0.00000063,0.00989391,0.0
 2310561,-0.00000099,0.08481613,0.00026347,0.00000828,0.00000003,-0.000
 40860,0.00085890,-0.00000024,0.00050861,-0.00002750,0.00000011,0.00013
 931,0.00014883,0.00000004,0.00004318,0.00020321,0.,-0.00021682,-0.0001
 7238,0.,-0.00003946,0.00000938,0.,0.00005388,-0.00001340,0.00000002,0.
 00000314,0.00000338,0.,0.00002890,-0.00000206,0.,0.00008093,0.00070299
 ,-0.00000014,0.00522330,-0.00358593,-0.00000079,0.00165372,-0.00484361
 ,0.00000020,-0.07198226,-0.32526280,0.00001513,0.00021290,0.00233113,0
 .00000042,-0.00890738,-0.01727384,0.00000105,0.07026734,0.34834789,-0.
 00000014,0.00000007,-0.00004987,0.00000005,-0.00000031,-0.00062323,-0.
 00000018,0.00000034,0.00032175,0.00000008,-0.00000005,0.00014688,0.,0.
 00000002,-0.00001253,0.00000007,0.,0.00002918,0.,0.,0.00000771,-0.0000
 0001,0.,0.00000833,0.,0.,-0.00000238,0.,0.,0.00000018,0.00000018,-0.00
 000027,-0.00208329,0.00000104,-0.00000088,0.00191478,-0.00000113,0.000
 00135,0.00398360,0.00000532,0.00001607,-0.03137558,0.00000028,-0.00000
 044,0.00775568,0.00000007,0.00000003,0.00296298,-0.00000586,-0.0000158
 1,0.01898712,-0.00067704,-0.00002152,-0.00000001,-0.00526220,-0.002765
 71,-0.00000022,-0.00507802,0.01387296,0.00000049,0.00609187,-0.0020122
 9,0.00000011,0.00001687,0.00335036,-0.00000002,-0.00016127,-0.00189039
 ,0.,-0.00006390,0.00012082,0.,0.00001552,-0.00006100,0.,0.00006662,0.0
 0002152,0.,0.00003675,-0.00004268,0.,0.01263987,-0.00143507,0.00000097
 ,-0.00041086,-0.00329094,0.00000006,0.01561584,0.02439032,-0.00000098,
 -0.03082025,0.02012976,0.00000048,-0.17553967,0.08642615,0.00000023,-0
 .00265356,-0.06814317,0.00000177,-0.00048153,-0.00032409,0.00000004,0.
 67937416,0.00045371,-0.00015894,0.00000001,-0.00120729,-0.00078678,0.0
 0000001,0.00022207,0.00121821,0.00000009,-0.00011716,0.00010176,0.0000
 0004,0.00016508,0.00004509,0.,-0.00023565,-0.00018955,0.,-0.00001608,0
 .00004328,0.,-0.00002248,-0.00000596,0.,0.00000450,-0.00000902,0.,0.00
 003003,-0.00000630,0.,0.00335166,0.00089957,-0.00000018,0.00130925,-0.
 00285308,-0.00000024,0.02411620,-0.03285885,0.00000039,-0.00187281,0.0
 0206768,-0.00000036,0.10210867,-0.23470594,0.00000197,-0.03204558,-0.0
 1812060,0.00000119,-0.00029066,0.00054129,-0.00000021,0.03782893,0.725
 27904,0.00000007,-0.00000011,0.00006548,-0.00000041,-0.00000003,0.0006
 0624,-0.00000016,0.00000034,0.00192570,0.00000021,-0.00000008,-0.00018
 486,0.00000003,0.00000022,-0.00010462,-0.00000015,-0.00000008,-0.00010
 801,0.,0.,0.00013554,0.,0.,0.00009055,0.,0.,0.00000364,0.,0.,-0.000041
 04,0.00000030,-0.00000027,-0.00564829,0.00000005,-0.00000022,0.0009346
 6,-0.00000024,0.00000028,0.01266565,-0.00000047,-0.00000056,-0.0033596
 2,-0.00000075,0.00000237,-0.06464209,0.00000116,0.00000104,0.00528243,
 -0.00000007,-0.00000006,-0.00111362,-0.00000311,-0.00001150,0.10987192
 ,0.00022176,0.00132012,0.00000007,0.00852142,0.00371068,0.00000056,0.0
 0887123,-0.01903929,-0.00000050,-0.00862680,0.00295247,-0.00000024,-0.
 00021516,-0.00588905,0.,0.00191187,0.00302541,0.00000004,0.00000804,-0
 .00010483,0.,0.00007641,0.00009495,0.00000003,-0.00004332,-0.00004426,
 0.00000002,0.00001451,0.00003722,-0.00000003,-0.01840086,0.01385847,-0
 .00000073,0.00075290,0.00352981,-0.00000071,-0.01386065,-0.01867971,0.
 00000030,0.05643238,0.00740210,-0.00000151,-0.05410220,0.01491673,-0.0
 0000081,-0.13700458,0.00087740,0.00000178,-0.00341976,0.00467410,0.000
 00002,-0.33122108,-0.08431552,0.00000337,0.69480034,0.00014989,0.00096
 622,0.00000003,0.00298220,0.00119825,0.00000004,0.00414865,-0.00560013
 ,-0.00000004,-0.00369549,0.00130140,-0.00000011,-0.00012948,-0.0027231
 4,0.,0.00118210,0.00079725,0.00000004,-0.00004745,-0.00002818,0.,0.000
 05662,0.00001973,0.,0.00003225,-0.00005226,0.,0.00004539,0.00001190,0.
 ,-0.00194181,0.01002108,0.00000011,-0.00184568,0.00087858,0.00000002,-
 0.02083539,-0.01775820,0.00000152,0.05183654,-0.05661089,0.00000136,0.
 00369536,0.02792780,-0.00000122,-0.08158756,-0.29925718,0.00000934,0.0
 0324856,-0.00022672,0.,-0.03730737,-0.13407310,0.00000161,-0.04831360,
 0.68009839,-0.00000004,-0.00000004,0.00016761,-0.00000016,-0.00000012,
 -0.00054210,-0.00000021,0.00000038,-0.00108349,0.00000024,-0.00000007,
 0.00008024,0.00000001,0.00000016,0.00009018,-0.00000005,-0.00000003,0.
 00000991,0.,0.,-0.00004804,0.,0.,-0.00011605,0.,0.,0.00000553,0.,0.,0.
 00000930,-0.00000006,-0.00000073,0.00147406,0.00000027,-0.00000009,0.0
 0080144,0.00000079,0.00000061,-0.00220079,-0.00000219,0.00000196,0.009
 33542,0.00000013,-0.00000049,0.00241205,0.00000365,0.00000780,-0.05983
 859,-0.00000007,0.00000046,0.00430901,0.00000261,0.00000218,-0.0495525
 5,-0.00000224,-0.00001740,0.11311397,0.00004709,-0.00010350,0.,-0.0000
 8672,0.00013186,0.00000001,-0.00000845,-0.00011839,0.00000003,0.000006
 90,0.00003307,0.,0.00001116,0.00008349,0.,-0.00013668,0.00001044,0.,0.
 00000688,0.00000588,0.,-0.00000481,-0.00000453,0.,-0.00001108,0.000008
 06,0.,-0.00000939,0.00000604,0.,-0.00021779,0.00047068,0.00000006,0.00
 007821,-0.00005648,-0.00000003,-0.00058712,0.00375297,-0.00000010,-0.0
 1555454,-0.00978969,0.00000083,0.00047363,0.00037277,-0.00000005,-0.32
 558830,-0.07718290,0.00000722,0.00072463,0.00007530,0.,0.00166082,-0.0
 0092662,0.00000017,-0.00260843,0.00182653,0.00000005,0.34213682,0.0000
 2194,-0.00002285,0.,-0.00011370,-0.00009024,0.,0.00001109,0.00026264,0
 .00000002,0.00007750,-0.00007008,0.00000001,0.00001826,0.00007260,0.,-
 0.00003909,-0.00003700,0.,0.00000138,0.,0.,-0.00000233,-0.00000067,0.,
 0.00000072,-0.00000261,0.,0.00000043,-0.00000064,0.,0.00037301,-0.0003
 6345,-0.00000008,0.00004241,0.00000849,0.00000001,0.00376842,-0.003194
 24,0.00000017,0.02093010,0.00961402,-0.00000047,0.00072364,-0.00094011
 ,0.,-0.07778177,-0.08192027,0.00000305,-0.00013951,0.00090097,-0.00000
 011,-0.00018118,-0.00541075,0.00000039,-0.02923672,-0.00193334,0.00000
 063,0.08244372,0.08107353,0.,0.00000004,-0.00003635,0.00000019,0.00000
 008,0.00006967,0.00000010,-0.00000033,0.00043124,-0.00000015,0.0000000
 4,0.00011990,-0.00000002,-0.00000011,-0.00006049,0.00000005,0.00000005
 ,0.00001525,0.,0.,0.00000759,0.,0.,0.00003408,0.,0.,-0.00002720,0.,0.,
 -0.00000029,-0.00000021,0.00000035,-0.00031839,-0.00000010,0.00000008,
 -0.00022651,-0.00000023,0.00000038,0.00554786,0.00000029,-0.00000045,0
 .00666478,0.00000003,0.00000002,-0.00131854,0.00000715,0.00000389,-0.0
 3759008,-0.00000007,-0.00000031,-0.00305358,0.00000002,0.00000050,0.00
 557050,0.00000099,-0.00000028,0.00619421,-0.00000798,-0.00000340,0.022
 72863,-0.00011026,0.00003603,0.,0.00011826,0.00004678,0.,-0.00016632,0
 .00006881,-0.00000001,0.00004748,-0.00001383,0.,-0.00001791,-0.0000100
 2,0.,0.00006284,0.00000572,0.,0.00000101,-0.00000689,0.,-0.00000348,0.
 00000130,0.,0.00000211,-0.00000091,0.,-0.00000354,-0.00000089,0.,0.000
 36332,-0.00053815,0.00000005,-0.00030557,0.00021434,0.,-0.00444301,0.0
 0303457,0.00000002,0.00015009,0.00017090,0.,0.00876951,0.02311120,-0.0
 0000048,-0.00565196,-0.00001834,0.00000002,0.00013039,-0.00006716,0.00
 000002,-0.07391256,-0.06955795,0.00000124,-0.00077854,-0.02870290,0.00
 000062,-0.00024057,-0.00141331,0.00000008,0.07188323,0.00005890,0.0000
 3458,0.,-0.00012237,-0.00006854,-0.00000002,0.00007330,0.00006501,0.,0
 .00000610,-0.00001013,0.,-0.00000250,-0.00002462,0.,0.00003487,-0.0000
 2711,0.,-0.00000487,0.00000270,0.,0.00000796,0.00000181,0.,0.00000735,
 -0.00000279,0.,0.00000907,-0.00000377,0.,-0.00018107,0.00022691,0.,0.0
 0019308,-0.00017137,0.,0.00386783,-0.00109283,-0.00000002,0.00003988,0
 .00032111,-0.00000003,-0.01022862,-0.01623895,0.00000038,-0.00100046,0
 .00117425,0.00000008,-0.00005180,-0.00010377,0.,-0.06792518,-0.3317551
 6,0.00000597,0.00223583,-0.00258419,0.00000011,0.00005603,-0.00024344,
 0.,0.07428542,0.34813815,-0.00000004,0.00000004,-0.00030463,0.00000011
 ,0.00000004,-0.00017427,0.00000003,-0.00000004,0.00011804,-0.00000005,
 0.00000002,-0.00000145,0.,-0.00000007,-0.00003855,0.00000006,0.0000000
 2,0.00006190,0.,0.,-0.00002370,0.,0.,0.00003715,0.,0.,-0.00000324,0.,0
 .,0.00005453,0.00000019,0.00000019,0.00039161,-0.00000020,-0.00000003,
 -0.00049016,0.00000014,-0.00000034,0.00381031,-0.00000008,0.00000016,-
 0.00039110,0.00000061,0.00000022,0.00312281,0.00000012,-0.00000008,0.0
 0639919,0.00000003,-0.00000007,-0.00030301,0.00000061,0.00000600,-0.03
 190803,0.00000042,0.00000065,0.00398412,0.00000002,0.,-0.00043722,-0.0
 0000159,-0.00000638,0.02189609,0.00005919,-0.00006882,0.,-0.00014856,0
 .00008932,-0.00000001,0.00012837,0.00011694,0.,0.00004556,-0.00000670,
 0.,0.00001759,0.00009730,0.,-0.00011116,-0.00003010,0.,0.00000089,0.00
 000709,0.,-0.00000136,-0.00000579,0.,-0.00000738,0.00000420,0.,-0.0000
 0479,0.00000423,0.,0.00017361,0.00064611,0.00000001,-0.00003294,0.0000
 4067,0.00000003,0.00023902,-0.00075597,0.00000001,0.00008591,-0.002034
 94,0.00000011,-0.00273442,-0.00367571,0.00000004,0.00856216,-0.0084602
 0,0.00000021,0.00029457,-0.00033947,0.00000001,-0.01563787,0.02249863,
 -0.00000048,-0.21162602,0.14562814,-0.00000338,0.00068504,0.00032686,-
 0.00000005,0.00105977,-0.00021488,0.00000002,0.22114205,-0.00001808,0.
 00012714,0.,0.00032714,0.00016785,0.,0.00035799,-0.00066539,-0.0000000
 2,-0.00031821,0.00012180,0.,-0.00001902,-0.00028954,0.,0.00017504,0.00
 010765,0.,-0.00000942,-0.00000604,0.,0.00001297,0.00000633,0.,0.000007
 57,-0.00000543,0.,0.00000997,-0.00000387,0.,-0.00059743,0.00052551,0.,
 -0.00011626,0.00015817,0.,-0.00116036,0.00010745,-0.00000006,-0.002204
 11,-0.00463050,0.00000038,-0.00253354,-0.00067329,0.00000023,0.0240365
 1,-0.01443471,0.00000032,0.00113329,-0.00096110,0.00000002,-0.00905063
 ,0.00946520,-0.00000006,0.14444122,-0.19401696,0.00000417,-0.00013254,
 0.00099618,-0.00000014,0.00031064,0.00065359,-0.00000014,-0.15448936,0
 .20285934,0.00000002,0.,0.00002272,0.00000003,0.,0.00007297,0.,-0.0000
 0005,-0.00007757,-0.00000002,0.,0.00001507,0.,0.,0.00000822,-0.0000000
 2,0.,0.00000032,0.,0.,-0.00000386,0.,0.,0.00001358,0.,0.,0.00000072,0.
 ,0.,-0.00001688,-0.00000010,0.00000001,0.00028837,0.00000002,0.0000000
 9,-0.00027183,-0.00000002,-0.00000010,-0.00144733,0.00000026,0.0000005
 2,0.00480553,0.00000015,0.00000015,0.00673256,-0.00000079,0.00000064,0
 .00252573,0.00000002,0.,0.00098287,0.00000027,-0.00000043,0.00378649,-
 0.00000340,0.00000424,-0.03186700,-0.00000012,-0.00000014,-0.00339171,
 -0.00000001,-0.00000008,-0.00386255,0.00000352,-0.00000475,0.02226578,
 -0.00360314,-0.00727040,-0.00000023,-0.01406116,0.01878666,0.00000023,
 -0.07680581,0.05328709,0.00000029,0.01356436,-0.00535474,0.00000046,-0
 .00017240,0.01058473,0.00000004,-0.00810682,-0.00309777,-0.00000034,0.
 00034087,-0.00054027,0.00000006,-0.00069204,-0.00014870,0.,-0.00002232
 ,0.00007894,-0.00000001,-0.00070949,0.00002245,0.,-0.33752029,-0.05752
 902,-0.00000656,-0.04736932,-0.05375656,-0.00000255,-0.22485511,0.1211
 4296,0.00000988,-0.04618520,0.03311480,0.00000230,0.02600787,0.0165125
 9,0.00000055,-0.00162617,-0.01206185,0.00000051,0.00011663,-0.00022271
 ,-0.00000001,-0.00251306,-0.00933650,0.00000012,0.00256157,0.00056880,
 0.00000002,-0.00076472,0.00051160,0.00000004,0.00096078,-0.00087490,-0
 .00000019,-0.00025855,0.00023592,0.00000006,0.73406116,-0.00115942,0.0
 0347593,-0.00000010,0.03593537,-0.02763030,0.00000002,0.02912524,-0.00
 012024,0.00000080,-0.00218162,-0.00651622,-0.00000027,-0.00110360,-0.0
 0410344,-0.00000008,0.00424854,0.00026016,0.00000009,-0.00019794,-0.00
 059160,0.00000003,-0.00030107,0.00028042,0.00000002,0.00037565,-0.0006
 0545,0.00000003,-0.00006529,-0.00000087,-0.00000002,-0.05116006,-0.105
 27551,-0.00000349,-0.02918742,-0.16326613,-0.00000667,0.10670017,-0.21
 193050,-0.00000984,0.01725784,0.01487250,-0.00000002,0.02741425,-0.048
 92463,-0.00000299,-0.00555438,-0.00024982,0.00000076,-0.00192390,-0.00
 027498,-0.00000028,-0.01489356,-0.00042250,0.00000030,0.00645403,0.003
 94813,-0.00000017,-0.00084574,0.00111741,-0.00000020,0.00056092,-0.000
 46533,0.00000016,0.00018763,0.00014655,-0.00000005,-0.09616368,0.56087
 825,-0.00000006,-0.00000025,0.00168574,0.00000036,0.00000035,-0.000428
 04,-0.00000079,0.00000102,0.00635433,0.00000025,-0.00000038,0.00313277
 ,-0.00000004,0.00000004,0.00100296,-0.00000014,0.00000002,0.00097904,0
 .,-0.00000003,-0.00056162,0.,0.,-0.00058502,0.00000003,-0.00000002,-0.
 00058754,-0.00000001,0.,-0.00026230,-0.00000274,-0.00000375,-0.0350563
 2,-0.00000154,-0.00000869,-0.01959691,0.00000685,-0.00000712,-0.036941
 02,0.00000224,-0.00000082,0.00983357,0.00000086,-0.00000271,0.00638046
 ,0.00000021,-0.00000028,0.00254133,-0.00000014,-0.00000003,-0.00143294
 ,-0.00000221,0.00000046,0.00002566,0.00000242,0.00000001,-0.00100121,-
 0.00000009,-0.00000006,-0.00097614,-0.00000003,0.00000012,0.00175495,-
 0.00000002,0.00000010,0.00011347,-0.00000403,0.00002283,0.06151806,0.0
 0047782,0.00176279,0.,0.00116405,0.00501324,0.00000011,0.01432406,-0.0
 0396434,0.00000028,-0.00173598,0.00078814,-0.00000012,-0.00054397,-0.0
 0229278,-0.00000006,0.00185573,0.00102049,0.00000007,-0.00021524,0.000
 29641,-0.00000002,0.00022843,-0.00004418,0.00000002,-0.00004383,0.0000
 8525,0.00000001,0.00003033,0.00004674,0.,-0.01203387,0.05646645,0.0000
 0175,0.00013261,0.00423040,-0.00000010,-0.04463936,-0.03158299,-0.0000
 0014,0.01887039,-0.00709205,0.00000006,-0.40433750,-0.08896379,-0.0000
 0268,-0.01304991,0.00715091,-0.00000025,-0.00118876,-0.00120901,0.0000
 0024,-0.07269501,0.00880456,-0.00000066,0.00497602,0.00463719,0.000000
 24,-0.00011184,-0.00037148,-0.00000018,0.00235607,-0.00036349,-0.00000
 029,-0.00225070,-0.00048709,0.00000012,-0.00893901,-0.00115527,-0.0000
 0048,0.51437063,-0.00101122,-0.00094594,-0.00000009,-0.00018090,-0.005
 34158,-0.00000021,-0.01544354,0.00266465,-0.00000051,0.00192583,-0.001
 16901,0.00000007,0.00025695,0.00174522,0.00000003,-0.00058214,-0.00118
 912,-0.00000001,0.00015722,-0.00037850,0.,0.00008910,0.00013962,-0.000
 00001,0.00017130,-0.00014367,0.,0.00003835,-0.00008660,0.00000001,0.03
 245114,-0.06538581,-0.00000136,0.00025099,-0.00116709,0.00000032,-0.04
 076194,-0.01920983,-0.00000089,-0.00626039,-0.00820110,0.00000034,-0.0
 8382804,-0.12539091,-0.00000101,0.00151599,-0.00695365,0.00000012,-0.0
 0200840,-0.00036348,0.00000022,0.02990931,0.02390091,0.00000004,0.0051
 5010,-0.00145357,0.00000003,-0.00007609,0.00037375,-0.00000006,-0.0022
 4927,0.00241438,-0.00000012,0.00155155,0.00072965,-0.00000006,0.006258
 01,0.01173830,0.00000068,0.10904363,0.18078324,-0.00000002,-0.00000004
 ,0.00035761,-0.00000017,-0.00000017,-0.00053735,-0.00000044,0.00000059
 ,-0.00048362,0.00000025,-0.00000009,0.00019476,0.,0.00000020,0.0001648
 3,-0.00000007,-0.00000012,0.00004732,0.,0.,-0.00012362,0.,0.,-0.000157
 05,0.,0.,-0.00001693,0.,0.,-0.00007311,0.00000073,-0.00000148,0.013798
 64,0.00000010,0.00000003,-0.00098732,-0.00000037,0.00000085,0.01687478
 ,-0.00000029,-0.00000038,0.00204420,-0.00000217,-0.00000207,-0.0536863
 8,0.,-0.00000014,0.00009338,-0.00000017,0.00000003,-0.00200002,-0.0000
 0093,0.00000026,0.01175051,0.00000029,0.00000021,0.00399934,0.,0.,0.00
 004690,0.00000007,-0.00000010,-0.00325847,0.,-0.00000001,-0.00035543,0
 .00000022,0.00000030,-0.00329620,0.00000328,0.00000180,0.04119157,-0.0
 0009977,-0.00083473,-0.00000002,-0.00448168,-0.00223518,-0.00000019,-0
 .00544242,0.00999050,0.00000033,0.00266264,-0.00082143,0.00000009,0.00
 025549,0.00193835,0.00000001,-0.00096517,-0.00088008,-0.00000004,0.000
 10600,-0.00003324,0.00000002,-0.00037723,-0.00008028,-0.00000002,0.000
 05614,-0.00003049,0.,-0.00000550,-0.00007293,0.,-0.04109422,-0.0304628
 5,-0.00000119,-0.00336147,-0.00719815,-0.00000013,0.00560534,-0.004339
 63,-0.00000002,-0.00816285,0.00163687,0.00000006,-0.02908856,0.0091211
 8,0.00000017,0.00320231,-0.00659308,0.00000016,0.00051373,0.00048888,-
 0.00000010,0.00160955,-0.00094899,-0.00000019,0.00275894,0.00436850,-0
 .00000022,0.00009925,0.00002801,0.00000004,-0.00027114,0.00009453,0.00
 000009,0.00032003,0.00008779,0.,-0.00340863,-0.02236669,-0.00000091,0.
 00299885,-0.03636754,-0.00000031,0.07657039,0.00197752,0.00167943,0.00
 000002,0.00403343,0.01155619,0.00000025,0.03031878,-0.01332281,0.00000
 065,-0.00632769,0.00389315,-0.00000016,-0.00118325,-0.00531447,-0.0000
 0009,0.00179197,0.00271030,0.00000009,-0.00027926,0.00058804,-0.000000
 04,0.00010111,-0.00031500,0.00000002,-0.00030609,0.00027829,0.,-0.0000
 8406,0.00019809,0.,-0.04931108,-0.02900973,-0.00000028,0.00270601,0.01
 245908,-0.00000004,-0.02549329,0.01316781,0.00000077,0.02468851,-0.005
 85888,-0.00000017,0.03479371,0.01711796,-0.00000049,-0.00922978,0.0203
 0317,-0.00000051,-0.00095293,-0.00094470,0.00000023,-0.00670539,-0.002
 20553,0.00000040,-0.00905766,-0.01085087,0.00000063,-0.00004037,-0.000
 18987,-0.00000014,0.00073302,-0.00024046,-0.00000023,-0.00111673,-0.00
 048559,0.00000002,-0.01474744,-0.02634015,-0.00000149,-0.06181974,0.01
 289013,0.00000034,0.08551067,-0.00176358,0.00000002,0.00000004,0.00074
 543,0.00000004,0.00000029,0.00176530,0.00000088,0.00000017,-0.00836905
 ,-0.00000011,0.00000007,-0.00058465,-0.00000004,-0.00000013,0.00005849
 ,0.00000006,0.00000006,-0.00013235,0.,0.00000001,-0.00000028,0.,-0.000
 00001,-0.00012194,0.,0.,0.00006116,0.,0.,0.00002234,-0.00000117,-0.000
 00123,-0.02736931,-0.00000013,0.00000009,0.00159671,-0.00000024,0.0000
 0011,-0.00410061,0.00000054,0.00000008,0.00034283,0.00000031,0.0000008
 3,-0.00035183,-0.00000014,0.00000033,-0.00023268,0.00000006,-0.0000000
 4,0.00063999,-0.00000018,-0.00000018,0.00394777,-0.00000014,-0.0000001
 2,0.00026343,0.,0.,0.00000589,0.,-0.00000002,-0.00043432,-0.00000002,-
 0.00000003,-0.00034023,-0.00000083,-0.00000118,0.00540289,-0.00000126,
 0.00000067,-0.02558833,0.00000236,0.00000020,0.05277337\\-0.00292851,-
 0.00184891,0.00000021,-0.00290932,-0.00290047,0.00000012,-0.00392155,0
 .00068265,-0.00000060,0.00195780,-0.00291595,-0.00000024,-0.00050978,-
 0.00173296,0.00000002,-0.00306265,-0.00292652,0.00000011,-0.00024687,-
 0.00015885,0.00000005,0.00012771,-0.00022864,0.,-0.00003814,-0.0004123
 8,0.,-0.00032689,-0.00029383,0.00000006,0.01005681,-0.00329629,-0.0000
 0032,-0.00032097,0.00245096,-0.00000032,0.00556632,-0.00201727,0.00000
 058,-0.00281691,-0.00137837,0.00000056,-0.00827722,-0.00057081,-0.0000
 0112,0.00145406,-0.00732534,-0.00000020,0.00017608,-0.00022634,0.00000
 010,-0.00036590,-0.00050487,0.,0.00098249,-0.00208705,-0.00000017,0.00
 008809,-0.00044596,0.00000008,-0.00021286,0.00002523,-0.00000006,-0.00
 001345,-0.00025326,-0.00000009,0.00668886,0.00496904,-0.00000022,0.003
 26805,0.00811005,0.00000083,-0.00441523,0.01528613,0.00000064\\\@
 The archive entry for this job was punched.


 THE MOST INCOMPREHENSIBLE THING ABOUT THE WORLD
 IS THAT IT IS COMPREHENSIBLE. -- A. EINSTEIN
 Job cpu time:       0 days  2 hours 54 minutes  7.1 seconds.
 Elapsed time:       0 days  0 hours 17 minutes 58.3 seconds.
 File lengths (MBytes):  RWF=   1376 Int=      0 D2E=      0 Chk=     48 Scr=      8
 Normal termination of Gaussian 16 at Tue Jul 14 17:04:37 2020.
