 Entering Gaussian System, Link 0=g16
 Initial command:
 /gpfs/loomis/apps/avx/software/Gaussian/16-C.01_AVX/g16/l1.exe "/home/fas/batista/pev4/scratch60/gauss-scratch/Gau-193069.inp" -scrdir="/home/fas/batista/pev4/scratch60/gauss-scratch/"
 Entering Link 1 = /gpfs/loomis/apps/avx/software/Gaussian/16-C.01_AVX/g16/l1.exe PID=    193070.
  
 Copyright (c) 1988-2019, Gaussian, Inc.  All Rights Reserved.
  
 This is part of the Gaussian(R) 16 program.  It is based on
 the Gaussian(R) 09 system (copyright 2009, Gaussian, Inc.),
 the Gaussian(R) 03 system (copyright 2003, Gaussian, Inc.),
 the Gaussian(R) 98 system (copyright 1998, Gaussian, Inc.),
 the Gaussian(R) 94 system (copyright 1995, Gaussian, Inc.),
 the Gaussian 92(TM) system (copyright 1992, Gaussian, Inc.),
 the Gaussian 90(TM) system (copyright 1990, Gaussian, Inc.),
 the Gaussian 88(TM) system (copyright 1988, Gaussian, Inc.),
 the Gaussian 86(TM) system (copyright 1986, Carnegie Mellon
 University), and the Gaussian 82(TM) system (copyright 1983,
 Carnegie Mellon University). Gaussian is a federally registered
 trademark of Gaussian, Inc.
  
 This software contains proprietary and confidential information,
 including trade secrets, belonging to Gaussian, Inc.
  
 This software is provided under written license and may be
 used, copied, transmitted, or stored only in accord with that
 written license.
  
 The following legend is applicable only to US Government
 contracts under FAR:
  
                    RESTRICTED RIGHTS LEGEND
  
 Use, reproduction and disclosure by the US Government is
 subject to restrictions as set forth in subparagraphs (a)
 and (c) of the Commercial Computer Software - Restricted
 Rights clause in FAR 52.227-19.
  
 Gaussian, Inc.
 340 Quinnipiac St., Bldg. 40, Wallingford CT 06492
  
  
 ---------------------------------------------------------------
 Warning -- This program may not be used in any manner that
 competes with the business of Gaussian, Inc. or will provide
 assistance to any competitor of Gaussian, Inc.  The licensee
 of this program is prohibited from giving any competitor of
 Gaussian, Inc. access to this program.  By using this program,
 the user acknowledges that Gaussian, Inc. is engaged in the
 business of creating and licensing software in the field of
 computational chemistry and represents and warrants to the
 licensee that it is not a competitor of Gaussian, Inc. and that
 it will not use this program in any manner prohibited above.
 ---------------------------------------------------------------
  

 Cite this work as:
 Gaussian 16, Revision C.01,
 M. J. Frisch, G. W. Trucks, H. B. Schlegel, G. E. Scuseria, 
 M. A. Robb, J. R. Cheeseman, G. Scalmani, V. Barone, 
 G. A. Petersson, H. Nakatsuji, X. Li, M. Caricato, A. V. Marenich, 
 J. Bloino, B. G. Janesko, R. Gomperts, B. Mennucci, H. P. Hratchian, 
 J. V. Ortiz, A. F. Izmaylov, J. L. Sonnenberg, D. Williams-Young, 
 F. Ding, F. Lipparini, F. Egidi, J. Goings, B. Peng, A. Petrone, 
 T. Henderson, D. Ranasinghe, V. G. Zakrzewski, J. Gao, N. Rega, 
 G. Zheng, W. Liang, M. Hada, M. Ehara, K. Toyota, R. Fukuda, 
 J. Hasegawa, M. Ishida, T. Nakajima, Y. Honda, O. Kitao, H. Nakai, 
 T. Vreven, K. Throssell, J. A. Montgomery, Jr., J. E. Peralta, 
 F. Ogliaro, M. J. Bearpark, J. J. Heyd, E. N. Brothers, K. N. Kudin, 
 V. N. Staroverov, T. A. Keith, R. Kobayashi, J. Normand, 
 K. Raghavachari, A. P. Rendell, J. C. Burant, S. S. Iyengar, 
 J. Tomasi, M. Cossi, J. M. Millam, M. Klene, C. Adamo, R. Cammi, 
 J. W. Ochterski, R. L. Martin, K. Morokuma, O. Farkas, 
 J. B. Foresman, and D. J. Fox, Gaussian, Inc., Wallingford CT, 2019.
 
 ******************************************
 Gaussian 16:  ES64L-G16RevC.01  3-Jul-2019
                13-Jul-2020 
 ******************************************
 %chk=config_4_1.chk
 %mem=58GB
 %nprocshared=10
 Will use up to   10 processors via shared memory.
 ----------------------------------------------------------------------
 #p opt=addgic freq td wb97xd/cc-pvdz nosymm int=ultrafine scrf=(solven
 t=CarbonTetraChloride)
 ----------------------------------------------------------------------
 1/18=20,19=15,26=6,38=1,145=903/1,3;
 2/9=110,12=2,15=1,17=6,18=5,40=1/2;
 3/5=16,11=9,25=1,30=1,70=2201,71=1,72=11,74=-58,75=-5/1,2,3,8;
 4//1;
 5/5=2,38=5,53=11/2;
 8/6=1,10=1/1;
 9/15=2,42=1,70=2/14;
 10/5=4,31=1/2;
 6/7=2,8=2,9=2,10=2/1;
 7/12=6,13=5,30=1/1,2,3,16;
 1/18=20,19=15,26=6,145=903/3(2);
 2/9=110,15=1/2;
 99//99;
 2/9=110,15=1/2;
 3/5=16,11=9,25=1,30=1,70=2205,71=1,72=11,74=-58,75=-5/1,2,3,8;
 4/5=5,16=3,69=1/1;
 5/5=2,38=5,53=11/2;
 8/6=1,10=1/1;
 9/15=2,42=1,49=4,70=2/14;
 10/5=4,31=1/2;
 7/12=6,13=5,30=1/1,2,3,16;
 1/18=20,19=15,26=6,145=903/3(-8);
 2/9=110,15=1/2;
 6/7=2,8=2,9=2,10=2/1;
 99/9=10/99;
 Leave Link    1 at Mon Jul 13 13:32:31 2020, MaxMem=  7784628224 cpu:               5.0 elap:               0.6
 (Enter /gpfs/loomis/apps/avx/software/Gaussian/16-C.01_AVX/g16/l101.exe)
 ------------------------------------------------
 NM 2D-scan of HBT TD-WB97XD pVDZ in CTC Relaxed.
 ------------------------------------------------
 Symbolic Z-matrix:
 Charge =  0 Multiplicity = 1
 C                     1.76182  -3.27707  -0.00003 
 C                     0.99708  -2.10667  -0.00002 
 C                     1.64343  -0.83279  -0.00002 
 C                     3.0638   -0.74135  -0.00002 
 C                     3.80245  -1.90831  -0.00002 
 C                     3.16056  -3.16792  -0.00003 
 H                     1.287    -4.26379  -0.00003 
 H                     3.53131   0.24896  -0.00001 
 H                     4.8954   -1.86258  -0.00002 
 H                     3.76525  -4.07925  -0.00003 
 N                     0.83545   0.21476  -0.00002 
 S                    -0.7559   -1.86571  -0.00002 
 C                    -1.41988   0.98923  0. 
 C                    -2.84211   0.9047   -0.00002 
 C                    -0.87117   2.37468   0.00003 
 C                    -3.64003   2.04978   0.00002 
 H                    -3.31166  -0.08323  -0.00005 
 C                    -1.70864   3.50523   0.00007 
 C                    -3.09016   3.35806   0.00007 
 H                    -4.72774   1.93278   0.00001 
 H                    -1.22318   4.48541   0.00009 
 H                    -3.74446   4.23271   0.0001 
 C                    -0.48792  -0.084    -0.00001 
 O                     0.42257   2.59059   0.00002 
 H                     0.79724   1.81435   0.00001 
 
 Initializing the GIC definitions file.
 Number of initial coordinates =   131
 Number of input entries/lines =    52
 Number of additional coordinates =     2
 Number of removed coordinates =     0
 Number of frozen coordinates =     2
 Number of final active and frozen coordinates =   133
 ITRead=  0  0  0  0  0  0  0  0  0  0  0  0  0  0  0  0  0  0  0  0
 ITRead=  0  0  0  0  0
 MicOpt= -1 -1 -1 -1 -1 -1 -1 -1 -1 -1 -1 -1 -1 -1 -1 -1 -1 -1 -1 -1
 MicOpt= -1 -1 -1 -1 -1
 NAtoms=     25 NQM=       25 NQMF=       0 NMMI=      0 NMMIF=      0
                NMic=       0 NMicF=      0.
                    Isotopes and Nuclear Properties:
 (Nuclear quadrupole moments (NQMom) in fm**2, nuclear magnetic moments (NMagM)
  in nuclear magnetons)

  Atom         1           2           3           4           5           6           7           8           9          10
 IAtWgt=          12          12          12          12          12          12           1           1           1           1
 AtmWgt=  12.0000000  12.0000000  12.0000000  12.0000000  12.0000000  12.0000000   1.0078250   1.0078250   1.0078250   1.0078250
 NucSpn=           0           0           0           0           0           0           1           1           1           1
 AtZEff=  -0.0000000  -0.0000000  -0.0000000  -0.0000000  -0.0000000  -0.0000000  -0.0000000  -0.0000000  -0.0000000  -0.0000000
 NQMom=    0.0000000   0.0000000   0.0000000   0.0000000   0.0000000   0.0000000   0.0000000   0.0000000   0.0000000   0.0000000
 NMagM=    0.0000000   0.0000000   0.0000000   0.0000000   0.0000000   0.0000000   2.7928460   2.7928460   2.7928460   2.7928460
 AtZNuc=   6.0000000   6.0000000   6.0000000   6.0000000   6.0000000   6.0000000   1.0000000   1.0000000   1.0000000   1.0000000

  Atom        11          12          13          14          15          16          17          18          19          20
 IAtWgt=          14          32          12          12          12          12           1          12          12           1
 AtmWgt=  14.0030740  31.9720718  12.0000000  12.0000000  12.0000000  12.0000000   1.0078250  12.0000000  12.0000000   1.0078250
 NucSpn=           2           0           0           0           0           0           1           0           0           1
 AtZEff=  -0.0000000  -0.0000000  -0.0000000  -0.0000000  -0.0000000  -0.0000000  -0.0000000  -0.0000000  -0.0000000  -0.0000000
 NQMom=    2.0440000   0.0000000   0.0000000   0.0000000   0.0000000   0.0000000   0.0000000   0.0000000   0.0000000   0.0000000
 NMagM=    0.4037610   0.0000000   0.0000000   0.0000000   0.0000000   0.0000000   2.7928460   0.0000000   0.0000000   2.7928460
 AtZNuc=   7.0000000  16.0000000   6.0000000   6.0000000   6.0000000   6.0000000   1.0000000   6.0000000   6.0000000   1.0000000

  Atom        21          22          23          24          25
 IAtWgt=           1           1          12          16           1
 AtmWgt=   1.0078250   1.0078250  12.0000000  15.9949146   1.0078250
 NucSpn=           1           1           0           0           1
 AtZEff=  -0.0000000  -0.0000000  -0.0000000  -0.0000000  -0.0000000
 NQMom=    0.0000000   0.0000000   0.0000000   0.0000000   0.0000000
 NMagM=    2.7928460   2.7928460   0.0000000   0.0000000   2.7928460
 AtZNuc=   1.0000000   1.0000000   6.0000000   8.0000000   1.0000000
 Leave Link  101 at Mon Jul 13 13:32:34 2020, MaxMem=  7784628224 cpu:              34.4 elap:               3.5
 (Enter /gpfs/loomis/apps/avx/software/Gaussian/16-C.01_AVX/g16/l103.exe)

 GradGradGradGradGradGradGradGradGradGradGradGradGradGradGradGradGradGrad
 Berny optimization.
 Initialization pass.
                           ----------------------------
                           !    Initial Parameters    !
                           ! (Angstroms and Degrees)  !
 --------------------------                            --------------------------
 ! Name  Definition              Value          Derivative Info.                !
 --------------------------------------------------------------------------------
 ! R1    R(1,2)                  1.3981         estimate D2E/DX2                !
 ! R2    R(1,6)                  1.403          estimate D2E/DX2                !
 ! R3    R(1,7)                  1.095          estimate D2E/DX2                !
 ! R4    R(2,3)                  1.4285         estimate D2E/DX2                !
 ! R5    R(2,12)                 1.7695         estimate D2E/DX2                !
 ! R6    R(3,4)                  1.4233         estimate D2E/DX2                !
 ! R7    R(3,11)                 1.323          estimate D2E/DX2                !
 ! R8    R(4,5)                  1.3811         estimate D2E/DX2                !
 ! R9    R(4,8)                  1.0951         estimate D2E/DX2                !
 ! R10   R(5,6)                  1.4137         estimate D2E/DX2                !
 ! R11   R(5,9)                  1.0939         estimate D2E/DX2                !
 ! R12   R(6,10)                 1.0937         estimate D2E/DX2                !
 ! R13   R(11,23)                1.3567         estimate D2E/DX2                !
 ! R14   R(12,23)                1.8017         estimate D2E/DX2                !
 ! R15   R(13,14)                1.4247         estimate D2E/DX2                !
 ! R16   R(13,15)                1.4902         estimate D2E/DX2                !
 ! R17   R(13,23)                1.4214         estimate D2E/DX2                !
 ! R18   R(14,16)                1.3957         estimate D2E/DX2                !
 ! R19   R(14,17)                1.0938         estimate D2E/DX2                !
 ! R20   R(15,18)                1.4069         estimate D2E/DX2                !
 ! R21   R(15,24)                1.3116         estimate D2E/DX2                !
 ! R22   R(16,19)                1.4191         estimate D2E/DX2                !
 ! R23   R(16,20)                1.094          estimate D2E/DX2                !
 ! R24   R(18,19)                1.3893         estimate D2E/DX2                !
 ! R25   R(18,21)                1.0938         estimate D2E/DX2                !
 ! R26   R(19,22)                1.0923         estimate D2E/DX2                !
 ! R27   R(24,25)                0.8619         estimate D2E/DX2                !
 ! A1    A(2,1,6)              118.6988         estimate D2E/DX2                !
 ! A2    A(2,1,7)              121.142          estimate D2E/DX2                !
 ! A3    A(6,1,7)              120.1592         estimate D2E/DX2                !
 ! A4    A(1,2,3)              119.9366         estimate D2E/DX2                !
 ! A5    A(1,2,12)             130.9873         estimate D2E/DX2                !
 ! A6    A(3,2,12)             109.0761         estimate D2E/DX2                !
 ! A7    A(2,3,4)              120.5862         estimate D2E/DX2                !
 ! A8    A(2,3,11)             115.4543         estimate D2E/DX2                !
 ! A9    A(4,3,11)             123.9596         estimate D2E/DX2                !
 ! A10   A(3,4,5)              118.6491         estimate D2E/DX2                !
 ! A11   A(3,4,8)              118.9548         estimate D2E/DX2                !
 ! A12   A(5,4,8)              122.3961         estimate D2E/DX2                !
 ! A13   A(4,5,6)              120.6644         estimate D2E/DX2                !
 ! A14   A(4,5,9)              119.9366         estimate D2E/DX2                !
 ! A15   A(6,5,9)              119.3991         estimate D2E/DX2                !
 ! A16   A(1,6,5)              121.465          estimate D2E/DX2                !
 ! A17   A(1,6,10)             119.1031         estimate D2E/DX2                !
 ! A18   A(5,6,10)             119.432          estimate D2E/DX2                !
 ! A19   A(3,11,23)            114.9214         estimate D2E/DX2                !
 ! A20   A(2,12,23)             89.273          estimate D2E/DX2                !
 ! A21   A(14,13,15)           115.0072         estimate D2E/DX2                !
 ! A22   A(14,13,23)           127.5687         estimate D2E/DX2                !
 ! A23   A(15,13,23)           117.4242         estimate D2E/DX2                !
 ! A24   A(13,14,16)           121.4686         estimate D2E/DX2                !
 ! A25   A(13,14,17)           118.8221         estimate D2E/DX2                !
 ! A26   A(16,14,17)           119.7093         estimate D2E/DX2                !
 ! A27   A(13,15,18)           121.8643         estimate D2E/DX2                !
 ! A28   A(13,15,24)           121.0804         estimate D2E/DX2                !
 ! A29   A(18,15,24)           117.0553         estimate D2E/DX2                !
 ! A30   A(14,16,19)           122.3334         estimate D2E/DX2                !
 ! A31   A(14,16,20)           118.7305         estimate D2E/DX2                !
 ! A32   A(19,16,20)           118.9361         estimate D2E/DX2                !
 ! A33   A(15,18,19)           120.4492         estimate D2E/DX2                !
 ! A34   A(15,18,21)           117.122          estimate D2E/DX2                !
 ! A35   A(19,18,21)           122.4287         estimate D2E/DX2                !
 ! A36   A(16,19,18)           118.8773         estimate D2E/DX2                !
 ! A37   A(16,19,22)           120.4038         estimate D2E/DX2                !
 ! A38   A(18,19,22)           120.7189         estimate D2E/DX2                !
 ! A39   A(11,23,12)           111.2752         estimate D2E/DX2                !
 ! A40   A(11,23,13)           118.2481         estimate D2E/DX2                !
 ! A41   A(12,23,13)           130.4767         estimate D2E/DX2                !
 ! A42   A(15,24,25)           106.2912         estimate D2E/DX2                !
 ! D1    D(6,1,2,3)              0.0001         estimate D2E/DX2                !
 ! D2    D(6,1,2,12)          -179.9999         estimate D2E/DX2                !
 ! D3    D(7,1,2,3)            180.0            estimate D2E/DX2                !
 ! D4    D(7,1,2,12)             0.0            estimate D2E/DX2                !
 ! D5    D(2,1,6,5)              0.0            estimate D2E/DX2                !
 ! D6    D(2,1,6,10)           180.0            estimate D2E/DX2                !
 ! D7    D(7,1,6,5)           -179.9999         estimate D2E/DX2                !
 ! D8    D(7,1,6,10)             0.0001         estimate D2E/DX2                !
 ! D9    D(1,2,3,4)             -0.0001         estimate D2E/DX2                !
 ! D10   D(1,2,3,11)           179.9999         estimate D2E/DX2                !
 ! D11   D(12,2,3,4)           179.9999         estimate D2E/DX2                !
 ! D12   D(12,2,3,11)           -0.0001         estimate D2E/DX2                !
 ! D13   D(1,2,12,23)         -180.0            estimate D2E/DX2                !
 ! D14   D(3,2,12,23)            0.0            estimate D2E/DX2                !
 ! D15   D(2,3,4,5)              0.0001         estimate D2E/DX2                !
 ! D16   D(2,3,4,8)           -179.9999         estimate D2E/DX2                !
 ! D17   D(11,3,4,5)          -179.9999         estimate D2E/DX2                !
 ! D18   D(11,3,4,8)             0.0            estimate D2E/DX2                !
 ! D19   D(2,3,11,23)            0.0001         estimate D2E/DX2                !
 ! D20   D(4,3,11,23)         -179.9998         estimate D2E/DX2                !
 ! D21   D(3,4,5,6)              0.0            estimate D2E/DX2                !
 ! D22   D(3,4,5,9)            180.0            estimate D2E/DX2                !
 ! D23   D(8,4,5,6)           -180.0            estimate D2E/DX2                !
 ! D24   D(8,4,5,9)              0.0            estimate D2E/DX2                !
 ! D25   D(4,5,6,1)             -0.0001         estimate D2E/DX2                !
 ! D26   D(4,5,6,10)           180.0            estimate D2E/DX2                !
 ! D27   D(9,5,6,1)            179.9999         estimate D2E/DX2                !
 ! D28   D(9,5,6,10)             0.0            estimate D2E/DX2                !
 ! D29   D(3,11,23,12)          -0.0001         estimate D2E/DX2                !
 ! D30   D(3,11,23,13)         179.9997         estimate D2E/DX2                !
 ! D31   D(2,12,23,11)           0.0001         estimate D2E/DX2                !
 ! D32   D(2,12,23,13)        -179.9997         estimate D2E/DX2                !
 ! D33   D(15,13,14,16)         -0.0009         estimate D2E/DX2                !
 ! D34   D(15,13,14,17)        179.9994         estimate D2E/DX2                !
 ! D35   D(23,13,14,16)        179.9989         estimate D2E/DX2                !
 ! D36   D(23,13,14,17)         -0.0008         estimate D2E/DX2                !
 ! D37   D(14,13,15,18)          0.0011         estimate D2E/DX2                !
 ! D38   D(14,13,15,24)       -179.999          estimate D2E/DX2                !
 ! D39   D(23,13,15,18)       -179.9988         estimate D2E/DX2                !
 ! D40   D(23,13,15,24)          0.0012         estimate D2E/DX2                !
 ! D41   D(14,13,23,11)        179.9991         estimate D2E/DX2                !
 ! D42   D(14,13,23,12)         -0.0012         estimate D2E/DX2                !
 ! D43   D(15,13,23,11)         -0.0011         estimate D2E/DX2                !
 ! D44   D(15,13,23,12)        179.9987         estimate D2E/DX2                !
 ! D45   D(13,14,16,19)          0.0002         estimate D2E/DX2                !
 ! D46   D(13,14,16,20)       -179.9997         estimate D2E/DX2                !
 ! D47   D(17,14,16,19)        179.9999         estimate D2E/DX2                !
 ! D48   D(17,14,16,20)          0.0            estimate D2E/DX2                !
 ! D49   D(13,15,18,19)         -0.0005         estimate D2E/DX2                !
 ! D50   D(13,15,18,21)        179.9997         estimate D2E/DX2                !
 ! D51   D(24,15,18,19)        179.9996         estimate D2E/DX2                !
 ! D52   D(24,15,18,21)         -0.0002         estimate D2E/DX2                !
 ! D53   D(13,15,24,25)         -0.0007         estimate D2E/DX2                !
 ! D54   D(18,15,24,25)        179.9992         estimate D2E/DX2                !
 ! D55   D(14,16,19,18)          0.0005         estimate D2E/DX2                !
 ! D56   D(14,16,19,22)       -179.9997         estimate D2E/DX2                !
 ! D57   D(20,16,19,18)       -179.9996         estimate D2E/DX2                !
 ! D58   D(20,16,19,22)          0.0002         estimate D2E/DX2                !
 ! D59   D(15,18,19,16)         -0.0003         estimate D2E/DX2                !
 ! D60   D(15,18,19,22)        179.9998         estimate D2E/DX2                !
 ! D61   D(21,18,19,16)        179.9995         estimate D2E/DX2                !
 ! D62   D(21,18,19,22)         -0.0003         estimate D2E/DX2                !
 ! Qtot  GIC-1                 -20.0            Frozen                          !
 ! Ptot  GIC-2                -140.0            Frozen                          !
 --------------------------------------------------------------------------------
 NOTE: GIC-type coordinates are in arbitrary units.
 Trust Radius=3.00D-01 FncErr=5.00D-06 GrdErr=5.00D-06 EigMax=2.50D+02 EigMin=1.00D-04
 Number of steps in this run=    143 maximum allowed number of steps=    150.
 GradGradGradGradGradGradGradGradGradGradGradGradGradGradGradGradGradGrad

 Leave Link  103 at Mon Jul 13 13:32:34 2020, MaxMem=  7784628224 cpu:               0.1 elap:               0.0
 (Enter /gpfs/loomis/apps/avx/software/Gaussian/16-C.01_AVX/g16/l202.exe)
                          Input orientation:                          
 ---------------------------------------------------------------------
 Center     Atomic      Atomic             Coordinates (Angstroms)
 Number     Number       Type             X           Y           Z
 ---------------------------------------------------------------------
      1          6           0        1.761825   -3.277065   -0.000025
      2          6           0        0.997083   -2.106669   -0.000021
      3          6           0        1.643431   -0.832795   -0.000018
      4          6           0        3.063800   -0.741354   -0.000017
      5          6           0        3.802448   -1.908310   -0.000022
      6          6           0        3.160561   -3.167918   -0.000026
      7          1           0        1.287003   -4.263793   -0.000027
      8          1           0        3.531313    0.248957   -0.000014
      9          1           0        4.895397   -1.862578   -0.000021
     10          1           0        3.765247   -4.079251   -0.000030
     11          7           0        0.835451    0.214758   -0.000015
     12         16           0       -0.755902   -1.865713   -0.000016
     13          6           0       -1.419878    0.989230   -0.000002
     14          6           0       -2.842114    0.904704   -0.000016
     15          6           0       -0.871169    2.374685    0.000029
     16          6           0       -3.640029    2.049776    0.000020
     17          1           0       -3.311664   -0.083233   -0.000049
     18          6           0       -1.708636    3.505230    0.000067
     19          6           0       -3.090160    3.358063    0.000066
     20          1           0       -4.727736    1.932780    0.000013
     21          1           0       -1.223175    4.485407    0.000093
     22          1           0       -3.744465    4.232711    0.000098
     23          6           0       -0.487923   -0.084004   -0.000012
     24          8           0        0.422567    2.590588    0.000024
     25          1           0        0.797242    1.814347    0.000012
 ---------------------------------------------------------------------
                    Distance matrix (angstroms):
                    1          2          3          4          5
     1  C    0.000000
     2  C    1.398091   0.000000
     3  C    2.447136   1.428468   0.000000
     4  C    2.850433   2.476975   1.423310   0.000000
     5  C    2.457160   2.812369   2.412071   1.381081   0.000000
     6  C    1.402988   2.409748   2.784687   2.428492   1.413729
     7  H    1.095028   2.176519   3.449462   3.945197   3.446123
     8  H    3.945114   3.459956   2.175842   1.095119   2.174239
     9  H    3.438030   3.905949   3.411120   2.147531   1.093906
    10  H    2.158055   3.399090   3.878348   3.410804   2.171260
    11  N    3.612617   2.327047   1.322950   2.424807   3.648354
    12  S    2.886324   1.769468   2.612225   3.981747   4.558549
    13  C    5.322077   3.927631   3.564215   4.806068   5.972304
    14  C    6.219602   4.879324   4.810303   6.131014   7.215487
    15  C    6.234977   4.855193   4.075676   5.019331   6.339301
    16  C    7.586519   6.227266   6.018651   7.261662   8.429526
    17  H    5.995069   4.760210   5.011468   6.409343   7.344487
    18  C    7.618637   6.230115   5.482227   6.388241   7.725183
    19  C    8.219896   6.824138   6.322197   7.394353   8.674257
    20  H    8.322072   7.006475   6.945514   8.237659   9.355105
    21  H    8.316622   6.955934   6.041581   6.759970   8.132435
    22  H    9.312141   7.916440   7.395185   8.431714   9.729750
    23  C    3.906022   2.509266   2.259061   3.612042   4.662121
    24  O    6.018552   4.732261   3.634564   4.251817   5.627048
    25  H    5.181978   3.926106   2.779100   3.415976   4.784290
                    6          7          8          9         10
     6  C    0.000000
     7  H    2.170521   0.000000
     8  H    3.436931   5.040023   0.000000
     9  H    2.171076   4.334321   2.513823   0.000000
    10  H    1.093697   2.485105   4.334526   2.488148   0.000000
    11  N    4.104708   4.501257   2.696078   4.560535   5.198290
    12  S    4.127278   3.150278   4.780381   5.651300   5.033939
    13  C    6.185652   5.909437   5.006225   6.929322   7.250863
    14  C    7.253851   6.615359   6.407072   8.217477   8.276293
    15  C    6.853852   6.980479   4.888820   7.155954   7.946675
    16  C    8.571602   8.008545   7.393990   9.389356   9.612653
    17  H    7.169726   6.214887   6.851035   8.397733   8.127166
    18  C    8.260749   8.326558   6.169309   8.510383   9.353489
    19  C    9.036589   8.789326   7.315083   9.540662  10.114853
    20  H    9.393739   8.635658   8.428946  10.344536  10.405541
    21  H    8.819893   9.102169   6.368097   8.816679   9.911494
    22  H   10.121694   9.874525   8.295012  10.573541  11.201986
    23  C    4.777233   4.541035   4.033003   5.669520   5.835362
    24  O    6.376284   6.908674   3.891983   6.311647   7.460580
    25  H    5.514366   6.097840   3.150490   5.505874   6.598754
                   11         12         13         14         15
    11  N    0.000000
    12  S    2.619306   0.000000
    13  C    2.384600   2.931136   0.000000
    14  C    3.741726   3.468067   1.424746   0.000000
    15  C    2.752787   4.241964   1.490156   2.458753   0.000000
    16  C    4.837067   4.863049   2.460453   1.395657   2.787857
    17  H    4.157808   3.115951   2.174634   1.093846   3.463723
    18  C    4.159277   5.454789   2.532516   2.836812   1.406941
    19  C    5.028996   5.721591   2.898485   2.465866   2.427129
    20  H    5.822426   5.495817   3.439798   2.147675   3.881802
    21  H    4.740927   6.368286   3.501706   3.929681   2.139873
    22  H    6.092584   6.791339   3.990473   3.448168   3.421709
    23  C    1.356679   1.801749   1.421397   2.553382   2.488378
    24  O    2.411440   4.609491   2.441096   3.674282   1.311628
    25  H    1.600045   3.994384   2.365680   3.751315   1.759993
                   16         17         18         19         20
    16  C    0.000000
    17  H    2.158137   0.000000
    18  C    2.418392   3.930238   0.000000
    19  C    1.419144   3.448418   1.389341   0.000000
    20  H    1.093981   2.463649   3.404051   2.170964   0.000000
    21  H    3.431250   5.023371   1.093810   2.180949   4.335649
    22  H    2.185431   4.337591   2.161904   1.092302   2.501301
    23  C    3.806414   2.823742   3.791139   4.315028   4.695043
    24  O    4.098434   4.592799   2.319180   3.595591   5.192141
    25  H    4.443512   4.525917   3.022997   4.182698   5.526247
                   21         22         23         24         25
    21  H    0.000000
    22  H    2.533921   0.000000
    23  C    4.628186   5.407319   0.000000
    24  O    2.509742   4.478920   2.825320   0.000000
    25  H    3.349126   5.145444   2.292463   0.861935   0.000000
 Symmetry turned off by external request.
 Stoichiometry    C13H9NOS
 Framework group  C1[X(C13H9NOS)]
 Deg. of freedom    69
 Full point group                 C1      NOp   1
 Rotational constants (GHZ):           1.3361446           0.2852777           0.2350851
 Leave Link  202 at Mon Jul 13 13:32:35 2020, MaxMem=  7784628224 cpu:               0.1 elap:               0.0
 (Enter /gpfs/loomis/apps/avx/software/Gaussian/16-C.01_AVX/g16/l301.exe)
 Standard basis: CC-pVDZ (5D, 7F)
 Ernie: Thresh=  0.10000D-02 Tol=  0.10000D-05 Strict=F.
 Ernie:  40 primitive shells out of 425 were deleted.
   273 basis functions,   629 primitive gaussians,   289 cartesian basis functions
    59 alpha electrons       59 beta electrons
       nuclear repulsion energy      1093.8520532979 Hartrees.
 IExCor= 4639 DFT=T Ex+Corr=wB97XD ExCW=0 ScaHFX=  1.000000
 ScaDFX=  1.000000  1.000000  1.000000  1.000000 ScalE2=  1.000000  1.000000
 IRadAn=      5 IRanWt=     -1 IRanGd=            0 ICorTp=0 IEmpDi=121
 HFx  wShort=  0.000000 wLong=  0.200000 cFull=  0.222036 cShort=  0.000000 cLong=  0.777964
 DFx  wShort=  0.000000 wLong=  0.200000 cFull=  0.000000 cShort=  0.000000 cLong=  1.000000
 NAtoms=   25 NActive=   25 NUniq=   25 SFac= 1.00D+00 NAtFMM=   60 NAOKFM=F Big=F
 Integral buffers will be    131072 words long.
 Raffenetti 1 integral format.
 Two-electron integral symmetry is turned off.
 R6Disp:  Grimme-D2 Dispersion energy=       -0.0140327443 Hartrees.
 Nuclear repulsion after empirical dispersion term =     1093.8380205536 Hartrees.
 ------------------------------------------------------------------------------
 Polarizable Continuum Model (PCM)
 =================================
 Model                : PCM.
 Atomic radii         : UFF (Universal Force Field).
 Polarization charges : Total charges.
 Charge compensation  : None.
 Solution method      : On-the-fly selection.
 Cavity type          : Scaled VdW (van der Waals Surface) (Alpha=1.100).
 Cavity algorithm     : GePol (No added spheres)
                        Default sphere list used, NSphG=   25.
                        Lebedev-Laikov grids with approx.  5.0 points / Ang**2.
                        Smoothing algorithm: York/Karplus (Gamma=1.0000).
                        Polarization charges: spherical gaussians, with
                                              point-specific exponents (IZeta= 3).
                        Self-potential: point-specific (ISelfS= 7).
                        Self-field    : sphere-specific E.n sum rule (ISelfD= 2).
 1st derivatives      : Analytical E(r).r(x)/FMM algorithm (CHGder, D1EAlg=3).
                        Cavity 1st derivative terms included.
 Solvent              : CarbonTetraChloride, Eps=   2.228000 Eps(inf)=   2.131892
 ------------------------------------------------------------------------------
 GePol: Number of generator spheres                  =      25
 GePol: Total number of spheres                      =      25
 GePol: Number of exposed spheres                    =      25 (100.00%)
 GePol: Number of points                             =    2210
 GePol: Average weight of points                     =       0.13
 GePol: Minimum weight of points                     =   0.30D-11
 GePol: Maximum weight of points                     =    0.20577
 GePol: Number of points with low weight             =     134
 GePol: Fraction of low-weight points (<1% of avg)   =       6.06%
 GePol: Cavity surface area                          =    276.321 Ang**2
 GePol: Cavity volume                                =    294.935 Ang**3
 Leave Link  301 at Mon Jul 13 13:32:35 2020, MaxMem=  7784628224 cpu:               0.8 elap:               0.1
 (Enter /gpfs/loomis/apps/avx/software/Gaussian/16-C.01_AVX/g16/l302.exe)
 NPDir=0 NMtPBC=     1 NCelOv=     1 NCel=       1 NClECP=     1 NCelD=      1
         NCelK=      1 NCelE2=     1 NClLst=     1 CellRange=     0.0.
 One-electron integrals computed using PRISM.
 NBasis=   273 RedAO= T EigKep=  3.22D-04  NBF=   273
 NBsUse=   273 1.00D-06 EigRej= -1.00D+00 NBFU=   273
 Precomputing XC quadrature grid using
 IXCGrd= 4 IRadAn=           5 IRanWt=          -1 IRanGd=           0 AccXCQ= 0.00D+00.
 Generated NRdTot=       0 NPtTot=           0 NUsed=           0 NTot=          32
 NSgBfM=   288   288   288   288   288 MxSgAt=    25 MxSgA2=    25.
 Leave Link  302 at Mon Jul 13 13:32:35 2020, MaxMem=  7784628224 cpu:               2.7 elap:               0.3
 (Enter /gpfs/loomis/apps/avx/software/Gaussian/16-C.01_AVX/g16/l303.exe)
 DipDrv:  MaxL=1.
 Leave Link  303 at Mon Jul 13 13:32:35 2020, MaxMem=  7784628224 cpu:               0.4 elap:               0.1
 (Enter /gpfs/loomis/apps/avx/software/Gaussian/16-C.01_AVX/g16/l308.exe)
 Leave Link  308 at Mon Jul 13 13:32:35 2020, MaxMem=  7784628224 cpu:               0.5 elap:               0.1
 (Enter /gpfs/loomis/apps/avx/software/Gaussian/16-C.01_AVX/g16/l401.exe)
 ExpMin= 1.22D-01 ExpMax= 1.11D+05 ExpMxC= 1.07D+03 IAcc=3 IRadAn=         5 AccDes= 0.00D+00
 Harris functional with IExCor= 4639 and IRadAn=       5 diagonalized for initial guess.
 HarFok:  IExCor= 4639 AccDes= 0.00D+00 IRadAn=         5 IDoV= 1 UseB2=F ITyADJ=14
 ICtDFT=  3500011 ScaDFX=  1.000000  1.000000  1.000000  1.000000
 FoFCou: FMM=F IPFlag=           0 FMFlag=      100000 FMFlg1=           0
         NFxFlg=           0 DoJE=T BraDBF=F KetDBF=T FulRan=T
         wScrn=  0.000000 ICntrl=       500 IOpCl=  0 I1Cent=   200000004 NGrid=           0
         NMat0=    1 NMatS0=      1 NMatT0=    0 NMatD0=    1 NMtDS0=    0 NMtDT0=    0
 Symmetry not used in FoFCou.
 Harris En= -994.421925961558    
 JPrj=0 DoOrth=F DoCkMO=F.
 Leave Link  401 at Mon Jul 13 13:32:37 2020, MaxMem=  7784628224 cpu:              13.8 elap:               1.4
 (Enter /gpfs/loomis/apps/avx/software/Gaussian/16-C.01_AVX/g16/l502.exe)
 Two-electron integral symmetry not used.
 Closed shell SCF:
 Using DIIS extrapolation, IDIIS=  1040.
 NGot=  7784628224 LenX=  7784455381 LenY=  7784371419
 Requested convergence on RMS density matrix=1.00D-08 within 128 cycles.
 Requested convergence on MAX density matrix=1.00D-06.
 Requested convergence on             energy=1.00D-06.
 No special actions if energy rises.
 Fock matrices will be formed incrementally for  20 cycles.

 Cycle   1  Pass 1  IDiag  1:
 FoFJK:  IHMeth= 1 ICntrl=       0 DoSepK=T KAlg= 0 I1Cent=           0 FoldK=F
 IRaf=         1 NMat=       1 IRICut=       1 DoRegI=T DoRafI=F ISym2E= 0 IDoP0=0 IntGTp=1.
 FoFCou: FMM=F IPFlag=           0 FMFlag=      100000 FMFlg1=           0
         NFxFlg=           0 DoJE=T BraDBF=F KetDBF=F FulRan=T
         wScrn=  0.000000 ICntrl=       500 IOpCl=  0 I1Cent=           0 NGrid=           0
         NMat0=    1 NMatS0=      1 NMatT0=    0 NMatD0=    1 NMtDS0=    0 NMtDT0=    0
 Symmetry not used in FoFCou.
 Inv3:  Mode=1 IEnd=    14652300.
 Iteration    1 A*A^-1 deviation from unit magnitude is 4.77D-15 for   2199.
 Iteration    1 A*A^-1 deviation from orthogonality  is 2.15D-15 for   1659     30.
 Iteration    1 A^-1*A deviation from unit magnitude is 4.77D-15 for   2199.
 Iteration    1 A^-1*A deviation from orthogonality  is 1.64D-15 for    980    891.
 E= -1028.56832978739    
 DIIS: error= 3.13D-02 at cycle   1 NSaved=   1.
 NSaved= 1 IEnMin= 1 EnMin= -1028.56832978739     IErMin= 1 ErrMin= 3.13D-02
 ErrMax= 3.13D-02  0.00D+00 EMaxC= 1.00D-01 BMatC= 3.77D-01 BMatP= 3.77D-01
 IDIUse=3 WtCom= 6.87D-01 WtEn= 3.13D-01
 Coeff-Com:  0.100D+01
 Coeff-En:   0.100D+01
 Coeff:      0.100D+01
 Gap=     0.363 Goal=   None    Shift=    0.000
 GapD=    0.363 DampG=1.000 DampE=0.500 DampFc=0.5000 IDamp=-1.
 Damping current iteration by 5.00D-01
 RMSDP=3.42D-03 MaxDP=2.26D-01              OVMax= 1.80D-01

 Cycle   2  Pass 1  IDiag  1:
 RMSU=  1.71D-03    CP:  9.94D-01
 E= -1028.68028819600     Delta-E=       -0.111958408612 Rises=F Damp=T
 DIIS: error= 1.09D-02 at cycle   2 NSaved=   2.
 NSaved= 2 IEnMin= 2 EnMin= -1028.68028819600     IErMin= 2 ErrMin= 1.09D-02
 ErrMax= 1.09D-02  0.00D+00 EMaxC= 1.00D-01 BMatC= 5.71D-02 BMatP= 3.77D-01
 IDIUse=3 WtCom= 8.91D-01 WtEn= 1.09D-01
 Coeff-Com: -0.320D+00 0.132D+01
 Coeff-En:   0.000D+00 0.100D+01
 Coeff:     -0.285D+00 0.128D+01
 Gap=     0.301 Goal=   None    Shift=    0.000
 RMSDP=1.13D-03 MaxDP=2.09D-02 DE=-1.12D-01 OVMax= 1.09D-01

 Cycle   3  Pass 1  IDiag  1:
 RMSU=  1.08D-03    CP:  9.92D-01  1.20D+00
 E= -1028.77832642072     Delta-E=       -0.098038224723 Rises=F Damp=F
 DIIS: error= 6.40D-03 at cycle   3 NSaved=   3.
 NSaved= 3 IEnMin= 3 EnMin= -1028.77832642072     IErMin= 3 ErrMin= 6.40D-03
 ErrMax= 6.40D-03  0.00D+00 EMaxC= 1.00D-01 BMatC= 1.22D-02 BMatP= 5.71D-02
 IDIUse=3 WtCom= 9.36D-01 WtEn= 6.40D-02
 Coeff-Com: -0.207D+00 0.483D+00 0.723D+00
 Coeff-En:   0.000D+00 0.000D+00 0.100D+01
 Coeff:     -0.194D+00 0.453D+00 0.741D+00
 Gap=     0.263 Goal=   None    Shift=    0.000
 RMSDP=4.90D-04 MaxDP=1.92D-02 DE=-9.80D-02 OVMax= 3.96D-02

 Cycle   4  Pass 1  IDiag  1:
 RMSU=  3.62D-04    CP:  9.90D-01  1.37D+00  8.49D-01
 E= -1028.79038196121     Delta-E=       -0.012055540484 Rises=F Damp=F
 DIIS: error= 2.12D-03 at cycle   4 NSaved=   4.
 NSaved= 4 IEnMin= 4 EnMin= -1028.79038196121     IErMin= 4 ErrMin= 2.12D-03
 ErrMax= 2.12D-03  0.00D+00 EMaxC= 1.00D-01 BMatC= 1.60D-03 BMatP= 1.22D-02
 IDIUse=3 WtCom= 9.79D-01 WtEn= 2.12D-02
 Coeff-Com: -0.781D-01 0.156D+00 0.362D+00 0.560D+00
 Coeff-En:   0.000D+00 0.000D+00 0.000D+00 0.100D+01
 Coeff:     -0.765D-01 0.152D+00 0.355D+00 0.569D+00
 Gap=     0.261 Goal=   None    Shift=    0.000
 RMSDP=1.52D-04 MaxDP=9.00D-03 DE=-1.21D-02 OVMax= 1.08D-02

 Cycle   5  Pass 1  IDiag  1:
 RMSU=  1.03D-04    CP:  9.90D-01  1.38D+00  9.16D-01  7.62D-01
 E= -1028.79206114874     Delta-E=       -0.001679187532 Rises=F Damp=F
 DIIS: error= 4.70D-04 at cycle   5 NSaved=   5.
 NSaved= 5 IEnMin= 5 EnMin= -1028.79206114874     IErMin= 5 ErrMin= 4.70D-04
 ErrMax= 4.70D-04  0.00D+00 EMaxC= 1.00D-01 BMatC= 7.20D-05 BMatP= 1.60D-03
 IDIUse=3 WtCom= 9.95D-01 WtEn= 4.70D-03
 Coeff-Com: -0.692D-02 0.791D-02 0.603D-01 0.205D+00 0.734D+00
 Coeff-En:   0.000D+00 0.000D+00 0.000D+00 0.000D+00 0.100D+01
 Coeff:     -0.689D-02 0.787D-02 0.600D-01 0.204D+00 0.735D+00
 Gap=     0.261 Goal=   None    Shift=    0.000
 RMSDP=4.91D-05 MaxDP=1.67D-03 DE=-1.68D-03 OVMax= 4.38D-03

 Cycle   6  Pass 1  IDiag  1:
 RMSU=  3.53D-05    CP:  9.90D-01  1.38D+00  9.31D-01  8.42D-01  1.02D+00
 E= -1028.79217903573     Delta-E=       -0.000117886995 Rises=F Damp=F
 DIIS: error= 1.76D-04 at cycle   6 NSaved=   6.
 NSaved= 6 IEnMin= 6 EnMin= -1028.79217903573     IErMin= 6 ErrMin= 1.76D-04
 ErrMax= 1.76D-04  0.00D+00 EMaxC= 1.00D-01 BMatC= 1.08D-05 BMatP= 7.20D-05
 IDIUse=3 WtCom= 9.98D-01 WtEn= 1.76D-03
 Coeff-Com:  0.151D-01-0.316D-01-0.549D-01-0.413D-01 0.235D+00 0.878D+00
 Coeff-En:   0.000D+00 0.000D+00 0.000D+00 0.000D+00 0.000D+00 0.100D+01
 Coeff:      0.150D-01-0.315D-01-0.548D-01-0.412D-01 0.234D+00 0.878D+00
 Gap=     0.262 Goal=   None    Shift=    0.000
 RMSDP=3.13D-05 MaxDP=1.49D-03 DE=-1.18D-04 OVMax= 2.70D-03

 Cycle   7  Pass 1  IDiag  1:
 RMSU=  1.72D-05    CP:  9.90D-01  1.38D+00  9.43D-01  8.81D-01  1.18D+00
                    CP:  1.16D+00
 E= -1028.79220840999     Delta-E=       -0.000029374259 Rises=F Damp=F
 DIIS: error= 1.02D-04 at cycle   7 NSaved=   7.
 NSaved= 7 IEnMin= 7 EnMin= -1028.79220840999     IErMin= 7 ErrMin= 1.02D-04
 ErrMax= 1.02D-04  0.00D+00 EMaxC= 1.00D-01 BMatC= 2.16D-06 BMatP= 1.08D-05
 IDIUse=3 WtCom= 9.99D-01 WtEn= 1.02D-03
 Coeff-Com:  0.732D-02-0.141D-01-0.317D-01-0.480D-01-0.212D-01 0.359D+00
 Coeff-Com:  0.748D+00
 Coeff-En:   0.000D+00 0.000D+00 0.000D+00 0.000D+00 0.000D+00 0.000D+00
 Coeff-En:   0.100D+01
 Coeff:      0.732D-02-0.141D-01-0.317D-01-0.480D-01-0.212D-01 0.359D+00
 Coeff:      0.749D+00
 Gap=     0.262 Goal=   None    Shift=    0.000
 RMSDP=1.11D-05 MaxDP=5.58D-04 DE=-2.94D-05 OVMax= 1.31D-03

 Cycle   8  Pass 1  IDiag  1:
 RMSU=  6.65D-06    CP:  9.90D-01  1.38D+00  9.45D-01  8.88D-01  1.22D+00
                    CP:  1.35D+00  1.10D+00
 E= -1028.79221308235     Delta-E=       -0.000004672354 Rises=F Damp=F
 DIIS: error= 3.17D-05 at cycle   8 NSaved=   8.
 NSaved= 8 IEnMin= 8 EnMin= -1028.79221308235     IErMin= 8 ErrMin= 3.17D-05
 ErrMax= 3.17D-05  0.00D+00 EMaxC= 1.00D-01 BMatC= 2.10D-07 BMatP= 2.16D-06
 IDIUse=1 WtCom= 1.00D+00 WtEn= 0.00D+00
 Coeff-Com: -0.101D-02 0.231D-02 0.253D-02-0.182D-02-0.363D-01-0.545D-01
 Coeff-Com:  0.182D+00 0.906D+00
 Coeff:     -0.101D-02 0.231D-02 0.253D-02-0.182D-02-0.363D-01-0.545D-01
 Coeff:      0.182D+00 0.906D+00
 Gap=     0.262 Goal=   None    Shift=    0.000
 RMSDP=4.50D-06 MaxDP=1.27D-04 DE=-4.67D-06 OVMax= 6.03D-04

 Cycle   9  Pass 1  IDiag  1:
 RMSU=  2.16D-06    CP:  9.90D-01  1.38D+00  9.45D-01  8.88D-01  1.23D+00
                    CP:  1.41D+00  1.28D+00  1.13D+00
 E= -1028.79221371429     Delta-E=       -0.000000631944 Rises=F Damp=F
 DIIS: error= 1.55D-05 at cycle   9 NSaved=   9.
 NSaved= 9 IEnMin= 9 EnMin= -1028.79221371429     IErMin= 9 ErrMin= 1.55D-05
 ErrMax= 1.55D-05  0.00D+00 EMaxC= 1.00D-01 BMatC= 4.80D-08 BMatP= 2.10D-07
 IDIUse=1 WtCom= 1.00D+00 WtEn= 0.00D+00
 Coeff-Com: -0.126D-02 0.255D-02 0.474D-02 0.550D-02-0.118D-01-0.687D-01
 Coeff-Com: -0.157D-01 0.358D+00 0.727D+00
 Coeff:     -0.126D-02 0.255D-02 0.474D-02 0.550D-02-0.118D-01-0.687D-01
 Coeff:     -0.157D-01 0.358D+00 0.727D+00
 Gap=     0.262 Goal=   None    Shift=    0.000
 RMSDP=1.70D-06 MaxDP=5.36D-05 DE=-6.32D-07 OVMax= 1.56D-04

 Cycle  10  Pass 1  IDiag  1:
 RMSU=  9.29D-07    CP:  9.90D-01  1.38D+00  9.45D-01  8.88D-01  1.23D+00
                    CP:  1.42D+00  1.33D+00  1.27D+00  1.08D+00
 E= -1028.79221382400     Delta-E=       -0.000000109707 Rises=F Damp=F
 DIIS: error= 7.69D-06 at cycle  10 NSaved=  10.
 NSaved=10 IEnMin=10 EnMin= -1028.79221382400     IErMin=10 ErrMin= 7.69D-06
 ErrMax= 7.69D-06  0.00D+00 EMaxC= 1.00D-01 BMatC= 7.41D-09 BMatP= 4.80D-08
 IDIUse=1 WtCom= 1.00D+00 WtEn= 0.00D+00
 Coeff-Com: -0.261D-03 0.483D-03 0.119D-02 0.253D-02 0.239D-02-0.193D-01
 Coeff-Com: -0.394D-01-0.339D-01 0.243D+00 0.844D+00
 Coeff:     -0.261D-03 0.483D-03 0.119D-02 0.253D-02 0.239D-02-0.193D-01
 Coeff:     -0.394D-01-0.339D-01 0.243D+00 0.844D+00
 Gap=     0.262 Goal=   None    Shift=    0.000
 RMSDP=9.30D-07 MaxDP=2.69D-05 DE=-1.10D-07 OVMax= 1.42D-04

 Cycle  11  Pass 1  IDiag  1:
 RMSU=  4.37D-07    CP:  9.90D-01  1.38D+00  9.45D-01  8.88D-01  1.23D+00
                    CP:  1.43D+00  1.35D+00  1.32D+00  1.30D+00  1.17D+00
 E= -1028.79221385241     Delta-E=       -0.000000028409 Rises=F Damp=F
 DIIS: error= 3.21D-06 at cycle  11 NSaved=  11.
 NSaved=11 IEnMin=11 EnMin= -1028.79221385241     IErMin=11 ErrMin= 3.21D-06
 ErrMax= 3.21D-06  0.00D+00 EMaxC= 1.00D-01 BMatC= 1.85D-09 BMatP= 7.41D-09
 IDIUse=1 WtCom= 1.00D+00 WtEn= 0.00D+00
 Coeff-Com:  0.143D-03-0.300D-03-0.487D-03-0.625D-04 0.295D-02 0.421D-02
 Coeff-Com: -0.676D-02-0.623D-01-0.727D-01 0.298D+00 0.837D+00
 Coeff:      0.143D-03-0.300D-03-0.487D-03-0.625D-04 0.295D-02 0.421D-02
 Coeff:     -0.676D-02-0.623D-01-0.727D-01 0.298D+00 0.837D+00
 Gap=     0.262 Goal=   None    Shift=    0.000
 RMSDP=4.01D-07 MaxDP=9.52D-06 DE=-2.84D-08 OVMax= 6.32D-05

 Cycle  12  Pass 1  IDiag  1:
 RMSU=  1.68D-07    CP:  9.90D-01  1.38D+00  9.45D-01  8.88D-01  1.24D+00
                    CP:  1.43D+00  1.36D+00  1.34D+00  1.39D+00  1.43D+00
                    CP:  1.17D+00
 E= -1028.79221385850     Delta-E=       -0.000000006097 Rises=F Damp=F
 DIIS: error= 1.16D-06 at cycle  12 NSaved=  12.
 NSaved=12 IEnMin=12 EnMin= -1028.79221385850     IErMin=12 ErrMin= 1.16D-06
 ErrMax= 1.16D-06  0.00D+00 EMaxC= 1.00D-01 BMatC= 2.95D-10 BMatP= 1.85D-09
 IDIUse=1 WtCom= 1.00D+00 WtEn= 0.00D+00
 Coeff-Com:  0.110D-03-0.216D-03-0.466D-03-0.631D-03 0.585D-03 0.582D-02
 Coeff-Com:  0.759D-02-0.104D-01-0.986D-01-0.998D-01 0.205D+00 0.991D+00
 Coeff:      0.110D-03-0.216D-03-0.466D-03-0.631D-03 0.585D-03 0.582D-02
 Coeff:      0.759D-02-0.104D-01-0.986D-01-0.998D-01 0.205D+00 0.991D+00
 Gap=     0.262 Goal=   None    Shift=    0.000
 RMSDP=2.46D-07 MaxDP=5.95D-06 DE=-6.10D-09 OVMax= 3.85D-05

 Cycle  13  Pass 1  IDiag  1:
 RMSU=  7.20D-08    CP:  9.90D-01  1.38D+00  9.45D-01  8.88D-01  1.24D+00
                    CP:  1.43D+00  1.36D+00  1.35D+00  1.44D+00  1.58D+00
                    CP:  1.45D+00  1.30D+00
 E= -1028.79221386002     Delta-E=       -0.000000001517 Rises=F Damp=F
 DIIS: error= 4.09D-07 at cycle  13 NSaved=  13.
 NSaved=13 IEnMin=13 EnMin= -1028.79221386002     IErMin=13 ErrMin= 4.09D-07
 ErrMax= 4.09D-07  0.00D+00 EMaxC= 1.00D-01 BMatC= 3.42D-11 BMatP= 2.95D-10
 IDIUse=1 WtCom= 1.00D+00 WtEn= 0.00D+00
 Coeff-Com: -0.155D-05 0.553D-05-0.161D-04-0.104D-03-0.190D-03 0.549D-03
 Coeff-Com:  0.267D-02 0.824D-02-0.114D-01-0.548D-01-0.972D-01 0.213D+00
 Coeff-Com:  0.940D+00
 Coeff:     -0.155D-05 0.553D-05-0.161D-04-0.104D-03-0.190D-03 0.549D-03
 Coeff:      0.267D-02 0.824D-02-0.114D-01-0.548D-01-0.972D-01 0.213D+00
 Coeff:      0.940D+00
 Gap=     0.262 Goal=   None    Shift=    0.000
 RMSDP=7.10D-08 MaxDP=1.58D-06 DE=-1.52D-09 OVMax= 1.01D-05

 Cycle  14  Pass 1  IDiag  1:
 RMSU=  2.81D-08    CP:  9.90D-01  1.38D+00  9.45D-01  8.88D-01  1.24D+00
                    CP:  1.43D+00  1.36D+00  1.35D+00  1.45D+00  1.61D+00
                    CP:  1.52D+00  1.51D+00  1.22D+00
 E= -1028.79221386016     Delta-E=       -0.000000000142 Rises=F Damp=F
 DIIS: error= 1.43D-07 at cycle  14 NSaved=  14.
 NSaved=14 IEnMin=14 EnMin= -1028.79221386016     IErMin=14 ErrMin= 1.43D-07
 ErrMax= 1.43D-07  0.00D+00 EMaxC= 1.00D-01 BMatC= 5.85D-12 BMatP= 3.42D-11
 IDIUse=1 WtCom= 1.00D+00 WtEn= 0.00D+00
 Coeff-Com: -0.121D-04 0.246D-04 0.428D-04 0.256D-04-0.126D-03-0.409D-03
 Coeff-Com:  0.154D-03 0.397D-02 0.465D-02-0.815D-02-0.573D-01-0.225D-01
 Coeff-Com:  0.356D+00 0.723D+00
 Coeff:     -0.121D-04 0.246D-04 0.428D-04 0.256D-04-0.126D-03-0.409D-03
 Coeff:      0.154D-03 0.397D-02 0.465D-02-0.815D-02-0.573D-01-0.225D-01
 Coeff:      0.356D+00 0.723D+00
 Gap=     0.262 Goal=   None    Shift=    0.000
 RMSDP=1.80D-08 MaxDP=4.32D-07 DE=-1.42D-10 OVMax= 2.54D-06

 Cycle  15  Pass 1  IDiag  1:
 RMSU=  9.82D-09    CP:  9.90D-01  1.38D+00  9.45D-01  8.88D-01  1.24D+00
                    CP:  1.43D+00  1.36D+00  1.35D+00  1.45D+00  1.62D+00
                    CP:  1.54D+00  1.55D+00  1.35D+00  1.03D+00
 E= -1028.79221386017     Delta-E=       -0.000000000008 Rises=F Damp=F
 DIIS: error= 4.45D-08 at cycle  15 NSaved=  15.
 NSaved=15 IEnMin=15 EnMin= -1028.79221386017     IErMin=15 ErrMin= 4.45D-08
 ErrMax= 4.45D-08  0.00D+00 EMaxC= 1.00D-01 BMatC= 6.81D-13 BMatP= 5.85D-12
 IDIUse=1 WtCom= 1.00D+00 WtEn= 0.00D+00
 Coeff-Com: -0.284D-05 0.531D-05 0.150D-04 0.260D-04-0.793D-05-0.240D-03
 Coeff-Com: -0.496D-03-0.193D-03 0.348D-02 0.863D-02 0.233D-03-0.491D-01
 Coeff-Com: -0.661D-01 0.189D+00 0.914D+00
 Coeff:     -0.284D-05 0.531D-05 0.150D-04 0.260D-04-0.793D-05-0.240D-03
 Coeff:     -0.496D-03-0.193D-03 0.348D-02 0.863D-02 0.233D-03-0.491D-01
 Coeff:     -0.661D-01 0.189D+00 0.914D+00
 Gap=     0.262 Goal=   None    Shift=    0.000
 RMSDP=8.54D-09 MaxDP=1.80D-07 DE=-7.73D-12 OVMax= 9.61D-07

 Error on total polarization charges =  0.00849
 SCF Done:  E(RwB97XD) =  -1028.79221386     A.U. after   15 cycles
            NFock= 15  Conv=0.85D-08     -V/T= 2.0048
 KE= 1.023863876101D+03 PE=-4.599879209606D+03 EE= 1.453385099092D+03
 Leave Link  502 at Mon Jul 13 13:34:00 2020, MaxMem=  7784628224 cpu:             825.9 elap:              83.4
 (Enter /gpfs/loomis/apps/avx/software/Gaussian/16-C.01_AVX/g16/l801.exe)
 DoSCS=F DFT=T ScalE2(SS,OS)=  1.000000  1.000000
 ExpMin= 1.22D-01 ExpMax= 1.11D+05 ExpMxC= 1.07D+03 IAcc=3 IRadAn=         5 AccDes= 0.00D+00
 HarFok:  IExCor=  205 AccDes= 0.00D+00 IRadAn=         5 IDoV=-2 UseB2=F ITyADJ=14
 ICtDFT= 12500011 ScaDFX=  1.000000  1.000000  1.000000  1.000000
 Largest valence mixing into a core orbital is  9.60D-05
 Largest core mixing into a valence orbital is  3.24D-05
 Range of M.O.s used for correlation:    21   273
 NBasis=   273 NAE=    59 NBE=    59 NFC=    20 NFV=     0
 NROrb=    253 NOA=    39 NOB=    39 NVA=   214 NVB=   214
 Leave Link  801 at Mon Jul 13 13:34:00 2020, MaxMem=  7784628224 cpu:               1.0 elap:               0.1
 (Enter /gpfs/loomis/apps/avx/software/Gaussian/16-C.01_AVX/g16/l914.exe)
 RHF ground state
 Keep R1, R2, and R3 ints in memory in canonical form, NReq=4262515490.
 FoFCou: FMM=F IPFlag=           0 FMFlag=           0 FMFlg1=           0
         NFxFlg=           0 DoJE=F BraDBF=F KetDBF=F FulRan=T
         wScrn=  0.000000 ICntrl=       600 IOpCl=  0 I1Cent=           0 NGrid=           0
         NMat0=    1 NMatS0=  37401 NMatT0=    0 NMatD0=    1 NMtDS0=    0 NMtDT0=    0
 Symmetry not used in FoFCou.
 Two-electron integral symmetry not used.
 MDV=  7784628224 DFT=T DoStab=F Mixed=T DoRPA=T DoScal=F NonHer=T
 NEqPCM:  Using equilibrium solvation (IEInf=0, Eps=   2.2280, EpsInf=   2.1319)
 Making orbital integer symmetry assigments:
    12 initial guesses have been made.
 Convergence on wavefunction:    0.000001000000000
 Davidson Disk Diagonalization:  ConvIn= 1.00D-06 SkipCon=T Conv= 1.00D-06.
 Max sub-space:  2000 roots to seek:    12 dimension of matrix:        16692
 Iteration     1 Dimension    12 NMult     0 NNew     12
 CISAX will form    12 AO SS matrices at one time.
 NMat=    12 NSing=    12 JSym2X= 0.
 Excitation Energies [eV] at current iteration:
 Root      1 :     4.057726216565992
 Root      2 :     4.990018816102894
 Root      3 :     4.999711639165685
 Root      4 :     5.199693644128607
 Root      5 :     5.930078769457267
 Root      6 :     6.162946162924243
 Root      7 :     6.289324866747529
 Root      8 :     6.561635913990588
 Root      9 :     6.885016164075692
 Root     10 :     7.173996339713906
 Root     11 :     7.428826284892366
 Root     12 :     7.581541636815762
 Iteration     2 Dimension    18 NMult    12 NNew      6
 CISAX will form     6 AO SS matrices at one time.
 NMat=     6 NSing=     6 JSym2X= 0.
 Root      1 not converged, maximum delta is    0.055374250723344
 Root      2 not converged, maximum delta is    0.135531575807097
 Root      3 not converged, maximum delta is    0.128216859886012
 Excitation Energies [eV] at current iteration:
 Root      1 :     3.562260655987804   Change is   -0.495465560578189
 Root      2 :     4.459725782260398   Change is   -0.530293033842497
 Root      3 :     4.616585556444136   Change is   -0.383126082721550
 Iteration     3 Dimension    24 NMult    18 NNew      6
 CISAX will form     6 AO SS matrices at one time.
 NMat=     6 NSing=     6 JSym2X= 0.
 Root      1 not converged, maximum delta is    0.025566040553220
 Root      2 not converged, maximum delta is    0.035970650329131
 Root      3 not converged, maximum delta is    0.028163000401310
 Excitation Energies [eV] at current iteration:
 Root      1 :     3.527208146891091   Change is   -0.035052509096713
 Root      2 :     4.413965668056671   Change is   -0.045760114203727
 Root      3 :     4.571390294794371   Change is   -0.045195261649765
 Iteration     4 Dimension    30 NMult    24 NNew      6
 CISAX will form     6 AO SS matrices at one time.
 NMat=     6 NSing=     6 JSym2X= 0.
 Root      1 not converged, maximum delta is    0.007696520902356
 Root      2 not converged, maximum delta is    0.008862149302291
 Root      3 not converged, maximum delta is    0.008969013721028
 Excitation Energies [eV] at current iteration:
 Root      1 :     3.523639401469878   Change is   -0.003568745421213
 Root      2 :     4.407834852268533   Change is   -0.006130815788137
 Root      3 :     4.566493296643962   Change is   -0.004896998150408
 Iteration     5 Dimension    36 NMult    30 NNew      6
 CISAX will form     6 AO SS matrices at one time.
 NMat=     6 NSing=     6 JSym2X= 0.
 Root      1 not converged, maximum delta is    0.002732507568046
 Root      2 not converged, maximum delta is    0.002850031196332
 Root      3 not converged, maximum delta is    0.003194850132263
 Excitation Energies [eV] at current iteration:
 Root      1 :     3.523253752115169   Change is   -0.000385649354708
 Root      2 :     4.407196509201433   Change is   -0.000638343067101
 Root      3 :     4.565907888184539   Change is   -0.000585408459423
 Iteration     6 Dimension    42 NMult    36 NNew      6
 CISAX will form     6 AO SS matrices at one time.
 NMat=     6 NSing=     6 JSym2X= 0.
 Root      1 not converged, maximum delta is    0.000552991236007
 Root      2 not converged, maximum delta is    0.000405354107485
 Root      3 not converged, maximum delta is    0.000893700185102
 Excitation Energies [eV] at current iteration:
 Root      1 :     3.523221446152623   Change is   -0.000032305962546
 Root      2 :     4.407156840098452   Change is   -0.000039669102981
 Root      3 :     4.565846668699168   Change is   -0.000061219485371
 Iteration     7 Dimension    48 NMult    42 NNew      6
 CISAX will form     6 AO SS matrices at one time.
 NMat=     6 NSing=     6 JSym2X= 0.
 Root      1 not converged, maximum delta is    0.000089947004613
 Root      2 not converged, maximum delta is    0.000182772889547
 Root      3 not converged, maximum delta is    0.000264240838061
 Excitation Energies [eV] at current iteration:
 Root      1 :     3.523219180626088   Change is   -0.000002265526534
 Root      2 :     4.407152884303343   Change is   -0.000003955795108
 Root      3 :     4.565841574458273   Change is   -0.000005094240895
 Iteration     8 Dimension    54 NMult    48 NNew      6
 CISAX will form     6 AO SS matrices at one time.
 NMat=     6 NSing=     6 JSym2X= 0.
 Root      1 not converged, maximum delta is    0.000021324278531
 Root      2 not converged, maximum delta is    0.000059149448105
 Root      3 not converged, maximum delta is    0.000075272719867
 Excitation Energies [eV] at current iteration:
 Root      1 :     3.523219064724783   Change is   -0.000000115901306
 Root      2 :     4.407152598577400   Change is   -0.000000285725943
 Root      3 :     4.565841134277581   Change is   -0.000000440180692
 Iteration     9 Dimension    60 NMult    54 NNew      6
 CISAX will form     6 AO SS matrices at one time.
 NMat=     6 NSing=     6 JSym2X= 0.
 Root      1 not converged, maximum delta is    0.000005432321460
 Root      2 not converged, maximum delta is    0.000018929163467
 Root      3 not converged, maximum delta is    0.000017503985652
 Excitation Energies [eV] at current iteration:
 Root      1 :     3.523219057399389   Change is   -0.000000007325394
 Root      2 :     4.407152574049463   Change is   -0.000000024527937
 Root      3 :     4.565841092771351   Change is   -0.000000041506229
 Iteration    10 Dimension    66 NMult    60 NNew      6
 CISAX will form     6 AO SS matrices at one time.
 NMat=     6 NSing=     6 JSym2X= 0.
 Root      1 has converged.
 Root      2 not converged, maximum delta is    0.000002577278903
 Root      3 not converged, maximum delta is    0.000004532716143
 Excitation Energies [eV] at current iteration:
 Root      1 :     3.523219057161346   Change is   -0.000000000238044
 Root      2 :     4.407152572995595   Change is   -0.000000001053869
 Root      3 :     4.565841090438240   Change is   -0.000000002333112
 Iteration    11 Dimension    70 NMult    66 NNew      4
 CISAX will form     4 AO SS matrices at one time.
 NMat=     4 NSing=     4 JSym2X= 0.
 Root      1 has converged.
 Root      2 has converged.
 Root      3 has converged.
 Excitation Energies [eV] at current iteration:
 Root      1 :     3.523219057158055   Change is   -0.000000000003290
 Root      2 :     4.407152572942525   Change is   -0.000000000053069
 Root      3 :     4.565841090345227   Change is   -0.000000000093013
 Convergence achieved on expansion vectors.
 ***********************************************************************
 Excited states from <AA,BB:AA,BB> singles matrix:
 ***********************************************************************
 
 1PDM for each excited state written to RWF  633
 Ground to excited state transition densities written to RWF  633
 Ground to excited state transition electric dipole moments (Au):
       state          X           Y           Z        Dip. S.      Osc.
         1        -1.7854      2.2803      0.0000      8.3874      0.7240
         2         1.5176     -0.3997      0.0000      2.4629      0.2659
         3        -0.4148     -0.2578      0.0000      0.2385      0.0267
 Ground to excited state transition velocity dipole moments (Au):
       state          X           Y           Z        Dip. S.      Osc.
         1         0.2239     -0.2921     -0.0000      0.1355      0.6976
         2        -0.2418      0.0568     -0.0000      0.0617      0.2539
         3         0.0701      0.0409     -0.0000      0.0066      0.0261
 Ground to excited state transition magnetic dipole moments (Au):
       state          X           Y           Z
         1        -0.0000     -0.0000      0.7229
         2        -0.0000     -0.0000      1.0056
         3         0.0000     -0.0000      0.3578
 Ground to excited state transition velocity quadrupole moments (Au):
       state          XX          YY          ZZ          XY          XZ          YZ
         1         0.1707     -0.5098      0.0098      0.1809      0.0000     -0.0000
         2         0.1481     -0.6139      0.0124      0.1750      0.0000     -0.0000
         3         0.4737     -0.2273     -0.0220     -0.2588     -0.0000     -0.0000
 <0|del|b> * <b|rxdel|0> + <0|del|b> * <b|delr+rdel|0>
 Rotatory Strengths (R) in cgs (10**-40 erg-esu-cm/Gauss)
       state          XX          YY          ZZ    R(velocity)    E-M Angle
         1         0.0195     -0.0213      0.0202      0.0061       90.00
         2        -0.0052      0.0030     -0.0045     -0.0022       90.00
         3        -0.0005     -0.0002      0.0001     -0.0002       90.00
 1/2[<0|r|b>*<b|rxdel|0> + (<0|rxdel|b>*<b|r|0>)*]
 Rotatory Strengths (R) in cgs (10**-40 erg-esu-cm/Gauss)
       state          XX          YY          ZZ     R(length)
         1        -0.0136      0.0481     -0.0167      0.0060
         2         0.0013     -0.0053     -0.0027     -0.0022
         3         0.0011     -0.0013     -0.0004     -0.0002
  1/2[<0|del|b>*<b|r|0> + (<0|r|b>*<b|del|0>)*] (Au)
       state          X           Y           Z        Dip. S.   Osc.(frdel)
         1        -0.3998     -0.6662     -0.0000      1.0659      0.7106
         2        -0.3669     -0.0227     -0.0000      0.3896      0.2598
         3        -0.0291     -0.0105     -0.0000      0.0396      0.0264

 Excitation energies and oscillator strengths:
 
 Excited state symmetry could not be determined.
 Excited State   1:      Singlet-?Sym    3.5232 eV  351.91 nm  f=0.7240  <S**2>=0.000
      59 -> 60         0.68832
 This state for optimization and/or second-order correction.
 Total Energy, E(TD-HF/TD-DFT) =  -1028.66273794    
 Copying the excited state density for this state as the 1-particle RhoCI density.
 
 Excited state symmetry could not be determined.
 Excited State   2:      Singlet-?Sym    4.4072 eV  281.32 nm  f=0.2659  <S**2>=0.000
      57 -> 60         0.22958
      58 -> 60         0.61590
      59 -> 62        -0.17231
 
 Excited state symmetry could not be determined.
 Excited State   3:      Singlet-?Sym    4.5658 eV  271.55 nm  f=0.0267  <S**2>=0.000
      57 -> 60         0.57385
      57 -> 63        -0.11890
      58 -> 60        -0.21499
      58 -> 61        -0.11752
      58 -> 63         0.10320
      59 -> 61         0.24755
 SavETr:  write IOETrn=   770 NScale= 10 NData=  16 NLR=1 NState=    3 LETran=      64.
 The selected state is a singlet.
 CISGrd: IGrad=2 NXY=2 DFT=T
 CISAX will form     1 AO SS matrices at one time.
 NMat=     1 NSing=     1 JSym2X= 0.
 GePol: Maximum number of non-zero 1st derivatives   =     273
 Leave Link  914 at Mon Jul 13 13:36:44 2020, MaxMem=  7784628224 cpu:            1616.1 elap:             164.2
 (Enter /gpfs/loomis/apps/avx/software/Gaussian/16-C.01_AVX/g16/l1002.exe)
 Minotr:  Closed shell wavefunction.
          Computing CIS/TDA/TD derivatives.
          Using Z-Vector for PSCF gradient.
          Skipping F1 and S1 gradient terms here.
          IDoAtm=1111111111111111111111111
 NEqPCM:  Using equilibrium solvation (IEInf=0, Eps=   2.2280, EpsInf=   2.1319)
          Frozen-core window.
          Direct CPHF calculation.
          Differentiating once with respect to electric field.
                with respect to dipole field.
          Differentiating once with respect to nuclear coordinates.
          Requested convergence is 1.0D-10 RMS, and 1.0D-09 maximum.
          NewPWx=F KeepS1=T KeepF1=T KeepIn=T MapXYZ=F SortEE=F KeepMc=T.
 Keep R1 ints in memory in canonical form, NReq=1421675094.
 FoFCou: FMM=F IPFlag=           0 FMFlag=           0 FMFlg1=           0
         NFxFlg=           0 DoJE=F BraDBF=F KetDBF=F FulRan=T
         wScrn=  0.000000 ICntrl=       600 IOpCl=  0 I1Cent=           0 NGrid=           0
         NMat0=    1 NMatS0=  37401 NMatT0=    0 NMatD0=    1 NMtDS0=    0 NMtDT0=    0
 Symmetry not used in FoFCou.
 Two-electron integral symmetry not used.
          MDV=    7784628224 using IRadAn=       5.
          Solving linear equations separately, MaxMat=       0.
          There are     1 degrees of freedom in the 1st order CPHF.  IDoFFX=0 NUNeed=     1.
 LinEq1:  Iter=  0 NonCon=     1 RMS=3.79D-03 Max=1.96D-01 NDo=     1
 AX will form     1 AO Fock derivatives at one time.
 LinEq1:  Iter=  1 NonCon=     1 RMS=1.54D-03 Max=7.24D-02 NDo=     1
 LinEq1:  Iter=  2 NonCon=     1 RMS=8.85D-04 Max=3.88D-02 NDo=     1
 LinEq1:  Iter=  3 NonCon=     1 RMS=3.45D-04 Max=1.07D-02 NDo=     1
 LinEq1:  Iter=  4 NonCon=     1 RMS=1.88D-04 Max=7.84D-03 NDo=     1
 LinEq1:  Iter=  5 NonCon=     1 RMS=1.00D-04 Max=4.06D-03 NDo=     1
 LinEq1:  Iter=  6 NonCon=     1 RMS=4.35D-05 Max=1.37D-03 NDo=     1
 LinEq1:  Iter=  7 NonCon=     1 RMS=2.91D-05 Max=1.05D-03 NDo=     1
 LinEq1:  Iter=  8 NonCon=     1 RMS=1.03D-05 Max=2.95D-04 NDo=     1
 LinEq1:  Iter=  9 NonCon=     1 RMS=5.53D-06 Max=1.38D-04 NDo=     1
 LinEq1:  Iter= 10 NonCon=     1 RMS=1.99D-06 Max=7.37D-05 NDo=     1
 LinEq1:  Iter= 11 NonCon=     1 RMS=1.05D-06 Max=4.02D-05 NDo=     1
 LinEq1:  Iter= 12 NonCon=     1 RMS=5.13D-07 Max=1.41D-05 NDo=     1
 LinEq1:  Iter= 13 NonCon=     1 RMS=2.20D-07 Max=6.44D-06 NDo=     1
 LinEq1:  Iter= 14 NonCon=     1 RMS=9.26D-08 Max=3.52D-06 NDo=     1
 LinEq1:  Iter= 15 NonCon=     1 RMS=3.82D-08 Max=9.85D-07 NDo=     1
 LinEq1:  Iter= 16 NonCon=     1 RMS=1.46D-08 Max=4.23D-07 NDo=     1
 LinEq1:  Iter= 17 NonCon=     1 RMS=7.16D-09 Max=1.72D-07 NDo=     1
 LinEq1:  Iter= 18 NonCon=     1 RMS=2.69D-09 Max=1.02D-07 NDo=     1
 LinEq1:  Iter= 19 NonCon=     1 RMS=9.69D-10 Max=2.97D-08 NDo=     1
 LinEq1:  Iter= 20 NonCon=     1 RMS=5.73D-10 Max=1.39D-08 NDo=     1
 LinEq1:  Iter= 21 NonCon=     1 RMS=1.99D-10 Max=4.63D-09 NDo=     1
 LinEq1:  Iter= 22 NonCon=     1 RMS=8.84D-11 Max=2.24D-09 NDo=     1
 LinEq1:  Iter= 23 NonCon=     0 RMS=3.81D-11 Max=7.55D-10 NDo=     1
 Linear equations converged to 1.000D-10 1.000D-09 after    23 iterations.
 End of Minotr F.D. properties file   721 does not exist.
 End of Minotr F.D. properties file   722 does not exist.
 End of Minotr F.D. properties file   788 does not exist.
 Leave Link 1002 at Mon Jul 13 13:38:22 2020, MaxMem=  7784628224 cpu:             734.5 elap:              97.1
 (Enter /gpfs/loomis/apps/avx/software/Gaussian/16-C.01_AVX/g16/l601.exe)
 Copying SCF densities to generalized density rwf, IOpCl= 0 IROHF=0.

 **********************************************************************

            Population analysis using the SCF Density.

 **********************************************************************

 Alpha  occ. eigenvalues --  -89.09186 -19.27812 -14.46027 -10.39790 -10.38356
 Alpha  occ. eigenvalues --  -10.34884 -10.34621 -10.33203 -10.32476 -10.32404
 Alpha  occ. eigenvalues --  -10.32051 -10.31567 -10.31473 -10.31380 -10.30658
 Alpha  occ. eigenvalues --  -10.30498  -8.11034  -6.05897  -6.05551  -6.05089
 Alpha  occ. eigenvalues --   -1.20474  -1.08291  -0.96558  -0.95451  -0.91270
 Alpha  occ. eigenvalues --   -0.88770  -0.85035  -0.84348  -0.82610  -0.76355
 Alpha  occ. eigenvalues --   -0.71434  -0.70266  -0.69339  -0.68521  -0.64006
 Alpha  occ. eigenvalues --   -0.60250  -0.59100  -0.58413  -0.55936  -0.54516
 Alpha  occ. eigenvalues --   -0.53818  -0.53058  -0.52667  -0.51159  -0.50671
 Alpha  occ. eigenvalues --   -0.49300  -0.48342  -0.45818  -0.45581  -0.44730
 Alpha  occ. eigenvalues --   -0.43535  -0.43000  -0.42326  -0.39750  -0.36869
 Alpha  occ. eigenvalues --   -0.36423  -0.32213  -0.31372  -0.28041
 Alpha virt. eigenvalues --   -0.01794   0.05092   0.06892   0.07098   0.07456
 Alpha virt. eigenvalues --    0.11200   0.12817   0.15103   0.15796   0.18000
 Alpha virt. eigenvalues --    0.18596   0.21017   0.21779   0.22184   0.22701
 Alpha virt. eigenvalues --    0.23142   0.23740   0.25037   0.28236   0.30763
 Alpha virt. eigenvalues --    0.31870   0.33233   0.35229   0.36319   0.36737
 Alpha virt. eigenvalues --    0.37568   0.38488   0.40722   0.44016   0.45759
 Alpha virt. eigenvalues --    0.47262   0.47854   0.50175   0.51475   0.51884
 Alpha virt. eigenvalues --    0.52186   0.53572   0.54517   0.54965   0.55736
 Alpha virt. eigenvalues --    0.55892   0.56277   0.57309   0.57847   0.57912
 Alpha virt. eigenvalues --    0.58468   0.58815   0.59338   0.59875   0.60325
 Alpha virt. eigenvalues --    0.60589   0.60809   0.61956   0.62482   0.63797
 Alpha virt. eigenvalues --    0.64248   0.65696   0.66591   0.68149   0.69007
 Alpha virt. eigenvalues --    0.70040   0.71319   0.72196   0.72637   0.72949
 Alpha virt. eigenvalues --    0.73944   0.74172   0.75440   0.76251   0.77096
 Alpha virt. eigenvalues --    0.78746   0.79637   0.79723   0.82112   0.82614
 Alpha virt. eigenvalues --    0.82755   0.87694   0.90673   0.92343   0.93003
 Alpha virt. eigenvalues --    0.94791   0.95182   0.95618   0.96554   0.96931
 Alpha virt. eigenvalues --    0.98614   0.98622   1.00261   1.00399   1.01715
 Alpha virt. eigenvalues --    1.02694   1.04478   1.05540   1.07472   1.07767
 Alpha virt. eigenvalues --    1.08440   1.08628   1.09138   1.10003   1.11359
 Alpha virt. eigenvalues --    1.12132   1.12400   1.13209   1.14776   1.15589
 Alpha virt. eigenvalues --    1.16450   1.18437   1.20712   1.22099   1.24311
 Alpha virt. eigenvalues --    1.25526   1.27963   1.33098   1.33195   1.34681
 Alpha virt. eigenvalues --    1.35068   1.36058   1.38605   1.42079   1.45616
 Alpha virt. eigenvalues --    1.47632   1.48741   1.51247   1.53680   1.53922
 Alpha virt. eigenvalues --    1.54569   1.55740   1.56690   1.56855   1.57518
 Alpha virt. eigenvalues --    1.58656   1.58700   1.62046   1.65551   1.66216
 Alpha virt. eigenvalues --    1.67911   1.68437   1.69986   1.70045   1.70636
 Alpha virt. eigenvalues --    1.71392   1.72127   1.72537   1.73539   1.73596
 Alpha virt. eigenvalues --    1.76166   1.77329   1.80020   1.80570   1.81701
 Alpha virt. eigenvalues --    1.81965   1.83240   1.84479   1.85348   1.85459
 Alpha virt. eigenvalues --    1.86277   1.88064   1.88235   1.90067   1.91709
 Alpha virt. eigenvalues --    1.91958   1.92622   1.92973   1.94045   1.94845
 Alpha virt. eigenvalues --    2.00036   2.00232   2.01575   2.03566   2.03643
 Alpha virt. eigenvalues --    2.07211   2.07486   2.08005   2.10878   2.11718
 Alpha virt. eigenvalues --    2.14314   2.17197   2.20465   2.23622   2.24147
 Alpha virt. eigenvalues --    2.26082   2.28553   2.36677   2.37546   2.40836
 Alpha virt. eigenvalues --    2.40893   2.41206   2.46821   2.47479   2.47503
 Alpha virt. eigenvalues --    2.48291   2.50187   2.52876   2.57914   2.61559
 Alpha virt. eigenvalues --    2.63531   2.72607   2.73653   2.74112   2.80293
 Alpha virt. eigenvalues --    2.81106   2.83204   2.86224   2.89995   2.95461
 Alpha virt. eigenvalues --    3.02704   3.05316   3.15877   3.23016   3.33160
 Alpha virt. eigenvalues --    3.51519   3.55278   3.63863   4.10755
          Condensed to atoms (all electrons):
               1          2          3          4          5          6
     1  C    4.756093   0.452993   0.005347  -0.050874  -0.013586   0.526867
     2  C    0.452993   5.330615   0.347888  -0.044875  -0.060652  -0.012181
     3  C    0.005347   0.347888   4.727737   0.497770  -0.009071  -0.062030
     4  C   -0.050874  -0.044875   0.497770   4.783666   0.524748  -0.017333
     5  C   -0.013586  -0.060652  -0.009071   0.524748   4.733690   0.488469
     6  C    0.526867  -0.012181  -0.062030  -0.017333   0.488469   4.752153
     7  H    0.401740  -0.039921   0.007871  -0.000414   0.007909  -0.037809
     8  H   -0.000921   0.011352  -0.027602   0.391538  -0.044174   0.007690
     9  H    0.008491  -0.000615   0.008439  -0.039526   0.405043  -0.044536
    10  H   -0.041632   0.009608  -0.000675   0.008755  -0.043868   0.405361
    11  N    0.007970  -0.060352   0.490658  -0.039672   0.003002   0.000164
    12  S   -0.058989   0.345359  -0.102947   0.006389   0.000193   0.003192
    13  C   -0.000129   0.003895   0.008547  -0.000891   0.000009  -0.000000
    14  C   -0.000003  -0.000009   0.000169   0.000005  -0.000000  -0.000000
    15  C    0.000002  -0.000136  -0.000255   0.000072  -0.000000   0.000000
    16  C    0.000000  -0.000000   0.000004  -0.000000   0.000000   0.000000
    17  H   -0.000001   0.000023  -0.000002  -0.000000   0.000000  -0.000000
    18  C    0.000000   0.000006  -0.000033   0.000000  -0.000000   0.000000
    19  C   -0.000000   0.000000   0.000002  -0.000000   0.000000   0.000000
    20  H   -0.000000  -0.000000  -0.000000   0.000000  -0.000000  -0.000000
    21  H   -0.000000  -0.000000   0.000002   0.000000   0.000000  -0.000000
    22  H   -0.000000  -0.000000  -0.000000  -0.000000   0.000000  -0.000000
    23  C    0.004252  -0.055393  -0.129317   0.001341   0.000161  -0.000146
    24  O    0.000001  -0.000013  -0.001843  -0.000083  -0.000001  -0.000000
    25  H   -0.000076   0.002433  -0.005162  -0.001411   0.000023   0.000012
               7          8          9         10         11         12
     1  C    0.401740  -0.000921   0.008491  -0.041632   0.007970  -0.058989
     2  C   -0.039921   0.011352  -0.000615   0.009608  -0.060352   0.345359
     3  C    0.007871  -0.027602   0.008439  -0.000675   0.490658  -0.102947
     4  C   -0.000414   0.391538  -0.039526   0.008755  -0.039672   0.006389
     5  C    0.007909  -0.044174   0.405043  -0.043868   0.003002   0.000193
     6  C   -0.037809   0.007690  -0.044536   0.405361   0.000164   0.003192
     7  H    0.657174   0.000033  -0.000137  -0.012041  -0.000134  -0.005815
     8  H    0.000033   0.654905  -0.011744  -0.000133  -0.001398  -0.000137
     9  H   -0.000137  -0.011744   0.666320  -0.012089  -0.000116   0.000020
    10  H   -0.012041  -0.000133  -0.012089   0.664341  -0.000002  -0.000126
    11  N   -0.000134  -0.001398  -0.000116  -0.000002   6.483777  -0.075736
    12  S   -0.005815  -0.000137   0.000020  -0.000126  -0.075736  15.476131
    13  C    0.000006   0.000058  -0.000000  -0.000000  -0.019486  -0.059448
    14  C    0.000000   0.000001   0.000000  -0.000000   0.003154  -0.003227
    15  C   -0.000000  -0.000052   0.000000   0.000000  -0.018159   0.003434
    16  C   -0.000000  -0.000000  -0.000000   0.000000  -0.000101  -0.000104
    17  H    0.000000   0.000000  -0.000000  -0.000000   0.000188   0.004699
    18  C   -0.000000   0.000000  -0.000000  -0.000000  -0.000255  -0.000064
    19  C    0.000000   0.000000  -0.000000  -0.000000   0.000061   0.000015
    20  H   -0.000000  -0.000000   0.000000   0.000000   0.000001  -0.000001
    21  H   -0.000000   0.000000  -0.000000   0.000000   0.000012   0.000002
    22  H    0.000000  -0.000000  -0.000000  -0.000000  -0.000000  -0.000000
    23  C    0.000024  -0.000942   0.000008   0.000003   0.540701   0.312433
    24  O   -0.000000  -0.000256   0.000000  -0.000000  -0.061674  -0.000215
    25  H    0.000001   0.001655  -0.000006   0.000000   0.080637   0.002607
              13         14         15         16         17         18
     1  C   -0.000129  -0.000003   0.000002   0.000000  -0.000001   0.000000
     2  C    0.003895  -0.000009  -0.000136  -0.000000   0.000023   0.000006
     3  C    0.008547   0.000169  -0.000255   0.000004  -0.000002  -0.000033
     4  C   -0.000891   0.000005   0.000072  -0.000000  -0.000000   0.000000
     5  C    0.000009  -0.000000  -0.000000   0.000000   0.000000  -0.000000
     6  C   -0.000000  -0.000000   0.000000   0.000000  -0.000000   0.000000
     7  H    0.000006   0.000000  -0.000000  -0.000000   0.000000  -0.000000
     8  H    0.000058   0.000001  -0.000052  -0.000000   0.000000   0.000000
     9  H   -0.000000   0.000000   0.000000  -0.000000  -0.000000  -0.000000
    10  H   -0.000000  -0.000000   0.000000   0.000000  -0.000000  -0.000000
    11  N   -0.019486   0.003154  -0.018159  -0.000101   0.000188  -0.000255
    12  S   -0.059448  -0.003227   0.003434  -0.000104   0.004699  -0.000064
    13  C    5.313873   0.492144   0.293706  -0.009187  -0.038653  -0.056203
    14  C    0.492144   4.786368  -0.005055   0.524605   0.403931  -0.052076
    15  C    0.293706  -0.005055   4.816639  -0.063939   0.007961   0.504883
    16  C   -0.009187   0.524605  -0.063939   4.760395  -0.037346  -0.018258
    17  H   -0.038653   0.403931   0.007961  -0.037346   0.671686  -0.000778
    18  C   -0.056203  -0.052076   0.504883  -0.018258  -0.000778   4.805584
    19  C   -0.045300  -0.016519  -0.009859   0.488323   0.008376   0.508227
    20  H    0.008594  -0.035945  -0.000339   0.401771  -0.012811   0.008401
    21  H    0.011434  -0.000447  -0.023924   0.007145   0.000038   0.381759
    22  H   -0.000925   0.008628   0.008944  -0.043204  -0.000138  -0.041472
    23  C    0.302552  -0.090274  -0.073463   0.007539  -0.018769   0.006984
    24  O   -0.076892   0.003431   0.504556   0.000033  -0.000054  -0.060578
    25  H   -0.035641  -0.000772  -0.014842  -0.000056   0.000026   0.006694
              19         20         21         22         23         24
     1  C   -0.000000  -0.000000  -0.000000  -0.000000   0.004252   0.000001
     2  C    0.000000  -0.000000  -0.000000  -0.000000  -0.055393  -0.000013
     3  C    0.000002  -0.000000   0.000002  -0.000000  -0.129317  -0.001843
     4  C   -0.000000   0.000000   0.000000  -0.000000   0.001341  -0.000083
     5  C    0.000000  -0.000000   0.000000   0.000000   0.000161  -0.000001
     6  C    0.000000  -0.000000  -0.000000  -0.000000  -0.000146  -0.000000
     7  H    0.000000  -0.000000  -0.000000   0.000000   0.000024  -0.000000
     8  H    0.000000  -0.000000   0.000000  -0.000000  -0.000942  -0.000256
     9  H   -0.000000   0.000000  -0.000000  -0.000000   0.000008   0.000000
    10  H   -0.000000   0.000000   0.000000  -0.000000   0.000003  -0.000000
    11  N    0.000061   0.000001   0.000012  -0.000000   0.540701  -0.061674
    12  S    0.000015  -0.000001   0.000002  -0.000000   0.312433  -0.000215
    13  C   -0.045300   0.008594   0.011434  -0.000925   0.302552  -0.076892
    14  C   -0.016519  -0.035945  -0.000447   0.008628  -0.090274   0.003431
    15  C   -0.009859  -0.000339  -0.023924   0.008944  -0.073463   0.504556
    16  C    0.488323   0.401771   0.007145  -0.043204   0.007539   0.000033
    17  H    0.008376  -0.012811   0.000038  -0.000138  -0.018769  -0.000054
    18  C    0.508227   0.008401   0.381759  -0.041472   0.006984  -0.060578
    19  C    4.727730  -0.046805  -0.043705   0.406931   0.000251   0.003017
    20  H   -0.046805   0.674814  -0.000165  -0.011642  -0.000296   0.000002
    21  H   -0.043705  -0.000165   0.655043  -0.011481  -0.000403   0.002597
    22  H    0.406931  -0.011642  -0.011481   0.659774   0.000005  -0.000064
    23  C    0.000251  -0.000296  -0.000403   0.000005   5.116897   0.000410
    24  O    0.003017   0.000002   0.002597  -0.000064   0.000410   7.336376
    25  H   -0.000158  -0.000001   0.000130   0.000009   0.002544   0.409303
              25
     1  C   -0.000076
     2  C    0.002433
     3  C   -0.005162
     4  C   -0.001411
     5  C    0.000023
     6  C    0.000012
     7  H    0.000001
     8  H    0.001655
     9  H   -0.000006
    10  H    0.000000
    11  N    0.080637
    12  S    0.002607
    13  C   -0.035641
    14  C   -0.000772
    15  C   -0.014842
    16  C   -0.000056
    17  H    0.000026
    18  C    0.006694
    19  C   -0.000158
    20  H   -0.000001
    21  H    0.000130
    22  H    0.000009
    23  C    0.002544
    24  O    0.409303
    25  H    0.507808
 Mulliken charges:
               1
     1  C    0.002454
     2  C   -0.230024
     3  C    0.244504
     4  C   -0.019202
     5  C    0.008106
     6  C   -0.009872
     7  H    0.021512
     8  H    0.020127
     9  H    0.020447
    10  H    0.022499
    11  N   -0.333238
    12  S    0.152337
    13  C   -0.092065
    14  C   -0.018110
    15  C    0.069824
    16  C   -0.017621
    17  H    0.011623
    18  C    0.007179
    19  C    0.019411
    20  H    0.014424
    21  H    0.021963
    22  H    0.024634
    23  C    0.072898
    24  O   -0.058052
    25  H    0.044242
 Sum of Mulliken charges =  -0.00000
 Mulliken charges with hydrogens summed into heavy atoms:
               1
     1  C    0.023966
     2  C   -0.230024
     3  C    0.244504
     4  C    0.000925
     5  C    0.028553
     6  C    0.012626
    11  N   -0.333238
    12  S    0.152337
    13  C   -0.092065
    14  C   -0.006487
    15  C    0.069824
    16  C   -0.003197
    18  C    0.029143
    19  C    0.044045
    23  C    0.072898
    24  O   -0.013810
 Electronic spatial extent (au):  <R**2>=           4371.7097
 Charge=             -0.0000 electrons
 Dipole moment (field-independent basis, Debye):
    X=             -0.3697    Y=             -1.6137    Z=              0.0000  Tot=              1.6555
 Quadrupole moment (field-independent basis, Debye-Ang):
   XX=            -83.2181   YY=            -87.9663   ZZ=           -104.4686
   XY=             -7.1255   XZ=             -0.0001   YZ=              0.0003
 Traceless Quadrupole moment (field-independent basis, Debye-Ang):
   XX=              8.6662   YY=              3.9181   ZZ=            -12.5843
   XY=             -7.1255   XZ=             -0.0001   YZ=              0.0003
 Octapole moment (field-independent basis, Debye-Ang**2):
  XXX=              9.9420  YYY=             -9.7861  ZZZ=             -0.0000  XYY=             -6.3461
  XXY=              2.9198  XXZ=             -0.0000  XZZ=              0.9175  YZZ=              2.6842
  YYZ=              0.0010  XYZ=             -0.0007
 Hexadecapole moment (field-independent basis, Debye-Ang**3):
[...]
 09482,0.,-0.00001894,-0.00004292,0.00000003,0.01775029,-0.01210522,0.,
 0.00074790,-0.00474405,-0.00000012,0.06010052,0.02560356,-0.00000027,0
 .06392811,-0.26693937,-0.00000604,-0.00418915,-0.01730938,-0.00000092,
 -0.00459265,0.63445089,-0.00000013,0.00000002,-0.00005070,-0.00000016,
 -0.00000029,-0.00010701,-0.00000047,0.00000064,-0.00010807,0.00000038,
 -0.00000004,-0.00014172,-0.00000001,0.00000023,-0.00004839,0.,-0.00000
 007,0.00001774,0.,0.,-0.00003069,0.,0.,-0.00001843,0.,0.,0.00000003,0.
 ,0.,0.00005133,0.00000068,-0.00000047,0.00177405,0.,-0.00000016,0.0000
 9049,0.00000142,0.00000080,0.00210307,0.00000405,-0.00000807,-0.052881
 18,-0.00000017,-0.00000043,-0.00382604,-0.00000393,0.00001812,0.131154
 13,0.00012549,0.00000007,0.,-0.00087068,-0.00017334,0.00000001,0.00001
 681,0.00050123,0.00000001,0.00033567,0.00000681,0.,0.00006330,0.000301
 67,0.,-0.00011320,-0.00015925,0.,-0.00001153,0.00000955,0.,0.00001723,
 -0.00000430,0.,-0.00000201,0.00000050,0.,0.00002292,-0.00000092,0.,0.0
 0072621,0.00013313,0.,-0.00045587,0.00105217,-0.00000003,-0.00760500,-
 0.02810994,-0.00000071,-0.11093973,-0.11261964,-0.00000303,-0.00580200
 ,0.00264575,-0.00000004,0.01091949,0.01773832,0.00000044,0.11435702,-0
 .00008150,-0.00005498,0.,-0.00021283,-0.00002746,-0.00000003,-0.000258
 75,0.00057851,0.,0.00033700,-0.00005458,0.,0.00000611,0.00032861,0.,-0
 .00014286,-0.00012594,0.,0.00000011,0.00001770,0.,-0.00000299,-0.00001
 228,0.,-0.00001239,0.00000229,0.,-0.00001096,0.00000283,0.,0.00064795,
 0.00002103,0.00000005,-0.00037464,-0.00029678,0.00000003,0.00283493,0.
 00124117,-0.00000001,-0.11153082,-0.29042216,-0.00000669,0.00067917,0.
 00132114,-0.00000018,-0.01379529,-0.01867118,-0.00000051,0.11814177,0.
 30697141,0.00000006,-0.00000002,-0.00004993,-0.00000003,0.00000009,-0.
 00022343,0.00000007,-0.00000013,0.00011184,-0.00000005,0.,0.00007935,0
 .,0.,0.00001111,-0.00000005,0.,0.00001864,0.,0.,0.00000802,0.,0.,0.000
 02263,0.,0.,0.00000109,0.,0.,-0.00001146,-0.00000017,0.00000004,-0.001
 02150,0.,0.00000001,0.00018895,0.00000069,-0.00000010,0.00282271,-0.00
 000350,-0.00000639,-0.03179606,0.00000005,-0.00000015,0.00616886,-0.00
 000032,-0.00000113,0.00274467,0.00000305,0.00000745,0.02144271,-0.0022
 4984,0.00149170,-0.00000011,0.00085827,-0.00194501,0.00000003,-0.00245
 113,0.00576837,0.00000044,0.00247295,-0.00014960,-0.00000004,-0.000371
 98,-0.00022506,-0.00000002,0.00260019,-0.00018339,0.,-0.00012841,-0.00
 001762,0.,0.00014727,0.00006803,0.00000002,0.00013901,-0.00001004,0.,0
 .00010201,-0.00003377,0.00000003,0.00999615,0.00587296,-0.00000080,-0.
 00147715,-0.00235028,-0.00000011,0.02199073,0.01840580,0.00000059,-0.0
 1646182,0.02480349,0.00000131,-0.16521151,0.07219857,0.00000411,-0.019
 12887,-0.05870431,-0.00000144,-0.00043153,0.00028007,-0.00000024,0.772
 54288,-0.00008955,-0.00031437,0.00000001,-0.00284512,-0.00328729,-0.00
 000017,-0.00297799,0.00495684,-0.00000013,0.00268141,-0.00049134,0.000
 00005,0.00025760,0.00263088,0.00000007,-0.00127190,-0.00103711,-0.0000
 0004,0.00001644,0.00009529,0.,-0.00010400,-0.00008539,-0.00000001,-0.0
 0008695,0.00001250,0.,-0.00000051,-0.00000024,0.,0.00675630,-0.0044051
 6,0.00000054,0.00149712,-0.00314487,0.00000017,0.01745510,-0.03660682,
 -0.00000195,-0.00433140,-0.00115039,0.00000007,0.11759891,-0.27777613,
 -0.00000902,-0.03402727,-0.00538474,-0.00000012,-0.00029054,0.00047575
 ,0.00000023,0.03870061,0.71420757,-0.00000004,-0.00000006,0.00036171,-
 0.00000024,-0.00000026,0.00077364,-0.00000038,0.00000028,0.00118107,0.
 00000021,0.,-0.00049791,0.,0.00000017,0.00002353,-0.00000004,-0.000000
 09,-0.00004922,0.,0.,0.00001033,0.,0.,0.00003490,0.,0.,0.00004970,0.,0
 .,-0.00010657,0.00000003,-0.00000089,-0.00373780,0.00000011,0.00000002
 ,0.00007547,-0.00000008,-0.00000121,0.00962196,0.00000057,-0.00000060,
 -0.00119230,0.00000580,-0.00000841,-0.06660786,-0.00000090,0.00000063,
 0.00571684,0.00000004,0.00000005,-0.00070734,-0.00001470,0.00001729,0.
 11031897,0.00337590,-0.00114826,0.00000016,0.00196009,0.00543264,0.000
 00014,0.00903511,-0.01412378,-0.00000047,-0.00755086,0.00098128,-0.000
 00002,0.00055281,-0.00340234,-0.00000007,-0.00176660,0.00152166,0.0000
 0004,0.00010130,-0.00003798,0.00000001,-0.00002777,-0.00000121,-0.0000
 0002,-0.00008421,-0.00002682,0.,-0.00007311,0.00006702,-0.00000003,-0.
 01837294,0.00522079,0.00000009,0.00222680,0.00401527,0.00000016,-0.020
 57793,-0.02297167,-0.00000034,0.05046749,-0.01600735,-0.00000115,-0.03
 876196,0.03849030,0.00000288,-0.14912074,-0.02885242,-0.00000083,-0.00
 169621,0.00447567,0.00000043,-0.39691078,-0.04706196,0.00000505,0.7328
 4793,-0.00100765,0.00011117,0.,-0.00291105,-0.00419975,-0.00000022,-0.
 00390338,0.00827355,-0.00000007,0.00433055,-0.00077290,0.00000007,-0.0
 0002620,0.00341067,0.00000009,-0.00053794,-0.00188965,-0.00000005,-0.0
 0001141,0.00009943,0.,-0.00006196,-0.00012593,0.,-0.00004111,0.0000095
 6,0.,-0.00000746,0.00000597,0.,0.01074471,-0.00279166,0.00000027,-0.00
 090715,-0.00279816,0.00000015,-0.01378303,-0.01065541,-0.00000035,0.01
 656282,-0.05780924,-0.00000277,0.02112764,0.02861448,0.00000059,-0.096
 17531,-0.28082889,-0.00000812,0.00329120,-0.00180343,-0.00000007,-0.00
 582444,-0.12140643,-0.00000167,-0.04642559,0.68396104,-0.00000011,0.00
 000004,0.00015097,-0.00000012,-0.00000023,-0.00031465,-0.00000025,0.00
 000059,-0.00095394,0.00000029,-0.00000006,0.00010126,0.,0.00000017,0.0
 0008475,0.00000003,-0.00000009,-0.00000640,0.,0.,-0.00001683,0.,0.,-0.
 00010133,0.,0.,-0.00000691,0.,0.,0.00000094,0.00000080,-0.00000003,0.0
 0151903,-0.00000014,-0.00000022,0.00019732,-0.00000019,0.00000026,-0.0
 0356294,-0.00000003,-0.00000208,0.00808480,0.00000180,-0.00000042,0.00
 221785,-0.00000266,-0.00000854,-0.05978835,0.00000018,-0.00000033,0.00
 603962,0.00000535,-0.00000104,-0.04839550,-0.00001092,0.00002186,0.113
 59278,0.00004243,-0.00006711,0.,-0.00011197,0.00004302,0.,-0.00001231,
 -0.00003575,0.,0.00001336,0.00001600,0.,0.00001731,0.00009547,0.,-0.00
 013350,-0.00000040,0.,0.00000478,0.00001181,0.,-0.00000221,-0.00000817
 ,0.,-0.00001460,0.00000384,0.,-0.00000804,0.00000478,0.,-0.00015616,0.
 00035943,-0.00000002,0.00005153,-0.00004250,0.,0.00069059,0.00295244,0
 .00000013,-0.01316935,-0.00564431,-0.00000009,0.00061754,0.00007682,0.
 ,-0.34218661,-0.03265871,0.00000075,0.00081749,0.00007956,-0.00000002,
 0.00123311,-0.00235167,-0.00000010,-0.00752859,0.00243470,0.00000022,0
 .36025760,-0.00004043,0.00001705,0.,-0.00005768,-0.00015075,0.,-0.0000
 5540,0.00028200,-0.00000002,0.00013523,-0.00005845,0.,0.00001090,0.000
 08179,0.,0.00000762,-0.00003137,0.,-0.00000051,-0.00000030,0.,-0.00000
 027,0.00000023,0.,0.00000231,-0.00000285,0.,0.00000267,-0.00000153,0.,
 0.00060049,-0.00045717,0.00000006,0.00002408,-0.00003221,0.,0.00310533
 ,-0.00419086,-0.00000039,0.02526777,0.00656207,-0.00000016,0.00029584,
 -0.00128100,0.,-0.03322533,-0.06251062,-0.00000085,-0.00007025,0.00083
 887,0.00000016,-0.00143846,-0.00542244,-0.00000038,-0.02918219,0.00181
 239,0.00000008,0.03517676,0.06218163,-0.00000002,0.,-0.00003998,-0.000
 00003,-0.00000006,0.00004022,-0.00000007,0.00000008,0.00062375,0.00000
 006,-0.00000001,0.00012660,0.,0.00000004,-0.00008016,0.,-0.00000002,0.
 00002091,0.,0.,0.00000298,0.,0.,0.00003959,0.,0.,-0.00002391,0.,0.,-0.
 00000105,0.00000018,-0.00000007,-0.00113309,0.00000001,-0.00000003,-0.
 00007192,0.00000023,-0.00000040,0.00719905,0.00000080,0.00000048,0.006
 46196,0.00000005,-0.00000009,-0.00105488,0.00000076,-0.00000120,-0.038
 04740,-0.00000003,0.00000015,-0.00425060,-0.00000010,-0.00000046,0.004
 66786,-0.00000090,0.00000005,0.00579083,-0.00000087,0.00000126,0.02333
 353,-0.00007052,0.00002664,0.,0.00006457,0.00009486,0.,-0.00002049,0.0
 0005347,0.00000002,0.00001108,0.00000883,0.,-0.00002392,-0.00005313,0.
 ,0.00008135,0.00001414,0.,-0.00000037,-0.00000382,0.,-0.00000453,0.000
 00267,0.,0.00000439,0.00000060,0.,-0.00000142,-0.00000228,0.,0.0000142
 0,-0.00009350,0.,-0.00025428,0.00006294,-0.00000002,-0.00300578,0.0026
 4192,0.00000027,0.00017113,0.00017117,-0.00000002,0.00865910,0.0186571
 1,0.00000035,-0.00571532,0.00112109,0.00000034,0.00010511,-0.00010874,
 -0.00000003,-0.11197117,-0.11693396,-0.00000114,-0.00525213,-0.0279693
 8,-0.00000054,-0.00045054,-0.00138926,-0.00000009,0.11435841,0.0001152
 1,0.00001265,0.00000002,-0.00005644,0.00003103,0.00000002,0.00019792,-
 0.00013446,-0.00000002,-0.00009305,0.00000132,0.,-0.00000012,-0.000062
 34,0.,0.00000458,-0.00001477,0.,-0.00000619,-0.00000198,0.,0.00001101,
 0.00000432,0.,0.00000801,-0.00000170,0.,0.00000763,-0.00000054,0.,-0.0
 0034764,0.00051173,-0.00000005,0.00026438,-0.00006319,0.00000002,0.003
 87528,-0.00135343,-0.00000029,0.00032136,0.00020472,0.00000002,-0.0142
 8635,-0.01918998,-0.00000008,0.00017943,0.00152253,-0.00000009,-0.0000
 7771,-0.00004383,0.00000002,-0.11272186,-0.29387118,-0.00000454,0.0021
 4765,0.00264665,0.00000002,0.00011927,0.00002495,0.,0.12275035,0.30791
 287,0.00000006,-0.00000001,-0.00034269,0.00000002,0.00000006,0.0000076
 4,0.00000008,-0.00000018,0.00050324,-0.00000008,0.00000001,-0.00002840
 ,0.,-0.00000003,-0.00006052,-0.00000003,0.,0.00002272,0.,0.,0.00000095
 ,0.,0.,0.00005881,0.,0.,0.00000104,0.,0.,0.00006214,-0.00000029,0.0000
 0002,-0.00050816,0.00000007,0.00000006,-0.00010699,0.00000019,-0.00000
 020,0.00402518,0.00000017,-0.00000015,-0.00063768,-0.00000059,-0.00000
 073,0.00400138,0.00000020,0.00000006,0.00699425,0.,0.00000003,-0.00062
 512,-0.00000040,-0.00000408,-0.03344926,-0.00000041,0.00000027,0.00381
 277,0.,0.00000006,-0.00028452,0.00000114,0.00000451,0.02324582,-0.0000
 2550,-0.00002348,0.,-0.00018010,-0.00013381,0.,-0.00011948,0.00034935,
 0.,0.00020717,-0.00004043,0.,0.00001010,0.00020391,0.,-0.00009062,-0.0
 0007257,0.,0.00000076,0.00001026,0.,0.00000008,-0.00000899,0.,-0.00000
 976,0.00000244,0.,-0.00000359,0.00000222,0.,0.00056867,0.00011038,-0.0
 0000003,-0.00002298,-0.00003884,0.,0.00012085,-0.00055821,-0.00000001,
 -0.00123511,-0.00252169,-0.00000005,-0.00404062,-0.00262596,0.00000008
 ,0.01071582,-0.01259591,-0.00000059,0.00036571,-0.00057581,0.,-0.01136
 956,0.02648498,0.00000115,-0.16475651,0.13999495,0.00000671,0.00068215
 ,0.00041899,-0.00000002,0.00111299,-0.00027257,-0.00000011,0.17021440,
 0.00014175,0.00001588,0.,0.00027307,0.00040181,0.00000002,0.00058718,-
 0.00090901,0.,-0.00052131,0.00008550,0.,0.00000681,-0.00038094,0.,0.00
 008217,0.00012939,0.,-0.00000177,-0.00001376,0.,0.00000684,0.00001180,
 0.,0.00001129,-0.00000409,0.,0.00000473,-0.00000022,0.,-0.00111182,0.0
 0041738,-0.00000002,-0.00000785,0.00032183,0.,-0.00152834,0.00027171,0
 .00000008,-0.00261916,-0.00364459,-0.00000031,-0.00146485,0.00036743,-
 0.00000021,0.01946100,-0.01507474,-0.00000084,0.00087699,-0.00100018,-
 0.00000005,-0.00556054,0.00702309,0.00000014,0.14033157,-0.24285313,-0
 .00000956,-0.00008531,0.00095998,0.00000014,0.00027489,0.00056666,0.00
 000015,-0.14968347,0.25332789,0.00000002,0.,0.00001204,0.00000002,0.00
 000005,-0.00001213,0.00000006,-0.00000006,-0.00011891,-0.00000004,0.,0
 .00004625,0.,-0.00000003,0.00000719,0.,0.00000002,-0.00000368,0.,0.,0.
 00000954,0.,0.,0.00001053,0.,0.,-0.00000115,0.,0.,-0.00001427,-0.00000
 005,0.00000008,0.00030728,0.,0.,-0.00009089,-0.00000005,0.00000013,-0.
 00132972,-0.00000023,-0.00000031,0.00411236,0.00000022,-0.00000019,0.0
 0743704,0.00000063,-0.00000055,0.00242335,0.00000005,-0.00000005,0.000
 75741,0.00000026,-0.00000020,0.00433496,0.00000657,-0.00000949,-0.0325
 5250,-0.00000002,0.00000014,-0.00281091,-0.00000012,0.00000009,-0.0040
 2304,-0.00000727,0.00001042,0.02219638,-0.01002353,-0.00370488,-0.0000
 0013,-0.00638437,0.00751873,-0.00000026,-0.09899378,0.05113542,-0.0000
 0076,0.02339002,-0.00195705,0.00000012,-0.00167489,0.01263278,0.000000
 29,-0.00336069,-0.00178110,-0.00000007,0.00042643,-0.00037221,0.,-0.00
 045051,-0.00021250,0.,-0.00027939,0.00020423,0.,-0.00054187,-0.0001747
 4,0.00000002,-0.29950695,-0.05728554,-0.00000369,-0.05036383,-0.024884
 18,-0.00000006,-0.17160142,0.12193319,-0.00000161,-0.04707033,0.045930
 77,0.00000121,0.01071387,-0.00007361,-0.00000022,0.00135337,-0.0217128
 2,-0.00000086,-0.00001177,-0.00032969,0.00000011,-0.00699064,-0.013269
 36,0.00000016,0.01093536,-0.00472022,-0.00000051,-0.00061592,0.0005085
 1,-0.00000002,0.00068481,-0.00074495,0.00000021,-0.00039208,0.00098714
 ,0.00000004,0.64404460,-0.00711546,0.00438578,0.00000019,0.04502236,-0
 .01487794,0.00000015,0.02595336,-0.01074255,0.,-0.00159701,-0.00450899
 ,-0.00000035,-0.00079945,-0.00704702,-0.00000016,0.00821203,0.00287821
 ,0.00000004,0.00013611,-0.00095396,-0.00000001,-0.00000268,0.00049242,
 0.,0.00051434,-0.00043452,0.00000003,-0.00009453,-0.00000471,0.,-0.062
 82714,-0.09326133,-0.00000080,-0.00874091,-0.08481265,-0.00000089,0.09
 259746,-0.22688070,0.00000081,0.02038413,0.00809515,-0.00000003,0.0280
 0833,-0.04730610,-0.00000004,-0.00593249,0.00006109,-0.00000008,-0.001
 06341,0.00076292,0.00000008,-0.01536722,0.00688223,0.00000011,0.008289
 73,0.00540792,-0.00000005,-0.00049921,0.00107573,0.00000012,0.00024868
 ,-0.00057949,0.00000003,0.00037194,-0.00011247,0.00000004,-0.11132794,
 0.46322109,-0.00000035,0.00000016,0.00219804,0.00000084,-0.00000046,-0
 .00305805,-0.00000060,0.00000037,0.00424646,0.00000029,-0.00000025,0.0
 0548375,-0.00000002,0.00000006,0.00090818,0.00000013,0.00000001,0.0007
 7213,0.,0.,-0.00024684,0.,0.00000003,-0.00091027,0.,0.00000002,-0.0008
 0670,0.,0.,-0.00030885,-0.00000479,-0.00000118,-0.03746501,-0.00000064
 ,-0.00000002,-0.02067474,-0.00000141,0.00000034,-0.03924732,0.00000021
 ,0.00000022,0.00663148,0.,-0.00000016,0.00532962,-0.00000007,0.0000002
 2,0.00235136,0.00000005,0.00000006,-0.00090922,0.00000013,-0.00000022,
 -0.00006752,-0.00000025,-0.00000009,-0.00083680,0.00000001,0.00000004,
 -0.00062968,0.00000003,-0.00000007,0.00130213,-0.00000001,0.,0.0001085
 0,0.00000632,0.00000076,0.07607429,0.00352394,0.00104933,0.00000017,0.
 00582405,0.01181666,0.00000055,0.01885930,-0.01660339,-0.00000040,-0.0
 1067076,0.00146723,-0.00000014,-0.00061175,-0.00851199,-0.00000019,0.0
 0244378,0.00274315,0.00000007,-0.00021841,-0.00008395,-0.00000002,0.00
 055203,0.00022802,-0.00000002,0.00021209,-0.00001185,0.00000001,0.0000
 4675,0.00006362,-0.00000003,-0.01246767,0.04285707,-0.00000185,0.00073
 179,0.00809304,-0.00000028,-0.04441501,-0.00954827,0.00000192,0.026474
 20,-0.01420616,-0.00000052,-0.38191754,-0.08337166,0.00001502,-0.01007
 864,0.01701160,0.00000066,-0.00034041,-0.00013999,-0.00000006,-0.07591
 959,0.01935477,0.00000480,0.00096138,0.00473223,-0.00000015,-0.0000905
 2,-0.00007706,0.00000005,0.00159019,-0.00166583,-0.00000018,-0.0015256
 3,-0.00047753,-0.00000012,0.00792252,-0.00735471,-0.00000016,0.5631263
 7,-0.00153987,-0.00104335,-0.00000005,-0.00208362,-0.00722469,-0.00000
 040,-0.01635021,0.00399634,0.00000037,0.00427663,-0.00119713,0.0000001
 3,0.00018242,0.00342744,0.00000008,-0.00065338,-0.00166493,-0.00000005
 ,0.00021644,-0.00025578,0.,-0.00002209,0.00005977,0.00000003,0.0001448
 5,-0.00008023,-0.00000001,0.00006068,-0.00008994,0.,0.01889922,-0.0666
 4361,0.00000352,0.00049803,-0.00434784,-0.00000003,-0.02839896,-0.0034
 5775,0.00000147,-0.00736691,-0.00543690,0.,-0.05760759,-0.12763856,0.0
 0000227,0.00033714,-0.00307271,-0.00000007,-0.00186952,0.00005448,-0.0
 0000005,0.05301354,0.01175925,-0.00000219,-0.00050284,-0.00791701,-0.0
 0000029,0.00000518,0.00043831,0.00000001,0.00000075,0.00244027,0.00000
 012,0.00168638,0.00044770,0.00000004,0.00805218,0.01007246,0.,-0.05362
 599,0.43623474,0.00000012,0.,0.00041061,0.00000013,0.00000036,-0.00077
 067,0.00000059,-0.00000035,-0.00053261,-0.00000029,0.00000002,0.000334
 27,0.00000006,-0.00000013,0.00020927,-0.00000011,0.00000015,0.00001287
 ,0.,0.00000001,-0.00000800,0.,0.,-0.00019539,-0.00000002,0.,-0.0000432
 5,0.,0.,-0.00010899,-0.00000077,0.00000244,0.01362072,-0.00000002,0.00
 000016,-0.00092055,0.00000134,-0.00000093,0.01264468,-0.00000062,0.000
 00043,0.00187904,0.00001467,0.00000472,-0.04717240,0.00000048,-0.00000
 065,-0.00030778,-0.00000001,0.,-0.00108825,0.00000448,-0.00000111,0.01
 092386,-0.00000011,-0.00000003,0.00379944,0.,0.,0.00004816,-0.00000013
 ,0.00000033,-0.00331314,0.00000007,0.00000002,-0.00001055,-0.00000079,
 0.00000009,-0.00242700,-0.00001919,-0.00000719,0.03922753,-0.00097655,
 -0.00019733,-0.00000005,-0.00245489,-0.00290073,-0.00000006,-0.0043591
 5,0.00875046,0.00000006,0.00377577,-0.00016607,0.00000003,-0.00001978,
 0.00243046,0.00000005,-0.00057003,-0.00085816,-0.00000004,0.00003123,0
 .00004979,0.,-0.00057342,-0.00013437,0.,-0.00002052,-0.00000175,0.,-0.
 00001538,-0.00007104,0.00000001,-0.01573587,-0.01073648,0.00000037,-0.
 00149800,-0.00346864,0.00000003,0.00566654,-0.00142638,-0.00000005,-0.
 00532083,0.00328204,0.00000010,-0.04895955,0.03813583,0.00000122,0.001
 13517,-0.00316052,-0.00000014,0.00040749,0.00009490,0.,-0.00100860,-0.
 00516109,-0.00000030,0.00001618,0.00109448,0.00000024,0.00005246,-0.00
 001965,0.,-0.00008687,0.00027063,-0.00000005,-0.00022715,0.00001652,0.
 00000003,-0.00120904,-0.00701632,0.00000028,-0.09401246,0.08264757,0.0
 0000011,0.16596326,0.00460796,0.00043869,0.00000018,0.00373633,0.01355
 843,0.00000051,0.02680851,-0.01671747,-0.00000086,-0.01036084,0.002738
 97,-0.00000010,-0.00064488,-0.00715970,-0.00000020,0.00042861,0.002554
 69,0.00000009,-0.00027688,0.00025784,-0.00000001,0.00051884,-0.0000154
 1,-0.00000004,-0.00013966,0.00013278,0.,-0.00010339,0.00015671,-0.0000
 0001,-0.02027565,0.02611176,-0.00000206,0.00244822,0.00995832,0.,-0.01
 998836,0.00380792,-0.00000019,0.01870148,-0.00894575,-0.00000028,0.037
 24813,0.01518532,-0.00000183,-0.00355673,0.01156999,0.00000039,-0.0002
 6032,-0.00010387,0.00000002,-0.01607152,0.00634050,0.00000162,-0.00122
 917,0.00149877,-0.00000010,0.00001406,-0.00013545,0.,0.00042396,-0.000
 56280,-0.00000001,-0.00048408,-0.00035491,-0.00000012,-0.00635215,-0.0
 1181256,0.00000017,0.08626167,-0.23886031,0.00000166,-0.10145413,0.190
 35753,-0.00000005,-0.00000009,0.00001240,0.00000012,-0.00000022,0.0008
 5819,-0.00000063,-0.00000061,-0.00121397,-0.00000008,-0.00000003,-0.00
 053270,0.00000006,-0.00000003,-0.00014158,-0.00000002,0.00000005,-0.00
 000615,0.00000002,-0.00000003,-0.00004068,-0.00000005,0.,0.00019587,0.
 00000001,-0.00000001,0.00004385,0.,0.,0.00006441,0.00000070,0.00000008
 ,-0.01351843,-0.00000021,-0.00000040,0.00089450,-0.00000007,0.00000045
 ,-0.00459706,-0.00000014,0.00000011,0.00011635,0.00000045,-0.00000266,
 0.00051198,0.00000001,0.00000009,-0.00006556,0.00000001,0.,0.00026530,
 0.00000122,0.00000011,0.00671651,-0.00000002,-0.00000042,0.00114381,0.
 ,0.,0.00007267,-0.00000004,0.00000010,-0.00065854,0.00000007,0.0000000
 4,-0.00079508,0.00000049,0.,0.00218203,0.00000003,0.00000231,-0.026211
 88,-0.00000190,0.00000115,0.03470377\\0.00213454,-0.00148819,-0.000000
 03,-0.00170265,-0.00405287,0.,-0.00478935,-0.00059467,0.00000005,-0.00
 122094,0.00171144,0.00000009,0.00083668,0.00450688,0.00000006,0.002216
 97,0.00199798,-0.00000008,0.00044764,-0.00028487,0.00000002,-0.0003966
 2,0.00031521,0.,0.00007658,0.00046346,-0.00000001,0.00035924,0.0002599
 1,-0.00000002,0.00165175,-0.00502961,0.00000023,-0.00270095,-0.0109845
 7,0.00000030,0.00142995,-0.00250227,-0.00000012,-0.00438670,0.00226080
 ,-0.00000037,-0.00411687,-0.00215459,0.00000012,0.00105506,0.00111681,
 -0.00000019,-0.00036989,0.00021249,-0.00000002,0.00354976,0.00027129,0
 .00000006,0.00385526,0.00325981,0.00000033,0.00002985,0.00041597,-0.00
 000001,0.00045395,-0.00004766,0.,0.00043915,0.00037003,0.00000002,0.00
 046729,-0.00032879,0.00000001,0.00346324,0.00136800,-0.00000007,-0.002
 78294,0.00893800,-0.00000035\\\@
 The archive entry for this job was punched.


 E PUR SI MUOVE    -- GALILEO GALILEI
 Job cpu time:       0 days  2 hours 52 minutes 41.5 seconds.
 Elapsed time:       0 days  0 hours 17 minutes 47.1 seconds.
 File lengths (MBytes):  RWF=   1380 Int=      0 D2E=      0 Chk=     52 Scr=      8
 Normal termination of Gaussian 16 at Mon Jul 13 14:36:31 2020.
