 Entering Gaussian System, Link 0=g16
 Initial command:
 /gpfs/loomis/apps/avx/software/Gaussian/16-C.01_AVX/g16/l1.exe "/home/fas/batista/pev4/scratch60/gauss-scratch/Gau-26442.inp" -scrdir="/home/fas/batista/pev4/scratch60/gauss-scratch/"
 Entering Link 1 = /gpfs/loomis/apps/avx/software/Gaussian/16-C.01_AVX/g16/l1.exe PID=     26443.
  
 Copyright (c) 1988-2019, Gaussian, Inc.  All Rights Reserved.
  
 This is part of the Gaussian(R) 16 program.  It is based on
 the Gaussian(R) 09 system (copyright 2009, Gaussian, Inc.),
 the Gaussian(R) 03 system (copyright 2003, Gaussian, Inc.),
 the Gaussian(R) 98 system (copyright 1998, Gaussian, Inc.),
 the Gaussian(R) 94 system (copyright 1995, Gaussian, Inc.),
 the Gaussian 92(TM) system (copyright 1992, Gaussian, Inc.),
 the Gaussian 90(TM) system (copyright 1990, Gaussian, Inc.),
 the Gaussian 88(TM) system (copyright 1988, Gaussian, Inc.),
 the Gaussian 86(TM) system (copyright 1986, Carnegie Mellon
 University), and the Gaussian 82(TM) system (copyright 1983,
 Carnegie Mellon University). Gaussian is a federally registered
 trademark of Gaussian, Inc.
  
 This software contains proprietary and confidential information,
 including trade secrets, belonging to Gaussian, Inc.
  
 This software is provided under written license and may be
 used, copied, transmitted, or stored only in accord with that
 written license.
  
 The following legend is applicable only to US Government
 contracts under FAR:
  
                    RESTRICTED RIGHTS LEGEND
  
 Use, reproduction and disclosure by the US Government is
 subject to restrictions as set forth in subparagraphs (a)
 and (c) of the Commercial Computer Software - Restricted
 Rights clause in FAR 52.227-19.
  
 Gaussian, Inc.
 340 Quinnipiac St., Bldg. 40, Wallingford CT 06492
  
  
 ---------------------------------------------------------------
 Warning -- This program may not be used in any manner that
 competes with the business of Gaussian, Inc. or will provide
 assistance to any competitor of Gaussian, Inc.  The licensee
 of this program is prohibited from giving any competitor of
 Gaussian, Inc. access to this program.  By using this program,
 the user acknowledges that Gaussian, Inc. is engaged in the
 business of creating and licensing software in the field of
 computational chemistry and represents and warrants to the
 licensee that it is not a competitor of Gaussian, Inc. and that
 it will not use this program in any manner prohibited above.
 ---------------------------------------------------------------
  

 Cite this work as:
 Gaussian 16, Revision C.01,
 M. J. Frisch, G. W. Trucks, H. B. Schlegel, G. E. Scuseria, 
 M. A. Robb, J. R. Cheeseman, G. Scalmani, V. Barone, 
 G. A. Petersson, H. Nakatsuji, X. Li, M. Caricato, A. V. Marenich, 
 J. Bloino, B. G. Janesko, R. Gomperts, B. Mennucci, H. P. Hratchian, 
 J. V. Ortiz, A. F. Izmaylov, J. L. Sonnenberg, D. Williams-Young, 
 F. Ding, F. Lipparini, F. Egidi, J. Goings, B. Peng, A. Petrone, 
 T. Henderson, D. Ranasinghe, V. G. Zakrzewski, J. Gao, N. Rega, 
 G. Zheng, W. Liang, M. Hada, M. Ehara, K. Toyota, R. Fukuda, 
 J. Hasegawa, M. Ishida, T. Nakajima, Y. Honda, O. Kitao, H. Nakai, 
 T. Vreven, K. Throssell, J. A. Montgomery, Jr., J. E. Peralta, 
 F. Ogliaro, M. J. Bearpark, J. J. Heyd, E. N. Brothers, K. N. Kudin, 
 V. N. Staroverov, T. A. Keith, R. Kobayashi, J. Normand, 
 K. Raghavachari, A. P. Rendell, J. C. Burant, S. S. Iyengar, 
 J. Tomasi, M. Cossi, J. M. Millam, M. Klene, C. Adamo, R. Cammi, 
 J. W. Ochterski, R. L. Martin, K. Morokuma, O. Farkas, 
 J. B. Foresman, and D. J. Fox, Gaussian, Inc., Wallingford CT, 2019.
 
 ******************************************
 Gaussian 16:  ES64L-G16RevC.01  3-Jul-2019
                14-Jul-2020 
 ******************************************
 %chk=config_12_10_fixed.chk
 %mem=58GB
 %nprocshared=10
 Will use up to   10 processors via shared memory.
 ----------------------------------------------------------------------
 #p opt=addgic freq td wb97xd/cc-pvdz nosymm int=ultrafine scrf=(solven
 t=CarbonTetraChloride)
 ----------------------------------------------------------------------
 1/18=20,19=15,26=6,38=1,145=903/1,3;
 2/9=110,12=2,15=1,17=6,18=5,40=1/2;
 3/5=16,11=9,25=1,30=1,70=2201,71=1,72=11,74=-58,75=-5/1,2,3,8;
 4//1;
 5/5=2,38=5,53=11/2;
 8/6=1,10=1/1;
 9/15=2,42=1,70=2/14;
 10/5=4,31=1/2;
 6/7=2,8=2,9=2,10=2/1;
 7/12=6,13=5,30=1/1,2,3,16;
 1/18=20,19=15,26=6,145=903/3(2);
 2/9=110,15=1/2;
 99//99;
 2/9=110,15=1/2;
 3/5=16,11=9,25=1,30=1,70=2205,71=1,72=11,74=-58,75=-5/1,2,3,8;
 4/5=5,16=3,69=1/1;
 5/5=2,38=5,53=11/2;
 8/6=1,10=1/1;
 9/15=2,42=1,49=4,70=2/14;
 10/5=4,31=1/2;
 7/12=6,13=5,30=1/1,2,3,16;
 1/18=20,19=15,26=6,145=903/3(-8);
 2/9=110,15=1/2;
 6/7=2,8=2,9=2,10=2/1;
 99/9=10/99;
 Leave Link    1 at Tue Jul 14 10:59:23 2020, MaxMem=  7784628224 cpu:               5.2 elap:               0.6
 (Enter /gpfs/loomis/apps/avx/software/Gaussian/16-C.01_AVX/g16/l101.exe)
 ------------------------------------------------
 NM 2D-scan of HBT TD-WB97XD pVDZ in CTC Relaxed.
 ------------------------------------------------
 Symbolic Z-matrix:
 Charge =  0 Multiplicity = 1
 C                     1.63562  -3.25388  -0.00002 
 C                     1.01056  -2.00676  -0.00002 
 C                     1.75189  -0.79989  -0.00002 
 C                     3.14107  -0.85197  -0.00002 
 C                     3.76394  -2.1011   -0.00002 
 C                     3.02873  -3.28972  -0.00002 
 H                     1.04639  -4.17242  -0.00002 
 H                     3.72748   0.06789  -0.00003 
 H                     4.85425  -2.14359  -0.00002 
 H                     3.54501  -4.25043  -0.00002 
 N                     0.92788   0.32583  -0.00002 
 S                    -0.72076  -1.6999   -0.00002 
 C                    -1.37758   1.04723   0.00001 
 C                    -2.72969   0.80027   0.00001 
 C                    -0.8611    2.44279   0.00003 
 C                    -3.65458   1.88599   0.00003 
 H                    -3.11659  -0.22205  -0.00001 
 C                    -1.84408   3.48675   0.00005 
 C                    -3.21412   3.20545   0.00005 
 H                    -4.72297   1.66276   0.00003 
 H                    -1.46186   4.50894   0.00007 
 H                    -3.93934   4.01982   0.00006 
 C                    -0.3946    0.00898  -0.00002 
 O                     0.36968   2.65531   0.00004 
 H                     1.12469   0.95139  -0.00001 
 
 Initializing the GIC definitions file.
 Number of initial coordinates =   134
 Number of input entries/lines =    53
 Number of additional coordinates =     2
 Number of removed coordinates =     0
 Number of frozen coordinates =     3
 Number of final active and frozen coordinates =   136
 ITRead=  0  0  0  0  0  0  0  0  0  0  0  0  0  0  0  0  0  0  0  0
 ITRead=  0  0  0  0  0
 MicOpt= -1 -1 -1 -1 -1 -1 -1 -1 -1 -1 -1 -1 -1 -1 -1 -1 -1 -1 -1 -1
 MicOpt= -1 -1 -1 -1 -1
 NAtoms=     25 NQM=       25 NQMF=       0 NMMI=      0 NMMIF=      0
                NMic=       0 NMicF=      0.
                    Isotopes and Nuclear Properties:
 (Nuclear quadrupole moments (NQMom) in fm**2, nuclear magnetic moments (NMagM)
  in nuclear magnetons)

  Atom         1           2           3           4           5           6           7           8           9          10
 IAtWgt=          12          12          12          12          12          12           1           1           1           1
 AtmWgt=  12.0000000  12.0000000  12.0000000  12.0000000  12.0000000  12.0000000   1.0078250   1.0078250   1.0078250   1.0078250
 NucSpn=           0           0           0           0           0           0           1           1           1           1
 AtZEff=  -0.0000000  -0.0000000  -0.0000000  -0.0000000  -0.0000000  -0.0000000  -0.0000000  -0.0000000  -0.0000000  -0.0000000
 NQMom=    0.0000000   0.0000000   0.0000000   0.0000000   0.0000000   0.0000000   0.0000000   0.0000000   0.0000000   0.0000000
 NMagM=    0.0000000   0.0000000   0.0000000   0.0000000   0.0000000   0.0000000   2.7928460   2.7928460   2.7928460   2.7928460
 AtZNuc=   6.0000000   6.0000000   6.0000000   6.0000000   6.0000000   6.0000000   1.0000000   1.0000000   1.0000000   1.0000000

  Atom        11          12          13          14          15          16          17          18          19          20
 IAtWgt=          14          32          12          12          12          12           1          12          12           1
 AtmWgt=  14.0030740  31.9720718  12.0000000  12.0000000  12.0000000  12.0000000   1.0078250  12.0000000  12.0000000   1.0078250
 NucSpn=           2           0           0           0           0           0           1           0           0           1
 AtZEff=  -0.0000000  -0.0000000  -0.0000000  -0.0000000  -0.0000000  -0.0000000  -0.0000000  -0.0000000  -0.0000000  -0.0000000
 NQMom=    2.0440000   0.0000000   0.0000000   0.0000000   0.0000000   0.0000000   0.0000000   0.0000000   0.0000000   0.0000000
 NMagM=    0.4037610   0.0000000   0.0000000   0.0000000   0.0000000   0.0000000   2.7928460   0.0000000   0.0000000   2.7928460
 AtZNuc=   7.0000000  16.0000000   6.0000000   6.0000000   6.0000000   6.0000000   1.0000000   6.0000000   6.0000000   1.0000000

  Atom        21          22          23          24          25
 IAtWgt=           1           1          12          16           1
 AtmWgt=   1.0078250   1.0078250  12.0000000  15.9949146   1.0078250
 NucSpn=           1           1           0           0           1
 AtZEff=  -0.0000000  -0.0000000  -0.0000000  -0.0000000  -0.0000000
 NQMom=    0.0000000   0.0000000   0.0000000   0.0000000   0.0000000
 NMagM=    2.7928460   2.7928460   0.0000000   0.0000000   2.7928460
 AtZNuc=   1.0000000   1.0000000   6.0000000   8.0000000   1.0000000
 Leave Link  101 at Tue Jul 14 10:59:26 2020, MaxMem=  7784628224 cpu:              32.6 elap:               3.3
 (Enter /gpfs/loomis/apps/avx/software/Gaussian/16-C.01_AVX/g16/l103.exe)

 GradGradGradGradGradGradGradGradGradGradGradGradGradGradGradGradGradGrad
 Berny optimization.
 Initialization pass.
                           ----------------------------
                           !    Initial Parameters    !
                           ! (Angstroms and Degrees)  !
 --------------------------                            --------------------------
 ! Name  Definition              Value          Derivative Info.                !
 --------------------------------------------------------------------------------
 ! R1    R(1,2)                  1.395          estimate D2E/DX2                !
 ! R2    R(1,6)                  1.3936         estimate D2E/DX2                !
 ! R3    R(1,7)                  1.0913         estimate D2E/DX2                !
 ! R4    R(2,3)                  1.4164         estimate D2E/DX2                !
 ! R5    R(2,12)                 1.7583         estimate D2E/DX2                !
 ! R6    R(3,4)                  1.3902         estimate D2E/DX2                !
 ! R7    R(3,11)                 1.3951         estimate D2E/DX2                !
 ! R8    R(4,5)                  1.3958         estimate D2E/DX2                !
 ! R9    R(4,8)                  1.0909         estimate D2E/DX2                !
 ! R10   R(5,6)                  1.3976         estimate D2E/DX2                !
 ! R11   R(5,9)                  1.0911         estimate D2E/DX2                !
 ! R12   R(6,10)                 1.0906         estimate D2E/DX2                !
 ! R13   R(11,23)                1.3599         estimate D2E/DX2                !
 ! R14   R(11,25)                0.6558         estimate D2E/DX2                !
 ! R15   R(12,23)                1.7397         estimate D2E/DX2                !
 ! R16   R(13,14)                1.3745         estimate D2E/DX2                !
 ! R17   R(13,15)                1.4881         estimate D2E/DX2                !
 ! R18   R(13,23)                1.4298         estimate D2E/DX2                !
 ! R19   R(14,16)                1.4263         estimate D2E/DX2                !
 ! R20   R(14,17)                1.0931         estimate D2E/DX2                !
 ! R21   R(15,18)                1.4339         estimate D2E/DX2                !
 ! R22   R(15,24)                1.249          estimate D2E/DX2                !
 ! R23   R(16,19)                1.391          estimate D2E/DX2                !
 ! R24   R(16,20)                1.0915         estimate D2E/DX2                !
 ! R25   R(18,19)                1.3986         estimate D2E/DX2                !
 ! R26   R(18,21)                1.0913         estimate D2E/DX2                !
 ! R27   R(19,22)                1.0905         estimate D2E/DX2                !
 ! A1    A(2,1,6)              118.0936         estimate D2E/DX2                !
 ! A2    A(2,1,7)              120.7007         estimate D2E/DX2                !
 ! A3    A(6,1,7)              121.2057         estimate D2E/DX2                !
 ! A4    A(1,2,3)              121.8192         estimate D2E/DX2                !
 ! A5    A(1,2,12)             126.6704         estimate D2E/DX2                !
 ! A6    A(3,2,12)             111.5104         estimate D2E/DX2                !
 ! A7    A(2,3,4)              119.414          estimate D2E/DX2                !
 ! A8    A(2,3,11)             112.2353         estimate D2E/DX2                !
 ! A9    A(4,3,11)             128.3506         estimate D2E/DX2                !
 ! A10   A(3,4,5)              118.6495         estimate D2E/DX2                !
 ! A11   A(3,4,8)              120.3706         estimate D2E/DX2                !
 ! A12   A(5,4,8)              120.9799         estimate D2E/DX2                !
 ! A13   A(4,5,6)              121.7591         estimate D2E/DX2                !
 ! A14   A(4,5,9)              118.7344         estimate D2E/DX2                !
 ! A15   A(6,5,9)              119.5065         estimate D2E/DX2                !
 ! A16   A(1,6,5)              120.2646         estimate D2E/DX2                !
 ! A17   A(1,6,10)             119.7271         estimate D2E/DX2                !
 ! A18   A(5,6,10)             120.0083         estimate D2E/DX2                !
 ! A19   A(3,11,23)            112.7305         estimate D2E/DX2                !
 ! A20   A(3,11,25)            126.332          estimate D2E/DX2                !
 ! A21   A(23,11,25)           120.9375         estimate D2E/DX2                !
 ! A22   A(2,12,23)             89.2447         estimate D2E/DX2                !
 ! A23   A(14,13,15)           120.6597         estimate D2E/DX2                !
 ! A24   A(14,13,23)           123.0827         estimate D2E/DX2                !
 ! A25   A(15,13,23)           116.2576         estimate D2E/DX2                !
 ! A26   A(13,14,16)           120.0755         estimate D2E/DX2                !
 ! A27   A(13,14,17)           121.0808         estimate D2E/DX2                !
 ! A28   A(16,14,17)           118.8437         estimate D2E/DX2                !
 ! A29   A(13,15,18)           116.4144         estimate D2E/DX2                !
 ! A30   A(13,15,24)           120.1052         estimate D2E/DX2                !
 ! A31   A(18,15,24)           123.4804         estimate D2E/DX2                !
 ! A32   A(14,16,19)           121.1138         estimate D2E/DX2                !
 ! A33   A(14,16,20)           118.6247         estimate D2E/DX2                !
 ! A34   A(19,16,20)           120.2616         estimate D2E/DX2                !
 ! A35   A(15,18,19)           121.6742         estimate D2E/DX2                !
 ! A36   A(15,18,21)           116.2213         estimate D2E/DX2                !
 ! A37   A(19,18,21)           122.1045         estimate D2E/DX2                !
 ! A38   A(16,19,18)           120.0624         estimate D2E/DX2                !
 ! A39   A(16,19,22)           119.8543         estimate D2E/DX2                !
 ! A40   A(18,19,22)           120.0833         estimate D2E/DX2                !
 ! A41   A(11,23,12)           114.2791         estimate D2E/DX2                !
 ! A42   A(11,23,13)           119.9604         estimate D2E/DX2                !
 ! A43   A(12,23,13)           125.7605         estimate D2E/DX2                !
 ! D1    D(6,1,2,3)              0.0            estimate D2E/DX2                !
 ! D2    D(6,1,2,12)          -180.0            estimate D2E/DX2                !
 ! D3    D(7,1,2,3)            179.9999         estimate D2E/DX2                !
 ! D4    D(7,1,2,12)             0.0            estimate D2E/DX2                !
 ! D5    D(2,1,6,5)             -0.0001         estimate D2E/DX2                !
 ! D6    D(2,1,6,10)           179.9999         estimate D2E/DX2                !
 ! D7    D(7,1,6,5)           -180.0            estimate D2E/DX2                !
 ! D8    D(7,1,6,10)             0.0            estimate D2E/DX2                !
 ! D9    D(1,2,3,4)              0.0001         estimate D2E/DX2                !
 ! D10   D(1,2,3,11)          -180.0            estimate D2E/DX2                !
 ! D11   D(12,2,3,4)          -179.9999         estimate D2E/DX2                !
 ! D12   D(12,2,3,11)            0.0            estimate D2E/DX2                !
 ! D13   D(1,2,12,23)          179.9998         estimate D2E/DX2                !
 ! D14   D(3,2,12,23)           -0.0001         estimate D2E/DX2                !
 ! D15   D(2,3,4,5)             -0.0001         estimate D2E/DX2                !
 ! D16   D(2,3,4,8)            179.9999         estimate D2E/DX2                !
 ! D17   D(11,3,4,5)          -180.0            estimate D2E/DX2                !
 ! D18   D(11,3,4,8)             0.0001         estimate D2E/DX2                !
 ! D19   D(2,3,11,23)            0.0003         estimate D2E/DX2                !
 ! D20   D(2,3,11,25)          179.9981         estimate D2E/DX2                !
 ! D21   D(4,3,11,23)         -179.9999         estimate D2E/DX2                !
 ! D22   D(4,3,11,25)           -0.0021         estimate D2E/DX2                !
 ! D23   D(3,4,5,6)              0.0            estimate D2E/DX2                !
 ! D24   D(3,4,5,9)           -179.9999         estimate D2E/DX2                !
 ! D25   D(8,4,5,6)            180.0            estimate D2E/DX2                !
 ! D26   D(8,4,5,9)              0.0            estimate D2E/DX2                !
 ! D27   D(4,5,6,1)              0.0001         estimate D2E/DX2                !
 ! D28   D(4,5,6,10)          -180.0            estimate D2E/DX2                !
 ! D29   D(9,5,6,1)           -180.0            estimate D2E/DX2                !
 ! D30   D(9,5,6,10)             0.0            estimate D2E/DX2                !
 ! D31   D(3,11,23,12)          -0.0004         estimate D2E/DX2                !
 ! D32   D(3,11,23,13)         179.9989         estimate D2E/DX2                !
 ! D33   D(25,11,23,12)       -179.9983         estimate D2E/DX2                !
 ! D34   D(25,11,23,13)          0.0009         estimate D2E/DX2                !
 ! D35   D(2,12,23,11)           0.0003         estimate D2E/DX2                !
 ! D36   D(2,12,23,13)        -179.9989         estimate D2E/DX2                !
 ! D37   D(15,13,14,16)          0.0003         estimate D2E/DX2                !
 ! D38   D(15,13,14,17)       -179.9999         estimate D2E/DX2                !
 ! D39   D(23,13,14,16)       -179.9998         estimate D2E/DX2                !
 ! D40   D(23,13,14,17)          0.0            estimate D2E/DX2                !
 ! D41   D(14,13,15,18)         -0.0004         estimate D2E/DX2                !
 ! D42   D(14,13,15,24)        179.9994         estimate D2E/DX2                !
 ! D43   D(23,13,15,18)        179.9997         estimate D2E/DX2                !
 ! D44   D(23,13,15,24)         -0.0005         estimate D2E/DX2                !
 ! D45   D(14,13,23,11)        179.9997         estimate D2E/DX2                !
 ! D46   D(14,13,23,12)         -0.0012         estimate D2E/DX2                !
 ! Atot  D(15,13,23,11)         -0.0004         Frozen                          !
 ! D48   D(15,13,23,12)        179.9988         estimate D2E/DX2                !
 ! D49   D(13,14,16,19)          0.0            estimate D2E/DX2                !
 ! D50   D(13,14,16,20)        180.0            estimate D2E/DX2                !
 ! D51   D(17,14,16,19)       -179.9999         estimate D2E/DX2                !
 ! D52   D(17,14,16,20)          0.0001         estimate D2E/DX2                !
 ! D53   D(13,15,18,19)          0.0003         estimate D2E/DX2                !
 ! D54   D(13,15,18,21)        179.9999         estimate D2E/DX2                !
 ! D55   D(24,15,18,19)       -179.9995         estimate D2E/DX2                !
 ! D56   D(24,15,18,21)          0.0            estimate D2E/DX2                !
 ! D57   D(14,16,19,18)         -0.0001         estimate D2E/DX2                !
 ! D58   D(14,16,19,22)        180.0            estimate D2E/DX2                !
 ! D59   D(20,16,19,18)        179.9999         estimate D2E/DX2                !
 ! D60   D(20,16,19,22)          0.0            estimate D2E/DX2                !
 ! D61   D(15,18,19,16)         -0.0001         estimate D2E/DX2                !
 ! D62   D(15,18,19,22)        179.9999         estimate D2E/DX2                !
 ! D63   D(21,18,19,16)       -179.9996         estimate D2E/DX2                !
 ! D64   D(21,18,19,22)          0.0003         estimate D2E/DX2                !
 ! Qtot  GIC-1                  60.0            Frozen                          !
 ! Ptot  GIC-2                  40.0            Frozen                          !
 --------------------------------------------------------------------------------
 NOTE: GIC-type coordinates are in arbitrary units.
 Trust Radius=3.00D-01 FncErr=5.00D-06 GrdErr=5.00D-06 EigMax=2.50D+02 EigMin=1.00D-04
 Number of steps in this run=    146 maximum allowed number of steps=    150.
 GradGradGradGradGradGradGradGradGradGradGradGradGradGradGradGradGradGrad

 Leave Link  103 at Tue Jul 14 10:59:26 2020, MaxMem=  7784628224 cpu:               0.1 elap:               0.0
 (Enter /gpfs/loomis/apps/avx/software/Gaussian/16-C.01_AVX/g16/l202.exe)
                          Input orientation:                          
 ---------------------------------------------------------------------
 Center     Atomic      Atomic             Coordinates (Angstroms)
 Number     Number       Type             X           Y           Z
 ---------------------------------------------------------------------
      1          6           0        1.635620   -3.253879   -0.000021
      2          6           0        1.010563   -2.006757   -0.000022
      3          6           0        1.751894   -0.799893   -0.000022
      4          6           0        3.141070   -0.851969   -0.000024
      5          6           0        3.763936   -2.101098   -0.000023
      6          6           0        3.028731   -3.289718   -0.000020
      7          1           0        1.046394   -4.172420   -0.000019
      8          1           0        3.727479    0.067891   -0.000026
      9          1           0        4.854246   -2.143589   -0.000023
     10          1           0        3.545014   -4.250430   -0.000018
     11          7           0        0.927875    0.325828   -0.000024
     12         16           0       -0.720764   -1.699904   -0.000022
     13          6           0       -1.377579    1.047230    0.000006
     14          6           0       -2.729686    0.800267    0.000007
     15          6           0       -0.861103    2.442794    0.000034
     16          6           0       -3.654577    1.885992    0.000028
     17          1           0       -3.116594   -0.222047   -0.000011
     18          6           0       -1.844079    3.486748    0.000051
     19          6           0       -3.214123    3.205452    0.000048
     20          1           0       -4.722972    1.662757    0.000027
     21          1           0       -1.461858    4.508941    0.000073
     22          1           0       -3.939336    4.019816    0.000064
     23          6           0       -0.394598    0.008981   -0.000018
     24          8           0        0.369683    2.655310    0.000043
     25          1           0        1.124685    0.951394   -0.000006
 ---------------------------------------------------------------------
                    Distance matrix (angstroms):
                    1          2          3          4          5
     1  C    0.000000
     2  C    1.394995   0.000000
     3  C    2.456739   1.416365   0.000000
     4  C    2.834706   2.423344   1.390152   0.000000
     5  C    2.420462   2.754988   2.396131   1.395810   0.000000
     6  C    1.393573   2.391442   2.798132   2.440337   1.397621
     7  H    1.091286   2.165960   3.445529   3.925948   3.416929
     8  H    3.925561   3.418449   2.157773   1.090879   2.169295
     9  H    3.404747   3.846118   3.380844   2.145519   1.091138
    10  H    2.153811   3.384894   3.888635   3.422383   2.160453
    11  N    3.649001   2.334050   1.395083   2.507078   3.732721
    12  S    2.822655   1.758309   2.631360   3.953828   4.502609
    13  C    5.251563   3.876862   3.633933   4.901546   6.028859
    14  C    5.957516   4.676414   4.758684   6.098825   7.112316
    15  C    6.219783   4.827176   4.164465   5.183903   6.483666
    16  C    7.375937   6.075938   6.036878   7.326476   8.422067
    17  H    5.636980   4.496512   4.902661   6.289290   7.132498
    18  C    7.585799   6.190927   5.595204   6.608795   7.916682
    19  C    8.077311   6.709329   6.379977   7.539970   8.766571
    20  H    8.037723   6.807257   6.927375   8.256331   9.284083
    21  H    8.357975   6.969016   6.205798   7.065855   8.426241
    22  H    9.164429   7.798787   7.457861   8.594558   9.839003
    23  C    3.842921   2.457168   2.293840   3.638981   4.663243
    24  O    6.043269   4.705910   3.721415   4.470077   5.843318
    25  H    4.236198   2.960351   1.860214   2.705166   4.035263
                    6          7          8          9         10
     6  C    0.000000
     7  H    2.169982   0.000000
     8  H    3.429546   5.016817   0.000000
     9  H    2.155485   4.314614   2.481984   0.000000
    10  H    1.090648   2.499837   4.322174   2.480498   0.000000
    11  N    4.181599   4.499810   2.811461   4.638363   5.271769
    12  S    4.072619   3.039109   4.786644   5.592638   4.970115
    13  C    6.182613   5.755033   5.198146   7.001212   7.231675
    14  C    7.063098   6.243909   6.498565   8.135251   8.054899
    15  C    6.927662   6.884737   5.166744   7.328036   8.013308
    16  C    8.453081   7.668343   7.602647   9.414754   9.459903
    17  H    6.868452   5.738983   6.850212   8.199184   7.784914
    18  C    8.346543   8.186433   6.536883   8.750329   9.429011
    19  C    9.008910   8.519684   7.617750   9.680435  10.063603
    20  H    9.198691   8.205783   8.599635  10.305890  10.164908
    21  H    8.999138   9.036447   6.830238   9.173294  10.089368
    22  H   10.098676   9.590111   8.625413  10.738465  11.154033
    23  C    4.754009   4.422734   4.122498   5.673087   5.801993
    24  O    6.512595   6.861183   4.239048   6.568161   7.600787
    25  H    4.648916   5.124412   2.748656   4.846498   5.737330
                   11         12         13         14         15
    11  N    0.000000
    12  S    2.611820   0.000000
    13  C    2.415686   2.824563   0.000000
    14  C    3.688204   3.207277   1.374476   0.000000
    15  C    2.771639   4.145074   1.488067   2.487870   0.000000
    16  C    4.840762   4.633131   2.426569   1.426261   2.848425
    17  H    4.081409   2.814971   2.152961   1.093081   3.491220
    18  C    4.204182   5.306901   2.483720   2.828688   1.433905
    19  C    5.044639   5.502668   2.833869   2.453486   2.473530
    20  H    5.806845   5.227347   3.401547   2.171883   3.939859
    21  H    4.817599   6.252918   3.462737   3.919394   2.151714
    22  H    6.110261   6.563109   3.924138   3.439294   3.458687
    23  C    1.359900   1.739734   1.429760   2.465516   2.478118
    24  O    2.395425   4.489650   2.374625   3.612100   1.248998
    25  H    0.655794   3.230335   2.504099   3.857333   2.483471
                   16         17         18         19         20
    16  C    0.000000
    17  H    2.175604   0.000000
    18  C    2.416675   3.921027   0.000000
    19  C    1.391034   3.428887   1.398623   0.000000
    20  H    1.091468   2.476476   3.408074   2.157901   0.000000
    21  H    3.418754   5.012026   1.091317   2.183922   4.328468
    22  H    2.152741   4.320915   2.162004   1.090469   2.483911
    23  C    3.761733   2.731783   3.767739   4.262294   4.633551
    24  O    4.097135   4.520322   2.364748   3.625785   5.188477
    25  H    4.869786   4.400616   3.904047   4.889380   5.890767
                   21         22         23         24         25
    21  H    0.000000
    22  H    2.525300   0.000000
    23  C    4.624791   5.352753   0.000000
    24  O    2.605858   4.519902   2.754483   0.000000
    25  H    4.398449   5.921108   1.787837   1.863695   0.000000
 Symmetry turned off by external request.
 Stoichiometry    C13H9NOS
 Framework group  C1[X(C13H9NOS)]
 Deg. of freedom    69
 Full point group                 C1      NOp   1
 Rotational constants (GHZ):           1.4015919           0.2859615           0.2375044
 Leave Link  202 at Tue Jul 14 10:59:26 2020, MaxMem=  7784628224 cpu:               0.1 elap:               0.0
 (Enter /gpfs/loomis/apps/avx/software/Gaussian/16-C.01_AVX/g16/l301.exe)
 Standard basis: CC-pVDZ (5D, 7F)
 Ernie: Thresh=  0.10000D-02 Tol=  0.10000D-05 Strict=F.
 Ernie:  40 primitive shells out of 425 were deleted.
   273 basis functions,   629 primitive gaussians,   289 cartesian basis functions
    59 alpha electrons       59 beta electrons
       nuclear repulsion energy      1102.8047359069 Hartrees.
 IExCor= 4639 DFT=T Ex+Corr=wB97XD ExCW=0 ScaHFX=  1.000000
 ScaDFX=  1.000000  1.000000  1.000000  1.000000 ScalE2=  1.000000  1.000000
 IRadAn=      5 IRanWt=     -1 IRanGd=            0 ICorTp=0 IEmpDi=121
 HFx  wShort=  0.000000 wLong=  0.200000 cFull=  0.222036 cShort=  0.000000 cLong=  0.777964
 DFx  wShort=  0.000000 wLong=  0.200000 cFull=  0.000000 cShort=  0.000000 cLong=  1.000000
 NAtoms=   25 NActive=   25 NUniq=   25 SFac= 1.00D+00 NAtFMM=   60 NAOKFM=F Big=F
 Integral buffers will be    131072 words long.
 Raffenetti 1 integral format.
 Two-electron integral symmetry is turned off.
 R6Disp:  Grimme-D2 Dispersion energy=       -0.0141279954 Hartrees.
 Nuclear repulsion after empirical dispersion term =     1102.7906079115 Hartrees.
 ------------------------------------------------------------------------------
 Polarizable Continuum Model (PCM)
 =================================
 Model                : PCM.
 Atomic radii         : UFF (Universal Force Field).
 Polarization charges : Total charges.
 Charge compensation  : None.
 Solution method      : On-the-fly selection.
 Cavity type          : Scaled VdW (van der Waals Surface) (Alpha=1.100).
 Cavity algorithm     : GePol (No added spheres)
                        Default sphere list used, NSphG=   25.
                        Lebedev-Laikov grids with approx.  5.0 points / Ang**2.
                        Smoothing algorithm: York/Karplus (Gamma=1.0000).
                        Polarization charges: spherical gaussians, with
                                              point-specific exponents (IZeta= 3).
                        Self-potential: point-specific (ISelfS= 7).
                        Self-field    : sphere-specific E.n sum rule (ISelfD= 2).
 1st derivatives      : Analytical E(r).r(x)/FMM algorithm (CHGder, D1EAlg=3).
                        Cavity 1st derivative terms included.
 Solvent              : CarbonTetraChloride, Eps=   2.228000 Eps(inf)=   2.131892
 ------------------------------------------------------------------------------
 GePol: Number of generator spheres                  =      25
 GePol: Total number of spheres                      =      25
 GePol: Number of exposed spheres                    =      25 (100.00%)
 GePol: Number of points                             =    2182
 GePol: Average weight of points                     =       0.12
 GePol: Minimum weight of points                     =   0.11D-08
 GePol: Maximum weight of points                     =    0.20577
 GePol: Number of points with low weight             =     132
 GePol: Fraction of low-weight points (<1% of avg)   =       6.05%
 GePol: Cavity surface area                          =    272.697 Ang**2
 GePol: Cavity volume                                =    291.893 Ang**3
 Leave Link  301 at Tue Jul 14 10:59:27 2020, MaxMem=  7784628224 cpu:               0.8 elap:               0.1
 (Enter /gpfs/loomis/apps/avx/software/Gaussian/16-C.01_AVX/g16/l302.exe)
 NPDir=0 NMtPBC=     1 NCelOv=     1 NCel=       1 NClECP=     1 NCelD=      1
         NCelK=      1 NCelE2=     1 NClLst=     1 CellRange=     0.0.
 One-electron integrals computed using PRISM.
 NBasis=   273 RedAO= T EigKep=  2.98D-04  NBF=   273
 NBsUse=   273 1.00D-06 EigRej= -1.00D+00 NBFU=   273
 Precomputing XC quadrature grid using
 IXCGrd= 4 IRadAn=           5 IRanWt=          -1 IRanGd=           0 AccXCQ= 0.00D+00.
 Generated NRdTot=       0 NPtTot=           0 NUsed=           0 NTot=          32
 NSgBfM=   288   288   288   288   288 MxSgAt=    25 MxSgA2=    25.
 Leave Link  302 at Tue Jul 14 10:59:27 2020, MaxMem=  7784628224 cpu:               2.9 elap:               0.3
 (Enter /gpfs/loomis/apps/avx/software/Gaussian/16-C.01_AVX/g16/l303.exe)
 DipDrv:  MaxL=1.
 Leave Link  303 at Tue Jul 14 10:59:27 2020, MaxMem=  7784628224 cpu:               0.5 elap:               0.1
 (Enter /gpfs/loomis/apps/avx/software/Gaussian/16-C.01_AVX/g16/l308.exe)
 Leave Link  308 at Tue Jul 14 10:59:27 2020, MaxMem=  7784628224 cpu:               0.6 elap:               0.1
 (Enter /gpfs/loomis/apps/avx/software/Gaussian/16-C.01_AVX/g16/l401.exe)
 ExpMin= 1.22D-01 ExpMax= 1.11D+05 ExpMxC= 1.07D+03 IAcc=3 IRadAn=         5 AccDes= 0.00D+00
 Harris functional with IExCor= 4639 and IRadAn=       5 diagonalized for initial guess.
 HarFok:  IExCor= 4639 AccDes= 0.00D+00 IRadAn=         5 IDoV= 1 UseB2=F ITyADJ=14
 ICtDFT=  3500011 ScaDFX=  1.000000  1.000000  1.000000  1.000000
 FoFCou: FMM=F IPFlag=           0 FMFlag=      100000 FMFlg1=           0
         NFxFlg=           0 DoJE=T BraDBF=F KetDBF=T FulRan=T
         wScrn=  0.000000 ICntrl=       500 IOpCl=  0 I1Cent=   200000004 NGrid=           0
         NMat0=    1 NMatS0=      1 NMatT0=    0 NMatD0=    1 NMtDS0=    0 NMtDT0=    0
 Symmetry not used in FoFCou.
 Harris En= -994.172331696192    
 JPrj=0 DoOrth=F DoCkMO=F.
 Leave Link  401 at Tue Jul 14 10:59:29 2020, MaxMem=  7784628224 cpu:              13.8 elap:               1.4
 (Enter /gpfs/loomis/apps/avx/software/Gaussian/16-C.01_AVX/g16/l502.exe)
 Two-electron integral symmetry not used.
 Closed shell SCF:
 Using DIIS extrapolation, IDIIS=  1040.
 NGot=  7784628224 LenX=  7784455381 LenY=  7784371419
 Requested convergence on RMS density matrix=1.00D-08 within 128 cycles.
 Requested convergence on MAX density matrix=1.00D-06.
 Requested convergence on             energy=1.00D-06.
 No special actions if energy rises.
 Fock matrices will be formed incrementally for  20 cycles.

 Cycle   1  Pass 1  IDiag  1:
 FoFJK:  IHMeth= 1 ICntrl=       0 DoSepK=T KAlg= 0 I1Cent=           0 FoldK=F
 IRaf=         1 NMat=       1 IRICut=       1 DoRegI=T DoRafI=F ISym2E= 0 IDoP0=0 IntGTp=1.
 FoFCou: FMM=F IPFlag=           0 FMFlag=      100000 FMFlg1=           0
         NFxFlg=           0 DoJE=T BraDBF=F KetDBF=F FulRan=T
         wScrn=  0.000000 ICntrl=       500 IOpCl=  0 I1Cent=           0 NGrid=           0
         NMat0=    1 NMatS0=      1 NMatT0=    0 NMatD0=    1 NMtDS0=    0 NMtDT0=    0
 Symmetry not used in FoFCou.
 Inv3:  Mode=1 IEnd=    14283372.
 Iteration    1 A*A^-1 deviation from unit magnitude is 5.55D-15 for   2166.
 Iteration    1 A*A^-1 deviation from orthogonality  is 2.11D-15 for   2166   2090.
 Iteration    1 A^-1*A deviation from unit magnitude is 5.33D-15 for   2166.
 Iteration    1 A^-1*A deviation from orthogonality  is 1.55D-15 for   1023    695.
 E= -1028.27321422144    
 DIIS: error= 4.26D-02 at cycle   1 NSaved=   1.
 NSaved= 1 IEnMin= 1 EnMin= -1028.27321422144     IErMin= 1 ErrMin= 4.26D-02
 ErrMax= 4.26D-02  0.00D+00 EMaxC= 1.00D-01 BMatC= 4.03D-01 BMatP= 4.03D-01
 IDIUse=3 WtCom= 5.74D-01 WtEn= 4.26D-01
 Coeff-Com:  0.100D+01
 Coeff-En:   0.100D+01
 Coeff:      0.100D+01
 Gap=     0.294 Goal=   None    Shift=    0.000
 GapD=    0.294 DampG=1.000 DampE=0.500 DampFc=0.5000 IDamp=-1.
 Damping current iteration by 5.00D-01
 RMSDP=3.76D-03 MaxDP=2.62D-01              OVMax= 2.14D-01

 Cycle   2  Pass 1  IDiag  1:
 RMSU=  1.88D-03    CP:  9.94D-01
 E= -1028.40080374491     Delta-E=       -0.127589523466 Rises=F Damp=T
 DIIS: error= 1.10D-02 at cycle   2 NSaved=   2.
 NSaved= 2 IEnMin= 2 EnMin= -1028.40080374491     IErMin= 2 ErrMin= 1.10D-02
 ErrMax= 1.10D-02  0.00D+00 EMaxC= 1.00D-01 BMatC= 5.81D-02 BMatP= 4.03D-01
 IDIUse=3 WtCom= 8.90D-01 WtEn= 1.10D-01
 Coeff-Com: -0.272D+00 0.127D+01
 Coeff-En:   0.000D+00 0.100D+01
 Coeff:     -0.242D+00 0.124D+01
 Gap=     0.365 Goal=   None    Shift=    0.000
 RMSDP=1.18D-03 MaxDP=3.07D-02 DE=-1.28D-01 OVMax= 1.47D-01

 Cycle   3  Pass 1  IDiag  1:
 RMSU=  1.14D-03    CP:  9.91D-01  1.16D+00
 E= -1028.51758160743     Delta-E=       -0.116777862524 Rises=F Damp=F
 DIIS: error= 5.59D-03 at cycle   3 NSaved=   3.
 NSaved= 3 IEnMin= 3 EnMin= -1028.51758160743     IErMin= 3 ErrMin= 5.59D-03
 ErrMax= 5.59D-03  0.00D+00 EMaxC= 1.00D-01 BMatC= 1.46D-02 BMatP= 5.81D-02
 IDIUse=3 WtCom= 9.44D-01 WtEn= 5.59D-02
 Coeff-Com: -0.195D+00 0.478D+00 0.717D+00
 Coeff-En:   0.000D+00 0.000D+00 0.100D+01
 Coeff:     -0.184D+00 0.451D+00 0.733D+00
 Gap=     0.231 Goal=   None    Shift=    0.000
 RMSDP=5.19D-04 MaxDP=2.23D-02 DE=-1.17D-01 OVMax= 4.69D-02

 Cycle   4  Pass 1  IDiag  1:
 RMSU=  4.13D-04    CP:  9.89D-01  1.31D+00  8.81D-01
 E= -1028.53187333940     Delta-E=       -0.014291731963 Rises=F Damp=F
 DIIS: error= 1.88D-03 at cycle   4 NSaved=   4.
 NSaved= 4 IEnMin= 4 EnMin= -1028.53187333940     IErMin= 4 ErrMin= 1.88D-03
 ErrMax= 1.88D-03  0.00D+00 EMaxC= 1.00D-01 BMatC= 1.71D-03 BMatP= 1.46D-02
 IDIUse=3 WtCom= 9.81D-01 WtEn= 1.88D-02
 Coeff-Com: -0.690D-01 0.136D+00 0.338D+00 0.595D+00
 Coeff-En:   0.000D+00 0.000D+00 0.000D+00 0.100D+01
 Coeff:     -0.677D-01 0.134D+00 0.331D+00 0.603D+00
 Gap=     0.234 Goal=   None    Shift=    0.000
 RMSDP=1.63D-04 MaxDP=8.67D-03 DE=-1.43D-02 OVMax= 1.23D-02

 Cycle   5  Pass 1  IDiag  1:
 RMSU=  1.13D-04    CP:  9.89D-01  1.32D+00  9.45D-01  7.84D-01
 E= -1028.53374534377     Delta-E=       -0.001872004371 Rises=F Damp=F
 DIIS: error= 6.40D-04 at cycle   5 NSaved=   5.
 NSaved= 5 IEnMin= 5 EnMin= -1028.53374534377     IErMin= 5 ErrMin= 6.40D-04
 ErrMax= 6.40D-04  0.00D+00 EMaxC= 1.00D-01 BMatC= 6.33D-05 BMatP= 1.71D-03
 IDIUse=3 WtCom= 9.94D-01 WtEn= 6.40D-03
 Coeff-Com:  0.189D-04-0.644D-02 0.234D-01 0.157D+00 0.826D+00
 Coeff-En:   0.000D+00 0.000D+00 0.000D+00 0.000D+00 0.100D+01
 Coeff:      0.188D-04-0.640D-02 0.233D-01 0.156D+00 0.827D+00
 Gap=     0.235 Goal=   None    Shift=    0.000
 RMSDP=6.43D-05 MaxDP=2.14D-03 DE=-1.87D-03 OVMax= 7.57D-03

 Cycle   6  Pass 1  IDiag  1:
 RMSU=  4.15D-05    CP:  9.89D-01  1.32D+00  9.64D-01  8.83D-01  1.14D+00
 E= -1028.53390182812     Delta-E=       -0.000156484356 Rises=F Damp=F
 DIIS: error= 2.75D-04 at cycle   6 NSaved=   6.
 NSaved= 6 IEnMin= 6 EnMin= -1028.53390182812     IErMin= 6 ErrMin= 2.75D-04
 ErrMax= 2.75D-04  0.00D+00 EMaxC= 1.00D-01 BMatC= 1.26D-05 BMatP= 6.33D-05
 IDIUse=3 WtCom= 9.97D-01 WtEn= 2.75D-03
 Coeff-Com:  0.176D-01-0.359D-01-0.712D-01-0.879D-01 0.217D+00 0.960D+00
 Coeff-En:   0.000D+00 0.000D+00 0.000D+00 0.000D+00 0.000D+00 0.100D+01
 Coeff:      0.176D-01-0.358D-01-0.710D-01-0.876D-01 0.217D+00 0.960D+00
 Gap=     0.236 Goal=   None    Shift=    0.000
 RMSDP=4.31D-05 MaxDP=2.14D-03 DE=-1.56D-04 OVMax= 5.03D-03

 Cycle   7  Pass 1  IDiag  1:
 RMSU=  2.00D-05    CP:  9.89D-01  1.32D+00  9.78D-01  9.23D-01  1.38D+00
                    CP:  1.35D+00
 E= -1028.53394938256     Delta-E=       -0.000047554434 Rises=F Damp=F
 DIIS: error= 8.99D-05 at cycle   7 NSaved=   7.
 NSaved= 7 IEnMin= 7 EnMin= -1028.53394938256     IErMin= 7 ErrMin= 8.99D-05
 ErrMax= 8.99D-05  0.00D+00 EMaxC= 1.00D-01 BMatC= 2.41D-06 BMatP= 1.26D-05
 IDIUse=1 WtCom= 1.00D+00 WtEn= 0.00D+00
 Coeff-Com:  0.638D-02-0.119D-01-0.270D-01-0.537D-01-0.288D-01 0.354D+00
 Coeff-Com:  0.761D+00
 Coeff:      0.638D-02-0.119D-01-0.270D-01-0.537D-01-0.288D-01 0.354D+00
 Coeff:      0.761D+00
 Gap=     0.236 Goal=   None    Shift=    0.000
 RMSDP=1.55D-05 MaxDP=5.76D-04 DE=-4.76D-05 OVMax= 2.00D-03

 Cycle   8  Pass 1  IDiag  1:
 RMSU=  8.16D-06    CP:  9.89D-01  1.32D+00  9.79D-01  9.32D-01  1.43D+00
                    CP:  1.60D+00  1.19D+00
 E= -1028.53395652051     Delta-E=       -0.000007137953 Rises=F Damp=F
 DIIS: error= 6.24D-05 at cycle   8 NSaved=   8.
 NSaved= 8 IEnMin= 8 EnMin= -1028.53395652051     IErMin= 8 ErrMin= 6.24D-05
 ErrMax= 6.24D-05  0.00D+00 EMaxC= 1.00D-01 BMatC= 4.57D-07 BMatP= 2.41D-06
 IDIUse=1 WtCom= 1.00D+00 WtEn= 0.00D+00
 Coeff-Com: -0.174D-02 0.374D-02 0.793D-02 0.346D-02-0.374D-01-0.116D+00
 Coeff-Com:  0.213D+00 0.927D+00
 Coeff:     -0.174D-02 0.374D-02 0.793D-02 0.346D-02-0.374D-01-0.116D+00
 Coeff:      0.213D+00 0.927D+00
 Gap=     0.236 Goal=   None    Shift=    0.000
 RMSDP=8.29D-06 MaxDP=2.14D-04 DE=-7.14D-06 OVMax= 1.37D-03

 Cycle   9  Pass 1  IDiag  1:
 RMSU=  3.31D-06    CP:  9.89D-01  1.32D+00  9.79D-01  9.32D-01  1.46D+00
                    CP:  1.71D+00  1.46D+00  1.19D+00
 E= -1028.53395840572     Delta-E=       -0.000001885209 Rises=F Damp=F
 DIIS: error= 1.83D-05 at cycle   9 NSaved=   9.
 NSaved= 9 IEnMin= 9 EnMin= -1028.53395840572     IErMin= 9 ErrMin= 1.83D-05
 ErrMax= 1.83D-05  0.00D+00 EMaxC= 1.00D-01 BMatC= 1.29D-07 BMatP= 4.57D-07
 IDIUse=1 WtCom= 1.00D+00 WtEn= 0.00D+00
 Coeff-Com: -0.156D-02 0.308D-02 0.716D-02 0.877D-02-0.978D-02-0.111D+00
 Coeff-Com: -0.451D-01 0.367D+00 0.781D+00
 Coeff:     -0.156D-02 0.308D-02 0.716D-02 0.877D-02-0.978D-02-0.111D+00
 Coeff:     -0.451D-01 0.367D+00 0.781D+00
 Gap=     0.236 Goal=   None    Shift=    0.000
 RMSDP=4.34D-06 MaxDP=1.56D-04 DE=-1.89D-06 OVMax= 5.84D-04

 Cycle  10  Pass 1  IDiag  1:
 RMSU=  1.71D-06    CP:  9.89D-01  1.32D+00  9.79D-01  9.32D-01  1.47D+00
                    CP:  1.76D+00  1.55D+00  1.45D+00  1.15D+00
 E= -1028.53395881637     Delta-E=       -0.000000410653 Rises=F Damp=F
 DIIS: error= 1.38D-05 at cycle  10 NSaved=  10.
 NSaved=10 IEnMin=10 EnMin= -1028.53395881637     IErMin=10 ErrMin= 1.38D-05
 ErrMax= 1.38D-05  0.00D+00 EMaxC= 1.00D-01 BMatC= 2.35D-08 BMatP= 1.29D-07
 IDIUse=1 WtCom= 1.00D+00 WtEn= 0.00D+00
 Coeff-Com:  0.562D-04-0.186D-03 0.669D-04 0.138D-02 0.893D-02-0.109D-01
 Coeff-Com: -0.724D-01-0.900D-01 0.310D+00 0.853D+00
 Coeff:      0.562D-04-0.186D-03 0.669D-04 0.138D-02 0.893D-02-0.109D-01
 Coeff:     -0.724D-01-0.900D-01 0.310D+00 0.853D+00
 Gap=     0.236 Goal=   None    Shift=    0.000
 RMSDP=1.93D-06 MaxDP=5.98D-05 DE=-4.11D-07 OVMax= 3.58D-04

 Cycle  11  Pass 1  IDiag  1:
 RMSU=  6.41D-07    CP:  9.89D-01  1.32D+00  9.79D-01  9.32D-01  1.47D+00
                    CP:  1.78D+00  1.60D+00  1.55D+00  1.46D+00  1.12D+00
 E= -1028.53395890801     Delta-E=       -0.000000091639 Rises=F Damp=F
 DIIS: error= 4.15D-06 at cycle  11 NSaved=  11.
 NSaved=11 IEnMin=11 EnMin= -1028.53395890801     IErMin=11 ErrMin= 4.15D-06
 ErrMax= 4.15D-06  0.00D+00 EMaxC= 1.00D-01 BMatC= 4.89D-09 BMatP= 2.35D-08
 IDIUse=1 WtCom= 1.00D+00 WtEn= 0.00D+00
 Coeff-Com:  0.263D-03-0.542D-03-0.103D-02-0.931D-03 0.530D-02 0.123D-01
 Coeff-Com: -0.190D-01-0.863D-01-0.361D-01 0.303D+00 0.823D+00
 Coeff:      0.263D-03-0.542D-03-0.103D-02-0.931D-03 0.530D-02 0.123D-01
 Coeff:     -0.190D-01-0.863D-01-0.361D-01 0.303D+00 0.823D+00
 Gap=     0.236 Goal=   None    Shift=    0.000
 RMSDP=7.99D-07 MaxDP=2.53D-05 DE=-9.16D-08 OVMax= 1.20D-04

 Cycle  12  Pass 1  IDiag  1:
 RMSU=  2.59D-07    CP:  9.89D-01  1.32D+00  9.79D-01  9.32D-01  1.47D+00
                    CP:  1.79D+00  1.61D+00  1.59D+00  1.56D+00  1.36D+00
                    CP:  1.15D+00
 E= -1028.53395892206     Delta-E=       -0.000000014045 Rises=F Damp=F
 DIIS: error= 1.67D-06 at cycle  12 NSaved=  12.
 NSaved=12 IEnMin=12 EnMin= -1028.53395892206     IErMin=12 ErrMin= 1.67D-06
 ErrMax= 1.67D-06  0.00D+00 EMaxC= 1.00D-01 BMatC= 6.61D-10 BMatP= 4.89D-09
 IDIUse=1 WtCom= 1.00D+00 WtEn= 0.00D+00
 Coeff-Com:  0.118D-03-0.228D-03-0.514D-03-0.900D-03 0.633D-03 0.808D-02
 Coeff-Com:  0.823D-02-0.156D-01-0.871D-01-0.505D-01 0.286D+00 0.852D+00
 Coeff:      0.118D-03-0.228D-03-0.514D-03-0.900D-03 0.633D-03 0.808D-02
 Coeff:      0.823D-02-0.156D-01-0.871D-01-0.505D-01 0.286D+00 0.852D+00
 Gap=     0.236 Goal=   None    Shift=    0.000
 RMSDP=3.23D-07 MaxDP=8.35D-06 DE=-1.40D-08 OVMax= 5.08D-05

 Cycle  13  Pass 1  IDiag  1:
 RMSU=  9.78D-08    CP:  9.89D-01  1.32D+00  9.79D-01  9.32D-01  1.47D+00
                    CP:  1.79D+00  1.61D+00  1.60D+00  1.61D+00  1.45D+00
                    CP:  1.37D+00  1.06D+00
 E= -1028.53395892435     Delta-E=       -0.000000002288 Rises=F Damp=F
 DIIS: error= 6.34D-07 at cycle  13 NSaved=  13.
 NSaved=13 IEnMin=13 EnMin= -1028.53395892435     IErMin=13 ErrMin= 6.34D-07
 ErrMax= 6.34D-07  0.00D+00 EMaxC= 1.00D-01 BMatC= 6.98D-11 BMatP= 6.61D-10
 IDIUse=1 WtCom= 1.00D+00 WtEn= 0.00D+00
 Coeff-Com: -0.928D-05 0.210D-04 0.353D-04-0.691D-04-0.242D-03 0.261D-03
 Coeff-Com:  0.314D-02 0.604D-02-0.132D-01-0.369D-01-0.558D-01 0.185D+00
 Coeff-Com:  0.912D+00
 Coeff:     -0.928D-05 0.210D-04 0.353D-04-0.691D-04-0.242D-03 0.261D-03
 Coeff:      0.314D-02 0.604D-02-0.132D-01-0.369D-01-0.558D-01 0.185D+00
 Coeff:      0.912D+00
 Gap=     0.236 Goal=   None    Shift=    0.000
 RMSDP=8.95D-08 MaxDP=2.23D-06 DE=-2.29D-09 OVMax= 1.05D-05

 Cycle  14  Pass 1  IDiag  1:
 RMSU=  3.53D-08    CP:  9.89D-01  1.32D+00  9.79D-01  9.32D-01  1.47D+00
                    CP:  1.79D+00  1.61D+00  1.61D+00  1.62D+00  1.48D+00
                    CP:  1.42D+00  1.22D+00  1.17D+00
 E= -1028.53395892455     Delta-E=       -0.000000000206 Rises=F Damp=F
 DIIS: error= 1.84D-07 at cycle  14 NSaved=  14.
 NSaved=14 IEnMin=14 EnMin= -1028.53395892455     IErMin=14 ErrMin= 1.84D-07
 ErrMax= 1.84D-07  0.00D+00 EMaxC= 1.00D-01 BMatC= 1.01D-11 BMatP= 6.98D-11
 IDIUse=1 WtCom= 1.00D+00 WtEn= 0.00D+00
 Coeff-Com: -0.146D-04 0.292D-04 0.639D-04 0.605D-04-0.138D-03-0.728D-03
 Coeff-Com:  0.198D-03 0.389D-02 0.390D-02-0.638D-02-0.503D-01-0.255D-01
 Coeff-Com:  0.334D+00 0.741D+00
 Coeff:     -0.146D-04 0.292D-04 0.639D-04 0.605D-04-0.138D-03-0.728D-03
 Coeff:      0.198D-03 0.389D-02 0.390D-02-0.638D-02-0.503D-01-0.255D-01
 Coeff:      0.334D+00 0.741D+00
 Gap=     0.236 Goal=   None    Shift=    0.000
 RMSDP=2.28D-08 MaxDP=5.43D-07 DE=-2.06D-10 OVMax= 2.76D-06

 Cycle  15  Pass 1  IDiag  1:
 RMSU=  1.21D-08    CP:  9.89D-01  1.32D+00  9.79D-01  9.32D-01  1.47D+00
                    CP:  1.79D+00  1.61D+00  1.61D+00  1.62D+00  1.48D+00
                    CP:  1.43D+00  1.25D+00  1.30D+00  1.10D+00
 E= -1028.53395892458     Delta-E=       -0.000000000027 Rises=F Damp=F
 DIIS: error= 7.13D-08 at cycle  15 NSaved=  15.
 NSaved=15 IEnMin=15 EnMin= -1028.53395892458     IErMin=15 ErrMin= 7.13D-08
 ErrMax= 7.13D-08  0.00D+00 EMaxC= 1.00D-01 BMatC= 1.26D-12 BMatP= 1.01D-11
 IDIUse=1 WtCom= 1.00D+00 WtEn= 0.00D+00
 Coeff-Com: -0.217D-05 0.383D-05 0.121D-04 0.322D-04 0.454D-06-0.302D-03
 Coeff-Com: -0.634D-03 0.149D-04 0.382D-02 0.671D-02-0.212D-02-0.508D-01
 Coeff-Com: -0.873D-01 0.167D+00 0.963D+00
 Coeff:     -0.217D-05 0.383D-05 0.121D-04 0.322D-04 0.454D-06-0.302D-03
 Coeff:     -0.634D-03 0.149D-04 0.382D-02 0.671D-02-0.212D-02-0.508D-01
 Coeff:     -0.873D-01 0.167D+00 0.963D+00
 Gap=     0.236 Goal=   None    Shift=    0.000
 RMSDP=1.25D-08 MaxDP=2.99D-07 DE=-2.68D-11 OVMax= 1.42D-06

 Cycle  16  Pass 1  IDiag  1:
 RMSU=  5.11D-09    CP:  9.89D-01  1.32D+00  9.79D-01  9.32D-01  1.47D+00
                    CP:  1.79D+00  1.61D+00  1.61D+00  1.62D+00  1.48D+00
                    CP:  1.44D+00  1.27D+00  1.37D+00  1.29D+00  1.22D+00
 E= -1028.53395892458     Delta-E=        0.000000000002 Rises=F Damp=F
 DIIS: error= 2.53D-08 at cycle  16 NSaved=  16.
 NSaved=16 IEnMin=15 EnMin= -1028.53395892458     IErMin=16 ErrMin= 2.53D-08
 ErrMax= 2.53D-08  0.00D+00 EMaxC= 1.00D-01 BMatC= 1.35D-13 BMatP= 1.26D-12
 IDIUse=1 WtCom= 1.00D+00 WtEn= 0.00D+00
 Coeff-Com:  0.769D-06-0.166D-05-0.242D-05 0.233D-05 0.940D-05-0.131D-04
 Coeff-Com: -0.182D-03-0.335D-03 0.465D-03 0.215D-02 0.415D-02-0.109D-01
 Coeff-Com: -0.470D-01-0.318D-01 0.247D+00 0.837D+00
 Coeff:      0.769D-06-0.166D-05-0.242D-05 0.233D-05 0.940D-05-0.131D-04
 Coeff:     -0.182D-03-0.335D-03 0.465D-03 0.215D-02 0.415D-02-0.109D-01
 Coeff:     -0.470D-01-0.318D-01 0.247D+00 0.837D+00
 Gap=     0.236 Goal=   None    Shift=    0.000
 RMSDP=3.62D-09 MaxDP=1.17D-07 DE= 2.05D-12 OVMax= 4.95D-07

 Error on total polarization charges =  0.00881
 SCF Done:  E(RwB97XD) =  -1028.53395892     A.U. after   16 cycles
            NFock= 16  Conv=0.36D-08     -V/T= 2.0035
 KE= 1.024936312681D+03 PE=-4.617650744925D+03 EE= 1.461389865408D+03
 Leave Link  502 at Tue Jul 14 11:00:56 2020, MaxMem=  7784628224 cpu:             870.6 elap:              87.7
 (Enter /gpfs/loomis/apps/avx/software/Gaussian/16-C.01_AVX/g16/l801.exe)
 DoSCS=F DFT=T ScalE2(SS,OS)=  1.000000  1.000000
 ExpMin= 1.22D-01 ExpMax= 1.11D+05 ExpMxC= 1.07D+03 IAcc=3 IRadAn=         5 AccDes= 0.00D+00
 HarFok:  IExCor=  205 AccDes= 0.00D+00 IRadAn=         5 IDoV=-2 UseB2=F ITyADJ=14
 ICtDFT= 12500011 ScaDFX=  1.000000  1.000000  1.000000  1.000000
 Largest valence mixing into a core orbital is  9.50D-05
 Largest core mixing into a valence orbital is  3.21D-05
 Range of M.O.s used for correlation:    21   273
 NBasis=   273 NAE=    59 NBE=    59 NFC=    20 NFV=     0
 NROrb=    253 NOA=    39 NOB=    39 NVA=   214 NVB=   214
 Leave Link  801 at Tue Jul 14 11:00:56 2020, MaxMem=  7784628224 cpu:               0.9 elap:               0.1
 (Enter /gpfs/loomis/apps/avx/software/Gaussian/16-C.01_AVX/g16/l914.exe)
 RHF ground state
 Keep R1, R2, and R3 ints in memory in canonical form, NReq=4262515490.
 FoFCou: FMM=F IPFlag=           0 FMFlag=           0 FMFlg1=           0
         NFxFlg=           0 DoJE=F BraDBF=F KetDBF=F FulRan=T
         wScrn=  0.000000 ICntrl=       600 IOpCl=  0 I1Cent=           0 NGrid=           0
         NMat0=    1 NMatS0=  37401 NMatT0=    0 NMatD0=    1 NMtDS0=    0 NMtDT0=    0
 Symmetry not used in FoFCou.
 Two-electron integral symmetry not used.
 MDV=  7784628224 DFT=T DoStab=F Mixed=T DoRPA=T DoScal=F NonHer=T
 NEqPCM:  Using equilibrium solvation (IEInf=0, Eps=   2.2280, EpsInf=   2.1319)
 Making orbital integer symmetry assigments:
    12 initial guesses have been made.
 Convergence on wavefunction:    0.000001000000000
 Davidson Disk Diagonalization:  ConvIn= 1.00D-06 SkipCon=T Conv= 1.00D-06.
 Max sub-space:  2000 roots to seek:    12 dimension of matrix:        16692
 Iteration     1 Dimension    12 NMult     0 NNew     12
 CISAX will form    12 AO SS matrices at one time.
 NMat=    12 NSing=    12 JSym2X= 0.
 New state      3 was old state      4
 Excitation Energies [eV] at current iteration:
 Root      1 :     3.396784662623168
 Root      2 :     3.629056921668812
 Root      3 :     4.840619777438835
 Root      4 :     5.158246851908844
 Root      5 :     5.180304699440700
 Root      6 :     5.686067886324037
 Root      7 :     5.838382660872354
 Root      8 :     6.307308143643713
 Root      9 :     6.489276586925255
 Root     10 :     6.658740072328943
 Root     11 :     6.963401114364665
 Root     12 :     7.188397259675096
 Iteration     2 Dimension    18 NMult    12 NNew      6
 CISAX will form     6 AO SS matrices at one time.
 NMat=     6 NSing=     6 JSym2X= 0.
 Root      1 not converged, maximum delta is    0.043231894253988
 Root      2 not converged, maximum delta is    0.107151041399504
 Root      3 not converged, maximum delta is    0.079899460551544
 Excitation Energies [eV] at current iteration:
 Root      1 :     2.879372910095177   Change is   -0.517411752527991
 Root      2 :     3.425568622681542   Change is   -0.203488298987269
 Root      3 :     4.401712772320867   Change is   -0.438907005117969
 Iteration     3 Dimension    24 NMult    18 NNew      6
 CISAX will form     6 AO SS matrices at one time.
 NMat=     6 NSing=     6 JSym2X= 0.
 Root      1 not converged, maximum delta is    0.015717386345454
 Root      2 not converged, maximum delta is    0.028084653268356
 Root      3 not converged, maximum delta is    0.028742274672341
 Excitation Energies [eV] at current iteration:
 Root      1 :     2.850752837348047   Change is   -0.028620072747130
 Root      2 :     3.405885230831065   Change is   -0.019683391850477
 Root      3 :     4.372771699267230   Change is   -0.028941073053637
 Iteration     4 Dimension    30 NMult    24 NNew      6
 CISAX will form     6 AO SS matrices at one time.
 NMat=     6 NSing=     6 JSym2X= 0.
 Root      1 not converged, maximum delta is    0.008428024335916
 Root      2 not converged, maximum delta is    0.009587547055494
 Root      3 not converged, maximum delta is    0.015635352059835
 Excitation Energies [eV] at current iteration:
 Root      1 :     2.846332809597695   Change is   -0.004420027750352
 Root      2 :     3.404006798594307   Change is   -0.001878432236759
 Root      3 :     4.367127282805441   Change is   -0.005644416461789
 Iteration     5 Dimension    36 NMult    30 NNew      6
 CISAX will form     6 AO SS matrices at one time.
 NMat=     6 NSing=     6 JSym2X= 0.
 Root      1 not converged, maximum delta is    0.001878609402705
 Root      2 not converged, maximum delta is    0.001288943441895
 Root      3 not converged, maximum delta is    0.009516291734122
 Excitation Energies [eV] at current iteration:
 Root      1 :     2.845761887195447   Change is   -0.000570922402247
 Root      2 :     3.403907327837515   Change is   -0.000099470756791
 Root      3 :     4.365781946663475   Change is   -0.001345336141966
 Iteration     6 Dimension    42 NMult    36 NNew      6
 CISAX will form     6 AO SS matrices at one time.
 NMat=     6 NSing=     6 JSym2X= 0.
 Root      1 not converged, maximum delta is    0.000316187132770
 Root      2 not converged, maximum delta is    0.000327976853708
 Root      3 not converged, maximum delta is    0.002463032967685
 Excitation Energies [eV] at current iteration:
 Root      1 :     2.845720812978912   Change is   -0.000041074216535
 Root      2 :     3.403902241148467   Change is   -0.000005086689048
 Root      3 :     4.365593363041333   Change is   -0.000188583622142
 Iteration     7 Dimension    48 NMult    42 NNew      6
 CISAX will form     6 AO SS matrices at one time.
 NMat=     6 NSing=     6 JSym2X= 0.
 Root      1 not converged, maximum delta is    0.000106984602067
 Root      2 not converged, maximum delta is    0.000118259498392
 Root      3 not converged, maximum delta is    0.000476535367433
 Excitation Energies [eV] at current iteration:
 Root      1 :     2.845717499207242   Change is   -0.000003313771670
 Root      2 :     3.403901797964556   Change is   -0.000000443183911
 Root      3 :     4.365574287146529   Change is   -0.000019075894803
 Iteration     8 Dimension    54 NMult    48 NNew      6
 CISAX will form     6 AO SS matrices at one time.
 NMat=     6 NSing=     6 JSym2X= 0.
 Root      1 not converged, maximum delta is    0.000029574603093
 Root      2 not converged, maximum delta is    0.000011042584680
 Root      3 not converged, maximum delta is    0.000175155538906
 Excitation Energies [eV] at current iteration:
 Root      1 :     2.845717337764161   Change is   -0.000000161443081
 Root      2 :     3.403901778776131   Change is   -0.000000019188425
 Root      3 :     4.365572486916617   Change is   -0.000001800229913
 Iteration     9 Dimension    60 NMult    54 NNew      6
 CISAX will form     6 AO SS matrices at one time.
 NMat=     6 NSing=     6 JSym2X= 0.
 Root      1 not converged, maximum delta is    0.000010118356600
 Root      2 not converged, maximum delta is    0.000001441152414
 Root      3 not converged, maximum delta is    0.000030312086527
 Excitation Energies [eV] at current iteration:
 Root      1 :     2.845717326267948   Change is   -0.000000011496213
 Root      2 :     3.403901778066599   Change is   -0.000000000709532
 Root      3 :     4.365572379525780   Change is   -0.000000107390836
 Iteration    10 Dimension    66 NMult    60 NNew      6
 CISAX will form     6 AO SS matrices at one time.
 NMat=     6 NSing=     6 JSym2X= 0.
 Root      1 not converged, maximum delta is    0.000002915701212
 Root      2 has converged.
 Root      3 not converged, maximum delta is    0.000013050151407
 Excitation Energies [eV] at current iteration:
 Root      1 :     2.845717325319694   Change is   -0.000000000948254
 Root      2 :     3.403901778027958   Change is   -0.000000000038641
 Root      3 :     4.365572368921949   Change is   -0.000000010603831
 Iteration    11 Dimension    70 NMult    66 NNew      4
 CISAX will form     4 AO SS matrices at one time.
 NMat=     4 NSing=     4 JSym2X= 0.
 Root      1 has converged.
 Root      2 has converged.
 Root      3 not converged, maximum delta is    0.000003030182974
 Excitation Energies [eV] at current iteration:
 Root      1 :     2.845717325257498   Change is   -0.000000000062196
 Root      2 :     3.403901778028007   Change is    0.000000000000048
 Root      3 :     4.365572367950973   Change is   -0.000000000970976
 Iteration    12 Dimension    72 NMult    70 NNew      2
 CISAX will form     2 AO SS matrices at one time.
 NMat=     2 NSing=     2 JSym2X= 0.
 Root      1 has converged.
 Root      2 has converged.
 Root      3 has converged.
 Excitation Energies [eV] at current iteration:
 Root      1 :     2.845717325256429   Change is   -0.000000000001069
 Root      2 :     3.403901778027910   Change is   -0.000000000000097
 Root      3 :     4.365572367887156   Change is   -0.000000000063818
 Convergence achieved on expansion vectors.
 ***********************************************************************
 Excited states from <AA,BB:AA,BB> singles matrix:
 ***********************************************************************
 
 1PDM for each excited state written to RWF  633
 Ground to excited state transition densities written to RWF  633
 Ground to excited state transition electric dipole moments (Au):
       state          X           Y           Z        Dip. S.      Osc.
         1         1.1433     -2.2585     -0.0000      6.4079      0.4468
         2        -0.0000      0.0000     -0.0058      0.0000      0.0000
         3        -1.5986      1.0472      0.0000      3.6523      0.3906
 Ground to excited state transition velocity dipole moments (Au):
       state          X           Y           Z        Dip. S.      Osc.
         1        -0.1155      0.2399      0.0000      0.0709      0.4518
         2         0.0000     -0.0000      0.0008      0.0000      0.0000
         3         0.2514     -0.1582     -0.0000      0.0882      0.3666
 Ground to excited state transition magnetic dipole moments (Au):
       state          X           Y           Z
         1         0.0000      0.0000     -1.1541
         2         0.4282     -0.0137      0.0000
         3        -0.0000      0.0000     -0.9905
 Ground to excited state transition velocity quadrupole moments (Au):
       state          XX          YY          ZZ          XY          XZ          YZ
         1         0.0430      0.6581     -0.0119     -0.2894     -0.0000      0.0000
         2        -0.0000     -0.0000      0.0000      0.0000     -0.0051      0.0200
         3        -0.4929      0.5015      0.0060      0.1174      0.0000      0.0000
 <0|del|b> * <b|rxdel|0> + <0|del|b> * <b|delr+rdel|0>
 Rotatory Strengths (R) in cgs (10**-40 erg-esu-cm/Gauss)
       state          XX          YY          ZZ    R(velocity)    E-M Angle
         1         0.0060     -0.0205      0.0176      0.0010       90.00
         2         0.0002      0.0021      0.0021      0.0015       90.00
         3         0.0022      0.0033     -0.0068     -0.0005       90.00
 1/2[<0|r|b>*<b|rxdel|0> + (<0|rxdel|b>*<b|r|0>)*]
 Rotatory Strengths (R) in cgs (10**-40 erg-esu-cm/Gauss)
       state          XX          YY          ZZ     R(length)
         1        -0.0086      0.0408     -0.0298      0.0008
         2         0.0041      0.0003      0.0001      0.0015
         3        -0.0052     -0.0040      0.0086     -0.0002
  1/2[<0|del|b>*<b|r|0> + (<0|r|b>*<b|del|0>)*] (Au)
       state          X           Y           Z        Dip. S.   Osc.(frdel)
         1        -0.1320     -0.5418     -0.0000      0.6738      0.4492
         2        -0.0000     -0.0000     -0.0000      0.0000      0.0000
         3        -0.4019     -0.1656     -0.0000      0.5676      0.3784

 Excitation energies and oscillator strengths:
 
 Excited state symmetry could not be determined.
 Excited State   1:      Singlet-?Sym    2.8457 eV  435.69 nm  f=0.4468  <S**2>=0.000
      59 -> 60         0.69996
 This state for optimization and/or second-order correction.
 Total Energy, E(TD-HF/TD-DFT) =  -1028.42938074    
 Copying the excited state density for this state as the 1-particle RhoCI density.
 
 Excited state symmetry could not be determined.
 Excited State   2:      Singlet-?Sym    3.4039 eV  364.24 nm  f=0.0000  <S**2>=0.000
      58 -> 60         0.68495
      58 -> 62         0.11019
      58 -> 64         0.10828
 
 Excited state symmetry could not be determined.
 Excited State   3:      Singlet-?Sym    4.3656 eV  284.00 nm  f=0.3906  <S**2>=0.000
      57 -> 60         0.68498
 SavETr:  write IOETrn=   770 NScale= 10 NData=  16 NLR=1 NState=    3 LETran=      64.
 The selected state is a singlet.
 CISGrd: IGrad=2 NXY=2 DFT=T
 CISAX will form     1 AO SS matrices at one time.
 NMat=     1 NSing=     1 JSym2X= 0.
 GePol: Maximum number of non-zero 1st derivatives   =     258
 Leave Link  914 at Tue Jul 14 11:03:42 2020, MaxMem=  7784628224 cpu:            1634.9 elap:             166.0
 (Enter /gpfs/loomis/apps/avx/software/Gaussian/16-C.01_AVX/g16/l1002.exe)
 Minotr:  Closed shell wavefunction.
          Computing CIS/TDA/TD derivatives.
          Using Z-Vector for PSCF gradient.
          Skipping F1 and S1 gradient terms here.
          IDoAtm=1111111111111111111111111
 NEqPCM:  Using equilibrium solvation (IEInf=0, Eps=   2.2280, EpsInf=   2.1319)
          Frozen-core window.
          Direct CPHF calculation.
          Differentiating once with respect to electric field.
                with respect to dipole field.
          Differentiating once with respect to nuclear coordinates.
          Requested convergence is 1.0D-10 RMS, and 1.0D-09 maximum.
          NewPWx=F KeepS1=T KeepF1=T KeepIn=T MapXYZ=F SortEE=F KeepMc=T.
 Keep R1 ints in memory in canonical form, NReq=1421415668.
 FoFCou: FMM=F IPFlag=           0 FMFlag=           0 FMFlg1=           0
         NFxFlg=           0 DoJE=F BraDBF=F KetDBF=F FulRan=T
         wScrn=  0.000000 ICntrl=       600 IOpCl=  0 I1Cent=           0 NGrid=           0
         NMat0=    1 NMatS0=  37401 NMatT0=    0 NMatD0=    1 NMtDS0=    0 NMtDT0=    0
 Symmetry not used in FoFCou.
 Two-electron integral symmetry not used.
          MDV=    7784628224 using IRadAn=       5.
          Solving linear equations separately, MaxMat=       0.
          There are     1 degrees of freedom in the 1st order CPHF.  IDoFFX=0 NUNeed=     1.
 LinEq1:  Iter=  0 NonCon=     1 RMS=6.98D-03 Max=5.72D-01 NDo=     1
 AX will form     1 AO Fock derivatives at one time.
 LinEq1:  Iter=  1 NonCon=     1 RMS=3.21D-03 Max=1.76D-01 NDo=     1
 LinEq1:  Iter=  2 NonCon=     1 RMS=1.59D-03 Max=3.71D-02 NDo=     1
 LinEq1:  Iter=  3 NonCon=     1 RMS=7.62D-04 Max=2.15D-02 NDo=     1
 LinEq1:  Iter=  4 NonCon=     1 RMS=4.52D-04 Max=1.39D-02 NDo=     1
 LinEq1:  Iter=  5 NonCon=     1 RMS=2.22D-04 Max=8.24D-03 NDo=     1
 LinEq1:  Iter=  6 NonCon=     1 RMS=9.11D-05 Max=4.58D-03 NDo=     1
 LinEq1:  Iter=  7 NonCon=     1 RMS=4.67D-05 Max=1.50D-03 NDo=     1
 LinEq1:  Iter=  8 NonCon=     1 RMS=1.77D-05 Max=6.07D-04 NDo=     1
 LinEq1:  Iter=  9 NonCon=     1 RMS=7.99D-06 Max=1.87D-04 NDo=     1
 LinEq1:  Iter= 10 NonCon=     1 RMS=3.14D-06 Max=8.40D-05 NDo=     1
 LinEq1:  Iter= 11 NonCon=     1 RMS=1.54D-06 Max=5.24D-05 NDo=     1
 LinEq1:  Iter= 12 NonCon=     1 RMS=7.02D-07 Max=2.21D-05 NDo=     1
 LinEq1:  Iter= 13 NonCon=     1 RMS=3.54D-07 Max=1.16D-05 NDo=     1
 LinEq1:  Iter= 14 NonCon=     1 RMS=1.12D-07 Max=2.48D-06 NDo=     1
 LinEq1:  Iter= 15 NonCon=     1 RMS=5.94D-08 Max=1.77D-06 NDo=     1
 LinEq1:  Iter= 16 NonCon=     1 RMS=2.51D-08 Max=7.30D-07 NDo=     1
 LinEq1:  Iter= 17 NonCon=     1 RMS=1.15D-08 Max=3.29D-07 NDo=     1
 LinEq1:  Iter= 18 NonCon=     1 RMS=5.04D-09 Max=1.16D-07 NDo=     1
 LinEq1:  Iter= 19 NonCon=     1 RMS=1.96D-09 Max=5.04D-08 NDo=     1
 LinEq1:  Iter= 20 NonCon=     1 RMS=9.92D-10 Max=2.73D-08 NDo=     1
 LinEq1:  Iter= 21 NonCon=     1 RMS=3.54D-10 Max=9.89D-09 NDo=     1
 LinEq1:  Iter= 22 NonCon=     1 RMS=1.49D-10 Max=4.30D-09 NDo=     1
 LinEq1:  Iter= 23 NonCon=     1 RMS=6.50D-11 Max=1.64D-09 NDo=     1
 LinEq1:  Iter= 24 NonCon=     0 RMS=1.81D-11 Max=4.58D-10 NDo=     1
 Linear equations converged to 1.000D-10 1.000D-09 after    24 iterations.
 End of Minotr F.D. properties file   721 does not exist.
 End of Minotr F.D. properties file   722 does not exist.
 End of Minotr F.D. properties file   788 does not exist.
 Leave Link 1002 at Tue Jul 14 11:05:23 2020, MaxMem=  7784628224 cpu:             742.4 elap:             100.4
 (Enter /gpfs/loomis/apps/avx/software/Gaussian/16-C.01_AVX/g16/l601.exe)
 Copying SCF densities to generalized density rwf, IOpCl= 0 IROHF=0.

 **********************************************************************

            Population analysis using the SCF Density.

 **********************************************************************

 Alpha  occ. eigenvalues --  -89.10836 -19.20367 -14.50563 -10.41990 -10.37868
 Alpha  occ. eigenvalues --  -10.36536 -10.35442 -10.33554 -10.33132 -10.32714
 Alpha  occ. eigenvalues --  -10.32530 -10.31345 -10.30607 -10.30574 -10.29153
 Alpha  occ. eigenvalues --  -10.28216  -8.12852  -6.07729  -6.07360  -6.06860
 Alpha  occ. eigenvalues --   -1.16446  -1.09378  -0.99966  -0.96667  -0.93686
 Alpha  occ. eigenvalues --   -0.89294  -0.87665  -0.83892  -0.81372  -0.79405
 Alpha  occ. eigenvalues --   -0.75688  -0.72353  -0.69704  -0.67767  -0.65802
 Alpha  occ. eigenvalues --   -0.60892  -0.59813  -0.57183  -0.56418  -0.56273
 Alpha  occ. eigenvalues --   -0.55142  -0.53706  -0.53160  -0.50521  -0.49511
 Alpha  occ. eigenvalues --   -0.48844  -0.48542  -0.47038  -0.45621  -0.44965
 Alpha  occ. eigenvalues --   -0.44087  -0.43059  -0.42674  -0.40077  -0.36845
 Alpha  occ. eigenvalues --   -0.33983  -0.31701  -0.31057  -0.25625
 Alpha virt. eigenvalues --   -0.01987   0.03466   0.05333   0.05996   0.09604
 Alpha virt. eigenvalues --    0.10676   0.13796   0.14648   0.16501   0.17358
 Alpha virt. eigenvalues --    0.18941   0.20044   0.21090   0.21334   0.23221
 Alpha virt. eigenvalues --    0.23609   0.24282   0.25894   0.28223   0.30060
 Alpha virt. eigenvalues --    0.30651   0.34111   0.35599   0.35821   0.36737
 Alpha virt. eigenvalues --    0.38058   0.39501   0.39863   0.41739   0.45161
 Alpha virt. eigenvalues --    0.46826   0.48919   0.50802   0.51246   0.51413
 Alpha virt. eigenvalues --    0.52705   0.52883   0.52942   0.53978   0.55556
 Alpha virt. eigenvalues --    0.56196   0.56449   0.56528   0.57237   0.57669
 Alpha virt. eigenvalues --    0.57869   0.59038   0.59390   0.59730   0.60817
 Alpha virt. eigenvalues --    0.61446   0.61639   0.62736   0.62796   0.63677
 Alpha virt. eigenvalues --    0.64628   0.66985   0.67045   0.68690   0.70042
 Alpha virt. eigenvalues --    0.70245   0.70740   0.71995   0.72272   0.73011
 Alpha virt. eigenvalues --    0.74403   0.75376   0.75966   0.77071   0.78675
 Alpha virt. eigenvalues --    0.78945   0.79727   0.81302   0.81560   0.83545
 Alpha virt. eigenvalues --    0.86207   0.88719   0.91241   0.91886   0.93157
 Alpha virt. eigenvalues --    0.94308   0.94539   0.96349   0.97621   0.98484
 Alpha virt. eigenvalues --    0.99612   1.00195   1.00615   1.00866   1.01171
 Alpha virt. eigenvalues --    1.02702   1.05197   1.06120   1.06338   1.07221
 Alpha virt. eigenvalues --    1.09131   1.09409   1.10197   1.11220   1.11403
 Alpha virt. eigenvalues --    1.12867   1.13069   1.13811   1.14276   1.15717
 Alpha virt. eigenvalues --    1.17467   1.18884   1.20245   1.23011   1.24245
 Alpha virt. eigenvalues --    1.26927   1.27242   1.31274   1.33831   1.33914
 Alpha virt. eigenvalues --    1.34514   1.36667   1.38139   1.41734   1.45078
 Alpha virt. eigenvalues --    1.49416   1.49527   1.53251   1.54766   1.55226
 Alpha virt. eigenvalues --    1.55897   1.57262   1.57401   1.57969   1.59999
 Alpha virt. eigenvalues --    1.60428   1.61835   1.63262   1.65407   1.67975
 Alpha virt. eigenvalues --    1.68790   1.70151   1.71341   1.71902   1.71933
 Alpha virt. eigenvalues --    1.72792   1.73756   1.73779   1.75033   1.76484
 Alpha virt. eigenvalues --    1.78098   1.79117   1.80565   1.81989   1.82395
 Alpha virt. eigenvalues --    1.84479   1.84849   1.85003   1.85448   1.86556
 Alpha virt. eigenvalues --    1.87212   1.90472   1.91479   1.92304   1.92535
 Alpha virt. eigenvalues --    1.94332   1.95351   1.95938   1.96557   1.98570
 Alpha virt. eigenvalues --    2.00785   2.01501   2.02867   2.05361   2.06808
 Alpha virt. eigenvalues --    2.07187   2.08383   2.09818   2.12031   2.14616
 Alpha virt. eigenvalues --    2.17831   2.23132   2.24549   2.24965   2.27275
 Alpha virt. eigenvalues --    2.28284   2.30461   2.35042   2.37001   2.39207
 Alpha virt. eigenvalues --    2.41344   2.43190   2.46585   2.48850   2.50581
 Alpha virt. eigenvalues --    2.52294   2.54924   2.62078   2.66939   2.69013
 Alpha virt. eigenvalues --    2.70708   2.73532   2.75348   2.79331   2.81682
 Alpha virt. eigenvalues --    2.81856   2.82366   2.82888   2.89550   2.94790
 Alpha virt. eigenvalues --    2.95859   3.09368   3.18558   3.34734   3.50729
 Alpha virt. eigenvalues --    3.53860   3.60221   3.69976   4.99193
          Condensed to atoms (all electrons):
               1          2          3          4          5          6
     1  C    4.742358   0.476548   0.016236  -0.054286  -0.010328   0.504718
     2  C    0.476548   5.407884   0.254225  -0.069435  -0.077842   0.000050
     3  C    0.016236   0.254225   4.920415   0.515072  -0.001550  -0.071583
     4  C   -0.054286  -0.069435   0.515072   4.817578   0.511664  -0.012876
     5  C   -0.010328  -0.077842  -0.001550   0.511664   4.732132   0.502317
     6  C    0.504718   0.000050  -0.071583  -0.012876   0.502317   4.734049
     7  H    0.404913  -0.040332   0.009532  -0.000605   0.008150  -0.038987
     8  H   -0.000579   0.010664  -0.024379   0.394562  -0.041218   0.007348
     9  H    0.008622  -0.000306   0.008168  -0.037985   0.405524  -0.043569
    10  H   -0.042882   0.009559  -0.000554   0.008630  -0.042345   0.407981
    11  N    0.003739  -0.044939   0.425462  -0.044762   0.002942   0.000311
    12  S   -0.068831   0.339744  -0.142496   0.002900   0.000036   0.004622
    13  C   -0.000252  -0.000630   0.014838   0.000027   0.000018  -0.000002
    14  C   -0.000008   0.000033   0.000401   0.000009  -0.000000  -0.000000
    15  C    0.000004  -0.000248   0.000569   0.000003  -0.000001   0.000000
    16  C    0.000000  -0.000003   0.000003  -0.000000   0.000000   0.000000
    17  H   -0.000006   0.000129  -0.000002   0.000000   0.000000   0.000000
    18  C    0.000000   0.000011  -0.000046  -0.000001  -0.000000  -0.000000
    19  C   -0.000000  -0.000000   0.000003  -0.000000  -0.000000   0.000000
    20  H   -0.000000  -0.000000  -0.000000   0.000000   0.000000  -0.000000
    21  H   -0.000000   0.000000  -0.000002  -0.000000  -0.000000   0.000000
    22  H    0.000000  -0.000000  -0.000000  -0.000000   0.000000  -0.000000
    23  C    0.003635  -0.059803  -0.086005   0.006678   0.000518  -0.000490
    24  O    0.000002  -0.000197  -0.001266   0.000118   0.000001  -0.000000
    25  H    0.000222   0.028483  -0.018681  -0.032668  -0.001017   0.000009
               7          8          9         10         11         12
     1  C    0.404913  -0.000579   0.008622  -0.042882   0.003739  -0.068831
     2  C   -0.040332   0.010664  -0.000306   0.009559  -0.044939   0.339744
     3  C    0.009532  -0.024379   0.008168  -0.000554   0.425462  -0.142496
     4  C   -0.000605   0.394562  -0.037985   0.008630  -0.044762   0.002900
     5  C    0.008150  -0.041218   0.405524  -0.042345   0.002942   0.000036
     6  C   -0.038987   0.007348  -0.043569   0.407981   0.000311   0.004622
     7  H    0.648838   0.000028  -0.000146  -0.011469  -0.000102  -0.007522
     8  H    0.000028   0.636991  -0.011736  -0.000113  -0.006542  -0.000254
     9  H   -0.000146  -0.011736   0.655002  -0.012208  -0.000088   0.000022
    10  H   -0.011469  -0.000113  -0.012208   0.655794   0.000006  -0.000137
    11  N   -0.000102  -0.006542  -0.000088   0.000006   5.619209  -0.041705
    12  S   -0.007522  -0.000254   0.000022  -0.000137  -0.041705  15.456281
    13  C    0.000004   0.000056  -0.000000  -0.000000  -0.016047  -0.075167
    14  C    0.000001   0.000001   0.000000  -0.000000   0.003922  -0.007459
    15  C   -0.000000  -0.000014   0.000000   0.000000  -0.008460   0.004309
    16  C    0.000000  -0.000000  -0.000000  -0.000000  -0.000079   0.000125
    17  H    0.000001   0.000000   0.000000  -0.000000   0.000263   0.006916
    18  C    0.000000  -0.000000   0.000000  -0.000000  -0.000674  -0.000109
    19  C   -0.000000   0.000000  -0.000000   0.000000   0.000016   0.000013
    20  H    0.000000  -0.000000   0.000000   0.000000   0.000001   0.000002
    21  H   -0.000000   0.000000  -0.000000   0.000000  -0.000001   0.000003
    22  H    0.000000  -0.000000  -0.000000  -0.000000  -0.000000  -0.000000
    23  C    0.000249  -0.000634   0.000006   0.000004   0.488703   0.297811
    24  O    0.000000  -0.000159   0.000000  -0.000000  -0.012808   0.000022
    25  H    0.000011   0.000941  -0.000020   0.000000   0.324925   0.012317
              13         14         15         16         17         18
     1  C   -0.000252  -0.000008   0.000004   0.000000  -0.000006   0.000000
     2  C   -0.000630   0.000033  -0.000248  -0.000003   0.000129   0.000011
     3  C    0.014838   0.000401   0.000569   0.000003  -0.000002  -0.000046
     4  C    0.000027   0.000009   0.000003  -0.000000   0.000000  -0.000001
     5  C    0.000018  -0.000000  -0.000001   0.000000   0.000000  -0.000000
     6  C   -0.000002  -0.000000   0.000000   0.000000   0.000000  -0.000000
     7  H    0.000004   0.000001  -0.000000   0.000000   0.000001   0.000000
     8  H    0.000056   0.000001  -0.000014  -0.000000   0.000000  -0.000000
     9  H   -0.000000   0.000000   0.000000  -0.000000   0.000000   0.000000
    10  H   -0.000000  -0.000000   0.000000  -0.000000  -0.000000  -0.000000
    11  N   -0.016047   0.003922  -0.008460  -0.000079   0.000263  -0.000674
    12  S   -0.075167  -0.007459   0.004309   0.000125   0.006916  -0.000109
    13  C    5.540376   0.419379   0.154544  -0.003199  -0.043579  -0.041492
    14  C    0.419379   4.877538   0.012999   0.537201   0.400475  -0.067481
    15  C    0.154544   0.012999   4.719437  -0.055199   0.006004   0.440670
    16  C   -0.003199   0.537201  -0.055199   4.769541  -0.031472  -0.015519
    17  H   -0.043579   0.400475   0.006004  -0.031472   0.681277  -0.001068
    18  C   -0.041492  -0.067481   0.440670  -0.015519  -0.001068   4.954205
    19  C   -0.053435  -0.016355  -0.000272   0.472351   0.008467   0.485471
    20  H    0.009258  -0.036897  -0.000150   0.399913  -0.012030   0.008446
    21  H    0.016184  -0.000578  -0.024676   0.007742   0.000057   0.370403
    22  H   -0.001790   0.009825   0.008433  -0.046886  -0.000207  -0.039167
    23  C    0.338697  -0.102192  -0.069217   0.006335  -0.021124   0.012878
    24  O   -0.106147   0.006510   0.705579  -0.000237  -0.000077  -0.071438
    25  H   -0.064825  -0.000938  -0.003806   0.000072  -0.000105   0.003696
              19         20         21         22         23         24
     1  C   -0.000000  -0.000000  -0.000000   0.000000   0.003635   0.000002
     2  C   -0.000000  -0.000000   0.000000  -0.000000  -0.059803  -0.000197
     3  C    0.000003  -0.000000  -0.000002  -0.000000  -0.086005  -0.001266
     4  C   -0.000000   0.000000  -0.000000  -0.000000   0.006678   0.000118
     5  C   -0.000000   0.000000  -0.000000   0.000000   0.000518   0.000001
     6  C    0.000000  -0.000000   0.000000  -0.000000  -0.000490  -0.000000
     7  H   -0.000000   0.000000  -0.000000   0.000000   0.000249   0.000000
     8  H    0.000000  -0.000000   0.000000  -0.000000  -0.000634  -0.000159
     9  H   -0.000000   0.000000  -0.000000  -0.000000   0.000006   0.000000
    10  H    0.000000   0.000000   0.000000  -0.000000   0.000004  -0.000000
    11  N    0.000016   0.000001  -0.000001  -0.000000   0.488703  -0.012808
    12  S    0.000013   0.000002   0.000003  -0.000000   0.297811   0.000022
    13  C   -0.053435   0.009258   0.016184  -0.001790   0.338697  -0.106147
    14  C   -0.016355  -0.036897  -0.000578   0.009825  -0.102192   0.006510
    15  C   -0.000272  -0.000150  -0.024676   0.008433  -0.069217   0.705579
    16  C    0.472351   0.399913   0.007742  -0.046886   0.006335  -0.000237
    17  H    0.008467  -0.012030   0.000057  -0.000207  -0.021124  -0.000077
    18  C    0.485471   0.008446   0.370403  -0.039167   0.012878  -0.071438
    19  C    4.755477  -0.047361  -0.047637   0.402664   0.000049   0.005036
    20  H   -0.047361   0.691346  -0.000170  -0.012788  -0.000402   0.000000
    21  H   -0.047637  -0.000170   0.687003  -0.013025  -0.000510   0.005776
    22  H    0.402664  -0.012788  -0.013025   0.680066   0.000012  -0.000079
    23  C    0.000049  -0.000402  -0.000510   0.000012   5.159987  -0.017645
    24  O    0.005036   0.000000   0.005776  -0.000079  -0.017645   7.802368
    25  H   -0.000312  -0.000000  -0.000002   0.000004   0.015761   0.063358
              25
     1  C    0.000222
     2  C    0.028483
     3  C   -0.018681
     4  C   -0.032668
     5  C   -0.001017
     6  C    0.000009
     7  H    0.000011
     8  H    0.000941
     9  H   -0.000020
    10  H    0.000000
    11  N    0.324925
    12  S    0.012317
    13  C   -0.064825
    14  C   -0.000938
    15  C   -0.003806
    16  C    0.000072
    17  H   -0.000105
    18  C    0.003696
    19  C   -0.000312
    20  H   -0.000000
    21  H   -0.000002
    22  H    0.000004
    23  C    0.015761
    24  O    0.063358
    25  H    0.903370
 Mulliken charges:
               1
     1  C    0.016174
     2  C   -0.233594
     3  C    0.181640
     4  C   -0.004622
     5  C    0.010999
     6  C    0.006101
     7  H    0.027437
     8  H    0.035039
     9  H    0.028715
    10  H    0.027735
    11  N    0.306708
    12  S    0.218556
    13  C   -0.086813
    14  C   -0.036385
    15  C    0.109492
    16  C   -0.040690
    17  H    0.006081
    18  C   -0.038786
[...]
 0000216,0.08909291,0.63067397,-0.00000002,-0.00000018,-0.00006609,-0.0
 0000063,-0.00000021,-0.00005516,-0.00000065,0.00000095,-0.00059897,0.0
 0000059,-0.00000010,-0.00023890,-0.00000003,0.00000039,0.00000431,-0.0
 0000015,-0.00000016,0.00002836,0.,0.,-0.00004361,0.,0.,-0.00002027,0.,
 0.,0.00002284,0.,0.,0.00003390,0.00000026,-0.00000117,0.00197747,0.000
 00034,-0.00000010,-0.00069152,0.00000190,0.00000272,0.00181622,-0.0000
 0027,-0.00000794,-0.05486566,0.00000178,-0.00000126,-0.00550136,0.0000
 0849,0.00002911,0.12235960,0.00019949,0.00006058,0.,-0.00053249,0.0002
 6090,0.00000006,0.00034811,-0.00017101,-0.00000007,-0.00007745,0.00010
 072,0.,0.00005599,-0.00007522,0.,0.00003092,-0.00003384,0.,-0.00001766
 ,-0.00000674,0.,0.00003146,0.00000363,0.,0.00001111,-0.00000443,0.,0.0
 0003233,-0.00000596,0.,0.00064205,0.00049542,0.00000010,-0.00130159,0.
 00147173,-0.00000025,-0.00531367,-0.03054465,-0.00000224,-0.09156836,-
 0.09155659,-0.00000641,-0.00409728,0.00379246,-0.00000031,0.01057731,0
 .02042409,0.00000140,0.09476189,0.00002920,-0.00002461,-0.00000002,-0.
 00020316,0.00053403,-0.00000011,0.00027887,0.00003700,-0.00000008,-0.0
 0002282,0.00004297,0.,0.00001760,0.00004086,0.,-0.00008474,-0.00000515
 ,0.00000001,-0.00000795,0.00001245,0.,0.00001705,-0.00000375,0.,-0.000
 00290,0.00000110,0.,-0.00000208,0.00000287,0.,0.00006257,0.00015420,0.
 00000019,0.00004130,-0.00081572,0.00000035,0.00062114,-0.00244131,-0.0
 0000059,-0.09029786,-0.30475310,-0.00001936,0.00018444,0.00241326,-0.0
 0000059,-0.01163568,-0.01667994,-0.00000151,0.09666026,0.32325538,0.,0
 .00000014,0.00003742,0.00000038,0.00000017,-0.00031246,0.00000050,-0.0
 0000058,0.00080991,-0.00000036,0.00000007,0.00008603,0.00000002,-0.000
 00025,-0.00001944,0.00000012,0.00000009,-0.00001256,0.,0.,0.00003664,0
 .00000001,0.,0.00003080,0.,0.,-0.00000787,0.,0.,-0.00001552,0.00000019
 ,0.00000131,-0.00154212,-0.00000054,0.00000025,0.00130554,0.00000112,-
 0.00000301,0.00881990,-0.00000715,-0.00001876,-0.03662118,-0.00000075,
 0.00000107,0.01001428,-0.00000056,-0.00000115,0.00385053,0.00000737,0.
 00002127,0.02071424,-0.00149629,0.00034202,0.00000029,-0.00442737,-0.0
 0368427,0.00000031,-0.00485177,0.01086995,-0.00000067,0.00493479,-0.00
 054496,-0.00000005,-0.00024946,0.00164949,-0.00000003,0.00120862,-0.00
 116809,-0.00000003,-0.00011460,0.00008591,0.00000001,0.00006514,0.0000
 0212,0.,0.00012094,0.00000134,0.,0.00009299,-0.00006866,-0.00000007,0.
 01016079,-0.00170667,0.00000146,0.00091894,-0.00289414,0.00000030,0.02
 591700,0.01070057,0.00000109,-0.03849655,0.01980775,0.00000090,-0.1207
 4957,0.05716946,0.00000583,-0.01187869,-0.08691205,-0.00000523,-0.0005
 7261,0.00040852,0.00000048,0.63599961,0.00069599,-0.00003413,-0.000000
 04,0.00020552,0.00006638,0.00000002,0.00090821,-0.00157616,0.00000021,
 -0.00101249,0.00010562,0.,0.00013335,-0.00030089,0.,-0.00036445,0.0001
 3320,0.,0.00000651,0.00000570,0.,-0.00001120,-0.00000744,0.,-0.0000218
 9,-0.00000229,0.,0.00001127,0.00001311,0.,-0.00057559,0.00050006,-0.00
 000043,0.00130173,-0.00061283,0.00000002,0.01181572,-0.02890744,-0.000
 00089,0.00896338,-0.00449825,-0.00000037,0.05923601,-0.21698462,-0.000
 00849,-0.03713049,-0.00085108,-0.00000037,-0.00024529,0.00077367,-0.00
 000021,0.06407074,0.67570018,0.00000019,0.00000004,0.00020425,0.000000
 25,0.00000035,0.00062569,0.00000084,-0.00000094,0.00153206,-0.00000041
 ,0.00000003,-0.00014848,0.00000006,-0.00000015,-0.00007049,-0.00000008
 ,0.00000012,-0.00012969,0.,0.,0.00013266,0.00000002,0.,0.00009681,-0.0
 0000001,0.,0.00000060,0.,0.,-0.00007846,-0.00000093,0.00000195,-0.0022
 8808,-0.00000006,-0.00000023,0.00145230,0.00000073,-0.00000280,0.01466
 937,-0.00000094,0.00000146,-0.00578395,0.00000581,-0.00000856,-0.06711
 656,-0.00000177,-0.00000142,0.00815067,0.00000017,0.00000023,-0.002604
 12,0.00000363,0.00003554,0.10897885,0.00145708,0.00028611,-0.00000023,
 0.00548237,0.00355945,-0.00000049,0.00648774,-0.01255733,0.00000018,-0
 .00615342,0.00070402,0.00000010,0.00032270,-0.00268871,0.00000009,-0.0
 0051012,0.00154949,0.00000003,0.00008318,-0.00007780,-0.00000005,-0.00
 000979,0.00001853,-0.00000005,-0.00010206,-0.00002009,0.,-0.00004907,0
 .00006809,0.00000007,-0.01076128,0.00678260,-0.00000050,-0.00027342,0.
 00121492,-0.00000036,-0.01479981,-0.01219581,-0.00000154,0.05661935,0.
 00413515,0.00000059,-0.05592706,0.02054008,-0.00000105,-0.14717151,-0.
 02130923,-0.00000126,-0.00296245,0.00450025,0.00000006,-0.30451607,-0.
 06403266,-0.00000302,0.64974405,0.00019375,0.00092016,-0.00000011,0.00
 307666,0.00123069,-0.00000007,0.00317949,-0.00496942,0.00000040,-0.003
 37624,0.00054549,0.00000005,0.00012425,-0.00225657,0.00000004,0.000813
 69,0.00086404,-0.00000002,0.00000072,-0.00004265,0.,0.00000610,0.00000
 532,0.,-0.00000496,-0.00005088,0.,0.00001878,0.00003705,0.00000002,-0.
 00054471,0.00382954,-0.00000070,-0.00162618,0.00034097,0.00000012,-0.0
 3219947,-0.00513413,0.00000015,0.05556693,-0.05537253,-0.00000304,-0.0
 0741005,0.02612107,-0.00000086,-0.11401129,-0.33356572,-0.00001554,0.0
 0339271,-0.00170594,-0.00000070,0.00816876,-0.12761067,-0.00000487,-0.
 05450194,0.72161716,-0.00000002,0.00000003,0.00013062,0.00000013,-0.00
 000005,-0.00034155,-0.00000010,-0.00000006,-0.00101670,-0.00000009,0.0
 0000001,0.00007423,-0.00000002,-0.00000007,0.00009102,0.00000005,0.,0.
 00001594,0.,0.,-0.00005729,0.,0.,-0.00011160,0.,0.,0.00000239,0.,0.,0.
 00000759,0.00000015,-0.00000042,0.00055154,-0.00000003,0.00000014,0.00
 037911,-0.00000231,-0.00000054,-0.00152811,0.00000380,-0.00000346,0.00
 787847,0.00000054,0.00000296,0.00078617,-0.00000704,-0.00001599,-0.056
 90187,0.00000008,-0.00000033,0.00359009,0.00000003,-0.00000510,-0.0506
 7325,-0.00000265,0.00003546,0.11588230,0.00007304,-0.00010872,0.,-0.00
 010885,0.00013042,0.,-0.00002860,-0.00007532,0.,0.00002627,0.00000931,
 0.,0.00000460,0.00010902,0.,-0.00015595,-0.00000865,0.,0.00000639,0.00
 000619,0.,0.00000172,-0.00000361,0.,-0.00001035,0.00000765,0.,-0.00000
 926,0.00000416,0.,-0.00019826,0.00036986,0.,0.00004229,0.00000967,0.,0
 .00001425,0.00333470,0.00000024,-0.01455784,-0.00789185,-0.00000063,0.
 00056404,0.00042237,0.00000004,-0.33269181,-0.06475561,-0.00000566,0.0
 0068532,0.00010501,0.,0.00142211,-0.00161458,-0.00000017,-0.00438955,0
 .00238724,0.00000007,0.34965891,0.00000479,0.00000585,0.,-0.00004378,-
 0.00008067,0.,0.00002769,0.00017946,-0.00000004,0.00004248,-0.00005081
 ,0.,0.00001251,0.00003094,0.,-0.00000187,-0.00002457,0.,-0.00000025,-0
 .00000214,0.,0.00000051,0.00000127,0.,0.00000342,-0.00000372,0.,0.0000
 0247,-0.00000165,0.,0.00036771,-0.00041975,0.,0.00001237,0.00003304,0.
 ,0.00298781,-0.00397799,-0.00000048,0.02284987,0.00784920,0.00000045,0
 .00057390,-0.00087824,0.00000009,-0.06405250,-0.07376316,-0.00000288,-
 0.00033998,0.00084173,0.00000018,-0.00088305,-0.00527540,-0.00000074,-
 0.02916474,0.00058746,-0.00000042,0.06848072,0.07287250,0.,0.,-0.00000
 553,-0.00000003,0.,0.00008321,0.00000003,0.00000004,0.00044852,0.00000
 002,0.,0.00005442,0.,0.00000002,-0.00005725,0.,0.,0.00000366,0.,0.,0.0
 0001353,0.,0.,0.00003532,0.,0.,-0.00001600,0.,0.,-0.00000770,-0.000000
 04,0.00000002,0.00020813,0.,0.,-0.00017907,-0.00000022,-0.00000017,0.0
 0382644,0.00000111,-0.00000005,0.00443462,0.00000003,-0.00000028,-0.00
 154142,-0.00000553,-0.00000290,-0.03401621,0.,0.00000023,-0.00203760,0
 .00000009,-0.00000045,0.00680266,-0.00000157,-0.00000041,0.00630792,0.
 00000609,0.00000338,0.02146154,-0.00012389,0.00003423,0.,0.00011622,0.
 00005236,0.,-0.00010143,0.00007277,0.,0.00003963,0.00001160,0.,-0.0000
 2152,-0.00004273,0.,0.00009276,0.00001582,0.,-0.00000047,-0.00000443,0
 .,-0.00000526,-0.00000006,0.,0.00000303,-0.00000112,0.,-0.00000306,-0.
 00000156,0.,0.00023993,-0.00014562,0.,-0.00031191,0.00015237,0.0000000
 1,-0.00345312,0.00314464,0.00000010,-0.00011043,0.00032832,0.,0.009867
 19,0.02074892,0.00000155,-0.00603812,0.00027274,0.,0.00009052,-0.00009
 351,0.,-0.08645846,-0.08882303,-0.00000607,-0.00342786,-0.02904520,-0.
 00000194,-0.00037684,-0.00146190,-0.00000007,0.08654569,0.00003292,0.0
 0006163,0.00000003,-0.00010193,-0.00015065,0.00000004,0.00003713,0.000
 05834,0.00000005,-0.00000141,0.00000029,0.,0.00000690,-0.00004534,0.,0
 .00006640,-0.00001725,0.,-0.00000661,0.00000152,0.,0.00000597,0.000003
 69,0.,0.00000810,-0.00000421,0.,0.00001181,-0.00000278,0.,-0.00011498,
 0.00004256,-0.00000008,0.00030947,-0.00017234,0.00000008,0.00390318,-0
 .00236228,-0.00000018,0.00053834,0.00032740,0.,-0.01367973,-0.01692683
 ,-0.00000148,-0.00064404,0.00148509,-0.00000024,-0.00007966,-0.0000732
 9,-0.00000012,-0.08819218,-0.31519462,-0.00001938,0.00253832,-0.000556
 39,-0.00000050,0.00006451,-0.00015835,0.00000007,0.09601879,0.33111199
 ,0.,-0.00000009,-0.00034819,-0.00000029,-0.00000010,-0.00040409,-0.000
 00032,0.00000043,-0.00024684,0.00000025,-0.00000004,0.00002818,-0.0000
 0001,0.00000016,-0.00003598,-0.00000006,-0.00000007,0.00009266,0.,0.,-
 0.00004857,0.,0.,0.00001756,0.,0.,-0.00000366,0.,0.,0.00007872,0.00000
 009,-0.00000072,0.00063254,0.00000017,0.00000006,-0.00088972,0.0000002
 5,0.00000044,0.00199862,0.00000044,-0.00000061,0.00020023,-0.00000239,
 -0.00000228,0.00395962,-0.00000009,-0.00000029,0.00507402,-0.00000008,
 -0.00000005,0.00051629,-0.00000581,-0.00001986,-0.03061847,0.00000055,
 0.00000053,0.00419759,0.,0.00000001,-0.00038816,0.00000662,0.00002149,
 0.02020456,0.00004596,-0.00002802,0.,0.00000024,0.00010787,-0.00000002
 ,0.00014523,-0.00011244,-0.00000005,-0.00006725,0.00000463,0.,0.000012
 71,0.00000927,0.,-0.00006292,0.00001042,0.,0.00000224,0.00000290,0.,0.
 00000628,-0.00000282,0.,-0.00000604,0.00000198,0.,-0.00000394,0.000003
 63,0.,0.00009471,0.00028131,0.00000006,-0.00007825,0.00006554,-0.00000
 004,-0.00040615,-0.00046736,-0.00000017,0.00066436,-0.00240445,-0.0000
 0009,-0.00247472,-0.00429902,-0.00000014,0.00953141,-0.00936032,-0.000
 00055,0.00036817,-0.00041017,0.00000005,-0.01355705,0.02459483,0.00000
 139,-0.18524492,0.14380658,0.00000809,0.00068368,0.00036217,0.00000003
 ,0.00106748,-0.00032219,-0.00000005,0.19131180,-0.00000209,0.00006672,
 0.,0.00014091,0.00007378,-0.00000003,0.00017512,-0.00027785,-0.0000000
 3,-0.00015486,0.00002975,0.,0.00000376,-0.00012838,0.,0.00007817,0.000
 04186,0.,-0.00000412,-0.00000473,0.,0.00000202,0.00000335,0.,0.0000047
 2,-0.00000376,0.,0.00000592,-0.00000179,0.,-0.00021533,0.00007711,0.00
 000003,-0.00008788,0.00001236,0.,-0.00056579,0.00030790,-0.00000004,-0
 .00304117,-0.00401700,-0.00000060,-0.00232793,0.00005093,-0.00000028,0
 .02242698,-0.01560333,-0.00000104,0.00102244,-0.00106738,-0.00000008,-
 0.00651003,0.00786667,0.00000034,0.14196693,-0.21895763,-0.00001070,-0
 .00016240,0.00101548,0.00000037,0.00032515,0.00062869,0.00000018,-0.15
 300989,0.22912102,-0.00000003,0.00000006,0.00000968,0.00000014,0.00000
 002,0.00009468,0.00000013,-0.00000016,0.00019546,-0.00000012,0.0000000
 3,0.00000771,0.,-0.00000011,-0.00000391,0.00000007,0.00000004,-0.00000
 976,0.,0.,0.00001180,0.,0.,0.00001531,0.,0.,-0.00000077,0.,0.,-0.00001
 089,0.00000009,0.00000026,-0.00020581,-0.00000010,-0.00000006,-0.00003
 547,0.00000025,-0.00000018,-0.00058922,-0.00000018,-0.00000041,0.00636
 041,-0.00000053,-0.00000056,0.00627423,0.00000142,-0.00000082,0.003696
 64,0.00000005,-0.00000007,0.00038291,0.00000028,0.00000035,0.00311599,
 0.00000736,-0.00001104,-0.03392076,0.00000005,0.00000033,-0.00432152,0
 .00000003,0.00000028,-0.00325188,-0.00000869,0.00001171,0.02353882,-0.
 00232920,-0.00697603,0.00000004,-0.00227692,0.02152609,-0.00000004,-0.
 05280257,0.03119024,-0.00000125,0.00558846,-0.00284165,0.00000006,-0.0
 0095163,0.00457853,-0.00000002,-0.00539213,-0.00183547,0.00000004,0.00
 025163,-0.00073766,0.00000003,-0.00071274,-0.00006278,-0.00000005,0.00
 020788,-0.00013042,0.,-0.00066394,-0.00018271,0.00000006,-0.35143153,-
 0.03083392,0.00000394,-0.04989311,-0.05007827,0.00000269,-0.15048489,0
 .06156578,0.00000575,-0.04174290,0.03183517,0.00000145,0.04444251,0.01
 287866,-0.00000038,-0.00400691,-0.00992436,0.00000039,0.00027943,0.000
 70299,-0.00000127,-0.00585086,-0.00243028,-0.00000074,-0.00058375,0.00
 421880,0.00000066,-0.00051648,0.00068614,0.00000006,0.00064369,-0.0010
 5160,0.00000028,0.00009224,-0.00006701,-0.00000038,0.64361984,-0.00033
 857,-0.00055053,0.00000004,0.02131375,-0.01835869,0.00000113,0.0176433
 6,0.01203796,-0.00000107,0.00134406,-0.00633967,0.00000050,-0.00035813
 ,-0.00085674,0.00000011,0.00127654,-0.00085233,-0.00000005,0.00010864,
 -0.00043388,0.00000005,-0.00042667,0.00009971,-0.00000004,0.00026077,-
 0.00049082,-0.00000003,-0.00021908,0.00005454,-0.00000002,-0.02362228,
 -0.12567688,0.00000293,-0.01204590,-0.18046321,0.00000790,0.04417393,-
 0.16911293,-0.00000527,0.02377901,0.01032215,0.00000055,0.01790699,-0.
 04658600,-0.00000223,-0.00426530,0.00214604,-0.00000112,-0.00167415,0.
 00012261,0.00000137,-0.01272631,-0.00363015,-0.00000002,0.00750056,-0.
 00065209,-0.00000007,-0.00071947,0.00093759,-0.00000006,0.00081015,-0.
 00064849,-0.00000051,-0.00000696,0.00035753,0.00000036,-0.06345114,0.5
 1409155,0.00000027,0.00000003,0.00075532,-0.00000138,0.,-0.00111527,-0
 .00000043,0.00000045,0.00438036,0.00000024,0.00000015,0.00133262,0.000
 00007,0.00000017,0.00120879,-0.00000007,-0.00000003,0.00072153,0.,0.00
 000002,-0.00033212,0.00000002,-0.00000002,-0.00057155,0.,0.,-0.0004067
 1,0.00000003,0.,-0.00020520,0.00000627,0.00000294,-0.02094069,0.000002
 09,0.00000561,-0.01646449,-0.00000183,-0.00000083,-0.03255865,0.000000
 88,0.00000254,0.00724180,0.00000280,-0.00000378,0.00351099,0.00000022,
 -0.00000220,0.00518074,0.00000009,0.00000025,-0.00399234,-0.00000306,-
 0.00000002,-0.00084813,0.00000272,0.00000018,-0.00038379,-0.00000001,0
 .00000011,-0.00105374,0.00000003,-0.00000022,0.00241806,0.00000008,0.0
 0000013,-0.00061382,-0.00001049,-0.00000556,0.06172990,-0.00058874,0.0
 0132716,0.00000021,-0.00058243,0.00000636,-0.00000023,0.00460332,0.001
 28936,-0.00000083,-0.00018291,-0.00000488,0.00000006,0.00003987,-0.001
 03108,0.00000009,0.00167316,0.00012976,-0.00000001,-0.00014208,0.00012
 127,-0.00000004,0.00027451,0.00009244,-0.00000007,0.00007199,-0.000010
 97,0.,0.00010617,-0.00001053,-0.00000004,0.00332303,0.01843891,0.00000
 267,0.00001942,-0.00173031,-0.00000024,-0.03739042,-0.05554482,-0.0000
 0253,0.00284823,-0.00498753,-0.00000016,-0.55485103,-0.08560171,-0.000
 00567,-0.00939482,-0.00944104,-0.00000057,-0.00184701,-0.00096839,0.00
 000009,-0.08921989,0.02430830,0.00000077,0.01724565,0.01774248,0.00000
 074,-0.00019936,-0.00047478,-0.00000002,0.00176669,0.00066494,0.000000
 55,-0.00226938,0.00004234,0.00000010,-0.02112796,0.00792616,-0.0000000
 5,0.68172377,-0.00027503,-0.00017447,-0.00000004,0.00069575,-0.0014348
 7,0.00000027,-0.00401812,-0.00097019,0.00000030,0.00025667,-0.00028809
 ,0.,0.00001210,0.00030218,-0.00000001,-0.00000559,-0.00030984,0.,0.000
 03380,-0.00014327,0.00000002,0.00006965,0.00003284,0.,0.00006939,-0.00
 005579,0.,0.00001451,-0.00002762,0.,0.01217594,-0.01679334,-0.00000191
 ,0.00019237,0.00158413,-0.00000017,-0.05204966,-0.01453341,0.00000032,
 -0.00035805,-0.01098276,-0.00000144,-0.08344163,-0.09846514,-0.0000011
 7,0.00051083,-0.00137485,0.00000017,-0.00258213,-0.00050604,-0.0000005
 5,0.03355196,0.02077738,-0.00000070,0.00189881,-0.00312140,-0.00000094
 ,-0.00011411,0.00034459,0.00000021,-0.00242861,0.00260574,0.00000105,0
 .00143974,0.00041567,0.00000014,0.00153145,0.00853671,0.00000099,0.093
 62897,0.12865017,-0.00000013,0.00000002,0.00022564,0.00000029,-0.00000
 030,-0.00021915,-0.00000056,-0.00000004,-0.00019979,-0.00000002,0.0000
 0001,0.00007468,-0.00000003,-0.00000007,0.00017931,0.00000011,-0.00000
 003,0.00002725,0.,-0.00000002,-0.00007921,0.,0.,-0.00019812,0.,0.,-0.0
 0001493,0.,0.,-0.00006306,0.00000145,-0.00000182,0.00618202,-0.0000000
 7,0.00000037,-0.00061839,-0.00000103,-0.00000257,0.01974772,-0.0000007
 9,-0.00000009,0.00237678,-0.00000557,-0.00000061,-0.05477764,0.0000001
 7,-0.00000086,0.00028903,0.00000003,0.00000015,-0.00233416,0.00000045,
 0.00000024,0.01545661,0.00000068,0.00000043,0.00443595,0.,0.,0.0000646
 3,-0.00000027,0.00000020,-0.00359874,0.00000007,0.00000002,-0.00057832
 ,0.00000032,0.00000135,-0.00348459,0.00000424,0.00000739,0.01999294,0.
 00144747,0.00035899,0.,-0.00244888,0.00607574,-0.00000027,0.01593555,0
 .02321540,-0.00000140,0.00108321,0.00153802,0.00000027,-0.00034820,-0.
 00032665,0.00000001,-0.00045475,0.00001717,0.,-0.00018081,0.00031430,0
 .,-0.00197618,-0.00078460,-0.00000015,0.00000166,-0.00001266,0.,-0.000
 06463,-0.00008716,0.00000001,-0.19424959,-0.22641636,0.00001444,-0.003
 92531,-0.00100725,0.00000010,0.00185027,0.00029368,-0.00000053,0.00008
 077,-0.00015339,0.00000006,-0.00719842,-0.00044031,0.00000010,0.000191
 22,0.00035718,-0.00000012,0.00017647,0.00010008,0.00000021,0.00159831,
 0.00001040,0.00000034,-0.00055997,0.00002311,-0.00000012,0.00006055,0.
 00000827,0.00000003,-0.00004044,-0.00001246,-0.00000010,0.00014412,-0.
 00004594,0.00000003,-0.00435815,-0.02418997,0.00000154,0.00410022,-0.0
 0080899,0.00000066,0.18913552,-0.00056239,-0.00063990,0.00000009,0.003
 00810,-0.00184194,0.00000032,-0.00860570,-0.03035571,0.00000203,-0.001
 81917,0.00237396,0.00000020,-0.00034163,-0.00105890,-0.00000004,-0.000
 10290,0.00071690,-0.00000002,0.00019942,-0.00013427,0.,0.00077586,-0.0
 0018945,-0.00000006,-0.00013853,0.00016328,0.,0.00000300,0.00006350,-0
 .00000001,-0.21514376,-0.39093197,0.00002625,0.00270124,0.00472350,-0.
 00000032,-0.00335680,0.00165865,0.00000084,0.00261784,-0.00108107,-0.0
 0000026,0.00965625,0.00289901,0.00000025,-0.00202892,0.00252363,0.0000
 0047,-0.00036531,-0.00015589,-0.00000051,-0.00153819,-0.00045599,-0.00
 000028,-0.00071501,-0.00210294,0.00000005,0.00001350,-0.00006266,-0.00
 000002,0.00005988,-0.00001413,0.00000024,-0.00026722,-0.00000697,-0.00
 000016,-0.00011055,0.00594601,-0.00000091,-0.00591241,-0.01406830,-0.0
 0000375,0.22197341,0.42203165,0.00000010,0.00000010,0.00055647,0.00000
 006,0.00000043,0.00349166,0.00000136,0.00000068,0.00498541,0.,0.000000
 26,-0.00155890,0.00000006,-0.00000017,-0.00062378,0.00000004,0.0000000
 7,-0.00001191,-0.00000003,0.00000001,-0.00006629,-0.00000010,-0.000000
 15,0.00025283,0.,0.,0.00010870,0.,0.,-0.00001066,0.00001430,0.00002762
 ,-0.00576211,-0.00000034,-0.00000011,0.00404249,0.00000024,-0.00000068
 ,0.00018589,-0.00000100,0.00000064,-0.00048964,0.00000014,0.00000075,0
 .00041743,0.00000034,-0.00000069,0.00051530,0.00000003,0.00000005,-0.0
 0069521,-0.00000023,-0.00000018,-0.00085885,0.00000035,-0.00000003,0.0
 0060400,-0.00000002,0.,-0.00012038,0.00000001,-0.00000005,0.00041566,0
 .,0.00000004,-0.00016151,-0.00000115,-0.00000023,-0.00550900,0.0000009
 6,-0.00000395,-0.00288648,-0.00001513,-0.00002439,0.00317888\\0.001762
 66,0.00564490,-0.00000023,0.00803059,0.01108253,-0.00000049,0.01403873
 ,0.00006146,0.00000016,-0.00141796,0.00262950,0.00000014,-0.00034953,-
 0.00385941,0.00000012,0.00225476,0.00222536,-0.00000016,-0.00007214,0.
 00077026,-0.00000018,0.00041599,0.00004632,0.00000005,0.00004637,0.000
 21217,0.,0.00018952,0.00024628,-0.00000007,-0.02035572,0.01336578,0.00
 000154,0.00477743,0.01264809,-0.00000059,-0.01195065,0.00767774,0.0000
 0261,0.01178143,-0.00129202,0.00000023,0.02080311,0.00409398,-0.000002
 45,-0.00445600,0.01105154,0.,0.00028349,-0.00005101,0.00000016,-0.0051
 1811,0.00031830,0.00000060,-0.00765575,-0.00150828,0.00000010,-0.00022
 391,-0.00007268,-0.00000004,-0.00051781,0.00000190,-0.00000006,-0.0007
 9245,-0.00023238,0.00000006,-0.01256902,-0.00838071,-0.00000213,-0.011
 21940,-0.01629509,0.00000020,0.01231436,-0.04038451,0.00000039\\\@
 The archive entry for this job was punched.


 YOU ARE IN A MAZE OF TWISTY LITTLE PASSAGES.
 Job cpu time:       0 days  2 hours 48 minutes  5.6 seconds.
 Elapsed time:       0 days  0 hours 17 minutes 18.0 seconds.
 File lengths (MBytes):  RWF=   1392 Int=      0 D2E=      0 Chk=     48 Scr=      8
 Normal termination of Gaussian 16 at Tue Jul 14 12:01:13 2020.
