 Entering Gaussian System, Link 0=g16
 Initial command:
 /gpfs/loomis/apps/avx/software/Gaussian/16-C.01_AVX/g16/l1.exe "/home/fas/batista/pev4/scratch60/gauss-scratch/Gau-175046.inp" -scrdir="/home/fas/batista/pev4/scratch60/gauss-scratch/"
 Entering Link 1 = /gpfs/loomis/apps/avx/software/Gaussian/16-C.01_AVX/g16/l1.exe PID=    175047.
  
 Copyright (c) 1988-2019, Gaussian, Inc.  All Rights Reserved.
  
 This is part of the Gaussian(R) 16 program.  It is based on
 the Gaussian(R) 09 system (copyright 2009, Gaussian, Inc.),
 the Gaussian(R) 03 system (copyright 2003, Gaussian, Inc.),
 the Gaussian(R) 98 system (copyright 1998, Gaussian, Inc.),
 the Gaussian(R) 94 system (copyright 1995, Gaussian, Inc.),
 the Gaussian 92(TM) system (copyright 1992, Gaussian, Inc.),
 the Gaussian 90(TM) system (copyright 1990, Gaussian, Inc.),
 the Gaussian 88(TM) system (copyright 1988, Gaussian, Inc.),
 the Gaussian 86(TM) system (copyright 1986, Carnegie Mellon
 University), and the Gaussian 82(TM) system (copyright 1983,
 Carnegie Mellon University). Gaussian is a federally registered
 trademark of Gaussian, Inc.
  
 This software contains proprietary and confidential information,
 including trade secrets, belonging to Gaussian, Inc.
  
 This software is provided under written license and may be
 used, copied, transmitted, or stored only in accord with that
 written license.
  
 The following legend is applicable only to US Government
 contracts under FAR:
  
                    RESTRICTED RIGHTS LEGEND
  
 Use, reproduction and disclosure by the US Government is
 subject to restrictions as set forth in subparagraphs (a)
 and (c) of the Commercial Computer Software - Restricted
 Rights clause in FAR 52.227-19.
  
 Gaussian, Inc.
 340 Quinnipiac St., Bldg. 40, Wallingford CT 06492
  
  
 ---------------------------------------------------------------
 Warning -- This program may not be used in any manner that
 competes with the business of Gaussian, Inc. or will provide
 assistance to any competitor of Gaussian, Inc.  The licensee
 of this program is prohibited from giving any competitor of
 Gaussian, Inc. access to this program.  By using this program,
 the user acknowledges that Gaussian, Inc. is engaged in the
 business of creating and licensing software in the field of
 computational chemistry and represents and warrants to the
 licensee that it is not a competitor of Gaussian, Inc. and that
 it will not use this program in any manner prohibited above.
 ---------------------------------------------------------------
  

 Cite this work as:
 Gaussian 16, Revision C.01,
 M. J. Frisch, G. W. Trucks, H. B. Schlegel, G. E. Scuseria, 
 M. A. Robb, J. R. Cheeseman, G. Scalmani, V. Barone, 
 G. A. Petersson, H. Nakatsuji, X. Li, M. Caricato, A. V. Marenich, 
 J. Bloino, B. G. Janesko, R. Gomperts, B. Mennucci, H. P. Hratchian, 
 J. V. Ortiz, A. F. Izmaylov, J. L. Sonnenberg, D. Williams-Young, 
 F. Ding, F. Lipparini, F. Egidi, J. Goings, B. Peng, A. Petrone, 
 T. Henderson, D. Ranasinghe, V. G. Zakrzewski, J. Gao, N. Rega, 
 G. Zheng, W. Liang, M. Hada, M. Ehara, K. Toyota, R. Fukuda, 
 J. Hasegawa, M. Ishida, T. Nakajima, Y. Honda, O. Kitao, H. Nakai, 
 T. Vreven, K. Throssell, J. A. Montgomery, Jr., J. E. Peralta, 
 F. Ogliaro, M. J. Bearpark, J. J. Heyd, E. N. Brothers, K. N. Kudin, 
 V. N. Staroverov, T. A. Keith, R. Kobayashi, J. Normand, 
 K. Raghavachari, A. P. Rendell, J. C. Burant, S. S. Iyengar, 
 J. Tomasi, M. Cossi, J. M. Millam, M. Klene, C. Adamo, R. Cammi, 
 J. W. Ochterski, R. L. Martin, K. Morokuma, O. Farkas, 
 J. B. Foresman, and D. J. Fox, Gaussian, Inc., Wallingford CT, 2019.
 
 ******************************************
 Gaussian 16:  ES64L-G16RevC.01  3-Jul-2019
                13-Jul-2020 
 ******************************************
 %chk=config_10_13.chk
 %mem=58GB
 %nprocshared=10
 Will use up to   10 processors via shared memory.
 ----------------------------------------------------------------------
 #p opt=addgic freq td wb97xd/cc-pvdz nosymm int=ultrafine scrf=(solven
 t=CarbonTetraChloride)
 ----------------------------------------------------------------------
 1/18=20,19=15,26=6,38=1,145=903/1,3;
 2/9=110,12=2,15=1,17=6,18=5,40=1/2;
 3/5=16,11=9,25=1,30=1,70=2201,71=1,72=11,74=-58,75=-5/1,2,3,8;
 4//1;
 5/5=2,38=5,53=11/2;
 8/6=1,10=1/1;
 9/15=2,42=1,70=2/14;
 10/5=4,31=1/2;
 6/7=2,8=2,9=2,10=2/1;
 7/12=6,13=5,30=1/1,2,3,16;
 1/18=20,19=15,26=6,145=903/3(2);
 2/9=110,15=1/2;
 99//99;
 2/9=110,15=1/2;
 3/5=16,11=9,25=1,30=1,70=2205,71=1,72=11,74=-58,75=-5/1,2,3,8;
 4/5=5,16=3,69=1/1;
 5/5=2,38=5,53=11/2;
 8/6=1,10=1/1;
 9/15=2,42=1,49=4,70=2/14;
 10/5=4,31=1/2;
 7/12=6,13=5,30=1/1,2,3,16;
 1/18=20,19=15,26=6,145=903/3(-8);
 2/9=110,15=1/2;
 6/7=2,8=2,9=2,10=2/1;
 99/9=10/99;
 Leave Link    1 at Mon Jul 13 16:10:09 2020, MaxMem=  7784628224 cpu:               3.9 elap:               0.4
 (Enter /gpfs/loomis/apps/avx/software/Gaussian/16-C.01_AVX/g16/l101.exe)
 ------------------------------------------------
 NM 2D-scan of HBT TD-WB97XD pVDZ in CTC Relaxed.
 ------------------------------------------------
 Symbolic Z-matrix:
 Charge =  0 Multiplicity = 1
 C                     1.59187  -3.25213  -0.00002 
 C                     1.00674  -1.98578  -0.00002 
 C                     1.77262  -0.78865  -0.00002 
 C                     3.1683   -0.89127  -0.00003 
 C                     3.75162  -2.16076  -0.00002 
 C                     2.98295  -3.33229  -0.00002 
 H                     0.9702   -4.15123  -0.00002 
 H                     3.78761   0.00927  -0.00003 
 H                     4.84134  -2.23653  -0.00002 
 H                     3.4722   -4.30836  -0.00001 
 N                     0.97707   0.35023  -0.00003 
 S                    -0.71101  -1.65006  -0.00002 
 C                    -1.35075   1.05854   0.00001 
 C                    -2.7049    0.76682   0.00001 
 C                    -0.88022   2.4607    0.00003 
 C                    -3.65497   1.81979   0.00003 
 H                    -3.05543  -0.26908   0. 
 C                    -1.88376   3.48007   0.00005 
 C                    -3.24703   3.15634   0.00004 
 H                    -4.71888   1.57112   0.00003 
 H                    -1.53724   4.51634   0.00007 
 H                    -3.99564   3.95074   0.00005 
 C                    -0.35041   0.04854  -0.00002 
 O                     0.36114   2.68989   0.00005 
 H                     1.07882   1.18338   0. 
 
 Initializing the GIC definitions file.
 Number of initial coordinates =   134
 Number of input entries/lines =    52
 Number of additional coordinates =     2
 Number of removed coordinates =     0
 Number of frozen coordinates =     2
 Number of final active and frozen coordinates =   136
 ITRead=  0  0  0  0  0  0  0  0  0  0  0  0  0  0  0  0  0  0  0  0
 ITRead=  0  0  0  0  0
 MicOpt= -1 -1 -1 -1 -1 -1 -1 -1 -1 -1 -1 -1 -1 -1 -1 -1 -1 -1 -1 -1
 MicOpt= -1 -1 -1 -1 -1
 NAtoms=     25 NQM=       25 NQMF=       0 NMMI=      0 NMMIF=      0
                NMic=       0 NMicF=      0.
                    Isotopes and Nuclear Properties:
 (Nuclear quadrupole moments (NQMom) in fm**2, nuclear magnetic moments (NMagM)
  in nuclear magnetons)

  Atom         1           2           3           4           5           6           7           8           9          10
 IAtWgt=          12          12          12          12          12          12           1           1           1           1
 AtmWgt=  12.0000000  12.0000000  12.0000000  12.0000000  12.0000000  12.0000000   1.0078250   1.0078250   1.0078250   1.0078250
 NucSpn=           0           0           0           0           0           0           1           1           1           1
 AtZEff=  -0.0000000  -0.0000000  -0.0000000  -0.0000000  -0.0000000  -0.0000000  -0.0000000  -0.0000000  -0.0000000  -0.0000000
 NQMom=    0.0000000   0.0000000   0.0000000   0.0000000   0.0000000   0.0000000   0.0000000   0.0000000   0.0000000   0.0000000
 NMagM=    0.0000000   0.0000000   0.0000000   0.0000000   0.0000000   0.0000000   2.7928460   2.7928460   2.7928460   2.7928460
 AtZNuc=   6.0000000   6.0000000   6.0000000   6.0000000   6.0000000   6.0000000   1.0000000   1.0000000   1.0000000   1.0000000

  Atom        11          12          13          14          15          16          17          18          19          20
 IAtWgt=          14          32          12          12          12          12           1          12          12           1
 AtmWgt=  14.0030740  31.9720718  12.0000000  12.0000000  12.0000000  12.0000000   1.0078250  12.0000000  12.0000000   1.0078250
 NucSpn=           2           0           0           0           0           0           1           0           0           1
 AtZEff=  -0.0000000  -0.0000000  -0.0000000  -0.0000000  -0.0000000  -0.0000000  -0.0000000  -0.0000000  -0.0000000  -0.0000000
 NQMom=    2.0440000   0.0000000   0.0000000   0.0000000   0.0000000   0.0000000   0.0000000   0.0000000   0.0000000   0.0000000
 NMagM=    0.4037610   0.0000000   0.0000000   0.0000000   0.0000000   0.0000000   2.7928460   0.0000000   0.0000000   2.7928460
 AtZNuc=   7.0000000  16.0000000   6.0000000   6.0000000   6.0000000   6.0000000   1.0000000   6.0000000   6.0000000   1.0000000

  Atom        21          22          23          24          25
 IAtWgt=           1           1          12          16           1
 AtmWgt=   1.0078250   1.0078250  12.0000000  15.9949146   1.0078250
 NucSpn=           1           1           0           0           1
 AtZEff=  -0.0000000  -0.0000000  -0.0000000  -0.0000000  -0.0000000
 NQMom=    0.0000000   0.0000000   0.0000000   0.0000000   0.0000000
 NMagM=    2.7928460   2.7928460   0.0000000   0.0000000   2.7928460
 AtZNuc=   1.0000000   1.0000000   6.0000000   8.0000000   1.0000000
 Leave Link  101 at Mon Jul 13 16:10:12 2020, MaxMem=  7784628224 cpu:              32.1 elap:               3.2
 (Enter /gpfs/loomis/apps/avx/software/Gaussian/16-C.01_AVX/g16/l103.exe)

 GradGradGradGradGradGradGradGradGradGradGradGradGradGradGradGradGradGrad
 Berny optimization.
 Initialization pass.
                           ----------------------------
                           !    Initial Parameters    !
                           ! (Angstroms and Degrees)  !
 --------------------------                            --------------------------
 ! Name  Definition              Value          Derivative Info.                !
 --------------------------------------------------------------------------------
 ! R1    R(1,2)                  1.395          estimate D2E/DX2                !
 ! R2    R(1,6)                  1.3934         estimate D2E/DX2                !
 ! R3    R(1,7)                  1.0931         estimate D2E/DX2                !
 ! R4    R(2,3)                  1.4212         estimate D2E/DX2                !
 ! R5    R(2,12)                 1.7502         estimate D2E/DX2                !
 ! R6    R(3,4)                  1.3995         estimate D2E/DX2                !
 ! R7    R(3,11)                 1.3892         estimate D2E/DX2                !
 ! R8    R(4,5)                  1.3971         estimate D2E/DX2                !
 ! R9    R(4,8)                  1.0929         estimate D2E/DX2                !
 ! R10   R(5,6)                  1.4012         estimate D2E/DX2                !
 ! R11   R(5,9)                  1.0923         estimate D2E/DX2                !
 ! R12   R(6,10)                 1.0918         estimate D2E/DX2                !
 ! R13   R(11,23)                1.3613         estimate D2E/DX2                !
 ! R14   R(11,25)                0.8393         estimate D2E/DX2                !
 ! R15   R(12,23)                1.7364         estimate D2E/DX2                !
 ! R16   R(13,14)                1.3852         estimate D2E/DX2                !
 ! R17   R(13,15)                1.479          estimate D2E/DX2                !
 ! R18   R(13,23)                1.4215         estimate D2E/DX2                !
 ! R19   R(14,16)                1.4182         estimate D2E/DX2                !
 ! R20   R(14,17)                1.0936         estimate D2E/DX2                !
 ! R21   R(15,18)                1.4305         estimate D2E/DX2                !
 ! R22   R(15,24)                1.2623         estimate D2E/DX2                !
 ! R23   R(16,19)                1.3974         estimate D2E/DX2                !
 ! R24   R(16,20)                1.0926         estimate D2E/DX2                !
 ! R25   R(18,19)                1.4012         estimate D2E/DX2                !
 ! R26   R(18,21)                1.0927         estimate D2E/DX2                !
 ! R27   R(19,22)                1.0916         estimate D2E/DX2                !
 ! A1    A(2,1,6)              118.0982         estimate D2E/DX2                !
 ! A2    A(2,1,7)              120.5392         estimate D2E/DX2                !
 ! A3    A(6,1,7)              121.3626         estimate D2E/DX2                !
 ! A4    A(1,2,3)              122.5905         estimate D2E/DX2                !
 ! A5    A(1,2,12)             125.8587         estimate D2E/DX2                !
 ! A6    A(3,2,12)             111.5508         estimate D2E/DX2                !
 ! A7    A(2,3,4)              118.4045         estimate D2E/DX2                !
 ! A8    A(2,3,11)             112.455          estimate D2E/DX2                !
 ! A9    A(4,3,11)             129.1404         estimate D2E/DX2                !
 ! A10   A(3,4,5)              118.8835         estimate D2E/DX2                !
 ! A11   A(3,4,8)              120.3115         estimate D2E/DX2                !
 ! A12   A(5,4,8)              120.8051         estimate D2E/DX2                !
 ! A13   A(4,5,6)              122.0517         estimate D2E/DX2                !
 ! A14   A(4,5,9)              118.6557         estimate D2E/DX2                !
 ! A15   A(6,5,9)              119.2926         estimate D2E/DX2                !
 ! A16   A(1,6,5)              119.9716         estimate D2E/DX2                !
 ! A17   A(1,6,10)             119.9208         estimate D2E/DX2                !
 ! A18   A(5,6,10)             120.1076         estimate D2E/DX2                !
 ! A19   A(3,11,23)            112.1314         estimate D2E/DX2                !
 ! A20   A(3,11,25)            138.102          estimate D2E/DX2                !
 ! A21   A(23,11,25)           109.7666         estimate D2E/DX2                !
 ! A22   A(2,12,23)             89.0734         estimate D2E/DX2                !
 ! A23   A(14,13,15)           120.7077         estimate D2E/DX2                !
 ! A24   A(14,13,23)           122.5675         estimate D2E/DX2                !
 ! A25   A(15,13,23)           116.7247         estimate D2E/DX2                !
 ! A26   A(13,14,16)           119.9016         estimate D2E/DX2                !
 ! A27   A(13,14,17)           120.8521         estimate D2E/DX2                !
 ! A28   A(16,14,17)           119.2463         estimate D2E/DX2                !
 ! A29   A(13,15,18)           116.898          estimate D2E/DX2                !
 ! A30   A(13,15,24)           119.0111         estimate D2E/DX2                !
 ! A31   A(18,15,24)           124.0909         estimate D2E/DX2                !
 ! A32   A(14,16,19)           120.9679         estimate D2E/DX2                !
 ! A33   A(14,16,20)           118.9029         estimate D2E/DX2                !
 ! A34   A(19,16,20)           120.1292         estimate D2E/DX2                !
 ! A35   A(15,18,19)           121.193          estimate D2E/DX2                !
 ! A36   A(15,18,21)           116.959          estimate D2E/DX2                !
 ! A37   A(19,18,21)           121.848          estimate D2E/DX2                !
 ! A38   A(16,19,18)           120.3318         estimate D2E/DX2                !
 ! A39   A(16,19,22)           119.7264         estimate D2E/DX2                !
 ! A40   A(18,19,22)           119.9418         estimate D2E/DX2                !
 ! A41   A(11,23,12)           114.7893         estimate D2E/DX2                !
 ! A42   A(11,23,13)           121.9209         estimate D2E/DX2                !
 ! A43   A(12,23,13)           123.2898         estimate D2E/DX2                !
 ! D1    D(6,1,2,3)              0.0            estimate D2E/DX2                !
 ! D2    D(6,1,2,12)          -180.0            estimate D2E/DX2                !
 ! D3    D(7,1,2,3)            179.9999         estimate D2E/DX2                !
 ! D4    D(7,1,2,12)            -0.0001         estimate D2E/DX2                !
 ! D5    D(2,1,6,5)             -0.0001         estimate D2E/DX2                !
 ! D6    D(2,1,6,10)           179.9999         estimate D2E/DX2                !
 ! D7    D(7,1,6,5)            180.0            estimate D2E/DX2                !
 ! D8    D(7,1,6,10)             0.0            estimate D2E/DX2                !
 ! D9    D(1,2,3,4)              0.0002         estimate D2E/DX2                !
 ! D10   D(1,2,3,11)          -180.0            estimate D2E/DX2                !
 ! D11   D(12,2,3,4)          -179.9999         estimate D2E/DX2                !
 ! D12   D(12,2,3,11)            0.0            estimate D2E/DX2                !
 ! D13   D(1,2,12,23)          179.9997         estimate D2E/DX2                !
 ! D14   D(3,2,12,23)           -0.0002         estimate D2E/DX2                !
 ! D15   D(2,3,4,5)             -0.0002         estimate D2E/DX2                !
 ! D16   D(2,3,4,8)            179.9999         estimate D2E/DX2                !
 ! D17   D(11,3,4,5)           180.0            estimate D2E/DX2                !
 ! D18   D(11,3,4,8)             0.0001         estimate D2E/DX2                !
 ! D19   D(2,3,11,23)            0.0003         estimate D2E/DX2                !
 ! D20   D(2,3,11,25)          179.9967         estimate D2E/DX2                !
 ! D21   D(4,3,11,23)         -179.9998         estimate D2E/DX2                !
 ! D22   D(4,3,11,25)           -0.0034         estimate D2E/DX2                !
 ! D23   D(3,4,5,6)              0.0            estimate D2E/DX2                !
 ! D24   D(3,4,5,9)           -179.9999         estimate D2E/DX2                !
 ! D25   D(8,4,5,6)            180.0            estimate D2E/DX2                !
 ! D26   D(8,4,5,9)              0.0            estimate D2E/DX2                !
 ! D27   D(4,5,6,1)              0.0001         estimate D2E/DX2                !
 ! D28   D(4,5,6,10)          -179.9999         estimate D2E/DX2                !
 ! D29   D(9,5,6,1)           -179.9999         estimate D2E/DX2                !
 ! D30   D(9,5,6,10)             0.0            estimate D2E/DX2                !
 ! D31   D(3,11,23,12)          -0.0005         estimate D2E/DX2                !
 ! D32   D(3,11,23,13)         179.9986         estimate D2E/DX2                !
 ! D33   D(25,11,23,12)       -179.998          estimate D2E/DX2                !
 ! D34   D(25,11,23,13)          0.0011         estimate D2E/DX2                !
 ! D35   D(2,12,23,11)           0.0004         estimate D2E/DX2                !
 ! D36   D(2,12,23,13)        -179.9987         estimate D2E/DX2                !
 ! D37   D(15,13,14,16)          0.0007         estimate D2E/DX2                !
 ! D38   D(15,13,14,17)       -179.9996         estimate D2E/DX2                !
 ! D39   D(23,13,14,16)       -179.9994         estimate D2E/DX2                !
 ! D40   D(23,13,14,17)          0.0003         estimate D2E/DX2                !
 ! D41   D(14,13,15,18)         -0.0009         estimate D2E/DX2                !
 ! D42   D(14,13,15,24)        179.9989         estimate D2E/DX2                !
 ! D43   D(23,13,15,18)        179.9992         estimate D2E/DX2                !
 ! D44   D(23,13,15,24)         -0.001          estimate D2E/DX2                !
 ! D45   D(14,13,23,11)        179.9999         estimate D2E/DX2                !
 ! D46   D(14,13,23,12)         -0.0011         estimate D2E/DX2                !
 ! D47   D(15,13,23,11)         -0.0002         estimate D2E/DX2                !
 ! D48   D(15,13,23,12)        179.9988         estimate D2E/DX2                !
 ! D49   D(13,14,16,19)         -0.0001         estimate D2E/DX2                !
 ! D50   D(13,14,16,20)        179.9998         estimate D2E/DX2                !
 ! D51   D(17,14,16,19)       -179.9998         estimate D2E/DX2                !
 ! D52   D(17,14,16,20)          0.0001         estimate D2E/DX2                !
 ! D53   D(13,15,18,19)          0.0005         estimate D2E/DX2                !
 ! D54   D(13,15,18,21)        180.0            estimate D2E/DX2                !
 ! D55   D(24,15,18,19)       -179.9993         estimate D2E/DX2                !
 ! D56   D(24,15,18,21)          0.0002         estimate D2E/DX2                !
 ! D57   D(14,16,19,18)         -0.0003         estimate D2E/DX2                !
 ! D58   D(14,16,19,22)        179.9999         estimate D2E/DX2                !
 ! D59   D(20,16,19,18)        179.9998         estimate D2E/DX2                !
 ! D60   D(20,16,19,22)         -0.0001         estimate D2E/DX2                !
 ! D61   D(15,18,19,16)          0.0001         estimate D2E/DX2                !
 ! D62   D(15,18,19,22)        179.9999         estimate D2E/DX2                !
 ! D63   D(21,18,19,16)       -179.9994         estimate D2E/DX2                !
 ! D64   D(21,18,19,22)          0.0005         estimate D2E/DX2                !
 ! Qtot  GIC-1                  40.0            Frozen                          !
 ! Ptot  GIC-2                 100.0            Frozen                          !
 --------------------------------------------------------------------------------
 NOTE: GIC-type coordinates are in arbitrary units.
 Trust Radius=3.00D-01 FncErr=5.00D-06 GrdErr=5.00D-06 EigMax=2.50D+02 EigMin=1.00D-04
 Number of steps in this run=    146 maximum allowed number of steps=    150.
 GradGradGradGradGradGradGradGradGradGradGradGradGradGradGradGradGradGrad

 Leave Link  103 at Mon Jul 13 16:10:12 2020, MaxMem=  7784628224 cpu:               0.2 elap:               0.1
 (Enter /gpfs/loomis/apps/avx/software/Gaussian/16-C.01_AVX/g16/l202.exe)
                          Input orientation:                          
 ---------------------------------------------------------------------
 Center     Atomic      Atomic             Coordinates (Angstroms)
 Number     Number       Type             X           Y           Z
 ---------------------------------------------------------------------
      1          6           0        1.591866   -3.252127   -0.000019
      2          6           0        1.006735   -1.985781   -0.000022
      3          6           0        1.772616   -0.788651   -0.000024
      4          6           0        3.168300   -0.891269   -0.000027
      5          6           0        3.751620   -2.160759   -0.000023
      6          6           0        2.982945   -3.332294   -0.000018
      7          1           0        0.970203   -4.151235   -0.000016
      8          1           0        3.787609    0.009274   -0.000031
      9          1           0        4.841335   -2.236526   -0.000024
     10          1           0        3.472201   -4.308359   -0.000015
     11          7           0        0.977075    0.350232   -0.000027
     12         16           0       -0.711006   -1.650056   -0.000024
     13          6           0       -1.350755    1.058537    0.000009
     14          6           0       -2.704903    0.766816    0.000014
     15          6           0       -0.880223    2.460702    0.000035
     16          6           0       -3.654971    1.819793    0.000030
     17          1           0       -3.055431   -0.269081    0.000002
     18          6           0       -1.883763    3.480074    0.000046
     19          6           0       -3.247030    3.156340    0.000043
     20          1           0       -4.718880    1.571117    0.000031
     21          1           0       -1.537245    4.516345    0.000065
     22          1           0       -3.995645    3.950740    0.000053
     23          6           0       -0.350412    0.048538   -0.000020
     24          8           0        0.361140    2.689894    0.000050
     25          1           0        1.078821    1.183381    0.000003
 ---------------------------------------------------------------------
                    Distance matrix (angstroms):
                    1          2          3          4          5
     1  C    0.000000
     2  C    1.394994   0.000000
     3  C    2.470098   1.421159   0.000000
     4  C    2.838802   2.422874   1.399452   0.000000
     5  C    2.419839   2.750456   2.408140   1.397092   0.000000
     6  C    1.393387   2.391339   2.816916   2.448053   1.401198
     7  H    1.093097   2.165761   3.456998   3.931795   3.420274
     8  H    3.931669   3.422500   2.167230   1.092941   2.170331
     9  H    3.404482   3.842789   3.393138   2.146803   1.092347
    10  H    2.156684   3.387166   3.908572   3.430578   2.165701
    11  N    3.654444   2.336202   1.389223   2.518490   3.742082
    12  S    2.805326   1.750242   2.628763   3.952819   4.491753
    13  C    5.219276   3.850407   3.628711   4.921747   6.033083
    14  C    5.883378   4.620937   4.740006   6.102767   7.089244
    15  C    6.224760   4.830303   4.194740   5.256068   6.543078
    16  C    7.297511   6.017799   6.021850   7.342131   8.408470
    17  H    5.522313   4.410018   4.855923   6.254754   7.065011
    18  C    7.576445   6.183086   5.620598   6.680717   7.973489
    19  C    8.030153   6.673525   6.384340   7.585486   8.789348
    20  H    7.942871   6.740490   6.907099   8.262624   9.256147
    21  H    8.374992   6.982083   6.252852   7.168294   8.517969
    22  H    9.116007   7.763124   7.465565   8.646801   9.867651
    23  C    3.829730   2.445466   2.282133   3.642056   4.659147
    24  O    6.068138   4.720035   3.754003   4.550261   5.918123
    25  H    4.465080   3.169982   2.090517   2.944502   4.281019
                    6          7          8          9         10
     6  C    0.000000
     7  H    2.172969   0.000000
     8  H    3.437086   5.024700   0.000000
     9  H    2.157388   4.318771   2.480716   0.000000
    10  H    1.091822   2.506927   4.329138   2.483349   0.000000
    11  N    4.193389   4.501472   2.831141   4.650142   5.284707
    12  S    4.058966   3.013695   4.794884   5.583229   4.956390
    13  C    6.169307   5.703381   5.244401   7.014229   7.215572
    14  C    7.011015   6.139514   6.536558   8.121932   7.994625
    15  C    6.962964   6.865987   5.272396   7.402714   8.047595
    16  C    8.402734   7.552841   7.659633   9.414932   9.399512
    17  H    6.770913   5.592571   6.848700   8.138167   7.676311
    18  C    8.372169   8.147515   6.649129   8.826463   9.452304
    19  C    8.995275   8.437162   7.706503   9.721351  10.043396
    20  H    9.130255   8.069137   8.648683  10.290572  10.082760
    21  H    9.057221   9.022983   6.976228   9.289109  10.147411
    22  H   10.086789   9.502718   8.724346  10.787700  11.134696
    23  C    4.747767   4.402512   4.138207   5.672368   5.796113
    24  O    6.568151   6.868187   4.350450   6.658961   7.658606
    25  H    4.900715   5.335721   2.952297   5.084513   5.990616
                   11         12         13         14         15
    11  N    0.000000
    12  S    2.617398   0.000000
    13  C    2.433205   2.783119   0.000000
    14  C    3.705470   3.133193   1.385215   0.000000
    15  C    2.811341   4.114239   1.479009   2.489720   0.000000
    16  C    4.859574   4.550470   2.426710   1.418234   2.847804
    17  H    4.079786   2.720923   2.160669   1.093596   3.490450
    18  C    4.240319   5.262470   2.479504   2.834791   1.430459
    19  C    5.071223   5.434414   2.827833   2.450250   2.466919
    20  H    5.825329   5.141888   3.406906   2.168641   3.940387
    21  H    4.866035   6.221509   3.462834   3.927136   2.158089
    22  H    6.139349   6.492902   3.919220   3.435606   3.453414
    23  C    1.361337   1.736448   1.421542   2.461616   2.469662
    24  O    2.419378   4.470420   2.364721   3.619233   1.262343
    25  H    0.839338   3.351395   2.432781   3.806586   2.338676
                   16         17         18         19         20
    16  C    0.000000
    17  H    2.173210   0.000000
    18  C    2.427696   3.927973   0.000000
    19  C    1.397416   3.430775   1.401179   0.000000
    20  H    1.092585   2.480603   3.417895   2.163162   0.000000
    21  H    3.428725   5.020477   1.092672   2.184715   4.335570
    22  H    2.158007   4.323296   2.163694   1.091557   2.487102
    23  C    3.749327   2.723603   3.758537   4.248391   4.626204
    24  O    4.109284   4.519788   2.379910   3.638195   5.201756
    25  H    4.776380   4.381973   3.748560   4.754530   5.810652
                   21         22         23         24         25
    21  H    0.000000
    22  H    2.522626   0.000000
    23  C    4.622755   5.339935   0.000000
    24  O    2.634348   4.535560   2.735519   0.000000
    25  H    4.237033   5.780008   1.824986   1.668726   0.000000
 Symmetry turned off by external request.
 Stoichiometry    C13H9NOS
 Framework group  C1[X(C13H9NOS)]
 Deg. of freedom    69
 Full point group                 C1      NOp   1
 Rotational constants (GHZ):           1.4081333           0.2861938           0.2378520
 Leave Link  202 at Mon Jul 13 16:10:12 2020, MaxMem=  7784628224 cpu:               0.1 elap:               0.0
 (Enter /gpfs/loomis/apps/avx/software/Gaussian/16-C.01_AVX/g16/l301.exe)
 Standard basis: CC-pVDZ (5D, 7F)
 Ernie: Thresh=  0.10000D-02 Tol=  0.10000D-05 Strict=F.
 Ernie:  40 primitive shells out of 425 were deleted.
   273 basis functions,   629 primitive gaussians,   289 cartesian basis functions
    59 alpha electrons       59 beta electrons
       nuclear repulsion energy      1102.0248040273 Hartrees.
 IExCor= 4639 DFT=T Ex+Corr=wB97XD ExCW=0 ScaHFX=  1.000000
 ScaDFX=  1.000000  1.000000  1.000000  1.000000 ScalE2=  1.000000  1.000000
 IRadAn=      5 IRanWt=     -1 IRanGd=            0 ICorTp=0 IEmpDi=121
 HFx  wShort=  0.000000 wLong=  0.200000 cFull=  0.222036 cShort=  0.000000 cLong=  0.777964
 DFx  wShort=  0.000000 wLong=  0.200000 cFull=  0.000000 cShort=  0.000000 cLong=  1.000000
 NAtoms=   25 NActive=   25 NUniq=   25 SFac= 1.00D+00 NAtFMM=   60 NAOKFM=F Big=F
 Integral buffers will be    131072 words long.
 Raffenetti 1 integral format.
 Two-electron integral symmetry is turned off.
 R6Disp:  Grimme-D2 Dispersion energy=       -0.0140036128 Hartrees.
 Nuclear repulsion after empirical dispersion term =     1102.0108004145 Hartrees.
 ------------------------------------------------------------------------------
 Polarizable Continuum Model (PCM)
 =================================
 Model                : PCM.
 Atomic radii         : UFF (Universal Force Field).
 Polarization charges : Total charges.
 Charge compensation  : None.
 Solution method      : On-the-fly selection.
 Cavity type          : Scaled VdW (van der Waals Surface) (Alpha=1.100).
 Cavity algorithm     : GePol (No added spheres)
                        Default sphere list used, NSphG=   25.
                        Lebedev-Laikov grids with approx.  5.0 points / Ang**2.
                        Smoothing algorithm: York/Karplus (Gamma=1.0000).
                        Polarization charges: spherical gaussians, with
                                              point-specific exponents (IZeta= 3).
                        Self-potential: point-specific (ISelfS= 7).
                        Self-field    : sphere-specific E.n sum rule (ISelfD= 2).
 1st derivatives      : Analytical E(r).r(x)/FMM algorithm (CHGder, D1EAlg=3).
                        Cavity 1st derivative terms included.
 Solvent              : CarbonTetraChloride, Eps=   2.228000 Eps(inf)=   2.131892
 ------------------------------------------------------------------------------
 GePol: Number of generator spheres                  =      25
 GePol: Total number of spheres                      =      25
 GePol: Number of exposed spheres                    =      25 (100.00%)
 GePol: Number of points                             =    2195
 GePol: Average weight of points                     =       0.12
 GePol: Minimum weight of points                     =   0.16D-08
 GePol: Maximum weight of points                     =    0.20577
 GePol: Number of points with low weight             =     159
 GePol: Fraction of low-weight points (<1% of avg)   =       7.24%
 GePol: Cavity surface area                          =    271.520 Ang**2
 GePol: Cavity volume                                =    291.390 Ang**3
 Leave Link  301 at Mon Jul 13 16:10:13 2020, MaxMem=  7784628224 cpu:               1.0 elap:               0.2
 (Enter /gpfs/loomis/apps/avx/software/Gaussian/16-C.01_AVX/g16/l302.exe)
 NPDir=0 NMtPBC=     1 NCelOv=     1 NCel=       1 NClECP=     1 NCelD=      1
         NCelK=      1 NCelE2=     1 NClLst=     1 CellRange=     0.0.
 One-electron integrals computed using PRISM.
 NBasis=   273 RedAO= T EigKep=  3.07D-04  NBF=   273
 NBsUse=   273 1.00D-06 EigRej= -1.00D+00 NBFU=   273
 Precomputing XC quadrature grid using
 IXCGrd= 4 IRadAn=           5 IRanWt=          -1 IRanGd=           0 AccXCQ= 0.00D+00.
 Generated NRdTot=       0 NPtTot=           0 NUsed=           0 NTot=          32
 NSgBfM=   288   288   288   288   288 MxSgAt=    25 MxSgA2=    25.
 Leave Link  302 at Mon Jul 13 16:10:13 2020, MaxMem=  7784628224 cpu:               2.5 elap:               0.3
 (Enter /gpfs/loomis/apps/avx/software/Gaussian/16-C.01_AVX/g16/l303.exe)
 DipDrv:  MaxL=1.
 Leave Link  303 at Mon Jul 13 16:10:13 2020, MaxMem=  7784628224 cpu:               0.4 elap:               0.1
 (Enter /gpfs/loomis/apps/avx/software/Gaussian/16-C.01_AVX/g16/l308.exe)
 Leave Link  308 at Mon Jul 13 16:10:13 2020, MaxMem=  7784628224 cpu:               0.5 elap:               0.1
 (Enter /gpfs/loomis/apps/avx/software/Gaussian/16-C.01_AVX/g16/l401.exe)
 ExpMin= 1.22D-01 ExpMax= 1.11D+05 ExpMxC= 1.07D+03 IAcc=3 IRadAn=         5 AccDes= 0.00D+00
 Harris functional with IExCor= 4639 and IRadAn=       5 diagonalized for initial guess.
 HarFok:  IExCor= 4639 AccDes= 0.00D+00 IRadAn=         5 IDoV= 1 UseB2=F ITyADJ=14
 ICtDFT=  3500011 ScaDFX=  1.000000  1.000000  1.000000  1.000000
 FoFCou: FMM=F IPFlag=           0 FMFlag=      100000 FMFlg1=           0
         NFxFlg=           0 DoJE=T BraDBF=F KetDBF=T FulRan=T
         wScrn=  0.000000 ICntrl=       500 IOpCl=  0 I1Cent=   200000004 NGrid=           0
         NMat0=    1 NMatS0=      1 NMatT0=    0 NMatD0=    1 NMtDS0=    0 NMtDT0=    0
 Symmetry not used in FoFCou.
 Harris En= -994.395365081110    
 JPrj=0 DoOrth=F DoCkMO=F.
 Leave Link  401 at Mon Jul 13 16:10:15 2020, MaxMem=  7784628224 cpu:              13.4 elap:               1.4
 (Enter /gpfs/loomis/apps/avx/software/Gaussian/16-C.01_AVX/g16/l502.exe)
 Two-electron integral symmetry not used.
 Closed shell SCF:
 Using DIIS extrapolation, IDIIS=  1040.
 NGot=  7784628224 LenX=  7784455381 LenY=  7784371419
 Requested convergence on RMS density matrix=1.00D-08 within 128 cycles.
 Requested convergence on MAX density matrix=1.00D-06.
 Requested convergence on             energy=1.00D-06.
 No special actions if energy rises.
 Fock matrices will be formed incrementally for  20 cycles.

 Cycle   1  Pass 1  IDiag  1:
 FoFJK:  IHMeth= 1 ICntrl=       0 DoSepK=T KAlg= 0 I1Cent=           0 FoldK=F
 IRaf=         1 NMat=       1 IRICut=       1 DoRegI=T DoRafI=F ISym2E= 0 IDoP0=0 IntGTp=1.
 FoFCou: FMM=F IPFlag=           0 FMFlag=      100000 FMFlg1=           0
         NFxFlg=           0 DoJE=T BraDBF=F KetDBF=F FulRan=T
         wScrn=  0.000000 ICntrl=       500 IOpCl=  0 I1Cent=           0 NGrid=           0
         NMat0=    1 NMatS0=      1 NMatT0=    0 NMatD0=    1 NMtDS0=    0 NMtDT0=    0
 Symmetry not used in FoFCou.
 Inv3:  Mode=1 IEnd=    14454075.
 Iteration    1 A*A^-1 deviation from unit magnitude is 5.44D-15 for   2172.
 Iteration    1 A*A^-1 deviation from orthogonality  is 2.34D-15 for   1142    598.
 Iteration    1 A^-1*A deviation from unit magnitude is 5.88D-15 for   2172.
 Iteration    1 A^-1*A deviation from orthogonality  is 2.70D-15 for   2193   2084.
 E= -1028.51033644488    
 DIIS: error= 4.04D-02 at cycle   1 NSaved=   1.
 NSaved= 1 IEnMin= 1 EnMin= -1028.51033644488     IErMin= 1 ErrMin= 4.04D-02
 ErrMax= 4.04D-02  0.00D+00 EMaxC= 1.00D-01 BMatC= 3.91D-01 BMatP= 3.91D-01
 IDIUse=3 WtCom= 5.96D-01 WtEn= 4.04D-01
 Coeff-Com:  0.100D+01
 Coeff-En:   0.100D+01
 Coeff:      0.100D+01
 Gap=     0.308 Goal=   None    Shift=    0.000
 GapD=    0.308 DampG=1.000 DampE=0.500 DampFc=0.5000 IDamp=-1.
 Damping current iteration by 5.00D-01
 RMSDP=3.63D-03 MaxDP=2.45D-01              OVMax= 2.07D-01

 Cycle   2  Pass 1  IDiag  1:
 RMSU=  1.81D-03    CP:  9.95D-01
 E= -1028.62998388435     Delta-E=       -0.119647439475 Rises=F Damp=T
 DIIS: error= 1.26D-02 at cycle   2 NSaved=   2.
 NSaved= 2 IEnMin= 2 EnMin= -1028.62998388435     IErMin= 2 ErrMin= 1.26D-02
 ErrMax= 1.26D-02  0.00D+00 EMaxC= 1.00D-01 BMatC= 5.83D-02 BMatP= 3.91D-01
 IDIUse=3 WtCom= 8.74D-01 WtEn= 1.26D-01
 Coeff-Com: -0.289D+00 0.129D+01
 Coeff-En:   0.000D+00 0.100D+01
 Coeff:     -0.253D+00 0.125D+01
 Gap=     0.278 Goal=   None    Shift=    0.000
 RMSDP=1.16D-03 MaxDP=2.58D-02 DE=-1.20D-01 OVMax= 1.45D-01

 Cycle   3  Pass 1  IDiag  1:
 RMSU=  1.13D-03    CP:  9.93D-01  1.16D+00
 E= -1028.73800957912     Delta-E=       -0.108025694766 Rises=F Damp=F
 DIIS: error= 6.37D-03 at cycle   3 NSaved=   3.
 NSaved= 3 IEnMin= 3 EnMin= -1028.73800957912     IErMin= 3 ErrMin= 6.37D-03
 ErrMax= 6.37D-03  0.00D+00 EMaxC= 1.00D-01 BMatC= 1.53D-02 BMatP= 5.83D-02
 IDIUse=3 WtCom= 9.36D-01 WtEn= 6.37D-02
 Coeff-Com: -0.205D+00 0.501D+00 0.704D+00
 Coeff-En:   0.000D+00 0.000D+00 0.100D+01
 Coeff:     -0.192D+00 0.469D+00 0.723D+00
 Gap=     0.237 Goal=   None    Shift=    0.000
 RMSDP=5.54D-04 MaxDP=1.80D-02 DE=-1.08D-01 OVMax= 4.65D-02

 Cycle   4  Pass 1  IDiag  1:
 RMSU=  4.37D-04    CP:  9.91D-01  1.32D+00  8.40D-01
 E= -1028.75306399231     Delta-E=       -0.015054413196 Rises=F Damp=F
 DIIS: error= 2.07D-03 at cycle   4 NSaved=   4.
 NSaved= 4 IEnMin= 4 EnMin= -1028.75306399231     IErMin= 4 ErrMin= 2.07D-03
 ErrMax= 2.07D-03  0.00D+00 EMaxC= 1.00D-01 BMatC= 1.88D-03 BMatP= 1.53D-02
 IDIUse=3 WtCom= 9.79D-01 WtEn= 2.07D-02
 Coeff-Com: -0.721D-01 0.143D+00 0.341D+00 0.589D+00
 Coeff-En:   0.000D+00 0.000D+00 0.000D+00 0.100D+01
 Coeff:     -0.706D-01 0.140D+00 0.334D+00 0.597D+00
 Gap=     0.238 Goal=   None    Shift=    0.000
 RMSDP=1.75D-04 MaxDP=9.66D-03 DE=-1.51D-02 OVMax= 1.36D-02

 Cycle   5  Pass 1  IDiag  1:
 RMSU=  1.12D-04    CP:  9.91D-01  1.33D+00  9.15D-01  7.64D-01
 E= -1028.75511563348     Delta-E=       -0.002051641163 Rises=F Damp=F
 DIIS: error= 5.09D-04 at cycle   5 NSaved=   5.
 NSaved= 5 IEnMin= 5 EnMin= -1028.75511563348     IErMin= 5 ErrMin= 5.09D-04
 ErrMax= 5.09D-04  0.00D+00 EMaxC= 1.00D-01 BMatC= 6.20D-05 BMatP= 1.88D-03
 IDIUse=3 WtCom= 9.95D-01 WtEn= 5.09D-03
 Coeff-Com: -0.929D-03-0.457D-02 0.287D-01 0.158D+00 0.819D+00
 Coeff-En:   0.000D+00 0.000D+00 0.000D+00 0.000D+00 0.100D+01
 Coeff:     -0.924D-03-0.454D-02 0.285D-01 0.157D+00 0.820D+00
 Gap=     0.239 Goal=   None    Shift=    0.000
 RMSDP=6.08D-05 MaxDP=1.97D-03 DE=-2.05D-03 OVMax= 6.15D-03

 Cycle   6  Pass 1  IDiag  1:
 RMSU=  3.97D-05    CP:  9.91D-01  1.34D+00  9.31D-01  8.55D-01  1.12D+00
 E= -1028.75525782002     Delta-E=       -0.000142186538 Rises=F Damp=F
 DIIS: error= 2.86D-04 at cycle   6 NSaved=   6.
 NSaved= 6 IEnMin= 6 EnMin= -1028.75525782002     IErMin= 6 ErrMin= 2.86D-04
 ErrMax= 2.86D-04  0.00D+00 EMaxC= 1.00D-01 BMatC= 1.12D-05 BMatP= 6.20D-05
 IDIUse=3 WtCom= 9.97D-01 WtEn= 2.86D-03
 Coeff-Com:  0.176D-01-0.360D-01-0.678D-01-0.823D-01 0.200D+00 0.968D+00
 Coeff-En:   0.000D+00 0.000D+00 0.000D+00 0.000D+00 0.000D+00 0.100D+01
 Coeff:      0.176D-01-0.359D-01-0.676D-01-0.820D-01 0.200D+00 0.968D+00
 Gap=     0.240 Goal=   None    Shift=    0.000
 RMSDP=4.00D-05 MaxDP=1.89D-03 DE=-1.42D-04 OVMax= 5.17D-03

 Cycle   7  Pass 1  IDiag  1:
 RMSU=  2.02D-05    CP:  9.91D-01  1.34D+00  9.45D-01  8.92D-01  1.33D+00
                    CP:  1.31D+00
 E= -1028.75529905327     Delta-E=       -0.000041233258 Rises=F Damp=F
 DIIS: error= 9.17D-05 at cycle   7 NSaved=   7.
 NSaved= 7 IEnMin= 7 EnMin= -1028.75529905327     IErMin= 7 ErrMin= 9.17D-05
 ErrMax= 9.17D-05  0.00D+00 EMaxC= 1.00D-01 BMatC= 3.25D-06 BMatP= 1.12D-05
 IDIUse=1 WtCom= 1.00D+00 WtEn= 0.00D+00
 Coeff-Com:  0.787D-02-0.150D-01-0.316D-01-0.568D-01-0.224D-01 0.460D+00
 Coeff-Com:  0.658D+00
 Coeff:      0.787D-02-0.150D-01-0.316D-01-0.568D-01-0.224D-01 0.460D+00
 Coeff:      0.658D+00
 Gap=     0.240 Goal=   None    Shift=    0.000
 RMSDP=1.39D-05 MaxDP=5.16D-04 DE=-4.12D-05 OVMax= 1.41D-03

 Cycle   8  Pass 1  IDiag  1:
 RMSU=  8.47D-06    CP:  9.91D-01  1.34D+00  9.46D-01  8.99D-01  1.37D+00
                    CP:  1.54D+00  1.08D+00
 E= -1028.75530566138     Delta-E=       -0.000006608110 Rises=F Damp=F
 DIIS: error= 6.27D-05 at cycle   8 NSaved=   8.
 NSaved= 8 IEnMin= 8 EnMin= -1028.75530566138     IErMin= 8 ErrMin= 6.27D-05
 ErrMax= 6.27D-05  0.00D+00 EMaxC= 1.00D-01 BMatC= 3.85D-07 BMatP= 3.25D-06
 IDIUse=1 WtCom= 1.00D+00 WtEn= 0.00D+00
 Coeff-Com: -0.137D-02 0.305D-02 0.630D-02 0.888D-03-0.462D-01-0.711D-01
 Coeff-Com:  0.157D+00 0.951D+00
 Coeff:     -0.137D-02 0.305D-02 0.630D-02 0.888D-03-0.462D-01-0.711D-01
 Coeff:      0.157D+00 0.951D+00
 Gap=     0.240 Goal=   None    Shift=    0.000
 RMSDP=8.19D-06 MaxDP=2.14D-04 DE=-6.61D-06 OVMax= 1.38D-03

 Cycle   9  Pass 1  IDiag  1:
 RMSU=  3.33D-06    CP:  9.91D-01  1.34D+00  9.46D-01  8.99D-01  1.39D+00
                    CP:  1.65D+00  1.34D+00  1.21D+00
 E= -1028.75530754437     Delta-E=       -0.000001882984 Rises=F Damp=F
 DIIS: error= 2.00D-05 at cycle   9 NSaved=   9.
 NSaved= 9 IEnMin= 9 EnMin= -1028.75530754437     IErMin= 9 ErrMin= 2.00D-05
 ErrMax= 2.00D-05  0.00D+00 EMaxC= 1.00D-01 BMatC= 1.36D-07 BMatP= 3.85D-07
 IDIUse=1 WtCom= 1.00D+00 WtEn= 0.00D+00
 Coeff-Com: -0.147D-02 0.291D-02 0.673D-02 0.808D-02-0.136D-01-0.951D-01
 Coeff-Com: -0.870D-01 0.365D+00 0.814D+00
 Coeff:     -0.147D-02 0.291D-02 0.673D-02 0.808D-02-0.136D-01-0.951D-01
 Coeff:     -0.870D-01 0.365D+00 0.814D+00
 Gap=     0.240 Goal=   None    Shift=    0.000
 RMSDP=4.22D-06 MaxDP=1.28D-04 DE=-1.88D-06 OVMax= 6.31D-04

 Cycle  10  Pass 1  IDiag  1:
 RMSU=  1.58D-06    CP:  9.91D-01  1.34D+00  9.46D-01  8.99D-01  1.40D+00
                    CP:  1.71D+00  1.43D+00  1.47D+00  1.22D+00
 E= -1028.75530798781     Delta-E=       -0.000000443444 Rises=F Damp=F
 DIIS: error= 9.98D-06 at cycle  10 NSaved=  10.
 NSaved=10 IEnMin=10 EnMin= -1028.75530798781     IErMin=10 ErrMin= 9.98D-06
 ErrMax= 9.98D-06  0.00D+00 EMaxC= 1.00D-01 BMatC= 2.28D-08 BMatP= 1.36D-07
 IDIUse=1 WtCom= 1.00D+00 WtEn= 0.00D+00
 Coeff-Com:  0.564D-04-0.188D-03 0.153D-03 0.149D-02 0.783D-02-0.673D-02
 Coeff-Com: -0.850D-01-0.906D-01 0.274D+00 0.899D+00
 Coeff:      0.564D-04-0.188D-03 0.153D-03 0.149D-02 0.783D-02-0.673D-02
 Coeff:     -0.850D-01-0.906D-01 0.274D+00 0.899D+00
 Gap=     0.240 Goal=   None    Shift=    0.000
 RMSDP=2.07D-06 MaxDP=5.19D-05 DE=-4.43D-07 OVMax= 3.58D-04

 Cycle  11  Pass 1  IDiag  1:
 RMSU=  6.06D-07    CP:  9.91D-01  1.34D+00  9.46D-01  8.99D-01  1.40D+00
                    CP:  1.74D+00  1.46D+00  1.59D+00  1.53D+00  1.21D+00
 E= -1028.75530808691     Delta-E=       -0.000000099100 Rises=F Damp=F
 DIIS: error= 3.89D-06 at cycle  11 NSaved=  11.
 NSaved=11 IEnMin=11 EnMin= -1028.75530808691     IErMin=11 ErrMin= 3.89D-06
 ErrMax= 3.89D-06  0.00D+00 EMaxC= 1.00D-01 BMatC= 4.12D-09 BMatP= 2.28D-08
 IDIUse=1 WtCom= 1.00D+00 WtEn= 0.00D+00
 Coeff-Com:  0.291D-03-0.600D-03-0.107D-02-0.988D-03 0.521D-02 0.145D-01
 Coeff-Com: -0.195D-01-0.781D-01-0.527D-01 0.270D+00 0.863D+00
 Coeff:      0.291D-03-0.600D-03-0.107D-02-0.988D-03 0.521D-02 0.145D-01
 Coeff:     -0.195D-01-0.781D-01-0.527D-01 0.270D+00 0.863D+00
 Gap=     0.240 Goal=   None    Shift=    0.000
 RMSDP=7.64D-07 MaxDP=1.95D-05 DE=-9.91D-08 OVMax= 1.24D-04

 Cycle  12  Pass 1  IDiag  1:
 RMSU=  2.41D-07    CP:  9.91D-01  1.34D+00  9.46D-01  8.99D-01  1.40D+00
                    CP:  1.74D+00  1.47D+00  1.63D+00  1.64D+00  1.45D+00
                    CP:  1.19D+00
 E= -1028.75530810052     Delta-E=       -0.000000013612 Rises=F Damp=F
 DIIS: error= 1.32D-06 at cycle  12 NSaved=  12.
 NSaved=12 IEnMin=12 EnMin= -1028.75530810052     IErMin=12 ErrMin= 1.32D-06
 ErrMax= 1.32D-06  0.00D+00 EMaxC= 1.00D-01 BMatC= 6.41D-10 BMatP= 4.12D-09
 IDIUse=1 WtCom= 1.00D+00 WtEn= 0.00D+00
 Coeff-Com:  0.119D-03-0.231D-03-0.491D-03-0.840D-03 0.686D-03 0.797D-02
 Coeff-Com:  0.713D-02-0.107D-01-0.771D-01-0.723D-01 0.296D+00 0.849D+00
 Coeff:      0.119D-03-0.231D-03-0.491D-03-0.840D-03 0.686D-03 0.797D-02
 Coeff:      0.713D-02-0.107D-01-0.771D-01-0.723D-01 0.296D+00 0.849D+00
 Gap=     0.240 Goal=   None    Shift=    0.000
 RMSDP=3.17D-07 MaxDP=8.52D-06 DE=-1.36D-08 OVMax= 5.01D-05

 Cycle  13  Pass 1  IDiag  1:
 RMSU=  9.02D-08    CP:  9.91D-01  1.34D+00  9.46D-01  8.99D-01  1.41D+00
                    CP:  1.75D+00  1.47D+00  1.65D+00  1.69D+00  1.55D+00
                    CP:  1.41D+00  1.09D+00
 E= -1028.75530810270     Delta-E=       -0.000000002178 Rises=F Damp=F
 DIIS: error= 4.24D-07 at cycle  13 NSaved=  13.
 NSaved=13 IEnMin=13 EnMin= -1028.75530810270     IErMin=13 ErrMin= 4.24D-07
 ErrMax= 4.24D-07  0.00D+00 EMaxC= 1.00D-01 BMatC= 5.64D-11 BMatP= 6.41D-10
 IDIUse=1 WtCom= 1.00D+00 WtEn= 0.00D+00
 Coeff-Com: -0.164D-04 0.352D-04 0.572D-04-0.249D-04-0.351D-03-0.796D-04
 Coeff-Com:  0.255D-02 0.746D-02-0.704D-02-0.422D-01-0.692D-01 0.152D+00
 Coeff-Com:  0.956D+00
 Coeff:     -0.164D-04 0.352D-04 0.572D-04-0.249D-04-0.351D-03-0.796D-04
 Coeff:      0.255D-02 0.746D-02-0.704D-02-0.422D-01-0.692D-01 0.152D+00
 Coeff:      0.956D+00
 Gap=     0.240 Goal=   None    Shift=    0.000
 RMSDP=9.39D-08 MaxDP=2.01D-06 DE=-2.18D-09 OVMax= 1.21D-05

 Cycle  14  Pass 1  IDiag  1:
 RMSU=  3.23D-08    CP:  9.91D-01  1.34D+00  9.46D-01  8.99D-01  1.41D+00
                    CP:  1.75D+00  1.47D+00  1.65D+00  1.70D+00  1.57D+00
                    CP:  1.48D+00  1.26D+00  1.20D+00
 E= -1028.75530810288     Delta-E=       -0.000000000181 Rises=F Damp=F
 DIIS: error= 1.35D-07 at cycle  14 NSaved=  14.
 NSaved=14 IEnMin=14 EnMin= -1028.75530810288     IErMin=14 ErrMin= 1.35D-07
 ErrMax= 1.35D-07  0.00D+00 EMaxC= 1.00D-01 BMatC= 5.05D-12 BMatP= 5.64D-11
 IDIUse=1 WtCom= 1.00D+00 WtEn= 0.00D+00
 Coeff-Com: -0.115D-04 0.228D-04 0.474D-04 0.562D-04-0.122D-03-0.610D-03
 Coeff-Com: -0.269D-03 0.256D-02 0.525D-02-0.592D-04-0.353D-01-0.421D-01
 Coeff-Com:  0.212D+00 0.859D+00
 Coeff:     -0.115D-04 0.228D-04 0.474D-04 0.562D-04-0.122D-03-0.610D-03
 Coeff:     -0.269D-03 0.256D-02 0.525D-02-0.592D-04-0.353D-01-0.421D-01
 Coeff:      0.212D+00 0.859D+00
 Gap=     0.240 Goal=   None    Shift=    0.000
 RMSDP=1.83D-08 MaxDP=3.99D-07 DE=-1.81D-10 OVMax= 2.31D-06

 Cycle  15  Pass 1  IDiag  1:
 RMSU=  1.11D-08    CP:  9.91D-01  1.34D+00  9.46D-01  8.99D-01  1.41D+00
                    CP:  1.75D+00  1.47D+00  1.65D+00  1.70D+00  1.57D+00
                    CP:  1.48D+00  1.28D+00  1.32D+00  1.16D+00
 E= -1028.75530810290     Delta-E=       -0.000000000019 Rises=F Damp=F
 DIIS: error= 7.96D-08 at cycle  15 NSaved=  15.
 NSaved=15 IEnMin=15 EnMin= -1028.75530810290     IErMin=15 ErrMin= 7.96D-08
 ErrMax= 7.96D-08  0.00D+00 EMaxC= 1.00D-01 BMatC= 8.82D-13 BMatP= 5.05D-12
 IDIUse=1 WtCom= 1.00D+00 WtEn= 0.00D+00
 Coeff-Com: -0.227D-05 0.406D-05 0.109D-04 0.301D-04 0.168D-05-0.264D-03
 Coeff-Com: -0.543D-03-0.321D-03 0.288D-02 0.667D-02-0.137D-02-0.469D-01
 Coeff-Com: -0.869D-01 0.239D+00 0.888D+00
 Coeff:     -0.227D-05 0.406D-05 0.109D-04 0.301D-04 0.168D-05-0.264D-03
 Coeff:     -0.543D-03-0.321D-03 0.288D-02 0.667D-02-0.137D-02-0.469D-01
 Coeff:     -0.869D-01 0.239D+00 0.888D+00
 Gap=     0.240 Goal=   None    Shift=    0.000
 RMSDP=1.16D-08 MaxDP=2.94D-07 DE=-1.93D-11 OVMax= 1.61D-06

 Cycle  16  Pass 1  IDiag  1:
 RMSU=  4.35D-09    CP:  9.91D-01  1.34D+00  9.46D-01  8.99D-01  1.41D+00
                    CP:  1.75D+00  1.47D+00  1.65D+00  1.70D+00  1.58D+00
                    CP:  1.49D+00  1.30D+00  1.38D+00  1.33D+00  1.14D+00
 E= -1028.75530810291     Delta-E=       -0.000000000010 Rises=F Damp=F
 DIIS: error= 2.46D-08 at cycle  16 NSaved=  16.
 NSaved=16 IEnMin=16 EnMin= -1028.75530810291     IErMin=16 ErrMin= 2.46D-08
 ErrMax= 2.46D-08  0.00D+00 EMaxC= 1.00D-01 BMatC= 1.15D-13 BMatP= 8.82D-13
 IDIUse=1 WtCom= 1.00D+00 WtEn= 0.00D+00
 Coeff-Com:  0.880D-06-0.182D-05-0.316D-05-0.627D-06 0.114D-04 0.129D-04
 Coeff-Com: -0.818D-04-0.312D-03 0.233D-04 0.138D-02 0.397D-02-0.562D-02
 Coeff-Com: -0.344D-01-0.669D-01 0.207D+00 0.895D+00
 Coeff:      0.880D-06-0.182D-05-0.316D-05-0.627D-06 0.114D-04 0.129D-04
 Coeff:     -0.818D-04-0.312D-03 0.233D-04 0.138D-02 0.397D-02-0.562D-02
 Coeff:     -0.344D-01-0.669D-01 0.207D+00 0.895D+00
 Gap=     0.240 Goal=   None    Shift=    0.000
 RMSDP=3.03D-09 MaxDP=1.07D-07 DE=-9.55D-12 OVMax= 3.54D-07

 Error on total polarization charges =  0.00862
 SCF Done:  E(RwB97XD) =  -1028.75530810     A.U. after   16 cycles
            NFock= 16  Conv=0.30D-08     -V/T= 2.0045
 KE= 1.024182570949D+03 PE=-4.616067456643D+03 EE= 1.461118777176D+03
 Leave Link  502 at Mon Jul 13 16:11:43 2020, MaxMem=  7784628224 cpu:             877.1 elap:              88.4
 (Enter /gpfs/loomis/apps/avx/software/Gaussian/16-C.01_AVX/g16/l801.exe)
 DoSCS=F DFT=T ScalE2(SS,OS)=  1.000000  1.000000
 ExpMin= 1.22D-01 ExpMax= 1.11D+05 ExpMxC= 1.07D+03 IAcc=3 IRadAn=         5 AccDes= 0.00D+00
 HarFok:  IExCor=  205 AccDes= 0.00D+00 IRadAn=         5 IDoV=-2 UseB2=F ITyADJ=14
 ICtDFT= 12500011 ScaDFX=  1.000000  1.000000  1.000000  1.000000
 Largest valence mixing into a core orbital is  9.46D-05
 Largest core mixing into a valence orbital is  3.26D-05
 Range of M.O.s used for correlation:    21   273
 NBasis=   273 NAE=    59 NBE=    59 NFC=    20 NFV=     0
 NROrb=    253 NOA=    39 NOB=    39 NVA=   214 NVB=   214

 **** Warning!!: The largest alpha MO coefficient is  0.10005163D+02

 Leave Link  801 at Mon Jul 13 16:11:43 2020, MaxMem=  7784628224 cpu:               1.0 elap:               0.1
 (Enter /gpfs/loomis/apps/avx/software/Gaussian/16-C.01_AVX/g16/l914.exe)
 RHF ground state
 Keep R1, R2, and R3 ints in memory in canonical form, NReq=4262515490.
 FoFCou: FMM=F IPFlag=           0 FMFlag=           0 FMFlg1=           0
         NFxFlg=           0 DoJE=F BraDBF=F KetDBF=F FulRan=T
         wScrn=  0.000000 ICntrl=       600 IOpCl=  0 I1Cent=           0 NGrid=           0
         NMat0=    1 NMatS0=  37401 NMatT0=    0 NMatD0=    1 NMtDS0=    0 NMtDT0=    0
 Symmetry not used in FoFCou.
 Two-electron integral symmetry not used.
 MDV=  7784628224 DFT=T DoStab=F Mixed=T DoRPA=T DoScal=F NonHer=T
 NEqPCM:  Using equilibrium solvation (IEInf=0, Eps=   2.2280, EpsInf=   2.1319)
 Making orbital integer symmetry assigments:
    12 initial guesses have been made.
 Convergence on wavefunction:    0.000001000000000
 Davidson Disk Diagonalization:  ConvIn= 1.00D-06 SkipCon=T Conv= 1.00D-06.
 Max sub-space:  2000 roots to seek:    12 dimension of matrix:        16692
 Iteration     1 Dimension    12 NMult     0 NNew     12
 CISAX will form    12 AO SS matrices at one time.
 NMat=    12 NSing=    12 JSym2X= 0.
 New state      2 was old state      4
 Excitation Energies [eV] at current iteration:
 Root      1 :     3.462989708814820
 Root      2 :     3.806792662531386
 Root      3 :     4.850022269741495
 Root      4 :     5.243608036279791
 Root      5 :     5.326783757745230
 Root      6 :     5.729484172776599
 Root      7 :     5.893825470036432
 Root      8 :     6.399325799921910
 Root      9 :     6.507336240664897
 Root     10 :     6.809840384221428
 Root     11 :     6.955980847374432
 Root     12 :     7.197092125888997
 Iteration     2 Dimension    18 NMult    12 NNew      6
 CISAX will form     6 AO SS matrices at one time.
 NMat=     6 NSing=     6 JSym2X= 0.
 Root      1 not converged, maximum delta is    0.043660863667085
 Root      2 not converged, maximum delta is    0.110605668337618
 Root      3 not converged, maximum delta is    0.079056746544887
 Excitation Energies [eV] at current iteration:
 Root      1 :     2.951676081940564   Change is   -0.511313626874256
 Root      2 :     3.597696802785125   Change is   -0.209095859746261
 Root      3 :     4.381555750118348   Change is   -0.468466519623148
 Iteration     3 Dimension    24 NMult    18 NNew      6
 CISAX will form     6 AO SS matrices at one time.
 NMat=     6 NSing=     6 JSym2X= 0.
 Root      1 not converged, maximum delta is    0.015692610127161
 Root      2 not converged, maximum delta is    0.030386691393324
 Root      3 not converged, maximum delta is    0.027197145820248
 Excitation Energies [eV] at current iteration:
 Root      1 :     2.921265473666369   Change is   -0.030410608274195
 Root      2 :     3.577505445052696   Change is   -0.020191357732430
 Root      3 :     4.352668304065429   Change is   -0.028887446052918
 Iteration     4 Dimension    30 NMult    24 NNew      6
 CISAX will form     6 AO SS matrices at one time.
 NMat=     6 NSing=     6 JSym2X= 0.
 Root      1 not converged, maximum delta is    0.008549561556885
 Root      2 not converged, maximum delta is    0.010497940800229
 Root      3 not converged, maximum delta is    0.016801163783695
 Excitation Energies [eV] at current iteration:
 Root      1 :     2.916501904828342   Change is   -0.004763568838027
 Root      2 :     3.575543389105851   Change is   -0.001962055946844
 Root      3 :     4.346505754836574   Change is   -0.006162549228855
 Iteration     5 Dimension    36 NMult    30 NNew      6
 CISAX will form     6 AO SS matrices at one time.
 NMat=     6 NSing=     6 JSym2X= 0.
 Root      1 not converged, maximum delta is    0.002117849401234
 Root      2 not converged, maximum delta is    0.001438585917574
 Root      3 not converged, maximum delta is    0.009464381180354
 Excitation Energies [eV] at current iteration:
 Root      1 :     2.915899878553339   Change is   -0.000602026275003
 Root      2 :     3.575427175480996   Change is   -0.000116213624856
 Root      3 :     4.345138006737638   Change is   -0.001367748098937
 Iteration     6 Dimension    42 NMult    36 NNew      6
 CISAX will form     6 AO SS matrices at one time.
 NMat=     6 NSing=     6 JSym2X= 0.
 Root      1 not converged, maximum delta is    0.000357744296761
 Root      2 not converged, maximum delta is    0.000357230166079
 Root      3 not converged, maximum delta is    0.002519828348917
 Excitation Energies [eV] at current iteration:
 Root      1 :     2.915857469779301   Change is   -0.000042408774038
 Root      2 :     3.575421340781239   Change is   -0.000005834699757
 Root      3 :     4.344948861522687   Change is   -0.000189145214951
 Iteration     7 Dimension    48 NMult    42 NNew      6
 CISAX will form     6 AO SS matrices at one time.
 NMat=     6 NSing=     6 JSym2X= 0.
 Root      1 not converged, maximum delta is    0.000110617233633
 Root      2 not converged, maximum delta is    0.000133271285067
 Root      3 not converged, maximum delta is    0.000454386929499
 Excitation Energies [eV] at current iteration:
 Root      1 :     2.915853859057280   Change is   -0.000003610722021
 Root      2 :     3.575420811321008   Change is   -0.000000529460231
 Root      3 :     4.344929593317924   Change is   -0.000019268204762
 Iteration     8 Dimension    54 NMult    48 NNew      6
 CISAX will form     6 AO SS matrices at one time.
 NMat=     6 NSing=     6 JSym2X= 0.
 Root      1 not converged, maximum delta is    0.000032205080074
 Root      2 not converged, maximum delta is    0.000012900729944
 Root      3 not converged, maximum delta is    0.000155684758185
 Excitation Energies [eV] at current iteration:
 Root      1 :     2.915853648826529   Change is   -0.000000210230752
 Root      2 :     3.575420787574407   Change is   -0.000000023746600
 Root      3 :     4.344927787671117   Change is   -0.000001805646807
 Iteration     9 Dimension    60 NMult    54 NNew      6
 CISAX will form     6 AO SS matrices at one time.
 NMat=     6 NSing=     6 JSym2X= 0.
 Root      1 not converged, maximum delta is    0.000010372437612
 Root      2 not converged, maximum delta is    0.000002159617217
 Root      3 not converged, maximum delta is    0.000026705744805
 Excitation Energies [eV] at current iteration:
 Root      1 :     2.915853631714130   Change is   -0.000000017112399
 Root      2 :     3.575420786565294   Change is   -0.000000001009114
 Root      3 :     4.344927673624427   Change is   -0.000000114046690
 Iteration    10 Dimension    66 NMult    60 NNew      6
 CISAX will form     6 AO SS matrices at one time.
 NMat=     6 NSing=     6 JSym2X= 0.
 Root      1 not converged, maximum delta is    0.000003453917369
 Root      2 not converged, maximum delta is    0.000001231133653
 Root      3 not converged, maximum delta is    0.000013194684877
 Excitation Energies [eV] at current iteration:
 Root      1 :     2.915853630587018   Change is   -0.000000001127111
 Root      2 :     3.575420786498041   Change is   -0.000000000067253
 Root      3 :     4.344927661080902   Change is   -0.000000012543524
 Iteration    11 Dimension    72 NMult    66 NNew      6
 CISAX will form     6 AO SS matrices at one time.
 NMat=     6 NSing=     6 JSym2X= 0.
 Root      1 has converged.
 Root      2 has converged.
 Root      3 not converged, maximum delta is    0.000003126507964
 Excitation Energies [eV] at current iteration:
 Root      1 :     2.915853630499337   Change is   -0.000000000087681
 Root      2 :     3.575420786489718   Change is   -0.000000000008323
 Root      3 :     4.344927660051826   Change is   -0.000000001029077
 Iteration    12 Dimension    74 NMult    72 NNew      2
 CISAX will form     2 AO SS matrices at one time.
 NMat=     2 NSing=     2 JSym2X= 0.
 Root      1 has converged.
 Root      2 has converged.
 Root      3 has converged.
 Excitation Energies [eV] at current iteration:
 Root      1 :     2.915853630498914   Change is   -0.000000000000423
 Root      2 :     3.575420786489764   Change is    0.000000000000046
 Root      3 :     4.344927659989312   Change is   -0.000000000062513
 Convergence achieved on expansion vectors.
 ***********************************************************************
 Excited states from <AA,BB:AA,BB> singles matrix:
 ***********************************************************************
 
 1PDM for each excited state written to RWF  633
 Ground to excited state transition densities written to RWF  633
 Ground to excited state transition electric dipole moments (Au):
       state          X           Y           Z        Dip. S.      Osc.
         1         1.1633     -2.2163     -0.0000      6.2652      0.4476
         2        -0.0000      0.0000     -0.0019      0.0000      0.0000
         3        -1.5693      0.9836      0.0000      3.4303      0.3651
 Ground to excited state transition velocity dipole moments (Au):
       state          X           Y           Z        Dip. S.      Osc.
         1        -0.1207      0.2413      0.0000      0.0728      0.4530
         2         0.0000     -0.0000      0.0009      0.0000      0.0000
         3         0.2458     -0.1477     -0.0000      0.0822      0.3433
 Ground to excited state transition magnetic dipole moments (Au):
       state          X           Y           Z
         1         0.0000      0.0000     -1.0845
         2         0.3753      0.0110      0.0000
         3        -0.0000      0.0000     -1.1358
 Ground to excited state transition velocity quadrupole moments (Au):
       state          XX          YY          ZZ          XY          XZ          YZ
         1         0.0502      0.6429     -0.0133     -0.2838     -0.0000      0.0000
         2        -0.0000     -0.0000      0.0000      0.0000     -0.0081      0.0185
         3        -0.5078      0.5673      0.0053      0.0866      0.0000      0.0000
 <0|del|b> * <b|rxdel|0> + <0|del|b> * <b|delr+rdel|0>
 Rotatory Strengths (R) in cgs (10**-40 erg-esu-cm/Gauss)
       state          XX          YY          ZZ    R(velocity)    E-M Angle
         1         0.0041     -0.0188      0.0164      0.0006       90.00
         2        -0.0002      0.0009      0.0008      0.0005       90.00
         3         0.0049      0.0046     -0.0067      0.0009       90.00
 1/2[<0|r|b>*<b|rxdel|0> + (<0|rxdel|b>*<b|r|0>)*]
 Rotatory Strengths (R) in cgs (10**-40 erg-esu-cm/Gauss)
       state          XX          YY          ZZ     R(length)
         1        -0.0076      0.0357     -0.0275      0.0002
         2         0.0018     -0.0002      0.0000      0.0005
         3        -0.0053     -0.0023      0.0109      0.0011
  1/2[<0|del|b>*<b|r|0> + (<0|r|b>*<b|del|0>)*] (Au)
       state          X           Y           Z        Dip. S.   Osc.(frdel)
         1        -0.1405     -0.5348     -0.0000      0.6753      0.4502
         2        -0.0000     -0.0000     -0.0000      0.0000      0.0000
         3        -0.3857     -0.1453     -0.0000      0.5310      0.3540

 Excitation energies and oscillator strengths:
 
 Excited state symmetry could not be determined.
 Excited State   1:      Singlet-?Sym    2.9159 eV  425.21 nm  f=0.4476  <S**2>=0.000
      59 -> 60         0.69821
 This state for optimization and/or second-order correction.
 Total Energy, E(TD-HF/TD-DFT) =  -1028.64815245    
 Copying the excited state density for this state as the 1-particle RhoCI density.
 
 Excited state symmetry could not be determined.
 Excited State   2:      Singlet-?Sym    3.5754 eV  346.77 nm  f=0.0000  <S**2>=0.000
      57 -> 60         0.68405
      57 -> 62         0.11483
      57 -> 64         0.11633
 
 Excited state symmetry could not be determined.
 Excited State   3:      Singlet-?Sym    4.3449 eV  285.35 nm  f=0.3651  <S**2>=0.000
      58 -> 60         0.68366
 SavETr:  write IOETrn=   770 NScale= 10 NData=  16 NLR=1 NState=    3 LETran=      64.
 The selected state is a singlet.
 CISGrd: IGrad=2 NXY=2 DFT=T
 CISAX will form     1 AO SS matrices at one time.
 NMat=     1 NSing=     1 JSym2X= 0.
 GePol: Maximum number of non-zero 1st derivatives   =     260
 Leave Link  914 at Mon Jul 13 16:14:34 2020, MaxMem=  7784628224 cpu:            1681.3 elap:             170.7
 (Enter /gpfs/loomis/apps/avx/software/Gaussian/16-C.01_AVX/g16/l1002.exe)
 Minotr:  Closed shell wavefunction.
          Computing CIS/TDA/TD derivatives.
          Using Z-Vector for PSCF gradient.
          Skipping F1 and S1 gradient terms here.
          IDoAtm=1111111111111111111111111
 NEqPCM:  Using equilibrium solvation (IEInf=0, Eps=   2.2280, EpsInf=   2.1319)
          Frozen-core window.
          Direct CPHF calculation.
          Differentiating once with respect to electric field.
                with respect to dipole field.
          Differentiating once with respect to nuclear coordinates.
          Requested convergence is 1.0D-10 RMS, and 1.0D-09 maximum.
          NewPWx=F KeepS1=T KeepF1=T KeepIn=T MapXYZ=F SortEE=F KeepMc=T.
 Keep R1 ints in memory in canonical form, NReq=1421536237.
 FoFCou: FMM=F IPFlag=           0 FMFlag=           0 FMFlg1=           0
         NFxFlg=           0 DoJE=F BraDBF=F KetDBF=F FulRan=T
         wScrn=  0.000000 ICntrl=       600 IOpCl=  0 I1Cent=           0 NGrid=           0
         NMat0=    1 NMatS0=  37401 NMatT0=    0 NMatD0=    1 NMtDS0=    0 NMtDT0=    0
 Symmetry not used in FoFCou.
 Two-electron integral symmetry not used.
          MDV=    7784628224 using IRadAn=       5.
          Solving linear equations separately, MaxMat=       0.
          There are     1 degrees of freedom in the 1st order CPHF.  IDoFFX=0 NUNeed=     1.
 LinEq1:  Iter=  0 NonCon=     1 RMS=6.74D-03 Max=5.26D-01 NDo=     1
 AX will form     1 AO Fock derivatives at one time.
 LinEq1:  Iter=  1 NonCon=     1 RMS=3.10D-03 Max=1.74D-01 NDo=     1
 LinEq1:  Iter=  2 NonCon=     1 RMS=1.64D-03 Max=4.11D-02 NDo=     1
 LinEq1:  Iter=  3 NonCon=     1 RMS=7.44D-04 Max=2.04D-02 NDo=     1
 LinEq1:  Iter=  4 NonCon=     1 RMS=4.38D-04 Max=1.29D-02 NDo=     1
 LinEq1:  Iter=  5 NonCon=     1 RMS=2.15D-04 Max=6.68D-03 NDo=     1
 LinEq1:  Iter=  6 NonCon=     1 RMS=8.89D-05 Max=4.08D-03 NDo=     1
 LinEq1:  Iter=  7 NonCon=     1 RMS=4.58D-05 Max=1.51D-03 NDo=     1
 LinEq1:  Iter=  8 NonCon=     1 RMS=1.70D-05 Max=5.75D-04 NDo=     1
 LinEq1:  Iter=  9 NonCon=     1 RMS=8.25D-06 Max=2.27D-04 NDo=     1
 LinEq1:  Iter= 10 NonCon=     1 RMS=2.99D-06 Max=6.27D-05 NDo=     1
 LinEq1:  Iter= 11 NonCon=     1 RMS=1.52D-06 Max=6.30D-05 NDo=     1
 LinEq1:  Iter= 12 NonCon=     1 RMS=6.25D-07 Max=1.34D-05 NDo=     1
 LinEq1:  Iter= 13 NonCon=     1 RMS=3.34D-07 Max=1.01D-05 NDo=     1
 LinEq1:  Iter= 14 NonCon=     1 RMS=1.12D-07 Max=3.13D-06 NDo=     1
 LinEq1:  Iter= 15 NonCon=     1 RMS=5.57D-08 Max=1.62D-06 NDo=     1
 LinEq1:  Iter= 16 NonCon=     1 RMS=2.53D-08 Max=8.58D-07 NDo=     1
 LinEq1:  Iter= 17 NonCon=     1 RMS=1.15D-08 Max=3.84D-07 NDo=     1
 LinEq1:  Iter= 18 NonCon=     1 RMS=5.48D-09 Max=1.76D-07 NDo=     1
 LinEq1:  Iter= 19 NonCon=     1 RMS=2.37D-09 Max=7.42D-08 NDo=     1
 LinEq1:  Iter= 20 NonCon=     1 RMS=1.22D-09 Max=2.90D-08 NDo=     1
 LinEq1:  Iter= 21 NonCon=     1 RMS=3.97D-10 Max=1.28D-08 NDo=     1
 LinEq1:  Iter= 22 NonCon=     1 RMS=1.68D-10 Max=5.29D-09 NDo=     1
 LinEq1:  Iter= 23 NonCon=     1 RMS=7.22D-11 Max=1.56D-09 NDo=     1
 LinEq1:  Iter= 24 NonCon=     0 RMS=2.14D-11 Max=5.47D-10 NDo=     1
 Linear equations converged to 1.000D-10 1.000D-09 after    24 iterations.
 End of Minotr F.D. properties file   721 does not exist.
 End of Minotr F.D. properties file   722 does not exist.
 End of Minotr F.D. properties file   788 does not exist.
 Leave Link 1002 at Mon Jul 13 16:16:14 2020, MaxMem=  7784628224 cpu:             737.3 elap:             100.0
 (Enter /gpfs/loomis/apps/avx/software/Gaussian/16-C.01_AVX/g16/l601.exe)
 Copying SCF densities to generalized density rwf, IOpCl= 0 IROHF=0.

 **********************************************************************

            Population analysis using the SCF Density.

 **********************************************************************

 Alpha  occ. eigenvalues --  -89.10442 -19.20630 -14.51120 -10.41525 -10.38074
 Alpha  occ. eigenvalues --  -10.36397 -10.35669 -10.33446 -10.33147 -10.32656
 Alpha  occ. eigenvalues --  -10.32498 -10.31526 -10.30890 -10.30585 -10.29335
 Alpha  occ. eigenvalues --  -10.28533  -8.12506  -6.07369  -6.07010  -6.06522
 Alpha  occ. eigenvalues --   -1.14252  -1.09159  -0.98947  -0.95999  -0.93485
 Alpha  occ. eigenvalues --   -0.89292  -0.87148  -0.83719  -0.81310  -0.76931
 Alpha  occ. eigenvalues --   -0.74677  -0.72243  -0.69082  -0.67950  -0.65813
 Alpha  occ. eigenvalues --   -0.60907  -0.59727  -0.56804  -0.56171  -0.56022
 Alpha  occ. eigenvalues --   -0.55035  -0.53847  -0.53088  -0.50451  -0.49109
 Alpha  occ. eigenvalues --   -0.48846  -0.48764  -0.46994  -0.45452  -0.44911
 Alpha  occ. eigenvalues --   -0.44136  -0.43153  -0.42484  -0.40116  -0.36794
 Alpha  occ. eigenvalues --   -0.33731  -0.31535  -0.31525  -0.25968
 Alpha virt. eigenvalues --   -0.01922   0.03603   0.05394   0.06362   0.09327
 Alpha virt. eigenvalues --    0.10627   0.14111   0.14782   0.16592   0.17410
 Alpha virt. eigenvalues --    0.18776   0.20132   0.21078   0.21284   0.23104
 Alpha virt. eigenvalues --    0.23520   0.24362   0.25694   0.28204   0.29678
 Alpha virt. eigenvalues --    0.30926   0.33958   0.35507   0.35691   0.36592
 Alpha virt. eigenvalues --    0.37884   0.39326   0.40069   0.41674   0.44364
 Alpha virt. eigenvalues --    0.46839   0.48271   0.50833   0.51357   0.51442
 Alpha virt. eigenvalues --    0.52753   0.52811   0.53059   0.54348   0.55360
 Alpha virt. eigenvalues --    0.56344   0.56470   0.56481   0.56964   0.57734
 Alpha virt. eigenvalues --    0.58089   0.58738   0.59501   0.59572   0.60201
 Alpha virt. eigenvalues --    0.61066   0.61490   0.61936   0.62871   0.62936
 Alpha virt. eigenvalues --    0.64796   0.66591   0.67041   0.68667   0.69237
 Alpha virt. eigenvalues --    0.70448   0.70802   0.71963   0.72519   0.73026
 Alpha virt. eigenvalues --    0.74329   0.75256   0.75923   0.77002   0.78268
 Alpha virt. eigenvalues --    0.78661   0.79831   0.81078   0.81596   0.83632
 Alpha virt. eigenvalues --    0.84418   0.88687   0.89694   0.91634   0.92620
 Alpha virt. eigenvalues --    0.94057   0.94384   0.96011   0.97234   0.97351
 Alpha virt. eigenvalues --    0.98535   0.99225   1.00456   1.00938   1.01314
 Alpha virt. eigenvalues --    1.02683   1.05249   1.05538   1.06269   1.07313
 Alpha virt. eigenvalues --    1.08361   1.09507   1.10021   1.10795   1.11131
 Alpha virt. eigenvalues --    1.12516   1.13292   1.13889   1.14668   1.15046
 Alpha virt. eigenvalues --    1.17036   1.19499   1.20038   1.22776   1.24115
 Alpha virt. eigenvalues --    1.26221   1.27753   1.31908   1.33259   1.34318
 Alpha virt. eigenvalues --    1.34854   1.36949   1.38463   1.40853   1.45726
 Alpha virt. eigenvalues --    1.49043   1.49435   1.53127   1.54591   1.54926
 Alpha virt. eigenvalues --    1.56358   1.57290   1.57449   1.57809   1.59385
 Alpha virt. eigenvalues --    1.60496   1.61939   1.62556   1.65382   1.67604
 Alpha virt. eigenvalues --    1.68423   1.70075   1.71040   1.71509   1.71971
 Alpha virt. eigenvalues --    1.72154   1.73428   1.73550   1.74386   1.75047
 Alpha virt. eigenvalues --    1.78257   1.79213   1.80369   1.81699   1.81815
 Alpha virt. eigenvalues --    1.83148   1.84582   1.84648   1.85329   1.86067
 Alpha virt. eigenvalues --    1.87359   1.89533   1.91051   1.91611   1.92076
 Alpha virt. eigenvalues --    1.93851   1.94385   1.95613   1.96392   1.98258
 Alpha virt. eigenvalues --    1.99969   2.00263   2.01871   2.03794   2.04608
 Alpha virt. eigenvalues --    2.06876   2.07753   2.10069   2.10281   2.15799
 Alpha virt. eigenvalues --    2.17354   2.17356   2.22189   2.23867   2.25718
 Alpha virt. eigenvalues --    2.26954   2.29276   2.34008   2.37657   2.39059
 Alpha virt. eigenvalues --    2.41679   2.42546   2.46320   2.48507   2.49802
 Alpha virt. eigenvalues --    2.51884   2.54824   2.59588   2.61146   2.63197
 Alpha virt. eigenvalues --    2.68183   2.70543   2.73979   2.76442   2.79422
 Alpha virt. eigenvalues --    2.81534   2.81990   2.84149   2.87611   2.90992
 Alpha virt. eigenvalues --    2.92881   3.02102   3.16957   3.30497   3.49237
 Alpha virt. eigenvalues --    3.51526   3.58034   3.67351   3.82278
          Condensed to atoms (all electrons):
               1          2          3          4          5          6
     1  C    4.734522   0.488976   0.008932  -0.052893  -0.011757   0.507936
     2  C    0.488976   5.352226   0.276595  -0.055374  -0.073477  -0.003910
     3  C    0.008932   0.276595   4.920384   0.517199  -0.000611  -0.067857
     4  C   -0.052893  -0.055374   0.517199   4.789893   0.516259  -0.011406
     5  C   -0.011757  -0.073477  -0.000611   0.516259   4.728785   0.499253
     6  C    0.507936  -0.003910  -0.067857  -0.011406   0.499253   4.734978
     7  H    0.404300  -0.039319   0.009242  -0.000640   0.008095  -0.039144
     8  H   -0.000573   0.010688  -0.027867   0.395096  -0.040802   0.007378
     9  H    0.008837  -0.000510   0.008283  -0.038065   0.405475  -0.044005
    10  H   -0.042662   0.009440  -0.000506   0.008432  -0.042181   0.407740
    11  N    0.003592  -0.032511   0.380720  -0.054039   0.002126   0.000351
    12  S   -0.069925   0.333850  -0.131325   0.004400   0.000146   0.004405
    13  C   -0.000250  -0.000438   0.015366  -0.000258   0.000013   0.000000
    14  C   -0.000009   0.000070   0.000495   0.000008  -0.000000  -0.000000
    15  C    0.000004  -0.000189  -0.000011   0.000019  -0.000001   0.000000
    16  C    0.000000  -0.000005   0.000003  -0.000000   0.000000   0.000000
    17  H   -0.000009   0.000173   0.000004   0.000001   0.000000   0.000000
    18  C    0.000000   0.000010  -0.000035  -0.000000  -0.000000  -0.000000
    19  C   -0.000000   0.000000   0.000002   0.000000  -0.000000   0.000000
    20  H   -0.000000  -0.000000  -0.000000   0.000000  -0.000000  -0.000000
    21  H   -0.000000   0.000000  -0.000001  -0.000000  -0.000000   0.000000
    22  H    0.000000  -0.000000  -0.000000  -0.000000   0.000000  -0.000000
    23  C    0.003351  -0.050216  -0.103605   0.002696   0.000347  -0.000351
    24  O    0.000002  -0.000191  -0.000348   0.000050   0.000001  -0.000000
    25  H    0.000259   0.014258  -0.046466  -0.010213  -0.000225  -0.000016
               7          8          9         10         11         12
     1  C    0.404300  -0.000573   0.008837  -0.042662   0.003592  -0.069925
     2  C   -0.039319   0.010688  -0.000510   0.009440  -0.032511   0.333850
     3  C    0.009242  -0.027867   0.008283  -0.000506   0.380720  -0.131325
     4  C   -0.000640   0.395096  -0.038065   0.008432  -0.054039   0.004400
     5  C    0.008095  -0.040802   0.405475  -0.042181   0.002126   0.000146
     6  C   -0.039144   0.007378  -0.044005   0.407740   0.000351   0.004405
     7  H    0.648559   0.000027  -0.000147  -0.011192  -0.000091  -0.007718
     8  H    0.000027   0.638137  -0.011998  -0.000107  -0.004628  -0.000242
     9  H   -0.000147  -0.011998   0.655605  -0.012107  -0.000099   0.000020
    10  H   -0.011192  -0.000107  -0.012107   0.655213   0.000005  -0.000149
    11  N   -0.000091  -0.004628  -0.000099   0.000005   5.852596  -0.046219
    12  S   -0.007718  -0.000242   0.000020  -0.000149  -0.046219  15.452455
    13  C    0.000001   0.000035  -0.000000  -0.000000  -0.024775  -0.070956
    14  C    0.000001   0.000001   0.000000  -0.000000   0.003826  -0.010106
    15  C   -0.000000  -0.000005   0.000000   0.000000  -0.007083   0.005138
    16  C    0.000000  -0.000000  -0.000000  -0.000000  -0.000080   0.000246
    17  H    0.000001   0.000000   0.000000  -0.000000   0.000255   0.007919
    18  C    0.000000  -0.000000   0.000000  -0.000000  -0.000541  -0.000156
    19  C   -0.000000   0.000000  -0.000000   0.000000   0.000024   0.000020
    20  H    0.000000  -0.000000   0.000000   0.000000   0.000001   0.000006
    21  H   -0.000000   0.000000  -0.000000   0.000000   0.000007   0.000004
    22  H    0.000000  -0.000000  -0.000000  -0.000000  -0.000000  -0.000000
    23  C    0.000238  -0.000621   0.000006   0.000005   0.512919   0.311363
    24  O    0.000000  -0.000149   0.000000  -0.000000  -0.037405  -0.000066
    25  H    0.000007   0.000785  -0.000011  -0.000000   0.379833   0.006641
              13         14         15         16         17         18
     1  C   -0.000250  -0.000009   0.000004   0.000000  -0.000009   0.000000
     2  C   -0.000438   0.000070  -0.000189  -0.000005   0.000173   0.000010
     3  C    0.015366   0.000495  -0.000011   0.000003   0.000004  -0.000035
     4  C   -0.000258   0.000008   0.000019  -0.000000   0.000001  -0.000000
     5  C    0.000013  -0.000000  -0.000001   0.000000   0.000000  -0.000000
     6  C    0.000000  -0.000000   0.000000   0.000000   0.000000  -0.000000
     7  H    0.000001   0.000001  -0.000000   0.000000   0.000001   0.000000
     8  H    0.000035   0.000001  -0.000005  -0.000000   0.000000  -0.000000
     9  H   -0.000000   0.000000   0.000000  -0.000000   0.000000   0.000000
    10  H   -0.000000  -0.000000   0.000000  -0.000000  -0.000000  -0.000000
    11  N   -0.024775   0.003826  -0.007083  -0.000080   0.000255  -0.000541
    12  S   -0.070956  -0.010106   0.005138   0.000246   0.007919  -0.000156
    13  C    5.499717   0.422586   0.161698  -0.004990  -0.041162  -0.041113
    14  C    0.422586   4.874763   0.009783   0.538864   0.398497  -0.063269
    15  C    0.161698   0.009783   4.734692  -0.054556   0.005925   0.453638
    16  C   -0.004990   0.538864  -0.054556   4.762997  -0.030853  -0.018076
    17  H   -0.041162   0.398497   0.005925  -0.030853   0.674798  -0.000903
    18  C   -0.041113  -0.063269   0.453638  -0.018076  -0.000903   4.919897
    19  C   -0.053569  -0.018316  -0.003303   0.475887   0.008174   0.496238
    20  H    0.009142  -0.036535  -0.000154   0.400137  -0.011899   0.008256
    21  H    0.015939  -0.000646  -0.024953   0.007675   0.000054   0.371650
    22  H   -0.001756   0.009873   0.008557  -0.046427  -0.000202  -0.039524
    23  C    0.349882  -0.097239  -0.068047   0.006206  -0.021688   0.011213
    24  O   -0.101911   0.006596   0.668071  -0.000187  -0.000076  -0.066834
    25  H   -0.052835  -0.000963  -0.006191   0.000071  -0.000098   0.003792
              19         20         21         22         23         24
     1  C   -0.000000  -0.000000  -0.000000   0.000000   0.003351   0.000002
     2  C    0.000000  -0.000000   0.000000  -0.000000  -0.050216  -0.000191
     3  C    0.000002  -0.000000  -0.000001  -0.000000  -0.103605  -0.000348
     4  C    0.000000   0.000000  -0.000000  -0.000000   0.002696   0.000050
     5  C   -0.000000  -0.000000  -0.000000   0.000000   0.000347   0.000001
     6  C    0.000000  -0.000000   0.000000  -0.000000  -0.000351  -0.000000
     7  H   -0.000000   0.000000  -0.000000   0.000000   0.000238   0.000000
     8  H    0.000000  -0.000000   0.000000  -0.000000  -0.000621  -0.000149
     9  H   -0.000000   0.000000  -0.000000  -0.000000   0.000006   0.000000
    10  H    0.000000   0.000000   0.000000  -0.000000   0.000005  -0.000000
    11  N    0.000024   0.000001   0.000007  -0.000000   0.512919  -0.037405
    12  S    0.000020   0.000006   0.000004  -0.000000   0.311363  -0.000066
    13  C   -0.053569   0.009142   0.015939  -0.001756   0.349882  -0.101911
    14  C   -0.018316  -0.036535  -0.000646   0.009873  -0.097239   0.006596
    15  C   -0.003303  -0.000154  -0.024953   0.008557  -0.068047   0.668071
    16  C    0.475887   0.400137   0.007675  -0.046427   0.006206  -0.000187
    17  H    0.008174  -0.011899   0.000054  -0.000202  -0.021688  -0.000076
    18  C    0.496238   0.008256   0.371650  -0.039524   0.011213  -0.066834
    19  C    4.749552  -0.046954  -0.047132   0.402861   0.000359   0.004465
    20  H   -0.046954   0.688669  -0.000158  -0.012572  -0.000399   0.000001
    21  H   -0.047132  -0.000158   0.683020  -0.012873  -0.000499   0.005291
    22  H    0.402861  -0.012572  -0.012873   0.676910   0.000007  -0.000074
    23  C    0.000359  -0.000399  -0.000499   0.000007   5.113107  -0.015679
    24  O    0.004465   0.000001   0.005291  -0.000074  -0.015679   7.854245
    25  H   -0.000362  -0.000000  -0.000001   0.000005   0.035253   0.085254
              25
     1  C    0.000259
     2  C    0.014258
     3  C   -0.046466
     4  C   -0.010213
     5  C   -0.000225
     6  C   -0.000016
     7  H    0.000007
     8  H    0.000785
     9  H   -0.000011
    10  H   -0.000000
    11  N    0.379833
    12  S    0.006641
    13  C   -0.052835
    14  C   -0.000963
    15  C   -0.006191
    16  C    0.000071
    17  H   -0.000098
    18  C    0.003792
    19  C   -0.000362
    20  H   -0.000000
    21  H   -0.000001
    22  H    0.000005
    23  C    0.035253
    24  O    0.085254
    25  H    0.623711
 Mulliken charges:
               1
     1  C    0.017368
     2  C   -0.230145
     3  C    0.241408
     4  C   -0.011163
     5  C    0.008555
     6  C    0.004649
     7  H    0.027780
     8  H    0.034846
     9  H    0.028716
    10  H    0.028070
    11  N    0.071215
    12  S    0.210250
    13  C   -0.080367
[...]
 0000001,-0.00002120,-0.00003685,-0.00000004,0.00719183,-0.01016231,-0.
 00000016,0.00196718,-0.00217181,-0.00000002,0.05215385,0.01887955,0.00
 000157,0.02715675,-0.20691180,-0.00000554,0.02440998,-0.01076516,0.000
 00122,0.06818554,0.63200933,-0.00000003,-0.00000006,-0.00004594,-0.000
 00030,-0.00000011,0.00004969,-0.00000033,0.00000052,-0.00045244,0.0000
 0030,-0.00000006,-0.00027056,-0.00000001,0.00000020,0.00000212,-0.0000
 0006,-0.00000009,0.00001786,0.,0.,-0.00003726,0.,0.,-0.00001914,0.,0.,
 0.00002370,0.,0.,0.00003162,0.00000018,-0.00000048,0.00235126,0.000000
 13,-0.00000014,-0.00073266,0.00000084,0.00000144,0.00226905,0.,-0.0000
 0462,-0.05335089,0.00000093,-0.00000038,-0.00520497,0.00000657,0.00001
 754,0.12369987,0.00024336,0.00005010,0.,-0.00063853,0.00030248,0.00000
 007,0.00038971,-0.00022967,-0.00000002,-0.00007822,0.00012846,0.,0.000
 06304,-0.00008618,0.,0.00002971,-0.00004093,0.,-0.00002118,-0.00000928
 ,0.,0.00003742,0.00000502,0.,0.00001307,-0.00000501,0.,0.00003757,-0.0
 0000964,0.,0.00062890,0.00066249,0.00000007,-0.00140205,0.00160430,-0.
 00000021,-0.00437298,-0.02972530,-0.00000135,-0.08598300,-0.08539522,-
 0.00000376,-0.00445266,0.00327564,-0.00000015,0.01029248,0.02148241,0.
 00000088,0.08878886,0.00007193,-0.00001754,-0.00000001,-0.00019187,0.0
 0061967,0.,0.00032766,-0.00002383,-0.00000005,-0.00000562,0.00006522,0
 .,0.00002038,0.00006355,0.,-0.00010620,-0.00002929,0.,-0.00001431,0.00
 001297,0.,0.00002377,-0.00000443,0.,-0.00000152,0.00000155,0.,0.000003
 54,0.00000197,0.,0.00006179,0.00035680,0.00000012,0.00033327,-0.000716
 63,0.,0.00061837,-0.00346309,-0.00000035,-0.08386649,-0.31134056,-0.00
 001213,0.00007912,0.00249784,-0.00000030,-0.01074785,-0.01693420,-0.00
 000091,0.08912104,0.33067036,0.00000003,0.00000004,0.00001087,0.000000
 11,0.00000010,-0.00046080,0.00000020,-0.00000026,0.00058504,-0.0000001
 4,0.00000004,0.00011078,0.,-0.00000009,-0.00001742,0.00000003,0.000000
 03,0.00000086,0.,0.,0.00002770,0.,0.,0.00002065,0.,0.,-0.00000472,0.,0
 .,-0.00000684,0.00000008,0.00000051,-0.00203841,-0.00000029,0.00000009
 ,0.00167256,0.00000044,-0.00000152,0.00745071,-0.00000405,-0.00001206,
 -0.03551056,-0.00000029,0.00000031,0.00943534,-0.00000030,-0.00000053,
 0.00368652,0.00000439,0.00001343,0.02038210,-0.00120134,0.00018215,0.0
 0000017,-0.00506156,-0.00356774,0.00000022,-0.00528827,0.01237114,-0.0
 0000047,0.00559782,-0.00103768,-0.00000008,-0.00020657,0.00238844,0.,0
 .00070130,-0.00154561,-0.00000001,-0.00010561,0.00010181,0.,0.00005097
 ,-0.00003069,0.,0.00011009,0.00000788,0.,0.00008158,-0.00006348,-0.000
 00003,0.01168059,-0.00187829,0.00000041,0.00053527,-0.00319805,0.00000
 006,0.02387464,0.01364960,0.00000070,-0.03865889,0.01995330,0.00000007
 ,-0.13486692,0.07222790,0.00000277,-0.00739450,-0.08526516,-0.00000304
 ,-0.00057523,0.00021247,0.00000015,0.65815483,0.00059502,-0.00006093,-
 0.00000003,0.00001068,-0.00007978,0.,0.00076661,-0.00125184,0.00000009
 ,-0.00088203,0.00016867,0.,0.00012762,-0.00032447,0.,-0.00026095,0.000
 14631,0.,-0.00000059,0.00001193,0.,-0.00000518,0.00000274,0.,-0.000014
 67,-0.00000409,0.,0.00001581,0.00000646,0.,-0.00029010,0.00044681,-0.0
 0000019,0.00142290,-0.00094703,0.,0.01472141,-0.02821586,-0.00000051,0
 .00682099,-0.00287548,-0.00000006,0.07566623,-0.22408996,-0.00000428,-
 0.03650235,-0.00593067,-0.00000070,-0.00025594,0.00072963,-0.00000001,
 0.05625492,0.69135175,0.00000008,0.,0.00018818,0.00000007,0.00000013,0
 .00047727,0.00000031,-0.00000034,0.00126441,-0.00000016,0.00000002,-0.
 00014118,0.00000003,-0.00000006,-0.00006787,-0.00000004,0.00000005,-0.
 00011442,0.,0.,0.00012071,0.,0.,0.00008135,0.,0.,0.00000762,0.,0.,-0.0
 0006222,-0.00000038,0.00000078,-0.00322785,0.,-0.00000018,0.00160013,0
 .00000077,-0.00000173,0.01342402,-0.00000054,0.00000079,-0.00527320,0.
 00000282,-0.00000430,-0.06674311,-0.00000112,-0.00000146,0.00739171,0.
 00000005,0.00000011,-0.00214161,0.00000624,0.00002069,0.10844324,0.001
 04965,0.00053086,-0.00000016,0.00640070,0.00351621,-0.00000035,0.00711
 161,-0.01435582,0.00000026,-0.00693044,0.00131163,0.00000012,0.0002362
 0,-0.00361859,0.00000004,0.00017266,0.00201044,0.,0.00006897,-0.000090
 94,-0.00000003,0.00000604,0.00005479,-0.00000002,-0.00008755,-0.000029
 39,0.,-0.00003894,0.00005843,0.00000004,-0.01229248,0.00838094,0.00000
 023,-0.00002343,0.00163460,-0.00000003,-0.01354925,-0.01330086,-0.0000
 0070,0.05661695,0.00603304,0.00000091,-0.05745206,0.01672413,-0.000000
 93,-0.14326546,-0.01011864,-0.00000071,-0.00315065,0.00455271,0.000000
 05,-0.31631642,-0.07252653,-0.00000402,0.66830904,0.00012618,0.0010350
 3,-0.00000008,0.00359164,0.00139153,-0.00000008,0.00370135,-0.00604512
 ,0.00000022,-0.00385367,0.00083555,0.00000007,0.00005955,-0.00268957,0
 .00000003,0.00106765,0.00103745,-0.00000002,-0.00001012,-0.00004820,0.
 ,0.00003004,0.00003563,0.,0.00000499,-0.00005549,0.,0.00002304,0.00002
 675,0.00000001,-0.00134323,0.00567949,-0.00000048,-0.00173354,0.000704
 03,0.00000004,-0.03096337,-0.00700485,-0.00000048,0.05807500,-0.055331
 31,-0.00000148,-0.00824827,0.02474373,-0.00000030,-0.10281482,-0.32104
 830,-0.00000919,0.00335216,-0.00122318,-0.00000026,-0.00401674,-0.1299
 3519,-0.00000267,-0.05696630,0.70409913,0.,0.00000003,0.00012803,0.000
 00014,0.00000003,-0.00039276,0.00000007,-0.00000021,-0.00100669,-0.000
 00014,0.00000003,0.00007587,0.,-0.00000009,0.00009162,0.00000004,0.000
 00003,0.00001630,0.,0.,-0.00005736,0.,0.,-0.00011439,0.,0.,0.00000042,
 0.,0.,0.00001057,-0.00000002,0.00000004,0.00103585,-0.00000006,0.00000
 011,0.00039674,-0.00000132,-0.00000037,-0.00143261,0.00000244,-0.00000
 203,0.00822148,-0.00000055,0.00000154,0.00144333,-0.00000388,-0.000008
 73,-0.05808137,0.00000004,-0.00000020,0.00372593,-0.00000201,-0.000003
 41,-0.05007879,0.00000191,0.00001914,0.11487086,0.00006519,-0.00011108
 ,0.,-0.00010809,0.00013074,0.,-0.00003416,-0.00008150,0.,0.00002822,0.
 00001498,0.,0.00000572,0.00010548,0.,-0.00015239,-0.00000357,0.,0.0000
 0675,0.00000559,0.,-0.00000091,-0.00000637,0.,-0.00001047,0.00000796,0
 .,-0.00000909,0.00000485,0.,-0.00019122,0.00039649,0.,0.00006347,0.000
 01163,0.,-0.00016733,0.00349128,0.00000013,-0.01513536,-0.00859861,-0.
 00000049,0.00056226,0.00045005,0.00000004,-0.32965612,-0.07010512,-0.0
 0000466,0.00073263,0.00011107,0.,0.00148642,-0.00139575,-0.00000010,-0
 .00375508,0.00218745,0.,0.34661215,0.00001326,-0.00000839,0.,-0.000070
 80,-0.00008039,0.,0.00001612,0.00020980,-0.00000002,0.00005973,-0.0000
 5747,0.,0.00001345,0.00005095,0.,-0.00002033,-0.00003008,0.,0.00000040
 ,-0.00000136,0.,-0.00000018,0.00000018,0.,0.00000225,-0.00000312,0.,0.
 00000156,-0.00000121,0.,0.00035610,-0.00041938,0.00000001,0.00002518,0
 .00003426,0.,0.00322770,-0.00377008,-0.00000024,0.02220694,0.00847983,
 0.00000032,0.00065715,-0.00079015,0.00000005,-0.06978392,-0.07692735,-
 0.00000199,-0.00023798,0.00083040,0.00000011,-0.00065807,-0.00540899,-
 0.00000041,-0.02925554,-0.00033062,-0.00000041,0.07439837,0.07617134,0
 .,0.,-0.00001121,-0.00000003,-0.00000001,0.00008235,0.,0.00000005,0.00
 044117,0.00000003,0.,0.00006527,0.,0.00000002,-0.00005772,0.,0.,0.0000
 0641,0.,0.,0.00001163,0.,0.,0.00003604,0.,0.,-0.00001738,0.,0.,-0.0000
 0665,0.00000002,-0.00000003,0.00011259,0.00000002,-0.00000001,-0.00021
 169,-0.00000005,-0.00000025,0.00415752,0.00000056,0.,0.00496665,0.,-0.
 00000006,-0.00153838,-0.00000464,-0.00000205,-0.03480683,0.00000001,0.
 00000015,-0.00225941,0.00000007,-0.00000030,0.00657887,-0.00000103,-0.
 00000024,0.00631722,0.00000505,0.00000239,0.02170565,-0.00011253,0.000
 03533,0.,0.00010886,0.00005216,0.,-0.00010276,0.00007520,0.,0.00003649
 ,0.00000452,0.,-0.00002001,-0.00003253,0.,0.00008005,0.00001065,0.,0.0
 0000017,-0.00000458,0.,-0.00000387,0.00000098,0.,0.00000249,-0.0000011
 0,0.,-0.00000332,-0.00000126,0.,0.00025492,-0.00020074,-0.00000003,-0.
 00030794,0.00015393,0.00000002,-0.00369111,0.00297098,0.00000001,-0.00
 009247,0.00028731,0.,0.00912403,0.02161167,0.00000093,-0.00587215,0.00
 010378,-0.00000008,0.00009790,-0.00008617,0.,-0.08210067,-0.08349192,-
 0.00000359,-0.00243674,-0.02884651,-0.00000111,-0.00032775,-0.00144829
 ,-0.00000004,0.08148937,0.00003813,0.00005575,0.00000002,-0.00010789,-
 0.00013020,0.00000002,0.00004625,0.00006689,0.00000001,0.00000325,-0.0
 0000302,0.,0.00000444,-0.00003828,0.,0.00005798,-0.00002087,0.,-0.0000
 0673,0.00000246,0.,0.00000602,0.00000379,0.,0.00000793,-0.00000361,0.,
 0.00001097,-0.00000352,0.,-0.00013274,0.00006950,-0.00000003,0.0002621
 5,-0.00020872,0.00000003,0.00399069,-0.00205740,-0.00000005,0.00037362
 ,0.00035435,0.00000001,-0.01243071,-0.01698179,-0.00000099,-0.00077893
 ,0.00136966,-0.00000017,-0.00006512,-0.00008801,-0.00000004,-0.0820458
 6,-0.32087019,-0.00001151,0.00245427,-0.00113279,-0.00000027,0.0000583
 8,-0.00019096,0.00000003,0.08951552,0.33658874,0.,-0.00000003,-0.00032
 768,-0.00000012,-0.00000005,-0.00029128,-0.00000012,0.00000018,-0.0000
 3457,0.00000010,-0.00000002,0.00001471,0.,0.00000007,-0.00003856,-0.00
 000003,-0.00000003,0.00007859,0.,0.,-0.00003579,0.,0.,0.00002815,0.,0.
 ,-0.00000468,0.,0.,0.00006635,0.00000002,-0.00000029,0.00065362,0.0000
 0009,0.00000002,-0.00084695,0.00000002,0.00000034,0.00264319,0.0000001
 1,-0.00000019,0.00001642,-0.00000102,-0.00000090,0.00394683,-0.0000001
 4,-0.00000018,0.00547076,-0.00000003,0.,0.00024436,-0.00000342,-0.0000
 1191,-0.03126617,0.00000027,-0.00000012,0.00420514,0.,-0.00000001,-0.0
 0042277,0.00000383,0.00001268,0.02076077,0.00004638,-0.00003675,0.,-0.
 00001177,0.00010992,0.,0.00014783,-0.00010935,-0.00000002,-0.00005313,
 0.00000981,0.,0.00001165,0.00001826,0.,-0.00006864,0.00000895,0.,0.000
 00213,0.00000289,0.,0.00000448,-0.00000502,0.,-0.00000639,0.00000250,0
 .,-0.00000396,0.00000390,0.,0.00010998,0.00041468,0.00000004,-0.000055
 66,0.00010075,-0.00000002,-0.00033794,-0.00051185,-0.00000006,0.000653
 88,-0.00228497,-0.00000010,-0.00244000,-0.00420787,-0.00000011,0.00912
 493,-0.00880233,-0.00000025,0.00033893,-0.00037286,0.,-0.01434521,0.02
 417611,0.00000063,-0.19542365,0.14495125,0.00000357,0.00069807,0.00033
 240,0.00000005,0.00106342,-0.00029230,0.,0.20269360,-0.00000460,0.0000
 7854,0.,0.00017820,0.00009167,-0.00000001,0.00021201,-0.00035721,0.,-0
 .00019298,0.00004779,0.,0.00000187,-0.00016106,0.,0.00009601,0.0000550
 5,0.,-0.00000510,-0.00000484,0.,0.00000497,0.00000601,0.,0.00000514,-0
 .00000427,0.,0.00000641,-0.00000244,0.,-0.00026963,0.00014532,0.000000
 03,-0.00010620,0.00002228,0.,-0.00065297,0.00024375,0.,-0.00283958,-0.
 00423371,-0.00000033,-0.00240234,-0.00015228,-0.00000021,0.02308490,-0
 .01514494,-0.00000044,0.00105774,-0.00104148,-0.00000005,-0.00725106,0
 .00848239,0.00000014,0.14342665,-0.20955551,-0.00000475,-0.00016427,0.
 00102086,0.00000018,0.00033400,0.00064113,0.00000012,-0.15435910,0.219
 04389,-0.00000002,0.00000003,0.00000528,0.00000006,0.,0.00008741,0.000
 00005,-0.00000006,0.00015408,-0.00000004,0.00000001,0.00001094,0.,-0.0
 0000004,-0.00000365,0.00000004,0.00000001,-0.00000712,0.,0.,0.00000926
 ,0.,0.,0.00001626,0.,0.,-0.00000060,0.,0.,-0.00001109,0.00000006,0.000
 00010,-0.00024099,-0.00000004,-0.00000002,-0.00007287,0.00000011,-0.00
 000006,-0.00081488,-0.00000010,-0.00000032,0.00607339,-0.00000029,-0.0
 0000033,0.00647732,0.00000078,-0.00000059,0.00322385,0.00000002,-0.000
 00004,0.00053847,-0.00000018,0.00000039,0.00332605,0.00000338,-0.00000
 485,-0.03341320,0.00000005,0.00000017,-0.00412089,0.00000005,0.0000001
 6,-0.00340269,-0.00000376,0.00000529,0.02325420,-0.00294693,-0.0066313
 4,0.00000007,-0.00497564,0.02126515,-0.00000003,-0.05769193,0.03603287
 ,0.00000093,0.00624544,-0.00279101,-0.00000004,-0.00091030,0.00459942,
 -0.00000004,-0.00514565,-0.00167771,0.00000009,0.00025770,-0.00066079,
 0.00000001,-0.00068961,-0.00000046,-0.00000001,0.00016877,-0.00010795,
 0.,-0.00064924,-0.00011807,0.00000003,-0.35891336,-0.04103848,0.000006
 47,-0.05039287,-0.05277597,0.00000130,-0.16903841,0.07718143,0.0000021
 8,-0.04355431,0.03175096,0.00000056,0.04121165,0.01574913,0.00000041,-
 0.00361378,-0.01029304,-0.00000003,0.00021604,0.00069995,-0.00000050,-
 0.00520123,-0.00334432,-0.00000059,-0.00049352,0.00407947,0.00000035,-
 0.00058675,0.00065182,-0.00000005,0.00065380,-0.00101818,0.00000017,0.
 00007014,-0.00005482,-0.00000016,0.68303670,-0.00008596,0.00001951,-0.
 00000009,0.02420788,-0.02119319,0.00000007,0.02162003,0.01050869,-0.00
 000083,0.00065254,-0.00673279,0.00000016,-0.00049386,-0.00110666,0.000
 00006,0.00135092,-0.00084332,0.,0.00006719,-0.00048319,0.00000001,-0.0
 0047505,0.00012351,0.,0.00027669,-0.00051978,0.,-0.00020032,0.00004620
 ,0.00000001,-0.02996274,-0.12750588,0.00000026,-0.01653848,-0.17192377
 ,0.00000318,0.06101817,-0.18307608,-0.00000208,0.02264032,0.01221382,0
 .00000015,0.01909925,-0.04715526,-0.00000082,-0.00489507,0.00156247,-0
 .00000060,-0.00195702,-0.00004627,0.00000054,-0.01313991,-0.00352684,-
 0.00000014,0.00783134,-0.00005680,0.00000010,-0.00079115,0.00099520,0.
 00000003,0.00076223,-0.00053952,-0.00000031,-0.00001221,0.00036355,0.0
 0000014,-0.06718156,0.52811299,-0.00000004,0.00000017,0.00094324,-0.00
 000035,-0.00000022,-0.00082794,0.00000039,-0.00000028,0.00520588,0.000
 00004,0.00000018,0.00165678,0.00000002,-0.00000010,0.00114167,0.000000
 22,0.00000005,0.00079927,0.,0.00000002,-0.00040191,0.00000001,0.,-0.00
 056840,-0.00000001,0.,-0.00043794,0.00000001,0.,-0.00020217,0.00000792
 ,0.00000161,-0.02709937,0.00000089,0.00000270,-0.01814295,0.00000129,-
 0.00000198,-0.03392345,-0.00000049,0.00000082,0.00813188,0.00000137,-0
 .00000106,0.00359780,0.00000020,-0.00000084,0.00447793,0.00000004,0.00
 000014,-0.00324921,-0.00000070,-0.00000008,-0.00033667,0.00000030,0.00
 000040,-0.00054052,0.00000002,0.00000005,-0.00099915,0.00000001,-0.000
 00012,0.00207422,0.00000004,0.00000002,-0.00042343,-0.00001121,-0.0000
 0180,0.06264755,-0.00043126,0.00132756,0.00000007,-0.00068758,0.000499
 70,-0.00000011,0.00563277,0.00109122,-0.00000031,-0.00002122,0.0000215
 1,0.00000003,-0.00004492,-0.00092616,0.00000004,0.00157679,0.00006388,
 -0.00000002,-0.00015292,0.00015272,-0.00000001,0.00023992,0.00000922,-
 0.00000003,0.00005500,0.00000430,0.,0.00009414,-0.00000430,-0.00000002
 ,0.00369845,0.02381087,0.00000173,-0.00019225,-0.00150668,-0.00000010,
 -0.03102189,-0.05199087,-0.00000192,0.00430119,-0.00451038,-0.00000012
 ,-0.49390823,-0.09634171,-0.00000708,-0.00960013,-0.00781759,-0.000000
 24,-0.00147759,-0.00102026,-0.00000004,-0.09241401,0.01850965,-0.00000
 069,0.01548864,0.01689665,0.00000056,-0.00019841,-0.00049302,0.0000000
 1,0.00219547,0.00006321,0.00000032,-0.00239600,-0.00006137,-0.00000002
 ,-0.01959565,0.00734222,-0.00000002,0.61519167,-0.00037123,-0.00019781
 ,0.,0.00034913,-0.00196025,0.00000013,-0.00542406,0.00009161,-0.000000
 03,0.00056491,-0.00035952,0.,0.00002509,0.00045273,0.,0.00000525,-0.00
 041530,0.,0.00004294,-0.00015396,0.00000001,0.00008973,0.00003597,0.,0
 .00008285,-0.00006441,0.,0.00002202,-0.00003584,0.,0.01310429,-0.02171
 835,-0.00000150,0.00023114,0.00088681,-0.00000008,-0.04868924,-0.01794
 139,-0.00000095,-0.00115505,-0.01039598,-0.00000066,-0.09753667,-0.111
 20272,-0.00000210,0.00042961,-0.00322770,-0.00000005,-0.00245605,-0.00
 057656,-0.00000014,0.02917383,0.02270625,0.00000016,0.00367500,-0.0013
 3716,-0.00000039,-0.00012085,0.00031812,0.00000009,-0.00197921,0.00316
 784,0.00000051,0.00135875,0.00045800,0.00000009,0.00127551,0.00996687,
 0.00000045,0.11165872,0.14024677,-0.00000011,0.00000003,0.00022722,0.0
 0000012,-0.00000027,-0.00018068,-0.00000053,0.00000010,-0.00036233,0.0
 0000006,0.,0.00009391,-0.00000003,-0.00000002,0.00016628,0.00000009,-0
 .00000004,0.00002918,0.,-0.00000002,-0.00008662,0.,0.,-0.00018027,0.,0
 .,-0.00001766,0.,0.,-0.00005841,0.00000126,-0.00000174,0.00733116,-0.0
 0000005,0.00000010,-0.00086754,-0.00000134,-0.00000206,0.01797088,-0.0
 0000033,-0.00000025,0.00239465,-0.00000705,-0.00000178,-0.05656756,-0.
 00000003,-0.00000047,0.00021384,-0.00000002,0.00000005,-0.00217668,-0.
 00000070,0.00000040,0.01602955,0.00000044,0.00000032,0.00429476,0.,0.,
 0.00005984,0.,0.00000022,-0.00355911,0.00000002,0.00000002,-0.00057544
 ,0.00000002,0.00000077,-0.00310652,0.00000876,0.00000476,0.02503493,0.
 00126827,0.00042372,-0.00000004,-0.00363167,0.00453698,-0.00000006,0.0
 1448959,0.01918897,-0.00000006,0.00110425,0.00016813,-0.00000005,-0.00
 009708,-0.00016039,0.,-0.00024093,0.00002591,0.,-0.00016320,0.00031733
 ,0.,-0.00094513,-0.00045306,0.,-0.00001211,-0.00001028,0.,-0.00004180,
 -0.00005009,0.,-0.11671992,-0.13235503,0.00000018,-0.00422265,-0.00278
 932,0.00000008,0.00198138,-0.00006528,-0.00000020,-0.00047093,-0.00002
 684,0.00000003,-0.01000636,0.00093523,0.00000011,0.00062671,-0.0002980
 0,-0.00000006,0.00024247,0.00017609,0.00000011,0.00146292,-0.00011764,
 0.00000021,-0.00024477,0.00065015,-0.00000005,0.00007228,0.00000570,0.
 00000001,-0.00003564,-0.00001434,-0.00000004,0.00017694,-0.00004385,0.
 00000001,-0.00746106,-0.03113545,0.00000006,0.00366801,-0.00435642,-0.
 00000061,0.11920046,-0.00009421,-0.00021546,0.00000006,0.00325382,0.00
 178911,-0.00000016,-0.00015024,-0.01490118,-0.00000008,-0.00264806,0.0
 0204113,0.00000007,-0.00020300,-0.00150703,0.00000005,0.00000920,0.000
 97936,-0.00000002,0.00009848,0.00001931,0.,0.00047454,-0.00037318,-0.0
 0000003,-0.00014961,0.00014288,0.,-0.00001777,0.00008324,-0.00000001,-
 0.13392293,-0.38421799,0.00000161,0.00264390,0.00661221,-0.00000035,-0
 .00530735,0.00301137,0.00000046,0.00529951,-0.00219536,-0.00000017,0.0
 1688609,0.00625925,0.00000061,-0.00360547,0.00515282,0.00000028,-0.000
 56847,-0.00034488,-0.00000024,-0.00282510,-0.00053163,-0.00000008,-0.0
 0193242,-0.00379421,-0.00000018,0.00000395,-0.00009141,0.00000002,0.00
 017404,-0.00005122,0.00000014,-0.00049556,-0.00004249,-0.00000009,-0.0
 0559201,0.00079654,-0.00000012,-0.01677911,-0.00874403,-0.00000013,0.1
 4544778,0.39012285,-0.00000003,0.00000017,0.00072817,0.,0.00000012,0.0
 0316954,0.00000034,0.00000067,-0.00248213,0.00000011,-0.00000006,-0.00
 125160,-0.00000004,-0.00000003,-0.00042770,0.00000011,-0.00000002,-0.0
 0006778,-0.00000002,0.00000002,-0.00004516,0.00000001,-0.00000001,0.00
 007992,0.,0.,0.00009729,0.,0.,0.00001811,-0.00000044,-0.00000065,-0.01
 461219,0.00000018,0.00000028,0.00332732,0.00000004,-0.00000015,-0.0016
 4409,-0.00000022,-0.00000004,-0.00018361,0.00000059,0.00000056,0.00063
 158,0.00000004,-0.00000010,0.00009228,-0.00000003,0.,-0.00002624,-0.00
 000024,-0.00000010,0.00051997,0.00000002,0.00000004,0.00028357,0.,0.,-
 0.00008913,0.00000001,0.,0.00002715,-0.00000003,0.,-0.00008965,0.00000
 006,0.00000122,-0.00041658,-0.00000081,-0.00000031,-0.00610740,0.00000
 034,-0.00000163,0.01846837\\0.00036642,0.00165912,0.,0.00227071,0.0035
 7378,-0.00000008,0.00436846,-0.00003490,0.00000007,-0.00023955,0.00050
 787,0.00000006,-0.00016860,-0.00144421,0.,0.00026460,0.00035110,-0.000
 00002,-0.00008429,0.00022870,-0.00000003,0.00013970,-0.00002128,0.,-0.
 00000735,-0.00001126,0.,-0.00000520,0.00002770,0.,-0.00563238,0.004360
 55,0.00000061,0.00155467,0.00460281,-0.00000017,-0.00325443,0.00224495
 ,-0.00000006,0.00349387,-0.00051044,0.00000008,0.00603236,0.00133533,0
 .00000037,-0.00120402,0.00277310,0.00000006,0.00013240,-0.00003625,0.0
 0000011,-0.00177397,0.00010900,-0.00000010,-0.00248525,-0.00067473,-0.
 00000003,-0.00007600,-0.00003294,-0.00000005,-0.00015495,-0.00000658,-
 0.00000002,-0.00026759,-0.00012391,-0.00000001,-0.00338919,-0.00215888
 ,-0.00000018,-0.00339651,-0.00458424,-0.00000010,0.00351611,-0.0121343
 8,-0.00000051\\\@
 The archive entry for this job was punched.


 At the touch of love, everyone becomes a poet.
                                -- Plato
 Job cpu time:       0 days  2 hours 49 minutes 55.1 seconds.
 Elapsed time:       0 days  0 hours 17 minutes 31.4 seconds.
 File lengths (MBytes):  RWF=   1380 Int=      0 D2E=      0 Chk=     48 Scr=      8
 Normal termination of Gaussian 16 at Mon Jul 13 17:06:43 2020.
