 Entering Gaussian System, Link 0=g16
 Initial command:
 /gpfs/loomis/apps/avx/software/Gaussian/16-C.01_AVX/g16/l1.exe "/home/fas/batista/pev4/scratch60/gauss-scratch/Gau-216815.inp" -scrdir="/home/fas/batista/pev4/scratch60/gauss-scratch/"
 Entering Link 1 = /gpfs/loomis/apps/avx/software/Gaussian/16-C.01_AVX/g16/l1.exe PID=    216816.
  
 Copyright (c) 1988-2019, Gaussian, Inc.  All Rights Reserved.
  
 This is part of the Gaussian(R) 16 program.  It is based on
 the Gaussian(R) 09 system (copyright 2009, Gaussian, Inc.),
 the Gaussian(R) 03 system (copyright 2003, Gaussian, Inc.),
 the Gaussian(R) 98 system (copyright 1998, Gaussian, Inc.),
 the Gaussian(R) 94 system (copyright 1995, Gaussian, Inc.),
 the Gaussian 92(TM) system (copyright 1992, Gaussian, Inc.),
 the Gaussian 90(TM) system (copyright 1990, Gaussian, Inc.),
 the Gaussian 88(TM) system (copyright 1988, Gaussian, Inc.),
 the Gaussian 86(TM) system (copyright 1986, Carnegie Mellon
 University), and the Gaussian 82(TM) system (copyright 1983,
 Carnegie Mellon University). Gaussian is a federally registered
 trademark of Gaussian, Inc.
  
 This software contains proprietary and confidential information,
 including trade secrets, belonging to Gaussian, Inc.
  
 This software is provided under written license and may be
 used, copied, transmitted, or stored only in accord with that
 written license.
  
 The following legend is applicable only to US Government
 contracts under FAR:
  
                    RESTRICTED RIGHTS LEGEND
  
 Use, reproduction and disclosure by the US Government is
 subject to restrictions as set forth in subparagraphs (a)
 and (c) of the Commercial Computer Software - Restricted
 Rights clause in FAR 52.227-19.
  
 Gaussian, Inc.
 340 Quinnipiac St., Bldg. 40, Wallingford CT 06492
  
  
 ---------------------------------------------------------------
 Warning -- This program may not be used in any manner that
 competes with the business of Gaussian, Inc. or will provide
 assistance to any competitor of Gaussian, Inc.  The licensee
 of this program is prohibited from giving any competitor of
 Gaussian, Inc. access to this program.  By using this program,
 the user acknowledges that Gaussian, Inc. is engaged in the
 business of creating and licensing software in the field of
 computational chemistry and represents and warrants to the
 licensee that it is not a competitor of Gaussian, Inc. and that
 it will not use this program in any manner prohibited above.
 ---------------------------------------------------------------
  

 Cite this work as:
 Gaussian 16, Revision C.01,
 M. J. Frisch, G. W. Trucks, H. B. Schlegel, G. E. Scuseria, 
 M. A. Robb, J. R. Cheeseman, G. Scalmani, V. Barone, 
 G. A. Petersson, H. Nakatsuji, X. Li, M. Caricato, A. V. Marenich, 
 J. Bloino, B. G. Janesko, R. Gomperts, B. Mennucci, H. P. Hratchian, 
 J. V. Ortiz, A. F. Izmaylov, J. L. Sonnenberg, D. Williams-Young, 
 F. Ding, F. Lipparini, F. Egidi, J. Goings, B. Peng, A. Petrone, 
 T. Henderson, D. Ranasinghe, V. G. Zakrzewski, J. Gao, N. Rega, 
 G. Zheng, W. Liang, M. Hada, M. Ehara, K. Toyota, R. Fukuda, 
 J. Hasegawa, M. Ishida, T. Nakajima, Y. Honda, O. Kitao, H. Nakai, 
 T. Vreven, K. Throssell, J. A. Montgomery, Jr., J. E. Peralta, 
 F. Ogliaro, M. J. Bearpark, J. J. Heyd, E. N. Brothers, K. N. Kudin, 
 V. N. Staroverov, T. A. Keith, R. Kobayashi, J. Normand, 
 K. Raghavachari, A. P. Rendell, J. C. Burant, S. S. Iyengar, 
 J. Tomasi, M. Cossi, J. M. Millam, M. Klene, C. Adamo, R. Cammi, 
 J. W. Ochterski, R. L. Martin, K. Morokuma, O. Farkas, 
 J. B. Foresman, and D. J. Fox, Gaussian, Inc., Wallingford CT, 2019.
 
 ******************************************
 Gaussian 16:  ES64L-G16RevC.01  3-Jul-2019
                14-Jul-2020 
 ******************************************
 %chk=config_4_18.chk
 %mem=58GB
 %nprocshared=10
 Will use up to   10 processors via shared memory.
 ----------------------------------------------------------------------
 #p opt=addgic freq td wb97xd/cc-pvdz nosymm int=ultrafine scrf=(solven
 t=CarbonTetraChloride)
 ----------------------------------------------------------------------
 1/18=20,19=15,26=6,38=1,145=903/1,3;
 2/9=110,12=2,15=1,17=6,18=5,40=1/2;
 3/5=16,11=9,25=1,30=1,70=2201,71=1,72=11,74=-58,75=-5/1,2,3,8;
 4//1;
 5/5=2,38=5,53=11/2;
 8/6=1,10=1/1;
 9/15=2,42=1,70=2/14;
 10/5=4,31=1/2;
 6/7=2,8=2,9=2,10=2/1;
 7/12=6,13=5,30=1/1,2,3,16;
 1/18=20,19=15,26=6,145=903/3(2);
 2/9=110,15=1/2;
 99//99;
 2/9=110,15=1/2;
 3/5=16,11=9,25=1,30=1,70=2205,71=1,72=11,74=-58,75=-5/1,2,3,8;
 4/5=5,16=3,69=1/1;
 5/5=2,38=5,53=11/2;
 8/6=1,10=1/1;
 9/15=2,42=1,49=4,70=2/14;
 10/5=4,31=1/2;
 7/12=6,13=5,30=1/1,2,3,16;
 1/18=20,19=15,26=6,145=903/3(-8);
 2/9=110,15=1/2;
 6/7=2,8=2,9=2,10=2/1;
 99/9=10/99;
 Leave Link    1 at Tue Jul 14 14:38:02 2020, MaxMem=  7784628224 cpu:               4.7 elap:               0.5
 (Enter /gpfs/loomis/apps/avx/software/Gaussian/16-C.01_AVX/g16/l101.exe)
 ------------------------------------------------
 NM 2D-scan of HBT TD-WB97XD pVDZ in CTC Relaxed.
 ------------------------------------------------
 Symbolic Z-matrix:
 Charge =  0 Multiplicity = 1
 C                     1.51798  -3.25262  -0.00002 
 C                     0.9956   -1.95787  -0.00002 
 C                     1.79833  -0.76976  -0.00003 
 C                     3.21453  -0.95816  -0.00003 
 C                     3.73139  -2.25756  -0.00002 
 C                     2.90558  -3.40438  -0.00002 
 H                     0.84551  -4.12122  -0.00001 
 H                     3.88482  -0.08743  -0.00004 
 H                     4.82028  -2.391    -0.00002 
 H                     3.35119  -4.40541  -0.00001 
 N                     1.06958   0.38369  -0.00003 
 S                    -0.69586  -1.57007  -0.00003 
 C                    -1.29878   1.07279   0.00001 
 C                    -2.67085   0.71184   0.00003 
 C                    -0.92493   2.48781   0.00004 
 C                    -3.65308   1.70283   0.00003 
 H                    -2.9557   -0.34791   0.00002 
 C                    -1.94678   3.46866   0.00004 
 C                    -3.29707   3.07549   0.00003 
 H                    -4.71063   1.41745   0.00004 
 H                    -1.6605    4.52843   0.00005 
 H                    -4.08455   3.83669   0.00003 
 C                    -0.26929   0.11936  -0.00002 
 O                     0.35209   2.75497   0.00006 
 H                     0.9138    1.86696   0.00003 
 
 Initializing the GIC definitions file.
 Number of initial coordinates =   131
 Number of input entries/lines =    52
 Number of additional coordinates =     2
 Number of removed coordinates =     0
 Number of frozen coordinates =     2
 Number of final active and frozen coordinates =   133
 ITRead=  0  0  0  0  0  0  0  0  0  0  0  0  0  0  0  0  0  0  0  0
 ITRead=  0  0  0  0  0
 MicOpt= -1 -1 -1 -1 -1 -1 -1 -1 -1 -1 -1 -1 -1 -1 -1 -1 -1 -1 -1 -1
 MicOpt= -1 -1 -1 -1 -1
 NAtoms=     25 NQM=       25 NQMF=       0 NMMI=      0 NMMIF=      0
                NMic=       0 NMicF=      0.
                    Isotopes and Nuclear Properties:
 (Nuclear quadrupole moments (NQMom) in fm**2, nuclear magnetic moments (NMagM)
  in nuclear magnetons)

  Atom         1           2           3           4           5           6           7           8           9          10
 IAtWgt=          12          12          12          12          12          12           1           1           1           1
 AtmWgt=  12.0000000  12.0000000  12.0000000  12.0000000  12.0000000  12.0000000   1.0078250   1.0078250   1.0078250   1.0078250
 NucSpn=           0           0           0           0           0           0           1           1           1           1
 AtZEff=  -0.0000000  -0.0000000  -0.0000000  -0.0000000  -0.0000000  -0.0000000  -0.0000000  -0.0000000  -0.0000000  -0.0000000
 NQMom=    0.0000000   0.0000000   0.0000000   0.0000000   0.0000000   0.0000000   0.0000000   0.0000000   0.0000000   0.0000000
 NMagM=    0.0000000   0.0000000   0.0000000   0.0000000   0.0000000   0.0000000   2.7928460   2.7928460   2.7928460   2.7928460
 AtZNuc=   6.0000000   6.0000000   6.0000000   6.0000000   6.0000000   6.0000000   1.0000000   1.0000000   1.0000000   1.0000000

  Atom        11          12          13          14          15          16          17          18          19          20
 IAtWgt=          14          32          12          12          12          12           1          12          12           1
 AtmWgt=  14.0030740  31.9720718  12.0000000  12.0000000  12.0000000  12.0000000   1.0078250  12.0000000  12.0000000   1.0078250
 NucSpn=           2           0           0           0           0           0           1           0           0           1
 AtZEff=  -0.0000000  -0.0000000  -0.0000000  -0.0000000  -0.0000000  -0.0000000  -0.0000000  -0.0000000  -0.0000000  -0.0000000
 NQMom=    2.0440000   0.0000000   0.0000000   0.0000000   0.0000000   0.0000000   0.0000000   0.0000000   0.0000000   0.0000000
 NMagM=    0.4037610   0.0000000   0.0000000   0.0000000   0.0000000   0.0000000   2.7928460   0.0000000   0.0000000   2.7928460
 AtZNuc=   7.0000000  16.0000000   6.0000000   6.0000000   6.0000000   6.0000000   1.0000000   6.0000000   6.0000000   1.0000000

  Atom        21          22          23          24          25
 IAtWgt=           1           1          12          16           1
 AtmWgt=   1.0078250   1.0078250  12.0000000  15.9949146   1.0078250
 NucSpn=           1           1           0           0           1
 AtZEff=  -0.0000000  -0.0000000  -0.0000000  -0.0000000  -0.0000000
 NQMom=    0.0000000   0.0000000   0.0000000   0.0000000   0.0000000
 NMagM=    2.7928460   2.7928460   0.0000000   0.0000000   2.7928460
 AtZNuc=   1.0000000   1.0000000   6.0000000   8.0000000   1.0000000
 Leave Link  101 at Tue Jul 14 14:38:05 2020, MaxMem=  7784628224 cpu:              31.7 elap:               3.2
 (Enter /gpfs/loomis/apps/avx/software/Gaussian/16-C.01_AVX/g16/l103.exe)

 GradGradGradGradGradGradGradGradGradGradGradGradGradGradGradGradGradGrad
 Berny optimization.
 Initialization pass.
                           ----------------------------
                           !    Initial Parameters    !
                           ! (Angstroms and Degrees)  !
 --------------------------                            --------------------------
 ! Name  Definition              Value          Derivative Info.                !
 --------------------------------------------------------------------------------
 ! R1    R(1,2)                  1.3962         estimate D2E/DX2                !
 ! R2    R(1,6)                  1.3959         estimate D2E/DX2                !
 ! R3    R(1,7)                  1.0985         estimate D2E/DX2                !
 ! R4    R(2,3)                  1.4339         estimate D2E/DX2                !
 ! R5    R(2,12)                 1.7353         estimate D2E/DX2                !
 ! R6    R(3,4)                  1.4287         estimate D2E/DX2                !
 ! R7    R(3,11)                 1.3644         estimate D2E/DX2                !
 ! R8    R(4,5)                  1.3984         estimate D2E/DX2                !
 ! R9    R(4,8)                  1.0988         estimate D2E/DX2                !
 ! R10   R(5,6)                  1.4132         estimate D2E/DX2                !
 ! R11   R(5,9)                  1.097          estimate D2E/DX2                !
 ! R12   R(6,10)                 1.0957         estimate D2E/DX2                !
 ! R13   R(11,23)                1.3647         estimate D2E/DX2                !
 ! R14   R(12,23)                1.7425         estimate D2E/DX2                !
 ! R15   R(13,14)                1.4188         estimate D2E/DX2                !
 ! R16   R(13,15)                1.4636         estimate D2E/DX2                !
 ! R17   R(13,23)                1.4032         estimate D2E/DX2                !
 ! R18   R(14,16)                1.3953         estimate D2E/DX2                !
 ! R19   R(14,17)                1.0974         estimate D2E/DX2                !
 ! R20   R(15,18)                1.4164         estimate D2E/DX2                !
 ! R21   R(15,24)                1.3047         estimate D2E/DX2                !
 ! R22   R(16,19)                1.4181         estimate D2E/DX2                !
 ! R23   R(16,20)                1.0954         estimate D2E/DX2                !
 ! R24   R(18,19)                1.4064         estimate D2E/DX2                !
 ! R25   R(18,21)                1.0978         estimate D2E/DX2                !
 ! R26   R(19,22)                1.0952         estimate D2E/DX2                !
 ! R27   R(24,25)                1.0507         estimate D2E/DX2                !
 ! A1    A(2,1,6)              118.2137         estimate D2E/DX2                !
 ! A2    A(2,1,7)              120.2808         estimate D2E/DX2                !
 ! A3    A(6,1,7)              121.5055         estimate D2E/DX2                !
 ! A4    A(1,2,3)              123.9835         estimate D2E/DX2                !
 ! A5    A(1,2,12)             124.8849         estimate D2E/DX2                !
 ! A6    A(3,2,12)             111.1316         estimate D2E/DX2                !
 ! A7    A(2,3,4)              116.4667         estimate D2E/DX2                !
 ! A8    A(2,3,11)             113.6709         estimate D2E/DX2                !
 ! A9    A(4,3,11)             129.8624         estimate D2E/DX2                !
 ! A10   A(3,4,5)              119.2689         estimate D2E/DX2                !
 ! A11   A(3,4,8)              120.0118         estimate D2E/DX2                !
 ! A12   A(5,4,8)              120.7193         estimate D2E/DX2                !
 ! A13   A(4,5,6)              122.5516         estimate D2E/DX2                !
 ! A14   A(4,5,9)              118.6776         estimate D2E/DX2                !
 ! A15   A(6,5,9)              118.7708         estimate D2E/DX2                !
 ! A16   A(1,6,5)              119.5156         estimate D2E/DX2                !
 ! A17   A(1,6,10)             120.2379         estimate D2E/DX2                !
 ! A18   A(5,6,10)             120.2465         estimate D2E/DX2                !
 ! A19   A(3,11,23)            111.1164         estimate D2E/DX2                !
 ! A20   A(2,12,23)             88.7424         estimate D2E/DX2                !
 ! A21   A(14,13,15)           119.538          estimate D2E/DX2                !
 ! A22   A(14,13,23)           122.4575         estimate D2E/DX2                !
 ! A23   A(15,13,23)           118.0045         estimate D2E/DX2                !
 ! A24   A(13,14,16)           120.0068         estimate D2E/DX2                !
 ! A25   A(13,14,17)           119.7836         estimate D2E/DX2                !
 ! A26   A(16,14,17)           120.2097         estimate D2E/DX2                !
 ! A27   A(13,15,18)           119.0281         estimate D2E/DX2                !
 ! A28   A(13,15,24)           116.6153         estimate D2E/DX2                !
 ! A29   A(18,15,24)           124.3566         estimate D2E/DX2                !
 ! A30   A(14,16,19)           120.7146         estimate D2E/DX2                !
 ! A31   A(14,16,20)           119.644          estimate D2E/DX2                !
 ! A32   A(19,16,20)           119.6414         estimate D2E/DX2                !
 ! A33   A(15,18,19)           119.9385         estimate D2E/DX2                !
 ! A34   A(15,18,21)           118.7108         estimate D2E/DX2                !
 ! A35   A(19,18,21)           121.3506         estimate D2E/DX2                !
 ! A36   A(16,19,18)           120.774          estimate D2E/DX2                !
 ! A37   A(16,19,22)           119.488          estimate D2E/DX2                !
 ! A38   A(18,19,22)           119.738          estimate D2E/DX2                !
 ! A39   A(11,23,12)           115.3387         estimate D2E/DX2                !
 ! A40   A(11,23,13)           126.028          estimate D2E/DX2                !
 ! A41   A(12,23,13)           118.6333         estimate D2E/DX2                !
 ! A42   A(15,24,25)           110.4994         estimate D2E/DX2                !
 ! D1    D(6,1,2,3)              0.0            estimate D2E/DX2                !
 ! D2    D(6,1,2,12)           179.9999         estimate D2E/DX2                !
 ! D3    D(7,1,2,3)            179.9999         estimate D2E/DX2                !
 ! D4    D(7,1,2,12)            -0.0001         estimate D2E/DX2                !
 ! D5    D(2,1,6,5)             -0.0002         estimate D2E/DX2                !
 ! D6    D(2,1,6,10)           179.9999         estimate D2E/DX2                !
 ! D7    D(7,1,6,5)            179.9999         estimate D2E/DX2                !
 ! D8    D(7,1,6,10)             0.0            estimate D2E/DX2                !
 ! D9    D(1,2,3,4)              0.0002         estimate D2E/DX2                !
 ! D10   D(1,2,3,11)          -179.9999         estimate D2E/DX2                !
 ! D11   D(12,2,3,4)          -179.9998         estimate D2E/DX2                !
 ! D12   D(12,2,3,11)            0.0001         estimate D2E/DX2                !
 ! D13   D(1,2,12,23)          179.9996         estimate D2E/DX2                !
 ! D14   D(3,2,12,23)           -0.0004         estimate D2E/DX2                !
 ! D15   D(2,3,4,5)             -0.0002         estimate D2E/DX2                !
 ! D16   D(2,3,4,8)            179.9998         estimate D2E/DX2                !
 ! D17   D(11,3,4,5)           180.0            estimate D2E/DX2                !
 ! D18   D(11,3,4,8)             0.0            estimate D2E/DX2                !
 ! D19   D(2,3,11,23)            0.0004         estimate D2E/DX2                !
 ! D20   D(4,3,11,23)         -179.9998         estimate D2E/DX2                !
 ! D21   D(3,4,5,6)              0.0            estimate D2E/DX2                !
 ! D22   D(3,4,5,9)           -179.9999         estimate D2E/DX2                !
 ! D23   D(8,4,5,6)            180.0            estimate D2E/DX2                !
 ! D24   D(8,4,5,9)              0.0            estimate D2E/DX2                !
 ! D25   D(4,5,6,1)              0.0001         estimate D2E/DX2                !
 ! D26   D(4,5,6,10)          -179.9999         estimate D2E/DX2                !
 ! D27   D(9,5,6,1)           -179.9999         estimate D2E/DX2                !
 ! D28   D(9,5,6,10)             0.0            estimate D2E/DX2                !
 ! D29   D(3,11,23,12)          -0.0007         estimate D2E/DX2                !
 ! D30   D(3,11,23,13)         179.9981         estimate D2E/DX2                !
 ! D31   D(2,12,23,11)           0.0007         estimate D2E/DX2                !
 ! D32   D(2,12,23,13)        -179.9983         estimate D2E/DX2                !
 ! D33   D(15,13,14,16)          0.0015         estimate D2E/DX2                !
 ! D34   D(15,13,14,17)       -179.9991         estimate D2E/DX2                !
 ! D35   D(23,13,14,16)       -179.9986         estimate D2E/DX2                !
 ! D36   D(23,13,14,17)          0.0008         estimate D2E/DX2                !
 ! D37   D(14,13,15,18)         -0.0017         estimate D2E/DX2                !
 ! D38   D(14,13,15,24)        179.998          estimate D2E/DX2                !
 ! D39   D(23,13,15,18)        179.9984         estimate D2E/DX2                !
 ! D40   D(23,13,15,24)         -0.0019         estimate D2E/DX2                !
 ! D41   D(14,13,23,11)       -179.9997         estimate D2E/DX2                !
 ! D42   D(14,13,23,12)         -0.0009         estimate D2E/DX2                !
 ! D43   D(15,13,23,11)          0.0002         estimate D2E/DX2                !
 ! D44   D(15,13,23,12)        179.9991         estimate D2E/DX2                !
 ! D45   D(13,14,16,19)         -0.0003         estimate D2E/DX2                !
 ! D46   D(13,14,16,20)        179.9996         estimate D2E/DX2                !
 ! D47   D(17,14,16,19)       -179.9998         estimate D2E/DX2                !
 ! D48   D(17,14,16,20)          0.0001         estimate D2E/DX2                !
 ! D49   D(13,15,18,19)          0.0008         estimate D2E/DX2                !
 ! D50   D(13,15,18,21)       -179.9999         estimate D2E/DX2                !
 ! D51   D(24,15,18,19)       -179.9989         estimate D2E/DX2                !
 ! D52   D(24,15,18,21)          0.0004         estimate D2E/DX2                !
 ! D53   D(13,15,24,25)          0.0019         estimate D2E/DX2                !
 ! D54   D(18,15,24,25)       -179.9984         estimate D2E/DX2                !
 ! D55   D(14,16,19,18)         -0.0005         estimate D2E/DX2                !
 ! D56   D(14,16,19,22)        179.9998         estimate D2E/DX2                !
 ! D57   D(20,16,19,18)        179.9995         estimate D2E/DX2                !
 ! D58   D(20,16,19,22)         -0.0002         estimate D2E/DX2                !
 ! D59   D(15,18,19,16)          0.0003         estimate D2E/DX2                !
 ! D60   D(15,18,19,22)        180.0            estimate D2E/DX2                !
 ! D61   D(21,18,19,16)       -179.999          estimate D2E/DX2                !
 ! D62   D(21,18,19,22)          0.0007         estimate D2E/DX2                !
 ! Qtot  GIC-1                 -20.0            Frozen                          !
 ! Ptot  GIC-2                 200.0            Frozen                          !
 --------------------------------------------------------------------------------
 NOTE: GIC-type coordinates are in arbitrary units.
 Trust Radius=3.00D-01 FncErr=5.00D-06 GrdErr=5.00D-06 EigMax=2.50D+02 EigMin=1.00D-04
 Number of steps in this run=    143 maximum allowed number of steps=    150.
 GradGradGradGradGradGradGradGradGradGradGradGradGradGradGradGradGradGrad

 Leave Link  103 at Tue Jul 14 14:38:05 2020, MaxMem=  7784628224 cpu:               0.2 elap:               0.0
 (Enter /gpfs/loomis/apps/avx/software/Gaussian/16-C.01_AVX/g16/l202.exe)
                          Input orientation:                          
 ---------------------------------------------------------------------
 Center     Atomic      Atomic             Coordinates (Angstroms)
 Number     Number       Type             X           Y           Z
 ---------------------------------------------------------------------
      1          6           0        1.517981   -3.252622   -0.000016
      2          6           0        0.995601   -1.957868   -0.000023
      3          6           0        1.798333   -0.769757   -0.000028
      4          6           0        3.214525   -0.958157   -0.000031
      5          6           0        3.731391   -2.257565   -0.000024
      6          6           0        2.905582   -3.404383   -0.000015
      7          1           0        0.845509   -4.121223   -0.000011
      8          1           0        3.884822   -0.087428   -0.000038
      9          1           0        4.820278   -2.391001   -0.000025
     10          1           0        3.351189   -4.405406   -0.000009
     11          7           0        1.069584    0.383694   -0.000033
     12         16           0       -0.695860   -1.570073   -0.000027
     13          6           0       -1.298775    1.072794    0.000013
     14          6           0       -2.670852    0.711842    0.000027
     15          6           0       -0.924933    2.487809    0.000036
     16          6           0       -3.653081    1.702832    0.000034
     17          1           0       -2.955698   -0.347905    0.000025
     18          6           0       -1.946779    3.468659    0.000037
     19          6           0       -3.297069    3.075490    0.000033
     20          1           0       -4.710629    1.417453    0.000038
     21          1           0       -1.660503    4.528432    0.000053
     22          1           0       -4.084552    3.836694    0.000034
     23          6           0       -0.269295    0.119360   -0.000023
     24          8           0        0.352093    2.754968    0.000061
     25          1           0        0.913803    1.866962    0.000027
 ---------------------------------------------------------------------
                    Distance matrix (angstroms):
                    1          2          3          4          5
     1  C    0.000000
     2  C    1.396162   0.000000
     3  C    2.498642   1.433871   0.000000
     4  C    2.853564   2.433731   1.428669   0.000000
     5  C    2.426792   2.752157   2.439321   1.398432   0.000000
     6  C    1.395875   2.395920   2.857840   2.465657   1.413206
     7  H    1.098494   2.168556   3.484279   3.951864   3.435337
     8  H    3.952264   3.441823   2.195225   1.098848   2.175554
     9  H    3.412851   3.849125   3.429371   2.152089   1.097032
    10  H    2.165540   3.396945   3.953391   3.449957   2.181232
    11  N    3.663858   2.342731   1.364377   2.530086   3.749862
    12  S    2.780659   1.735345   2.619448   3.957974   4.480312
    13  C    5.161718   3.801193   3.603758   4.949206   6.032733
    14  C    5.767434   4.535442   4.708371   6.117726   7.057344
    15  C    6.238619   4.842777   4.245929   5.386074   6.648302
    16  C    7.162151   5.917007   5.985951   7.365112   8.379449
    17  H    5.333965   4.266701   4.772711   6.200328   6.954420
    18  C    7.561757   6.172908   5.655973   6.799688   8.064196
    19  C    7.951711   6.615263   6.383498   7.659711   8.822739
    20  H    7.784933   6.629770   6.866621   8.273548   9.207251
    21  H    8.405210   7.009064   6.327271   7.339520   8.667311
    22  H    9.035861   7.706160   7.471796   8.733105   9.911053
    23  C    3.816361   2.432044   2.250692   3.646648   4.653521
    24  O    6.119675   4.756566   3.809895   4.688370   6.045257
    25  H    5.155111   3.825705   2.781130   3.643435   4.995050
                    6          7          8          9         10
     6  C    0.000000
     7  H    2.181229   0.000000
     8  H    3.458482   5.050637   0.000000
     9  H    2.166334   4.335027   2.486268   0.000000
    10  H    1.095725   2.521744   4.350827   2.493200   0.000000
    11  N    4.209562   4.510487   2.854387   4.665473   5.304828
    12  S    4.041667   2.980635   4.814654   5.576890   4.941429
    13  C    6.141801   5.619232   5.311855   7.031407   7.185599
    14  C    6.931084   5.976899   6.604219   8.108309   7.902608
    15  C    7.027856   6.842059   5.455785   7.537257   8.111820
    16  C    8.312623   7.359139   7.747582   9.410488   9.293566
    17  H    6.610344   5.356034   6.845478   8.039903   7.499342
    18  C    8.413329   8.087223   6.830324   8.951462   9.490488
    19  C    8.970040   8.303833   7.847523   9.786412  10.008154
    20  H    9.014254   7.845228   8.726194  10.263651   9.944778
    21  H    9.153069   9.005367   7.215040   9.480458  10.243560
    22  H   10.064550   9.361301   8.883111  10.866471  11.100561
    23  C    4.743058   4.384670   4.159261   5.675003   5.794947
    24  O    6.667676   6.893872   4.534246   6.815106   7.763087
    25  H    5.635092   5.988575   3.556205   5.778477   6.729298
                   11         12         13         14         15
    11  N    0.000000
    12  S    2.633249   0.000000
    13  C    2.466573   2.710766   0.000000
    14  C    3.754803   3.017902   1.418761   0.000000
    15  C    2.899206   4.064343   1.463566   2.490440   0.000000
    16  C    4.903437   4.411017   2.437151   1.395290   2.838834
    17  H    4.091226   2.569156   2.182608   1.097361   3.487876
    18  C    4.314563   5.191688   2.481951   2.850320   1.416416
    19  C    5.129661   5.324242   2.829129   2.445195   2.443849
    20  H    5.871927   5.004367   3.429218   2.158374   3.934102
    21  H    4.963086   6.174326   3.474519   3.948058   2.169149
    22  H    6.203896   6.380938   3.924245   3.429759   3.435504
    23  C    1.364723   1.742453   1.403163   2.473563   2.457522
    24  O    2.477445   4.450190   2.356921   3.648638   1.304672
    25  H    1.491426   3.795290   2.350789   3.766173   1.940722
                   16         17         18         19         20
    16  C    0.000000
    17  H    2.166072   0.000000
    18  C    2.455526   3.947668   0.000000
    19  C    1.418074   3.440374   1.406366   0.000000
    20  H    1.095377   2.489232   3.441848   2.178816   0.000000
    21  H    3.457510   5.045413   1.097758   2.188467   4.356771
    22  H    2.177047   4.334188   2.169222   1.095245   2.498940
    23  C    3.735960   2.726738   3.745899   4.231563   4.627148
    24  O    4.141064   4.535340   2.407108   3.663212   5.236421
    25  H    4.569832   4.458551   3.278469   4.380866   5.642366
                   21         22         23         24         25
    21  H    0.000000
    22  H    2.520816   0.000000
    23  C    4.623351   5.326797   0.000000
    24  O    2.682484   4.566613   2.707869   0.000000
    25  H    3.702766   5.372467   2.110411   1.050748   0.000000
 Symmetry turned off by external request.
 Stoichiometry    C13H9NOS
 Framework group  C1[X(C13H9NOS)]
 Deg. of freedom    69
 Full point group                 C1      NOp   1
 Rotational constants (GHZ):           1.4058652           0.2864516           0.2379651
 Leave Link  202 at Tue Jul 14 14:38:06 2020, MaxMem=  7784628224 cpu:               0.2 elap:               0.1
 (Enter /gpfs/loomis/apps/avx/software/Gaussian/16-C.01_AVX/g16/l301.exe)
 Standard basis: CC-pVDZ (5D, 7F)
 Ernie: Thresh=  0.10000D-02 Tol=  0.10000D-05 Strict=F.
 Ernie:  40 primitive shells out of 425 were deleted.
   273 basis functions,   629 primitive gaussians,   289 cartesian basis functions
    59 alpha electrons       59 beta electrons
       nuclear repulsion energy      1100.1098269555 Hartrees.
 IExCor= 4639 DFT=T Ex+Corr=wB97XD ExCW=0 ScaHFX=  1.000000
 ScaDFX=  1.000000  1.000000  1.000000  1.000000 ScalE2=  1.000000  1.000000
 IRadAn=      5 IRanWt=     -1 IRanGd=            0 ICorTp=0 IEmpDi=121
 HFx  wShort=  0.000000 wLong=  0.200000 cFull=  0.222036 cShort=  0.000000 cLong=  0.777964
 DFx  wShort=  0.000000 wLong=  0.200000 cFull=  0.000000 cShort=  0.000000 cLong=  1.000000
 NAtoms=   25 NActive=   25 NUniq=   25 SFac= 1.00D+00 NAtFMM=   60 NAOKFM=F Big=F
 Integral buffers will be    131072 words long.
 Raffenetti 1 integral format.
 Two-electron integral symmetry is turned off.
 R6Disp:  Grimme-D2 Dispersion energy=       -0.0137942827 Hartrees.
 Nuclear repulsion after empirical dispersion term =     1100.0960326728 Hartrees.
 ------------------------------------------------------------------------------
 Polarizable Continuum Model (PCM)
 =================================
 Model                : PCM.
 Atomic radii         : UFF (Universal Force Field).
 Polarization charges : Total charges.
 Charge compensation  : None.
 Solution method      : On-the-fly selection.
 Cavity type          : Scaled VdW (van der Waals Surface) (Alpha=1.100).
 Cavity algorithm     : GePol (No added spheres)
                        Default sphere list used, NSphG=   25.
                        Lebedev-Laikov grids with approx.  5.0 points / Ang**2.
                        Smoothing algorithm: York/Karplus (Gamma=1.0000).
                        Polarization charges: spherical gaussians, with
                                              point-specific exponents (IZeta= 3).
                        Self-potential: point-specific (ISelfS= 7).
                        Self-field    : sphere-specific E.n sum rule (ISelfD= 2).
 1st derivatives      : Analytical E(r).r(x)/FMM algorithm (CHGder, D1EAlg=3).
                        Cavity 1st derivative terms included.
 Solvent              : CarbonTetraChloride, Eps=   2.228000 Eps(inf)=   2.131892
 ------------------------------------------------------------------------------
 GePol: Number of generator spheres                  =      25
 GePol: Total number of spheres                      =      25
 GePol: Number of exposed spheres                    =      25 (100.00%)
 GePol: Number of points                             =    2174
 GePol: Average weight of points                     =       0.13
 GePol: Minimum weight of points                     =   0.43D-09
 GePol: Maximum weight of points                     =    0.20577
 GePol: Number of points with low weight             =     141
 GePol: Fraction of low-weight points (<1% of avg)   =       6.49%
 GePol: Cavity surface area                          =    272.039 Ang**2
 GePol: Cavity volume                                =    292.738 Ang**3
 Leave Link  301 at Tue Jul 14 14:38:06 2020, MaxMem=  7784628224 cpu:               0.7 elap:               0.1
 (Enter /gpfs/loomis/apps/avx/software/Gaussian/16-C.01_AVX/g16/l302.exe)
 NPDir=0 NMtPBC=     1 NCelOv=     1 NCel=       1 NClECP=     1 NCelD=      1
         NCelK=      1 NCelE2=     1 NClLst=     1 CellRange=     0.0.
 One-electron integrals computed using PRISM.
 NBasis=   273 RedAO= T EigKep=  3.31D-04  NBF=   273
 NBsUse=   273 1.00D-06 EigRej= -1.00D+00 NBFU=   273
 Precomputing XC quadrature grid using
 IXCGrd= 4 IRadAn=           5 IRanWt=          -1 IRanGd=           0 AccXCQ= 0.00D+00.
 Generated NRdTot=       0 NPtTot=           0 NUsed=           0 NTot=          32
 NSgBfM=   288   288   288   288   288 MxSgAt=    25 MxSgA2=    25.
 Leave Link  302 at Tue Jul 14 14:38:06 2020, MaxMem=  7784628224 cpu:               2.7 elap:               0.4
 (Enter /gpfs/loomis/apps/avx/software/Gaussian/16-C.01_AVX/g16/l303.exe)
 DipDrv:  MaxL=1.
 Leave Link  303 at Tue Jul 14 14:38:06 2020, MaxMem=  7784628224 cpu:               0.8 elap:               0.1
 (Enter /gpfs/loomis/apps/avx/software/Gaussian/16-C.01_AVX/g16/l308.exe)
 Leave Link  308 at Tue Jul 14 14:38:06 2020, MaxMem=  7784628224 cpu:               0.5 elap:               0.1
 (Enter /gpfs/loomis/apps/avx/software/Gaussian/16-C.01_AVX/g16/l401.exe)
 ExpMin= 1.22D-01 ExpMax= 1.11D+05 ExpMxC= 1.07D+03 IAcc=3 IRadAn=         5 AccDes= 0.00D+00
 Harris functional with IExCor= 4639 and IRadAn=       5 diagonalized for initial guess.
 HarFok:  IExCor= 4639 AccDes= 0.00D+00 IRadAn=         5 IDoV= 1 UseB2=F ITyADJ=14
 ICtDFT=  3500011 ScaDFX=  1.000000  1.000000  1.000000  1.000000
 FoFCou: FMM=F IPFlag=           0 FMFlag=      100000 FMFlg1=           0
         NFxFlg=           0 DoJE=T BraDBF=F KetDBF=T FulRan=T
         wScrn=  0.000000 ICntrl=       500 IOpCl=  0 I1Cent=   200000004 NGrid=           0
         NMat0=    1 NMatS0=      1 NMatT0=    0 NMatD0=    1 NMtDS0=    0 NMtDT0=    0
 Symmetry not used in FoFCou.
 Harris En= -994.455966175631    
 JPrj=0 DoOrth=F DoCkMO=F.
 Leave Link  401 at Tue Jul 14 14:38:08 2020, MaxMem=  7784628224 cpu:              13.5 elap:               1.4
 (Enter /gpfs/loomis/apps/avx/software/Gaussian/16-C.01_AVX/g16/l502.exe)
 Two-electron integral symmetry not used.
 Closed shell SCF:
 Using DIIS extrapolation, IDIIS=  1040.
 NGot=  7784628224 LenX=  7784455381 LenY=  7784371419
 Requested convergence on RMS density matrix=1.00D-08 within 128 cycles.
 Requested convergence on MAX density matrix=1.00D-06.
 Requested convergence on             energy=1.00D-06.
 No special actions if energy rises.
 Fock matrices will be formed incrementally for  20 cycles.

 Cycle   1  Pass 1  IDiag  1:
 FoFJK:  IHMeth= 1 ICntrl=       0 DoSepK=T KAlg= 0 I1Cent=           0 FoldK=F
 IRaf=         1 NMat=       1 IRICut=       1 DoRegI=T DoRafI=F ISym2E= 0 IDoP0=0 IntGTp=1.
 FoFCou: FMM=F IPFlag=           0 FMFlag=      100000 FMFlg1=           0
         NFxFlg=           0 DoJE=T BraDBF=F KetDBF=F FulRan=T
         wScrn=  0.000000 ICntrl=       500 IOpCl=  0 I1Cent=           0 NGrid=           0
         NMat0=    1 NMatS0=      1 NMatT0=    0 NMatD0=    1 NMtDS0=    0 NMtDT0=    0
 Symmetry not used in FoFCou.
 Inv3:  Mode=1 IEnd=    14178828.
 Iteration    1 A*A^-1 deviation from unit magnitude is 4.22D-15 for   2133.
 Iteration    1 A*A^-1 deviation from orthogonality  is 1.60D-15 for   1739    238.
 Iteration    1 A^-1*A deviation from unit magnitude is 4.44D-15 for   2133.
 Iteration    1 A^-1*A deviation from orthogonality  is 2.15D-15 for   2169    125.
 E= -1028.58739708131    
 DIIS: error= 2.56D-02 at cycle   1 NSaved=   1.
 NSaved= 1 IEnMin= 1 EnMin= -1028.58739708131     IErMin= 1 ErrMin= 2.56D-02
 ErrMax= 2.56D-02  0.00D+00 EMaxC= 1.00D-01 BMatC= 3.85D-01 BMatP= 3.85D-01
 IDIUse=3 WtCom= 7.44D-01 WtEn= 2.56D-01
 Coeff-Com:  0.100D+01
 Coeff-En:   0.100D+01
 Coeff:      0.100D+01
 Gap=     0.346 Goal=   None    Shift=    0.000
 GapD=    0.346 DampG=1.000 DampE=0.500 DampFc=0.5000 IDamp=-1.
 Damping current iteration by 5.00D-01
 RMSDP=3.46D-03 MaxDP=2.18D-01              OVMax= 1.67D-01

 Cycle   2  Pass 1  IDiag  1:
 RMSU=  1.72D-03    CP:  9.93D-01
 E= -1028.70025988621     Delta-E=       -0.112862804909 Rises=F Damp=T
 DIIS: error= 1.05D-02 at cycle   2 NSaved=   2.
 NSaved= 2 IEnMin= 2 EnMin= -1028.70025988621     IErMin= 2 ErrMin= 1.05D-02
 ErrMax= 1.05D-02  0.00D+00 EMaxC= 1.00D-01 BMatC= 5.76D-02 BMatP= 3.85D-01
 IDIUse=3 WtCom= 8.95D-01 WtEn= 1.05D-01
 Coeff-Com: -0.306D+00 0.131D+01
 Coeff-En:   0.000D+00 0.100D+01
 Coeff:     -0.274D+00 0.127D+01
 Gap=     0.305 Goal=   None    Shift=    0.000
 RMSDP=1.11D-03 MaxDP=2.28D-02 DE=-1.13D-01 OVMax= 1.06D-01

 Cycle   3  Pass 1  IDiag  1:
 RMSU=  1.05D-03    CP:  9.91D-01  1.20D+00
 E= -1028.79943900352     Delta-E=       -0.099179117301 Rises=F Damp=F
 DIIS: error= 6.84D-03 at cycle   3 NSaved=   3.
 NSaved= 3 IEnMin= 3 EnMin= -1028.79943900352     IErMin= 3 ErrMin= 6.84D-03
 ErrMax= 6.84D-03  0.00D+00 EMaxC= 1.00D-01 BMatC= 1.29D-02 BMatP= 5.76D-02
 IDIUse=3 WtCom= 9.32D-01 WtEn= 6.84D-02
 Coeff-Com: -0.206D+00 0.484D+00 0.722D+00
 Coeff-En:   0.000D+00 0.000D+00 0.100D+01
 Coeff:     -0.191D+00 0.450D+00 0.741D+00
 Gap=     0.265 Goal=   None    Shift=    0.000
 RMSDP=5.11D-04 MaxDP=1.98D-02 DE=-9.92D-02 OVMax= 3.79D-02

 Cycle   4  Pass 1  IDiag  1:
 RMSU=  3.87D-04    CP:  9.88D-01  1.37D+00  8.47D-01
 E= -1028.81140720293     Delta-E=       -0.011968199417 Rises=F Damp=F
 DIIS: error= 2.15D-03 at cycle   4 NSaved=   4.
 NSaved= 4 IEnMin= 4 EnMin= -1028.81140720293     IErMin= 4 ErrMin= 2.15D-03
 ErrMax= 2.15D-03  0.00D+00 EMaxC= 1.00D-01 BMatC= 1.52D-03 BMatP= 1.29D-02
 IDIUse=3 WtCom= 9.78D-01 WtEn= 2.15D-02
 Coeff-Com: -0.713D-01 0.141D+00 0.350D+00 0.580D+00
 Coeff-En:   0.000D+00 0.000D+00 0.000D+00 0.100D+01
 Coeff:     -0.698D-01 0.138D+00 0.343D+00 0.589D+00
 Gap=     0.262 Goal=   None    Shift=    0.000
 RMSDP=1.57D-04 MaxDP=8.64D-03 DE=-1.20D-02 OVMax= 1.22D-02

 Cycle   5  Pass 1  IDiag  1:
 RMSU=  9.84D-05    CP:  9.89D-01  1.37D+00  9.16D-01  7.48D-01
 E= -1028.81295304410     Delta-E=       -0.001545841166 Rises=F Damp=F
 DIIS: error= 3.74D-04 at cycle   5 NSaved=   5.
 NSaved= 5 IEnMin= 5 EnMin= -1028.81295304410     IErMin= 5 ErrMin= 3.74D-04
 ErrMax= 3.74D-04  0.00D+00 EMaxC= 1.00D-01 BMatC= 4.83D-05 BMatP= 1.52D-03
 IDIUse=3 WtCom= 9.96D-01 WtEn= 3.74D-03
 Coeff-Com: -0.597D-03-0.459D-02 0.354D-01 0.163D+00 0.807D+00
 Coeff-En:   0.000D+00 0.000D+00 0.000D+00 0.000D+00 0.100D+01
 Coeff:     -0.595D-03-0.457D-02 0.353D-01 0.162D+00 0.808D+00
 Gap=     0.263 Goal=   None    Shift=    0.000
 RMSDP=4.98D-05 MaxDP=1.52D-03 DE=-1.55D-03 OVMax= 4.68D-03

 Cycle   6  Pass 1  IDiag  1:
 RMSU=  3.19D-05    CP:  9.89D-01  1.38D+00  9.34D-01  8.29D-01  1.06D+00
 E= -1028.81304876769     Delta-E=       -0.000095723588 Rises=F Damp=F
 DIIS: error= 1.79D-04 at cycle   6 NSaved=   6.
 NSaved= 6 IEnMin= 6 EnMin= -1028.81304876769     IErMin= 6 ErrMin= 1.79D-04
 ErrMax= 1.79D-04  0.00D+00 EMaxC= 1.00D-01 BMatC= 7.70D-06 BMatP= 4.83D-05
 IDIUse=3 WtCom= 9.98D-01 WtEn= 1.79D-03
 Coeff-Com:  0.140D-01-0.291D-01-0.531D-01-0.523D-01 0.218D+00 0.903D+00
 Coeff-En:   0.000D+00 0.000D+00 0.000D+00 0.000D+00 0.000D+00 0.100D+01
 Coeff:      0.140D-01-0.290D-01-0.530D-01-0.522D-01 0.218D+00 0.903D+00
 Gap=     0.264 Goal=   None    Shift=    0.000
 RMSDP=2.65D-05 MaxDP=1.49D-03 DE=-9.57D-05 OVMax= 2.55D-03

 Cycle   7  Pass 1  IDiag  1:
 RMSU=  1.43D-05    CP:  9.88D-01  1.38D+00  9.45D-01  8.55D-01  1.22D+00
                    CP:  1.18D+00
 E= -1028.81307073580     Delta-E=       -0.000021968109 Rises=F Damp=F
 DIIS: error= 7.79D-05 at cycle   7 NSaved=   7.
 NSaved= 7 IEnMin= 7 EnMin= -1028.81307073580     IErMin= 7 ErrMin= 7.79D-05
 ErrMax= 7.79D-05  0.00D+00 EMaxC= 1.00D-01 BMatC= 1.99D-06 BMatP= 7.70D-06
 IDIUse=1 WtCom= 1.00D+00 WtEn= 0.00D+00
 Coeff-Com:  0.644D-02-0.124D-01-0.288D-01-0.453D-01-0.128D-01 0.411D+00
 Coeff-Com:  0.682D+00
 Coeff:      0.644D-02-0.124D-01-0.288D-01-0.453D-01-0.128D-01 0.411D+00
 Coeff:      0.682D+00
 Gap=     0.264 Goal=   None    Shift=    0.000
 RMSDP=9.35D-06 MaxDP=4.08D-04 DE=-2.20D-05 OVMax= 1.08D-03

 Cycle   8  Pass 1  IDiag  1:
 RMSU=  5.64D-06    CP:  9.88D-01  1.38D+00  9.46D-01  8.62D-01  1.25D+00
                    CP:  1.36D+00  1.09D+00
 E= -1028.81307426518     Delta-E=       -0.000003529379 Rises=F Damp=F
 DIIS: error= 3.38D-05 at cycle   8 NSaved=   8.
 NSaved= 8 IEnMin= 8 EnMin= -1028.81307426518     IErMin= 8 ErrMin= 3.38D-05
 ErrMax= 3.38D-05  0.00D+00 EMaxC= 1.00D-01 BMatC= 2.34D-07 BMatP= 1.99D-06
 IDIUse=1 WtCom= 1.00D+00 WtEn= 0.00D+00
 Coeff-Com: -0.111D-02 0.247D-02 0.318D-02 0.170D-03-0.420D-01-0.590D-01
 Coeff-Com:  0.215D+00 0.881D+00
 Coeff:     -0.111D-02 0.247D-02 0.318D-02 0.170D-03-0.420D-01-0.590D-01
 Coeff:      0.215D+00 0.881D+00
 Gap=     0.264 Goal=   None    Shift=    0.000
 RMSDP=4.28D-06 MaxDP=1.53D-04 DE=-3.53D-06 OVMax= 5.33D-04

 Cycle   9  Pass 1  IDiag  1:
 RMSU=  2.01D-06    CP:  9.88D-01  1.38D+00  9.46D-01  8.61D-01  1.26D+00
                    CP:  1.42D+00  1.30D+00  1.12D+00
 E= -1028.81307488854     Delta-E=       -0.000000623369 Rises=F Damp=F
 DIIS: error= 1.09D-05 at cycle   9 NSaved=   9.
 NSaved= 9 IEnMin= 9 EnMin= -1028.81307488854     IErMin= 9 ErrMin= 1.09D-05
 ErrMax= 1.09D-05  0.00D+00 EMaxC= 1.00D-01 BMatC= 3.12D-08 BMatP= 2.34D-07
 IDIUse=1 WtCom= 1.00D+00 WtEn= 0.00D+00
 Coeff-Com: -0.107D-02 0.214D-02 0.425D-02 0.568D-02-0.117D-01-0.707D-01
 Coeff-Com: -0.106D-01 0.264D+00 0.818D+00
 Coeff:     -0.107D-02 0.214D-02 0.425D-02 0.568D-02-0.117D-01-0.707D-01
 Coeff:     -0.106D-01 0.264D+00 0.818D+00
 Gap=     0.264 Goal=   None    Shift=    0.000
 RMSDP=1.72D-06 MaxDP=5.70D-05 DE=-6.23D-07 OVMax= 2.40D-04

 Cycle  10  Pass 1  IDiag  1:
 RMSU=  8.73D-07    CP:  9.88D-01  1.38D+00  9.46D-01  8.61D-01  1.27D+00
                    CP:  1.44D+00  1.36D+00  1.26D+00  1.17D+00
 E= -1028.81307499162     Delta-E=       -0.000000103077 Rises=F Damp=F
 DIIS: error= 8.21D-06 at cycle  10 NSaved=  10.
 NSaved=10 IEnMin=10 EnMin= -1028.81307499162     IErMin=10 ErrMin= 8.21D-06
 ErrMax= 8.21D-06  0.00D+00 EMaxC= 1.00D-01 BMatC= 7.86D-09 BMatP= 3.12D-08
 IDIUse=1 WtCom= 1.00D+00 WtEn= 0.00D+00
 Coeff-Com: -0.172D-03 0.304D-03 0.936D-03 0.224D-02 0.287D-02-0.197D-01
 Coeff-Com: -0.387D-01-0.636D-01 0.312D+00 0.804D+00
 Coeff:     -0.172D-03 0.304D-03 0.936D-03 0.224D-02 0.287D-02-0.197D-01
 Coeff:     -0.387D-01-0.636D-01 0.312D+00 0.804D+00
 Gap=     0.264 Goal=   None    Shift=    0.000
 RMSDP=8.72D-07 MaxDP=2.90D-05 DE=-1.03D-07 OVMax= 1.40D-04

 Cycle  11  Pass 1  IDiag  1:
 RMSU=  3.84D-07    CP:  9.88D-01  1.38D+00  9.46D-01  8.61D-01  1.27D+00
                    CP:  1.45D+00  1.39D+00  1.32D+00  1.42D+00  1.19D+00
 E= -1028.81307501844     Delta-E=       -0.000000026823 Rises=F Damp=F
 DIIS: error= 2.76D-06 at cycle  11 NSaved=  11.
 NSaved=11 IEnMin=11 EnMin= -1028.81307501844     IErMin=11 ErrMin= 2.76D-06
 ErrMax= 2.76D-06  0.00D+00 EMaxC= 1.00D-01 BMatC= 1.55D-09 BMatP= 7.86D-09
 IDIUse=1 WtCom= 1.00D+00 WtEn= 0.00D+00
 Coeff-Com:  0.166D-03-0.346D-03-0.577D-03-0.331D-03 0.366D-02 0.615D-02
 Coeff-Com: -0.539D-02-0.730D-01-0.587D-01 0.257D+00 0.871D+00
 Coeff:      0.166D-03-0.346D-03-0.577D-03-0.331D-03 0.366D-02 0.615D-02
 Coeff:     -0.539D-02-0.730D-01-0.587D-01 0.257D+00 0.871D+00
 Gap=     0.264 Goal=   None    Shift=    0.000
 RMSDP=4.29D-07 MaxDP=1.03D-05 DE=-2.68D-08 OVMax= 7.44D-05

 Cycle  12  Pass 1  IDiag  1:
 RMSU=  1.76D-07    CP:  9.88D-01  1.38D+00  9.46D-01  8.61D-01  1.27D+00
                    CP:  1.45D+00  1.40D+00  1.34D+00  1.53D+00  1.48D+00
                    CP:  1.16D+00
 E= -1028.81307502467     Delta-E=       -0.000000006227 Rises=F Damp=F
 DIIS: error= 1.46D-06 at cycle  12 NSaved=  12.
 NSaved=12 IEnMin=12 EnMin= -1028.81307502467     IErMin=12 ErrMin= 1.46D-06
 ErrMax= 1.46D-06  0.00D+00 EMaxC= 1.00D-01 BMatC= 3.64D-10 BMatP= 1.55D-09
 IDIUse=1 WtCom= 1.00D+00 WtEn= 0.00D+00
 Coeff-Com:  0.105D-03-0.207D-03-0.456D-03-0.678D-03 0.950D-03 0.635D-02
 Coeff-Com:  0.912D-02-0.150D-01-0.101D+00-0.113D+00 0.309D+00 0.905D+00
 Coeff:      0.105D-03-0.207D-03-0.456D-03-0.678D-03 0.950D-03 0.635D-02
 Coeff:      0.912D-02-0.150D-01-0.101D+00-0.113D+00 0.309D+00 0.905D+00
 Gap=     0.264 Goal=   None    Shift=    0.000
 RMSDP=2.45D-07 MaxDP=6.04D-06 DE=-6.23D-09 OVMax= 3.98D-05

 Cycle  13  Pass 1  IDiag  1:
 RMSU=  7.59D-08    CP:  9.88D-01  1.38D+00  9.46D-01  8.62D-01  1.27D+00
                    CP:  1.45D+00  1.40D+00  1.35D+00  1.60D+00  1.62D+00
                    CP:  1.48D+00  1.16D+00
 E= -1028.81307502619     Delta-E=       -0.000000001523 Rises=F Damp=F
 DIIS: error= 4.39D-07 at cycle  13 NSaved=  13.
 NSaved=13 IEnMin=13 EnMin= -1028.81307502619     IErMin=13 ErrMin= 4.39D-07
 ErrMax= 4.39D-07  0.00D+00 EMaxC= 1.00D-01 BMatC= 4.74D-11 BMatP= 3.64D-10
 IDIUse=1 WtCom= 1.00D+00 WtEn= 0.00D+00
 Coeff-Com:  0.121D-06 0.292D-05-0.291D-04-0.139D-03-0.198D-03 0.772D-03
 Coeff-Com:  0.430D-02 0.696D-02-0.196D-01-0.751D-01-0.646D-01 0.279D+00
 Coeff-Com:  0.869D+00
 Coeff:      0.121D-06 0.292D-05-0.291D-04-0.139D-03-0.198D-03 0.772D-03
 Coeff:      0.430D-02 0.696D-02-0.196D-01-0.751D-01-0.646D-01 0.279D+00
 Coeff:      0.869D+00
 Gap=     0.264 Goal=   None    Shift=    0.000
 RMSDP=7.76D-08 MaxDP=1.71D-06 DE=-1.52D-09 OVMax= 1.15D-05

 Cycle  14  Pass 1  IDiag  1:
 RMSU=  2.80D-08    CP:  9.88D-01  1.38D+00  9.46D-01  8.62D-01  1.27D+00
                    CP:  1.45D+00  1.40D+00  1.35D+00  1.61D+00  1.67D+00
                    CP:  1.56D+00  1.36D+00  1.13D+00
 E= -1028.81307502633     Delta-E=       -0.000000000133 Rises=F Damp=F
 DIIS: error= 1.19D-07 at cycle  14 NSaved=  14.
 NSaved=14 IEnMin=14 EnMin= -1028.81307502633     IErMin=14 ErrMin= 1.19D-07
 ErrMax= 1.19D-07  0.00D+00 EMaxC= 1.00D-01 BMatC= 6.31D-12 BMatP= 4.74D-11
 IDIUse=1 WtCom= 1.00D+00 WtEn= 0.00D+00
 Coeff-Com: -0.106D-04 0.220D-04 0.365D-04 0.168D-04-0.158D-03-0.441D-03
 Coeff-Com:  0.753D-03 0.413D-02 0.422D-02-0.146D-01-0.559D-01 0.146D-01
 Coeff-Com:  0.328D+00 0.720D+00
 Coeff:     -0.106D-04 0.220D-04 0.365D-04 0.168D-04-0.158D-03-0.441D-03
 Coeff:      0.753D-03 0.413D-02 0.422D-02-0.146D-01-0.559D-01 0.146D-01
 Coeff:      0.328D+00 0.720D+00
 Gap=     0.264 Goal=   None    Shift=    0.000
 RMSDP=1.62D-08 MaxDP=3.80D-07 DE=-1.33D-10 OVMax= 1.92D-06

 Cycle  15  Pass 1  IDiag  1:
 RMSU=  1.03D-08    CP:  9.88D-01  1.38D+00  9.46D-01  8.62D-01  1.27D+00
                    CP:  1.45D+00  1.40D+00  1.35D+00  1.62D+00  1.67D+00
                    CP:  1.57D+00  1.40D+00  1.25D+00  1.02D+00
 E= -1028.81307502635     Delta-E=       -0.000000000023 Rises=F Damp=F
 DIIS: error= 4.99D-08 at cycle  15 NSaved=  15.
 NSaved=15 IEnMin=15 EnMin= -1028.81307502635     IErMin=15 ErrMin= 4.99D-08
 ErrMax= 4.99D-08  0.00D+00 EMaxC= 1.00D-01 BMatC= 8.98D-13 BMatP= 6.31D-12
 IDIUse=1 WtCom= 1.00D+00 WtEn= 0.00D+00
 Coeff-Com: -0.347D-05 0.649D-05 0.185D-04 0.314D-04-0.139D-04-0.317D-03
 Coeff-Com: -0.632D-03-0.217D-03 0.496D-02 0.974D-02-0.533D-02-0.516D-01
 Coeff-Com: -0.699D-01 0.214D+00 0.899D+00
 Coeff:     -0.347D-05 0.649D-05 0.185D-04 0.314D-04-0.139D-04-0.317D-03
 Coeff:     -0.632D-03-0.217D-03 0.496D-02 0.974D-02-0.533D-02-0.516D-01
 Coeff:     -0.699D-01 0.214D+00 0.899D+00
 Gap=     0.264 Goal=   None    Shift=    0.000
 RMSDP=9.48D-09 MaxDP=2.08D-07 DE=-2.25D-11 OVMax= 1.17D-06

 Error on total polarization charges =  0.00803
 SCF Done:  E(RwB97XD) =  -1028.81307503     A.U. after   15 cycles
            NFock= 15  Conv=0.95D-08     -V/T= 2.0051
 KE= 1.023555551989D+03 PE=-4.612221380871D+03 EE= 1.459756721183D+03
 Leave Link  502 at Tue Jul 14 14:39:30 2020, MaxMem=  7784628224 cpu:             819.9 elap:              82.7
 (Enter /gpfs/loomis/apps/avx/software/Gaussian/16-C.01_AVX/g16/l801.exe)
 DoSCS=F DFT=T ScalE2(SS,OS)=  1.000000  1.000000
 ExpMin= 1.22D-01 ExpMax= 1.11D+05 ExpMxC= 1.07D+03 IAcc=3 IRadAn=         5 AccDes= 0.00D+00
 HarFok:  IExCor=  205 AccDes= 0.00D+00 IRadAn=         5 IDoV=-2 UseB2=F ITyADJ=14
 ICtDFT= 12500011 ScaDFX=  1.000000  1.000000  1.000000  1.000000
 Largest valence mixing into a core orbital is  9.40D-05
 Largest core mixing into a valence orbital is  3.45D-05
 Range of M.O.s used for correlation:    21   273
 NBasis=   273 NAE=    59 NBE=    59 NFC=    20 NFV=     0
 NROrb=    253 NOA=    39 NOB=    39 NVA=   214 NVB=   214

 **** Warning!!: The largest alpha MO coefficient is  0.10919192D+02

 Leave Link  801 at Tue Jul 14 14:39:31 2020, MaxMem=  7784628224 cpu:               2.1 elap:               0.3
 (Enter /gpfs/loomis/apps/avx/software/Gaussian/16-C.01_AVX/g16/l914.exe)
 RHF ground state
 Keep R1, R2, and R3 ints in memory in canonical form, NReq=4262515490.
 FoFCou: FMM=F IPFlag=           0 FMFlag=           0 FMFlg1=           0
         NFxFlg=           0 DoJE=F BraDBF=F KetDBF=F FulRan=T
         wScrn=  0.000000 ICntrl=       600 IOpCl=  0 I1Cent=           0 NGrid=           0
         NMat0=    1 NMatS0=  37401 NMatT0=    0 NMatD0=    1 NMtDS0=    0 NMtDT0=    0
 Symmetry not used in FoFCou.
 Two-electron integral symmetry not used.
 MDV=  7784628224 DFT=T DoStab=F Mixed=T DoRPA=T DoScal=F NonHer=T
 NEqPCM:  Using equilibrium solvation (IEInf=0, Eps=   2.2280, EpsInf=   2.1319)
 Making orbital integer symmetry assigments:
    12 initial guesses have been made.
 Convergence on wavefunction:    0.000001000000000
 Davidson Disk Diagonalization:  ConvIn= 1.00D-06 SkipCon=T Conv= 1.00D-06.
 Max sub-space:  2000 roots to seek:    12 dimension of matrix:        16692
 Iteration     1 Dimension    12 NMult     0 NNew     12
 CISAX will form    12 AO SS matrices at one time.
 NMat=    12 NSing=    12 JSym2X= 0.
 Excitation Energies [eV] at current iteration:
 Root      1 :     3.974393136659502
 Root      2 :     4.897646281946324
 Root      3 :     5.094985678633430
 Root      4 :     5.316339047173588
 Root      5 :     6.055796825734927
 Root      6 :     6.213021968108593
 Root      7 :     6.287848091747826
 Root      8 :     6.497931549749244
 Root      9 :     6.867751229349063
 Root     10 :     7.229624310240999
 Root     11 :     7.409027291904009
 Root     12 :     7.903083450058516
 Iteration     2 Dimension    18 NMult    12 NNew      6
 CISAX will form     6 AO SS matrices at one time.
 NMat=     6 NSing=     6 JSym2X= 0.
 Root      1 not converged, maximum delta is    0.039346696157549
 Root      2 not converged, maximum delta is    0.162968398815765
 Root      3 not converged, maximum delta is    0.157394589435288
 Excitation Energies [eV] at current iteration:
 Root      1 :     3.502597531881888   Change is   -0.471795604777614
 Root      2 :     4.401336441272229   Change is   -0.496309840674095
 Root      3 :     4.675112563162770   Change is   -0.419873115470660
 Iteration     3 Dimension    24 NMult    18 NNew      6
 CISAX will form     6 AO SS matrices at one time.
 NMat=     6 NSing=     6 JSym2X= 0.
 Root      1 not converged, maximum delta is    0.024214056700415
 Root      2 not converged, maximum delta is    0.030220567056952
 Root      3 not converged, maximum delta is    0.030768156210752
 Excitation Energies [eV] at current iteration:
 Root      1 :     3.465611081276373   Change is   -0.036986450605515
 Root      2 :     4.365502480032173   Change is   -0.035833961240055
 Root      3 :     4.630607844349105   Change is   -0.044504718813665
 Iteration     4 Dimension    30 NMult    24 NNew      6
 CISAX will form     6 AO SS matrices at one time.
 NMat=     6 NSing=     6 JSym2X= 0.
 Root      1 not converged, maximum delta is    0.008088171643675
 Root      2 not converged, maximum delta is    0.008036180336116
 Root      3 not converged, maximum delta is    0.009051742523369
 Excitation Energies [eV] at current iteration:
 Root      1 :     3.461867472145270   Change is   -0.003743609131103
 Root      2 :     4.360189862130680   Change is   -0.005312617901493
 Root      3 :     4.625548377954856   Change is   -0.005059466394248
 Iteration     5 Dimension    36 NMult    30 NNew      6
 CISAX will form     6 AO SS matrices at one time.
 NMat=     6 NSing=     6 JSym2X= 0.
 Root      1 not converged, maximum delta is    0.002718228286538
 Root      2 not converged, maximum delta is    0.002493754215188
 Root      3 not converged, maximum delta is    0.003333755020881
 Excitation Energies [eV] at current iteration:
 Root      1 :     3.461473677213526   Change is   -0.000393794931745
 Root      2 :     4.359699189195356   Change is   -0.000490672935324
 Root      3 :     4.624827603315881   Change is   -0.000720774638976
 Iteration     6 Dimension    42 NMult    36 NNew      6
 CISAX will form     6 AO SS matrices at one time.
 NMat=     6 NSing=     6 JSym2X= 0.
 Root      1 not converged, maximum delta is    0.000569714764763
 Root      2 not converged, maximum delta is    0.000691982519490
 Root      3 not converged, maximum delta is    0.001168322687682
 Excitation Energies [eV] at current iteration:
 Root      1 :     3.461434037904349   Change is   -0.000039639309176
 Root      2 :     4.359655837238556   Change is   -0.000043351956800
 Root      3 :     4.624759308237110   Change is   -0.000068295078771
 Iteration     7 Dimension    48 NMult    42 NNew      6
 CISAX will form     6 AO SS matrices at one time.
 NMat=     6 NSing=     6 JSym2X= 0.
 Root      1 not converged, maximum delta is    0.000107950685881
 Root      2 not converged, maximum delta is    0.000244827035405
 Root      3 not converged, maximum delta is    0.000412386055477
 Excitation Energies [eV] at current iteration:
 Root      1 :     3.461430897536995   Change is   -0.000003140367354
 Root      2 :     4.359651627232458   Change is   -0.000004210006097
 Root      3 :     4.624752371085043   Change is   -0.000006937152067
 Iteration     8 Dimension    54 NMult    48 NNew      6
 CISAX will form     6 AO SS matrices at one time.
 NMat=     6 NSing=     6 JSym2X= 0.
 Root      1 not converged, maximum delta is    0.000027089842967
 Root      2 not converged, maximum delta is    0.000057512972079
 Root      3 not converged, maximum delta is    0.000088411006441
 Excitation Energies [eV] at current iteration:
 Root      1 :     3.461430747337312   Change is   -0.000000150199684
 Root      2 :     4.359651309015646   Change is   -0.000000318216812
 Root      3 :     4.624751785868562   Change is   -0.000000585216480
 Iteration     9 Dimension    60 NMult    54 NNew      6
 CISAX will form     6 AO SS matrices at one time.
 NMat=     6 NSing=     6 JSym2X= 0.
 Root      1 not converged, maximum delta is    0.000004851020005
 Root      2 not converged, maximum delta is    0.000014083453510
 Root      3 not converged, maximum delta is    0.000018001083223
 Excitation Energies [eV] at current iteration:
 Root      1 :     3.461430739481332   Change is   -0.000000007855980
 Root      2 :     4.359651290741623   Change is   -0.000000018274023
 Root      3 :     4.624751746548952   Change is   -0.000000039319610
 Iteration    10 Dimension    66 NMult    60 NNew      6
 CISAX will form     6 AO SS matrices at one time.
 NMat=     6 NSing=     6 JSym2X= 0.
 Root      1 has converged.
 Root      2 not converged, maximum delta is    0.000002831992790
 Root      3 not converged, maximum delta is    0.000003462157075
 Excitation Energies [eV] at current iteration:
 Root      1 :     3.461430739234977   Change is   -0.000000000246355
 Root      2 :     4.359651289439981   Change is   -0.000000001301642
 Root      3 :     4.624751744436168   Change is   -0.000000002112784
 Iteration    11 Dimension    70 NMult    66 NNew      4
 CISAX will form     4 AO SS matrices at one time.
 NMat=     4 NSing=     4 JSym2X= 0.
 Root      1 has converged.
 Root      2 has converged.
 Root      3 has converged.
 Excitation Energies [eV] at current iteration:
 Root      1 :     3.461430739233932   Change is   -0.000000000001045
 Root      2 :     4.359651289362425   Change is   -0.000000000077556
 Root      3 :     4.624751744332323   Change is   -0.000000000103845
 Convergence achieved on expansion vectors.
 ***********************************************************************
 Excited states from <AA,BB:AA,BB> singles matrix:
 ***********************************************************************
 
 1PDM for each excited state written to RWF  633
 Ground to excited state transition densities written to RWF  633
 Ground to excited state transition electric dipole moments (Au):
       state          X           Y           Z        Dip. S.      Osc.
         1        -1.6276      2.1812      0.0000      7.4068      0.6281
         2         1.2400     -0.4729     -0.0000      1.7611      0.1881
         3        -0.9431      0.0193      0.0000      0.8898      0.1008
 Ground to excited state transition velocity dipole moments (Au):
       state          X           Y           Z        Dip. S.      Osc.
         1         0.2017     -0.2774     -0.0000      0.1176      0.6165
         2        -0.1948      0.0676      0.0000      0.0425      0.1770
         3         0.1584     -0.0028     -0.0000      0.0251      0.0985
 Ground to excited state transition magnetic dipole moments (Au):
       state          X           Y           Z
         1        -0.0000     -0.0000      0.5006
         2         0.0000     -0.0000      1.3680
         3         0.0000     -0.0000     -0.0257
 Ground to excited state transition velocity quadrupole moments (Au):
       state          XX          YY          ZZ          XY          XZ          YZ
         1        -0.0827     -0.4563      0.0136      0.2688      0.0000     -0.0000
         2         0.3779     -0.7977      0.0019      0.1231     -0.0000     -0.0000
         3         0.4293      0.0473     -0.0274     -0.2777     -0.0000     -0.0000
 <0|del|b> * <b|rxdel|0> + <0|del|b> * <b|delr+rdel|0>
 Rotatory Strengths (R) in cgs (10**-40 erg-esu-cm/Gauss)
       state          XX          YY          ZZ    R(velocity)    E-M Angle
         1         0.0107     -0.0080      0.0176      0.0068       90.00
         2         0.0045      0.0031     -0.0072      0.0001       90.00
         3         0.0001      0.0024      0.0029      0.0018       90.00
 1/2[<0|r|b>*<b|rxdel|0> + (<0|rxdel|b>*<b|r|0>)*]
 Rotatory Strengths (R) in cgs (10**-40 erg-esu-cm/Gauss)
       state          XX          YY          ZZ     R(length)
         1        -0.0003      0.0308     -0.0108      0.0066
         2        -0.0064     -0.0002      0.0070      0.0001
         3         0.0054      0.0002      0.0001      0.0019
  1/2[<0|del|b>*<b|r|0> + (<0|r|b>*<b|del|0>)*] (Au)
       state          X           Y           Z        Dip. S.   Osc.(frdel)
         1        -0.3282     -0.6052     -0.0000      0.9334      0.6223
         2        -0.2416     -0.0320     -0.0000      0.2735      0.1824
         3        -0.1494     -0.0001     -0.0000      0.1495      0.0997

 Excitation energies and oscillator strengths:
 
 Excited state symmetry could not be determined.
 Excited State   1:      Singlet-?Sym    3.4614 eV  358.19 nm  f=0.6281  <S**2>=0.000
      59 -> 60         0.68888
 This state for optimization and/or second-order correction.
 Total Energy, E(TD-HF/TD-DFT) =  -1028.68586979    
 Copying the excited state density for this state as the 1-particle RhoCI density.
 
 Excited state symmetry could not be determined.
 Excited State   2:      Singlet-?Sym    4.3597 eV  284.39 nm  f=0.1881  <S**2>=0.000
      57 -> 60         0.25449
      58 -> 60         0.61404
      59 -> 62         0.10654
      59 -> 63         0.10445
 
 Excited state symmetry could not be determined.
 Excited State   3:      Singlet-?Sym    4.6248 eV  268.09 nm  f=0.1008  <S**2>=0.000
      57 -> 60         0.56944
      57 -> 62        -0.14486
      58 -> 60        -0.25437
      58 -> 61        -0.12804
      59 -> 61         0.20238
 SavETr:  write IOETrn=   770 NScale= 10 NData=  16 NLR=1 NState=    3 LETran=      64.
 The selected state is a singlet.
 CISGrd: IGrad=2 NXY=2 DFT=T
 CISAX will form     1 AO SS matrices at one time.
 NMat=     1 NSing=     1 JSym2X= 0.
 GePol: Maximum number of non-zero 1st derivatives   =     240
 Leave Link  914 at Tue Jul 14 14:42:14 2020, MaxMem=  7784628224 cpu:            1576.9 elap:             163.1
 (Enter /gpfs/loomis/apps/avx/software/Gaussian/16-C.01_AVX/g16/l1002.exe)
 Minotr:  Closed shell wavefunction.
          Computing CIS/TDA/TD derivatives.
          Using Z-Vector for PSCF gradient.
          Skipping F1 and S1 gradient terms here.
          IDoAtm=1111111111111111111111111
 NEqPCM:  Using equilibrium solvation (IEInf=0, Eps=   2.2280, EpsInf=   2.1319)
          Frozen-core window.
          Direct CPHF calculation.
          Differentiating once with respect to electric field.
                with respect to dipole field.
          Differentiating once with respect to nuclear coordinates.
          Requested convergence is 1.0D-10 RMS, and 1.0D-09 maximum.
          NewPWx=F KeepS1=T KeepF1=T KeepIn=T MapXYZ=F SortEE=F KeepMc=T.
 Keep R1 ints in memory in canonical form, NReq=1421356584.
 FoFCou: FMM=F IPFlag=           0 FMFlag=           0 FMFlg1=           0
         NFxFlg=           0 DoJE=F BraDBF=F KetDBF=F FulRan=T
         wScrn=  0.000000 ICntrl=       600 IOpCl=  0 I1Cent=           0 NGrid=           0
         NMat0=    1 NMatS0=  37401 NMatT0=    0 NMatD0=    1 NMtDS0=    0 NMtDT0=    0
 Symmetry not used in FoFCou.
 Two-electron integral symmetry not used.
          MDV=    7784628224 using IRadAn=       5.
          Solving linear equations separately, MaxMat=       0.
          There are     1 degrees of freedom in the 1st order CPHF.  IDoFFX=0 NUNeed=     1.
 LinEq1:  Iter=  0 NonCon=     1 RMS=4.33D-03 Max=2.16D-01 NDo=     1
 AX will form     1 AO Fock derivatives at one time.
 LinEq1:  Iter=  1 NonCon=     1 RMS=1.66D-03 Max=6.97D-02 NDo=     1
 LinEq1:  Iter=  2 NonCon=     1 RMS=9.82D-04 Max=3.90D-02 NDo=     1
 LinEq1:  Iter=  3 NonCon=     1 RMS=3.62D-04 Max=1.23D-02 NDo=     1
 LinEq1:  Iter=  4 NonCon=     1 RMS=1.87D-04 Max=7.64D-03 NDo=     1
 LinEq1:  Iter=  5 NonCon=     1 RMS=1.01D-04 Max=3.56D-03 NDo=     1
 LinEq1:  Iter=  6 NonCon=     1 RMS=4.14D-05 Max=1.52D-03 NDo=     1
 LinEq1:  Iter=  7 NonCon=     1 RMS=2.53D-05 Max=8.84D-04 NDo=     1
 LinEq1:  Iter=  8 NonCon=     1 RMS=1.08D-05 Max=3.66D-04 NDo=     1
 LinEq1:  Iter=  9 NonCon=     1 RMS=6.18D-06 Max=1.94D-04 NDo=     1
 LinEq1:  Iter= 10 NonCon=     1 RMS=2.28D-06 Max=7.12D-05 NDo=     1
 LinEq1:  Iter= 11 NonCon=     1 RMS=1.12D-06 Max=3.63D-05 NDo=     1
 LinEq1:  Iter= 12 NonCon=     1 RMS=5.78D-07 Max=1.63D-05 NDo=     1
 LinEq1:  Iter= 13 NonCon=     1 RMS=2.53D-07 Max=7.55D-06 NDo=     1
 LinEq1:  Iter= 14 NonCon=     1 RMS=1.07D-07 Max=3.28D-06 NDo=     1
 LinEq1:  Iter= 15 NonCon=     1 RMS=4.59D-08 Max=1.58D-06 NDo=     1
 LinEq1:  Iter= 16 NonCon=     1 RMS=1.90D-08 Max=5.77D-07 NDo=     1
 LinEq1:  Iter= 17 NonCon=     1 RMS=9.05D-09 Max=2.59D-07 NDo=     1
 LinEq1:  Iter= 18 NonCon=     1 RMS=3.39D-09 Max=9.97D-08 NDo=     1
 LinEq1:  Iter= 19 NonCon=     1 RMS=1.33D-09 Max=3.27D-08 NDo=     1
 LinEq1:  Iter= 20 NonCon=     1 RMS=7.94D-10 Max=2.16D-08 NDo=     1
 LinEq1:  Iter= 21 NonCon=     1 RMS=2.60D-10 Max=9.46D-09 NDo=     1
 LinEq1:  Iter= 22 NonCon=     1 RMS=1.15D-10 Max=3.36D-09 NDo=     1
 LinEq1:  Iter= 23 NonCon=     0 RMS=4.60D-11 Max=8.81D-10 NDo=     1
 Linear equations converged to 1.000D-10 1.000D-09 after    23 iterations.
 End of Minotr F.D. properties file   721 does not exist.
 End of Minotr F.D. properties file   722 does not exist.
 End of Minotr F.D. properties file   788 does not exist.
 Leave Link 1002 at Tue Jul 14 14:44:03 2020, MaxMem=  7784628224 cpu:             764.4 elap:             108.8
 (Enter /gpfs/loomis/apps/avx/software/Gaussian/16-C.01_AVX/g16/l601.exe)
 Copying SCF densities to generalized density rwf, IOpCl= 0 IROHF=0.

 **********************************************************************

            Population analysis using the SCF Density.

 **********************************************************************

 Alpha  occ. eigenvalues --  -89.08783 -19.27535 -14.47755 -10.39634 -10.38107
 Alpha  occ. eigenvalues --  -10.35756 -10.34711 -10.32477 -10.32326 -10.32308
 Alpha  occ. eigenvalues --  -10.32106 -10.31983 -10.31714 -10.31651 -10.30803
 Alpha  occ. eigenvalues --  -10.30695  -8.10909  -6.05738  -6.05397  -6.04971
 Alpha  occ. eigenvalues --   -1.16574  -1.08376  -0.96631  -0.95727  -0.92291
 Alpha  occ. eigenvalues --   -0.88675  -0.85014  -0.84308  -0.82279  -0.75845
 Alpha  occ. eigenvalues --   -0.71278  -0.70387  -0.69165  -0.67835  -0.63770
 Alpha  occ. eigenvalues --   -0.60466  -0.58973  -0.58661  -0.55804  -0.54378
 Alpha  occ. eigenvalues --   -0.54069  -0.53431  -0.52847  -0.50515  -0.50219
 Alpha  occ. eigenvalues --   -0.49320  -0.47022  -0.45993  -0.45750  -0.44747
 Alpha  occ. eigenvalues --   -0.44191  -0.42790  -0.42341  -0.40101  -0.36987
 Alpha  occ. eigenvalues --   -0.36397  -0.32008  -0.31436  -0.28164
 Alpha virt. eigenvalues --   -0.01798   0.04863   0.06626   0.07152   0.07857
 Alpha virt. eigenvalues --    0.10877   0.14529   0.15122   0.17134   0.17860
 Alpha virt. eigenvalues --    0.18581   0.21040   0.21406   0.22220   0.22245
 Alpha virt. eigenvalues --    0.23511   0.23923   0.24111   0.27906   0.29786
 Alpha virt. eigenvalues --    0.32373   0.33183   0.34767   0.35536   0.36956
 Alpha virt. eigenvalues --    0.37932   0.39036   0.40637   0.42869   0.43534
 Alpha virt. eigenvalues --    0.46733   0.48283   0.50755   0.51078   0.51333
 Alpha virt. eigenvalues --    0.51960   0.53390   0.54096   0.54195   0.55399
 Alpha virt. eigenvalues --    0.56074   0.56370   0.56736   0.57614   0.57952
 Alpha virt. eigenvalues --    0.58268   0.58494   0.58686   0.59251   0.60379
 Alpha virt. eigenvalues --    0.60735   0.60952   0.61484   0.62845   0.63134
 Alpha virt. eigenvalues --    0.65032   0.65893   0.66606   0.67193   0.69136
 Alpha virt. eigenvalues --    0.69764   0.71213   0.72107   0.72453   0.72661
 Alpha virt. eigenvalues --    0.73196   0.74376   0.75196   0.75860   0.78457
 Alpha virt. eigenvalues --    0.78644   0.79046   0.79997   0.81163   0.82224
 Alpha virt. eigenvalues --    0.85216   0.88424   0.91175   0.91692   0.93905
 Alpha virt. eigenvalues --    0.94883   0.95097   0.95385   0.97090   0.97129
 Alpha virt. eigenvalues --    0.97831   0.98531   1.00516   1.00552   1.01860
 Alpha virt. eigenvalues --    1.02396   1.05772   1.06521   1.07246   1.07336
 Alpha virt. eigenvalues --    1.07875   1.09199   1.09877   1.10232   1.11338
 Alpha virt. eigenvalues --    1.12090   1.12357   1.14455   1.14568   1.15484
 Alpha virt. eigenvalues --    1.15708   1.19844   1.20223   1.21833   1.21930
 Alpha virt. eigenvalues --    1.25127   1.29766   1.32651   1.33860   1.34793
 Alpha virt. eigenvalues --    1.36785   1.36980   1.39205   1.40420   1.47375
 Alpha virt. eigenvalues --    1.48737   1.48832   1.51153   1.53705   1.53821
 Alpha virt. eigenvalues --    1.54337   1.56234   1.56616   1.56915   1.57253
 Alpha virt. eigenvalues --    1.58473   1.59783   1.61859   1.65519   1.66187
 Alpha virt. eigenvalues --    1.67400   1.69160   1.69393   1.69745   1.70794
 Alpha virt. eigenvalues --    1.71811   1.72379   1.72749   1.73326   1.75468
 Alpha virt. eigenvalues --    1.76251   1.77649   1.79551   1.80785   1.81690
 Alpha virt. eigenvalues --    1.82508   1.82687   1.84119   1.84243   1.84780
 Alpha virt. eigenvalues --    1.86023   1.87826   1.88474   1.88595   1.91638
 Alpha virt. eigenvalues --    1.91869   1.92620   1.93160   1.94377   1.96716
 Alpha virt. eigenvalues --    1.99659   1.99685   2.00486   2.02857   2.02993
 Alpha virt. eigenvalues --    2.04490   2.07456   2.08282   2.11207   2.12417
 Alpha virt. eigenvalues --    2.17024   2.17655   2.19690   2.22719   2.23468
 Alpha virt. eigenvalues --    2.25449   2.27537   2.31578   2.36149   2.37896
 Alpha virt. eigenvalues --    2.41385   2.41458   2.43099   2.44200   2.46259
 Alpha virt. eigenvalues --    2.46841   2.48922   2.50137   2.52834   2.61120
 Alpha virt. eigenvalues --    2.62543   2.72034   2.72226   2.74772   2.78078
 Alpha virt. eigenvalues --    2.80141   2.82800   2.85061   2.88598   2.91304
 Alpha virt. eigenvalues --    2.97440   3.03048   3.07686   3.13035   3.33323
 Alpha virt. eigenvalues --    3.43785   3.53770   3.66466   3.91768
          Condensed to atoms (all electrons):
               1          2          3          4          5          6
     1  C    4.754890   0.467423   0.009637  -0.053120  -0.016300   0.518716
     2  C    0.467423   5.297378   0.346572  -0.031018  -0.066932  -0.008285
     3  C    0.009637   0.346572   4.787278   0.481336  -0.004814  -0.061167
     4  C   -0.053120  -0.031018   0.481336   4.793237   0.522171  -0.011575
     5  C   -0.016300  -0.066932  -0.004814   0.522171   4.743601   0.490548
     6  C    0.518716  -0.008285  -0.061167  -0.011575   0.490548   4.744840
     7  H    0.400430  -0.036150   0.008141  -0.000568   0.007787  -0.039646
     8  H   -0.000845   0.011439  -0.036425   0.395413  -0.041937   0.007701
     9  H    0.009017  -0.000840   0.008527  -0.038604   0.404235  -0.045418
    10  H   -0.042354   0.009199  -0.000461   0.008063  -0.042124   0.405918
    11  N    0.007243  -0.060137   0.461779  -0.038839   0.003076  -0.000125
    12  S   -0.073110   0.334911  -0.102900   0.007182   0.000291   0.004075
    13  C   -0.000212   0.003045   0.006632  -0.000489   0.000007   0.000005
    14  C   -0.000015   0.000159   0.000332   0.000007  -0.000000  -0.000000
    15  C    0.000007  -0.000252  -0.000158   0.000017  -0.000000  -0.000000
    16  C    0.000000  -0.000010   0.000006  -0.000000   0.000000  -0.000000
    17  H   -0.000014   0.000250  -0.000008   0.000001   0.000000   0.000000
    18  C    0.000000   0.000007  -0.000017  -0.000000   0.000000  -0.000000
    19  C   -0.000000   0.000001   0.000002   0.000000  -0.000000   0.000000
    20  H   -0.000000  -0.000000  -0.000000  -0.000000  -0.000000  -0.000000
    21  H   -0.000000  -0.000000   0.000000   0.000000  -0.000000   0.000000
    22  H    0.000000  -0.000000  -0.000000  -0.000000   0.000000  -0.000000
    23  C    0.004461  -0.052135  -0.124675  -0.000887   0.000275  -0.000192
    24  O    0.000001  -0.000039  -0.001884  -0.000037   0.000000  -0.000000
    25  H   -0.000059   0.002796  -0.006648  -0.000393  -0.000021   0.000009
               7          8          9         10         11         12
     1  C    0.400430  -0.000845   0.009017  -0.042354   0.007243  -0.073110
     2  C   -0.036150   0.011439  -0.000840   0.009199  -0.060137   0.334911
     3  C    0.008141  -0.036425   0.008527  -0.000461   0.461779  -0.102900
     4  C   -0.000568   0.395413  -0.038604   0.008063  -0.038839   0.007182
     5  C    0.007787  -0.041937   0.404235  -0.042124   0.003076   0.000291
     6  C   -0.039646   0.007701  -0.045418   0.405918  -0.000125   0.004075
     7  H    0.656378   0.000032  -0.000159  -0.010730  -0.000093  -0.007848
     8  H    0.000032   0.653996  -0.012554  -0.000104  -0.001467  -0.000159
     9  H   -0.000159  -0.012554   0.664073  -0.011853  -0.000083   0.000018
    10  H   -0.010730  -0.000104  -0.011853   0.660406   0.000001  -0.000175
    11  N   -0.000093  -0.001467  -0.000083   0.000001   6.518385  -0.070506
    12  S   -0.007848  -0.000159   0.000018  -0.000175  -0.070506  15.490553
    13  C   -0.000002   0.000030  -0.000000  -0.000000  -0.016697  -0.062529
    14  C    0.000002   0.000001   0.000000  -0.000000   0.003652  -0.014653
    15  C   -0.000000  -0.000016   0.000000   0.000000  -0.019439   0.005562
    16  C    0.000000   0.000000  -0.000000  -0.000000  -0.000066   0.000515
    17  H    0.000001   0.000000  -0.000000  -0.000000   0.000218   0.009346
    18  C    0.000000  -0.000000   0.000000  -0.000000  -0.000596  -0.000243
    19  C   -0.000000   0.000000  -0.000000  -0.000000   0.000031   0.000028
    20  H    0.000000   0.000000   0.000000   0.000000   0.000001   0.000019
    21  H   -0.000000   0.000000  -0.000000   0.000000   0.000010   0.000005
    22  H    0.000000  -0.000000  -0.000000  -0.000000  -0.000000  -0.000000
    23  C    0.000164  -0.000836   0.000007   0.000005   0.526669   0.310891
    24  O   -0.000000  -0.000090   0.000000  -0.000000  -0.062222  -0.000197
    25  H    0.000001   0.000855  -0.000003   0.000000   0.117661   0.003235
              13         14         15         16         17         18
     1  C   -0.000212  -0.000015   0.000007   0.000000  -0.000014   0.000000
     2  C    0.003045   0.000159  -0.000252  -0.000010   0.000250   0.000007
     3  C    0.006632   0.000332  -0.000158   0.000006  -0.000008  -0.000017
     4  C   -0.000489   0.000007   0.000017  -0.000000   0.000001  -0.000000
     5  C    0.000007  -0.000000  -0.000000   0.000000   0.000000   0.000000
     6  C    0.000005  -0.000000  -0.000000  -0.000000   0.000000  -0.000000
     7  H   -0.000002   0.000002  -0.000000   0.000000   0.000001   0.000000
     8  H    0.000030   0.000001  -0.000016   0.000000   0.000000  -0.000000
     9  H   -0.000000   0.000000   0.000000  -0.000000  -0.000000   0.000000
    10  H   -0.000000  -0.000000   0.000000  -0.000000  -0.000000  -0.000000
    11  N   -0.016697   0.003652  -0.019439  -0.000066   0.000218  -0.000596
    12  S   -0.062529  -0.014653   0.005562   0.000515   0.009346  -0.000243
    13  C    5.297239   0.476168   0.281810  -0.010929  -0.034065  -0.048295
    14  C    0.476168   4.831735  -0.007234   0.531105   0.397708  -0.053718
    15  C    0.281810  -0.007234   4.774854  -0.055510   0.006209   0.485002
    16  C   -0.010929   0.531105  -0.055510   4.736266  -0.032171  -0.019033
    17  H   -0.034065   0.397708   0.006209  -0.032171   0.651652  -0.000594
    18  C   -0.048295  -0.053718   0.485002  -0.019033  -0.000594   4.833865
    19  C   -0.052622  -0.021505  -0.008516   0.494220   0.007649   0.515593
    20  H    0.008628  -0.035054  -0.000201   0.401170  -0.011579   0.007923
    21  H    0.012676  -0.000511  -0.024986   0.006967   0.000040   0.379355
    22  H   -0.001335   0.009551   0.008730  -0.043056  -0.000163  -0.041920
    23  C    0.344174  -0.085725  -0.078680   0.006456  -0.023042   0.008029
    24  O   -0.094754   0.004466   0.541810  -0.000060  -0.000055  -0.054528
    25  H   -0.026649  -0.000962  -0.016580  -0.000001  -0.000016   0.003980
              19         20         21         22         23         24
     1  C   -0.000000  -0.000000  -0.000000   0.000000   0.004461   0.000001
     2  C    0.000001  -0.000000  -0.000000  -0.000000  -0.052135  -0.000039
     3  C    0.000002  -0.000000   0.000000  -0.000000  -0.124675  -0.001884
     4  C    0.000000  -0.000000   0.000000  -0.000000  -0.000887  -0.000037
     5  C   -0.000000  -0.000000  -0.000000   0.000000   0.000275   0.000000
     6  C    0.000000  -0.000000   0.000000  -0.000000  -0.000192  -0.000000
     7  H   -0.000000   0.000000  -0.000000   0.000000   0.000164  -0.000000
     8  H    0.000000   0.000000   0.000000  -0.000000  -0.000836  -0.000090
     9  H   -0.000000   0.000000  -0.000000  -0.000000   0.000007   0.000000
    10  H   -0.000000   0.000000   0.000000  -0.000000   0.000005  -0.000000
    11  N    0.000031   0.000001   0.000010  -0.000000   0.526669  -0.062222
    12  S    0.000028   0.000019   0.000005  -0.000000   0.310891  -0.000197
    13  C   -0.052622   0.008628   0.012676  -0.001335   0.344174  -0.094754
    14  C   -0.021505  -0.035054  -0.000511   0.009551  -0.085725   0.004466
    15  C   -0.008516  -0.000201  -0.024986   0.008730  -0.078680   0.541810
    16  C    0.494220   0.401170   0.006967  -0.043056   0.006456  -0.000060
    17  H    0.007649  -0.011579   0.000040  -0.000163  -0.023042  -0.000055
    18  C    0.515593   0.007923   0.379355  -0.041920   0.008029  -0.054528
    19  C    4.724649  -0.045343  -0.043149   0.405695   0.000889   0.002590
    20  H   -0.045343   0.672804  -0.000127  -0.011625  -0.000374   0.000002
    21  H   -0.043149  -0.000127   0.656567  -0.011768  -0.000419   0.002366
    22  H    0.405695  -0.011625  -0.011768   0.659287  -0.000009  -0.000050
    23  C    0.000889  -0.000374  -0.000419  -0.000009   5.079999  -0.002204
    24  O    0.002590   0.000002   0.002366  -0.000050  -0.002204   7.574797
    25  H   -0.000127  -0.000001  -0.000002   0.000007  -0.004724   0.321901
              25
     1  C   -0.000059
     2  C    0.002796
     3  C   -0.006648
     4  C   -0.000393
     5  C   -0.000021
     6  C    0.000009
     7  H    0.000001
     8  H    0.000855
     9  H   -0.000003
    10  H    0.000000
    11  N    0.117661
    12  S    0.003235
    13  C   -0.026649
    14  C   -0.000962
    15  C   -0.016580
    16  C   -0.000001
    17  H   -0.000016
    18  C    0.003980
    19  C   -0.000127
    20  H   -0.000001
    21  H   -0.000002
    22  H    0.000007
    23  C   -0.004724
    24  O    0.321901
    25  H    0.418167
 Mulliken charges:
               1
     1  C    0.014203
     2  C   -0.217381
     3  C    0.228915
     4  C   -0.031895
     5  C    0.000139
     6  C   -0.005404
     7  H    0.022262
     8  H    0.024965
     9  H    0.023637
    10  H    0.024210
    11  N   -0.368458
    12  S    0.165691
    13  C   -0.081835
    14  C   -0.035508
    15  C    0.107571
    16  C   -0.015872
    17  H    0.028631
    18  C   -0.014812
    19  C    0.019918
    20  H    0.013756
    21  H    0.022974
    22  H    0.026655
    23  C    0.091881
    24  O   -0.231816
    25  H    0.187571
 Sum of Mulliken charges =  -0.00000
 Mulliken charges with hydrogens summed into heavy atoms:
               1
     1  C    0.036465
     2  C   -0.217381
     3  C    0.228915
     4  C   -0.006930
     5  C    0.023777
     6  C    0.018806
    11  N   -0.368458
    12  S    0.165691
    13  C   -0.081835
    14  C   -0.006876
    15  C    0.107571
    16  C   -0.002116
    18  C    0.008162
    19  C    0.046574
    23  C    0.091881
    24  O   -0.044245
 Electronic spatial extent (au):  <R**2>=           4325.2400
 Charge=             -0.0000 electrons
 Dipole moment (field-independent basis, Debye):
    X=             -0.5601    Y=             -2.5502    Z=             -0.0000  Tot=              2.6110
 Quadrupole moment (field-independent basis, Debye-Ang):
   XX=            -83.0902   YY=            -89.8922   ZZ=           -104.4523
   XY=             -7.0434   XZ=             -0.0001   YZ=             -0.0001
 Traceless Quadrupole moment (field-independent basis, Debye-Ang):
   XX=              9.3880   YY=              2.5861   ZZ=            -11.9741
   XY=             -7.0434   XZ=             -0.0001   YZ=             -0.0001
 Octapole moment (field-independent basis, Debye-Ang**2):
  XXX=              7.2694  YYY=            -24.1706  ZZZ=              0.0001  XYY=             -7.2769
  XXY=              3.2082  XXZ=              0.0002  XZZ=              1.0171  YZZ=              3.9724
  YYZ=             -0.0000  XYZ=             -0.0004
 Hexadecapole moment (field-independent basis, Debye-Ang**3):
[...]
 5574,0.00000288,-0.00000063,0.00324407,0.00001039,-0.00000857,-0.05207
 290,-0.00000039,-0.00000053,-0.00384485,-0.00002932,0.00000449,0.13079
 897,0.00047280,-0.00010540,0.00000003,-0.00152653,0.00036122,-0.000000
 79,0.00040177,-0.00001841,0.00000003,0.00021244,0.00016866,0.00000008,
 0.00012800,0.00020713,0.,-0.00020103,-0.00021942,0.00000004,-0.0000311
 2,-0.00000843,-0.00000002,0.00005376,-0.00000633,0.,0.00000982,-0.0000
 0086,0.,0.00005349,-0.00001424,0.,0.00038193,0.00049120,-0.00000024,0.
 00568771,-0.00299397,-0.00000066,-0.00262964,-0.02837479,0.00000028,-0
 .07493923,-0.07743677,0.00000280,-0.00534091,0.00242158,0.00000078,0.0
 0950987,0.02203715,-0.00000040,0.06970867,0.00002392,-0.00016308,0.000
 00002,-0.00019742,0.00041575,0.00000043,0.00004763,0.00079605,0.000000
 08,0.00032043,-0.00005558,-0.00000001,0.00007321,0.00040344,0.00000001
 ,-0.00031544,-0.00019618,-0.00000005,-0.00000854,0.00002358,0.00000002
 ,0.00000275,-0.00001597,0.00000001,-0.00000920,0.00000498,0.,-0.000010
 23,0.00000486,-0.00000001,0.00070581,-0.00005867,0.,-0.00343284,0.0015
 3029,0.00000023,0.00195714,-0.00462222,-0.00000005,-0.07844342,-0.3243
 5280,0.00000574,-0.00030830,0.00198547,0.00000006,-0.00839049,-0.01645
 573,0.00000062,0.08463423,0.34067383,-0.00000012,0.,-0.00003433,0.0000
 0002,-0.00000030,-0.00047765,-0.00000026,0.00000050,0.00012461,0.00000
 017,-0.00000010,0.00011681,0.00000002,0.00000013,0.00000325,-0.0000000
 1,-0.00000003,0.00002299,0.,0.,0.00000879,-0.00000002,0.,0.00002486,0.
 ,0.,0.00000454,0.,0.,-0.00001833,0.00000039,-0.00000031,-0.00144283,-0
 .00000068,0.00000007,0.00141671,0.00000066,0.00000138,0.00242916,0.000
 00172,0.00000718,-0.02934124,0.00000011,-0.00000014,0.00608928,0.,-0.0
 0000175,0.00268587,-0.00000236,-0.00000676,0.01879456,-0.00225243,0.00
 211478,-0.00000017,0.00079026,-0.00170593,0.00000028,-0.00209042,0.006
 61518,0.00000082,0.00269630,-0.00056738,-0.00000005,-0.00046865,-0.000
 60833,-0.00000010,0.00302584,-0.00021494,0.00000013,-0.00013451,0.0000
 5441,0.,0.00014102,0.00001192,0.00000005,0.00012565,-0.00003462,0.0000
 0001,0.00009714,-0.00005514,0.,0.00785511,0.00490717,-0.00000094,-0.00
 180977,-0.00102771,-0.00000040,0.01077542,0.02643641,0.00000065,-0.015
 54968,0.02011802,0.00000188,-0.19005105,0.07610317,0.00000755,-0.00505
 517,-0.05236433,-0.00000032,-0.00029552,0.00002121,0.,0.68514623,0.000
 39394,-0.00070711,0.,-0.00417893,-0.00274087,-0.00000025,-0.00177235,0
 .00659385,0.00000007,0.00224585,-0.00066392,0.00000019,0.00056384,0.00
 226543,0.00000007,-0.00134430,-0.00129878,-0.00000008,0.00001073,0.000
 10343,0.,-0.00010724,-0.00005282,-0.00000001,-0.00002826,0.00001090,-0
 .00000002,0.00000971,-0.00000319,0.,0.00862456,-0.00291546,0.00000022,
 0.00126174,-0.00551334,-0.00000007,0.02899650,-0.03579616,-0.00000193,
 -0.00830257,0.00423451,0.00000015,0.10943460,-0.24012012,-0.00000914,-
 0.03089670,-0.02084946,0.00000115,-0.00044545,0.00030373,-0.00000016,0
 .03772921,0.73027040,0.00000006,-0.00000022,0.00013487,-0.00000080,-0.
 00000049,0.00084371,-0.00000052,0.00000097,0.00178454,0.00000044,-0.00
 000008,-0.00035167,0.00000005,0.00000046,-0.00008573,-0.00000029,-0.00
 000031,-0.00011254,0.,0.,0.00009916,-0.00000003,-0.00000001,0.00008593
 ,0.,0.,0.00003002,0.,0.,-0.00005573,0.00000086,-0.00000213,-0.00453068
 ,0.00000029,-0.00000043,-0.00012623,0.00000148,-0.00000182,0.01212869,
 -0.00000012,-0.00000091,-0.00194378,0.00000672,-0.00000604,-0.06462617
 ,0.00000035,0.00000168,0.00506137,-0.00000006,-0.00000002,-0.00069113,
 -0.00002682,0.00000667,0.11242170,0.00192861,-0.00047678,0.00000021,0.
 00488591,0.00440706,0.00000023,0.00796687,-0.01674780,-0.00000088,-0.0
 0760573,0.00238845,-0.00000027,-0.00004634,-0.00401097,0.,-0.00040419,
 0.00229423,0.,0.00006272,-0.00009293,0.,0.00001842,0.00006262,-0.00000
 003,-0.00007329,-0.00001215,0.,-0.00003100,0.00005437,-0.00000002,-0.0
 1885132,0.00873687,-0.00000076,0.00218960,0.00405732,0.00000007,-0.012
 93945,-0.02226681,-0.00000075,0.04642825,0.00454761,-0.00000211,-0.044
 74467,0.02359896,0.00000338,-0.13466291,-0.01460960,0.00000291,-0.0030
 8620,0.00430415,0.00000064,-0.34383222,-0.08074973,0.00001085,0.707314
 81,0.00105563,-0.00113051,0.00000008,-0.00380079,-0.00129875,-0.000000
 44,0.00010114,0.00432397,-0.00000022,0.00109852,-0.00037544,0.00000013
 ,0.00048572,0.00218775,0.00000009,-0.00196221,-0.00159742,-0.00000011,
 0.00003164,0.00006759,-0.00000001,-0.00009498,-0.00008677,-0.00000004,
 -0.00003803,0.00000774,-0.00000002,-0.00003050,0.00003698,0.,0.0052033
 3,-0.00012702,0.00000037,-0.00080549,-0.00251340,0.00000039,-0.0104785
 3,-0.01920970,0.00000019,0.03198468,-0.05758917,-0.00000278,0.01197775
 ,0.03459425,0.00000065,-0.07814643,-0.30539351,0.00000085,0.00307266,-
 0.00044310,-0.00000011,-0.04290918,-0.13459741,0.00000107,-0.03758698,
 0.68389242,-0.00000014,0.00000006,0.00014067,-0.00000010,-0.00000016,-
 0.00050318,-0.00000024,0.00000057,-0.00089047,0.00000030,-0.00000010,0
 .00008556,0.00000002,0.00000013,0.00008090,0.00000006,-0.00000003,0.00
 000778,0.,0.,-0.00003597,0.,0.,-0.00011436,0.,0.,0.00000254,0.,0.,0.00
 001482,0.00000061,-0.00000018,0.00109789,0.00000001,-0.00000012,0.0007
 3275,0.,0.00000114,-0.00381556,-0.00000120,-0.00000129,0.00950622,0.00
 000217,-0.00000154,0.00160160,0.00000253,-0.00000172,-0.06013641,0.000
 00042,0.00000010,0.00544285,0.00001094,0.00000237,-0.05024683,-0.00002
 487,0.00000780,0.11604301,0.00004855,-0.00009384,0.,-0.00008859,0.0001
 0412,0.,0.00002069,-0.00012404,0.00000003,-0.00001391,0.00003622,0.,0.
 00002306,0.00008591,0.,-0.00014822,0.00001144,0.,0.00000769,0.00000724
 ,0.,-0.00000678,-0.00000579,0.,-0.00001253,0.00000780,0.,-0.00000893,0
 .00000618,0.,-0.00023660,0.00044312,-0.00000001,0.00007853,-0.00009328
 ,-0.00000003,-0.00051945,0.00363025,0.00000028,-0.01519569,-0.00941823
 ,0.00000109,0.00049951,0.00028093,-0.00000006,-0.32749648,-0.07339842,
 0.00001367,0.00076993,0.00007217,-0.00000014,0.00165744,-0.00099215,0.
 00000021,-0.00306723,0.00180763,0.00000046,0.34402992,0.00000126,-0.00
 001054,0.,-0.00011126,-0.00012017,0.,-0.00000688,0.00028303,0.,0.00009
 704,-0.00007412,0.,0.00002402,0.00008178,0.,-0.00003018,-0.00003680,0.
 ,0.00000146,0.00000062,0.,-0.00000255,-0.00000101,0.,0.00000007,-0.000
 00251,0.,0.00000071,-0.00000063,0.,0.00043797,-0.00039355,-0.00000004,
 0.00002470,-0.00001670,0.,0.00374963,-0.00309446,-0.00000022,0.0213022
 4,0.00966829,-0.00000116,0.00057900,-0.00116442,-0.00000005,-0.0739694
 7,-0.07915245,0.00000338,-0.00010749,0.00083803,-0.00000001,-0.0001850
 2,-0.00542545,-0.00000009,-0.02950270,-0.00216943,0.00000124,0.0785187
 2,0.07867709,0.00000002,0.00000003,-0.00004972,0.00000013,0.00000007,0
 .00005447,0.00000006,-0.00000022,0.00046471,-0.00000013,0.00000004,0.0
 0015811,-0.00000002,-0.00000010,-0.00006909,0.00000005,0.00000003,0.00
 001984,0.,0.,0.00000715,0.,0.,0.00003691,0.,0.,-0.00003422,0.,0.,0.000
 00208,-0.00000007,0.00000025,-0.00077931,-0.00000009,0.00000003,-0.000
 13905,0.00000034,-0.00000022,0.00686048,0.00000143,0.00000058,0.006738
 49,0.00000014,0.00000003,-0.00107214,0.00001370,0.00000361,-0.03846991
 ,-0.00000017,-0.00000017,-0.00383084,-0.00000003,-0.00000006,0.0048562
 5,0.00000006,-0.00000040,0.00556683,-0.00001523,-0.00000321,0.02362499
 ,-0.00012850,0.00005402,-0.00000001,0.00014298,0.00004888,0.,-0.000152
 87,0.00007455,0.00000001,0.00005250,-0.00000972,0.,-0.00002305,-0.0000
 2611,0.,0.00009080,0.00001204,0.,-0.00000011,-0.00000624,0.,-0.0000024
 4,0.00000179,0.,0.00000246,-0.00000076,0.,-0.00000305,-0.00000111,0.,0
 .00034807,-0.00039605,0.00000013,-0.00031539,0.00022679,-0.00000003,-0
 .00445573,0.00289973,0.00000052,0.00014491,0.00016520,0.,0.00895098,0.
 02329762,-0.00000003,-0.00565431,0.00005248,0.00000051,0.00013158,-0.0
 0005087,-0.00000003,-0.07573954,-0.07235803,0.00000120,-0.00113200,-0.
 02885139,-0.00000006,-0.00025217,-0.00141769,-0.00000002,0.07393610,0.
 00008405,0.00002340,0.,-0.00004127,0.00002317,0.,0.00011282,-0.0001147
 0,0.,-0.00006500,0.00000969,0.,-0.00002139,-0.00008215,0.,0.00004805,-
 0.00000257,0.,-0.00000539,-0.00000098,0.,0.00001110,0.00000361,0.,0.00
 000912,-0.00000327,0.,0.00000857,-0.00000345,0.,-0.00034059,0.00028959
 ,-0.00000005,0.00020518,-0.00006597,0.00000002,0.00363039,-0.00056737,
 -0.00000028,0.00020760,0.00021892,-0.00000002,-0.01011191,-0.01655798,
 0.00000030,-0.00102419,0.00145795,0.00000006,-0.00005349,-0.00008784,0
 .00000001,-0.07063994,-0.33060678,0.00000014,0.00176269,-0.00258146,-0
 .00000008,0.00005771,-0.00022128,-0.00000003,0.07711103,0.34718564,0.0
 0000001,0.00000003,-0.00031375,0.00000013,0.00000008,-0.00012549,0.000
 00011,-0.00000021,0.00019818,-0.00000012,0.00000004,0.00000407,-0.0000
 0001,-0.00000009,-0.00004242,0.00000003,0.00000004,0.00004971,0.,0.,-0
 .00001483,0.,0.,0.00004007,0.,0.,-0.00000462,0.,0.,0.00005720,-0.00000
 024,0.00000019,0.00006017,-0.00000007,0.00000002,-0.00017316,0.0000005
 7,-0.00000062,0.00445368,0.00000007,0.00000007,-0.00061003,-0.00000003
 ,-0.00000088,0.00312168,0.00000043,0.00000007,0.00676375,-0.00000002,-
 0.00000003,-0.00059789,0.00000144,0.00000042,-0.03226955,0.00000005,0.
 00000104,0.00340724,0.00000001,0.00000006,-0.00024804,-0.00000150,-0.0
 0000025,0.02260856,0.00005400,-0.00010706,0.,-0.00035793,-0.00005951,0
 .,-0.00005858,0.00049944,0.00000003,0.00022482,-0.00007177,0.00000001,
 0.00004770,0.00026790,0.,-0.00019578,-0.00010923,-0.00000001,0.0000036
 3,0.00001080,0.,-0.00000786,-0.00000986,0.,-0.00000991,0.00000555,0.,-
 0.00000599,0.00000405,0.,0.00052684,0.00013314,-0.00000010,-0.00001357
 ,-0.00015874,0.00000001,0.00064457,-0.00064842,-0.00000003,-0.00057606
 ,-0.00204221,0.00000011,-0.00347105,-0.00322255,0.00000029,0.00895372,
 -0.00894982,-0.00000034,0.00028140,-0.00035701,0.00000002,-0.01464361,
 0.02202393,0.00000086,-0.20837095,0.14607117,0.00000874,0.00068411,0.0
 0030008,-0.00000014,0.00104911,-0.00015733,-0.00000021,0.21727452,0.00
 003454,0.00009065,0.,0.00035440,0.00028323,0.,0.00043335,-0.00085141,-
 0.00000002,-0.00040187,0.00014950,-0.00000002,-0.00003810,-0.00034595,
 0.,0.00016450,0.00013131,0.00000001,-0.00000913,-0.00000907,0.,0.00001
 527,0.00000845,0.,0.00000911,-0.00000563,0.,0.00000899,-0.00000312,0.,
 -0.00088503,0.00055915,-0.00000007,-0.00000040,0.00026308,0.,-0.001506
 48,0.00000860,0.00000006,-0.00218160,-0.00464596,0.00000004,-0.0022235
 8,-0.00057682,-0.00000002,0.02360399,-0.01439128,-0.00000112,0.0010622
 6,-0.00085419,-0.00000007,-0.00926128,0.00943102,0.00000031,0.14557217
 ,-0.19790854,-0.00000771,-0.00013386,0.00098444,0.,0.00028722,0.000669
 64,0.00000005,-0.15492547,0.20687738,0.00000006,-0.00000003,0.00005559
 ,0.00000001,0.00000009,0.00005744,0.00000004,-0.00000013,-0.00016096,-
 0.00000004,-0.00000001,0.00001788,0.,0.,0.00001542,-0.00000005,0.00000
 002,-0.00000314,0.,0.,0.00000104,0.,0.,0.00001960,0.,0.,0.00000184,0.,
 0.,-0.00002964,-0.00000017,0.00000018,0.00043571,-0.00000001,0.0000000
 8,-0.00024980,-0.00000014,0.00000019,-0.00154185,-0.00000005,0.0000001
 9,0.00407485,0.00000043,0.,0.00684362,-0.00000006,-0.00000018,0.002951
 11,0.00000008,-0.00000008,0.00093988,0.00000082,-0.00000070,0.00413148
 ,0.00000883,-0.00000782,-0.03212711,-0.00000023,0.00000001,-0.00293655
 ,-0.00000019,0.00000001,-0.00399660,-0.00000951,0.00000835,0.02198347,
 -0.00737844,-0.00430728,-0.00000035,-0.01330371,0.01178967,0.00000031,
 -0.08997605,0.06320994,-0.00000255,0.02306912,-0.00878772,0.00000094,0
 .00090685,0.01607702,0.00000028,-0.00790628,-0.00342037,-0.00000057,0.
 00027866,-0.00044241,0.00000007,-0.00059865,-0.00018116,-0.00000007,-0
 .00019228,0.00023603,0.00000001,-0.00066925,-0.00002311,0.,-0.29267018
 ,-0.05173114,-0.00000998,-0.05016596,-0.05073152,-0.00000261,-0.222146
 17,0.13353848,0.00000833,-0.05568925,0.03818521,0.00000290,0.01161082,
 0.01006385,0.00000002,0.00303608,-0.01719340,-0.00000016,0.00052601,-0
 .00048786,-0.00000031,-0.00103027,-0.01530196,-0.00000021,0.00683583,-
 0.00314141,-0.00000027,-0.00076703,0.00045892,0.00000015,0.00097145,-0
 .00060469,0.,-0.00052778,0.00069089,0.00000013,0.69127622,-0.00491228,
 0.00754152,0.00000019,0.04644643,-0.02793378,0.00000147,0.02848339,-0.
 01127744,0.00000027,-0.00278326,-0.00576198,-0.00000041,-0.00163981,-0
 .00728465,-0.00000013,0.00886922,0.00239974,0.00000036,-0.00033154,-0.
 00075428,0.00000003,0.00008518,0.00038190,-0.00000003,0.00044576,-0.00
 060698,0.00000005,0.00003537,-0.00005505,-0.00000006,-0.05749117,-0.09
 435695,-0.00000323,-0.03176684,-0.15606023,-0.00000684,0.11348380,-0.2
 2626215,-0.00000755,0.01902752,0.01308976,0.00000024,0.03473443,-0.045
 58847,-0.00000216,-0.00660423,-0.00120789,0.00000049,-0.00216171,0.000
 88165,0.00000014,-0.01653500,0.00410176,0.00000123,0.00545602,0.008706
 97,-0.00000052,-0.00076245,0.00110458,-0.00000002,0.00047414,-0.000597
 97,0.00000012,0.00045737,-0.00012192,-0.00000009,-0.11586797,0.5536754
 4,-0.00000049,0.00000022,0.00236008,0.00000096,0.00000016,-0.00191890,
 -0.00000264,0.00000194,0.00390844,0.00000049,-0.00000059,0.00490109,-0
 .00000017,0.00000001,0.00098862,0.00000018,0.,0.00107036,0.,-0.0000000
 3,-0.00055308,0.00000003,0.00000003,-0.00069161,0.00000007,0.,-0.00078
 793,0.,0.,-0.00034794,-0.00000823,-0.00000294,-0.03836855,-0.00000240,
 -0.00000747,-0.01922564,0.00000256,-0.00000429,-0.04096156,0.00000334,
 -0.00000037,0.00922077,0.00000214,-0.00000330,0.00763329,-0.00000006,0
 .00000014,0.00177283,0.00000026,-0.00000023,-0.00073018,-0.00000257,0.
 00000045,0.00007308,0.00000223,0.00000026,-0.00101069,-0.00000006,0.00
 000003,-0.00076692,-0.00000004,0.,0.00147927,0.,0.00000003,0.00021700,
 0.00000427,0.00001466,0.07078990,0.00083123,0.00324861,0.00000017,0.00
 939500,0.01018308,0.00000110,0.01854431,-0.01707244,-0.00000033,-0.008
 43748,0.00294003,-0.00000075,-0.00191890,-0.00872667,-0.00000027,0.005
 03797,0.00378536,0.00000027,-0.00030578,0.00008875,0.,0.00045900,0.000
 08128,0.00000004,0.00010673,-0.00000106,0.00000006,0.00008836,0.000028
 69,0.,-0.02355749,0.05912409,-0.00000808,-0.00001975,0.01073621,-0.000
 00010,-0.05583107,-0.02060336,0.00000405,0.03046954,-0.01016458,-0.000
 00064,-0.40165889,-0.09685732,0.00002268,-0.01321351,0.01568545,0.0000
 0041,-0.00080017,-0.00034402,0.00000024,-0.06350832,0.00994006,0.00000
 577,0.00055107,0.00408366,0.00000037,-0.00007916,-0.00016257,-0.000000
 23,0.00230273,-0.00034080,-0.00000067,-0.00146264,-0.00075733,0.000000
 09,0.00393075,-0.00981453,-0.00000183,0.55425109,-0.00085506,-0.001600
 43,-0.00000020,-0.00174369,-0.00615379,-0.00000065,-0.01602396,0.00296
 611,0.00000075,0.00261272,-0.00127380,0.00000027,0.00047923,0.00272399
 ,0.00000007,-0.00133330,-0.00163527,-0.00000005,0.00018630,-0.00037937
 ,-0.00000002,0.00002306,0.00015626,0.00000002,0.00014992,-0.00012072,-
 0.00000001,0.00002597,-0.00008397,0.,0.03278083,-0.06631167,0.00000746
 ,0.00075203,-0.00250366,0.00000034,-0.03988296,-0.01320062,0.00000080,
 -0.00621778,-0.00720256,0.00000021,-0.06909197,-0.13357821,-0.00000151
 ,0.00095727,-0.00371404,0.00000013,-0.00197635,-0.00039483,0.00000005,
 0.03941495,0.02111928,-0.00000109,0.00158653,-0.00731940,0.00000023,-0
 .00006968,0.00040854,-0.00000003,-0.00210325,0.00185541,-0.00000005,0.
 00159061,0.00080692,-0.00000019,0.00804942,0.01028971,0.00000055,0.031
 47806,0.33651106,-0.00000013,-0.00000010,0.00039353,-0.00000030,-0.000
 00055,-0.00076919,-0.00000191,0.00000125,-0.00020373,0.00000064,-0.000
 00038,0.00031483,0.00000019,0.00000064,0.00014637,-0.00000034,-0.00000
 009,0.00004347,0.00000002,0.,-0.00007421,0.,0.,-0.00013505,0.,0.,-0.00
 003202,0.,0.,-0.00008747,0.00000160,-0.00000234,0.01262743,-0.00000019
 ,-0.00000059,-0.00064594,0.00000362,0.00000140,0.01694055,-0.00000174,
 0.00000048,0.00205191,0.00002633,0.00000012,-0.04593445,0.00000088,-0.
 00000083,-0.00037926,-0.00000006,0.00000017,-0.00132694,0.00000641,0.0
 0000064,0.00752342,0.00000035,-0.00000088,0.00405100,0.00000002,0.0000
 0004,-0.00000051,-0.00000047,0.00000019,-0.00325292,0.00000028,0.00000
 012,0.00001639,-0.00000020,-0.00000039,-0.00309059,-0.00004099,0.00001
 457,0.04583735,-0.00084693,-0.00123909,-0.00000015,-0.00492494,-0.0048
 3111,-0.00000058,-0.01060418,0.01139211,-0.00000008,0.00472187,-0.0016
 4736,0.00000042,0.00075395,0.00402510,0.00000015,-0.00185552,-0.001666
 27,-0.00000011,0.00017104,-0.00008371,0.00000003,-0.00036189,-0.000021
 66,-0.00000004,0.00001096,-0.00001809,-0.00000003,-0.00002371,-0.00006
 713,0.,-0.00751785,-0.02728959,0.00000659,-0.00220204,-0.00705102,-0.0
 0000044,0.00802935,-0.00101942,-0.00000043,-0.00988316,0.00259924,0.00
 000016,-0.04982271,0.02657910,0.00000679,0.00264506,-0.00529162,-0.000
 00015,0.00052115,0.00019301,-0.00000006,0.00415074,-0.00475700,-0.0000
 0032,0.00066538,0.00087237,0.00000025,0.00007335,0.,0.00000006,-0.0002
 6451,0.00015767,0.,-0.00004272,0.00008744,-0.00000002,0.00057950,-0.00
 732783,0.00000197,-0.05517462,0.01921109,0.00000597,0.12120241,0.00286
 903,0.00206357,0.00000055,0.00734323,0.01383515,0.00000140,0.03051459,
 -0.01935851,-0.00000274,-0.01020057,0.00478963,-0.00000073,-0.00193944
 ,-0.00876727,-0.00000023,0.00314871,0.00388655,0.00000017,-0.00033724,
 0.00043170,-0.00000003,0.00020283,-0.00019078,-0.00000006,-0.00015754,
 0.00017233,0.00000003,-0.00004003,0.00016382,0.,-0.04294134,0.03248208
 ,-0.00000950,0.00206572,0.01237176,0.00000039,-0.02519703,0.00423988,0
 .00000093,0.02405085,-0.00590109,-0.00000030,0.03700300,0.02030337,-0.
 00000074,-0.00621216,0.01362711,0.00000015,-0.00053297,-0.00016147,0.0
 0000027,-0.01741765,0.00285657,0.00000109,-0.00277259,0.00052336,-0.00
 000019,0.00002229,-0.00016288,-0.00000018,0.00051573,-0.00024328,-0.00
 000007,-0.00054506,-0.00054949,0.00000010,-0.01007744,-0.02430328,0.00
 000072,0.01344133,-0.13136497,-0.00001345,-0.00280626,0.07925614,-0.00
 000013,-0.00000043,0.00028039,0.00000028,-0.00000060,0.00113690,-0.000
 00094,-0.00000268,-0.00355002,-0.00000059,0.00000016,-0.00052996,0.000
 00016,-0.00000020,0.00000533,-0.00000013,0.00000016,-0.00006223,0.0000
 0006,-0.00000009,-0.00002770,-0.00000006,0.00000006,-0.00001654,0.0000
 0001,-0.00000003,0.00005202,0.,-0.00000001,0.00003910,0.00000403,0.000
 00522,-0.01476496,-0.00000043,-0.00000114,0.00087147,0.00000002,-0.000
 00034,-0.00470518,-0.00000068,0.00000018,0.00029146,-0.00000069,-0.000
 00278,-0.00198312,0.00000035,-0.00000034,-0.00000886,-0.00000001,-0.00
 000007,0.00038720,0.00000038,0.00000001,0.00586583,-0.00000014,-0.0000
 0009,0.00109895,-0.00000002,0.,0.00000601,0.,-0.00000001,-0.00059428,-
 0.00000001,0.00000004,-0.00071668,-0.00000014,0.00000219,0.00403885,0.
 00001866,-0.00002164,-0.03401396,-0.00001998,0.00002242,0.04689998\\-0
 .00193760,0.00165293,-0.00000024,0.00193813,0.00430801,-0.00000049,0.0
 0509266,0.00062633,0.00000272,0.00109544,-0.00151852,0.00000006,-0.000
 81016,-0.00441743,-0.00000014,-0.00202458,-0.00180515,-0.00000004,-0.0
 0043324,0.00029696,0.00000010,0.00039288,-0.00030229,0.00000005,-0.000
 07615,-0.00043492,0.,-0.00034070,-0.00024125,0.00000004,-0.00241115,0.
 00539647,0.00000488,0.00277438,0.01094199,0.00000009,-0.00182793,0.002
 69702,-0.00000051,0.00466036,-0.00217556,0.00000054,0.00476674,0.00220
 049,0.00000223,-0.00117920,-0.00058459,-0.00000029,0.00036197,-0.00020
 415,0.00000015,-0.00356125,-0.00024423,-0.00000142,-0.00397463,-0.0031
 3434,-0.00000032,-0.00003377,-0.00039200,0.00000015,-0.00044423,0.0000
 4591,0.00000017,-0.00044174,-0.00035418,0.00000020,-0.00101097,-0.0000
 7631,-0.00000205,-0.00373490,-0.00200241,0.00000958,0.00315966,-0.0102
 7880,-0.00001548\\\@
 The archive entry for this job was punched.


 The lyf so short, the craft so long to lerne.
                             -- Chaucer
 Job cpu time:       0 days  2 hours 51 minutes 42.7 seconds.
 Elapsed time:       0 days  0 hours 18 minutes 14.2 seconds.
 File lengths (MBytes):  RWF=   1376 Int=      0 D2E=      0 Chk=     48 Scr=      8
 Normal termination of Gaussian 16 at Tue Jul 14 15:39:48 2020.
