 Entering Gaussian System, Link 0=g16
 Initial command:
 /gpfs/loomis/apps/avx/software/Gaussian/16-C.01_AVX/g16/l1.exe "/home/fas/batista/pev4/scratch60/gauss-scratch/Gau-60510.inp" -scrdir="/home/fas/batista/pev4/scratch60/gauss-scratch/"
 Entering Link 1 = /gpfs/loomis/apps/avx/software/Gaussian/16-C.01_AVX/g16/l1.exe PID=     60511.
  
 Copyright (c) 1988-2019, Gaussian, Inc.  All Rights Reserved.
  
 This is part of the Gaussian(R) 16 program.  It is based on
 the Gaussian(R) 09 system (copyright 2009, Gaussian, Inc.),
 the Gaussian(R) 03 system (copyright 2003, Gaussian, Inc.),
 the Gaussian(R) 98 system (copyright 1998, Gaussian, Inc.),
 the Gaussian(R) 94 system (copyright 1995, Gaussian, Inc.),
 the Gaussian 92(TM) system (copyright 1992, Gaussian, Inc.),
 the Gaussian 90(TM) system (copyright 1990, Gaussian, Inc.),
 the Gaussian 88(TM) system (copyright 1988, Gaussian, Inc.),
 the Gaussian 86(TM) system (copyright 1986, Carnegie Mellon
 University), and the Gaussian 82(TM) system (copyright 1983,
 Carnegie Mellon University). Gaussian is a federally registered
 trademark of Gaussian, Inc.
  
 This software contains proprietary and confidential information,
 including trade secrets, belonging to Gaussian, Inc.
  
 This software is provided under written license and may be
 used, copied, transmitted, or stored only in accord with that
 written license.
  
 The following legend is applicable only to US Government
 contracts under FAR:
  
                    RESTRICTED RIGHTS LEGEND
  
 Use, reproduction and disclosure by the US Government is
 subject to restrictions as set forth in subparagraphs (a)
 and (c) of the Commercial Computer Software - Restricted
 Rights clause in FAR 52.227-19.
  
 Gaussian, Inc.
 340 Quinnipiac St., Bldg. 40, Wallingford CT 06492
  
  
 ---------------------------------------------------------------
 Warning -- This program may not be used in any manner that
 competes with the business of Gaussian, Inc. or will provide
 assistance to any competitor of Gaussian, Inc.  The licensee
 of this program is prohibited from giving any competitor of
 Gaussian, Inc. access to this program.  By using this program,
 the user acknowledges that Gaussian, Inc. is engaged in the
 business of creating and licensing software in the field of
 computational chemistry and represents and warrants to the
 licensee that it is not a competitor of Gaussian, Inc. and that
 it will not use this program in any manner prohibited above.
 ---------------------------------------------------------------
  

 Cite this work as:
 Gaussian 16, Revision C.01,
 M. J. Frisch, G. W. Trucks, H. B. Schlegel, G. E. Scuseria, 
 M. A. Robb, J. R. Cheeseman, G. Scalmani, V. Barone, 
 G. A. Petersson, H. Nakatsuji, X. Li, M. Caricato, A. V. Marenich, 
 J. Bloino, B. G. Janesko, R. Gomperts, B. Mennucci, H. P. Hratchian, 
 J. V. Ortiz, A. F. Izmaylov, J. L. Sonnenberg, D. Williams-Young, 
 F. Ding, F. Lipparini, F. Egidi, J. Goings, B. Peng, A. Petrone, 
 T. Henderson, D. Ranasinghe, V. G. Zakrzewski, J. Gao, N. Rega, 
 G. Zheng, W. Liang, M. Hada, M. Ehara, K. Toyota, R. Fukuda, 
 J. Hasegawa, M. Ishida, T. Nakajima, Y. Honda, O. Kitao, H. Nakai, 
 T. Vreven, K. Throssell, J. A. Montgomery, Jr., J. E. Peralta, 
 F. Ogliaro, M. J. Bearpark, J. J. Heyd, E. N. Brothers, K. N. Kudin, 
 V. N. Staroverov, T. A. Keith, R. Kobayashi, J. Normand, 
 K. Raghavachari, A. P. Rendell, J. C. Burant, S. S. Iyengar, 
 J. Tomasi, M. Cossi, J. M. Millam, M. Klene, C. Adamo, R. Cammi, 
 J. W. Ochterski, R. L. Martin, K. Morokuma, O. Farkas, 
 J. B. Foresman, and D. J. Fox, Gaussian, Inc., Wallingford CT, 2019.
 
 ******************************************
 Gaussian 16:  ES64L-G16RevC.01  3-Jul-2019
                13-Jul-2020 
 ******************************************
 %chk=config_12_7.chk
 %mem=58GB
 %nprocshared=10
 Will use up to   10 processors via shared memory.
 ----------------------------------------------------------------------
 #p opt=addgic freq td wb97xd/cc-pvdz nosymm int=ultrafine scrf=(solven
 t=CarbonTetraChloride)
 ----------------------------------------------------------------------
 1/18=20,19=15,26=6,38=1,145=903/1,3;
 2/9=110,12=2,15=1,17=6,18=5,40=1/2;
 3/5=16,11=9,25=1,30=1,70=2201,71=1,72=11,74=-58,75=-5/1,2,3,8;
 4//1;
 5/5=2,38=5,53=11/2;
 8/6=1,10=1/1;
 9/15=2,42=1,70=2/14;
 10/5=4,31=1/2;
 6/7=2,8=2,9=2,10=2/1;
 7/12=6,13=5,30=1/1,2,3,16;
 1/18=20,19=15,26=6,145=903/3(2);
 2/9=110,15=1/2;
 99//99;
 2/9=110,15=1/2;
 3/5=16,11=9,25=1,30=1,70=2205,71=1,72=11,74=-58,75=-5/1,2,3,8;
 4/5=5,16=3,69=1/1;
 5/5=2,38=5,53=11/2;
 8/6=1,10=1/1;
 9/15=2,42=1,49=4,70=2/14;
 10/5=4,31=1/2;
 7/12=6,13=5,30=1/1,2,3,16;
 1/18=20,19=15,26=6,145=903/3(-8);
 2/9=110,15=1/2;
 6/7=2,8=2,9=2,10=2/1;
 99/9=10/99;
 Leave Link    1 at Mon Jul 13 20:49:56 2020, MaxMem=  7784628224 cpu:               4.1 elap:               0.5
 (Enter /gpfs/loomis/apps/avx/software/Gaussian/16-C.01_AVX/g16/l101.exe)
 ------------------------------------------------
 NM 2D-scan of HBT TD-WB97XD pVDZ in CTC Relaxed.
 ------------------------------------------------
 Symbolic Z-matrix:
 Charge =  0 Multiplicity = 1
 C                     1.67865  -3.25819  -0.00002 
 C                     1.01082  -2.03302  -0.00002 
 C                     1.72456  -0.81102  -0.00002 
 C                     3.11447  -0.81371  -0.00002 
 C                     3.77647  -2.03946  -0.00002 
 C                     3.07373  -3.24799  -0.00002 
 H                     1.12431  -4.19758  -0.00002 
 H                     3.66509   0.12725  -0.00002 
 H                     4.8675   -2.05034  -0.00002 
 H                     3.61808  -4.19287  -0.00002 
 N                     0.88656   0.29602  -0.00002 
 S                    -0.73136  -1.75208  -0.00002 
 C                    -1.39895   1.03248   0. 
 C                    -2.75991   0.8343   0. 
 C                    -0.85162   2.42283   0.00003 
 C                    -3.65227   1.94722   0.00003 
 H                    -3.17941  -0.17534  -0.00002 
 C                    -1.80205   3.4932    0.00006 
 C                    -3.17761   3.25532   0.00005 
 H                    -4.72599   1.7537    0.00002 
 H                    -1.38468   4.50135   0.00008 
 H                    -3.87932   4.0897    0.00008 
 C                    -0.43318  -0.02691  -0.00002 
 O                     0.38212   2.6263    0.00004 
 H                     1.10412   0.94211  -0.00001 
 
 Initializing the GIC definitions file.
 Number of initial coordinates =   134
 Number of input entries/lines =    52
 Number of additional coordinates =     2
 Number of removed coordinates =     0
 Number of frozen coordinates =     2
 Number of final active and frozen coordinates =   136
 ITRead=  0  0  0  0  0  0  0  0  0  0  0  0  0  0  0  0  0  0  0  0
 ITRead=  0  0  0  0  0
 MicOpt= -1 -1 -1 -1 -1 -1 -1 -1 -1 -1 -1 -1 -1 -1 -1 -1 -1 -1 -1 -1
 MicOpt= -1 -1 -1 -1 -1
 NAtoms=     25 NQM=       25 NQMF=       0 NMMI=      0 NMMIF=      0
                NMic=       0 NMicF=      0.
                    Isotopes and Nuclear Properties:
 (Nuclear quadrupole moments (NQMom) in fm**2, nuclear magnetic moments (NMagM)
  in nuclear magnetons)

  Atom         1           2           3           4           5           6           7           8           9          10
 IAtWgt=          12          12          12          12          12          12           1           1           1           1
 AtmWgt=  12.0000000  12.0000000  12.0000000  12.0000000  12.0000000  12.0000000   1.0078250   1.0078250   1.0078250   1.0078250
 NucSpn=           0           0           0           0           0           0           1           1           1           1
 AtZEff=  -0.0000000  -0.0000000  -0.0000000  -0.0000000  -0.0000000  -0.0000000  -0.0000000  -0.0000000  -0.0000000  -0.0000000
 NQMom=    0.0000000   0.0000000   0.0000000   0.0000000   0.0000000   0.0000000   0.0000000   0.0000000   0.0000000   0.0000000
 NMagM=    0.0000000   0.0000000   0.0000000   0.0000000   0.0000000   0.0000000   2.7928460   2.7928460   2.7928460   2.7928460
 AtZNuc=   6.0000000   6.0000000   6.0000000   6.0000000   6.0000000   6.0000000   1.0000000   1.0000000   1.0000000   1.0000000

  Atom        11          12          13          14          15          16          17          18          19          20
 IAtWgt=          14          32          12          12          12          12           1          12          12           1
 AtmWgt=  14.0030740  31.9720718  12.0000000  12.0000000  12.0000000  12.0000000   1.0078250  12.0000000  12.0000000   1.0078250
 NucSpn=           2           0           0           0           0           0           1           0           0           1
 AtZEff=  -0.0000000  -0.0000000  -0.0000000  -0.0000000  -0.0000000  -0.0000000  -0.0000000  -0.0000000  -0.0000000  -0.0000000
 NQMom=    2.0440000   0.0000000   0.0000000   0.0000000   0.0000000   0.0000000   0.0000000   0.0000000   0.0000000   0.0000000
 NMagM=    0.4037610   0.0000000   0.0000000   0.0000000   0.0000000   0.0000000   2.7928460   0.0000000   0.0000000   2.7928460
 AtZNuc=   7.0000000  16.0000000   6.0000000   6.0000000   6.0000000   6.0000000   1.0000000   6.0000000   6.0000000   1.0000000

  Atom        21          22          23          24          25
 IAtWgt=           1           1          12          16           1
 AtmWgt=   1.0078250   1.0078250  12.0000000  15.9949146   1.0078250
 NucSpn=           1           1           0           0           1
 AtZEff=  -0.0000000  -0.0000000  -0.0000000  -0.0000000  -0.0000000
 NQMom=    0.0000000   0.0000000   0.0000000   0.0000000   0.0000000
 NMagM=    2.7928460   2.7928460   0.0000000   0.0000000   2.7928460
 AtZNuc=   1.0000000   1.0000000   6.0000000   8.0000000   1.0000000
 Leave Link  101 at Mon Jul 13 20:49:59 2020, MaxMem=  7784628224 cpu:              32.8 elap:               3.3
 (Enter /gpfs/loomis/apps/avx/software/Gaussian/16-C.01_AVX/g16/l103.exe)

 GradGradGradGradGradGradGradGradGradGradGradGradGradGradGradGradGradGrad
 Berny optimization.
 Initialization pass.
                           ----------------------------
                           !    Initial Parameters    !
                           ! (Angstroms and Degrees)  !
 --------------------------                            --------------------------
 ! Name  Definition              Value          Derivative Info.                !
 --------------------------------------------------------------------------------
 ! R1    R(1,2)                  1.3954         estimate D2E/DX2                !
 ! R2    R(1,6)                  1.3951         estimate D2E/DX2                !
 ! R3    R(1,7)                  1.0908         estimate D2E/DX2                !
 ! R4    R(2,3)                  1.4152         estimate D2E/DX2                !
 ! R5    R(2,12)                 1.7647         estimate D2E/DX2                !
 ! R6    R(3,4)                  1.3899         estimate D2E/DX2                !
 ! R7    R(3,11)                 1.3884         estimate D2E/DX2                !
 ! R8    R(4,5)                  1.3931         estimate D2E/DX2                !
 ! R9    R(4,8)                  1.0902         estimate D2E/DX2                !
 ! R10   R(5,6)                  1.398          estimate D2E/DX2                !
 ! R11   R(5,9)                  1.0911         estimate D2E/DX2                !
 ! R12   R(6,10)                 1.0905         estimate D2E/DX2                !
 ! R13   R(11,23)                1.3587         estimate D2E/DX2                !
 ! R14   R(11,25)                0.6817         estimate D2E/DX2                !
 ! R15   R(12,23)                1.7507         estimate D2E/DX2                !
 ! R16   R(13,14)                1.3753         estimate D2E/DX2                !
 ! R17   R(13,15)                1.4942         estimate D2E/DX2                !
 ! R18   R(13,23)                1.4335         estimate D2E/DX2                !
 ! R19   R(14,16)                1.4265         estimate D2E/DX2                !
 ! R20   R(14,17)                1.0933         estimate D2E/DX2                !
 ! R21   R(15,18)                1.4314         estimate D2E/DX2                !
 ! R22   R(15,24)                1.2504         estimate D2E/DX2                !
 ! R23   R(16,19)                1.3916         estimate D2E/DX2                !
 ! R24   R(16,20)                1.091          estimate D2E/DX2                !
 ! R25   R(18,19)                1.396          estimate D2E/DX2                !
 ! R26   R(18,21)                1.0911         estimate D2E/DX2                !
 ! R27   R(19,22)                1.0902         estimate D2E/DX2                !
 ! A1    A(2,1,6)              118.1751         estimate D2E/DX2                !
 ! A2    A(2,1,7)              120.8604         estimate D2E/DX2                !
 ! A3    A(6,1,7)              120.9645         estimate D2E/DX2                !
 ! A4    A(1,2,3)              121.1179         estimate D2E/DX2                !
 ! A5    A(1,2,12)             127.7546         estimate D2E/DX2                !
 ! A6    A(3,2,12)             111.1275         estimate D2E/DX2                !
 ! A7    A(2,3,4)              120.177          estimate D2E/DX2                !
 ! A8    A(2,3,11)             112.5871         estimate D2E/DX2                !
 ! A9    A(4,3,11)             127.2359         estimate D2E/DX2                !
 ! A10   A(3,4,5)              118.4835         estimate D2E/DX2                !
 ! A11   A(3,4,8)              120.2239         estimate D2E/DX2                !
 ! A12   A(5,4,8)              121.2926         estimate D2E/DX2                !
 ! A13   A(4,5,6)              121.4499         estimate D2E/DX2                !
 ! A14   A(4,5,9)              118.9435         estimate D2E/DX2                !
 ! A15   A(6,5,9)              119.6067         estimate D2E/DX2                !
 ! A16   A(1,6,5)              120.5967         estimate D2E/DX2                !
 ! A17   A(1,6,10)             119.5275         estimate D2E/DX2                !
 ! A18   A(5,6,10)             119.8758         estimate D2E/DX2                !
 ! A19   A(3,11,23)            113.3755         estimate D2E/DX2                !
 ! A20   A(3,11,25)            124.2652         estimate D2E/DX2                !
 ! A21   A(23,11,25)           122.3593         estimate D2E/DX2                !
 ! A22   A(2,12,23)             89.3543         estimate D2E/DX2                !
 ! A23   A(14,13,15)           119.7731         estimate D2E/DX2                !
 ! A24   A(14,13,23)           124.0681         estimate D2E/DX2                !
 ! A25   A(15,13,23)           116.1588         estimate D2E/DX2                !
 ! A26   A(13,14,16)           120.4384         estimate D2E/DX2                !
 ! A27   A(13,14,17)           120.8479         estimate D2E/DX2                !
 ! A28   A(16,14,17)           118.7137         estimate D2E/DX2                !
 ! A29   A(13,15,18)           116.9085         estimate D2E/DX2                !
 ! A30   A(13,15,24)           120.853          estimate D2E/DX2                !
 ! A31   A(18,15,24)           122.2385         estimate D2E/DX2                !
 ! A32   A(14,16,19)           121.3324         estimate D2E/DX2                !
 ! A33   A(14,16,20)           118.5066         estimate D2E/DX2                !
 ! A34   A(19,16,20)           120.161          estimate D2E/DX2                !
 ! A35   A(15,18,19)           121.7921         estimate D2E/DX2                !
 ! A36   A(15,18,21)           115.9069         estimate D2E/DX2                !
 ! A37   A(19,18,21)           122.301          estimate D2E/DX2                !
 ! A38   A(16,19,18)           119.7555         estimate D2E/DX2                !
 ! A39   A(16,19,22)           119.9923         estimate D2E/DX2                !
 ! A40   A(18,19,22)           120.2521         estimate D2E/DX2                !
 ! A41   A(11,23,12)           113.5556         estimate D2E/DX2                !
 ! A42   A(11,23,13)           118.6038         estimate D2E/DX2                !
 ! A43   A(12,23,13)           127.8406         estimate D2E/DX2                !
 ! D1    D(6,1,2,3)              0.0            estimate D2E/DX2                !
 ! D2    D(6,1,2,12)          -179.9999         estimate D2E/DX2                !
 ! D3    D(7,1,2,3)            179.9999         estimate D2E/DX2                !
 ! D4    D(7,1,2,12)             0.0            estimate D2E/DX2                !
 ! D5    D(2,1,6,5)              0.0            estimate D2E/DX2                !
 ! D6    D(2,1,6,10)           180.0            estimate D2E/DX2                !
 ! D7    D(7,1,6,5)           -180.0            estimate D2E/DX2                !
 ! D8    D(7,1,6,10)             0.0            estimate D2E/DX2                !
 ! D9    D(1,2,3,4)              0.0001         estimate D2E/DX2                !
 ! D10   D(1,2,3,11)           180.0            estimate D2E/DX2                !
 ! D11   D(12,2,3,4)          -180.0            estimate D2E/DX2                !
 ! D12   D(12,2,3,11)           -0.0001         estimate D2E/DX2                !
 ! D13   D(1,2,12,23)          179.9999         estimate D2E/DX2                !
 ! D14   D(3,2,12,23)           -0.0001         estimate D2E/DX2                !
 ! D15   D(2,3,4,5)             -0.0001         estimate D2E/DX2                !
 ! D16   D(2,3,4,8)            179.9999         estimate D2E/DX2                !
 ! D17   D(11,3,4,5)          -180.0            estimate D2E/DX2                !
 ! D18   D(11,3,4,8)             0.0001         estimate D2E/DX2                !
 ! D19   D(2,3,11,23)            0.0002         estimate D2E/DX2                !
 ! D20   D(2,3,11,25)          179.9989         estimate D2E/DX2                !
 ! D21   D(4,3,11,23)         -179.9999         estimate D2E/DX2                !
 ! D22   D(4,3,11,25)           -0.0012         estimate D2E/DX2                !
 ! D23   D(3,4,5,6)              0.0            estimate D2E/DX2                !
 ! D24   D(3,4,5,9)           -180.0            estimate D2E/DX2                !
 ! D25   D(8,4,5,6)           -180.0            estimate D2E/DX2                !
 ! D26   D(8,4,5,9)              0.0            estimate D2E/DX2                !
 ! D27   D(4,5,6,1)              0.0            estimate D2E/DX2                !
 ! D28   D(4,5,6,10)          -180.0            estimate D2E/DX2                !
 ! D29   D(9,5,6,1)           -180.0            estimate D2E/DX2                !
 ! D30   D(9,5,6,10)             0.0            estimate D2E/DX2                !
 ! D31   D(3,11,23,12)          -0.0003         estimate D2E/DX2                !
 ! D32   D(3,11,23,13)         179.9991         estimate D2E/DX2                !
 ! D33   D(25,11,23,12)       -179.9989         estimate D2E/DX2                !
 ! D34   D(25,11,23,13)          0.0005         estimate D2E/DX2                !
 ! D35   D(2,12,23,11)           0.0002         estimate D2E/DX2                !
 ! D36   D(2,12,23,13)        -179.9991         estimate D2E/DX2                !
 ! D37   D(15,13,14,16)         -0.0002         estimate D2E/DX2                !
 ! D38   D(15,13,14,17)        179.9998         estimate D2E/DX2                !
 ! D39   D(23,13,14,16)        179.9998         estimate D2E/DX2                !
 ! D40   D(23,13,14,17)         -0.0002         estimate D2E/DX2                !
 ! D41   D(14,13,15,18)          0.0001         estimate D2E/DX2                !
 ! D42   D(14,13,15,24)        180.0            estimate D2E/DX2                !
 ! D43   D(23,13,15,18)       -179.9998         estimate D2E/DX2                !
 ! D44   D(23,13,15,24)          0.0001         estimate D2E/DX2                !
 ! D45   D(14,13,23,11)        179.9995         estimate D2E/DX2                !
 ! D46   D(14,13,23,12)         -0.0012         estimate D2E/DX2                !
 ! D47   D(15,13,23,11)         -0.0006         estimate D2E/DX2                !
 ! D48   D(15,13,23,12)        179.9987         estimate D2E/DX2                !
 ! D49   D(13,14,16,19)          0.0001         estimate D2E/DX2                !
 ! D50   D(13,14,16,20)       -179.9999         estimate D2E/DX2                !
 ! D51   D(17,14,16,19)       -179.9999         estimate D2E/DX2                !
 ! D52   D(17,14,16,20)          0.0001         estimate D2E/DX2                !
 ! D53   D(13,15,18,19)          0.0001         estimate D2E/DX2                !
 ! D54   D(13,15,18,21)        179.9998         estimate D2E/DX2                !
 ! D55   D(24,15,18,19)       -179.9998         estimate D2E/DX2                !
 ! D56   D(24,15,18,21)         -0.0001         estimate D2E/DX2                !
 ! D57   D(14,16,19,18)          0.0001         estimate D2E/DX2                !
 ! D58   D(14,16,19,22)       -179.9999         estimate D2E/DX2                !
 ! D59   D(20,16,19,18)       -179.9999         estimate D2E/DX2                !
 ! D60   D(20,16,19,22)          0.0001         estimate D2E/DX2                !
 ! D61   D(15,18,19,16)         -0.0002         estimate D2E/DX2                !
 ! D62   D(15,18,19,22)        179.9998         estimate D2E/DX2                !
 ! D63   D(21,18,19,16)       -179.9999         estimate D2E/DX2                !
 ! D64   D(21,18,19,22)          0.0001         estimate D2E/DX2                !
 ! Qtot  GIC-1                  60.0            Frozen                          !
 ! Ptot  GIC-2                 -20.0            Frozen                          !
 --------------------------------------------------------------------------------
 NOTE: GIC-type coordinates are in arbitrary units.
 Trust Radius=3.00D-01 FncErr=5.00D-06 GrdErr=5.00D-06 EigMax=2.50D+02 EigMin=1.00D-04
 Number of steps in this run=    146 maximum allowed number of steps=    150.
 GradGradGradGradGradGradGradGradGradGradGradGradGradGradGradGradGradGrad

 Leave Link  103 at Mon Jul 13 20:49:59 2020, MaxMem=  7784628224 cpu:               0.2 elap:               0.0
 (Enter /gpfs/loomis/apps/avx/software/Gaussian/16-C.01_AVX/g16/l202.exe)
                          Input orientation:                          
 ---------------------------------------------------------------------
 Center     Atomic      Atomic             Coordinates (Angstroms)
 Number     Number       Type             X           Y           Z
 ---------------------------------------------------------------------
      1          6           0        1.678651   -3.258193   -0.000022
      2          6           0        1.010825   -2.033016   -0.000021
      3          6           0        1.724558   -0.811018   -0.000021
      4          6           0        3.114472   -0.813710   -0.000022
      5          6           0        3.776475   -2.039465   -0.000022
      6          6           0        3.073728   -3.247989   -0.000022
      7          1           0        1.124305   -4.197580   -0.000021
      8          1           0        3.665095    0.127253   -0.000022
      9          1           0        4.867503   -2.050338   -0.000023
     10          1           0        3.618083   -4.192873   -0.000022
     11          7           0        0.886558    0.296016   -0.000021
     12         16           0       -0.731360   -1.752076   -0.000020
     13          6           0       -1.398950    1.032484    0.000004
     14          6           0       -2.759909    0.834302   -0.000001
     15          6           0       -0.851615    2.422830    0.000032
     16          6           0       -3.652273    1.947217    0.000025
     17          1           0       -3.179412   -0.175340   -0.000024
     18          6           0       -1.802054    3.493201    0.000056
     19          6           0       -3.177609    3.255318    0.000054
     20          1           0       -4.725991    1.753697    0.000022
     21          1           0       -1.384682    4.501349    0.000080
     22          1           0       -3.879320    4.089701    0.000075
     23          6           0       -0.433179   -0.026907   -0.000016
     24          8           0        0.382119    2.626301    0.000037
     25          1           0        1.104116    0.942109   -0.000009
 ---------------------------------------------------------------------
                    Distance matrix (angstroms):
                    1          2          3          4          5
     1  C    0.000000
     2  C    1.395367   0.000000
     3  C    2.447606   1.415166   0.000000
     4  C    2.834974   2.431468   1.389916   0.000000
     5  C    2.426142   2.765658   2.391536   1.393099   0.000000
     6  C    1.395114   2.394103   2.785514   2.434621   1.397994
     7  H    1.090755   2.167537   3.439347   3.925728   3.419278
     8  H    3.925201   3.422267   2.155466   1.090227   2.169578
     9  H    3.409940   3.856717   3.378463   2.145312   1.091082
    10  H    2.152911   3.385673   3.875872   3.416485   2.159226
    11  N    3.641402   2.332344   1.388441   2.488994   3.715655
    12  S    2.841925   1.764691   2.630042   3.958655   4.516986
    13  C    5.280297   3.899269   3.626955   4.876413   6.018463
    14  C    6.037327   4.737081   4.776769   6.101171   7.140227
    15  C    6.219025   4.829415   4.134542   5.119086   6.428942
    16  C    7.450842   6.130802   6.043027   7.308321   8.430892
    17  H    5.753673   4.583562   4.944998   6.326175   7.201342
    18  C    7.595830   6.200916   5.564467   6.536184   7.856868
    19  C    8.124597   6.746069   6.369170   7.493148   8.740367
    20  H    8.132556   6.873881   6.941710   8.250117   9.310209
    21  H    8.342332   6.959625   6.155373   6.963637   8.331854
    22  H    9.213174   7.835890   7.444494   8.541461   9.807032
    23  C    3.860186   2.471765   2.295792   3.633853   4.666002
    24  O    6.025634   4.701543   3.690163   4.393111   5.769837
    25  H    4.239413   2.976587   1.859677   2.669162   4.003908
                    6          7          8          9         10
     6  C    0.000000
     7  H    2.168403   0.000000
     8  H    3.426656   5.015953   0.000000
     9  H    2.156849   4.315342   2.487506   0.000000
    10  H    1.090471   2.493782   4.320382   2.480224   0.000000
    11  N    4.164575   4.499880   2.783657   4.620963   5.254651
    12  S    4.088575   3.069850   4.781285   5.606801   4.987499
    13  C    6.190904   5.806925   5.144317   6.983711   7.243961
    14  C    7.120141   6.356646   6.463790   8.154664   8.121038
    15  C    6.896848   6.908986   5.066591   7.260684   7.984093
    16  C    8.498780   7.782945   7.540301   9.411006   9.516238
    17  H    6.967276   5.890704   6.851192   8.262472   7.895980
    18  C    8.319669   8.228711   6.420228   8.672589   9.404979
    19  C    9.020655   8.605356   7.523788   9.637106  10.082509
    20  H    9.265661   8.345277   8.547259  10.320164  10.246231
    21  H    8.940339   9.053528   6.680791   9.056181  10.030810
    22  H   10.108738   9.680666   8.521690  10.686767  11.171933
    23  C    4.761698   4.451996   4.101172   5.673755   5.811024
    24  O    6.461582   6.864123   4.125914   6.479939   7.548020
    25  H    4.629934   5.139728   2.687490   4.808099   5.717348
                   11         12         13         14         15
    11  N    0.000000
    12  S    2.610045   0.000000
    13  C    2.401235   2.863468   0.000000
    14  C    3.685983   3.286999   1.375312   0.000000
    15  C    2.746741   4.176638   1.494202   2.482943   0.000000
    16  C    4.829850   4.713439   2.431913   1.426498   2.840756
    17  H    4.093200   2.911882   2.151484   1.093325   3.488428
    18  C    4.177395   5.353440   2.493516   2.826169   1.431443
    19  C    5.027417   5.572982   2.846861   2.456785   2.470483
    20  H    5.798753   5.314839   3.404313   2.170430   3.931733
    21  H    4.779472   6.287460   3.468894   3.916437   2.145786
    22  H    6.091440   6.635964   3.936853   3.442486   3.456220
    23  C    1.358670   1.750749   1.433535   2.480998   2.485216
    24  O    2.384258   4.517745   2.390076   3.617126   1.250401
    25  H    0.681738   3.260000   2.504697   3.865528   2.453043
                   16         17         18         19         20
    16  C    0.000000
    17  H    2.174592   0.000000
    18  C    2.411095   3.918586   0.000000
    19  C    1.391558   3.430659   1.395973   0.000000
    20  H    1.091017   2.472466   3.402246   2.156931   0.000000
    21  H    3.415488   5.009239   1.091128   2.183387   4.325960
    22  H    2.154481   4.322089   2.161214   1.090226   2.484707
    23  C    3.776206   2.750241   3.776901   4.278422   4.647449
    24  O    4.091147   4.531413   2.349921   3.614876   5.182106
    25  H    4.861428   4.426884   3.867027   4.866632   5.886325
                   21         22         23         24         25
    21  H    0.000000
    22  H    2.528373   0.000000
    23  C    4.627143   5.368645   0.000000
    24  O    2.576314   4.505708   2.775648   0.000000
    25  H    4.343076   5.894232   1.817214   1.832426   0.000000
 Symmetry turned off by external request.
 Stoichiometry    C13H9NOS
 Framework group  C1[X(C13H9NOS)]
 Deg. of freedom    69
 Full point group                 C1      NOp   1
 Rotational constants (GHZ):           1.3878564           0.2857369           0.2369523
 Leave Link  202 at Mon Jul 13 20:49:59 2020, MaxMem=  7784628224 cpu:               0.4 elap:               0.1
 (Enter /gpfs/loomis/apps/avx/software/Gaussian/16-C.01_AVX/g16/l301.exe)
 Standard basis: CC-pVDZ (5D, 7F)
 Ernie: Thresh=  0.10000D-02 Tol=  0.10000D-05 Strict=F.
 Ernie:  40 primitive shells out of 425 were deleted.
   273 basis functions,   629 primitive gaussians,   289 cartesian basis functions
    59 alpha electrons       59 beta electrons
       nuclear repulsion energy      1101.1935187117 Hartrees.
 IExCor= 4639 DFT=T Ex+Corr=wB97XD ExCW=0 ScaHFX=  1.000000
 ScaDFX=  1.000000  1.000000  1.000000  1.000000 ScalE2=  1.000000  1.000000
 IRadAn=      5 IRanWt=     -1 IRanGd=            0 ICorTp=0 IEmpDi=121
 HFx  wShort=  0.000000 wLong=  0.200000 cFull=  0.222036 cShort=  0.000000 cLong=  0.777964
 DFx  wShort=  0.000000 wLong=  0.200000 cFull=  0.000000 cShort=  0.000000 cLong=  1.000000
 NAtoms=   25 NActive=   25 NUniq=   25 SFac= 1.00D+00 NAtFMM=   60 NAOKFM=F Big=F
 Integral buffers will be    131072 words long.
 Raffenetti 1 integral format.
 Two-electron integral symmetry is turned off.
 R6Disp:  Grimme-D2 Dispersion energy=       -0.0141546086 Hartrees.
 Nuclear repulsion after empirical dispersion term =     1101.1793641031 Hartrees.
 ------------------------------------------------------------------------------
 Polarizable Continuum Model (PCM)
 =================================
 Model                : PCM.
 Atomic radii         : UFF (Universal Force Field).
 Polarization charges : Total charges.
 Charge compensation  : None.
 Solution method      : On-the-fly selection.
 Cavity type          : Scaled VdW (van der Waals Surface) (Alpha=1.100).
 Cavity algorithm     : GePol (No added spheres)
                        Default sphere list used, NSphG=   25.
                        Lebedev-Laikov grids with approx.  5.0 points / Ang**2.
                        Smoothing algorithm: York/Karplus (Gamma=1.0000).
                        Polarization charges: spherical gaussians, with
                                              point-specific exponents (IZeta= 3).
                        Self-potential: point-specific (ISelfS= 7).
                        Self-field    : sphere-specific E.n sum rule (ISelfD= 2).
 1st derivatives      : Analytical E(r).r(x)/FMM algorithm (CHGder, D1EAlg=3).
                        Cavity 1st derivative terms included.
 Solvent              : CarbonTetraChloride, Eps=   2.228000 Eps(inf)=   2.131892
 ------------------------------------------------------------------------------
 GePol: Number of generator spheres                  =      25
 GePol: Total number of spheres                      =      25
 GePol: Number of exposed spheres                    =      25 (100.00%)
 GePol: Number of points                             =    2200
 GePol: Average weight of points                     =       0.12
 GePol: Minimum weight of points                     =   0.33D-08
 GePol: Maximum weight of points                     =    0.20577
 GePol: Number of points with low weight             =     157
 GePol: Fraction of low-weight points (<1% of avg)   =       7.14%
 GePol: Cavity surface area                          =    273.968 Ang**2
 GePol: Cavity volume                                =    292.913 Ang**3
 Leave Link  301 at Mon Jul 13 20:49:59 2020, MaxMem=  7784628224 cpu:               1.0 elap:               0.1
 (Enter /gpfs/loomis/apps/avx/software/Gaussian/16-C.01_AVX/g16/l302.exe)
 NPDir=0 NMtPBC=     1 NCelOv=     1 NCel=       1 NClECP=     1 NCelD=      1
         NCelK=      1 NCelE2=     1 NClLst=     1 CellRange=     0.0.
 One-electron integrals computed using PRISM.
 NBasis=   273 RedAO= T EigKep=  2.98D-04  NBF=   273
 NBsUse=   273 1.00D-06 EigRej= -1.00D+00 NBFU=   273
 Precomputing XC quadrature grid using
 IXCGrd= 4 IRadAn=           5 IRanWt=          -1 IRanGd=           0 AccXCQ= 0.00D+00.
 Generated NRdTot=       0 NPtTot=           0 NUsed=           0 NTot=          32
 NSgBfM=   288   288   288   288   288 MxSgAt=    25 MxSgA2=    25.
 Leave Link  302 at Mon Jul 13 20:50:00 2020, MaxMem=  7784628224 cpu:               3.5 elap:               0.8
 (Enter /gpfs/loomis/apps/avx/software/Gaussian/16-C.01_AVX/g16/l303.exe)
 DipDrv:  MaxL=1.
 Leave Link  303 at Mon Jul 13 20:50:00 2020, MaxMem=  7784628224 cpu:               0.6 elap:               0.1
 (Enter /gpfs/loomis/apps/avx/software/Gaussian/16-C.01_AVX/g16/l308.exe)
 Leave Link  308 at Mon Jul 13 20:50:01 2020, MaxMem=  7784628224 cpu:               1.1 elap:               0.2
 (Enter /gpfs/loomis/apps/avx/software/Gaussian/16-C.01_AVX/g16/l401.exe)
 ExpMin= 1.22D-01 ExpMax= 1.11D+05 ExpMxC= 1.07D+03 IAcc=3 IRadAn=         5 AccDes= 0.00D+00
 Harris functional with IExCor= 4639 and IRadAn=       5 diagonalized for initial guess.
 HarFok:  IExCor= 4639 AccDes= 0.00D+00 IRadAn=         5 IDoV= 1 UseB2=F ITyADJ=14
 ICtDFT=  3500011 ScaDFX=  1.000000  1.000000  1.000000  1.000000
 FoFCou: FMM=F IPFlag=           0 FMFlag=      100000 FMFlg1=           0
         NFxFlg=           0 DoJE=T BraDBF=F KetDBF=T FulRan=T
         wScrn=  0.000000 ICntrl=       500 IOpCl=  0 I1Cent=   200000004 NGrid=           0
         NMat0=    1 NMatS0=      1 NMatT0=    0 NMatD0=    1 NMtDS0=    0 NMtDT0=    0
 Symmetry not used in FoFCou.
 Harris En= -994.225315848520    
 JPrj=0 DoOrth=F DoCkMO=F.
 Leave Link  401 at Mon Jul 13 20:50:02 2020, MaxMem=  7784628224 cpu:              13.6 elap:               1.5
 (Enter /gpfs/loomis/apps/avx/software/Gaussian/16-C.01_AVX/g16/l502.exe)
 Two-electron integral symmetry not used.
 Closed shell SCF:
 Using DIIS extrapolation, IDIIS=  1040.
 NGot=  7784628224 LenX=  7784455381 LenY=  7784371419
 Requested convergence on RMS density matrix=1.00D-08 within 128 cycles.
 Requested convergence on MAX density matrix=1.00D-06.
 Requested convergence on             energy=1.00D-06.
 No special actions if energy rises.
 Fock matrices will be formed incrementally for  20 cycles.

 Cycle   1  Pass 1  IDiag  1:
 FoFJK:  IHMeth= 1 ICntrl=       0 DoSepK=T KAlg= 0 I1Cent=           0 FoldK=F
 IRaf=         1 NMat=       1 IRICut=       1 DoRegI=T DoRafI=F ISym2E= 0 IDoP0=0 IntGTp=1.
 FoFCou: FMM=F IPFlag=           0 FMFlag=      100000 FMFlg1=           0
         NFxFlg=           0 DoJE=T BraDBF=F KetDBF=F FulRan=T
         wScrn=  0.000000 ICntrl=       500 IOpCl=  0 I1Cent=           0 NGrid=           0
         NMat0=    1 NMatS0=      1 NMatT0=    0 NMatD0=    1 NMtDS0=    0 NMtDT0=    0
 Symmetry not used in FoFCou.
 Inv3:  Mode=1 IEnd=    14520000.
 Iteration    1 A*A^-1 deviation from unit magnitude is 5.55D-15 for   2192.
 Iteration    1 A*A^-1 deviation from orthogonality  is 1.52D-15 for   2190   2126.
 Iteration    1 A^-1*A deviation from unit magnitude is 5.55D-15 for   2192.
 Iteration    1 A^-1*A deviation from orthogonality  is 1.64D-15 for   1746    247.
 E= -1028.32592794846    
 DIIS: error= 4.29D-02 at cycle   1 NSaved=   1.
 NSaved= 1 IEnMin= 1 EnMin= -1028.32592794846     IErMin= 1 ErrMin= 4.29D-02
 ErrMax= 4.29D-02  0.00D+00 EMaxC= 1.00D-01 BMatC= 4.01D-01 BMatP= 4.01D-01
 IDIUse=3 WtCom= 5.71D-01 WtEn= 4.29D-01
 Coeff-Com:  0.100D+01
 Coeff-En:   0.100D+01
 Coeff:      0.100D+01
 Gap=     0.295 Goal=   None    Shift=    0.000
 GapD=    0.295 DampG=1.000 DampE=0.500 DampFc=0.5000 IDamp=-1.
 Damping current iteration by 5.00D-01
 RMSDP=3.76D-03 MaxDP=2.61D-01              OVMax= 2.17D-01

 Cycle   2  Pass 1  IDiag  1:
 RMSU=  1.87D-03    CP:  9.94D-01
 E= -1028.45279262571     Delta-E=       -0.126864677250 Rises=F Damp=T
 DIIS: error= 1.15D-02 at cycle   2 NSaved=   2.
 NSaved= 2 IEnMin= 2 EnMin= -1028.45279262571     IErMin= 2 ErrMin= 1.15D-02
 ErrMax= 1.15D-02  0.00D+00 EMaxC= 1.00D-01 BMatC= 5.81D-02 BMatP= 4.01D-01
 IDIUse=3 WtCom= 8.85D-01 WtEn= 1.15D-01
 Coeff-Com: -0.274D+00 0.127D+01
 Coeff-En:   0.000D+00 0.100D+01
 Coeff:     -0.242D+00 0.124D+01
 Gap=     0.365 Goal=   None    Shift=    0.000
 RMSDP=1.18D-03 MaxDP=3.16D-02 DE=-1.27D-01 OVMax= 1.51D-01

 Cycle   3  Pass 1  IDiag  1:
 RMSU=  1.14D-03    CP:  9.91D-01  1.16D+00
 E= -1028.56889529105     Delta-E=       -0.116102665344 Rises=F Damp=F
 DIIS: error= 5.87D-03 at cycle   3 NSaved=   3.
 NSaved= 3 IEnMin= 3 EnMin= -1028.56889529105     IErMin= 3 ErrMin= 5.87D-03
 ErrMax= 5.87D-03  0.00D+00 EMaxC= 1.00D-01 BMatC= 1.48D-02 BMatP= 5.81D-02
 IDIUse=3 WtCom= 9.41D-01 WtEn= 5.87D-02
 Coeff-Com: -0.196D+00 0.482D+00 0.714D+00
 Coeff-En:   0.000D+00 0.000D+00 0.100D+01
 Coeff:     -0.185D+00 0.454D+00 0.731D+00
 Gap=     0.230 Goal=   None    Shift=    0.000
 RMSDP=5.29D-04 MaxDP=2.32D-02 DE=-1.16D-01 OVMax= 4.82D-02

 Cycle   4  Pass 1  IDiag  1:
 RMSU=  4.20D-04    CP:  9.90D-01  1.31D+00  8.76D-01
 E= -1028.58352314006     Delta-E=       -0.014627849009 Rises=F Damp=F
 DIIS: error= 1.98D-03 at cycle   4 NSaved=   4.
 NSaved= 4 IEnMin= 4 EnMin= -1028.58352314006     IErMin= 4 ErrMin= 1.98D-03
 ErrMax= 1.98D-03  0.00D+00 EMaxC= 1.00D-01 BMatC= 1.76D-03 BMatP= 1.48D-02
 IDIUse=3 WtCom= 9.80D-01 WtEn= 1.98D-02
 Coeff-Com: -0.695D-01 0.137D+00 0.338D+00 0.594D+00
 Coeff-En:   0.000D+00 0.000D+00 0.000D+00 0.100D+01
 Coeff:     -0.681D-01 0.134D+00 0.331D+00 0.602D+00
 Gap=     0.234 Goal=   None    Shift=    0.000
 RMSDP=1.66D-04 MaxDP=8.95D-03 DE=-1.46D-02 OVMax= 1.28D-02

 Cycle   5  Pass 1  IDiag  1:
 RMSU=  1.14D-04    CP:  9.89D-01  1.32D+00  9.42D-01  7.82D-01
 E= -1028.58546453821     Delta-E=       -0.001941398151 Rises=F Damp=F
 DIIS: error= 6.48D-04 at cycle   5 NSaved=   5.
 NSaved= 5 IEnMin= 5 EnMin= -1028.58546453821     IErMin= 5 ErrMin= 6.48D-04
 ErrMax= 6.48D-04  0.00D+00 EMaxC= 1.00D-01 BMatC= 6.31D-05 BMatP= 1.76D-03
 IDIUse=3 WtCom= 9.94D-01 WtEn= 6.48D-03
 Coeff-Com:  0.181D-03-0.679D-02 0.220D-01 0.154D+00 0.830D+00
 Coeff-En:   0.000D+00 0.000D+00 0.000D+00 0.000D+00 0.100D+01
 Coeff:      0.179D-03-0.675D-02 0.218D-01 0.153D+00 0.832D+00
 Gap=     0.234 Goal=   None    Shift=    0.000
 RMSDP=6.41D-05 MaxDP=2.08D-03 DE=-1.94D-03 OVMax= 7.59D-03

 Cycle   6  Pass 1  IDiag  1:
 RMSU=  4.10D-05    CP:  9.89D-01  1.32D+00  9.60D-01  8.79D-01  1.15D+00
 E= -1028.58562271683     Delta-E=       -0.000158178615 Rises=F Damp=F
 DIIS: error= 2.64D-04 at cycle   6 NSaved=   6.
 NSaved= 6 IEnMin= 6 EnMin= -1028.58562271683     IErMin= 6 ErrMin= 2.64D-04
 ErrMax= 2.64D-04  0.00D+00 EMaxC= 1.00D-01 BMatC= 1.24D-05 BMatP= 6.31D-05
 IDIUse=3 WtCom= 9.97D-01 WtEn= 2.64D-03
 Coeff-Com:  0.178D-01-0.361D-01-0.717D-01-0.901D-01 0.214D+00 0.967D+00
 Coeff-En:   0.000D+00 0.000D+00 0.000D+00 0.000D+00 0.000D+00 0.100D+01
 Coeff:      0.177D-01-0.360D-01-0.716D-01-0.898D-01 0.213D+00 0.967D+00
 Gap=     0.236 Goal=   None    Shift=    0.000
 RMSDP=4.32D-05 MaxDP=2.08D-03 DE=-1.58D-04 OVMax= 4.91D-03

 Cycle   7  Pass 1  IDiag  1:
 RMSU=  1.97D-05    CP:  9.89D-01  1.32D+00  9.74D-01  9.19D-01  1.38D+00
                    CP:  1.37D+00
 E= -1028.58567001173     Delta-E=       -0.000047294900 Rises=F Damp=F
 DIIS: error= 9.23D-05 at cycle   7 NSaved=   7.
 NSaved= 7 IEnMin= 7 EnMin= -1028.58567001173     IErMin= 7 ErrMin= 9.23D-05
 ErrMax= 9.23D-05  0.00D+00 EMaxC= 1.00D-01 BMatC= 2.18D-06 BMatP= 1.24D-05
 IDIUse=1 WtCom= 1.00D+00 WtEn= 0.00D+00
 Coeff-Com:  0.605D-02-0.113D-01-0.254D-01-0.514D-01-0.273D-01 0.335D+00
 Coeff-Com:  0.774D+00
 Coeff:      0.605D-02-0.113D-01-0.254D-01-0.514D-01-0.273D-01 0.335D+00
 Coeff:      0.774D+00
 Gap=     0.236 Goal=   None    Shift=    0.000
 RMSDP=1.47D-05 MaxDP=5.38D-04 DE=-4.73D-05 OVMax= 1.98D-03

 Cycle   8  Pass 1  IDiag  1:
 RMSU=  7.64D-06    CP:  9.89D-01  1.32D+00  9.76D-01  9.26D-01  1.43D+00
                    CP:  1.60D+00  1.21D+00
 E= -1028.58567675923     Delta-E=       -0.000006747507 Rises=F Damp=F
 DIIS: error= 5.65D-05 at cycle   8 NSaved=   8.
 NSaved= 8 IEnMin= 8 EnMin= -1028.58567675923     IErMin= 8 ErrMin= 5.65D-05
 ErrMax= 5.65D-05  0.00D+00 EMaxC= 1.00D-01 BMatC= 4.46D-07 BMatP= 2.18D-06
 IDIUse=1 WtCom= 1.00D+00 WtEn= 0.00D+00
 Coeff-Com: -0.203D-02 0.428D-02 0.925D-02 0.564D-02-0.370D-01-0.134D+00
 Coeff-Com:  0.208D+00 0.946D+00
 Coeff:     -0.203D-02 0.428D-02 0.925D-02 0.564D-02-0.370D-01-0.134D+00
 Coeff:      0.208D+00 0.946D+00
 Gap=     0.236 Goal=   None    Shift=    0.000
 RMSDP=8.31D-06 MaxDP=1.99D-04 DE=-6.75D-06 OVMax= 1.32D-03

 Cycle   9  Pass 1  IDiag  1:
 RMSU=  3.09D-06    CP:  9.89D-01  1.32D+00  9.76D-01  9.25D-01  1.45D+00
                    CP:  1.72D+00  1.48D+00  1.24D+00
 E= -1028.58567861514     Delta-E=       -0.000001855908 Rises=F Damp=F
 DIIS: error= 1.93D-05 at cycle   9 NSaved=   9.
 NSaved= 9 IEnMin= 9 EnMin= -1028.58567861514     IErMin= 9 ErrMin= 1.93D-05
 ErrMax= 1.93D-05  0.00D+00 EMaxC= 1.00D-01 BMatC= 8.47D-08 BMatP= 4.46D-07
 IDIUse=1 WtCom= 1.00D+00 WtEn= 0.00D+00
 Coeff-Com: -0.124D-02 0.241D-02 0.580D-02 0.757D-02-0.547D-02-0.942D-01
 Coeff-Com: -0.584D-01 0.250D+00 0.894D+00
 Coeff:     -0.124D-02 0.241D-02 0.580D-02 0.757D-02-0.547D-02-0.942D-01
 Coeff:     -0.584D-01 0.250D+00 0.894D+00
 Gap=     0.236 Goal=   None    Shift=    0.000
 RMSDP=4.26D-06 MaxDP=1.37D-04 DE=-1.86D-06 OVMax= 6.14D-04

 Cycle  10  Pass 1  IDiag  1:
 RMSU=  1.58D-06    CP:  9.89D-01  1.32D+00  9.76D-01  9.26D-01  1.46D+00
                    CP:  1.77D+00  1.59D+00  1.50D+00  1.28D+00
 E= -1028.58567897936     Delta-E=       -0.000000364221 Rises=F Damp=F
 DIIS: error= 1.23D-05 at cycle  10 NSaved=  10.
 NSaved=10 IEnMin=10 EnMin= -1028.58567897936     IErMin=10 ErrMin= 1.23D-05
 ErrMax= 1.23D-05  0.00D+00 EMaxC= 1.00D-01 BMatC= 2.36D-08 BMatP= 8.47D-08
 IDIUse=1 WtCom= 1.00D+00 WtEn= 0.00D+00
 Coeff-Com:  0.115D-03-0.298D-03-0.192D-03 0.984D-03 0.893D-02-0.668D-02
 Coeff-Com: -0.680D-01-0.111D+00 0.397D+00 0.779D+00
 Coeff:      0.115D-03-0.298D-03-0.192D-03 0.984D-03 0.893D-02-0.668D-02
 Coeff:     -0.680D-01-0.111D+00 0.397D+00 0.779D+00
 Gap=     0.236 Goal=   None    Shift=    0.000
 RMSDP=1.57D-06 MaxDP=5.63D-05 DE=-3.64D-07 OVMax= 2.94D-04

 Cycle  11  Pass 1  IDiag  1:
 RMSU=  6.06D-07    CP:  9.89D-01  1.32D+00  9.76D-01  9.26D-01  1.47D+00
                    CP:  1.78D+00  1.62D+00  1.58D+00  1.57D+00  1.04D+00
 E= -1028.58567905046     Delta-E=       -0.000000071097 Rises=F Damp=F
 DIIS: error= 3.66D-06 at cycle  11 NSaved=  11.
 NSaved=11 IEnMin=11 EnMin= -1028.58567905046     IErMin=11 ErrMin= 3.66D-06
 ErrMax= 3.66D-06  0.00D+00 EMaxC= 1.00D-01 BMatC= 4.59D-09 BMatP= 2.36D-08
 IDIUse=1 WtCom= 1.00D+00 WtEn= 0.00D+00
 Coeff-Com:  0.265D-03-0.544D-03-0.104D-02-0.101D-02 0.503D-02 0.128D-01
 Coeff-Com: -0.178D-01-0.927D-01-0.111D-01 0.299D+00 0.807D+00
 Coeff:      0.265D-03-0.544D-03-0.104D-02-0.101D-02 0.503D-02 0.128D-01
 Coeff:     -0.178D-01-0.927D-01-0.111D-01 0.299D+00 0.807D+00
 Gap=     0.236 Goal=   None    Shift=    0.000
 RMSDP=8.02D-07 MaxDP=2.68D-05 DE=-7.11D-08 OVMax= 1.16D-04

 Cycle  12  Pass 1  IDiag  1:
 RMSU=  2.66D-07    CP:  9.89D-01  1.32D+00  9.76D-01  9.26D-01  1.47D+00
                    CP:  1.79D+00  1.63D+00  1.62D+00  1.69D+00  1.29D+00
                    CP:  1.10D+00
 E= -1028.58567906323     Delta-E=       -0.000000012772 Rises=F Damp=F
 DIIS: error= 1.64D-06 at cycle  12 NSaved=  12.
 NSaved=12 IEnMin=12 EnMin= -1028.58567906323     IErMin=12 ErrMin= 1.64D-06
 ErrMax= 1.64D-06  0.00D+00 EMaxC= 1.00D-01 BMatC= 7.08D-10 BMatP= 4.59D-09
 IDIUse=1 WtCom= 1.00D+00 WtEn= 0.00D+00
 Coeff-Com:  0.119D-03-0.229D-03-0.507D-03-0.885D-03 0.760D-03 0.792D-02
 Coeff-Com:  0.758D-02-0.175D-01-0.914D-01-0.340D-01 0.326D+00 0.803D+00
 Coeff:      0.119D-03-0.229D-03-0.507D-03-0.885D-03 0.760D-03 0.792D-02
 Coeff:      0.758D-02-0.175D-01-0.914D-01-0.340D-01 0.326D+00 0.803D+00
 Gap=     0.236 Goal=   None    Shift=    0.000
 RMSDP=2.85D-07 MaxDP=8.20D-06 DE=-1.28D-08 OVMax= 4.61D-05

 Cycle  13  Pass 1  IDiag  1:
 RMSU=  9.87D-08    CP:  9.89D-01  1.32D+00  9.76D-01  9.26D-01  1.47D+00
                    CP:  1.79D+00  1.63D+00  1.64D+00  1.74D+00  1.37D+00
                    CP:  1.32D+00  9.93D-01
 E= -1028.58567906528     Delta-E=       -0.000000002052 Rises=F Damp=F
 DIIS: error= 6.39D-07 at cycle  13 NSaved=  13.
 NSaved=13 IEnMin=13 EnMin= -1028.58567906528     IErMin=13 ErrMin= 6.39D-07
 ErrMax= 6.39D-07  0.00D+00 EMaxC= 1.00D-01 BMatC= 7.97D-11 BMatP= 7.08D-10
 IDIUse=1 WtCom= 1.00D+00 WtEn= 0.00D+00
 Coeff-Com: -0.981D-05 0.221D-04 0.388D-04-0.653D-04-0.237D-03 0.229D-03
 Coeff-Com:  0.327D-02 0.643D-02-0.175D-01-0.398D-01-0.501D-01 0.201D+00
 Coeff-Com:  0.897D+00
 Coeff:     -0.981D-05 0.221D-04 0.388D-04-0.653D-04-0.237D-03 0.229D-03
 Coeff:      0.327D-02 0.643D-02-0.175D-01-0.398D-01-0.501D-01 0.201D+00
 Coeff:      0.897D+00
 Gap=     0.236 Goal=   None    Shift=    0.000
 RMSDP=9.38D-08 MaxDP=2.47D-06 DE=-2.05D-09 OVMax= 1.11D-05

 Cycle  14  Pass 1  IDiag  1:
 RMSU=  3.58D-08    CP:  9.89D-01  1.32D+00  9.76D-01  9.26D-01  1.47D+00
                    CP:  1.79D+00  1.63D+00  1.64D+00  1.75D+00  1.40D+00
                    CP:  1.37D+00  1.16D+00  1.15D+00
 E= -1028.58567906550     Delta-E=       -0.000000000218 Rises=F Damp=F
 DIIS: error= 1.84D-07 at cycle  14 NSaved=  14.
 NSaved=14 IEnMin=14 EnMin= -1028.58567906550     IErMin=14 ErrMin= 1.84D-07
 ErrMax= 1.84D-07  0.00D+00 EMaxC= 1.00D-01 BMatC= 1.02D-11 BMatP= 7.97D-11
 IDIUse=1 WtCom= 1.00D+00 WtEn= 0.00D+00
 Coeff-Com: -0.145D-04 0.291D-04 0.634D-04 0.582D-04-0.148D-03-0.715D-03
 Coeff-Com:  0.339D-03 0.417D-02 0.305D-02-0.889D-02-0.541D-01-0.910D-02
 Coeff-Com:  0.333D+00 0.733D+00
 Coeff:     -0.145D-04 0.291D-04 0.634D-04 0.582D-04-0.148D-03-0.715D-03
 Coeff:      0.339D-03 0.417D-02 0.305D-02-0.889D-02-0.541D-01-0.910D-02
 Coeff:      0.333D+00 0.733D+00
 Gap=     0.236 Goal=   None    Shift=    0.000
 RMSDP=2.21D-08 MaxDP=5.60D-07 DE=-2.18D-10 OVMax= 2.70D-06

 Cycle  15  Pass 1  IDiag  1:
 RMSU=  1.21D-08    CP:  9.89D-01  1.32D+00  9.76D-01  9.26D-01  1.47D+00
                    CP:  1.79D+00  1.63D+00  1.64D+00  1.75D+00  1.40D+00
                    CP:  1.38D+00  1.18D+00  1.28D+00  1.10D+00
 E= -1028.58567906552     Delta-E=       -0.000000000018 Rises=F Damp=F
 DIIS: error= 7.13D-08 at cycle  15 NSaved=  15.
 NSaved=15 IEnMin=15 EnMin= -1028.58567906552     IErMin=15 ErrMin= 7.13D-08
 ErrMax= 7.13D-08  0.00D+00 EMaxC= 1.00D-01 BMatC= 1.28D-12 BMatP= 1.02D-11
 IDIUse=1 WtCom= 1.00D+00 WtEn= 0.00D+00
 Coeff-Com: -0.215D-05 0.380D-05 0.117D-04 0.316D-04-0.452D-05-0.295D-03
 Coeff-Com: -0.618D-03 0.126D-05 0.454D-02 0.690D-02-0.601D-02-0.485D-01
 Coeff-Com: -0.871D-01 0.167D+00 0.964D+00
 Coeff:     -0.215D-05 0.380D-05 0.117D-04 0.316D-04-0.452D-05-0.295D-03
 Coeff:     -0.618D-03 0.126D-05 0.454D-02 0.690D-02-0.601D-02-0.485D-01
 Coeff:     -0.871D-01 0.167D+00 0.964D+00
 Gap=     0.236 Goal=   None    Shift=    0.000
 RMSDP=1.28D-08 MaxDP=3.15D-07 DE=-1.80D-11 OVMax= 1.48D-06

 Cycle  16  Pass 1  IDiag  1:
 RMSU=  5.19D-09    CP:  9.89D-01  1.32D+00  9.76D-01  9.26D-01  1.47D+00
                    CP:  1.79D+00  1.63D+00  1.64D+00  1.75D+00  1.41D+00
                    CP:  1.39D+00  1.20D+00  1.35D+00  1.28D+00  1.22D+00
 E= -1028.58567906553     Delta-E=       -0.000000000011 Rises=F Damp=F
 DIIS: error= 2.57D-08 at cycle  16 NSaved=  16.
 NSaved=16 IEnMin=16 EnMin= -1028.58567906553     IErMin=16 ErrMin= 2.57D-08
 ErrMax= 2.57D-08  0.00D+00 EMaxC= 1.00D-01 BMatC= 1.42D-13 BMatP= 1.28D-12
 IDIUse=1 WtCom= 1.00D+00 WtEn= 0.00D+00
 Coeff-Com:  0.719D-06-0.156D-05-0.224D-05 0.282D-05 0.875D-05-0.162D-04
 Coeff-Com: -0.195D-03-0.352D-03 0.720D-03 0.254D-02 0.316D-02-0.117D-01
 Coeff-Com: -0.471D-01-0.300D-01 0.254D+00 0.829D+00
 Coeff:      0.719D-06-0.156D-05-0.224D-05 0.282D-05 0.875D-05-0.162D-04
 Coeff:     -0.195D-03-0.352D-03 0.720D-03 0.254D-02 0.316D-02-0.117D-01
 Coeff:     -0.471D-01-0.300D-01 0.254D+00 0.829D+00
 Gap=     0.236 Goal=   None    Shift=    0.000
 RMSDP=3.64D-09 MaxDP=1.16D-07 DE=-1.07D-11 OVMax= 4.97D-07

 Error on total polarization charges =  0.00864
 SCF Done:  E(RwB97XD) =  -1028.58567907     A.U. after   16 cycles
            NFock= 16  Conv=0.36D-08     -V/T= 2.0037
 KE= 1.024788056022D+03 PE=-4.614430998651D+03 EE= 1.459877899461D+03
 Leave Link  502 at Mon Jul 13 20:51:31 2020, MaxMem=  7784628224 cpu:             879.1 elap:              88.7
 (Enter /gpfs/loomis/apps/avx/software/Gaussian/16-C.01_AVX/g16/l801.exe)
 DoSCS=F DFT=T ScalE2(SS,OS)=  1.000000  1.000000
 ExpMin= 1.22D-01 ExpMax= 1.11D+05 ExpMxC= 1.07D+03 IAcc=3 IRadAn=         5 AccDes= 0.00D+00
 HarFok:  IExCor=  205 AccDes= 0.00D+00 IRadAn=         5 IDoV=-2 UseB2=F ITyADJ=14
 ICtDFT= 12500011 ScaDFX=  1.000000  1.000000  1.000000  1.000000
 Largest valence mixing into a core orbital is  9.53D-05
 Largest core mixing into a valence orbital is  3.15D-05
 Range of M.O.s used for correlation:    21   273
 NBasis=   273 NAE=    59 NBE=    59 NFC=    20 NFV=     0
 NROrb=    253 NOA=    39 NOB=    39 NVA=   214 NVB=   214
 Leave Link  801 at Mon Jul 13 20:51:31 2020, MaxMem=  7784628224 cpu:               1.4 elap:               0.2
 (Enter /gpfs/loomis/apps/avx/software/Gaussian/16-C.01_AVX/g16/l914.exe)
 RHF ground state
 Keep R1, R2, and R3 ints in memory in canonical form, NReq=4262515490.
 FoFCou: FMM=F IPFlag=           0 FMFlag=           0 FMFlg1=           0
         NFxFlg=           0 DoJE=F BraDBF=F KetDBF=F FulRan=T
         wScrn=  0.000000 ICntrl=       600 IOpCl=  0 I1Cent=           0 NGrid=           0
         NMat0=    1 NMatS0=  37401 NMatT0=    0 NMatD0=    1 NMtDS0=    0 NMtDT0=    0
 Symmetry not used in FoFCou.
 Two-electron integral symmetry not used.
 MDV=  7784628224 DFT=T DoStab=F Mixed=T DoRPA=T DoScal=F NonHer=T
 NEqPCM:  Using equilibrium solvation (IEInf=0, Eps=   2.2280, EpsInf=   2.1319)
 Making orbital integer symmetry assigments:
    12 initial guesses have been made.
 Convergence on wavefunction:    0.000001000000000
 Davidson Disk Diagonalization:  ConvIn= 1.00D-06 SkipCon=T Conv= 1.00D-06.
 Max sub-space:  2000 roots to seek:    12 dimension of matrix:        16692
 Iteration     1 Dimension    12 NMult     0 NNew     12
 CISAX will form    12 AO SS matrices at one time.
 NMat=    12 NSing=    12 JSym2X= 0.
 New state      3 was old state      4
 Excitation Energies [eV] at current iteration:
 Root      1 :     3.399940689054949
 Root      2 :     3.635302605568508
 Root      3 :     4.847702440052531
 Root      4 :     5.132405437804159
 Root      5 :     5.168129767446866
 Root      6 :     5.693904275007168
 Root      7 :     5.844170075987170
 Root      8 :     6.296806848676213
 Root      9 :     6.480938518439356
 Root     10 :     6.653796196471246
 Root     11 :     6.966326368506016
 Root     12 :     7.186160370025088
 Iteration     2 Dimension    18 NMult    12 NNew      6
 CISAX will form     6 AO SS matrices at one time.
 NMat=     6 NSing=     6 JSym2X= 0.
 Root      1 not converged, maximum delta is    0.043291336242071
 Root      2 not converged, maximum delta is    0.108094361808630
 Root      3 not converged, maximum delta is    0.080510211825087
 Excitation Energies [eV] at current iteration:
 Root      1 :     2.881463861972647   Change is   -0.518476827082303
 Root      2 :     3.428543449990629   Change is   -0.206759155577879
 Root      3 :     4.409412071893009   Change is   -0.438290368159521
 Iteration     3 Dimension    24 NMult    18 NNew      6
 CISAX will form     6 AO SS matrices at one time.
 NMat=     6 NSing=     6 JSym2X= 0.
 Root      1 not converged, maximum delta is    0.015930166855368
 Root      2 not converged, maximum delta is    0.028127041461887
 Root      3 not converged, maximum delta is    0.029062943057191
 Excitation Energies [eV] at current iteration:
 Root      1 :     2.852511622953182   Change is   -0.028952239019464
 Root      2 :     3.408496981856707   Change is   -0.020046468133922
 Root      3 :     4.380328992220176   Change is   -0.029083079672834
 Iteration     4 Dimension    30 NMult    24 NNew      6
 CISAX will form     6 AO SS matrices at one time.
 NMat=     6 NSing=     6 JSym2X= 0.
 Root      1 not converged, maximum delta is    0.008473948860338
 Root      2 not converged, maximum delta is    0.009448923252927
 Root      3 not converged, maximum delta is    0.015839223815582
 Excitation Energies [eV] at current iteration:
 Root      1 :     2.848027812731119   Change is   -0.004483810222063
 Root      2 :     3.406614580322011   Change is   -0.001882401534696
 Root      3 :     4.374596373361817   Change is   -0.005732618858360
 Iteration     5 Dimension    36 NMult    30 NNew      6
 CISAX will form     6 AO SS matrices at one time.
 NMat=     6 NSing=     6 JSym2X= 0.
 Root      1 not converged, maximum delta is    0.001803917866079
 Root      2 not converged, maximum delta is    0.001290587182461
 Root      3 not converged, maximum delta is    0.009319514807205
 Excitation Energies [eV] at current iteration:
 Root      1 :     2.847439245757526   Change is   -0.000588566973593
 Root      2 :     3.406513643739175   Change is   -0.000100936582836
 Root      3 :     4.373241018191026   Change is   -0.001355355170790
 Iteration     6 Dimension    42 NMult    36 NNew      6
 CISAX will form     6 AO SS matrices at one time.
 NMat=     6 NSing=     6 JSym2X= 0.
 Root      1 not converged, maximum delta is    0.000337409131783
 Root      2 not converged, maximum delta is    0.000318521547026
 Root      3 not converged, maximum delta is    0.002368371839628
 Excitation Energies [eV] at current iteration:
 Root      1 :     2.847397487349308   Change is   -0.000041758408219
 Root      2 :     3.406508615937924   Change is   -0.000005027801251
 Root      3 :     4.373056660761866   Change is   -0.000184357429160
 Iteration     7 Dimension    48 NMult    42 NNew      6
 CISAX will form     6 AO SS matrices at one time.
 NMat=     6 NSing=     6 JSym2X= 0.
 Root      1 not converged, maximum delta is    0.000106924026237
 Root      2 not converged, maximum delta is    0.000118550866457
 Root      3 not converged, maximum delta is    0.000494113546094
 Excitation Energies [eV] at current iteration:
 Root      1 :     2.847394113359266   Change is   -0.000003373990041
 Root      2 :     3.406508177390445   Change is   -0.000000438547479
 Root      3 :     4.373036981310316   Change is   -0.000019679451550
 Iteration     8 Dimension    54 NMult    48 NNew      6
 CISAX will form     6 AO SS matrices at one time.
 NMat=     6 NSing=     6 JSym2X= 0.
 Root      1 not converged, maximum delta is    0.000030172977371
 Root      2 not converged, maximum delta is    0.000011890961917
 Root      3 not converged, maximum delta is    0.000192134054870
 Excitation Energies [eV] at current iteration:
 Root      1 :     2.847393960303327   Change is   -0.000000153055939
 Root      2 :     3.406508157894629   Change is   -0.000000019495816
 Root      3 :     4.373035011486974   Change is   -0.000001969823342
 Iteration     9 Dimension    60 NMult    54 NNew      6
 CISAX will form     6 AO SS matrices at one time.
 NMat=     6 NSing=     6 JSym2X= 0.
 Root      1 not converged, maximum delta is    0.000010343379382
 Root      2 not converged, maximum delta is    0.000001684021922
 Root      3 not converged, maximum delta is    0.000043522094706
 Excitation Energies [eV] at current iteration:
 Root      1 :     2.847393948989189   Change is   -0.000000011314139
 Root      2 :     3.406508157140875   Change is   -0.000000000753754
 Root      3 :     4.373034871263560   Change is   -0.000000140223414
 Iteration    10 Dimension    66 NMult    60 NNew      6
 CISAX will form     6 AO SS matrices at one time.
 NMat=     6 NSing=     6 JSym2X= 0.
 Root      1 not converged, maximum delta is    0.000002677614523
 Root      2 has converged.
 Root      3 not converged, maximum delta is    0.000022117380337
 Excitation Energies [eV] at current iteration:
 Root      1 :     2.847393948159259   Change is   -0.000000000829930
 Root      2 :     3.406508157094830   Change is   -0.000000000046045
 Root      3 :     4.373034852977506   Change is   -0.000000018286054
 Iteration    11 Dimension    70 NMult    66 NNew      4
 CISAX will form     4 AO SS matrices at one time.
 NMat=     4 NSing=     4 JSym2X= 0.
 Root      1 has converged.
 Root      2 has converged.
 Root      3 not converged, maximum delta is    0.000005416734734
 Excitation Energies [eV] at current iteration:
 Root      1 :     2.847393948109167   Change is   -0.000000000050091
 Root      2 :     3.406508157094806   Change is   -0.000000000000024
 Root      3 :     4.373034851097350   Change is   -0.000000001880156
 Iteration    12 Dimension    72 NMult    70 NNew      2
 CISAX will form     2 AO SS matrices at one time.
 NMat=     2 NSing=     2 JSym2X= 0.
 Root      1 has converged.
 Root      2 has converged.
 Root      3 not converged, maximum delta is    0.000001093197184
 Excitation Energies [eV] at current iteration:
 Root      1 :     2.847393948107377   Change is   -0.000000000001790
 Root      2 :     3.406508157094685   Change is   -0.000000000000120
 Root      3 :     4.373034850953145   Change is   -0.000000000144205
 Iteration    13 Dimension    74 NMult    72 NNew      2
 CISAX will form     2 AO SS matrices at one time.
 NMat=     2 NSing=     2 JSym2X= 0.
 Root      1 has converged.
 Root      2 has converged.
 Root      3 has converged.
 Excitation Energies [eV] at current iteration:
 Root      1 :     2.847393948107175   Change is   -0.000000000000202
 Root      2 :     3.406508157094878   Change is    0.000000000000193
 Root      3 :     4.373034850941640   Change is   -0.000000000011505
 Convergence achieved on expansion vectors.
 ***********************************************************************
 Excited states from <AA,BB:AA,BB> singles matrix:
 ***********************************************************************
 
 1PDM for each excited state written to RWF  633
 Ground to excited state transition densities written to RWF  633
 Ground to excited state transition electric dipole moments (Au):
       state          X           Y           Z        Dip. S.      Osc.
         1         1.1372     -2.2680     -0.0000      6.4369      0.4490
         2        -0.0000      0.0001     -0.0057      0.0000      0.0000
         3        -1.6393      1.0628      0.0000      3.8169      0.4089
 Ground to excited state transition velocity dipole moments (Au):
       state          X           Y           Z        Dip. S.      Osc.
         1        -0.1146      0.2405      0.0000      0.0710      0.4521
         2         0.0000     -0.0000      0.0006      0.0000      0.0000
         3         0.2583     -0.1605     -0.0000      0.0925      0.3836
 Ground to excited state transition magnetic dipole moments (Au):
       state          X           Y           Z
         1         0.0000      0.0000     -1.1808
         2         0.4273     -0.0168      0.0000
         3        -0.0000      0.0000     -0.9346
 Ground to excited state transition velocity quadrupole moments (Au):
       state          XX          YY          ZZ          XY          XZ          YZ
         1         0.0194      0.6541     -0.0117     -0.2804     -0.0000      0.0000
         2        -0.0000     -0.0000      0.0000      0.0000     -0.0049      0.0199
         3        -0.4588      0.4738      0.0046      0.1183      0.0000      0.0000
 <0|del|b> * <b|rxdel|0> + <0|del|b> * <b|delr+rdel|0>
 Rotatory Strengths (R) in cgs (10**-40 erg-esu-cm/Gauss)
       state          XX          YY          ZZ    R(velocity)    E-M Angle
         1         0.0098     -0.0222      0.0194      0.0023       90.00
         2         0.0003      0.0033      0.0034      0.0023       90.00
         3         0.0006      0.0023     -0.0068     -0.0013       90.00
 1/2[<0|r|b>*<b|rxdel|0> + (<0|rxdel|b>*<b|r|0>)*]
 Rotatory Strengths (R) in cgs (10**-40 erg-esu-cm/Gauss)
       state          XX          YY          ZZ     R(length)
         1        -0.0108      0.0478     -0.0304      0.0022
         2         0.0064      0.0006      0.0001      0.0024
         3        -0.0050     -0.0051      0.0066     -0.0012
  1/2[<0|del|b>*<b|r|0> + (<0|r|b>*<b|del|0>)*] (Au)
       state          X           Y           Z        Dip. S.   Osc.(frdel)
         1        -0.1303     -0.5454     -0.0000      0.6757      0.4505
         2        -0.0000     -0.0000     -0.0000      0.0000      0.0000
         3        -0.4234     -0.1706     -0.0000      0.5940      0.3960

 Excitation energies and oscillator strengths:
 
 Excited state symmetry could not be determined.
 Excited State   1:      Singlet-?Sym    2.8474 eV  435.43 nm  f=0.4490  <S**2>=0.000
      59 -> 60         0.69984
 This state for optimization and/or second-order correction.
 Total Energy, E(TD-HF/TD-DFT) =  -1028.48103926    
 Copying the excited state density for this state as the 1-particle RhoCI density.
 
 Excited state symmetry could not be determined.
 Excited State   2:      Singlet-?Sym    3.4065 eV  363.96 nm  f=0.0000  <S**2>=0.000
      58 -> 60         0.68459
      58 -> 62         0.11151
      58 -> 64         0.10900
 
 Excited state symmetry could not be determined.
 Excited State   3:      Singlet-?Sym    4.3730 eV  283.52 nm  f=0.4089  <S**2>=0.000
      57 -> 60         0.68438
 SavETr:  write IOETrn=   770 NScale= 10 NData=  16 NLR=1 NState=    3 LETran=      64.
 The selected state is a singlet.
 CISGrd: IGrad=2 NXY=2 DFT=T
 CISAX will form     1 AO SS matrices at one time.
 NMat=     1 NSing=     1 JSym2X= 0.
 GePol: Maximum number of non-zero 1st derivatives   =     262
 Leave Link  914 at Mon Jul 13 20:54:29 2020, MaxMem=  7784628224 cpu:            1752.1 elap:             177.8
 (Enter /gpfs/loomis/apps/avx/software/Gaussian/16-C.01_AVX/g16/l1002.exe)
 Minotr:  Closed shell wavefunction.
          Computing CIS/TDA/TD derivatives.
          Using Z-Vector for PSCF gradient.
          Skipping F1 and S1 gradient terms here.
          IDoAtm=1111111111111111111111111
 NEqPCM:  Using equilibrium solvation (IEInf=0, Eps=   2.2280, EpsInf=   2.1319)
          Frozen-core window.
          Direct CPHF calculation.
          Differentiating once with respect to electric field.
                with respect to dipole field.
          Differentiating once with respect to nuclear coordinates.
          Requested convergence is 1.0D-10 RMS, and 1.0D-09 maximum.
          NewPWx=F KeepS1=T KeepF1=T KeepIn=T MapXYZ=F SortEE=F KeepMc=T.
 Keep R1 ints in memory in canonical form, NReq=1421582672.
 FoFCou: FMM=F IPFlag=           0 FMFlag=           0 FMFlg1=           0
         NFxFlg=           0 DoJE=F BraDBF=F KetDBF=F FulRan=T
         wScrn=  0.000000 ICntrl=       600 IOpCl=  0 I1Cent=           0 NGrid=           0
         NMat0=    1 NMatS0=  37401 NMatT0=    0 NMatD0=    1 NMtDS0=    0 NMtDT0=    0
 Symmetry not used in FoFCou.
 Two-electron integral symmetry not used.
          MDV=    7784628224 using IRadAn=       5.
          Solving linear equations separately, MaxMat=       0.
          There are     1 degrees of freedom in the 1st order CPHF.  IDoFFX=0 NUNeed=     1.
 LinEq1:  Iter=  0 NonCon=     1 RMS=6.96D-03 Max=5.70D-01 NDo=     1
 AX will form     1 AO Fock derivatives at one time.
 LinEq1:  Iter=  1 NonCon=     1 RMS=3.20D-03 Max=1.76D-01 NDo=     1
 LinEq1:  Iter=  2 NonCon=     1 RMS=1.60D-03 Max=3.90D-02 NDo=     1
 LinEq1:  Iter=  3 NonCon=     1 RMS=7.62D-04 Max=2.15D-02 NDo=     1
 LinEq1:  Iter=  4 NonCon=     1 RMS=4.56D-04 Max=1.40D-02 NDo=     1
 LinEq1:  Iter=  5 NonCon=     1 RMS=2.22D-04 Max=8.16D-03 NDo=     1
 LinEq1:  Iter=  6 NonCon=     1 RMS=9.12D-05 Max=4.54D-03 NDo=     1
 LinEq1:  Iter=  7 NonCon=     1 RMS=4.72D-05 Max=1.56D-03 NDo=     1
 LinEq1:  Iter=  8 NonCon=     1 RMS=1.80D-05 Max=6.06D-04 NDo=     1
 LinEq1:  Iter=  9 NonCon=     1 RMS=8.12D-06 Max=1.90D-04 NDo=     1
 LinEq1:  Iter= 10 NonCon=     1 RMS=3.19D-06 Max=8.65D-05 NDo=     1
 LinEq1:  Iter= 11 NonCon=     1 RMS=1.57D-06 Max=5.23D-05 NDo=     1
 LinEq1:  Iter= 12 NonCon=     1 RMS=7.21D-07 Max=2.23D-05 NDo=     1
 LinEq1:  Iter= 13 NonCon=     1 RMS=3.59D-07 Max=1.16D-05 NDo=     1
 LinEq1:  Iter= 14 NonCon=     1 RMS=1.14D-07 Max=2.47D-06 NDo=     1
 LinEq1:  Iter= 15 NonCon=     1 RMS=6.02D-08 Max=1.75D-06 NDo=     1
 LinEq1:  Iter= 16 NonCon=     1 RMS=2.54D-08 Max=7.18D-07 NDo=     1
 LinEq1:  Iter= 17 NonCon=     1 RMS=1.19D-08 Max=3.57D-07 NDo=     1
 LinEq1:  Iter= 18 NonCon=     1 RMS=5.18D-09 Max=1.17D-07 NDo=     1
 LinEq1:  Iter= 19 NonCon=     1 RMS=2.04D-09 Max=5.26D-08 NDo=     1
 LinEq1:  Iter= 20 NonCon=     1 RMS=1.04D-09 Max=2.81D-08 NDo=     1
 LinEq1:  Iter= 21 NonCon=     1 RMS=3.58D-10 Max=1.03D-08 NDo=     1
 LinEq1:  Iter= 22 NonCon=     1 RMS=1.53D-10 Max=4.45D-09 NDo=     1
 LinEq1:  Iter= 23 NonCon=     1 RMS=6.63D-11 Max=1.75D-09 NDo=     1
 LinEq1:  Iter= 24 NonCon=     0 RMS=1.82D-11 Max=4.44D-10 NDo=     1
 Linear equations converged to 1.000D-10 1.000D-09 after    24 iterations.
 End of Minotr F.D. properties file   721 does not exist.
 End of Minotr F.D. properties file   722 does not exist.
 End of Minotr F.D. properties file   788 does not exist.
 Leave Link 1002 at Mon Jul 13 20:56:08 2020, MaxMem=  7784628224 cpu:             749.1 elap:              99.2
 (Enter /gpfs/loomis/apps/avx/software/Gaussian/16-C.01_AVX/g16/l601.exe)
 Copying SCF densities to generalized density rwf, IOpCl= 0 IROHF=0.

 **********************************************************************

            Population analysis using the SCF Density.

 **********************************************************************

 Alpha  occ. eigenvalues --  -89.10973 -19.20414 -14.50437 -10.42135 -10.37670
 Alpha  occ. eigenvalues --  -10.36576 -10.35507 -10.33586 -10.33037 -10.32688
 Alpha  occ. eigenvalues --  -10.32511 -10.31346 -10.30778 -10.30565 -10.29137
 Alpha  occ. eigenvalues --  -10.28164  -8.12940  -6.07825  -6.07452  -6.06945
 Alpha  occ. eigenvalues --   -1.16137  -1.09381  -0.99663  -0.96463  -0.93653
 Alpha  occ. eigenvalues --   -0.89239  -0.87509  -0.83966  -0.81275  -0.79045
 Alpha  occ. eigenvalues --   -0.75753  -0.72303  -0.69691  -0.67685  -0.65714
 Alpha  occ. eigenvalues --   -0.60856  -0.59823  -0.57072  -0.56408  -0.56250
 Alpha  occ. eigenvalues --   -0.55104  -0.53664  -0.53164  -0.50619  -0.49508
 Alpha  occ. eigenvalues --   -0.48818  -0.48506  -0.47007  -0.45595  -0.44938
 Alpha  occ. eigenvalues --   -0.44173  -0.42989  -0.42597  -0.40086  -0.36848
 Alpha  occ. eigenvalues --   -0.33957  -0.31713  -0.31087  -0.25614
 Alpha virt. eigenvalues --   -0.02012   0.03482   0.05453   0.05857   0.09595
 Alpha virt. eigenvalues --    0.10609   0.13328   0.14574   0.16379   0.17373
 Alpha virt. eigenvalues --    0.19015   0.20086   0.21141   0.21305   0.23193
 Alpha virt. eigenvalues --    0.23642   0.24114   0.25809   0.28440   0.30072
 Alpha virt. eigenvalues --    0.30641   0.33946   0.35639   0.35904   0.36719
 Alpha virt. eigenvalues --    0.38246   0.39277   0.39922   0.41839   0.45138
 Alpha virt. eigenvalues --    0.46740   0.49038   0.50880   0.50904   0.51333
 Alpha virt. eigenvalues --    0.52805   0.52835   0.52872   0.53916   0.55594
 Alpha virt. eigenvalues --    0.56208   0.56402   0.56442   0.57139   0.57608
 Alpha virt. eigenvalues --    0.57820   0.59112   0.59398   0.59722   0.60703
 Alpha virt. eigenvalues --    0.61455   0.61668   0.62514   0.62635   0.63849
 Alpha virt. eigenvalues --    0.64566   0.66943   0.67086   0.68671   0.69885
 Alpha virt. eigenvalues --    0.70137   0.70676   0.72006   0.72100   0.72938
 Alpha virt. eigenvalues --    0.74402   0.75259   0.76096   0.76646   0.78838
 Alpha virt. eigenvalues --    0.79088   0.79445   0.81390   0.81585   0.83296
 Alpha virt. eigenvalues --    0.86239   0.88048   0.91266   0.91745   0.92841
 Alpha virt. eigenvalues --    0.93940   0.94544   0.96288   0.97605   0.98199
 Alpha virt. eigenvalues --    0.99664   0.99760   1.00521   1.00718   1.01146
 Alpha virt. eigenvalues --    1.02640   1.05106   1.05969   1.06392   1.07175
 Alpha virt. eigenvalues --    1.08837   1.09167   1.10247   1.11376   1.11428
 Alpha virt. eigenvalues --    1.12369   1.12863   1.13822   1.14307   1.15904
 Alpha virt. eigenvalues --    1.17453   1.18604   1.20352   1.23418   1.24187
 Alpha virt. eigenvalues --    1.26899   1.27315   1.31172   1.33069   1.33845
 Alpha virt. eigenvalues --    1.34664   1.36435   1.38135   1.41685   1.44758
 Alpha virt. eigenvalues --    1.49417   1.49470   1.53236   1.54837   1.55007
 Alpha virt. eigenvalues --    1.55934   1.57336   1.57338   1.57843   1.60054
 Alpha virt. eigenvalues --    1.60226   1.61971   1.63257   1.65239   1.67855
 Alpha virt. eigenvalues --    1.68728   1.70120   1.71331   1.71859   1.71924
 Alpha virt. eigenvalues --    1.72573   1.73636   1.73781   1.75031   1.76421
 Alpha virt. eigenvalues --    1.78150   1.78907   1.80491   1.81893   1.82439
 Alpha virt. eigenvalues --    1.84231   1.84700   1.84961   1.85499   1.86653
 Alpha virt. eigenvalues --    1.86900   1.90375   1.91359   1.92486   1.92580
 Alpha virt. eigenvalues --    1.93678   1.94946   1.95612   1.96613   1.98449
 Alpha virt. eigenvalues --    2.00665   2.01851   2.02475   2.05301   2.06864
 Alpha virt. eigenvalues --    2.07012   2.08144   2.09771   2.11364   2.14005
 Alpha virt. eigenvalues --    2.17933   2.23112   2.24223   2.24433   2.27358
 Alpha virt. eigenvalues --    2.29183   2.30159   2.34546   2.37280   2.39687
 Alpha virt. eigenvalues --    2.41122   2.43290   2.46648   2.48905   2.50727
 Alpha virt. eigenvalues --    2.52544   2.54256   2.62100   2.65899   2.68275
 Alpha virt. eigenvalues --    2.69266   2.73223   2.74884   2.79386   2.81234
 Alpha virt. eigenvalues --    2.81660   2.82548   2.82875   2.89358   2.94739
 Alpha virt. eigenvalues --    2.95360   3.07409   3.18201   3.34543   3.50170
 Alpha virt. eigenvalues --    3.53702   3.59544   3.69740   4.71657
          Condensed to atoms (all electrons):
               1          2          3          4          5          6
     1  C    4.738876   0.475114   0.015033  -0.052724  -0.010777   0.508086
     2  C    0.475114   5.415587   0.256493  -0.073236  -0.074910  -0.001736
     3  C    0.015033   0.256493   4.904407   0.516160  -0.002876  -0.070698
     4  C   -0.052724  -0.073236   0.516160   4.817057   0.514648  -0.014945
     5  C   -0.010777  -0.074910  -0.002876   0.514648   4.726154   0.502703
     6  C    0.508086  -0.001736  -0.070698  -0.014945   0.502703   4.734328
     7  H    0.405083  -0.041007   0.009398  -0.000549   0.008142  -0.038421
     8  H   -0.000580   0.010618  -0.023117   0.393963  -0.041057   0.007303
     9  H    0.008476  -0.000224   0.008102  -0.038087   0.405516  -0.043310
    10  H   -0.042705   0.009615  -0.000589   0.008742  -0.042617   0.407855
    11  N    0.003828  -0.045937   0.430419  -0.044957   0.003035   0.000328
    12  S   -0.066175   0.340817  -0.141079   0.002671   0.000086   0.004333
    13  C   -0.000229  -0.000119   0.014192  -0.000038   0.000017  -0.000002
    14  C   -0.000006   0.000012   0.000351   0.000009  -0.000000  -0.000000
    15  C    0.000003  -0.000227   0.000763  -0.000003  -0.000001   0.000000
    16  C    0.000000  -0.000002   0.000003  -0.000000   0.000000   0.000000
    17  H   -0.000004   0.000089  -0.000005   0.000000   0.000000   0.000000
    18  C    0.000000   0.000011  -0.000050  -0.000001  -0.000000  -0.000000
    19  C   -0.000000  -0.000000   0.000003  -0.000000   0.000000   0.000000
    20  H   -0.000000  -0.000000  -0.000000   0.000000   0.000000  -0.000000
    21  H   -0.000000   0.000000  -0.000001  -0.000000  -0.000000   0.000000
    22  H    0.000000  -0.000000  -0.000000  -0.000000   0.000000  -0.000000
    23  C    0.003659  -0.059606  -0.087327   0.007358   0.000464  -0.000450
    24  O    0.000002  -0.000222  -0.001542   0.000145   0.000001  -0.000000
    25  H    0.000208   0.025880  -0.007486  -0.032927  -0.000915  -0.000002
               7          8          9         10         11         12
     1  C    0.405083  -0.000580   0.008476  -0.042705   0.003828  -0.066175
     2  C   -0.041007   0.010618  -0.000224   0.009615  -0.045937   0.340817
     3  C    0.009398  -0.023117   0.008102  -0.000589   0.430419  -0.141079
     4  C   -0.000549   0.393963  -0.038087   0.008742  -0.044957   0.002671
     5  C    0.008142  -0.041057   0.405516  -0.042617   0.003035   0.000086
     6  C   -0.038421   0.007303  -0.043310   0.407855   0.000328   0.004333
     7  H    0.648704   0.000028  -0.000142  -0.011688  -0.000106  -0.007040
     8  H    0.000028   0.636315  -0.011512  -0.000118  -0.006723  -0.000255
     9  H   -0.000142  -0.011512   0.654951  -0.012219  -0.000093   0.000023
    10  H   -0.011688  -0.000118  -0.012219   0.656364   0.000005  -0.000130
    11  N   -0.000106  -0.006723  -0.000093   0.000005   5.627773  -0.040820
    12  S   -0.007040  -0.000255   0.000023  -0.000130  -0.040820  15.446987
    13  C    0.000005   0.000064  -0.000000  -0.000000  -0.021169  -0.071221
    14  C    0.000000   0.000001   0.000000  -0.000000   0.003687  -0.006031
    15  C   -0.000000  -0.000015   0.000000   0.000000  -0.006554   0.003898
    16  C   -0.000000  -0.000000  -0.000000  -0.000000  -0.000082   0.000027
    17  H    0.000001   0.000000   0.000000  -0.000000   0.000264   0.006063
    18  C    0.000000  -0.000001   0.000000  -0.000000  -0.000725  -0.000085
    19  C    0.000000   0.000000   0.000000   0.000000   0.000022   0.000013
    20  H    0.000000  -0.000000   0.000000   0.000000   0.000001   0.000000
    21  H   -0.000000   0.000000  -0.000000   0.000000   0.000000   0.000003
    22  H    0.000000  -0.000000  -0.000000  -0.000000  -0.000000  -0.000000
    23  C    0.000209  -0.000640   0.000006   0.000003   0.490393   0.299651
    24  O    0.000000  -0.000189  -0.000000  -0.000000  -0.016456  -0.000045
    25  H    0.000010   0.000979  -0.000022   0.000000   0.343555   0.010462
              13         14         15         16         17         18
     1  C   -0.000229  -0.000006   0.000003   0.000000  -0.000004   0.000000
     2  C   -0.000119   0.000012  -0.000227  -0.000002   0.000089   0.000011
     3  C    0.014192   0.000351   0.000763   0.000003  -0.000005  -0.000050
     4  C   -0.000038   0.000009  -0.000003  -0.000000   0.000000  -0.000001
     5  C    0.000017  -0.000000  -0.000001   0.000000   0.000000  -0.000000
     6  C   -0.000002  -0.000000   0.000000   0.000000   0.000000  -0.000000
     7  H    0.000005   0.000000  -0.000000  -0.000000   0.000001   0.000000
     8  H    0.000064   0.000001  -0.000015  -0.000000   0.000000  -0.000001
     9  H   -0.000000   0.000000   0.000000  -0.000000   0.000000   0.000000
    10  H   -0.000000  -0.000000   0.000000  -0.000000  -0.000000  -0.000000
    11  N   -0.021169   0.003687  -0.006554  -0.000082   0.000264  -0.000725
    12  S   -0.071221  -0.006031   0.003898   0.000027   0.006063  -0.000085
    13  C    5.532652   0.421818   0.161591  -0.003270  -0.044136  -0.040499
    14  C    0.421818   4.866999   0.014737   0.536927   0.401240  -0.067201
    15  C    0.161591   0.014737   4.717043  -0.056348   0.006305   0.447754
    16  C   -0.003270   0.536927  -0.056348   4.773990  -0.032536  -0.015602
    17  H   -0.044136   0.401240   0.006305  -0.032536   0.685052  -0.001090
    18  C   -0.040499  -0.067201   0.447754  -0.015602  -0.001090   4.941621
    19  C   -0.052405  -0.015667  -0.002476   0.470992   0.008592   0.484664
    20  H    0.009270  -0.036888  -0.000164   0.399950  -0.012242   0.008474
    21  H    0.016008  -0.000602  -0.023812   0.007750   0.000057   0.370275
    22  H   -0.001693   0.009646   0.008505  -0.047048  -0.000203  -0.038790
    23  C    0.337322  -0.102634  -0.071424   0.006499  -0.020462   0.012691
    24  O   -0.100841   0.006387   0.694923  -0.000229  -0.000076  -0.071435
    25  H   -0.059275  -0.000838  -0.004333   0.000068  -0.000092   0.003922
              19         20         21         22         23         24
     1  C   -0.000000  -0.000000  -0.000000   0.000000   0.003659   0.000002
     2  C   -0.000000  -0.000000   0.000000  -0.000000  -0.059606  -0.000222
     3  C    0.000003  -0.000000  -0.000001  -0.000000  -0.087327  -0.001542
     4  C   -0.000000   0.000000  -0.000000  -0.000000   0.007358   0.000145
     5  C    0.000000   0.000000  -0.000000   0.000000   0.000464   0.000001
     6  C    0.000000  -0.000000   0.000000  -0.000000  -0.000450  -0.000000
     7  H    0.000000   0.000000  -0.000000   0.000000   0.000209   0.000000
     8  H    0.000000  -0.000000   0.000000  -0.000000  -0.000640  -0.000189
     9  H    0.000000   0.000000  -0.000000  -0.000000   0.000006  -0.000000
    10  H    0.000000   0.000000   0.000000  -0.000000   0.000003  -0.000000
    11  N    0.000022   0.000001   0.000000  -0.000000   0.490393  -0.016456
    12  S    0.000013   0.000000   0.000003  -0.000000   0.299651  -0.000045
    13  C   -0.052405   0.009270   0.016008  -0.001693   0.337322  -0.100841
    14  C   -0.015667  -0.036888  -0.000602   0.009646  -0.102634   0.006387
    15  C   -0.002476  -0.000164  -0.023812   0.008505  -0.071424   0.694923
    16  C    0.470992   0.399950   0.007750  -0.047048   0.006499  -0.000229
    17  H    0.008592  -0.012242   0.000057  -0.000203  -0.020462  -0.000076
    18  C    0.484664   0.008474   0.370275  -0.038790   0.012691  -0.071435
    19  C    4.758564  -0.047630  -0.048000   0.402550  -0.000012   0.005280
    20  H   -0.047630   0.691607  -0.000177  -0.012763  -0.000387   0.000000
    21  H   -0.048000  -0.000177   0.686542  -0.012952  -0.000495   0.006074
    22  H    0.402550  -0.012763  -0.012952   0.680211   0.000013  -0.000084
    23  C   -0.000012  -0.000387  -0.000495   0.000013   5.164032  -0.018439
    24  O    0.005280   0.000000   0.006074  -0.000084  -0.018439   7.811255
    25  H   -0.000333  -0.000000   0.000002   0.000004   0.005788   0.065901
              25
     1  C    0.000208
     2  C    0.025880
     3  C   -0.007486
     4  C   -0.032927
     5  C   -0.000915
     6  C   -0.000002
     7  H    0.000010
     8  H    0.000979
     9  H   -0.000022
    10  H    0.000000
    11  N    0.343555
    12  S    0.010462
    13  C   -0.059275
    14  C   -0.000838
    15  C   -0.004333
    16  C    0.000068
    17  H   -0.000092
    18  C    0.003922
    19  C   -0.000333
    20  H   -0.000000
    21  H    0.000002
[...]
 -0.00000364,-0.00000008,-0.00000334,0.00000063,0.,-0.00000593,0.000002
 79,0.00000007,0.00008363,0.00017555,0.00000138,-0.00062937,-0.00011260
 ,-0.00000460,0.00080456,-0.00134879,-0.00000476,-0.09671880,-0.2985555
 3,-0.00017731,0.00034135,0.00220122,-0.00000416,-0.01247078,-0.0168931
 5,-0.00001578,0.10418602,0.31571022,0.00000008,0.00000116,0.00004402,0
 .00000287,0.00000177,-0.00020815,0.00000562,-0.00000510,0.00078199,-0.
 00000332,0.00000052,0.00006025,0.00000034,-0.00000229,-0.00001432,0.00
 000100,0.00000092,-0.00001909,-0.00000005,0.,0.00003799,0.00000013,0.0
 0000004,0.00003389,0.,-0.00000005,-0.00000454,0.00000006,0.,-0.0000174
 6,0.00000159,0.00001382,-0.00166776,-0.00000613,-0.00000535,0.00112826
 ,0.00000616,-0.00003340,0.00875003,-0.00007789,-0.00017030,-0.03675360
 ,-0.00001156,0.00000686,0.00994576,-0.00000276,-0.00000719,0.00379361,
 0.00008407,0.00020207,0.02102773,-0.00158678,0.00037391,0.00000389,-0.
 00424647,-0.00381719,0.00000465,-0.00502546,0.01057978,-0.00001227,0.0
 0499210,-0.00043034,-0.00000149,-0.00028029,0.00169229,-0.00000014,0.0
 0126464,-0.00111157,-0.00000007,-0.00011978,0.00008108,-0.00000005,0.0
 0006809,0.00000651,-0.00000032,0.00011899,0.00000386,0.00000012,0.0000
 9659,-0.00006930,-0.00000076,0.01012254,-0.00093093,0.00001378,0.00106
 868,-0.00302267,-0.00000042,0.02643912,0.00948034,0.00000646,-0.037417
 79,0.02094468,-0.00000327,-0.11839977,0.05559480,0.00004595,-0.0156850
 7,-0.08654880,-0.00005543,-0.00059037,0.00049965,0.00000529,0.64614778
 ,0.00075020,-0.00002230,-0.00000102,0.00030919,0.00018595,-0.00000037,
 0.00107232,-0.00180970,0.00000299,-0.00117688,0.00009717,0.00000020,0.
 00014866,-0.00036703,-0.00000006,-0.00040375,0.00015259,0.00000014,0.0
 0000968,0.00000408,0.00000001,-0.00001230,-0.00000704,0.00000012,-0.00
 002516,-0.00000218,0.00000002,0.00000859,0.00001718,0.00000019,-0.0008
 0321,0.00045942,-0.00000631,0.00120850,-0.00050027,0.00000033,0.010145
 79,-0.02936950,-0.00000466,0.00981079,-0.00544502,-0.00000158,0.058815
 41,-0.22085806,-0.00007029,-0.03697326,0.00259893,-0.00001219,-0.00019
 738,0.00078340,-0.00000155,0.06513468,0.67027370,0.00000185,0.00000073
 ,0.00022200,0.00000035,0.00000314,0.00064594,0.00000907,-0.00000537,0.
 00153056,-0.00000311,-0.00000009,-0.00017831,0.00000080,-0.00000105,-0
 .00006441,-0.00000077,0.00000091,-0.00014264,-0.00000005,0.00000020,0.
 00013921,0.00000021,0.00000006,0.00010333,-0.00000009,0.00000002,0.000
 00755,0.00000008,-0.00000004,-0.00008190,-0.00000817,0.00002543,-0.002
 86682,-0.00000047,-0.00000498,0.00169141,0.00001491,-0.00003160,0.0144
 7266,-0.00001993,0.00002248,-0.00563767,0.00003648,-0.00006858,-0.0673
 7668,-0.00002114,-0.00004074,0.00814501,0.00000181,0.00000200,-0.00258
 932,0.00022250,0.00035149,0.10860669,0.00163778,0.00025008,-0.00000371
 ,0.00540039,0.00389854,-0.00000743,0.00698246,-0.01259792,0.00000618,-
 0.00641806,0.00055535,0.00000262,0.00038826,-0.00279861,0.00000113,-0.
 00062370,0.00152331,0.,0.00008824,-0.00007584,-0.00000041,-0.00001026,
 0.00001505,-0.00000029,-0.00010133,-0.00002179,-0.00000023,-0.00005173
 ,0.00007451,0.00000084,-0.01081712,0.00682550,0.00000107,-0.00045686,0
 .00145355,-0.00000122,-0.01592251,-0.01218641,-0.00001465,0.05816990,0
 .00066393,0.00002130,-0.05450280,0.02251225,-0.00003511,-0.15106393,-0
 .02612035,-0.00003647,-0.00270771,0.00447218,-0.00000046,-0.30935088,-
 0.05845338,-0.00010914,0.64885711,0.00014956,0.00089742,-0.00000186,0.
 00286673,0.00119144,-0.00000115,0.00311826,-0.00445796,0.00000522,-0.0
 0326644,0.00045460,0.00000111,0.00016010,-0.00224464,0.00000089,0.0008
 3178,0.00082472,-0.00000056,-0.00000067,-0.00003778,0.00000012,0.00000
 626,0.00000265,0.00000003,0.00000153,-0.00004900,-0.00000012,0.0000206
 1,0.00004139,0.00000023,-0.00008491,0.00372018,-0.00001173,-0.00164247
 ,0.00030034,0.00000140,-0.03181767,-0.00403188,-0.00000589,0.05197866,
 -0.05683962,-0.00001489,-0.00418560,0.02520657,-0.00001440,-0.11876700
 ,-0.32964478,-0.00016413,0.00343484,-0.00197070,-0.00000562,0.01317370
 ,-0.12572470,-0.00004304,-0.05267820,0.72452030,0.00000041,0.00000026,
 0.00013100,0.00000277,0.00000042,-0.00031311,0.00000020,-0.00000398,-0
 .00103968,-0.00000240,0.00000025,0.00008468,-0.00000015,-0.00000121,0.
 00009125,0.00000010,0.00000031,0.00002021,0.00000005,-0.00000012,-0.00
 005939,-0.00000009,-0.00000006,-0.00011443,0.,-0.00000003,0.00000005,-
 0.00000005,0.00000004,0.00000534,-0.00000079,-0.00000430,0.00073450,-0
 .00000035,0.00000284,0.00023397,-0.00002587,-0.00000792,-0.00141569,0.
 00004509,-0.00003346,0.00772391,-0.00001066,0.00003927,0.00082614,-0.0
 0008832,-0.00014420,-0.05679995,-0.00000074,-0.00000147,0.00363267,-0.
 00008140,-0.00006948,-0.05037549,0.00013938,0.00030594,0.11535569,0.00
 007598,-0.00010224,0.00000003,-0.00011163,0.00012380,-0.00000004,-0.00
 002130,-0.00007036,-0.00000009,0.00002370,0.00000846,-0.00000002,0.000
 00365,0.00010640,-0.00000003,-0.00015228,-0.00001096,0.00000004,0.0000
 0582,0.00000638,-0.00000002,0.00000135,-0.00000416,-0.00000002,-0.0000
 1036,0.00000685,0.,-0.00000908,0.00000354,0.,-0.00018180,0.00036261,-0
 .00000014,0.00003412,0.00000882,0.00000002,0.00021053,0.00319307,0.000
 00061,-0.01408093,-0.00722947,-0.00000968,0.00058573,0.00039030,0.0000
 0112,-0.33638201,-0.05706011,-0.00012053,0.00066377,0.00011450,0.00000
 072,0.00135726,-0.00183320,-0.00000286,-0.00520771,0.00252719,-0.00000
 232,0.35355781,0.00000008,0.00001117,0.,-0.00003484,-0.00008457,0.0000
 0001,0.00002656,0.00017641,-0.00000035,0.00004303,-0.00004906,-0.00000
 004,0.00001183,0.00002692,0.00000001,0.00000561,-0.00002348,0.00000002
 ,-0.00000063,-0.00000230,0.,0.00000060,0.00000158,-0.00000002,0.000004
 01,-0.00000389,0.00000001,0.00000290,-0.00000184,0.,0.00038348,-0.0004
 1896,0.00000034,0.00001449,0.00003097,-0.00000019,0.00285949,-0.004152
 53,-0.00000306,0.02352756,0.00733456,0.00000901,0.00052196,-0.00090815
 ,0.00000094,-0.05638060,-0.07032448,-0.00003592,-0.00031404,0.00087451
 ,0.00000171,-0.00110060,-0.00523587,-0.00000661,-0.02901495,0.00135117
 ,-0.00001091,0.06026785,0.06929470,0.,-0.00000005,-0.00000120,-0.00000
 032,0.,0.00008102,0.00000037,0.00000047,0.00045884,0.00000020,0.,0.000
 05129,0.00000006,0.00000013,-0.00005694,-0.00000008,0.,0.00000243,0.,0
 .00000002,0.00001417,0.00000003,0.00000001,0.00003531,0.,0.,-0.0000153
 1,0.,0.,-0.00000856,-0.00000031,0.00000090,0.00016171,0.00000005,-0.00
 000021,-0.00014824,-0.00000359,-0.00000295,0.00383591,0.00000817,-0.00
 000349,0.00445993,0.00000018,-0.00000145,-0.00153886,-0.00011947,-0.00
 003398,-0.03410882,0.00000041,0.00000189,-0.00206532,0.00000155,-0.000
 00421,0.00677244,-0.00001943,-0.00000508,0.00642296,0.00013139,0.00004
 217,0.02144307,-0.00012377,0.00003154,0.00000006,0.00011105,0.00004931
 ,0.00000014,-0.00010391,0.00007000,0.00000003,0.00004175,0.00001371,-0
 .00000002,-0.00002146,-0.00004421,0.00000003,0.00009505,0.00001692,-0.
 00000007,-0.00000031,-0.00000436,0.00000003,-0.00000504,0.00000042,0.,
 0.00000330,-0.00000098,0.,-0.00000266,-0.00000171,-0.00000002,0.000225
 30,-0.00015920,-0.00000062,-0.00029944,0.00014677,0.00000050,-0.003226
 01,0.00310834,-0.00000086,-0.00005428,0.00033191,-0.00000018,0.0097187
 7,0.02000466,0.00001705,-0.00605179,0.00050907,-0.00000360,0.00008360,
 -0.00010111,-0.00000019,-0.09257625,-0.09650948,-0.00008362,-0.0041981
 7,-0.02887139,-0.00002119,-0.00041355,-0.00145195,-0.00000039,0.093381
 36,0.00003867,0.00005855,0.00000030,-0.00010890,-0.00014772,0.00000040
 ,0.00004823,0.00005811,0.00000040,-0.00000598,-0.00000108,-0.00000006,
 0.00001011,-0.00004038,0.00000004,0.00005702,-0.00001667,-0.00000008,-
 0.00000653,0.00000196,0.00000005,0.00000657,0.00000341,0.,0.00000765,-
 0.00000393,0.,0.00001172,-0.00000186,-0.00000008,-0.00013573,0.0000932
 8,-0.00000060,0.00031999,-0.00019468,0.00000081,0.00394121,-0.00256968
 ,0.00000074,0.00054250,0.00031193,0.00000013,-0.01442152,-0.01737742,-
 0.00002149,-0.00038398,0.00147956,-0.00000276,-0.00008038,-0.00005686,
 -0.00000094,-0.09569412,-0.30872746,-0.00020544,0.00261823,0.00042454,
 -0.00000359,0.00007958,-0.00010681,0.00000081,0.10398311,0.32413396,-0
 .00000022,-0.00000092,-0.00035994,-0.00000268,-0.00000134,-0.00039550,
 -0.00000356,0.00000409,-0.00017305,0.00000251,-0.00000022,0.00003393,-
 0.00000017,0.00000148,-0.00004319,-0.00000046,-0.00000060,0.00009213,0
 .,0.,-0.00004609,-0.00000004,0.,0.00002097,0.00000001,0.00000002,-0.00
 000580,0.,0.00000002,0.00008099,0.00000096,-0.00000804,0.00072356,0.00
 000191,0.00000084,-0.00090346,-0.00000016,0.00000866,0.00195398,0.0000
 0322,-0.00000539,0.00014883,-0.00002037,-0.00001623,0.00411609,-0.0000
 0515,-0.00000321,0.00512918,-0.00000090,-0.00000038,0.00045608,-0.0000
 8183,-0.00021123,-0.03071412,0.00000456,-0.00000384,0.00429183,-0.0000
 0012,-0.00000049,-0.00040949,0.00009101,0.00022831,0.02032401,0.000044
 89,-0.00002222,-0.00000006,0.00000740,0.00010804,-0.00000022,0.0001595
 8,-0.00011834,-0.00000050,-0.00007519,0.00000267,0.00000008,0.00001313
 ,0.00000177,0.00000002,-0.00005741,0.00001167,0.00000004,0.00000190,0.
 00000299,-0.00000004,0.00000590,-0.00000307,-0.00000004,-0.00000590,0.
 00000160,0.,-0.00000389,0.00000345,0.00000002,0.00011451,0.00032182,0.
 00000071,-0.00008007,0.00007591,-0.00000049,-0.00044563,-0.00044144,-0
 .00000154,0.00049001,-0.00253864,-0.00000271,-0.00257271,-0.00419134,-
 0.00000375,0.00993675,-0.01014059,-0.00000362,0.00038366,-0.00045570,0
 .00000047,-0.01295666,0.02527910,0.00000892,-0.17660309,0.14235273,0.0
 0003006,0.00070091,0.00038206,0.00000188,0.00106845,-0.00033997,0.0000
 0081,0.18195959,-0.00000187,0.00006270,-0.00000012,0.00014262,0.000072
 90,-0.00000033,0.00017436,-0.00027457,-0.00000024,-0.00015646,0.000024
 21,0.00000008,0.00000518,-0.00012831,0.00000007,0.00007526,0.00004187,
 0.,-0.00000354,-0.00000498,-0.00000002,0.00000166,0.00000398,-0.000000
 03,0.00000491,-0.00000340,0.,0.00000576,-0.00000137,0.00000003,-0.0002
 2912,0.00006373,0.00000058,-0.00008193,0.00002167,-0.00000006,-0.00053
 008,0.00033691,-0.00000033,-0.00317633,-0.00381389,-0.00000578,-0.0022
 5372,0.00023727,-0.00000338,0.02165243,-0.01589508,-0.00000369,0.00097
 689,-0.00107964,-0.00000050,-0.00586202,0.00732229,0.00000129,0.140528
 35,-0.22749560,-0.00006158,-0.00014633,0.00099900,0.00000323,0.0003013
 2,0.00062523,0.00000186,-0.15145640,0.23815605,-0.00000028,0.00000056,
 0.00000982,0.00000127,0.00000026,0.00009369,0.00000138,-0.00000146,0.0
 0018545,-0.00000114,0.00000024,0.00000424,0.00000008,-0.00000102,-0.00
 000270,0.00000069,0.00000036,-0.00000916,-0.00000002,0.,0.00001088,0.0
 0000003,0.00000002,0.00001443,0.00000002,-0.00000003,-0.00000014,0.000
 00003,0.,-0.00001057,0.00000123,0.00000273,-0.00021030,-0.00000100,-0.
 00000062,-0.00004525,0.00000286,-0.00000232,-0.00061332,-0.00000299,-0
 .00000429,0.00636790,-0.00000849,-0.00000649,0.00630244,0.00001422,-0.
 00001058,0.00365186,0.00000057,-0.00000086,0.00039886,-0.00000295,0.00
 001054,0.00312807,0.00002494,-0.00006439,-0.03390268,0.00000176,0.0000
 0297,-0.00430337,0.00000169,0.00000267,-0.00327195,-0.00003095,0.00006
 783,0.02352472,-0.00181706,-0.00722490,0.00000329,-0.00283586,0.021819
 63,-0.00000282,-0.05368207,0.02962952,0.00000879,0.00595250,-0.0027134
 2,-0.00000216,-0.00105440,0.00487203,-0.00000151,-0.00562111,-0.002043
 72,0.00000159,0.00028735,-0.00072678,0.00000074,-0.00068412,-0.0000569
 8,-0.00000040,0.00020190,-0.00011388,0.00000003,-0.00065894,-0.0002119
 2,0.00000047,-0.35434745,-0.03525409,0.00013389,-0.04913652,-0.0459886
 1,0.00002773,-0.14812961,0.06099337,0.00002629,-0.03932071,0.03276655,
 0.00000281,0.04424777,0.01096255,0.00001677,-0.00432525,-0.00965391,0.
 00000247,0.00021948,0.00067852,-0.00001224,-0.00620927,-0.00261476,-0.
 00001865,-0.00018005,0.00403165,0.00000870,-0.00050533,0.00070019,-0.0
 0000108,0.00062396,-0.00110297,0.00000519,0.00007235,-0.00004521,-0.00
 000405,0.64191406,-0.00046382,-0.00067017,-0.00000054,0.02157082,-0.01
 739051,0.00000796,0.01696766,0.01230346,-0.00001948,0.00161773,-0.0061
 3720,0.00000446,-0.00036321,-0.00090584,0.00000171,0.00133926,-0.00082
 372,-0.00000019,0.00013173,-0.00043976,0.00000053,-0.00041068,0.000080
 76,-0.00000043,0.00027731,-0.00047454,-0.00000012,-0.00022413,0.000048
 20,0.00000003,-0.02702111,-0.12618530,0.00003239,-0.00783787,-0.176760
 70,0.00007825,0.04116515,-0.16761586,-0.00001225,0.02423041,0.00890821
 ,0.00000189,0.01652567,-0.04732024,-0.00000913,-0.00397500,0.00203982,
 -0.00001320,-0.00156391,0.00027759,0.00001273,-0.01307918,-0.00298473,
 -0.00000487,0.00794051,-0.00074498,0.00000340,-0.00065512,0.00093010,-
 0.00000001,0.00074352,-0.00065260,-0.00000694,0.00002011,0.00035922,0.
 00000390,-0.05973483,0.50959635,-0.00000097,0.00000323,0.00072916,-0.0
 0001153,0.00000110,-0.00113399,0.00000588,-0.00000816,0.00425736,-0.00
 000062,0.00000520,0.00141265,0.00000060,-0.00000201,0.00123195,0.00000
 382,0.00000198,0.00067466,-0.00000021,0.00000035,-0.00030429,0.0000002
 7,-0.00000024,-0.00059756,-0.00000029,0.00000008,-0.00040904,0.0000002
 7,-0.00000005,-0.00020405,0.00014130,0.00006322,-0.02209395,0.00001527
 ,0.00006910,-0.01617850,0.00000188,-0.00001035,-0.03243182,-0.00002026
 ,0.00002007,0.00687489,0.00003141,-0.00001757,0.00337203,0.00000450,-0
 .00002057,0.00529132,0.00000220,0.00000280,-0.00401657,-0.00001456,0.0
 0000179,-0.00100824,0.00000941,0.00000726,-0.00038475,0.00000051,0.000
 00062,-0.00104245,-0.00000020,-0.00000296,0.00242847,0.00000121,0.0000
 0060,-0.00060350,-0.00017926,-0.00011360,0.06217241,-0.00053254,0.0013
 1663,0.00000185,-0.00051379,0.00025687,-0.00000282,0.00516282,0.001046
 29,-0.00001021,-0.00026327,-0.00007802,0.00000126,0.00005174,-0.000995
 09,0.00000140,0.00161706,0.00016558,-0.00000027,-0.00015051,0.00012285
 ,-0.00000057,0.00027221,0.00008973,-0.00000106,0.00006831,-0.00000756,
 -0.00000015,0.00010377,-0.00000396,-0.00000045,0.00378034,0.02257404,0
 .00004280,0.00026194,-0.00142364,-0.00000457,-0.03864215,-0.05289727,-
 0.00006285,0.00301901,-0.00510448,0.00000082,-0.55892899,-0.07745492,-
 0.00029222,-0.00979856,-0.00857221,-0.00000929,-0.00189324,-0.00087922
 ,0.00000359,-0.08894764,0.02641757,-0.00003535,0.01725348,0.01656266,0
 .00000933,-0.00020907,-0.00046093,0.,0.00176769,0.00061574,0.00000662,
 -0.00231291,0.00012941,0.00000089,-0.02066918,0.00787554,-0.00000251,0
 .68429131,-0.00036672,-0.00023634,-0.00000016,0.00080453,-0.00177562,0
 .00000378,-0.00503709,-0.00130600,0.00000224,0.00036794,-0.00028112,-0
 .00000009,0.00000056,0.00037038,-0.00000026,0.00000052,-0.00034872,0.0
 0000016,0.00005520,-0.00016442,0.00000035,0.00005850,0.00003382,-0.000
 00003,0.00007678,-0.00005661,-0.00000005,0.00001648,-0.00002971,0.0000
 0003,0.01436156,-0.02232373,-0.00003910,0.00027060,0.00151095,-0.00000
 129,-0.04984801,-0.01207906,-0.00002271,-0.00084113,-0.01085644,-0.000
 01269,-0.07568163,-0.09569973,-0.00006285,0.00066317,-0.00135148,0.000
 00142,-0.00253310,-0.00036890,-0.00000472,0.03620774,0.01956997,0.0000
 0758,0.00160959,-0.00325734,-0.00000909,-0.00009518,0.00035957,0.00000
 198,-0.00226392,0.00274725,0.00001097,0.00148479,0.00036427,0.00000168
 ,0.00230603,0.00910594,0.00000884,0.08142321,0.12876790,-0.00000316,0.
 00000066,0.00022783,0.00000328,-0.00000709,-0.00029291,-0.00001293,0.0
 0000148,-0.00033104,0.00000206,0.00000034,0.00010778,-0.00000071,-0.00
 000059,0.00019626,0.00000269,-0.00000089,0.00004259,0.00000010,-0.0000
 0039,-0.00009071,-0.00000010,0.00000008,-0.00022161,0.00000024,-0.0000
 0012,-0.00002029,0.00000002,-0.00000007,-0.00006648,0.00003453,-0.0000
 4233,0.00765140,-0.00000049,0.00000210,-0.00093101,-0.00003887,-0.0000
 5025,0.01882564,-0.00000589,-0.00000794,0.00246760,-0.00028903,-0.0000
 5973,-0.05458414,-0.00000459,-0.00001099,0.00018080,-0.00000088,0.0000
 0079,-0.00211810,-0.00004578,0.00001779,0.01627888,0.00001422,0.000013
 03,0.00422811,-0.00000023,-0.00000021,0.00008615,0.00000032,0.00000378
 ,-0.00381161,-0.00000020,0.00000018,-0.00056662,-0.00000131,0.00002104
 ,-0.00317540,0.00036400,0.00013674,0.01914736,0.00146211,0.00041724,-0
 .00000036,-0.00269432,0.00602785,-0.00000318,0.01551539,0.02445635,-0.
 00001643,0.00128141,0.00188471,-0.00000108,-0.00033378,-0.00030736,0.0
 0000029,-0.00046573,-0.00001738,0.00000024,-0.00019392,0.00031424,-0.0
 0000031,-0.00200197,-0.00087253,0.00000101,0.00000528,-0.00001505,0.00
 000001,-0.00006261,-0.00009011,0.00000008,-0.18208976,-0.22141537,0.00
 015312,-0.00402689,-0.00124107,0.00000165,0.00190983,0.00021174,-0.000
 00569,0.00004722,-0.00013129,0.00000070,-0.00823274,-0.00002757,-0.000
 00030,0.00025754,0.00032097,-0.00000132,0.00019869,0.00010726,0.000002
 61,0.00171669,-0.00010769,0.00000641,-0.00056173,0.00009808,-0.0000017
 5,0.00006441,0.00000684,0.00000037,-0.00004366,-0.00000025,-0.00000115
 ,0.00015446,-0.00005514,0.00000022,-0.00434245,-0.02507656,0.00001191,
 0.00521218,-0.00304043,-0.00001730,0.17722436,-0.00039604,-0.00059014,
 0.00000142,0.00305647,-0.00110269,0.00000212,-0.00607771,-0.02982824,0
 .00001938,-0.00197177,0.00265878,0.00000369,-0.00034535,-0.00117498,0.
 00000052,-0.00012288,0.00077053,-0.00000038,0.00017630,-0.00009113,-0.
 00000016,0.00086100,-0.00037598,-0.00000052,-0.00015959,0.00016966,-0.
 00000021,-0.00000764,0.00006944,-0.00000026,-0.20953387,-0.39847612,0.
 00029161,0.00274772,0.00541646,-0.00000735,-0.00400019,0.00212204,0.00
 000822,0.00306699,-0.00150894,-0.00000185,0.01225994,0.00366320,0.0000
 1396,-0.00234117,0.00314968,0.00000385,-0.00043661,-0.00018489,-0.0000
 0460,-0.00210628,-0.00041079,-0.00000293,-0.00099349,-0.00243634,-0.00
 000134,0.00000777,-0.00007872,-0.00000017,0.00009771,-0.00004062,0.000
 00258,-0.00034100,0.00000553,-0.00000170,-0.00127406,0.00545652,-0.000
 01073,-0.01071881,-0.01269483,-0.00001739,0.21855253,0.42551257,0.0000
 0009,0.00000240,0.00055549,0.00000084,0.00000485,0.00354201,0.00001457
 ,0.00001291,0.00492710,-0.00000080,0.00000214,-0.00127570,0.00000024,-
 0.00000173,-0.00063040,0.00000149,0.00000058,-0.00001270,-0.00000035,0
 .00000022,-0.00006979,0.00000022,-0.00000032,0.00018649,0.00000005,0.0
 0000002,0.00011444,0.00000004,-0.00000001,-0.00000751,0.00014121,0.000
 28790,-0.00705570,-0.00000145,-0.00000052,0.00413387,0.00000651,-0.000
 01082,-0.00017250,-0.00001240,0.00000612,-0.00043131,0.00000115,0.0000
 1362,0.00046982,0.00000432,-0.00000847,0.00046745,0.00000024,0.0000004
 5,-0.00061691,-0.00000347,-0.00000265,-0.00070815,0.00000292,0.0000014
 6,0.00062288,-0.00000012,-0.00000001,-0.00012670,0.00000009,-0.0000004
 6,0.00033416,-0.00000010,0.00000033,-0.00015278,-0.00001527,0.00001249
 ,-0.00486082,-0.00001024,-0.00002275,-0.00323048,-0.00012975,-0.000297
 76,0.00399774\\0.00233880,0.00560412,-0.00000219,0.00793390,0.01110352
 ,-0.00000595,0.01402978,-0.00029043,-0.00000599,-0.00174357,0.00299166
 ,0.00000023,-0.00021945,-0.00320787,0.00000145,0.00258911,0.00261917,-
 0.00000136,-0.00004102,0.00073850,-0.00000146,0.00034174,0.00007558,-0
 .00000042,0.00004192,0.00025447,-0.00000013,0.00021510,0.00028312,-0.0
 0000047,-0.02085648,0.01326962,0.00003569,0.00448460,0.01131109,-0.000
 01671,-0.01220908,0.00729999,-0.00001296,0.01137180,-0.00084285,0.0000
 1151,0.02101925,0.00405551,-0.00000662,-0.00424954,0.01166346,-0.00000
 134,0.00023206,-0.00000581,0.00000472,-0.00460910,0.00048394,0.0000109
 9,-0.00740187,-0.00098008,-0.00000332,-0.00025988,0.00005169,-0.000000
 97,-0.00040819,-0.00002841,-0.00000389,-0.00074559,-0.00020145,0.00000
 081,-0.01289583,-0.00861213,0.00000605,-0.01111005,-0.01682215,-0.0000
 0884,0.01215157,-0.04081426,0.00000118\\\@
 The archive entry for this job was punched.


 IT TAKES GREATER CHARACTER TO CARRY OFF GOOD FORTUNE THAN BAD.
                     FRENCH PROVERB.
 Job cpu time:       0 days  2 hours 50 minutes 59.6 seconds.
 Elapsed time:       0 days  0 hours 17 minutes 41.9 seconds.
 File lengths (MBytes):  RWF=   1380 Int=      0 D2E=      0 Chk=     48 Scr=      8
 Normal termination of Gaussian 16 at Mon Jul 13 21:59:55 2020.
