 Entering Gaussian System, Link 0=g16
 Initial command:
 /gpfs/loomis/apps/avx/software/Gaussian/16-C.01_AVX/g16/l1.exe "/home/fas/batista/pev4/scratch60/gauss-scratch/Gau-94177.inp" -scrdir="/home/fas/batista/pev4/scratch60/gauss-scratch/"
 Entering Link 1 = /gpfs/loomis/apps/avx/software/Gaussian/16-C.01_AVX/g16/l1.exe PID=     94178.
  
 Copyright (c) 1988-2019, Gaussian, Inc.  All Rights Reserved.
  
 This is part of the Gaussian(R) 16 program.  It is based on
 the Gaussian(R) 09 system (copyright 2009, Gaussian, Inc.),
 the Gaussian(R) 03 system (copyright 2003, Gaussian, Inc.),
 the Gaussian(R) 98 system (copyright 1998, Gaussian, Inc.),
 the Gaussian(R) 94 system (copyright 1995, Gaussian, Inc.),
 the Gaussian 92(TM) system (copyright 1992, Gaussian, Inc.),
 the Gaussian 90(TM) system (copyright 1990, Gaussian, Inc.),
 the Gaussian 88(TM) system (copyright 1988, Gaussian, Inc.),
 the Gaussian 86(TM) system (copyright 1986, Carnegie Mellon
 University), and the Gaussian 82(TM) system (copyright 1983,
 Carnegie Mellon University). Gaussian is a federally registered
 trademark of Gaussian, Inc.
  
 This software contains proprietary and confidential information,
 including trade secrets, belonging to Gaussian, Inc.
  
 This software is provided under written license and may be
 used, copied, transmitted, or stored only in accord with that
 written license.
  
 The following legend is applicable only to US Government
 contracts under FAR:
  
                    RESTRICTED RIGHTS LEGEND
  
 Use, reproduction and disclosure by the US Government is
 subject to restrictions as set forth in subparagraphs (a)
 and (c) of the Commercial Computer Software - Restricted
 Rights clause in FAR 52.227-19.
  
 Gaussian, Inc.
 340 Quinnipiac St., Bldg. 40, Wallingford CT 06492
  
  
 ---------------------------------------------------------------
 Warning -- This program may not be used in any manner that
 competes with the business of Gaussian, Inc. or will provide
 assistance to any competitor of Gaussian, Inc.  The licensee
 of this program is prohibited from giving any competitor of
 Gaussian, Inc. access to this program.  By using this program,
 the user acknowledges that Gaussian, Inc. is engaged in the
 business of creating and licensing software in the field of
 computational chemistry and represents and warrants to the
 licensee that it is not a competitor of Gaussian, Inc. and that
 it will not use this program in any manner prohibited above.
 ---------------------------------------------------------------
  

 Cite this work as:
 Gaussian 16, Revision C.01,
 M. J. Frisch, G. W. Trucks, H. B. Schlegel, G. E. Scuseria, 
 M. A. Robb, J. R. Cheeseman, G. Scalmani, V. Barone, 
 G. A. Petersson, H. Nakatsuji, X. Li, M. Caricato, A. V. Marenich, 
 J. Bloino, B. G. Janesko, R. Gomperts, B. Mennucci, H. P. Hratchian, 
 J. V. Ortiz, A. F. Izmaylov, J. L. Sonnenberg, D. Williams-Young, 
 F. Ding, F. Lipparini, F. Egidi, J. Goings, B. Peng, A. Petrone, 
 T. Henderson, D. Ranasinghe, V. G. Zakrzewski, J. Gao, N. Rega, 
 G. Zheng, W. Liang, M. Hada, M. Ehara, K. Toyota, R. Fukuda, 
 J. Hasegawa, M. Ishida, T. Nakajima, Y. Honda, O. Kitao, H. Nakai, 
 T. Vreven, K. Throssell, J. A. Montgomery, Jr., J. E. Peralta, 
 F. Ogliaro, M. J. Bearpark, J. J. Heyd, E. N. Brothers, K. N. Kudin, 
 V. N. Staroverov, T. A. Keith, R. Kobayashi, J. Normand, 
 K. Raghavachari, A. P. Rendell, J. C. Burant, S. S. Iyengar, 
 J. Tomasi, M. Cossi, J. M. Millam, M. Klene, C. Adamo, R. Cammi, 
 J. W. Ochterski, R. L. Martin, K. Morokuma, O. Farkas, 
 J. B. Foresman, and D. J. Fox, Gaussian, Inc., Wallingford CT, 2019.
 
 ******************************************
 Gaussian 16:  ES64L-G16RevC.01  3-Jul-2019
                13-Jul-2020 
 ******************************************
 %chk=config_7_1.chk
 %mem=58GB
 %nprocshared=10
 Will use up to   10 processors via shared memory.
 ----------------------------------------------------------------------
 #p opt=addgic freq td wb97xd/cc-pvdz nosymm int=ultrafine scrf=(solven
 t=CarbonTetraChloride)
 ----------------------------------------------------------------------
 1/18=20,19=15,26=6,38=1,145=903/1,3;
 2/9=110,12=2,15=1,17=6,18=5,40=1/2;
 3/5=16,11=9,25=1,30=1,70=2201,71=1,72=11,74=-58,75=-5/1,2,3,8;
 4//1;
 5/5=2,38=5,53=11/2;
 8/6=1,10=1/1;
 9/15=2,42=1,70=2/14;
 10/5=4,31=1/2;
 6/7=2,8=2,9=2,10=2/1;
 7/12=6,13=5,30=1/1,2,3,16;
 1/18=20,19=15,26=6,145=903/3(2);
 2/9=110,15=1/2;
 99//99;
 2/9=110,15=1/2;
 3/5=16,11=9,25=1,30=1,70=2205,71=1,72=11,74=-58,75=-5/1,2,3,8;
 4/5=5,16=3,69=1/1;
 5/5=2,38=5,53=11/2;
 8/6=1,10=1/1;
 9/15=2,42=1,49=4,70=2/14;
 10/5=4,31=1/2;
 7/12=6,13=5,30=1/1,2,3,16;
 1/18=20,19=15,26=6,145=903/3(-8);
 2/9=110,15=1/2;
 6/7=2,8=2,9=2,10=2/1;
 99/9=10/99;
 Leave Link    1 at Mon Jul 13 14:36:52 2020, MaxMem=  7784628224 cpu:               4.2 elap:               0.5
 (Enter /gpfs/loomis/apps/avx/software/Gaussian/16-C.01_AVX/g16/l101.exe)
 ------------------------------------------------
 NM 2D-scan of HBT TD-WB97XD pVDZ in CTC Relaxed.
 ------------------------------------------------
 Symbolic Z-matrix:
 Charge =  0 Multiplicity = 1
 C                     1.76291  -3.27322  -0.00003 
 C                     1.00243  -2.09874  -0.00002 
 C                     1.65335  -0.83297  -0.00002 
 C                     3.06285  -0.73979  -0.00002 
 C                     3.80211  -1.91127  -0.00002 
 C                     3.16175  -3.16665  -0.00003 
 H                     1.28442  -4.25783  -0.00003 
 H                     3.53469   0.24784  -0.00001 
 H                     4.89488  -1.86305  -0.00002 
 H                     3.76486  -4.07869  -0.00003 
 N                     0.82363   0.22287  -0.00001 
 S                    -0.75465  -1.86223  -0.00002 
 C                    -1.42806   0.99439  0. 
 C                    -2.83395   0.90383  -0.00002 
 C                    -0.85672   2.37777   0.00003 
 C                    -3.64289   2.05724   0.00002 
 H                    -3.30918  -0.08274  -0.00005 
 C                    -1.71215   3.50556   0.00007 
 C                    -3.09557   3.35693   0.00007 
 H                    -4.72935   1.93383   0.00001 
 H                    -1.22586   4.48569   0.00009 
 H                    -3.75002   4.2315    0.0001 
 C                    -0.49633  -0.08951  -0.00001 
 O                     0.41673   2.58222   0.00002 
 H                     0.89689   1.48029   0. 
 
 Add virtual bond connecting atoms H25        and N11        Dist= 2.38D+00.
 Add virtual bond connecting atoms H25        and O24        Dist= 2.27D+00.
 Initializing the GIC definitions file.
 Number of initial coordinates =   142
 Number of input entries/lines =    52
 Number of additional coordinates =     2
 Number of removed coordinates =     0
 Number of frozen coordinates =     2
 Number of final active and frozen coordinates =   144
 ITRead=  0  0  0  0  0  0  0  0  0  0  0  0  0  0  0  0  0  0  0  0
 ITRead=  0  0  0  0  0
 MicOpt= -1 -1 -1 -1 -1 -1 -1 -1 -1 -1 -1 -1 -1 -1 -1 -1 -1 -1 -1 -1
 MicOpt= -1 -1 -1 -1 -1
 NAtoms=     25 NQM=       25 NQMF=       0 NMMI=      0 NMMIF=      0
                NMic=       0 NMicF=      0.
                    Isotopes and Nuclear Properties:
 (Nuclear quadrupole moments (NQMom) in fm**2, nuclear magnetic moments (NMagM)
  in nuclear magnetons)

  Atom         1           2           3           4           5           6           7           8           9          10
 IAtWgt=          12          12          12          12          12          12           1           1           1           1
 AtmWgt=  12.0000000  12.0000000  12.0000000  12.0000000  12.0000000  12.0000000   1.0078250   1.0078250   1.0078250   1.0078250
 NucSpn=           0           0           0           0           0           0           1           1           1           1
 AtZEff=  -0.0000000  -0.0000000  -0.0000000  -0.0000000  -0.0000000  -0.0000000  -0.0000000  -0.0000000  -0.0000000  -0.0000000
 NQMom=    0.0000000   0.0000000   0.0000000   0.0000000   0.0000000   0.0000000   0.0000000   0.0000000   0.0000000   0.0000000
 NMagM=    0.0000000   0.0000000   0.0000000   0.0000000   0.0000000   0.0000000   2.7928460   2.7928460   2.7928460   2.7928460
 AtZNuc=   6.0000000   6.0000000   6.0000000   6.0000000   6.0000000   6.0000000   1.0000000   1.0000000   1.0000000   1.0000000

  Atom        11          12          13          14          15          16          17          18          19          20
 IAtWgt=          14          32          12          12          12          12           1          12          12           1
 AtmWgt=  14.0030740  31.9720718  12.0000000  12.0000000  12.0000000  12.0000000   1.0078250  12.0000000  12.0000000   1.0078250
 NucSpn=           2           0           0           0           0           0           1           0           0           1
 AtZEff=  -0.0000000  -0.0000000  -0.0000000  -0.0000000  -0.0000000  -0.0000000  -0.0000000  -0.0000000  -0.0000000  -0.0000000
 NQMom=    2.0440000   0.0000000   0.0000000   0.0000000   0.0000000   0.0000000   0.0000000   0.0000000   0.0000000   0.0000000
 NMagM=    0.4037610   0.0000000   0.0000000   0.0000000   0.0000000   0.0000000   2.7928460   0.0000000   0.0000000   2.7928460
 AtZNuc=   7.0000000  16.0000000   6.0000000   6.0000000   6.0000000   6.0000000   1.0000000   6.0000000   6.0000000   1.0000000

  Atom        21          22          23          24          25
 IAtWgt=           1           1          12          16           1
 AtmWgt=   1.0078250   1.0078250  12.0000000  15.9949146   1.0078250
 NucSpn=           1           1           0           0           1
 AtZEff=  -0.0000000  -0.0000000  -0.0000000  -0.0000000  -0.0000000
 NQMom=    0.0000000   0.0000000   0.0000000   0.0000000   0.0000000
 NMagM=    2.7928460   2.7928460   0.0000000   0.0000000   2.7928460
 AtZNuc=   1.0000000   1.0000000   6.0000000   8.0000000   1.0000000
 Leave Link  101 at Mon Jul 13 14:36:56 2020, MaxMem=  7784628224 cpu:              33.8 elap:               3.4
 (Enter /gpfs/loomis/apps/avx/software/Gaussian/16-C.01_AVX/g16/l103.exe)

 GradGradGradGradGradGradGradGradGradGradGradGradGradGradGradGradGradGrad
 Berny optimization.
 Initialization pass.
                           ----------------------------
                           !    Initial Parameters    !
                           ! (Angstroms and Degrees)  !
 --------------------------                            --------------------------
 ! Name  Definition              Value          Derivative Info.                !
 --------------------------------------------------------------------------------
 ! R1    R(1,2)                  1.3992         estimate D2E/DX2                !
 ! R2    R(1,6)                  1.4029         estimate D2E/DX2                !
 ! R3    R(1,7)                  1.0947         estimate D2E/DX2                !
 ! R4    R(2,3)                  1.4233         estimate D2E/DX2                !
 ! R5    R(2,12)                 1.7729         estimate D2E/DX2                !
 ! R6    R(3,4)                  1.4126         estimate D2E/DX2                !
 ! R7    R(3,11)                 1.3428         estimate D2E/DX2                !
 ! R8    R(4,5)                  1.3852         estimate D2E/DX2                !
 ! R9    R(4,8)                  1.0946         estimate D2E/DX2                !
 ! R10   R(5,6)                  1.4093         estimate D2E/DX2                !
 ! R11   R(5,9)                  1.0938         estimate D2E/DX2                !
 ! R12   R(6,10)                 1.0934         estimate D2E/DX2                !
 ! R13   R(11,23)                1.3564         estimate D2E/DX2                !
 ! R14   R(11,25)                1.2596         estimate D2E/DX2                !
 ! R15   R(12,23)                1.7914         estimate D2E/DX2                !
 ! R16   R(13,14)                1.4088         estimate D2E/DX2                !
 ! R17   R(13,15)                1.4967         estimate D2E/DX2                !
 ! R18   R(13,23)                1.4293         estimate D2E/DX2                !
 ! R19   R(14,16)                1.4088         estimate D2E/DX2                !
 ! R20   R(14,17)                1.0951         estimate D2E/DX2                !
 ! R21   R(15,18)                1.4155         estimate D2E/DX2                !
 ! R22   R(15,24)                1.2898         estimate D2E/DX2                !
 ! R23   R(16,19)                1.4102         estimate D2E/DX2                !
 ! R24   R(16,20)                1.0934         estimate D2E/DX2                !
 ! R25   R(18,19)                1.3914         estimate D2E/DX2                !
 ! R26   R(18,21)                1.0941         estimate D2E/DX2                !
 ! R27   R(19,22)                1.0923         estimate D2E/DX2                !
 ! R28   R(24,25)                1.202          estimate D2E/DX2                !
 ! A1    A(2,1,6)              118.5662         estimate D2E/DX2                !
 ! A2    A(2,1,7)              121.1589         estimate D2E/DX2                !
 ! A3    A(6,1,7)              120.2749         estimate D2E/DX2                !
 ! A4    A(1,2,3)              119.8626         estimate D2E/DX2                !
 ! A5    A(1,2,12)             130.5894         estimate D2E/DX2                !
 ! A6    A(3,2,12)             109.548          estimate D2E/DX2                !
 ! A7    A(2,3,4)              120.9965         estimate D2E/DX2                !
 ! A8    A(2,3,11)             114.6239         estimate D2E/DX2                !
 ! A9    A(4,3,11)             124.3795         estimate D2E/DX2                !
 ! A10   A(3,4,5)              118.4718         estimate D2E/DX2                !
 ! A11   A(3,4,8)              119.3182         estimate D2E/DX2                !
 ! A12   A(5,4,8)              122.21           estimate D2E/DX2                !
 ! A13   A(4,5,6)              120.72           estimate D2E/DX2                !
 ! A14   A(4,5,9)              119.7274         estimate D2E/DX2                !
 ! A15   A(6,5,9)              119.5526         estimate D2E/DX2                !
 ! A16   A(1,6,5)              121.3829         estimate D2E/DX2                !
 ! A17   A(1,6,10)             119.119          estimate D2E/DX2                !
 ! A18   A(5,6,10)             119.4981         estimate D2E/DX2                !
 ! A19   A(3,11,23)            114.8472         estimate D2E/DX2                !
 ! A20   A(3,11,25)            138.5037         estimate D2E/DX2                !
 ! A21   A(23,11,25)           106.6491         estimate D2E/DX2                !
 ! A22   A(2,12,23)             89.3757         estimate D2E/DX2                !
 ! A23   A(14,13,15)           116.1263         estimate D2E/DX2                !
 ! A24   A(14,13,23)           126.997          estimate D2E/DX2                !
 ! A25   A(15,13,23)           116.8766         estimate D2E/DX2                !
 ! A26   A(13,14,16)           121.3582         estimate D2E/DX2                !
 ! A27   A(13,14,17)           119.4056         estimate D2E/DX2                !
 ! A28   A(16,14,17)           119.2362         estimate D2E/DX2                !
 ! A29   A(13,15,18)           120.379          estimate D2E/DX2                !
 ! A30   A(13,15,24)           121.562          estimate D2E/DX2                !
 ! A31   A(18,15,24)           118.059          estimate D2E/DX2                !
 ! A32   A(14,16,19)           122.1194         estimate D2E/DX2                !
 ! A33   A(14,16,20)           118.5635         estimate D2E/DX2                !
 ! A34   A(19,16,20)           119.3171         estimate D2E/DX2                !
 ! A35   A(15,18,19)           121.0483         estimate D2E/DX2                !
 ! A36   A(15,18,21)           116.4315         estimate D2E/DX2                !
 ! A37   A(19,18,21)           122.5202         estimate D2E/DX2                !
 ! A38   A(16,19,18)           118.9688         estimate D2E/DX2                !
 ! A39   A(16,19,22)           120.3549         estimate D2E/DX2                !
 ! A40   A(18,19,22)           120.6763         estimate D2E/DX2                !
 ! A41   A(11,23,12)           111.6052         estimate D2E/DX2                !
 ! A42   A(11,23,13)           117.3681         estimate D2E/DX2                !
 ! A43   A(12,23,13)           131.0267         estimate D2E/DX2                !
 ! A44   A(15,24,25)           104.4239         estimate D2E/DX2                !
 ! A45   A(11,25,24)           153.1202         estimate D2E/DX2                !
 ! D1    D(6,1,2,3)              0.0            estimate D2E/DX2                !
 ! D2    D(6,1,2,12)          -179.9999         estimate D2E/DX2                !
 ! D3    D(7,1,2,3)            180.0            estimate D2E/DX2                !
 ! D4    D(7,1,2,12)             0.0            estimate D2E/DX2                !
 ! D5    D(2,1,6,5)              0.0            estimate D2E/DX2                !
 ! D6    D(2,1,6,10)           180.0            estimate D2E/DX2                !
 ! D7    D(7,1,6,5)           -179.9999         estimate D2E/DX2                !
 ! D8    D(7,1,6,10)             0.0001         estimate D2E/DX2                !
 ! D9    D(1,2,3,4)             -0.0001         estimate D2E/DX2                !
 ! D10   D(1,2,3,11)           179.9999         estimate D2E/DX2                !
 ! D11   D(12,2,3,4)           179.9999         estimate D2E/DX2                !
 ! D12   D(12,2,3,11)           -0.0001         estimate D2E/DX2                !
 ! D13   D(1,2,12,23)         -180.0            estimate D2E/DX2                !
 ! D14   D(3,2,12,23)            0.0            estimate D2E/DX2                !
 ! D15   D(2,3,4,5)              0.0001         estimate D2E/DX2                !
 ! D16   D(2,3,4,8)           -179.9999         estimate D2E/DX2                !
 ! D17   D(11,3,4,5)          -179.9999         estimate D2E/DX2                !
 ! D18   D(11,3,4,8)             0.0            estimate D2E/DX2                !
 ! D19   D(2,3,11,23)            0.0001         estimate D2E/DX2                !
 ! D20   D(2,3,11,25)          179.9991         estimate D2E/DX2                !
 ! D21   D(4,3,11,23)         -179.9998         estimate D2E/DX2                !
 ! D22   D(4,3,11,25)           -0.0009         estimate D2E/DX2                !
 ! D23   D(3,4,5,6)              0.0            estimate D2E/DX2                !
 ! D24   D(3,4,5,9)            180.0            estimate D2E/DX2                !
 ! D25   D(8,4,5,6)           -180.0            estimate D2E/DX2                !
 ! D26   D(8,4,5,9)              0.0            estimate D2E/DX2                !
 ! D27   D(4,5,6,1)             -0.0001         estimate D2E/DX2                !
 ! D28   D(4,5,6,10)           180.0            estimate D2E/DX2                !
 ! D29   D(9,5,6,1)            180.0            estimate D2E/DX2                !
 ! D30   D(9,5,6,10)             0.0            estimate D2E/DX2                !
 ! D31   D(3,11,23,12)          -0.0001         estimate D2E/DX2                !
 ! D32   D(3,11,23,13)         179.9997         estimate D2E/DX2                !
 ! D33   D(25,11,23,12)       -179.9994         estimate D2E/DX2                !
 ! D34   D(25,11,23,13)          0.0004         estimate D2E/DX2                !
 ! D35   D(3,11,25,24)        -179.9985         estimate D2E/DX2                !
 ! D36   D(23,11,25,24)          0.0005         estimate D2E/DX2                !
 ! D37   D(2,12,23,11)           0.0            estimate D2E/DX2                !
 ! D38   D(2,12,23,13)        -179.9997         estimate D2E/DX2                !
 ! D39   D(15,13,14,16)         -0.001          estimate D2E/DX2                !
 ! D40   D(15,13,14,17)        179.9993         estimate D2E/DX2                !
 ! D41   D(23,13,14,16)        179.9989         estimate D2E/DX2                !
 ! D42   D(23,13,14,17)         -0.0008         estimate D2E/DX2                !
 ! D43   D(14,13,15,18)          0.0011         estimate D2E/DX2                !
 ! D44   D(14,13,15,24)       -179.9989         estimate D2E/DX2                !
 ! D45   D(23,13,15,18)       -179.9988         estimate D2E/DX2                !
 ! D46   D(23,13,15,24)          0.0012         estimate D2E/DX2                !
 ! D47   D(14,13,23,11)        179.9991         estimate D2E/DX2                !
 ! D48   D(14,13,23,12)         -0.0012         estimate D2E/DX2                !
 ! D49   D(15,13,23,11)         -0.0011         estimate D2E/DX2                !
 ! D50   D(15,13,23,12)        179.9987         estimate D2E/DX2                !
 ! D51   D(13,14,16,19)          0.0002         estimate D2E/DX2                !
 ! D52   D(13,14,16,20)       -179.9997         estimate D2E/DX2                !
 ! D53   D(17,14,16,19)        179.9999         estimate D2E/DX2                !
 ! D54   D(17,14,16,20)          0.0            estimate D2E/DX2                !
 ! D55   D(13,15,18,19)         -0.0004         estimate D2E/DX2                !
 ! D56   D(13,15,18,21)        179.9997         estimate D2E/DX2                !
 ! D57   D(24,15,18,19)        179.9996         estimate D2E/DX2                !
 ! D58   D(24,15,18,21)         -0.0003         estimate D2E/DX2                !
 ! D59   D(13,15,24,25)         -0.0005         estimate D2E/DX2                !
 ! D60   D(18,15,24,25)        179.9995         estimate D2E/DX2                !
 ! D61   D(14,16,19,18)          0.0005         estimate D2E/DX2                !
 ! D62   D(14,16,19,22)       -179.9997         estimate D2E/DX2                !
 ! D63   D(20,16,19,18)       -179.9996         estimate D2E/DX2                !
 ! D64   D(20,16,19,22)          0.0002         estimate D2E/DX2                !
 ! D65   D(15,18,19,16)         -0.0003         estimate D2E/DX2                !
 ! D66   D(15,18,19,22)        179.9998         estimate D2E/DX2                !
 ! D67   D(21,18,19,16)        179.9995         estimate D2E/DX2                !
 ! D68   D(21,18,19,22)         -0.0003         estimate D2E/DX2                !
 ! D69   D(15,24,25,11)         -0.0004         estimate D2E/DX2                !
 ! Qtot  GIC-1                  10.0            Frozen                          !
 ! Ptot  GIC-2                -140.0            Frozen                          !
 --------------------------------------------------------------------------------
 NOTE: GIC-type coordinates are in arbitrary units.
 Trust Radius=3.00D-01 FncErr=5.00D-06 GrdErr=5.00D-06 EigMax=2.50D+02 EigMin=1.00D-04
 Number of steps in this run=    150 maximum allowed number of steps=    150.
 GradGradGradGradGradGradGradGradGradGradGradGradGradGradGradGradGradGrad

 Leave Link  103 at Mon Jul 13 14:36:56 2020, MaxMem=  7784628224 cpu:               0.1 elap:               0.0
 (Enter /gpfs/loomis/apps/avx/software/Gaussian/16-C.01_AVX/g16/l202.exe)
                          Input orientation:                          
 ---------------------------------------------------------------------
 Center     Atomic      Atomic             Coordinates (Angstroms)
 Number     Number       Type             X           Y           Z
 ---------------------------------------------------------------------
      1          6           0        1.762908   -3.273223   -0.000025
      2          6           0        1.002432   -2.098743   -0.000021
      3          6           0        1.653352   -0.832972   -0.000018
      4          6           0        3.062853   -0.739793   -0.000017
      5          6           0        3.802112   -1.911268   -0.000022
      6          6           0        3.161746   -3.166648   -0.000026
      7          1           0        1.284425   -4.257832   -0.000027
      8          1           0        3.534693    0.247840   -0.000014
      9          1           0        4.894879   -1.863049   -0.000021
     10          1           0        3.764862   -4.078692   -0.000030
     11          7           0        0.823628    0.222871   -0.000015
     12         16           0       -0.754646   -1.862228   -0.000016
     13          6           0       -1.428058    0.994390   -0.000002
     14          6           0       -2.833954    0.903829   -0.000016
     15          6           0       -0.856721    2.377767    0.000029
     16          6           0       -3.642893    2.057236    0.000020
     17          1           0       -3.309183   -0.082744   -0.000050
     18          6           0       -1.712149    3.505559    0.000067
     19          6           0       -3.095569    3.356933    0.000066
     20          1           0       -4.729345    1.933829    0.000013
     21          1           0       -1.225859    4.485691    0.000094
     22          1           0       -3.750024    4.231496    0.000098
     23          6           0       -0.496330   -0.089508   -0.000012
     24          8           0        0.416727    2.582224    0.000024
     25          1           0        0.896893    1.480294    0.000002
 ---------------------------------------------------------------------
                    Distance matrix (angstroms):
                    1          2          3          4          5
     1  C    0.000000
     2  C    1.399188   0.000000
     3  C    2.442710   1.423332   0.000000
     4  C    2.847477   2.468214   1.412578   0.000000
     5  C    2.452199   2.805950   2.404141   1.385228   0.000000
     6  C    1.402892   2.408953   2.778722   2.428869   1.409272
     7  H    1.094715   2.177426   3.444674   3.942005   3.441673
     8  H    3.941714   3.452361   2.169700   1.094555   2.175605
     9  H    3.434798   3.899576   3.401258   2.148959   1.093830
    10  H    2.157916   3.398708   3.872102   3.411900   2.167744
    11  N    3.620072   2.328489   1.342849   2.437386   3.664139
    12  S    2.885998   1.772925   2.618744   3.979090   4.557022
    13  C    5.328676   3.933797   3.582504   4.814112   5.983104
    14  C    6.211192   4.871684   4.811693   6.121587   7.208478
    15  C    6.228655   4.847225   4.075451   5.008217   6.332499
    16  C    7.591869   6.233074   6.033532   7.265700   8.436654
    17  H    5.992100   4.759651   5.018923   6.405822   7.342617
    18  C    7.617606   6.227131   5.490851   6.389340   7.729754
    19  C    8.219718   6.823344   6.333052   7.396575   8.679398
    20  H    8.322424   7.008203   6.956580   8.238119   9.357913
    21  H    8.314654   6.951263   6.047976   6.760084   8.136435
    22  H    9.311994   7.915667   7.405762   8.433802   9.734902
    23  C    3.903870   2.506654   2.274614   3.618101   4.668556
    24  O    6.008200   4.717469   3.632190   4.247091   5.626038
    25  H    4.831760   3.580593   2.433809   3.101640   4.465758
                    6          7          8          9         10
     6  C    0.000000
     7  H    2.171409   0.000000
     8  H    3.434795   5.036347   0.000000
     9  H    2.168668   4.332478   2.511167   0.000000
    10  H    1.093423   2.486898   4.332650   2.487169   0.000000
    11  N    4.117721   4.504335   2.711180   4.574510   5.210978
    12  S    4.127909   3.145906   4.780252   5.649525   5.033753
    13  C    6.195203   5.911294   5.018589   6.938623   7.259654
    14  C    7.246875   6.603317   6.402342   8.209170   8.268609
    15  C    6.847526   6.972494   4.880687   7.146007   7.940081
    16  C    8.578582   8.009903   7.402138   9.394796   9.618963
    17  H    7.168220   6.207463   6.851855   8.395006   8.124637
    18  C    8.262760   8.321641   6.175928   8.513212   9.355133
    19  C    9.039419   8.784588   7.323034   9.544395  10.117017
    20  H    9.395966   8.631459   8.434269  10.346109  10.406823
    21  H    8.820961   9.096742   6.373557   8.818726   9.912414
    22  H   10.124480   9.869872   8.302808  10.577232  11.204140
    23  C    4.780199   4.532771   4.045114   5.675437   5.837067
    24  O    6.370609   6.894873   3.895005   6.309858   7.455053
    25  H    5.169490   5.751197   2.911517   5.211702   6.255204
                   11         12         13         14         15
    11  N    0.000000
    12  S    2.615068   0.000000
    13  C    2.380196   2.934919   0.000000
    14  C    3.720432   3.460433   1.408810   0.000000
    15  C    2.732609   4.241223   1.496716   2.466160   0.000000
    16  C    4.828531   4.868693   2.456651   1.408804   2.804549
    17  H    4.144096   3.113234   2.167682   1.095065   3.474001
    18  C    4.148037   5.452518   2.527188   2.833275   1.415512
    19  C    5.018212   5.720102   2.891747   2.467015   2.443605
    20  H    5.810585   5.496206   3.432352   2.157176   3.897987
    21  H    4.729908   6.365384   3.497151   3.926283   2.140001
    22  H    6.081725   6.790123   3.983765   3.451457   3.436207
    23  C    1.356418   1.791441   1.429319   2.539922   2.493457
    24  O    2.394184   4.596223   2.434019   3.658406   1.289756
    25  H    1.259556   3.728274   2.375184   3.775120   1.969928
                   16         17         18         19         20
    16  C    0.000000
    17  H    2.165842   0.000000
    18  C    2.413589   3.927650   0.000000
    19  C    1.410240   3.446303   1.391381   0.000000
    20  H    1.093439   2.466460   3.402030   2.166668   0.000000
    21  H    3.426288   5.021039   1.094137   2.184012   4.334330
    22  H    2.176898   4.336704   2.163312   1.092324   2.497668
    23  C    3.809117   2.812861   3.795092   4.316712   4.691728
    24  O    4.093425   4.580879   2.320487   3.596720   5.186760
    25  H    4.576300   4.487110   3.302847   4.411522   5.644488
                   21         22         23         24         25
    21  H    0.000000
    22  H    2.536932   0.000000
    23  C    4.632996   5.409030   0.000000
    24  O    2.514214   4.481284   2.823442   0.000000
    25  H    3.679468   5.400273   2.098892   1.202002   0.000000
 Symmetry turned off by external request.
 Stoichiometry    C13H9NOS
 Framework group  C1[X(C13H9NOS)]
 Deg. of freedom    69
 Full point group                 C1      NOp   1
 Rotational constants (GHZ):           1.3427711           0.2852393           0.2352633
 Leave Link  202 at Mon Jul 13 14:36:56 2020, MaxMem=  7784628224 cpu:               0.3 elap:               0.1
 (Enter /gpfs/loomis/apps/avx/software/Gaussian/16-C.01_AVX/g16/l301.exe)
 Standard basis: CC-pVDZ (5D, 7F)
 Ernie: Thresh=  0.10000D-02 Tol=  0.10000D-05 Strict=F.
 Ernie:  40 primitive shells out of 425 were deleted.
   273 basis functions,   629 primitive gaussians,   289 cartesian basis functions
    59 alpha electrons       59 beta electrons
       nuclear repulsion energy      1093.9610403186 Hartrees.
 IExCor= 4639 DFT=T Ex+Corr=wB97XD ExCW=0 ScaHFX=  1.000000
 ScaDFX=  1.000000  1.000000  1.000000  1.000000 ScalE2=  1.000000  1.000000
 IRadAn=      5 IRanWt=     -1 IRanGd=            0 ICorTp=0 IEmpDi=121
 HFx  wShort=  0.000000 wLong=  0.200000 cFull=  0.222036 cShort=  0.000000 cLong=  0.777964
 DFx  wShort=  0.000000 wLong=  0.200000 cFull=  0.000000 cShort=  0.000000 cLong=  1.000000
 NAtoms=   25 NActive=   25 NUniq=   25 SFac= 1.00D+00 NAtFMM=   60 NAOKFM=F Big=F
 Integral buffers will be    131072 words long.
 Raffenetti 1 integral format.
 Two-electron integral symmetry is turned off.
 R6Disp:  Grimme-D2 Dispersion energy=       -0.0140392925 Hartrees.
 Nuclear repulsion after empirical dispersion term =     1093.9470010262 Hartrees.
 ------------------------------------------------------------------------------
 Polarizable Continuum Model (PCM)
 =================================
 Model                : PCM.
 Atomic radii         : UFF (Universal Force Field).
 Polarization charges : Total charges.
 Charge compensation  : None.
 Solution method      : On-the-fly selection.
 Cavity type          : Scaled VdW (van der Waals Surface) (Alpha=1.100).
 Cavity algorithm     : GePol (No added spheres)
                        Default sphere list used, NSphG=   25.
                        Lebedev-Laikov grids with approx.  5.0 points / Ang**2.
                        Smoothing algorithm: York/Karplus (Gamma=1.0000).
                        Polarization charges: spherical gaussians, with
                                              point-specific exponents (IZeta= 3).
                        Self-potential: point-specific (ISelfS= 7).
                        Self-field    : sphere-specific E.n sum rule (ISelfD= 2).
 1st derivatives      : Analytical E(r).r(x)/FMM algorithm (CHGder, D1EAlg=3).
                        Cavity 1st derivative terms included.
 Solvent              : CarbonTetraChloride, Eps=   2.228000 Eps(inf)=   2.131892
 ------------------------------------------------------------------------------
 GePol: Number of generator spheres                  =      25
 GePol: Total number of spheres                      =      25
 GePol: Number of exposed spheres                    =      25 (100.00%)
 GePol: Number of points                             =    2200
 GePol: Average weight of points                     =       0.13
 GePol: Minimum weight of points                     =   0.19D-10
 GePol: Maximum weight of points                     =    0.20577
 GePol: Number of points with low weight             =     131
 GePol: Fraction of low-weight points (<1% of avg)   =       5.95%
 GePol: Cavity surface area                          =    276.456 Ang**2
 GePol: Cavity volume                                =    295.183 Ang**3
 Leave Link  301 at Mon Jul 13 14:36:56 2020, MaxMem=  7784628224 cpu:               0.8 elap:               0.1
 (Enter /gpfs/loomis/apps/avx/software/Gaussian/16-C.01_AVX/g16/l302.exe)
 NPDir=0 NMtPBC=     1 NCelOv=     1 NCel=       1 NClECP=     1 NCelD=      1
         NCelK=      1 NCelE2=     1 NClLst=     1 CellRange=     0.0.
 One-electron integrals computed using PRISM.
 NBasis=   273 RedAO= T EigKep=  3.18D-04  NBF=   273
 NBsUse=   273 1.00D-06 EigRej= -1.00D+00 NBFU=   273
 Precomputing XC quadrature grid using
 IXCGrd= 4 IRadAn=           5 IRanWt=          -1 IRanGd=           0 AccXCQ= 0.00D+00.
 Generated NRdTot=       0 NPtTot=           0 NUsed=           0 NTot=          32
 NSgBfM=   288   288   288   288   288 MxSgAt=    25 MxSgA2=    25.
 Leave Link  302 at Mon Jul 13 14:36:56 2020, MaxMem=  7784628224 cpu:               2.7 elap:               0.4
 (Enter /gpfs/loomis/apps/avx/software/Gaussian/16-C.01_AVX/g16/l303.exe)
 DipDrv:  MaxL=1.
 Leave Link  303 at Mon Jul 13 14:36:56 2020, MaxMem=  7784628224 cpu:               0.4 elap:               0.1
 (Enter /gpfs/loomis/apps/avx/software/Gaussian/16-C.01_AVX/g16/l308.exe)
 Leave Link  308 at Mon Jul 13 14:36:57 2020, MaxMem=  7784628224 cpu:               0.5 elap:               0.1
 (Enter /gpfs/loomis/apps/avx/software/Gaussian/16-C.01_AVX/g16/l401.exe)
 ExpMin= 1.22D-01 ExpMax= 1.11D+05 ExpMxC= 1.07D+03 IAcc=3 IRadAn=         5 AccDes= 0.00D+00
 Harris functional with IExCor= 4639 and IRadAn=       5 diagonalized for initial guess.
 HarFok:  IExCor= 4639 AccDes= 0.00D+00 IRadAn=         5 IDoV= 1 UseB2=F ITyADJ=14
 ICtDFT=  3500011 ScaDFX=  1.000000  1.000000  1.000000  1.000000
 FoFCou: FMM=F IPFlag=           0 FMFlag=      100000 FMFlg1=           0
         NFxFlg=           0 DoJE=T BraDBF=F KetDBF=T FulRan=T
         wScrn=  0.000000 ICntrl=       500 IOpCl=  0 I1Cent=   200000004 NGrid=           0
         NMat0=    1 NMatS0=      1 NMatT0=    0 NMatD0=    1 NMtDS0=    0 NMtDT0=    0
 Symmetry not used in FoFCou.
 Harris En= -994.462409977853    
 JPrj=0 DoOrth=F DoCkMO=F.
 Leave Link  401 at Mon Jul 13 14:36:58 2020, MaxMem=  7784628224 cpu:              16.7 elap:               1.8
 (Enter /gpfs/loomis/apps/avx/software/Gaussian/16-C.01_AVX/g16/l502.exe)
 Two-electron integral symmetry not used.
 Closed shell SCF:
 Using DIIS extrapolation, IDIIS=  1040.
 NGot=  7784628224 LenX=  7784455381 LenY=  7784371419
 Requested convergence on RMS density matrix=1.00D-08 within 128 cycles.
 Requested convergence on MAX density matrix=1.00D-06.
 Requested convergence on             energy=1.00D-06.
 No special actions if energy rises.
 Fock matrices will be formed incrementally for  20 cycles.

 Cycle   1  Pass 1  IDiag  1:
 FoFJK:  IHMeth= 1 ICntrl=       0 DoSepK=T KAlg= 0 I1Cent=           0 FoldK=F
 IRaf=         1 NMat=       1 IRICut=       1 DoRegI=T DoRafI=F ISym2E= 0 IDoP0=0 IntGTp=1.
 FoFCou: FMM=F IPFlag=           0 FMFlag=      100000 FMFlg1=           0
         NFxFlg=           0 DoJE=T BraDBF=F KetDBF=F FulRan=T
         wScrn=  0.000000 ICntrl=       500 IOpCl=  0 I1Cent=           0 NGrid=           0
         NMat0=    1 NMatS0=      1 NMatT0=    0 NMatD0=    1 NMtDS0=    0 NMtDT0=    0
 Symmetry not used in FoFCou.
 Inv3:  Mode=1 IEnd=    14520000.
 Iteration    1 A*A^-1 deviation from unit magnitude is 4.88D-15 for   2175.
 Iteration    1 A*A^-1 deviation from orthogonality  is 1.79D-15 for   1614     74.
 Iteration    1 A^-1*A deviation from unit magnitude is 4.55D-15 for   2175.
 Iteration    1 A^-1*A deviation from orthogonality  is 1.56D-15 for   1428    217.
 E= -1028.56758294633    
 DIIS: error= 3.70D-02 at cycle   1 NSaved=   1.
 NSaved= 1 IEnMin= 1 EnMin= -1028.56758294633     IErMin= 1 ErrMin= 3.70D-02
 ErrMax= 3.70D-02  0.00D+00 EMaxC= 1.00D-01 BMatC= 3.92D-01 BMatP= 3.92D-01
 IDIUse=3 WtCom= 6.30D-01 WtEn= 3.70D-01
 Coeff-Com:  0.100D+01
 Coeff-En:   0.100D+01
 Coeff:      0.100D+01
 Gap=     0.340 Goal=   None    Shift=    0.000
 GapD=    0.340 DampG=1.000 DampE=0.500 DampFc=0.5000 IDamp=-1.
 Damping current iteration by 5.00D-01
 RMSDP=3.53D-03 MaxDP=2.28D-01              OVMax= 1.80D-01

 Cycle   2  Pass 1  IDiag  1:
 RMSU=  1.76D-03    CP:  9.93D-01
 E= -1028.68675180436     Delta-E=       -0.119168858032 Rises=F Damp=T
 DIIS: error= 1.04D-02 at cycle   2 NSaved=   2.
 NSaved= 2 IEnMin= 2 EnMin= -1028.68675180436     IErMin= 2 ErrMin= 1.04D-02
 ErrMax= 1.04D-02  0.00D+00 EMaxC= 1.00D-01 BMatC= 5.79D-02 BMatP= 3.92D-01
 IDIUse=3 WtCom= 8.96D-01 WtEn= 1.04D-01
 Coeff-Com: -0.293D+00 0.129D+01
 Coeff-En:   0.000D+00 0.100D+01
 Coeff:     -0.262D+00 0.126D+01
 Gap=     0.298 Goal=   None    Shift=    0.000
 RMSDP=1.14D-03 MaxDP=2.40D-02 DE=-1.19D-01 OVMax= 1.19D-01

 Cycle   3  Pass 1  IDiag  1:
 RMSU=  1.09D-03    CP:  9.92D-01  1.19D+00
 E= -1028.79219259759     Delta-E=       -0.105440793236 Rises=F Damp=F
 DIIS: error= 6.41D-03 at cycle   3 NSaved=   3.
 NSaved= 3 IEnMin= 3 EnMin= -1028.79219259759     IErMin= 3 ErrMin= 6.41D-03
 ErrMax= 6.41D-03  0.00D+00 EMaxC= 1.00D-01 BMatC= 1.38D-02 BMatP= 5.79D-02
 IDIUse=3 WtCom= 9.36D-01 WtEn= 6.41D-02
 Coeff-Com: -0.203D+00 0.486D+00 0.718D+00
 Coeff-En:   0.000D+00 0.000D+00 0.100D+01
 Coeff:     -0.190D+00 0.455D+00 0.736D+00
 Gap=     0.255 Goal=   None    Shift=    0.000
 RMSDP=5.24D-04 MaxDP=1.53D-02 DE=-1.05D-01 OVMax= 3.89D-02

 Cycle   4  Pass 1  IDiag  1:
 RMSU=  4.09D-04    CP:  9.90D-01  1.35D+00  8.47D-01
 E= -1028.80539320486     Delta-E=       -0.013200607263 Rises=F Damp=F
 DIIS: error= 2.27D-03 at cycle   4 NSaved=   4.
 NSaved= 4 IEnMin= 4 EnMin= -1028.80539320486     IErMin= 4 ErrMin= 2.27D-03
 ErrMax= 2.27D-03  0.00D+00 EMaxC= 1.00D-01 BMatC= 1.65D-03 BMatP= 1.38D-02
 IDIUse=3 WtCom= 9.77D-01 WtEn= 2.27D-02
 Coeff-Com: -0.722D-01 0.143D+00 0.349D+00 0.580D+00
 Coeff-En:   0.000D+00 0.000D+00 0.000D+00 0.100D+01
 Coeff:     -0.705D-01 0.140D+00 0.341D+00 0.589D+00
 Gap=     0.253 Goal=   None    Shift=    0.000
 RMSDP=1.65D-04 MaxDP=9.62D-03 DE=-1.32D-02 OVMax= 1.32D-02

 Cycle   5  Pass 1  IDiag  1:
 RMSU=  1.06D-04    CP:  9.90D-01  1.36D+00  9.15D-01  7.54D-01
 E= -1028.80715522432     Delta-E=       -0.001762019460 Rises=F Damp=F
 DIIS: error= 4.04D-04 at cycle   5 NSaved=   5.
 NSaved= 5 IEnMin= 5 EnMin= -1028.80715522432     IErMin= 5 ErrMin= 4.04D-04
 ErrMax= 4.04D-04  0.00D+00 EMaxC= 1.00D-01 BMatC= 5.34D-05 BMatP= 1.65D-03
 IDIUse=3 WtCom= 9.96D-01 WtEn= 4.04D-03
 Coeff-Com: -0.148D-02-0.312D-02 0.337D-01 0.162D+00 0.809D+00
 Coeff-En:   0.000D+00 0.000D+00 0.000D+00 0.000D+00 0.100D+01
 Coeff:     -0.147D-02-0.311D-02 0.335D-01 0.162D+00 0.809D+00
 Gap=     0.253 Goal=   None    Shift=    0.000
 RMSDP=5.21D-05 MaxDP=1.53D-03 DE=-1.76D-03 OVMax= 5.23D-03

 Cycle   6  Pass 1  IDiag  1:
 RMSU=  3.36D-05    CP:  9.89D-01  1.37D+00  9.33D-01  8.36D-01  1.07D+00
 E= -1028.80726836839     Delta-E=       -0.000113144077 Rises=F Damp=F
 DIIS: error= 1.65D-04 at cycle   6 NSaved=   6.
 NSaved= 6 IEnMin= 6 EnMin= -1028.80726836839     IErMin= 6 ErrMin= 1.65D-04
 ErrMax= 1.65D-04  0.00D+00 EMaxC= 1.00D-01 BMatC= 8.89D-06 BMatP= 5.34D-05
 IDIUse=3 WtCom= 9.98D-01 WtEn= 1.65D-03
 Coeff-Com:  0.149D-01-0.308D-01-0.592D-01-0.634D-01 0.204D+00 0.934D+00
 Coeff-En:   0.000D+00 0.000D+00 0.000D+00 0.000D+00 0.000D+00 0.100D+01
 Coeff:      0.149D-01-0.307D-01-0.591D-01-0.633D-01 0.204D+00 0.934D+00
 Gap=     0.254 Goal=   None    Shift=    0.000
 RMSDP=3.05D-05 MaxDP=1.50D-03 DE=-1.13D-04 OVMax= 2.82D-03

 Cycle   7  Pass 1  IDiag  1:
 RMSU=  1.55D-05    CP:  9.89D-01  1.37D+00  9.44D-01  8.66D-01  1.24D+00
                    CP:  1.27D+00
 E= -1028.80729622739     Delta-E=       -0.000027858993 Rises=F Damp=F
 DIIS: error= 9.65D-05 at cycle   7 NSaved=   7.
 NSaved= 7 IEnMin= 7 EnMin= -1028.80729622739     IErMin= 7 ErrMin= 9.65D-05
 ErrMax= 9.65D-05  0.00D+00 EMaxC= 1.00D-01 BMatC= 1.95D-06 BMatP= 8.89D-06
 IDIUse=1 WtCom= 1.00D+00 WtEn= 0.00D+00
 Coeff-Com:  0.630D-02-0.120D-01-0.284D-01-0.463D-01-0.156D-01 0.393D+00
 Coeff-Com:  0.703D+00
 Coeff:      0.630D-02-0.120D-01-0.284D-01-0.463D-01-0.156D-01 0.393D+00
 Coeff:      0.703D+00
 Gap=     0.254 Goal=   None    Shift=    0.000
 RMSDP=1.01D-05 MaxDP=3.96D-04 DE=-2.79D-05 OVMax= 1.33D-03

 Cycle   8  Pass 1  IDiag  1:
 RMSU=  6.14D-06    CP:  9.89D-01  1.37D+00  9.46D-01  8.72D-01  1.27D+00
                    CP:  1.45D+00  1.13D+00
 E= -1028.80730037417     Delta-E=       -0.000004146785 Rises=F Damp=F
 DIIS: error= 4.15D-05 at cycle   8 NSaved=   8.
 NSaved= 8 IEnMin= 8 EnMin= -1028.80730037417     IErMin= 8 ErrMin= 4.15D-05
 ErrMax= 4.15D-05  0.00D+00 EMaxC= 1.00D-01 BMatC= 3.54D-07 BMatP= 1.95D-06
 IDIUse=1 WtCom= 1.00D+00 WtEn= 0.00D+00
 Coeff-Com: -0.125D-02 0.277D-02 0.409D-02 0.837D-03-0.406D-01-0.737D-01
 Coeff-Com:  0.254D+00 0.854D+00
 Coeff:     -0.125D-02 0.277D-02 0.409D-02 0.837D-03-0.406D-01-0.737D-01
 Coeff:      0.254D+00 0.854D+00
 Gap=     0.254 Goal=   None    Shift=    0.000
 RMSDP=5.22D-06 MaxDP=1.42D-04 DE=-4.15D-06 OVMax= 7.39D-04

 Cycle   9  Pass 1  IDiag  1:
 RMSU=  2.44D-06    CP:  9.89D-01  1.37D+00  9.45D-01  8.71D-01  1.28D+00
                    CP:  1.53D+00  1.35D+00  1.16D+00
 E= -1028.80730134756     Delta-E=       -0.000000973391 Rises=F Damp=F
 DIIS: error= 1.89D-05 at cycle   9 NSaved=   9.
 NSaved= 9 IEnMin= 9 EnMin= -1028.80730134756     IErMin= 9 ErrMin= 1.89D-05
 ErrMax= 1.89D-05  0.00D+00 EMaxC= 1.00D-01 BMatC= 4.81D-08 BMatP= 3.54D-07
 IDIUse=1 WtCom= 1.00D+00 WtEn= 0.00D+00
 Coeff-Com: -0.118D-02 0.234D-02 0.494D-02 0.668D-02-0.982D-02-0.864D-01
 Coeff-Com: -0.122D-01 0.241D+00 0.855D+00
 Coeff:     -0.118D-02 0.234D-02 0.494D-02 0.668D-02-0.982D-02-0.864D-01
 Coeff:     -0.122D-01 0.241D+00 0.855D+00
 Gap=     0.254 Goal=   None    Shift=    0.000
 RMSDP=2.52D-06 MaxDP=6.04D-05 DE=-9.73D-07 OVMax= 4.21D-04

 Cycle  10  Pass 1  IDiag  1:
 RMSU=  1.17D-06    CP:  9.89D-01  1.37D+00  9.45D-01  8.71D-01  1.28D+00
                    CP:  1.57D+00  1.44D+00  1.33D+00  1.26D+00
 E= -1028.80730155730     Delta-E=       -0.000000209741 Rises=F Damp=F
 DIIS: error= 8.43D-06 at cycle  10 NSaved=  10.
 NSaved=10 IEnMin=10 EnMin= -1028.80730155730     IErMin=10 ErrMin= 8.43D-06
 ErrMax= 8.43D-06  0.00D+00 EMaxC= 1.00D-01 BMatC= 1.59D-08 BMatP= 4.81D-08
 IDIUse=1 WtCom= 1.00D+00 WtEn= 0.00D+00
 Coeff-Com: -0.172D-03 0.286D-03 0.102D-02 0.256D-02 0.498D-02-0.216D-01
 Coeff-Com: -0.500D-01-0.108D+00 0.346D+00 0.825D+00
 Coeff:     -0.172D-03 0.286D-03 0.102D-02 0.256D-02 0.498D-02-0.216D-01
 Coeff:     -0.500D-01-0.108D+00 0.346D+00 0.825D+00
 Gap=     0.254 Goal=   None    Shift=    0.000
 RMSDP=1.38D-06 MaxDP=3.29D-05 DE=-2.10D-07 OVMax= 2.28D-04

 Cycle  11  Pass 1  IDiag  1:
 RMSU=  5.42D-07    CP:  9.89D-01  1.37D+00  9.45D-01  8.71D-01  1.29D+00
                    CP:  1.58D+00  1.48D+00  1.42D+00  1.58D+00  1.20D+00
 E= -1028.80730161387     Delta-E=       -0.000000056565 Rises=F Damp=F
 DIIS: error= 4.51D-06 at cycle  11 NSaved=  11.
 NSaved=11 IEnMin=11 EnMin= -1028.80730161387     IErMin=11 ErrMin= 4.51D-06
 ErrMax= 4.51D-06  0.00D+00 EMaxC= 1.00D-01 BMatC= 2.40D-09 BMatP= 1.59D-08
 IDIUse=1 WtCom= 1.00D+00 WtEn= 0.00D+00
 Coeff-Com:  0.253D-03-0.520D-03-0.929D-03-0.834D-03 0.453D-02 0.111D-01
 Coeff-Com: -0.605D-02-0.907D-01-0.577D-01 0.218D+00 0.923D+00
 Coeff:      0.253D-03-0.520D-03-0.929D-03-0.834D-03 0.453D-02 0.111D-01
 Coeff:     -0.605D-02-0.907D-01-0.577D-01 0.218D+00 0.923D+00
 Gap=     0.254 Goal=   None    Shift=    0.000
 RMSDP=6.28D-07 MaxDP=1.71D-05 DE=-5.66D-08 OVMax= 1.19D-04

 Cycle  12  Pass 1  IDiag  1:
 RMSU=  2.17D-07    CP:  9.89D-01  1.37D+00  9.45D-01  8.72D-01  1.29D+00
                    CP:  1.58D+00  1.49D+00  1.45D+00  1.74D+00  1.49D+00
                    CP:  1.17D+00
 E= -1028.80730162543     Delta-E=       -0.000000011558 Rises=F Damp=F
 DIIS: error= 1.29D-06 at cycle  12 NSaved=  12.
 NSaved=12 IEnMin=12 EnMin= -1028.80730162543     IErMin=12 ErrMin= 1.29D-06
 ErrMax= 1.29D-06  0.00D+00 EMaxC= 1.00D-01 BMatC= 6.41D-10 BMatP= 2.40D-09
 IDIUse=1 WtCom= 1.00D+00 WtEn= 0.00D+00
 Coeff-Com:  0.126D-03-0.246D-03-0.540D-03-0.849D-03 0.102D-02 0.825D-02
 Coeff-Com:  0.898D-02-0.180D-01-0.942D-01-0.117D+00 0.349D+00 0.863D+00
 Coeff:      0.126D-03-0.246D-03-0.540D-03-0.849D-03 0.102D-02 0.825D-02
 Coeff:      0.898D-02-0.180D-01-0.942D-01-0.117D+00 0.349D+00 0.863D+00
 Gap=     0.254 Goal=   None    Shift=    0.000
 RMSDP=3.27D-07 MaxDP=7.59D-06 DE=-1.16D-08 OVMax= 5.28D-05

 Cycle  13  Pass 1  IDiag  1:
 RMSU=  8.44D-08    CP:  9.89D-01  1.37D+00  9.45D-01  8.72D-01  1.29D+00
                    CP:  1.58D+00  1.50D+00  1.47D+00  1.82D+00  1.61D+00
                    CP:  1.45D+00  1.13D+00
 E= -1028.80730162764     Delta-E=       -0.000000002209 Rises=F Damp=F
 DIIS: error= 4.61D-07 at cycle  13 NSaved=  13.
 NSaved=13 IEnMin=13 EnMin= -1028.80730162764     IErMin=13 ErrMin= 4.61D-07
 ErrMax= 4.61D-07  0.00D+00 EMaxC= 1.00D-01 BMatC= 4.16D-11 BMatP= 6.41D-10
 IDIUse=1 WtCom= 1.00D+00 WtEn= 0.00D+00
 Coeff-Com: -0.812D-05 0.191D-04 0.128D-04-0.814D-04-0.231D-03 0.300D-03
 Coeff-Com:  0.335D-02 0.790D-02-0.899D-02-0.579D-01-0.477D-01 0.191D+00
 Coeff-Com:  0.913D+00
 Coeff:     -0.812D-05 0.191D-04 0.128D-04-0.814D-04-0.231D-03 0.300D-03
 Coeff:      0.335D-02 0.790D-02-0.899D-02-0.579D-01-0.477D-01 0.191D+00
 Coeff:      0.913D+00
 Gap=     0.254 Goal=   None    Shift=    0.000
 RMSDP=7.24D-08 MaxDP=1.91D-06 DE=-2.21D-09 OVMax= 1.06D-05

 Cycle  14  Pass 1  IDiag  1:
 RMSU=  2.89D-08    CP:  9.89D-01  1.37D+00  9.45D-01  8.72D-01  1.29D+00
                    CP:  1.58D+00  1.50D+00  1.47D+00  1.83D+00  1.64D+00
                    CP:  1.51D+00  1.28D+00  1.16D+00
 E= -1028.80730162777     Delta-E=       -0.000000000135 Rises=F Damp=F
 DIIS: error= 1.06D-07 at cycle  14 NSaved=  14.
 NSaved=14 IEnMin=14 EnMin= -1028.80730162777     IErMin=14 ErrMin= 1.06D-07
 ErrMax= 1.06D-07  0.00D+00 EMaxC= 1.00D-01 BMatC= 5.67D-12 BMatP= 4.16D-11
 IDIUse=1 WtCom= 1.00D+00 WtEn= 0.00D+00
 Coeff-Com: -0.124D-04 0.253D-04 0.473D-04 0.358D-04-0.150D-03-0.560D-03
 Coeff-Com:  0.440D-03 0.371D-02 0.450D-02-0.100D-01-0.411D-01-0.559D-02
 Coeff-Com:  0.314D+00 0.735D+00
 Coeff:     -0.124D-04 0.253D-04 0.473D-04 0.358D-04-0.150D-03-0.560D-03
 Coeff:      0.440D-03 0.371D-02 0.450D-02-0.100D-01-0.411D-01-0.559D-02
 Coeff:      0.314D+00 0.735D+00
 Gap=     0.254 Goal=   None    Shift=    0.000
 RMSDP=1.68D-08 MaxDP=4.53D-07 DE=-1.35D-10 OVMax= 1.67D-06

 Cycle  15  Pass 1  IDiag  1:
 RMSU=  1.09D-08    CP:  9.89D-01  1.37D+00  9.45D-01  8.72D-01  1.29D+00
                    CP:  1.58D+00  1.50D+00  1.47D+00  1.84D+00  1.64D+00
                    CP:  1.52D+00  1.31D+00  1.26D+00  1.05D+00
 E= -1028.80730162778     Delta-E=       -0.000000000013 Rises=F Damp=F
 DIIS: error= 6.31D-08 at cycle  15 NSaved=  15.
 NSaved=15 IEnMin=15 EnMin= -1028.80730162778     IErMin=15 ErrMin= 6.31D-08
 ErrMax= 6.31D-08  0.00D+00 EMaxC= 1.00D-01 BMatC= 9.87D-13 BMatP= 5.67D-12
 IDIUse=1 WtCom= 1.00D+00 WtEn= 0.00D+00
 Coeff-Com: -0.313D-05 0.585D-05 0.163D-04 0.282D-04-0.187D-04-0.317D-03
 Coeff-Com: -0.484D-03-0.494D-04 0.369D-02 0.725D-02-0.716D-02-0.403D-01
 Coeff-Com: -0.466D-01 0.276D+00 0.808D+00
 Coeff:     -0.313D-05 0.585D-05 0.163D-04 0.282D-04-0.187D-04-0.317D-03
 Coeff:     -0.484D-03-0.494D-04 0.369D-02 0.725D-02-0.716D-02-0.403D-01
 Coeff:     -0.466D-01 0.276D+00 0.808D+00
 Gap=     0.254 Goal=   None    Shift=    0.000
 RMSDP=8.02D-09 MaxDP=2.00D-07 DE=-1.30D-11 OVMax= 9.54D-07

 Error on total polarization charges =  0.00866
 SCF Done:  E(RwB97XD) =  -1028.80730163     A.U. after   15 cycles
            NFock= 15  Conv=0.80D-08     -V/T= 2.0052
 KE= 1.023524978517D+03 PE=-4.599829773849D+03 EE= 1.453550492678D+03
 Leave Link  502 at Mon Jul 13 14:38:23 2020, MaxMem=  7784628224 cpu:             835.3 elap:              84.3
 (Enter /gpfs/loomis/apps/avx/software/Gaussian/16-C.01_AVX/g16/l801.exe)
 DoSCS=F DFT=T ScalE2(SS,OS)=  1.000000  1.000000
 ExpMin= 1.22D-01 ExpMax= 1.11D+05 ExpMxC= 1.07D+03 IAcc=3 IRadAn=         5 AccDes= 0.00D+00
 HarFok:  IExCor=  205 AccDes= 0.00D+00 IRadAn=         5 IDoV=-2 UseB2=F ITyADJ=14
 ICtDFT= 12500011 ScaDFX=  1.000000  1.000000  1.000000  1.000000
 Largest valence mixing into a core orbital is  9.60D-05
 Largest core mixing into a valence orbital is  2.85D-05
 Range of M.O.s used for correlation:    21   273
 NBasis=   273 NAE=    59 NBE=    59 NFC=    20 NFV=     0
 NROrb=    253 NOA=    39 NOB=    39 NVA=   214 NVB=   214
 Leave Link  801 at Mon Jul 13 14:38:23 2020, MaxMem=  7784628224 cpu:               1.0 elap:               0.1
 (Enter /gpfs/loomis/apps/avx/software/Gaussian/16-C.01_AVX/g16/l914.exe)
 RHF ground state
 Keep R1, R2, and R3 ints in memory in canonical form, NReq=4262515490.
 FoFCou: FMM=F IPFlag=           0 FMFlag=           0 FMFlg1=           0
         NFxFlg=           0 DoJE=F BraDBF=F KetDBF=F FulRan=T
         wScrn=  0.000000 ICntrl=       600 IOpCl=  0 I1Cent=           0 NGrid=           0
         NMat0=    1 NMatS0=  37401 NMatT0=    0 NMatD0=    1 NMtDS0=    0 NMtDT0=    0
 Symmetry not used in FoFCou.
 Two-electron integral symmetry not used.
 MDV=  7784628224 DFT=T DoStab=F Mixed=T DoRPA=T DoScal=F NonHer=T
 NEqPCM:  Using equilibrium solvation (IEInf=0, Eps=   2.2280, EpsInf=   2.1319)
 Making orbital integer symmetry assigments:
    12 initial guesses have been made.
 Convergence on wavefunction:    0.000001000000000
 Davidson Disk Diagonalization:  ConvIn= 1.00D-06 SkipCon=T Conv= 1.00D-06.
 Max sub-space:  2000 roots to seek:    12 dimension of matrix:        16692
 Iteration     1 Dimension    12 NMult     0 NNew     12
 CISAX will form    12 AO SS matrices at one time.
 NMat=    12 NSing=    12 JSym2X= 0.
 New state      2 was old state      5
 New state      3 was old state      2
 Excitation Energies [eV] at current iteration:
 Root      1 :     3.763493018412253
 Root      2 :     4.787920351701357
 Root      3 :     4.946271802993834
 Root      4 :     5.123371880769947
 Root      5 :     5.748757339015011
 Root      6 :     6.061982166792690
 Root      7 :     6.296550531158546
 Root      8 :     6.386320268652613
 Root      9 :     6.788002663830030
 Root     10 :     7.039787982558572
 Root     11 :     7.201630986438857
 Root     12 :     7.945249366626820
 Iteration     2 Dimension    18 NMult    12 NNew      6
 CISAX will form     6 AO SS matrices at one time.
 NMat=     6 NSing=     6 JSym2X= 0.
 Root      1 not converged, maximum delta is    0.048356238071282
 New state      2 was old state      3
 Root      2 not converged, maximum delta is    0.073375702224035
 New state      3 was old state      2
 Root      3 not converged, maximum delta is    0.069507239465278
 Excitation Energies [eV] at current iteration:
 Root      1 :     3.268094540631922   Change is   -0.495398477780331
 Root      2 :     4.393872202542703   Change is   -0.552399600451131
 Root      3 :     4.576936112629118   Change is   -0.210984239072238
 Iteration     3 Dimension    24 NMult    18 NNew      6
 CISAX will form     6 AO SS matrices at one time.
 NMat=     6 NSing=     6 JSym2X= 0.
 Root      1 not converged, maximum delta is    0.019889103172591
 Root      2 not converged, maximum delta is    0.019628712808911
 Root      3 not converged, maximum delta is    0.029021706503345
 Excitation Energies [eV] at current iteration:
 Root      1 :     3.234542078276789   Change is   -0.033552462355133
 Root      2 :     4.362098211580283   Change is   -0.031773990962421
 Root      3 :     4.559793527495605   Change is   -0.017142585133514
 Iteration     4 Dimension    30 NMult    24 NNew      6
 CISAX will form     6 AO SS matrices at one time.
 NMat=     6 NSing=     6 JSym2X= 0.
 Root      1 not converged, maximum delta is    0.008260277703931
 Root      2 not converged, maximum delta is    0.010984772013450
 Root      3 not converged, maximum delta is    0.008918264168126
 Excitation Energies [eV] at current iteration:
 Root      1 :     3.229287696125337   Change is   -0.005254382151452
 Root      2 :     4.355991942909340   Change is   -0.006106268670942
 Root      3 :     4.558284892816028   Change is   -0.001508634679577
 Iteration     5 Dimension    36 NMult    30 NNew      6
 CISAX will form     6 AO SS matrices at one time.
 NMat=     6 NSing=     6 JSym2X= 0.
 Root      1 not converged, maximum delta is    0.003189393239991
 Root      2 not converged, maximum delta is    0.003353926403396
 Root      3 not converged, maximum delta is    0.001873786408904
 Excitation Energies [eV] at current iteration:
 Root      1 :     3.228786200875355   Change is   -0.000501495249982
 Root      2 :     4.355401671881777   Change is   -0.000590271027563
 Root      3 :     4.558149597074433   Change is   -0.000135295741594
 Iteration     6 Dimension    42 NMult    36 NNew      6
 CISAX will form     6 AO SS matrices at one time.
 NMat=     6 NSing=     6 JSym2X= 0.
 Root      1 not converged, maximum delta is    0.000506044266275
 Root      2 not converged, maximum delta is    0.001013588452656
 Root      3 not converged, maximum delta is    0.000289133167221
 Excitation Energies [eV] at current iteration:
 Root      1 :     3.228731177932652   Change is   -0.000055022942702
 Root      2 :     4.355318855880566   Change is   -0.000082816001211
 Root      3 :     4.558138707754353   Change is   -0.000010889320080
 Iteration     7 Dimension    48 NMult    42 NNew      6
 CISAX will form     6 AO SS matrices at one time.
 NMat=     6 NSing=     6 JSym2X= 0.
 Root      1 not converged, maximum delta is    0.000150979843240
 Root      2 not converged, maximum delta is    0.000899658135764
 Root      3 not converged, maximum delta is    0.000061820630721
 Excitation Energies [eV] at current iteration:
 Root      1 :     3.228727782334946   Change is   -0.000003395597707
 Root      2 :     4.355307773626333   Change is   -0.000011082254232
 Root      3 :     4.558138151797732   Change is   -0.000000555956621
 Iteration     8 Dimension    54 NMult    48 NNew      6
 CISAX will form     6 AO SS matrices at one time.
 NMat=     6 NSing=     6 JSym2X= 0.
 Root      1 not converged, maximum delta is    0.000030978607262
 Root      2 not converged, maximum delta is    0.000326020933751
 Root      3 not converged, maximum delta is    0.000023111005238
 Excitation Energies [eV] at current iteration:
 Root      1 :     3.228727511960619   Change is   -0.000000270374327
 Root      2 :     4.355306321584551   Change is   -0.000001452041783
 Root      3 :     4.558138109238199   Change is   -0.000000042559532
 Iteration     9 Dimension    60 NMult    54 NNew      6
 CISAX will form     6 AO SS matrices at one time.
 NMat=     6 NSing=     6 JSym2X= 0.
 Root      1 not converged, maximum delta is    0.000009048524783
 Root      2 not converged, maximum delta is    0.000154908119369
 Root      3 not converged, maximum delta is    0.000010354923503
 Excitation Energies [eV] at current iteration:
 Root      1 :     3.228727495144135   Change is   -0.000000016816484
 Root      2 :     4.355306042029185   Change is   -0.000000279555366
 Root      3 :     4.558138104648100   Change is   -0.000000004590099
 Iteration    10 Dimension    66 NMult    60 NNew      6
 CISAX will form     6 AO SS matrices at one time.
 NMat=     6 NSing=     6 JSym2X= 0.
 Root      1 not converged, maximum delta is    0.000002110253607
 Root      2 not converged, maximum delta is    0.000068258923185
 Root      3 not converged, maximum delta is    0.000004850584577
 Excitation Energies [eV] at current iteration:
 Root      1 :     3.228727494023101   Change is   -0.000000001121034
 Root      2 :     4.355305986154955   Change is   -0.000000055874231
 Root      3 :     4.558138104124409   Change is   -0.000000000523691
 Iteration    11 Dimension    72 NMult    66 NNew      6
 CISAX will form     6 AO SS matrices at one time.
 NMat=     6 NSing=     6 JSym2X= 0.
 Root      1 has converged.
 Root      2 not converged, maximum delta is    0.000009234956745
 Root      3 not converged, maximum delta is    0.000002191191128
 Excitation Energies [eV] at current iteration:
 Root      1 :     3.228727493949390   Change is   -0.000000000073710
 Root      2 :     4.355305981486368   Change is   -0.000000004668587
 Root      3 :     4.558138104052015   Change is   -0.000000000072394
 Iteration    12 Dimension    76 NMult    72 NNew      4
 CISAX will form     4 AO SS matrices at one time.
 NMat=     4 NSing=     4 JSym2X= 0.
 Root      1 has converged.
 Root      2 not converged, maximum delta is    0.000001263790303
 Root      3 has converged.
 Excitation Energies [eV] at current iteration:
 Root      1 :     3.228727493949288   Change is   -0.000000000000102
 Root      2 :     4.355305981246822   Change is   -0.000000000239546
 Root      3 :     4.558138104038596   Change is   -0.000000000013419
 Iteration    13 Dimension    78 NMult    76 NNew      2
 CISAX will form     2 AO SS matrices at one time.
 NMat=     2 NSing=     2 JSym2X= 0.
 Root      1 has converged.
 Root      2 has converged.
 Root      3 has converged.
 Excitation Energies [eV] at current iteration:
 Root      1 :     3.228727493949212   Change is   -0.000000000000076
 Root      2 :     4.355305981230060   Change is   -0.000000000016762
 Root      3 :     4.558138104038615   Change is    0.000000000000018
 Convergence achieved on expansion vectors.
 ***********************************************************************
 Excited states from <AA,BB:AA,BB> singles matrix:
 ***********************************************************************
 
 1PDM for each excited state written to RWF  633
 Ground to excited state transition densities written to RWF  633
 Ground to excited state transition electric dipole moments (Au):
       state          X           Y           Z        Dip. S.      Osc.
         1         1.3051     -2.1404     -0.0000      6.2847      0.4971
         2        -1.7544      0.8394      0.0000      3.7824      0.4036
         3         0.0000      0.0000      0.0106      0.0001      0.0000
 Ground to excited state transition velocity dipole moments (Au):
       state          X           Y           Z        Dip. S.      Osc.
         1        -0.1490      0.2537      0.0000      0.0866      0.4864
         2         0.2756     -0.1246     -0.0000      0.0915      0.3811
         3        -0.0000     -0.0000     -0.0033      0.0000      0.0000
 Ground to excited state transition magnetic dipole moments (Au):
       state          X           Y           Z
         1         0.0000      0.0000     -1.0611
         2        -0.0000      0.0000     -0.9968
         3        -0.0618      0.0571      0.0000
 Ground to excited state transition velocity quadrupole moments (Au):
       state          XX          YY          ZZ          XY          XZ          YZ
         1        -0.1258      0.5870     -0.0126     -0.2137     -0.0000      0.0000
         2        -0.2577      0.5362     -0.0052     -0.0379     -0.0000      0.0000
         3        -0.0000     -0.0000      0.0000      0.0000     -0.0175     -0.0220
 <0|del|b> * <b|rxdel|0> + <0|del|b> * <b|delr+rdel|0>
 Rotatory Strengths (R) in cgs (10**-40 erg-esu-cm/Gauss)
       state          XX          YY          ZZ    R(velocity)    E-M Angle
         1         0.0169     -0.0212      0.0222      0.0060       90.00
         2        -0.0056      0.0025     -0.0067     -0.0033       90.00
         3        -0.0002      0.0006      0.0003      0.0002       90.00
 1/2[<0|r|b>*<b|rxdel|0> + (<0|rxdel|b>*<b|r|0>)*]
 Rotatory Strengths (R) in cgs (10**-40 erg-esu-cm/Gauss)
       state          XX          YY          ZZ     R(length)
         1        -0.0101      0.0528     -0.0246      0.0060
         2        -0.0015     -0.0096      0.0013     -0.0033
         3         0.0010     -0.0002     -0.0001      0.0003
  1/2[<0|del|b>*<b|r|0> + (<0|r|b>*<b|del|0>)*] (Au)
       state          X           Y           Z        Dip. S.   Osc.(frdel)
         1        -0.1945     -0.5430     -0.0000      0.7375      0.4917
         2        -0.4836     -0.1046     -0.0000      0.5881      0.3921
         3        -0.0000     -0.0000     -0.0000      0.0000      0.0000

 Excitation energies and oscillator strengths:
 
 Excited state symmetry could not be determined.
 Excited State   1:      Singlet-?Sym    3.2287 eV  384.00 nm  f=0.4971  <S**2>=0.000
      59 -> 60         0.69326
 This state for optimization and/or second-order correction.
 Total Energy, E(TD-HF/TD-DFT) =  -1028.68864808    
 Copying the excited state density for this state as the 1-particle RhoCI density.
 
 Excited state symmetry could not be determined.
 Excited State   2:      Singlet-?Sym    4.3553 eV  284.67 nm  f=0.4036  <S**2>=0.000
      57 -> 60        -0.11636
      58 -> 60         0.66789
      59 -> 64         0.10197
 
 Excited state symmetry could not be determined.
 Excited State   3:      Singlet-?Sym    4.5581 eV  272.01 nm  f=0.0000  <S**2>=0.000
      56 -> 60         0.68849
      56 -> 64        -0.10254
 SavETr:  write IOETrn=   770 NScale= 10 NData=  16 NLR=1 NState=    3 LETran=      64.
 The selected state is a singlet.
 CISGrd: IGrad=2 NXY=2 DFT=T
 CISAX will form     1 AO SS matrices at one time.
 NMat=     1 NSing=     1 JSym2X= 0.
 GePol: Maximum number of non-zero 1st derivatives   =     273
 Leave Link  914 at Mon Jul 13 14:41:27 2020, MaxMem=  7784628224 cpu:            1817.5 elap:             184.2
 (Enter /gpfs/loomis/apps/avx/software/Gaussian/16-C.01_AVX/g16/l1002.exe)
 Minotr:  Closed shell wavefunction.
          Computing CIS/TDA/TD derivatives.
          Using Z-Vector for PSCF gradient.
          Skipping F1 and S1 gradient terms here.
          IDoAtm=1111111111111111111111111
 NEqPCM:  Using equilibrium solvation (IEInf=0, Eps=   2.2280, EpsInf=   2.1319)
          Frozen-core window.
          Direct CPHF calculation.
          Differentiating once with respect to electric field.
                with respect to dipole field.
          Differentiating once with respect to nuclear coordinates.
          Requested convergence is 1.0D-10 RMS, and 1.0D-09 maximum.
          NewPWx=F KeepS1=T KeepF1=T KeepIn=T MapXYZ=F SortEE=F KeepMc=T.
 Keep R1 ints in memory in canonical form, NReq=1421582208.
 FoFCou: FMM=F IPFlag=           0 FMFlag=           0 FMFlg1=           0
         NFxFlg=           0 DoJE=F BraDBF=F KetDBF=F FulRan=T
         wScrn=  0.000000 ICntrl=       600 IOpCl=  0 I1Cent=           0 NGrid=           0
         NMat0=    1 NMatS0=  37401 NMatT0=    0 NMatD0=    1 NMtDS0=    0 NMtDT0=    0
 Symmetry not used in FoFCou.
 Two-electron integral symmetry not used.
          MDV=    7784628224 using IRadAn=       5.
          Solving linear equations separately, MaxMat=       0.
          There are     1 degrees of freedom in the 1st order CPHF.  IDoFFX=0 NUNeed=     1.
 LinEq1:  Iter=  0 NonCon=     1 RMS=5.52D-03 Max=3.05D-01 NDo=     1
 AX will form     1 AO Fock derivatives at one time.
 LinEq1:  Iter=  1 NonCon=     1 RMS=2.37D-03 Max=1.18D-01 NDo=     1
 LinEq1:  Iter=  2 NonCon=     1 RMS=1.47D-03 Max=4.77D-02 NDo=     1
 LinEq1:  Iter=  3 NonCon=     1 RMS=5.46D-04 Max=1.40D-02 NDo=     1
 LinEq1:  Iter=  4 NonCon=     1 RMS=3.00D-04 Max=1.03D-02 NDo=     1
 LinEq1:  Iter=  5 NonCon=     1 RMS=1.50D-04 Max=6.13D-03 NDo=     1
 LinEq1:  Iter=  6 NonCon=     1 RMS=6.66D-05 Max=2.61D-03 NDo=     1
 LinEq1:  Iter=  7 NonCon=     1 RMS=3.62D-05 Max=1.20D-03 NDo=     1
 LinEq1:  Iter=  8 NonCon=     1 RMS=1.57D-05 Max=4.76D-04 NDo=     1
 LinEq1:  Iter=  9 NonCon=     1 RMS=8.76D-06 Max=2.71D-04 NDo=     1
 LinEq1:  Iter= 10 NonCon=     1 RMS=3.63D-06 Max=1.11D-04 NDo=     1
 LinEq1:  Iter= 11 NonCon=     1 RMS=2.04D-06 Max=1.02D-04 NDo=     1
 LinEq1:  Iter= 12 NonCon=     1 RMS=9.54D-07 Max=2.92D-05 NDo=     1
 LinEq1:  Iter= 13 NonCon=     1 RMS=3.93D-07 Max=1.12D-05 NDo=     1
 LinEq1:  Iter= 14 NonCon=     1 RMS=1.78D-07 Max=4.83D-06 NDo=     1
 LinEq1:  Iter= 15 NonCon=     1 RMS=8.91D-08 Max=3.15D-06 NDo=     1
 LinEq1:  Iter= 16 NonCon=     1 RMS=3.79D-08 Max=1.13D-06 NDo=     1
 LinEq1:  Iter= 17 NonCon=     1 RMS=1.77D-08 Max=7.38D-07 NDo=     1
 LinEq1:  Iter= 18 NonCon=     1 RMS=6.10D-09 Max=1.79D-07 NDo=     1
 LinEq1:  Iter= 19 NonCon=     1 RMS=3.10D-09 Max=8.50D-08 NDo=     1
 LinEq1:  Iter= 20 NonCon=     1 RMS=1.48D-09 Max=4.47D-08 NDo=     1
 LinEq1:  Iter= 21 NonCon=     1 RMS=3.71D-10 Max=8.11D-09 NDo=     1
 LinEq1:  Iter= 22 NonCon=     1 RMS=1.58D-10 Max=3.32D-09 NDo=     1
 LinEq1:  Iter= 23 NonCon=     1 RMS=6.66D-11 Max=1.41D-09 NDo=     1
 LinEq1:  Iter= 24 NonCon=     0 RMS=2.04D-11 Max=5.51D-10 NDo=     1
 Linear equations converged to 1.000D-10 1.000D-09 after    24 iterations.
 End of Minotr F.D. properties file   721 does not exist.
 End of Minotr F.D. properties file   722 does not exist.
 End of Minotr F.D. properties file   788 does not exist.
 Leave Link 1002 at Mon Jul 13 14:43:09 2020, MaxMem=  7784628224 cpu:             760.3 elap:             101.4
 (Enter /gpfs/loomis/apps/avx/software/Gaussian/16-C.01_AVX/g16/l601.exe)
 Copying SCF densities to generalized density rwf, IOpCl= 0 IROHF=0.

 **********************************************************************

            Population analysis using the SCF Density.

 **********************************************************************

 Alpha  occ. eigenvalues --  -89.10082 -19.24815 -14.48794 -10.41066 -10.37307
 Alpha  occ. eigenvalues --  -10.35999 -10.35735 -10.33036 -10.32269 -10.32149
 Alpha  occ. eigenvalues --  -10.32086 -10.32034 -10.31981 -10.31474 -10.29910
 Alpha  occ. eigenvalues --  -10.29414  -8.11942  -6.06817  -6.06460  -6.05976
 Alpha  occ. eigenvalues --   -1.14251  -1.09642  -0.97102  -0.95021  -0.92204
 Alpha  occ. eigenvalues --   -0.88884  -0.85350  -0.83851  -0.81997  -0.75873
 Alpha  occ. eigenvalues --   -0.71380  -0.70517  -0.68512  -0.68268  -0.63483
 Alpha  occ. eigenvalues --   -0.60703  -0.59107  -0.57786  -0.55339  -0.54599
 Alpha  occ. eigenvalues --   -0.54231  -0.53286  -0.52419  -0.51219  -0.49899
 Alpha  occ. eigenvalues --   -0.49480  -0.47511  -0.46292  -0.45469  -0.44908
 Alpha  occ. eigenvalues --   -0.43908  -0.42960  -0.42030  -0.40561  -0.36546
 Alpha  occ. eigenvalues --   -0.35008  -0.32835  -0.31121  -0.27280
 Alpha virt. eigenvalues --   -0.01871   0.04370   0.06653   0.06661   0.08009
 Alpha virt. eigenvalues --    0.10533   0.12499   0.14876   0.15895   0.17704
 Alpha virt. eigenvalues --    0.18815   0.20636   0.21451   0.21943   0.22522
 Alpha virt. eigenvalues --    0.23271   0.24044   0.24418   0.28525   0.30082
 Alpha virt. eigenvalues --    0.31797   0.32844   0.35277   0.35836   0.36622
 Alpha virt. eigenvalues --    0.37946   0.38656   0.40413   0.43323   0.43662
 Alpha virt. eigenvalues --    0.46545   0.48022   0.49408   0.51545   0.51571
 Alpha virt. eigenvalues --    0.52291   0.53223   0.53847   0.54853   0.55067
 Alpha virt. eigenvalues --    0.55648   0.56009   0.56276   0.57221   0.58056
 Alpha virt. eigenvalues --    0.58195   0.58278   0.58960   0.59536   0.59906
 Alpha virt. eigenvalues --    0.60255   0.60939   0.62005   0.62119   0.62811
 Alpha virt. eigenvalues --    0.64925   0.65098   0.66866   0.67644   0.68835
 Alpha virt. eigenvalues --    0.69924   0.70325   0.71653   0.72399   0.72549
 Alpha virt. eigenvalues --    0.72710   0.74491   0.75166   0.76279   0.76531
 Alpha virt. eigenvalues --    0.78864   0.79425   0.79600   0.81814   0.82401
 Alpha virt. eigenvalues --    0.82549   0.87237   0.89282   0.90877   0.92471
 Alpha virt. eigenvalues --    0.94057   0.95087   0.95925   0.96216   0.96502
 Alpha virt. eigenvalues --    0.98456   0.98693   0.99723   1.00109   1.01237
 Alpha virt. eigenvalues --    1.02458   1.04746   1.05351   1.07157   1.07496
 Alpha virt. eigenvalues --    1.07755   1.08159   1.10045   1.10109   1.11690
 Alpha virt. eigenvalues --    1.11817   1.12236   1.13238   1.14915   1.15256
 Alpha virt. eigenvalues --    1.15977   1.18472   1.20145   1.22853   1.24284
 Alpha virt. eigenvalues --    1.26443   1.27148   1.32536   1.32971   1.34734
 Alpha virt. eigenvalues --    1.35128   1.35464   1.38472   1.41006   1.45864
 Alpha virt. eigenvalues --    1.48932   1.49416   1.50996   1.53644   1.55167
 Alpha virt. eigenvalues --    1.56176   1.56324   1.57140   1.58555   1.58859
 Alpha virt. eigenvalues --    1.59044   1.60028   1.64472   1.66126   1.67310
 Alpha virt. eigenvalues --    1.67957   1.68904   1.69615   1.69630   1.70070
 Alpha virt. eigenvalues --    1.71541   1.72335   1.73101   1.73469   1.74615
 Alpha virt. eigenvalues --    1.77261   1.78699   1.80334   1.80375   1.82145
 Alpha virt. eigenvalues --    1.82836   1.83678   1.84371   1.84517   1.85080
 Alpha virt. eigenvalues --    1.87529   1.88153   1.88410   1.90277   1.91557
 Alpha virt. eigenvalues --    1.92034   1.92116   1.93057   1.94252   1.95514
 Alpha virt. eigenvalues --    1.98251   1.99898   2.01116   2.03130   2.03739
 Alpha virt. eigenvalues --    2.04891   2.07142   2.08578   2.10415   2.11796
 Alpha virt. eigenvalues --    2.13973   2.16676   2.16685   2.20451   2.23663
 Alpha virt. eigenvalues --    2.26472   2.30330   2.32881   2.37891   2.39942
 Alpha virt. eigenvalues --    2.40944   2.41650   2.42397   2.45399   2.46500
 Alpha virt. eigenvalues --    2.47898   2.49863   2.52102   2.52760   2.61073
 Alpha virt. eigenvalues --    2.61367   2.70238   2.72887   2.73946   2.79525
 Alpha virt. eigenvalues --    2.81011   2.83123   2.84436   2.88728   2.92357
 Alpha virt. eigenvalues --    2.93114   3.01519   3.09851   3.22085   3.38603
 Alpha virt. eigenvalues --    3.47776   3.55271   3.58676   3.87585
          Condensed to atoms (all electrons):
               1          2          3          4          5          6
     1  C    4.734867   0.476233   0.001515  -0.048904  -0.013586   0.524989
     2  C    0.476233   5.325720   0.339145  -0.053089  -0.060845  -0.013731
     3  C    0.001515   0.339145   4.757765   0.511502  -0.007789  -0.061530
     4  C   -0.048904  -0.053089   0.511502   4.781661   0.523075  -0.018494
     5  C   -0.013586  -0.060845  -0.007789   0.523075   4.723978   0.493899
     6  C    0.524989  -0.013731  -0.061530  -0.018494   0.493899   4.745192
     7  H    0.403487  -0.041097   0.008151  -0.000449   0.007940  -0.037130
     8  H   -0.000683   0.010567  -0.025505   0.392493  -0.041992   0.007341
     9  H    0.008336  -0.000420   0.008203  -0.038903   0.405156  -0.043653
    10  H   -0.041667   0.009496  -0.000640   0.008755  -0.043431   0.406221
    11  N    0.005462  -0.051554   0.425795  -0.042514   0.002913   0.000328
    12  S   -0.058271   0.339266  -0.113000   0.005138   0.000229   0.003193
    13  C   -0.000140   0.003095   0.010133  -0.000812   0.000009  -0.000001
    14  C   -0.000002   0.000029   0.000072   0.000005  -0.000000  -0.000000
    15  C    0.000001  -0.000315   0.000955   0.000112   0.000000   0.000000
    16  C    0.000000  -0.000001   0.000004  -0.000000   0.000000   0.000000
    17  H   -0.000001   0.000028  -0.000001  -0.000000   0.000000  -0.000000
    18  C    0.000000   0.000006  -0.000034  -0.000000  -0.000000   0.000000
    19  C   -0.000000   0.000000   0.000001  -0.000000   0.000000   0.000000
    20  H   -0.000000  -0.000000  -0.000000   0.000000  -0.000000  -0.000000
    21  H   -0.000000   0.000000   0.000002  -0.000000   0.000000   0.000000
    22  H    0.000000  -0.000000  -0.000000  -0.000000  -0.000000  -0.000000
    23  C    0.003462  -0.051171  -0.113493   0.002455   0.000157  -0.000145
    24  O    0.000002  -0.000101  -0.001572  -0.000085  -0.000002  -0.000000
    25  H   -0.000009   0.004947  -0.016666  -0.003017  -0.000023   0.000006
               7          8          9         10         11         12
     1  C    0.403487  -0.000683   0.008336  -0.041667   0.005462  -0.058271
     2  C   -0.041097   0.010567  -0.000420   0.009496  -0.051554   0.339266
     3  C    0.008151  -0.025505   0.008203  -0.000640   0.425795  -0.113000
     4  C   -0.000449   0.392493  -0.038903   0.008755  -0.042514   0.005138
     5  C    0.007940  -0.041992   0.405156  -0.043431   0.002913   0.000229
     6  C   -0.037130   0.007341  -0.043653   0.406221   0.000328   0.003193
     7  H    0.651363   0.000030  -0.000132  -0.011926  -0.000116  -0.005795
     8  H    0.000030   0.643732  -0.011310  -0.000130  -0.003077  -0.000205
     9  H   -0.000132  -0.011310   0.660049  -0.012030  -0.000120   0.000021
    10  H   -0.011926  -0.000130  -0.012030   0.660072   0.000001  -0.000122
    11  N   -0.000116  -0.003077  -0.000120   0.000001   6.408138  -0.062334
    12  S   -0.005795  -0.000205   0.000021  -0.000122  -0.062334  15.441500
    13  C    0.000006   0.000067  -0.000000  -0.000000  -0.025505  -0.058546
    14  C    0.000000   0.000001   0.000000  -0.000000   0.002852  -0.003825
    15  C   -0.000000  -0.000019   0.000000   0.000000  -0.006642   0.003040
    16  C   -0.000000  -0.000000  -0.000000   0.000000  -0.000099  -0.000087
    17  H    0.000000   0.000000  -0.000000  -0.000000   0.000210   0.004654
    18  C   -0.000000  -0.000000  -0.000000  -0.000000  -0.000520  -0.000073
    19  C    0.000000   0.000000  -0.000000  -0.000000   0.000065   0.000016
    20  H   -0.000000  -0.000000   0.000000   0.000000   0.000001  -0.000001
    21  H   -0.000000   0.000000  -0.000000   0.000000   0.000033   0.000003
    22  H    0.000000  -0.000000  -0.000000  -0.000000  -0.000000  -0.000000
    23  C    0.000057  -0.000753   0.000007   0.000003   0.530843   0.323603
    24  O   -0.000000  -0.000335   0.000000  -0.000000  -0.092383  -0.000376
    25  H    0.000002   0.001544  -0.000009  -0.000000   0.197750   0.002586
              13         14         15         16         17         18
     1  C   -0.000140  -0.000002   0.000001   0.000000  -0.000001   0.000000
     2  C    0.003095   0.000029  -0.000315  -0.000001   0.000028   0.000006
     3  C    0.010133   0.000072   0.000955   0.000004  -0.000001  -0.000034
     4  C   -0.000812   0.000005   0.000112  -0.000000  -0.000000  -0.000000
     5  C    0.000009  -0.000000   0.000000   0.000000   0.000000  -0.000000
     6  C   -0.000001  -0.000000   0.000000   0.000000  -0.000000   0.000000
     7  H    0.000006   0.000000  -0.000000  -0.000000   0.000000  -0.000000
     8  H    0.000067   0.000001  -0.000019  -0.000000   0.000000  -0.000000
     9  H   -0.000000   0.000000   0.000000  -0.000000  -0.000000  -0.000000
    10  H   -0.000000  -0.000000   0.000000   0.000000  -0.000000  -0.000000
    11  N   -0.025505   0.002852  -0.006642  -0.000099   0.000210  -0.000520
    12  S   -0.058546  -0.003825   0.003040  -0.000087   0.004654  -0.000073
    13  C    5.355657   0.464915   0.260432  -0.008429  -0.040374  -0.041154
    14  C    0.464915   4.807230   0.005602   0.529100   0.402210  -0.054966
    15  C    0.260432   0.005602   4.754939  -0.060886   0.007406   0.505888
    16  C   -0.008429   0.529100  -0.060886   4.772943  -0.035883  -0.020522
    17  H   -0.040374   0.402210   0.007406  -0.035883   0.678079  -0.000785
    18  C   -0.041154  -0.054966   0.505888  -0.020522  -0.000785   4.815173
    19  C   -0.047569  -0.016781  -0.012883   0.483850   0.008371   0.511145
    20  H    0.008806  -0.036257  -0.000269   0.400907  -0.012646   0.008312
    21  H    0.013099  -0.000589  -0.022492   0.007364   0.000044   0.376546
    22  H   -0.001150   0.008862   0.008970  -0.044893  -0.000156  -0.040342
    23  C    0.333650  -0.092386  -0.080531   0.007212  -0.018536   0.007044
    24  O   -0.078343   0.004606   0.545588  -0.000009  -0.000062  -0.061698
    25  H   -0.022567  -0.000412  -0.030591  -0.000015  -0.000014   0.004367
              19         20         21         22         23         24
     1  C   -0.000000  -0.000000  -0.000000   0.000000   0.003462   0.000002
     2  C    0.000000  -0.000000   0.000000  -0.000000  -0.051171  -0.000101
     3  C    0.000001  -0.000000   0.000002  -0.000000  -0.113493  -0.001572
     4  C   -0.000000   0.000000  -0.000000  -0.000000   0.002455  -0.000085
     5  C    0.000000  -0.000000   0.000000  -0.000000   0.000157  -0.000002
     6  C    0.000000  -0.000000   0.000000  -0.000000  -0.000145  -0.000000
     7  H    0.000000  -0.000000  -0.000000   0.000000   0.000057  -0.000000
     8  H    0.000000  -0.000000   0.000000  -0.000000  -0.000753  -0.000335
     9  H   -0.000000   0.000000  -0.000000  -0.000000   0.000007   0.000000
    10  H   -0.000000   0.000000   0.000000  -0.000000   0.000003  -0.000000
    11  N    0.000065   0.000001   0.000033  -0.000000   0.530843  -0.092383
    12  S    0.000016  -0.000001   0.000003  -0.000000   0.323603  -0.000376
    13  C   -0.047569   0.008806   0.013099  -0.001150   0.333650  -0.078343
    14  C   -0.016781  -0.036257  -0.000589   0.008862  -0.092386   0.004606
    15  C   -0.012883  -0.000269  -0.022492   0.008970  -0.080531   0.545588
    16  C    0.483850   0.400907   0.007364  -0.044893   0.007212  -0.000009
    17  H    0.008371  -0.012646   0.000044  -0.000156  -0.018536  -0.000062
    18  C    0.511145   0.008312   0.376546  -0.040342   0.007044  -0.061698
    19  C    4.731082  -0.047181  -0.045944   0.404984   0.000289   0.003786
    20  H   -0.047181   0.682158  -0.000174  -0.011990  -0.000317   0.000002
    21  H   -0.045944  -0.000174   0.666872  -0.011869  -0.000396   0.004702
    22  H    0.404984  -0.011990  -0.011869   0.667382   0.000007  -0.000082
    23  C    0.000289  -0.000317  -0.000396   0.000007   5.081317  -0.006558
    24  O    0.003786   0.000002   0.004702  -0.000082  -0.006558   7.769041
    25  H   -0.000326  -0.000001   0.000011   0.000011  -0.001713   0.242388
              25
     1  C   -0.000009
     2  C    0.004947
     3  C   -0.016666
     4  C   -0.003017
     5  C   -0.000023
     6  C    0.000006
     7  H    0.000002
     8  H    0.001544
     9  H   -0.000009
    10  H   -0.000000
    11  N    0.197750
    12  S    0.002586
    13  C   -0.022567
    14  C   -0.000412
    15  C   -0.030591
    16  C   -0.000015
    17  H   -0.000014
    18  C    0.004367
    19  C   -0.000326
    20  H   -0.000001
    21  H    0.000011
    22  H    0.000011
    23  C   -0.001713
[...]
 ,0.,-0.00002336,-0.00007353,0.,0.00004465,0.00003254,0.,0.00005857,-0.
 00002054,0.,0.00002930,0.00000664,0.,-0.00388343,0.00766360,-0.0000000
 3,-0.00155646,0.00105490,0.00000001,-0.03921453,0.02538528,0.00000056,
 -0.18018788,0.12346701,0.00000259,0.00771374,-0.00015477,-0.00000017,0
 .72576584,-0.00119011,-0.00202453,0.,-0.01052916,-0.00742318,-0.000000
 04,-0.01490336,0.02073324,0.00000012,0.01335553,-0.00192200,-0.0000000
 7,-0.00033835,0.00983139,0.00000010,-0.00328191,-0.00348685,-0.0000000
 2,0.00000352,0.00028015,0.,-0.00010817,-0.00014277,0.,-0.00017812,0.00
 012859,0.,-0.00005023,-0.00005595,0.,0.01739076,-0.02130336,-0.0000001
 1,0.00271463,-0.00561310,-0.00000008,0.06310483,0.01776232,0.00000068,
 0.03376750,-0.24399975,-0.00000480,0.00499232,-0.00600461,-0.00000031,
 0.01946656,0.60972265,-0.00000005,-0.00000004,-0.00003943,-0.00000025,
 -0.00000022,-0.00009750,-0.00000042,0.00000057,-0.00023392,0.00000036,
 -0.00000005,-0.00019894,-0.00000001,0.00000025,-0.00002578,-0.00000006
 ,-0.00000009,0.00000871,0.,0.,-0.00002320,0.,0.,-0.00000856,0.,0.,0.00
 001233,0.,0.,0.00003546,0.00000046,-0.00000053,0.00213689,0.00000006,-
 0.00000017,0.00002897,0.00000110,0.00000073,0.00157053,0.00000062,-0.0
 0000477,-0.05255166,0.00000025,-0.00000006,-0.00460772,0.00000384,0.00
 001407,0.13044128,0.00017945,0.00002389,0.,-0.00064173,0.00010645,0.00
 000003,0.00030833,0.00000206,0.,0.00003765,0.00005874,0.,0.00005592,0.
 00006183,0.,-0.00004476,-0.00007117,0.,-0.00001302,-0.00000011,0.,0.00
 002456,0.00000288,0.,0.00000524,-0.00000090,0.,0.00002474,-0.00000183,
 0.,0.00037247,0.00058806,0.00000004,-0.00061100,0.00118056,-0.00000006
 ,-0.00798853,-0.02876822,-0.00000080,-0.11237671,-0.11340410,-0.000003
 66,-0.00494968,0.00312838,-0.00000010,0.01101061,0.01768014,0.00000051
 ,0.11614025,-0.00003666,-0.00004477,0.,-0.00008982,0.00019433,0.,0.000
 02216,0.00022744,-0.00000001,0.00007747,-0.00000568,0.,0.00000386,0.00
 010847,0.,-0.00007738,-0.00003453,0.,-0.00000178,0.00001426,0.,0.00000
 077,-0.00000808,0.,-0.00000708,0.00000091,0.,-0.00001012,0.00000320,0.
 ,0.00023610,0.00039981,0.00000006,-0.00048196,-0.00014755,0.,0.0022679
 3,0.00118194,-0.00000003,-0.11195718,-0.28857988,-0.00000753,0.0010553
 0,0.00141778,-0.00000020,-0.01406901,-0.01834685,-0.00000061,0.1193943
 3,0.30463246,0.00000002,0.,-0.00002892,-0.00000001,0.00000004,-0.00019
 704,0.00000004,-0.00000006,0.00024395,-0.00000002,0.,0.00006146,0.,0.,
 0.00001182,-0.00000001,0.,0.00001375,0.,0.,0.00000672,0.,0.,0.00001319
 ,0.,0.,0.00000044,0.,0.,-0.00000692,-0.00000005,0.00000004,-0.00155243
 ,-0.00000006,0.00000003,0.00032304,0.00000026,-0.00000038,0.00439857,-
 0.00000382,-0.00000749,-0.03318189,-0.00000006,-0.00000007,0.00793300,
 -0.00000027,-0.00000057,0.00253454,0.00000392,0.00000831,0.02149915,-0
 .00209498,0.00081628,0.,-0.00313845,-0.00427105,-0.00000002,-0.0064323
 8,0.01203533,0.00000008,0.00626686,-0.00080687,-0.00000002,-0.00040220
 ,0.00286227,0.00000003,0.00119739,-0.00140732,-0.00000002,-0.00012548,
 0.00008855,0.,0.00007801,-0.00000567,0.,0.00007918,0.00002306,0.,0.000
 09099,-0.00004997,0.,0.01518850,0.00326644,-0.00000010,-0.00026540,-0.
 00432570,0.,0.02475171,0.01590934,0.00000061,-0.02619789,0.02643515,0.
 00000062,-0.15008761,0.07275163,0.00000207,-0.02155403,-0.06945155,-0.
 00000192,-0.00067741,0.00021522,-0.00000006,0.74309410,0.00061667,-0.0
 0014101,0.,-0.00055954,-0.00056951,-0.00000003,0.00046909,-0.00033342,
 -0.00000005,-0.00066492,0.00009255,0.,0.00021281,-0.00001121,0.,-0.000
 53798,-0.00007259,0.,0.00000816,0.00001852,0.,-0.00004293,-0.00001731,
 0.,-0.00002483,-0.00000758,0.,0.00000770,0.00000959,0.,0.00116084,-0.0
 0099799,0.00000021,0.00132393,-0.00125716,-0.00000004,0.01314756,-0.03
 624525,-0.00000127,0.00240595,-0.00372421,0.00000003,0.09955113,-0.267
 87017,-0.00000551,-0.03394532,-0.00166317,-0.00000033,-0.00009125,0.00
 068995,0.00000010,0.04367415,0.70267563,0.,0.,0.00017148,0.00000006,0.
 00000001,0.00079182,0.00000003,-0.00000015,0.00172701,-0.00000008,0.00
 000002,-0.00044509,0.,-0.00000005,-0.00001066,0.00000001,0.00000002,-0
 .00009840,0.,0.,0.00008314,0.,0.,0.00007282,0.,0.,0.00004638,0.,0.,-0.
 00007607,-0.00000005,0.,-0.00675296,0.00000002,0.00000003,0.00117485,0
 .00000022,-0.00000090,0.01088726,0.00000027,-0.00000010,-0.00238650,0.
 00000291,-0.00000568,-0.06643645,-0.00000103,-0.00000021,0.00563558,0.
 00000002,0.00000006,-0.00104612,-0.00000027,0.00001584,0.10827910,0.00
 263084,-0.00001875,0.,0.00634630,0.00704876,0.00000004,0.01271282,-0.0
 1923164,-0.00000009,-0.01078817,0.00148453,0.00000005,0.00059102,-0.00
 622847,-0.00000006,-0.00003782,0.00273427,0.00000003,0.00008627,-0.000
 13112,0.,0.00001693,0.00006058,0.,-0.00003590,-0.00005480,0.,-0.000052
 22,0.00007688,0.,-0.02114396,0.01208388,0.00000011,0.00047045,0.005239
 51,0.00000004,-0.02228533,-0.01955018,-0.00000057,0.06250880,-0.016857
 15,-0.00000014,-0.04338263,0.02738206,0.00000107,-0.15228777,-0.018989
 89,-0.00000118,-0.00174917,0.00451444,0.00000014,-0.37359416,-0.043981
 60,-0.00000100,0.70180564,-0.00008943,0.00062050,0.,0.00101231,0.00010
 299,0.00000001,0.00194674,-0.00075694,-0.00000001,-0.00155841,0.000266
 32,0.00000002,0.00006245,-0.00129311,-0.00000001,0.00077743,0.00009571
 ,0.,-0.00002345,-0.00002047,0.,0.00001532,-0.00002105,0.,0.00004603,-0
 .00003574,0.,0.00002155,0.00002044,0.,0.00246132,0.00539308,-0.0000000
 2,-0.00132131,-0.00001128,-0.00000001,-0.02217436,-0.00927882,-0.00000
 045,0.02976543,-0.06073973,-0.00000197,0.02017743,0.02147271,0.0000006
 0,-0.10353707,-0.28301675,-0.00000731,0.00349311,-0.00175468,-0.000000
 08,0.00085152,-0.11814056,-0.00000172,-0.05194193,0.69393039,0.,0.0000
 0002,0.00018631,0.00000003,0.,-0.00032878,0.00000007,0.,-0.00113331,-0
 .00000005,0.,0.00011783,0.,-0.00000005,0.00008659,0.00000003,0.,0.0000
 0659,0.,0.,-0.00003841,0.,0.,-0.00010831,0.,0.,-0.00000768,0.,0.,-0.00
 000435,0.00000012,0.00000021,0.00204914,-0.00000007,-0.00000002,0.0001
 1620,-0.00000068,-0.00000017,-0.00196049,0.00000096,-0.00000201,0.0079
 4170,0.00000068,0.00000035,0.00244793,-0.00000339,-0.00000694,-0.05862
 117,0.00000007,-0.00000017,0.00466938,-0.00000007,-0.00000178,-0.04764
 813,-0.00000092,0.00001731,0.10977396,0.00006063,-0.00008019,0.,-0.000
 11723,0.00007448,0.,-0.00001114,-0.00003717,0.,0.00001658,0.00001542,0
 .,0.00000973,0.00009572,0.,-0.00013624,-0.00000805,0.,0.00000421,0.000
 01011,0.,-0.00000242,-0.00000658,0.,-0.00001274,0.00000454,0.,-0.00000
 818,0.00000437,0.,-0.00011699,0.00039501,0.,0.00004402,-0.00003435,0.,
 0.00073021,0.00293813,0.00000006,-0.01310934,-0.00557025,-0.00000029,0
 .00062448,0.00016979,0.00000001,-0.34268412,-0.03268314,-0.00000267,0.
 00077381,0.00007922,0.00000002,0.00122647,-0.00234689,-0.00000011,-0.0
 0743173,0.00257852,0.00000002,0.36059564,-0.00001650,0.00001011,0.,-0.
 00006178,-0.00012776,0.,-0.00002580,0.00026064,-0.00000002,0.00011274,
 -0.00005797,0.,0.00000922,0.00007140,0.,0.00000065,-0.00003641,0.,-0.0
 0000098,-0.00000067,0.,0.00000022,0.00000077,0.,0.00000340,-0.00000314
 ,0.,0.00000289,-0.00000184,0.,0.00051526,-0.00039702,0.00000003,0.0000
 3155,-0.00000844,0.,0.00312417,-0.00445791,-0.00000025,0.02508607,0.00
 650933,0.00000014,0.00040201,-0.00110369,0.,-0.03291498,-0.06295466,-0
 .00000101,-0.00015864,0.00084925,0.00000011,-0.00155822,-0.00530901,-0
 .00000033,-0.02877109,0.00245794,-0.00000027,0.03488973,0.06201548,0.,
 0.,-0.00001880,-0.00000002,-0.00000002,0.00003895,-0.00000003,0.000000
 05,0.00056516,0.00000003,0.,0.00009972,0.,0.00000002,-0.00006896,0.,0.
 ,0.00001257,0.,0.,0.00000827,0.,0.,0.00003594,0.,0.,-0.00002088,0.,0.,
 -0.00000369,0.00000006,-0.00000006,-0.00072479,0.,-0.00000001,-0.00008
 077,0.00000010,-0.00000027,0.00567070,0.00000052,0.00000014,0.00672395
 ,0.00000002,-0.00000003,-0.00127020,-0.00000265,-0.00000118,-0.0377968
 0,0.00000002,0.00000011,-0.00326385,-0.00000007,-0.00000037,0.00526877
 ,-0.00000088,0.,0.00694558,0.00000292,0.00000138,0.02234580,-0.0000840
 6,0.00002041,0.,0.00004838,0.00005952,0.,-0.00009119,0.00007937,0.,0.0
 0004357,0.00000332,0.,-0.00002174,-0.00002580,0.,0.00007041,0.00000719
 ,0.,0.00000098,-0.00000395,0.,-0.00000426,0.00000159,0.,0.00000353,0.0
 0000025,0.,-0.00000179,-0.00000225,0.,0.00011126,-0.00033600,-0.000000
 02,-0.00025364,0.00005787,0.,-0.00300108,0.00281471,0.00000009,0.00024
 696,0.00014078,0.,0.00884254,0.01853670,0.00000047,-0.00580048,0.00116
 513,0.00000005,0.00009640,-0.00011166,0.,-0.11213405,-0.11685920,-0.00
 000296,-0.00521114,-0.02781009,-0.00000071,-0.00045803,-0.00138842,-0.
 00000006,0.11395526,0.00007268,0.00003470,0.00000001,-0.00011073,-0.00
 005588,0.,0.00015404,0.00002685,-0.00000002,-0.00001973,-0.00000873,0.
 ,0.00000830,-0.00001873,0.,0.00001290,-0.00002086,0.,-0.00000671,0.000
 00267,0.,0.00000891,0.00000210,0.,0.00000569,-0.00000177,0.,0.00000847
 ,-0.00000041,0.,-0.00029164,0.00067576,0.00000001,0.00027807,-0.000152
 80,0.,0.00401138,-0.00191866,-0.00000016,0.00017472,0.00029519,0.00000
 002,-0.01469577,-0.01885538,-0.00000050,0.00027378,0.00120676,-0.00000
 014,-0.00008811,-0.00004018,0.00000001,-0.11357263,-0.29348757,-0.0000
 0660,0.00263526,0.00288378,-0.00000003,0.00012619,0.00002722,0.0000000
 2,0.12330243,0.30752360,0.00000002,0.,-0.00036315,-0.00000002,0.,-0.00
 010284,0.00000002,-0.00000002,0.00044035,0.,0.,0.00000053,0.,0.,-0.000
 06731,-0.00000002,0.,0.00003942,0.,0.,-0.00000336,0.,0.,0.00005701,0.,
 0.,-0.00000394,0.,0.,0.00006829,-0.00000008,0.,-0.00012214,0.00000004,
 0.,-0.00029437,0.00000012,-0.00000009,0.00335159,0.00000004,-0.0000000
 2,-0.00042752,-0.00000053,-0.00000055,0.00381176,0.00000002,-0.0000000
 8,0.00657336,0.,0.00000001,-0.00039443,-0.00000262,-0.00000656,-0.0327
 5357,-0.00000015,-0.00000011,0.00454667,0.,0.00000003,-0.00056980,0.00
 000310,0.00000707,0.02212881,0.00002833,-0.00002084,0.,-0.00006095,0.0
 0004837,0.,0.00013111,0.00002708,0.,0.00000425,-0.00000380,0.,0.000010
 01,0.00005194,0.,-0.00006086,-0.00001493,0.,-0.00000039,0.00000681,0.,
 0.00000198,-0.00000506,0.,-0.00000699,0.00000165,0.,-0.00000354,0.0000
 0314,0.,0.00027781,0.00063196,0.,-0.00003490,0.00008705,0.,-0.00014603
 ,-0.00062304,0.,-0.00084613,-0.00267684,-0.00000010,-0.00349975,-0.003
 07928,-0.00000009,0.01062252,-0.01270887,-0.00000037,0.00038210,-0.000
 56952,-0.00000001,-0.01173789,0.02683588,0.00000075,-0.16309059,0.1400
 1267,0.00000386,0.00070294,0.00039363,0.00000002,0.00110713,-0.0003097
 6,-0.00000001,0.16853407,0.00005173,0.00005986,0.,0.00030075,0.0002676
 1,0.,0.00047163,-0.00072805,0.,-0.00041710,0.00006409,0.,0.00001044,-0
 .00031913,0.,0.00011208,0.00011732,0.,-0.00000176,-0.00001189,0.,0.000
 00584,0.00000913,0.,0.00000897,-0.00000405,0.,0.00000530,-0.00000076,0
 .,-0.00082085,0.00035518,-0.00000001,-0.00007153,0.00023820,0.,-0.0011
 6656,0.00044171,0.00000005,-0.00271954,-0.00349411,-0.00000027,-0.0019
 0400,0.00029347,-0.00000018,0.01940908,-0.01555135,-0.00000046,0.00086
 245,-0.00102652,-0.00000004,-0.00499817,0.00663521,0.00000007,0.139243
 70,-0.24399990,-0.00000608,-0.00008384,0.00095768,0.00000013,0.0002781
 3,0.00056197,0.00000013,-0.14909044,0.25489169,0.,0.,0.00001337,0.,0.0
 0000001,0.00002151,0.00000002,-0.00000002,-0.00010285,-0.00000001,0.,0
 .00003705,0.,0.,0.00000580,0.,0.,0.00000062,0.,0.,0.00000092,0.,0.,0.0
 0000578,0.,0.,-0.00000176,0.,0.,-0.00001067,-0.00000002,0.00000001,0.0
 0041045,0.,0.,-0.00020224,-0.00000004,0.00000005,-0.00130367,-0.000000
 15,-0.00000029,0.00468033,-0.00000004,-0.00000016,0.00711573,0.0000006
 0,-0.00000055,0.00213950,0.00000003,-0.00000006,0.00089657,-0.00000004
 ,0.00000012,0.00387333,0.00000376,-0.00000605,-0.03191875,0.00000003,0
 .00000013,-0.00324404,0.,0.00000011,-0.00382909,-0.00000410,0.00000664
 ,0.02231266,-0.00360808,-0.00718953,-0.00000005,-0.01272819,0.01444863
 ,0.00000009,-0.08486167,0.04358755,0.00000022,0.01792311,-0.00222739,-
 0.00000007,-0.00178365,0.01181518,0.00000013,-0.00689454,-0.00378803,-
 0.00000001,0.00040937,-0.00039724,-0.00000001,-0.00050006,-0.00023014,
 0.,-0.00010446,0.00013590,0.,-0.00061925,-0.00017601,0.,-0.33444188,-0
 .06604957,0.00000021,-0.04556667,-0.03263812,-0.00000003,-0.17885747,0
 .10771972,0.00000048,-0.03736712,0.04003323,0.00000053,0.02568156,0.00
 618304,-0.00000010,-0.00184622,-0.01715655,-0.00000052,0.00035146,-0.0
 0001107,0.00000001,-0.00951759,-0.00843536,-0.00000008,0.00925695,0.00
 064595,0.,-0.00063398,0.00058622,0.,0.00069949,-0.00101920,0.00000002,
 -0.00021400,0.00060366,0.00000001,0.67272223,-0.00247221,0.00190776,0.
 00000003,0.03570763,-0.01558142,-0.00000014,0.02349701,0.00012410,-0.0
 0000020,-0.00037427,-0.00552991,-0.00000004,-0.00090639,-0.00418488,-0
 .00000004,0.00425711,0.00046857,-0.00000002,0.00009800,-0.00075554,0.,
 -0.00023131,0.00023723,0.,0.00047624,-0.00044602,0.,-0.00016800,-0.000
 00064,0.,-0.06035487,-0.10605324,-0.00000030,-0.00702258,-0.12510191,-
 0.00000034,0.08091205,-0.20960194,-0.00000130,0.01997938,0.00862537,0.
 00000016,0.02172266,-0.05137676,-0.00000050,-0.00459344,0.00057409,-0.
 00000019,-0.00123552,0.00068772,0.00000009,-0.01515428,0.00378008,-0.0
 0000002,0.00863662,0.00247162,0.00000006,-0.00048900,0.00108791,0.0000
 0007,0.00032367,-0.00053342,-0.00000003,0.00025612,0.00009462,0.000000
 02,-0.08284871,0.50474372,-0.00000004,0.00000005,0.00140890,0.00000032
 ,-0.00000024,-0.00128690,0.00000024,-0.00000003,0.00521958,0.,-0.00000
 006,0.00379317,0.,-0.00000006,0.00108379,0.00000008,0.,0.00072835,0.,0
 .,-0.00031785,0.,0.,-0.00078445,0.,0.,-0.00062443,0.,0.,-0.00023306,-0
 .00000003,-0.00000037,-0.03586381,-0.00000002,-0.00000014,-0.01902564,
 0.00000033,-0.00000152,-0.03695856,0.00000014,0.00000030,0.00749088,0.
 00000021,-0.00000064,0.00500249,-0.00000011,-0.00000009,0.00323793,0.0
 0000001,0.00000006,-0.00171586,-0.00000007,-0.00000003,-0.00028594,-0.
 00000009,0.00000013,-0.00090042,0.00000001,0.00000005,-0.00092865,0.,-
 0.00000006,0.00167970,0.,0.,0.00003366,-0.00000088,0.00000272,0.068425
 40,0.00102696,0.00143374,0.00000002,0.00195074,0.00634976,0.00000006,0
 .01483707,-0.00602277,-0.00000006,-0.00391355,0.00041866,0.00000002,-0
 .00030727,-0.00335447,-0.00000003,0.00165268,0.00126415,0.,-0.00023622
 ,0.00017351,0.,0.00034727,0.00006829,0.,0.00000732,0.00004599,0.,0.000
 02566,0.00006808,0.,0.00187268,0.06054846,0.00000048,0.00059022,0.0046
 4220,0.00000004,-0.04519681,-0.01672096,0.00000008,0.01917685,-0.01091
 665,-0.00000021,-0.43731104,-0.06711206,0.00000240,-0.01118273,0.01234
 551,0.00000032,-0.00120648,-0.00067526,-0.00000004,-0.07371736,0.02051
 463,0.00000134,0.00306409,0.00177841,-0.00000005,-0.00014410,-0.000268
 44,0.00000003,0.00195518,-0.00122978,0.00000008,-0.00217220,-0.0000780
 9,-0.00000004,-0.00575182,-0.00190832,-0.00000002,0.56002313,-0.001747
 07,-0.00137340,0.,-0.00080318,-0.00858497,-0.00000004,-0.02220115,0.00
 179105,0.00000005,0.00399932,-0.00120972,-0.00000002,0.00016351,0.0031
 9103,0.00000002,-0.00056270,-0.00169858,-0.00000002,0.00031019,-0.0004
 2939,0.,0.00000658,0.00016168,0.,0.00022475,-0.00012942,0.,0.00007933,
 -0.00011588,0.,0.03125093,-0.10948005,-0.00000120,0.00036789,-0.004390
 63,-0.00000002,-0.02793855,-0.01038266,-0.00000002,-0.01167778,-0.0047
 0350,-0.00000022,-0.06038463,-0.11367568,-0.00000047,0.00164498,-0.009
 43846,-0.00000023,-0.00172937,0.00020583,-0.00000002,0.04848278,0.0143
 4921,-0.00000038,0.00422024,-0.00228433,-0.00000013,0.00002096,0.00045
 164,0.00000001,-0.00104795,0.00277587,0.00000022,0.00193596,0.00043094
 ,0.00000003,0.00991655,0.01346414,0.00000015,0.04705415,0.23810036,0.0
 0000001,-0.00000002,0.00042520,0.00000005,-0.00000002,-0.00103392,-0.0
 0000011,-0.00000016,-0.00095093,-0.00000006,0.,0.00049460,0.00000001,-
 0.00000002,0.00020324,-0.00000002,0.00000002,0.00005369,0.,0.,-0.00007
 388,0.,0.,-0.00022393,0.,0.,-0.00006214,0.,0.,-0.00009785,0.00000016,-
 0.00000122,0.02218865,0.,0.,-0.00154203,-0.00000026,-0.00000064,0.0149
 2026,-0.00000019,-0.00000003,0.00186720,0.00000250,-0.00000005,-0.0529
 4115,0.00000011,-0.00000017,0.00014626,0.,0.00000004,-0.00184760,0.000
 00186,-0.00000030,0.01430790,-0.00000005,-0.00000018,0.00344505,0.,0.,
 0.00020443,0.00000002,0.00000022,-0.00327351,0.00000005,0.00000002,-0.
 00042731,0.00000005,0.00000022,-0.00290149,-0.00000397,0.00000207,0.03
 975791,-0.00007203,-0.00015009,0.,-0.00338023,-0.00137964,0.,-0.001100
 19,0.01199392,0.00000008,0.00274547,-0.00024334,-0.00000001,0.00000705
 ,0.00144439,0.00000001,-0.00045277,-0.00063001,0.,-0.00000838,0.000065
 20,0.,-0.00060715,-0.00023726,0.,0.00004181,-0.00003243,0.,-0.00000330
 ,-0.00007927,0.,-0.04817691,-0.02570890,-0.00000024,-0.00267610,-0.004
 86234,0.,0.00427635,-0.00393046,-0.00000007,-0.00516846,0.00259527,0.0
 0000003,-0.03566853,0.02569724,0.00000054,0.00131087,-0.00441704,-0.00
 000012,0.00049551,0.00023169,0.,-0.00029635,-0.00243868,-0.00000007,0.
 00160046,0.00280986,0.00000012,0.00007753,0.00000707,0.,-0.00011961,0.
 00027124,0.,0.00007197,-0.00001189,0.,-0.00174753,-0.01810760,-0.00000
 009,-0.02539027,-0.02158573,-0.00000018,0.11424077,0.00362858,0.001204
 90,0.00000001,0.00298190,0.01466181,0.00000009,0.03500961,-0.01364596,
 -0.00000005,-0.00896308,0.00325068,0.00000005,-0.00064500,-0.00632118,
 -0.00000005,0.00057873,0.00276822,0.00000003,-0.00039182,0.00056037,0.
 ,0.00036949,-0.00031256,-0.00000001,-0.00036421,0.00024869,0.,-0.00016
 078,0.00022146,0.,-0.03574686,-0.00441611,0.00000012,0.00299578,0.0134
 2891,0.00000006,-0.02640756,0.01612351,0.00000021,0.02564041,-0.012029
 47,-0.00000014,0.05354363,0.01072780,-0.00000024,-0.00593368,0.0227081
 6,0.00000059,-0.00103367,-0.00062463,-0.00000002,-0.01181028,0.0015969
 8,0.00000011,-0.00960413,-0.00836214,-0.00000031,-0.00006273,-0.000240
 84,0.00000002,0.00079422,-0.00092209,0.00000001,-0.00118989,-0.0002829
 1,-0.00000001,-0.01350873,-0.01910123,-0.00000024,-0.04841875,-0.00702
 509,0.00000022,0.03869880,-0.01421729,0.00000005,0.,0.00035740,-0.0000
 0001,0.00000013,0.00195990,0.00000031,-0.00000006,-0.00342874,-0.00000
 007,0.00000003,-0.00100391,0.,-0.00000004,-0.00023476,0.,0.00000002,-0
 .00004431,0.,0.,-0.00006100,0.,0.,0.00020432,0.,0.,0.00007866,0.,0.,0.
 00006581,-0.00000038,0.00000026,-0.02876956,0.00000005,0.00000010,0.00
 154511,-0.00000035,0.00000041,-0.00520583,0.00000025,-0.00000014,0.000
 19779,0.00000079,-0.00000034,0.00208065,-0.00000008,0.00000025,-0.0002
 9668,-0.00000002,-0.00000002,0.00062949,0.00000001,-0.00000003,0.00562
 043,-0.00000008,-0.00000016,0.00033687,0.,0.,0.00007139,0.,0.00000002,
 -0.00049247,0.,0.00000001,-0.00050691,0.,-0.00000022,0.00372321,-0.000
 00045,0.00000022,-0.03263864,0.,-0.00000044,0.05581176\\0.00143176,-0.
 00103060,-0.00000005,-0.00120066,-0.00278848,0.00000004,-0.00328120,-0
 .00036136,0.00000016,-0.00083966,0.00116841,0.00000003,0.00061241,0.00
 307735,0.,0.00151720,0.00131795,-0.00000006,0.00030281,-0.00020607,0.,
 -0.00026120,0.00023405,0.,0.00006560,0.00031621,0.,0.00025953,0.000175
 55,0.,0.00108291,-0.00348491,-0.00000032,-0.00187236,-0.00753721,0.000
 00022,0.00096970,-0.00170511,-0.00000012,-0.00297607,0.00151367,-0.000
 00027,-0.00283932,-0.00149375,-0.00000005,0.00069508,0.00070496,-0.000
 00009,-0.00026205,0.00013036,-0.00000005,0.00241384,0.00018096,0.00000
 019,0.00262642,0.00223191,0.00000020,0.00000943,0.00027223,-0.00000002
 ,0.00030945,-0.00002004,0.00000002,0.00029152,0.00025450,0.00000003,0.
 00039703,-0.00017937,0.00000010,0.00234268,0.00094491,-0.00000030,-0.0
 0179485,0.00628386,0.00000032\\\@
 The archive entry for this job was punched.


 IN THE LONG RUN, DIGGING FOR TRUTH HAS ALWAYS PROVED NOT ONLY 
 MORE INTERESTING BUT MORE PROFITABLE THAN DIGGING FOR GOLD.

                             -- GEORGE R. HARRISON
 Job cpu time:       0 days  2 hours 53 minutes 35.7 seconds.
 Elapsed time:       0 days  0 hours 17 minutes 52.1 seconds.
 File lengths (MBytes):  RWF=   1380 Int=      0 D2E=      0 Chk=     48 Scr=      8
 Normal termination of Gaussian 16 at Mon Jul 13 15:18:41 2020.
