 Entering Gaussian System, Link 0=g16
 Initial command:
 /gpfs/loomis/apps/avx/software/Gaussian/16-C.01_AVX/g16/l1.exe "/home/fas/batista/pev4/scratch60/gauss-scratch/Gau-157888.inp" -scrdir="/home/fas/batista/pev4/scratch60/gauss-scratch/"
 Entering Link 1 = /gpfs/loomis/apps/avx/software/Gaussian/16-C.01_AVX/g16/l1.exe PID=    157889.
  
 Copyright (c) 1988-2019, Gaussian, Inc.  All Rights Reserved.
  
 This is part of the Gaussian(R) 16 program.  It is based on
 the Gaussian(R) 09 system (copyright 2009, Gaussian, Inc.),
 the Gaussian(R) 03 system (copyright 2003, Gaussian, Inc.),
 the Gaussian(R) 98 system (copyright 1998, Gaussian, Inc.),
 the Gaussian(R) 94 system (copyright 1995, Gaussian, Inc.),
 the Gaussian 92(TM) system (copyright 1992, Gaussian, Inc.),
 the Gaussian 90(TM) system (copyright 1990, Gaussian, Inc.),
 the Gaussian 88(TM) system (copyright 1988, Gaussian, Inc.),
 the Gaussian 86(TM) system (copyright 1986, Carnegie Mellon
 University), and the Gaussian 82(TM) system (copyright 1983,
 Carnegie Mellon University). Gaussian is a federally registered
 trademark of Gaussian, Inc.
  
 This software contains proprietary and confidential information,
 including trade secrets, belonging to Gaussian, Inc.
  
 This software is provided under written license and may be
 used, copied, transmitted, or stored only in accord with that
 written license.
  
 The following legend is applicable only to US Government
 contracts under FAR:
  
                    RESTRICTED RIGHTS LEGEND
  
 Use, reproduction and disclosure by the US Government is
 subject to restrictions as set forth in subparagraphs (a)
 and (c) of the Commercial Computer Software - Restricted
 Rights clause in FAR 52.227-19.
  
 Gaussian, Inc.
 340 Quinnipiac St., Bldg. 40, Wallingford CT 06492
  
  
 ---------------------------------------------------------------
 Warning -- This program may not be used in any manner that
 competes with the business of Gaussian, Inc. or will provide
 assistance to any competitor of Gaussian, Inc.  The licensee
 of this program is prohibited from giving any competitor of
 Gaussian, Inc. access to this program.  By using this program,
 the user acknowledges that Gaussian, Inc. is engaged in the
 business of creating and licensing software in the field of
 computational chemistry and represents and warrants to the
 licensee that it is not a competitor of Gaussian, Inc. and that
 it will not use this program in any manner prohibited above.
 ---------------------------------------------------------------
  

 Cite this work as:
 Gaussian 16, Revision C.01,
 M. J. Frisch, G. W. Trucks, H. B. Schlegel, G. E. Scuseria, 
 M. A. Robb, J. R. Cheeseman, G. Scalmani, V. Barone, 
 G. A. Petersson, H. Nakatsuji, X. Li, M. Caricato, A. V. Marenich, 
 J. Bloino, B. G. Janesko, R. Gomperts, B. Mennucci, H. P. Hratchian, 
 J. V. Ortiz, A. F. Izmaylov, J. L. Sonnenberg, D. Williams-Young, 
 F. Ding, F. Lipparini, F. Egidi, J. Goings, B. Peng, A. Petrone, 
 T. Henderson, D. Ranasinghe, V. G. Zakrzewski, J. Gao, N. Rega, 
 G. Zheng, W. Liang, M. Hada, M. Ehara, K. Toyota, R. Fukuda, 
 J. Hasegawa, M. Ishida, T. Nakajima, Y. Honda, O. Kitao, H. Nakai, 
 T. Vreven, K. Throssell, J. A. Montgomery, Jr., J. E. Peralta, 
 F. Ogliaro, M. J. Bearpark, J. J. Heyd, E. N. Brothers, K. N. Kudin, 
 V. N. Staroverov, T. A. Keith, R. Kobayashi, J. Normand, 
 K. Raghavachari, A. P. Rendell, J. C. Burant, S. S. Iyengar, 
 J. Tomasi, M. Cossi, J. M. Millam, M. Klene, C. Adamo, R. Cammi, 
 J. W. Ochterski, R. L. Martin, K. Morokuma, O. Farkas, 
 J. B. Foresman, and D. J. Fox, Gaussian, Inc., Wallingford CT, 2019.
 
 ******************************************
 Gaussian 16:  ES64L-G16RevC.01  3-Jul-2019
                13-Jul-2020 
 ******************************************
 %chk=config_4_10.chk
 %mem=58GB
 %nprocshared=10
 Will use up to   10 processors via shared memory.
 ----------------------------------------------------------------------
 #p opt=addgic freq td wb97xd/cc-pvdz nosymm int=ultrafine scrf=(solven
 t=CarbonTetraChloride)
 ----------------------------------------------------------------------
 1/18=20,19=15,26=6,38=1,145=903/1,3;
 2/9=110,12=2,15=1,17=6,18=5,40=1/2;
 3/5=16,11=9,25=1,30=1,70=2201,71=1,72=11,74=-58,75=-5/1,2,3,8;
 4//1;
 5/5=2,38=5,53=11/2;
 8/6=1,10=1/1;
 9/15=2,42=1,70=2/14;
 10/5=4,31=1/2;
 6/7=2,8=2,9=2,10=2/1;
 7/12=6,13=5,30=1/1,2,3,16;
 1/18=20,19=15,26=6,145=903/3(2);
 2/9=110,15=1/2;
 99//99;
 2/9=110,15=1/2;
 3/5=16,11=9,25=1,30=1,70=2205,71=1,72=11,74=-58,75=-5/1,2,3,8;
 4/5=5,16=3,69=1/1;
 5/5=2,38=5,53=11/2;
 8/6=1,10=1/1;
 9/15=2,42=1,49=4,70=2/14;
 10/5=4,31=1/2;
 7/12=6,13=5,30=1/1,2,3,16;
 1/18=20,19=15,26=6,145=903/3(-8);
 2/9=110,15=1/2;
 6/7=2,8=2,9=2,10=2/1;
 99/9=10/99;
 Leave Link    1 at Mon Jul 13 13:30:50 2020, MaxMem=  7784628224 cpu:               4.3 elap:               0.5
 (Enter /gpfs/loomis/apps/avx/software/Gaussian/16-C.01_AVX/g16/l101.exe)
 ------------------------------------------------
 NM 2D-scan of HBT TD-WB97XD pVDZ in CTC Relaxed.
 ------------------------------------------------
 Symbolic Z-matrix:
 Charge =  0 Multiplicity = 1
 C                     1.63273  -3.26412  -0.00002 
 C                     0.9963   -2.02789  -0.00002 
 C                     1.72544  -0.79942  -0.00002 
 C                     3.1436   -0.85613  -0.00002 
 C                     3.76483  -2.09321  -0.00002 
 C                     3.02557  -3.2931   -0.00002 
 H                     1.05327  -4.18831  -0.00002 
 H                     3.71846   0.07087  -0.00003 
 H                     4.85563  -2.14233  -0.00002 
 H                     3.54604  -4.25192  -0.00002 
 N                     0.9594    0.30419  -0.00002 
 S                    -0.72412  -1.7092   -0.00002 
 C                    -1.35576   1.03347   0.00001 
 C                    -2.75145   0.8026    0.00001 
 C                    -0.89963   2.43457   0.00003 
 C                    -3.64694   1.8661    0.00003 
 H                    -3.12321  -0.22335  -0.00001 
 C                    -1.83471   3.48587   0.00005 
 C                    -3.1997    3.20847   0.00005 
 H                    -4.71868   1.65996   0.00003 
 H                    -1.4547    4.50818   0.00007 
 H                    -3.92451   4.02306   0.00006 
 C                    -0.37218   0.02366  -0.00002 
 O                     0.38526   2.67761   0.00004 
 H                     0.85895   1.8422    0.00002 
 
 Initializing the GIC definitions file.
 Number of initial coordinates =   131
 Number of input entries/lines =    52
 Number of additional coordinates =     2
 Number of removed coordinates =     0
 Number of frozen coordinates =     2
 Number of final active and frozen coordinates =   133
 ITRead=  0  0  0  0  0  0  0  0  0  0  0  0  0  0  0  0  0  0  0  0
 ITRead=  0  0  0  0  0
 MicOpt= -1 -1 -1 -1 -1 -1 -1 -1 -1 -1 -1 -1 -1 -1 -1 -1 -1 -1 -1 -1
 MicOpt= -1 -1 -1 -1 -1
 NAtoms=     25 NQM=       25 NQMF=       0 NMMI=      0 NMMIF=      0
                NMic=       0 NMicF=      0.
                    Isotopes and Nuclear Properties:
 (Nuclear quadrupole moments (NQMom) in fm**2, nuclear magnetic moments (NMagM)
  in nuclear magnetons)

  Atom         1           2           3           4           5           6           7           8           9          10
 IAtWgt=          12          12          12          12          12          12           1           1           1           1
 AtmWgt=  12.0000000  12.0000000  12.0000000  12.0000000  12.0000000  12.0000000   1.0078250   1.0078250   1.0078250   1.0078250
 NucSpn=           0           0           0           0           0           0           1           1           1           1
 AtZEff=  -0.0000000  -0.0000000  -0.0000000  -0.0000000  -0.0000000  -0.0000000  -0.0000000  -0.0000000  -0.0000000  -0.0000000
 NQMom=    0.0000000   0.0000000   0.0000000   0.0000000   0.0000000   0.0000000   0.0000000   0.0000000   0.0000000   0.0000000
 NMagM=    0.0000000   0.0000000   0.0000000   0.0000000   0.0000000   0.0000000   2.7928460   2.7928460   2.7928460   2.7928460
 AtZNuc=   6.0000000   6.0000000   6.0000000   6.0000000   6.0000000   6.0000000   1.0000000   1.0000000   1.0000000   1.0000000

  Atom        11          12          13          14          15          16          17          18          19          20
 IAtWgt=          14          32          12          12          12          12           1          12          12           1
 AtmWgt=  14.0030740  31.9720718  12.0000000  12.0000000  12.0000000  12.0000000   1.0078250  12.0000000  12.0000000   1.0078250
 NucSpn=           2           0           0           0           0           0           1           0           0           1
 AtZEff=  -0.0000000  -0.0000000  -0.0000000  -0.0000000  -0.0000000  -0.0000000  -0.0000000  -0.0000000  -0.0000000  -0.0000000
 NQMom=    2.0440000   0.0000000   0.0000000   0.0000000   0.0000000   0.0000000   0.0000000   0.0000000   0.0000000   0.0000000
 NMagM=    0.4037610   0.0000000   0.0000000   0.0000000   0.0000000   0.0000000   2.7928460   0.0000000   0.0000000   2.7928460
 AtZNuc=   7.0000000  16.0000000   6.0000000   6.0000000   6.0000000   6.0000000   1.0000000   6.0000000   6.0000000   1.0000000

  Atom        21          22          23          24          25
 IAtWgt=           1           1          12          16           1
 AtmWgt=   1.0078250   1.0078250  12.0000000  15.9949146   1.0078250
 NucSpn=           1           1           0           0           1
 AtZEff=  -0.0000000  -0.0000000  -0.0000000  -0.0000000  -0.0000000
 NQMom=    0.0000000   0.0000000   0.0000000   0.0000000   0.0000000
 NMagM=    2.7928460   2.7928460   0.0000000   0.0000000   2.7928460
 AtZNuc=   1.0000000   1.0000000   6.0000000   8.0000000   1.0000000
 Leave Link  101 at Mon Jul 13 13:30:53 2020, MaxMem=  7784628224 cpu:              32.3 elap:               3.3
 (Enter /gpfs/loomis/apps/avx/software/Gaussian/16-C.01_AVX/g16/l103.exe)

 GradGradGradGradGradGradGradGradGradGradGradGradGradGradGradGradGradGrad
 Berny optimization.
 Initialization pass.
                           ----------------------------
                           !    Initial Parameters    !
                           ! (Angstroms and Degrees)  !
 --------------------------                            --------------------------
 ! Name  Definition              Value          Derivative Info.                !
 --------------------------------------------------------------------------------
 ! R1    R(1,2)                  1.3904         estimate D2E/DX2                !
 ! R2    R(1,6)                  1.3931         estimate D2E/DX2                !
 ! R3    R(1,7)                  1.0908         estimate D2E/DX2                !
 ! R4    R(2,3)                  1.4286         estimate D2E/DX2                !
 ! R5    R(2,12)                 1.7497         estimate D2E/DX2                !
 ! R6    R(3,4)                  1.4193         estimate D2E/DX2                !
 ! R7    R(3,11)                 1.3434         estimate D2E/DX2                !
 ! R8    R(4,5)                  1.3843         estimate D2E/DX2                !
 ! R9    R(4,8)                  1.0908         estimate D2E/DX2                !
 ! R10   R(5,6)                  1.4093         estimate D2E/DX2                !
 ! R11   R(5,9)                  1.0919         estimate D2E/DX2                !
 ! R12   R(6,10)                 1.091          estimate D2E/DX2                !
 ! R13   R(11,23)                1.3608         estimate D2E/DX2                !
 ! R14   R(12,23)                1.7682         estimate D2E/DX2                !
 ! R15   R(13,14)                1.4146         estimate D2E/DX2                !
 ! R16   R(13,15)                1.4735         estimate D2E/DX2                !
 ! R17   R(13,23)                1.4097         estimate D2E/DX2                !
 ! R18   R(14,16)                1.3903         estimate D2E/DX2                !
 ! R19   R(14,17)                1.0912         estimate D2E/DX2                !
 ! R20   R(15,18)                1.407          estimate D2E/DX2                !
 ! R21   R(15,24)                1.3077         estimate D2E/DX2                !
 ! R22   R(16,19)                1.4149         estimate D2E/DX2                !
 ! R23   R(16,20)                1.0914         estimate D2E/DX2                !
 ! R24   R(18,19)                1.3929         estimate D2E/DX2                !
 ! R25   R(18,21)                1.0907         estimate D2E/DX2                !
 ! R26   R(19,22)                1.0904         estimate D2E/DX2                !
 ! R27   R(24,25)                0.9604         estimate D2E/DX2                !
 ! A1    A(2,1,6)              118.4321         estimate D2E/DX2                !
 ! A2    A(2,1,7)              120.6724         estimate D2E/DX2                !
 ! A3    A(6,1,7)              120.8954         estimate D2E/DX2                !
 ! A4    A(1,2,3)              122.0692         estimate D2E/DX2                !
 ! A5    A(1,2,12)             127.7348         estimate D2E/DX2                !
 ! A6    A(3,2,12)             110.1959         estimate D2E/DX2                !
 ! A7    A(2,3,4)              118.4006         estimate D2E/DX2                !
 ! A8    A(2,3,11)             114.5444         estimate D2E/DX2                !
 ! A9    A(4,3,11)             127.0549         estimate D2E/DX2                !
 ! A10   A(3,4,5)              118.9548         estimate D2E/DX2                !
 ! A11   A(3,4,8)              119.5146         estimate D2E/DX2                !
 ! A12   A(5,4,8)              121.5306         estimate D2E/DX2                !
 ! A13   A(4,5,6)              121.6979         estimate D2E/DX2                !
 ! A14   A(4,5,9)              119.2433         estimate D2E/DX2                !
 ! A15   A(6,5,9)              119.0588         estimate D2E/DX2                !
 ! A16   A(1,6,5)              120.4453         estimate D2E/DX2                !
 ! A17   A(1,6,10)             119.6861         estimate D2E/DX2                !
 ! A18   A(5,6,10)             119.8686         estimate D2E/DX2                !
 ! A19   A(3,11,23)            112.868          estimate D2E/DX2                !
 ! A20   A(2,12,23)             89.0143         estimate D2E/DX2                !
 ! A21   A(14,13,15)           117.4254         estimate D2E/DX2                !
 ! A22   A(14,13,23)           124.8537         estimate D2E/DX2                !
 ! A23   A(15,13,23)           117.7209         estimate D2E/DX2                !
 ! A24   A(13,14,16)           120.7056         estimate D2E/DX2                !
 ! A25   A(13,14,17)           119.3111         estimate D2E/DX2                !
 ! A26   A(16,14,17)           119.9833         estimate D2E/DX2                !
 ! A27   A(13,15,18)           120.3156         estimate D2E/DX2                !
 ! A28   A(13,15,24)           118.7438         estimate D2E/DX2                !
 ! A29   A(18,15,24)           120.9406         estimate D2E/DX2                !
 ! A30   A(14,16,19)           121.4752         estimate D2E/DX2                !
 ! A31   A(14,16,20)           119.2108         estimate D2E/DX2                !
 ! A32   A(19,16,20)           119.314          estimate D2E/DX2                !
 ! A33   A(15,18,19)           120.164          estimate D2E/DX2                !
 ! A34   A(15,18,21)           117.9575         estimate D2E/DX2                !
 ! A35   A(19,18,21)           121.8785         estimate D2E/DX2                !
 ! A36   A(16,19,18)           119.9142         estimate D2E/DX2                !
 ! A37   A(16,19,22)           119.9111         estimate D2E/DX2                !
 ! A38   A(18,19,22)           120.1746         estimate D2E/DX2                !
 ! A39   A(11,23,12)           113.3774         estimate D2E/DX2                !
 ! A40   A(11,23,13)           122.3493         estimate D2E/DX2                !
 ! A41   A(12,23,13)           124.2733         estimate D2E/DX2                !
 ! A42   A(15,24,25)           108.843          estimate D2E/DX2                !
 ! D1    D(6,1,2,3)              0.0            estimate D2E/DX2                !
 ! D2    D(6,1,2,12)          -180.0            estimate D2E/DX2                !
 ! D3    D(7,1,2,3)            179.9999         estimate D2E/DX2                !
 ! D4    D(7,1,2,12)             0.0            estimate D2E/DX2                !
 ! D5    D(2,1,6,5)             -0.0001         estimate D2E/DX2                !
 ! D6    D(2,1,6,10)           180.0            estimate D2E/DX2                !
 ! D7    D(7,1,6,5)            180.0            estimate D2E/DX2                !
 ! D8    D(7,1,6,10)             0.0            estimate D2E/DX2                !
 ! D9    D(1,2,3,4)              0.0001         estimate D2E/DX2                !
 ! D10   D(1,2,3,11)           180.0            estimate D2E/DX2                !
 ! D11   D(12,2,3,4)          -179.9999         estimate D2E/DX2                !
 ! D12   D(12,2,3,11)            0.0            estimate D2E/DX2                !
 ! D13   D(1,2,12,23)          179.9998         estimate D2E/DX2                !
 ! D14   D(3,2,12,23)           -0.0002         estimate D2E/DX2                !
 ! D15   D(2,3,4,5)             -0.0001         estimate D2E/DX2                !
 ! D16   D(2,3,4,8)            179.9999         estimate D2E/DX2                !
 ! D17   D(11,3,4,5)           180.0            estimate D2E/DX2                !
 ! D18   D(11,3,4,8)             0.0            estimate D2E/DX2                !
 ! D19   D(2,3,11,23)            0.0003         estimate D2E/DX2                !
 ! D20   D(4,3,11,23)         -179.9998         estimate D2E/DX2                !
 ! D21   D(3,4,5,6)              0.0            estimate D2E/DX2                !
 ! D22   D(3,4,5,9)           -180.0            estimate D2E/DX2                !
 ! D23   D(8,4,5,6)            180.0            estimate D2E/DX2                !
 ! D24   D(8,4,5,9)              0.0            estimate D2E/DX2                !
 ! D25   D(4,5,6,1)              0.0001         estimate D2E/DX2                !
 ! D26   D(4,5,6,10)          -180.0            estimate D2E/DX2                !
 ! D27   D(9,5,6,1)           -180.0            estimate D2E/DX2                !
 ! D28   D(9,5,6,10)             0.0            estimate D2E/DX2                !
 ! D29   D(3,11,23,12)          -0.0004         estimate D2E/DX2                !
 ! D30   D(3,11,23,13)         179.9989         estimate D2E/DX2                !
 ! D31   D(2,12,23,11)           0.0004         estimate D2E/DX2                !
 ! D32   D(2,12,23,13)        -179.9989         estimate D2E/DX2                !
 ! D33   D(15,13,14,16)          0.0003         estimate D2E/DX2                !
 ! D34   D(15,13,14,17)       -179.9998         estimate D2E/DX2                !
 ! D35   D(23,13,14,16)       -179.9998         estimate D2E/DX2                !
 ! D36   D(23,13,14,17)          0.0            estimate D2E/DX2                !
 ! D37   D(14,13,15,18)         -0.0004         estimate D2E/DX2                !
 ! D38   D(14,13,15,24)        179.9994         estimate D2E/DX2                !
 ! D39   D(23,13,15,18)        179.9997         estimate D2E/DX2                !
 ! D40   D(23,13,15,24)         -0.0005         estimate D2E/DX2                !
 ! D41   D(14,13,23,11)        179.9997         estimate D2E/DX2                !
 ! D42   D(14,13,23,12)         -0.0011         estimate D2E/DX2                !
 ! D43   D(15,13,23,11)         -0.0004         estimate D2E/DX2                !
 ! D44   D(15,13,23,12)        179.9988         estimate D2E/DX2                !
 ! D45   D(13,14,16,19)         -0.0001         estimate D2E/DX2                !
 ! D46   D(13,14,16,20)        179.9999         estimate D2E/DX2                !
 ! D47   D(17,14,16,19)       -179.9999         estimate D2E/DX2                !
 ! D48   D(17,14,16,20)          0.0001         estimate D2E/DX2                !
 ! D49   D(13,15,18,19)          0.0003         estimate D2E/DX2                !
 ! D50   D(13,15,18,21)        180.0            estimate D2E/DX2                !
 ! D51   D(24,15,18,19)       -179.9996         estimate D2E/DX2                !
 ! D52   D(24,15,18,21)          0.0001         estimate D2E/DX2                !
 ! D53   D(13,15,24,25)          0.0007         estimate D2E/DX2                !
 ! D54   D(18,15,24,25)       -179.9995         estimate D2E/DX2                !
 ! D55   D(14,16,19,18)         -0.0001         estimate D2E/DX2                !
 ! D56   D(14,16,19,22)       -180.0            estimate D2E/DX2                !
 ! D57   D(20,16,19,18)        179.9999         estimate D2E/DX2                !
 ! D58   D(20,16,19,22)          0.0            estimate D2E/DX2                !
 ! D59   D(15,18,19,16)          0.0            estimate D2E/DX2                !
 ! D60   D(15,18,19,22)        179.9999         estimate D2E/DX2                !
 ! D61   D(21,18,19,16)       -179.9997         estimate D2E/DX2                !
 ! D62   D(21,18,19,22)          0.0002         estimate D2E/DX2                !
 ! Qtot  GIC-1                 -20.0            Frozen                          !
 ! Ptot  GIC-2                  40.0            Frozen                          !
 --------------------------------------------------------------------------------
 NOTE: GIC-type coordinates are in arbitrary units.
 Trust Radius=3.00D-01 FncErr=5.00D-06 GrdErr=5.00D-06 EigMax=2.50D+02 EigMin=1.00D-04
 Number of steps in this run=    143 maximum allowed number of steps=    150.
 GradGradGradGradGradGradGradGradGradGradGradGradGradGradGradGradGradGrad

 Leave Link  103 at Mon Jul 13 13:30:53 2020, MaxMem=  7784628224 cpu:               0.2 elap:               0.0
 (Enter /gpfs/loomis/apps/avx/software/Gaussian/16-C.01_AVX/g16/l202.exe)
                          Input orientation:                          
 ---------------------------------------------------------------------
 Center     Atomic      Atomic             Coordinates (Angstroms)
 Number     Number       Type             X           Y           Z
 ---------------------------------------------------------------------
      1          6           0        1.632731   -3.264125   -0.000020
      2          6           0        0.996298   -2.027892   -0.000022
      3          6           0        1.725438   -0.799422   -0.000023
      4          6           0        3.143596   -0.856132   -0.000025
      5          6           0        3.764829   -2.093209   -0.000023
      6          6           0        3.025572   -3.293105   -0.000020
      7          1           0        1.053271   -4.188315   -0.000018
      8          1           0        3.718465    0.070871   -0.000027
      9          1           0        4.855628   -2.142331   -0.000023
     10          1           0        3.546040   -4.251921   -0.000018
     11          7           0        0.959404    0.304195   -0.000025
     12         16           0       -0.724115   -1.709198   -0.000022
     13          6           0       -1.355765    1.033469    0.000006
     14          6           0       -2.751446    0.802601    0.000007
     15          6           0       -0.899632    2.434574    0.000033
     16          6           0       -3.646939    1.866100    0.000027
     17          1           0       -3.123212   -0.223354   -0.000010
     18          6           0       -1.834712    3.485869    0.000051
     19          6           0       -3.199700    3.208466    0.000048
     20          1           0       -4.718679    1.659960    0.000026
     21          1           0       -1.454702    4.508185    0.000072
     22          1           0       -3.924511    4.023055    0.000064
     23          6           0       -0.372178    0.023659   -0.000018
     24          8           0        0.385257    2.677613    0.000044
     25          1           0        0.858951    1.842202    0.000020
 ---------------------------------------------------------------------
                    Distance matrix (angstroms):
                    1          2          3          4          5
     1  C    0.000000
     2  C    1.390438   0.000000
     3  C    2.466446   1.428560   0.000000
     4  C    2.842735   2.446203   1.419291   0.000000
     5  C    2.432465   2.769302   2.415161   1.384302   0.000000
     6  C    1.393142   2.391384   2.812260   2.439829   1.409344
     7  H    1.090826   2.161174   3.454910   3.933561   3.426663
     8  H    3.933507   3.437295   2.174757   1.090784   2.164577
     9  H    3.412548   3.861026   3.406097   2.141346   1.091904
    10  H    2.153252   3.383414   3.903120   3.419553   2.169771
    11  N    3.631291   2.332379   1.343420   2.473268   3.690252
    12  S    2.823565   1.749682   2.613045   3.960670   4.505340
    13  C    5.234541   3.860587   3.585150   4.880045   5.999717
    14  C    5.979905   4.696518   4.754889   6.123962   7.130748
    15  C    6.236027   4.848521   4.165300   5.213103   6.500617
    16  C    7.361666   6.059936   5.997286   7.315867   8.403002
    17  H    5.644934   4.497413   4.882751   6.298673   7.137329
    18  C    7.588516   6.198078   5.571210   6.605794   7.904491
    19  C    8.077550   6.710130   6.349815   7.533815   8.752853
    20  H    8.036605   6.801560   6.897478   8.255064   9.276648
    21  H    8.363076   6.980523   6.187405   7.065425   8.415576
    22  H    9.164384   7.799252   7.428204   8.588632   9.825205
    23  C    3.850868   2.466088   2.253321   3.624183   4.647146
    24  O    6.071279   4.745013   3.726373   4.482832   5.846559
    25  H    5.164621   3.872531   2.780104   3.535620   4.891993
                    6          7          8          9         10
     6  C    0.000000
     7  H    2.165958   0.000000
     8  H    3.434594   5.024333   0.000000
     9  H    2.161802   4.317866   2.488253   0.000000
    10  H    1.090970   2.493581   4.326230   2.483021   0.000000
    11  N    4.148447   4.493490   2.768909   4.600658   5.239168
    12  S    4.070493   3.050430   4.785934   5.596529   4.969876
    13  C    6.157545   5.750694   5.164727   6.976182   7.208539
    14  C    7.081578   6.275756   6.511158   8.157218   8.075056
    15  C    6.943597   6.904816   5.187862   7.353305   8.029522
    16  C    8.434441   7.664719   7.581030   9.400062   9.442941
    17  H    6.872475   5.758812   6.848000   8.206361   7.791551
    18  C    8.341273   8.199606   6.519201   8.742842   9.424748
    19  C    9.001357   8.532299   7.596414   9.670540  10.057951
    20  H    9.192730   8.216917   8.585488  10.301688  10.161492
    21  H    8.996275   9.050913   6.815527   9.167859  10.086965
    22  H   10.091078   9.602339   8.604350  10.728599  11.148290
    23  C    4.748224   4.446643   4.090916   5.658752   5.799399
    24  O    6.528455   6.898348   4.231474   6.573893   7.616363
    25  H    5.573655   6.033647   3.363693   5.643575   6.660239
                   11         12         13         14         15
    11  N    0.000000
    12  S    2.624497   0.000000
    13  C    2.427313   2.814463   0.000000
    14  C    3.744171   3.227879   1.414647   0.000000
    15  C    2.827460   4.147487   1.473482   2.468309   0.000000
    16  C    4.863943   4.617971   2.437776   1.390301   2.805504
    17  H    4.116559   2.821949   2.168749   1.091234   3.465384
    18  C    4.234399   5.312452   2.498730   2.835547   1.406981
    19  C    5.072764   5.505628   2.851440   2.447267   2.426772
    20  H    5.837699   5.225683   3.420773   2.145943   3.896812
    21  H    4.847828   6.260160   3.476124   3.925926   2.146617
    22  H    6.138611   6.565155   3.941584   3.427449   3.416601
    23  C    1.360813   1.768235   1.409666   2.503530   2.467938
    24  O    2.441876   4.524910   2.394653   3.654392   1.307673
    25  H    1.541284   3.888257   2.357756   3.757092   1.855672
                   16         17         18         19         20
    16  C    0.000000
    17  H    2.154091   0.000000
    18  C    2.430600   3.926648   0.000000
    19  C    1.414909   3.432672   1.392891   0.000000
    20  H    1.091385   2.468276   3.413387   2.169140   0.000000
    21  H    3.433149   5.017109   1.090659   2.175842   4.331967
    22  H    2.174742   4.321351   2.157737   1.090370   2.492975
    23  C    3.757478   2.762101   3.758443   4.258858   4.644303
    24  O    4.113047   4.552468   2.362529   3.624048   5.204401
    25  H    4.505953   4.485994   3.155544   4.282444   5.580607
                   21         22         23         24         25
    21  H    0.000000
    22  H    2.517004   0.000000
    23  C    4.613331   5.349227   0.000000
    24  O    2.595466   4.514900   2.759923   0.000000
    25  H    3.529937   5.257150   2.196082   0.960363   0.000000
 Symmetry turned off by external request.
 Stoichiometry    C13H9NOS
 Framework group  C1[X(C13H9NOS)]
 Deg. of freedom    69
 Full point group                 C1      NOp   1
 Rotational constants (GHZ):           1.3828235           0.2861497           0.2370886
 Leave Link  202 at Mon Jul 13 13:30:53 2020, MaxMem=  7784628224 cpu:               0.3 elap:               0.0
 (Enter /gpfs/loomis/apps/avx/software/Gaussian/16-C.01_AVX/g16/l301.exe)
 Standard basis: CC-pVDZ (5D, 7F)
 Ernie: Thresh=  0.10000D-02 Tol=  0.10000D-05 Strict=F.
 Ernie:  40 primitive shells out of 425 were deleted.
   273 basis functions,   629 primitive gaussians,   289 cartesian basis functions
    59 alpha electrons       59 beta electrons
       nuclear repulsion energy      1098.8907322455 Hartrees.
 IExCor= 4639 DFT=T Ex+Corr=wB97XD ExCW=0 ScaHFX=  1.000000
 ScaDFX=  1.000000  1.000000  1.000000  1.000000 ScalE2=  1.000000  1.000000
 IRadAn=      5 IRanWt=     -1 IRanGd=            0 ICorTp=0 IEmpDi=121
 HFx  wShort=  0.000000 wLong=  0.200000 cFull=  0.222036 cShort=  0.000000 cLong=  0.777964
 DFx  wShort=  0.000000 wLong=  0.200000 cFull=  0.000000 cShort=  0.000000 cLong=  1.000000
 NAtoms=   25 NActive=   25 NUniq=   25 SFac= 1.00D+00 NAtFMM=   60 NAOKFM=F Big=F
 Integral buffers will be    131072 words long.
 Raffenetti 1 integral format.
 Two-electron integral symmetry is turned off.
 R6Disp:  Grimme-D2 Dispersion energy=       -0.0139171120 Hartrees.
 Nuclear repulsion after empirical dispersion term =     1098.8768151335 Hartrees.
 ------------------------------------------------------------------------------
 Polarizable Continuum Model (PCM)
 =================================
 Model                : PCM.
 Atomic radii         : UFF (Universal Force Field).
 Polarization charges : Total charges.
 Charge compensation  : None.
 Solution method      : On-the-fly selection.
 Cavity type          : Scaled VdW (van der Waals Surface) (Alpha=1.100).
 Cavity algorithm     : GePol (No added spheres)
                        Default sphere list used, NSphG=   25.
                        Lebedev-Laikov grids with approx.  5.0 points / Ang**2.
                        Smoothing algorithm: York/Karplus (Gamma=1.0000).
                        Polarization charges: spherical gaussians, with
                                              point-specific exponents (IZeta= 3).
                        Self-potential: point-specific (ISelfS= 7).
                        Self-field    : sphere-specific E.n sum rule (ISelfD= 2).
 1st derivatives      : Analytical E(r).r(x)/FMM algorithm (CHGder, D1EAlg=3).
                        Cavity 1st derivative terms included.
 Solvent              : CarbonTetraChloride, Eps=   2.228000 Eps(inf)=   2.131892
 ------------------------------------------------------------------------------
 GePol: Number of generator spheres                  =      25
 GePol: Total number of spheres                      =      25
 GePol: Number of exposed spheres                    =      25 (100.00%)
 GePol: Number of points                             =    2170
 GePol: Average weight of points                     =       0.13
 GePol: Minimum weight of points                     =   0.14D-09
 GePol: Maximum weight of points                     =    0.20577
 GePol: Number of points with low weight             =     117
 GePol: Fraction of low-weight points (<1% of avg)   =       5.39%
 GePol: Cavity surface area                          =    272.833 Ang**2
 GePol: Cavity volume                                =    292.488 Ang**3
 Leave Link  301 at Mon Jul 13 13:30:54 2020, MaxMem=  7784628224 cpu:               1.9 elap:               0.2
 (Enter /gpfs/loomis/apps/avx/software/Gaussian/16-C.01_AVX/g16/l302.exe)
 NPDir=0 NMtPBC=     1 NCelOv=     1 NCel=       1 NClECP=     1 NCelD=      1
         NCelK=      1 NCelE2=     1 NClLst=     1 CellRange=     0.0.
 One-electron integrals computed using PRISM.
 NBasis=   273 RedAO= T EigKep=  3.15D-04  NBF=   273
 NBsUse=   273 1.00D-06 EigRej= -1.00D+00 NBFU=   273
 Precomputing XC quadrature grid using
 IXCGrd= 4 IRadAn=           5 IRanWt=          -1 IRanGd=           0 AccXCQ= 0.00D+00.
 Generated NRdTot=       0 NPtTot=           0 NUsed=           0 NTot=          32
 NSgBfM=   288   288   288   288   288 MxSgAt=    25 MxSgA2=    25.
 Leave Link  302 at Mon Jul 13 13:30:54 2020, MaxMem=  7784628224 cpu:               2.6 elap:               0.3
 (Enter /gpfs/loomis/apps/avx/software/Gaussian/16-C.01_AVX/g16/l303.exe)
 DipDrv:  MaxL=1.
 Leave Link  303 at Mon Jul 13 13:30:54 2020, MaxMem=  7784628224 cpu:               0.6 elap:               0.1
 (Enter /gpfs/loomis/apps/avx/software/Gaussian/16-C.01_AVX/g16/l308.exe)
 Leave Link  308 at Mon Jul 13 13:30:54 2020, MaxMem=  7784628224 cpu:               0.7 elap:               0.1
 (Enter /gpfs/loomis/apps/avx/software/Gaussian/16-C.01_AVX/g16/l401.exe)
 ExpMin= 1.22D-01 ExpMax= 1.11D+05 ExpMxC= 1.07D+03 IAcc=3 IRadAn=         5 AccDes= 0.00D+00
 Harris functional with IExCor= 4639 and IRadAn=       5 diagonalized for initial guess.
 HarFok:  IExCor= 4639 AccDes= 0.00D+00 IRadAn=         5 IDoV= 1 UseB2=F ITyADJ=14
 ICtDFT=  3500011 ScaDFX=  1.000000  1.000000  1.000000  1.000000
 FoFCou: FMM=F IPFlag=           0 FMFlag=      100000 FMFlg1=           0
         NFxFlg=           0 DoJE=T BraDBF=F KetDBF=T FulRan=T
         wScrn=  0.000000 ICntrl=       500 IOpCl=  0 I1Cent=   200000004 NGrid=           0
         NMat0=    1 NMatS0=      1 NMatT0=    0 NMatD0=    1 NMtDS0=    0 NMtDT0=    0
 Symmetry not used in FoFCou.
 Harris En= -994.447683999626    
 JPrj=0 DoOrth=F DoCkMO=F.
 Leave Link  401 at Mon Jul 13 13:30:56 2020, MaxMem=  7784628224 cpu:              13.4 elap:               1.4
 (Enter /gpfs/loomis/apps/avx/software/Gaussian/16-C.01_AVX/g16/l502.exe)
 Two-electron integral symmetry not used.
 Closed shell SCF:
 Using DIIS extrapolation, IDIIS=  1040.
 NGot=  7784628224 LenX=  7784455381 LenY=  7784371419
 Requested convergence on RMS density matrix=1.00D-08 within 128 cycles.
 Requested convergence on MAX density matrix=1.00D-06.
 Requested convergence on             energy=1.00D-06.
 No special actions if energy rises.
 Fock matrices will be formed incrementally for  20 cycles.

 Cycle   1  Pass 1  IDiag  1:
 FoFJK:  IHMeth= 1 ICntrl=       0 DoSepK=T KAlg= 0 I1Cent=           0 FoldK=F
 IRaf=         1 NMat=       1 IRICut=       1 DoRegI=T DoRafI=F ISym2E= 0 IDoP0=0 IntGTp=1.
 FoFCou: FMM=F IPFlag=           0 FMFlag=      100000 FMFlg1=           0
         NFxFlg=           0 DoJE=T BraDBF=F KetDBF=F FulRan=T
         wScrn=  0.000000 ICntrl=       500 IOpCl=  0 I1Cent=           0 NGrid=           0
         NMat0=    1 NMatS0=      1 NMatT0=    0 NMatD0=    1 NMtDS0=    0 NMtDT0=    0
 Symmetry not used in FoFCou.
 Inv3:  Mode=1 IEnd=    14126700.
 Iteration    1 A*A^-1 deviation from unit magnitude is 7.11D-15 for   2153.
 Iteration    1 A*A^-1 deviation from orthogonality  is 1.97D-15 for   1127    596.
 Iteration    1 A^-1*A deviation from unit magnitude is 7.11D-15 for   2153.
 Iteration    1 A^-1*A deviation from orthogonality  is 1.40D-15 for   2157   2081.
 E= -1028.59084907697    
 DIIS: error= 2.48D-02 at cycle   1 NSaved=   1.
 NSaved= 1 IEnMin= 1 EnMin= -1028.59084907697     IErMin= 1 ErrMin= 2.48D-02
 ErrMax= 2.48D-02  0.00D+00 EMaxC= 1.00D-01 BMatC= 3.83D-01 BMatP= 3.83D-01
 IDIUse=3 WtCom= 7.52D-01 WtEn= 2.48D-01
 Coeff-Com:  0.100D+01
 Coeff-En:   0.100D+01
 Coeff:      0.100D+01
 Gap=     0.357 Goal=   None    Shift=    0.000
 GapD=    0.357 DampG=1.000 DampE=0.500 DampFc=0.5000 IDamp=-1.
 Damping current iteration by 5.00D-01
 RMSDP=3.47D-03 MaxDP=2.23D-01              OVMax= 1.71D-01

 Cycle   2  Pass 1  IDiag  1:
 RMSU=  1.73D-03    CP:  9.93D-01
 E= -1028.70472379512     Delta-E=       -0.113874718154 Rises=F Damp=T
 DIIS: error= 1.19D-02 at cycle   2 NSaved=   2.
 NSaved= 2 IEnMin= 2 EnMin= -1028.70472379512     IErMin= 2 ErrMin= 1.19D-02
 ErrMax= 1.19D-02  0.00D+00 EMaxC= 1.00D-01 BMatC= 5.72D-02 BMatP= 3.83D-01
 IDIUse=3 WtCom= 8.81D-01 WtEn= 1.19D-01
 Coeff-Com: -0.308D+00 0.131D+01
 Coeff-En:   0.000D+00 0.100D+01
 Coeff:     -0.272D+00 0.127D+01
 Gap=     0.305 Goal=   None    Shift=    0.000
 RMSDP=1.12D-03 MaxDP=2.21D-02 DE=-1.14D-01 OVMax= 1.06D-01

 Cycle   3  Pass 1  IDiag  1:
 RMSU=  1.06D-03    CP:  9.91D-01  1.21D+00
 E= -1028.80538340960     Delta-E=       -0.100659614480 Rises=F Damp=F
 DIIS: error= 5.27D-03 at cycle   3 NSaved=   3.
 NSaved= 3 IEnMin= 3 EnMin= -1028.80538340960     IErMin= 3 ErrMin= 5.27D-03
 ErrMax= 5.27D-03  0.00D+00 EMaxC= 1.00D-01 BMatC= 1.17D-02 BMatP= 5.72D-02
 IDIUse=3 WtCom= 9.47D-01 WtEn= 5.27D-02
 Coeff-Com: -0.200D+00 0.467D+00 0.732D+00
 Coeff-En:   0.000D+00 0.000D+00 0.100D+01
 Coeff:     -0.189D+00 0.443D+00 0.746D+00
 Gap=     0.265 Goal=   None    Shift=    0.000
 RMSDP=4.79D-04 MaxDP=1.60D-02 DE=-1.01D-01 OVMax= 3.69D-02

 Cycle   4  Pass 1  IDiag  1:
 RMSU=  3.65D-04    CP:  9.89D-01  1.37D+00  8.66D-01
 E= -1028.81667581004     Delta-E=       -0.011292400440 Rises=F Damp=F
 DIIS: error= 1.88D-03 at cycle   4 NSaved=   4.
 NSaved= 4 IEnMin= 4 EnMin= -1028.81667581004     IErMin= 4 ErrMin= 1.88D-03
 ErrMax= 1.88D-03  0.00D+00 EMaxC= 1.00D-01 BMatC= 1.35D-03 BMatP= 1.17D-02
 IDIUse=3 WtCom= 9.81D-01 WtEn= 1.88D-02
 Coeff-Com: -0.718D-01 0.142D+00 0.351D+00 0.579D+00
 Coeff-En:   0.000D+00 0.000D+00 0.000D+00 0.100D+01
 Coeff:     -0.705D-01 0.139D+00 0.344D+00 0.587D+00
 Gap=     0.263 Goal=   None    Shift=    0.000
 RMSDP=1.45D-04 MaxDP=7.79D-03 DE=-1.13D-02 OVMax= 9.94D-03

 Cycle   5  Pass 1  IDiag  1:
 RMSU=  9.77D-05    CP:  9.89D-01  1.38D+00  9.27D-01  7.67D-01
 E= -1028.81809899354     Delta-E=       -0.001423183500 Rises=F Damp=F
 DIIS: error= 3.73D-04 at cycle   5 NSaved=   5.
 NSaved= 5 IEnMin= 5 EnMin= -1028.81809899354     IErMin= 5 ErrMin= 3.73D-04
 ErrMax= 3.73D-04  0.00D+00 EMaxC= 1.00D-01 BMatC= 5.33D-05 BMatP= 1.35D-03
 IDIUse=3 WtCom= 9.96D-01 WtEn= 3.73D-03
 Coeff-Com: -0.229D-02-0.122D-02 0.409D-01 0.178D+00 0.785D+00
 Coeff-En:   0.000D+00 0.000D+00 0.000D+00 0.000D+00 0.100D+01
 Coeff:     -0.228D-02-0.121D-02 0.407D-01 0.177D+00 0.786D+00
 Gap=     0.264 Goal=   None    Shift=    0.000
 RMSDP=4.93D-05 MaxDP=1.54D-03 DE=-1.42D-03 OVMax= 4.58D-03

 Cycle   6  Pass 1  IDiag  1:
 RMSU=  3.32D-05    CP:  9.89D-01  1.38D+00  9.45D-01  8.49D-01  1.06D+00
 E= -1028.81819900922     Delta-E=       -0.000100015677 Rises=F Damp=F
 DIIS: error= 1.61D-04 at cycle   6 NSaved=   6.
 NSaved= 6 IEnMin= 6 EnMin= -1028.81819900922     IErMin= 6 ErrMin= 1.61D-04
 ErrMax= 1.61D-04  0.00D+00 EMaxC= 1.00D-01 BMatC= 8.67D-06 BMatP= 5.33D-05
 IDIUse=3 WtCom= 9.98D-01 WtEn= 1.61D-03
 Coeff-Com:  0.142D-01-0.294D-01-0.541D-01-0.482D-01 0.237D+00 0.881D+00
 Coeff-En:   0.000D+00 0.000D+00 0.000D+00 0.000D+00 0.000D+00 0.100D+01
 Coeff:      0.141D-01-0.294D-01-0.540D-01-0.481D-01 0.236D+00 0.881D+00
 Gap=     0.264 Goal=   None    Shift=    0.000
 RMSDP=2.81D-05 MaxDP=1.47D-03 DE=-1.00D-04 OVMax= 2.23D-03

 Cycle   7  Pass 1  IDiag  1:
 RMSU=  1.56D-05    CP:  9.89D-01  1.38D+00  9.56D-01  8.81D-01  1.21D+00
                    CP:  1.14D+00
 E= -1028.81822316236     Delta-E=       -0.000024153140 Rises=F Damp=F
 DIIS: error= 8.19D-05 at cycle   7 NSaved=   7.
 NSaved= 7 IEnMin= 7 EnMin= -1028.81822316236     IErMin= 7 ErrMin= 8.19D-05
 ErrMax= 8.19D-05  0.00D+00 EMaxC= 1.00D-01 BMatC= 2.08D-06 BMatP= 8.67D-06
 IDIUse=1 WtCom= 1.00D+00 WtEn= 0.00D+00
 Coeff-Com:  0.673D-02-0.129D-01-0.302D-01-0.471D-01-0.159D-01 0.390D+00
 Coeff-Com:  0.709D+00
 Coeff:      0.673D-02-0.129D-01-0.302D-01-0.471D-01-0.159D-01 0.390D+00
 Coeff:      0.709D+00
 Gap=     0.264 Goal=   None    Shift=    0.000
 RMSDP=9.94D-06 MaxDP=4.70D-04 DE=-2.42D-05 OVMax= 1.01D-03

 Cycle   8  Pass 1  IDiag  1:
 RMSU=  5.87D-06    CP:  9.89D-01  1.38D+00  9.58D-01  8.89D-01  1.25D+00
                    CP:  1.33D+00  1.09D+00
 E= -1028.81822706566     Delta-E=       -0.000003903297 Rises=F Damp=F
 DIIS: error= 2.48D-05 at cycle   8 NSaved=   8.
 NSaved= 8 IEnMin= 8 EnMin= -1028.81822706566     IErMin= 8 ErrMin= 2.48D-05
 ErrMax= 2.48D-05  0.00D+00 EMaxC= 1.00D-01 BMatC= 1.89D-07 BMatP= 2.08D-06
 IDIUse=1 WtCom= 1.00D+00 WtEn= 0.00D+00
 Coeff-Com: -0.119D-02 0.263D-02 0.356D-02 0.548D-03-0.399D-01-0.579D-01
 Coeff-Com:  0.178D+00 0.914D+00
 Coeff:     -0.119D-02 0.263D-02 0.356D-02 0.548D-03-0.399D-01-0.579D-01
 Coeff:      0.178D+00 0.914D+00
 Gap=     0.264 Goal=   None    Shift=    0.000
 RMSDP=4.18D-06 MaxDP=1.31D-04 DE=-3.90D-06 OVMax= 5.44D-04

 Cycle   9  Pass 1  IDiag  1:
 RMSU=  1.95D-06    CP:  9.89D-01  1.38D+00  9.57D-01  8.88D-01  1.26D+00
                    CP:  1.39D+00  1.27D+00  1.14D+00
 E= -1028.81822762639     Delta-E=       -0.000000560737 Rises=F Damp=F
 DIIS: error= 1.37D-05 at cycle   9 NSaved=   9.
 NSaved= 9 IEnMin= 9 EnMin= -1028.81822762639     IErMin= 9 ErrMin= 1.37D-05
 ErrMax= 1.37D-05  0.00D+00 EMaxC= 1.00D-01 BMatC= 3.03D-08 BMatP= 1.89D-07
 IDIUse=1 WtCom= 1.00D+00 WtEn= 0.00D+00
 Coeff-Com: -0.107D-02 0.213D-02 0.426D-02 0.568D-02-0.111D-01-0.657D-01
 Coeff-Com: -0.215D-01 0.278D+00 0.809D+00
 Coeff:     -0.107D-02 0.213D-02 0.426D-02 0.568D-02-0.111D-01-0.657D-01
 Coeff:     -0.215D-01 0.278D+00 0.809D+00
 Gap=     0.264 Goal=   None    Shift=    0.000
 RMSDP=1.63D-06 MaxDP=5.47D-05 DE=-5.61D-07 OVMax= 1.77D-04

 Cycle  10  Pass 1  IDiag  1:
 RMSU=  8.43D-07    CP:  9.89D-01  1.38D+00  9.57D-01  8.88D-01  1.26D+00
                    CP:  1.40D+00  1.32D+00  1.29D+00  1.16D+00
 E= -1028.81822771797     Delta-E=       -0.000000091577 Rises=F Damp=F
 DIIS: error= 7.22D-06 at cycle  10 NSaved=  10.
 NSaved=10 IEnMin=10 EnMin= -1028.81822771797     IErMin=10 ErrMin= 7.22D-06
 ErrMax= 7.22D-06  0.00D+00 EMaxC= 1.00D-01 BMatC= 6.43D-09 BMatP= 3.03D-08
 IDIUse=1 WtCom= 1.00D+00 WtEn= 0.00D+00
 Coeff-Com: -0.175D-03 0.314D-03 0.893D-03 0.217D-02 0.260D-02-0.177D-01
 Coeff-Com: -0.356D-01-0.525D-01 0.292D+00 0.808D+00
 Coeff:     -0.175D-03 0.314D-03 0.893D-03 0.217D-02 0.260D-02-0.177D-01
 Coeff:     -0.356D-01-0.525D-01 0.292D+00 0.808D+00
 Gap=     0.264 Goal=   None    Shift=    0.000
 RMSDP=8.15D-07 MaxDP=2.44D-05 DE=-9.16D-08 OVMax= 1.34D-04

 Cycle  11  Pass 1  IDiag  1:
 RMSU=  4.06D-07    CP:  9.89D-01  1.38D+00  9.57D-01  8.88D-01  1.26D+00
                    CP:  1.41D+00  1.35D+00  1.33D+00  1.39D+00  1.14D+00
 E= -1028.81822774066     Delta-E=       -0.000000022687 Rises=F Damp=F
 DIIS: error= 3.39D-06 at cycle  11 NSaved=  11.
 NSaved=11 IEnMin=11 EnMin= -1028.81822774066     IErMin=11 ErrMin= 3.39D-06
 ErrMax= 3.39D-06  0.00D+00 EMaxC= 1.00D-01 BMatC= 1.86D-09 BMatP= 6.43D-09
 IDIUse=1 WtCom= 1.00D+00 WtEn= 0.00D+00
 Coeff-Com:  0.146D-03-0.305D-03-0.508D-03-0.149D-03 0.337D-02 0.427D-02
 Coeff-Com: -0.683D-02-0.699D-01-0.555D-01 0.348D+00 0.778D+00
 Coeff:      0.146D-03-0.305D-03-0.508D-03-0.149D-03 0.337D-02 0.427D-02
 Coeff:     -0.683D-02-0.699D-01-0.555D-01 0.348D+00 0.778D+00
 Gap=     0.264 Goal=   None    Shift=    0.000
 RMSDP=3.74D-07 MaxDP=8.84D-06 DE=-2.27D-08 OVMax= 5.80D-05

 Cycle  12  Pass 1  IDiag  1:
 RMSU=  1.59D-07    CP:  9.89D-01  1.38D+00  9.57D-01  8.88D-01  1.27D+00
                    CP:  1.41D+00  1.35D+00  1.35D+00  1.49D+00  1.39D+00
                    CP:  1.11D+00
 E= -1028.81822774614     Delta-E=       -0.000000005478 Rises=F Damp=F
 DIIS: error= 1.27D-06 at cycle  12 NSaved=  12.
 NSaved=12 IEnMin=12 EnMin= -1028.81822774614     IErMin=12 ErrMin= 1.27D-06
 ErrMax= 1.27D-06  0.00D+00 EMaxC= 1.00D-01 BMatC= 2.78D-10 BMatP= 1.86D-09
 IDIUse=1 WtCom= 1.00D+00 WtEn= 0.00D+00
 Coeff-Com:  0.103D-03-0.201D-03-0.449D-03-0.646D-03 0.836D-03 0.597D-02
 Coeff-Com:  0.789D-02-0.124D-01-0.112D+00-0.762D-01 0.219D+00 0.968D+00
 Coeff:      0.103D-03-0.201D-03-0.449D-03-0.646D-03 0.836D-03 0.597D-02
 Coeff:      0.789D-02-0.124D-01-0.112D+00-0.762D-01 0.219D+00 0.968D+00
 Gap=     0.264 Goal=   None    Shift=    0.000
 RMSDP=2.38D-07 MaxDP=5.69D-06 DE=-5.48D-09 OVMax= 3.85D-05

 Cycle  13  Pass 1  IDiag  1:
 RMSU=  6.78D-08    CP:  9.89D-01  1.38D+00  9.57D-01  8.88D-01  1.27D+00
                    CP:  1.41D+00  1.36D+00  1.36D+00  1.56D+00  1.55D+00
                    CP:  1.38D+00  1.29D+00
 E= -1028.81822774754     Delta-E=       -0.000000001405 Rises=F Damp=F
 DIIS: error= 3.99D-07 at cycle  13 NSaved=  13.
 NSaved=13 IEnMin=13 EnMin= -1028.81822774754     IErMin=13 ErrMin= 3.99D-07
 ErrMax= 3.99D-07  0.00D+00 EMaxC= 1.00D-01 BMatC= 3.53D-11 BMatP= 2.78D-10
 IDIUse=1 WtCom= 1.00D+00 WtEn= 0.00D+00
 Coeff-Com: -0.370D-05 0.100D-04-0.818D-05-0.101D-03-0.199D-03 0.516D-03
 Coeff-Com:  0.316D-02 0.806D-02-0.168D-01-0.617D-01-0.906D-01 0.228D+00
 Coeff-Com:  0.930D+00
 Coeff:     -0.370D-05 0.100D-04-0.818D-05-0.101D-03-0.199D-03 0.516D-03
 Coeff:      0.316D-02 0.806D-02-0.168D-01-0.617D-01-0.906D-01 0.228D+00
 Coeff:      0.930D+00
 Gap=     0.264 Goal=   None    Shift=    0.000
 RMSDP=7.12D-08 MaxDP=1.57D-06 DE=-1.41D-09 OVMax= 1.06D-05

 Cycle  14  Pass 1  IDiag  1:
 RMSU=  2.46D-08    CP:  9.89D-01  1.38D+00  9.57D-01  8.88D-01  1.27D+00
                    CP:  1.41D+00  1.36D+00  1.36D+00  1.57D+00  1.59D+00
                    CP:  1.46D+00  1.50D+00  1.22D+00
 E= -1028.81822774768     Delta-E=       -0.000000000135 Rises=F Damp=F
 DIIS: error= 1.08D-07 at cycle  14 NSaved=  14.
 NSaved=14 IEnMin=14 EnMin= -1028.81822774768     IErMin=14 ErrMin= 1.08D-07
 ErrMax= 1.08D-07  0.00D+00 EMaxC= 1.00D-01 BMatC= 4.19D-12 BMatP= 3.53D-11
 IDIUse=1 WtCom= 1.00D+00 WtEn= 0.00D+00
 Coeff-Com: -0.104D-04 0.213D-04 0.387D-04 0.253D-04-0.130D-03-0.434D-03
 Coeff-Com:  0.291D-03 0.367D-02 0.501D-02-0.993D-02-0.513D-01-0.141D-01
 Coeff-Com:  0.302D+00 0.765D+00
 Coeff:     -0.104D-04 0.213D-04 0.387D-04 0.253D-04-0.130D-03-0.434D-03
 Coeff:      0.291D-03 0.367D-02 0.501D-02-0.993D-02-0.513D-01-0.141D-01
 Coeff:      0.302D+00 0.765D+00
 Gap=     0.264 Goal=   None    Shift=    0.000
 RMSDP=1.51D-08 MaxDP=3.36D-07 DE=-1.35D-10 OVMax= 1.97D-06

 Cycle  15  Pass 1  IDiag  1:
 RMSU=  8.81D-09    CP:  9.89D-01  1.38D+00  9.57D-01  8.88D-01  1.27D+00
                    CP:  1.41D+00  1.36D+00  1.36D+00  1.57D+00  1.59D+00
                    CP:  1.47D+00  1.54D+00  1.34D+00  1.10D+00
 E= -1028.81822774769     Delta-E=       -0.000000000012 Rises=F Damp=F
 DIIS: error= 5.67D-08 at cycle  15 NSaved=  15.
 NSaved=15 IEnMin=15 EnMin= -1028.81822774769     IErMin=15 ErrMin= 5.67D-08
 ErrMax= 5.67D-08  0.00D+00 EMaxC= 1.00D-01 BMatC= 6.48D-13 BMatP= 4.19D-12
 IDIUse=1 WtCom= 1.00D+00 WtEn= 0.00D+00
 Coeff-Com: -0.260D-05 0.478D-05 0.147D-04 0.269D-04-0.763D-05-0.260D-03
 Coeff-Com: -0.554D-03-0.369D-03 0.450D-02 0.901D-02-0.338D-03-0.488D-01
 Coeff-Com: -0.824D-01 0.221D+00 0.898D+00
 Coeff:     -0.260D-05 0.478D-05 0.147D-04 0.269D-04-0.763D-05-0.260D-03
 Coeff:     -0.554D-03-0.369D-03 0.450D-02 0.901D-02-0.338D-03-0.488D-01
 Coeff:     -0.824D-01 0.221D+00 0.898D+00
 Gap=     0.264 Goal=   None    Shift=    0.000
 RMSDP=8.27D-09 MaxDP=1.87D-07 DE=-1.16D-11 OVMax= 1.01D-06

 Error on total polarization charges =  0.00834
 SCF Done:  E(RwB97XD) =  -1028.81822775     A.U. after   15 cycles
            NFock= 15  Conv=0.83D-08     -V/T= 2.0048
 KE= 1.023870017976D+03 PE=-4.610041316500D+03 EE= 1.458476255643D+03
 Leave Link  502 at Mon Jul 13 13:32:18 2020, MaxMem=  7784628224 cpu:             814.3 elap:              82.1
 (Enter /gpfs/loomis/apps/avx/software/Gaussian/16-C.01_AVX/g16/l801.exe)
 DoSCS=F DFT=T ScalE2(SS,OS)=  1.000000  1.000000
 ExpMin= 1.22D-01 ExpMax= 1.11D+05 ExpMxC= 1.07D+03 IAcc=3 IRadAn=         5 AccDes= 0.00D+00
 HarFok:  IExCor=  205 AccDes= 0.00D+00 IRadAn=         5 IDoV=-2 UseB2=F ITyADJ=14
 ICtDFT= 12500011 ScaDFX=  1.000000  1.000000  1.000000  1.000000
 Largest valence mixing into a core orbital is  9.50D-05
 Largest core mixing into a valence orbital is  3.35D-05
 Range of M.O.s used for correlation:    21   273
 NBasis=   273 NAE=    59 NBE=    59 NFC=    20 NFV=     0
 NROrb=    253 NOA=    39 NOB=    39 NVA=   214 NVB=   214

 **** Warning!!: The largest alpha MO coefficient is  0.10801456D+02

 Leave Link  801 at Mon Jul 13 13:32:18 2020, MaxMem=  7784628224 cpu:               1.2 elap:               0.2
 (Enter /gpfs/loomis/apps/avx/software/Gaussian/16-C.01_AVX/g16/l914.exe)
 RHF ground state
 Keep R1, R2, and R3 ints in memory in canonical form, NReq=4262515490.
 FoFCou: FMM=F IPFlag=           0 FMFlag=           0 FMFlg1=           0
         NFxFlg=           0 DoJE=F BraDBF=F KetDBF=F FulRan=T
         wScrn=  0.000000 ICntrl=       600 IOpCl=  0 I1Cent=           0 NGrid=           0
         NMat0=    1 NMatS0=  37401 NMatT0=    0 NMatD0=    1 NMtDS0=    0 NMtDT0=    0
 Symmetry not used in FoFCou.
 Two-electron integral symmetry not used.
 MDV=  7784628224 DFT=T DoStab=F Mixed=T DoRPA=T DoScal=F NonHer=T
 NEqPCM:  Using equilibrium solvation (IEInf=0, Eps=   2.2280, EpsInf=   2.1319)
 Making orbital integer symmetry assigments:
    12 initial guesses have been made.
 Convergence on wavefunction:    0.000001000000000
 Davidson Disk Diagonalization:  ConvIn= 1.00D-06 SkipCon=T Conv= 1.00D-06.
 Max sub-space:  2000 roots to seek:    12 dimension of matrix:        16692
 Iteration     1 Dimension    12 NMult     0 NNew     12
 CISAX will form    12 AO SS matrices at one time.
 NMat=    12 NSing=    12 JSym2X= 0.
 New state      2 was old state      3
 New state      3 was old state      2
 Excitation Energies [eV] at current iteration:
 Root      1 :     4.055104130729159
 Root      2 :     4.989392391305938
 Root      3 :     5.079189122310245
 Root      4 :     5.295717920485441
 Root      5 :     6.010646446837452
 Root      6 :     6.193191254326031
 Root      7 :     6.333568617180694
 Root      8 :     6.537081534530385
 Root      9 :     6.947598378295964
 Root     10 :     7.224067674213429
 Root     11 :     7.481940267207584
 Root     12 :     7.552773331563152
 Iteration     2 Dimension    18 NMult    12 NNew      6
 CISAX will form     6 AO SS matrices at one time.
 NMat=     6 NSing=     6 JSym2X= 0.
 Root      1 not converged, maximum delta is    0.043286078287137
 Root      2 not converged, maximum delta is    0.193548915556479
 Root      3 not converged, maximum delta is    0.187109916488645
 Excitation Energies [eV] at current iteration:
 Root      1 :     3.567246517742892   Change is   -0.487857612986266
 Root      2 :     4.472693258726176   Change is   -0.516699132579762
 Root      3 :     4.670418378436303   Change is   -0.408770743873942
 Iteration     3 Dimension    24 NMult    18 NNew      6
 CISAX will form     6 AO SS matrices at one time.
 NMat=     6 NSing=     6 JSym2X= 0.
 Root      1 not converged, maximum delta is    0.021655650194830
 Root      2 not converged, maximum delta is    0.027428783172644
 Root      3 not converged, maximum delta is    0.030040662131064
 Excitation Energies [eV] at current iteration:
 Root      1 :     3.531464029751947   Change is   -0.035782487990946
 Root      2 :     4.431385602240365   Change is   -0.041307656485811
 Root      3 :     4.624549505725120   Change is   -0.045868872711182
 Iteration     4 Dimension    30 NMult    24 NNew      6
 CISAX will form     6 AO SS matrices at one time.
 NMat=     6 NSing=     6 JSym2X= 0.
 Root      1 not converged, maximum delta is    0.007366553635491
 Root      2 not converged, maximum delta is    0.008627979743199
 Root      3 not converged, maximum delta is    0.008052728513021
 Excitation Energies [eV] at current iteration:
 Root      1 :     3.527868442149147   Change is   -0.003595587602800
 Root      2 :     4.425319248601451   Change is   -0.006066353638914
 Root      3 :     4.619392967532093   Change is   -0.005156538193028
 Iteration     5 Dimension    36 NMult    30 NNew      6
 CISAX will form     6 AO SS matrices at one time.
 NMat=     6 NSing=     6 JSym2X= 0.
 Root      1 not converged, maximum delta is    0.002849391160367
 Root      2 not converged, maximum delta is    0.002787760162245
 Root      3 not converged, maximum delta is    0.003749079676520
 Excitation Energies [eV] at current iteration:
 Root      1 :     3.527481164467510   Change is   -0.000387277681637
 Root      2 :     4.424731555556498   Change is   -0.000587693044953
 Root      3 :     4.618668442017555   Change is   -0.000724525514538
 Iteration     6 Dimension    42 NMult    36 NNew      6
 CISAX will form     6 AO SS matrices at one time.
 NMat=     6 NSing=     6 JSym2X= 0.
 Root      1 not converged, maximum delta is    0.000584033075302
 Root      2 not converged, maximum delta is    0.000433010792970
 Root      3 not converged, maximum delta is    0.001084245224067
 Excitation Energies [eV] at current iteration:
 Root      1 :     3.527444506207203   Change is   -0.000036658260306
 Root      2 :     4.424693593836029   Change is   -0.000037961720470
 Root      3 :     4.618594127363055   Change is   -0.000074314654499
 Iteration     7 Dimension    48 NMult    42 NNew      6
 CISAX will form     6 AO SS matrices at one time.
 NMat=     6 NSing=     6 JSym2X= 0.
 Root      1 not converged, maximum delta is    0.000079778746975
 Root      2 not converged, maximum delta is    0.000181932627454
 Root      3 not converged, maximum delta is    0.000280732369337
 Excitation Energies [eV] at current iteration:
 Root      1 :     3.527442027702676   Change is   -0.000002478504528
 Root      2 :     4.424689788718115   Change is   -0.000003805117914
 Root      3 :     4.618588303955939   Change is   -0.000005823407116
 Iteration     8 Dimension    54 NMult    48 NNew      6
 CISAX will form     6 AO SS matrices at one time.
 NMat=     6 NSing=     6 JSym2X= 0.
 Root      1 not converged, maximum delta is    0.000024709937094
 Root      2 not converged, maximum delta is    0.000058789006275
 Root      3 not converged, maximum delta is    0.000077073491071
 Excitation Energies [eV] at current iteration:
 Root      1 :     3.527441888756730   Change is   -0.000000138945945
 Root      2 :     4.424689518879371   Change is   -0.000000269838743
 Root      3 :     4.618587790705035   Change is   -0.000000513250904
 Iteration     9 Dimension    60 NMult    54 NNew      6
 CISAX will form     6 AO SS matrices at one time.
 NMat=     6 NSing=     6 JSym2X= 0.
 Root      1 not converged, maximum delta is    0.000005130615332
 Root      2 not converged, maximum delta is    0.000017009020559
 Root      3 not converged, maximum delta is    0.000017827748885
 Excitation Energies [eV] at current iteration:
 Root      1 :     3.527441880051958   Change is   -0.000000008704772
 Root      2 :     4.424689496400532   Change is   -0.000000022478839
 Root      3 :     4.618587747661617   Change is   -0.000000043043418
 Iteration    10 Dimension    66 NMult    60 NNew      6
 CISAX will form     6 AO SS matrices at one time.
 NMat=     6 NSing=     6 JSym2X= 0.
 Root      1 not converged, maximum delta is    0.000001140551349
 Root      2 not converged, maximum delta is    0.000002030267056
 Root      3 not converged, maximum delta is    0.000004034792384
 Excitation Energies [eV] at current iteration:
 Root      1 :     3.527441879782505   Change is   -0.000000000269454
 Root      2 :     4.424689495508188   Change is   -0.000000000892344
 Root      3 :     4.618587745074403   Change is   -0.000000002587214
 Iteration    11 Dimension    72 NMult    66 NNew      6
 CISAX will form     6 AO SS matrices at one time.
 NMat=     6 NSing=     6 JSym2X= 0.
 Root      1 has converged.
 Root      2 has converged.
 Root      3 has converged.
 Excitation Energies [eV] at current iteration:
 Root      1 :     3.527441879771691   Change is   -0.000000000010814
 Root      2 :     4.424689495461442   Change is   -0.000000000046746
 Root      3 :     4.618587744965845   Change is   -0.000000000108558
 Convergence achieved on expansion vectors.
 ***********************************************************************
 Excited states from <AA,BB:AA,BB> singles matrix:
 ***********************************************************************
 
 1PDM for each excited state written to RWF  633
 Ground to excited state transition densities written to RWF  633
 Ground to excited state transition electric dipole moments (Au):
       state          X           Y           Z        Dip. S.      Osc.
         1        -1.7004      2.2393      0.0000      7.9058      0.6832
         2         1.4065     -0.4714     -0.0000      2.2005      0.2385
         3        -0.7188     -0.1176      0.0000      0.5305      0.0600
 Ground to excited state transition velocity dipole moments (Au):
       state          X           Y           Z        Dip. S.      Osc.
         1         0.2139     -0.2886     -0.0000      0.1291      0.6638
         2        -0.2244      0.0682      0.0000      0.0550      0.2256
         3         0.1212      0.0192     -0.0000      0.0151      0.0592
 Ground to excited state transition magnetic dipole moments (Au):
       state          X           Y           Z
         1        -0.0000     -0.0000      0.6099
         2         0.0000     -0.0000      1.1987
         3         0.0000     -0.0000      0.1757
 Ground to excited state transition velocity quadrupole moments (Au):
       state          XX          YY          ZZ          XY          XZ          YZ
         1         0.0382     -0.4836      0.0119      0.2302      0.0000     -0.0000
         2         0.2629     -0.7304      0.0074      0.1518      0.0000     -0.0000
         3         0.4722     -0.0929     -0.0258     -0.2812     -0.0000     -0.0000
 <0|del|b> * <b|rxdel|0> + <0|del|b> * <b|delr+rdel|0>
 Rotatory Strengths (R) in cgs (10**-40 erg-esu-cm/Gauss)
       state          XX          YY          ZZ    R(velocity)    E-M Angle
         1         0.0143     -0.0128      0.0199      0.0072       90.00
         2        -0.0011      0.0026     -0.0060     -0.0015       90.00
         3        -0.0001      0.0010      0.0018      0.0009       90.00
 1/2[<0|r|b>*<b|rxdel|0> + (<0|rxdel|b>*<b|r|0>)*]
 Rotatory Strengths (R) in cgs (10**-40 erg-esu-cm/Gauss)
       state          XX          YY          ZZ     R(length)
         1        -0.0043      0.0388     -0.0136      0.0070
         2        -0.0026     -0.0030      0.0016     -0.0013
         3         0.0034     -0.0007     -0.0002      0.0009
  1/2[<0|del|b>*<b|r|0> + (<0|r|b>*<b|del|0>)*] (Au)
       state          X           Y           Z        Dip. S.   Osc.(frdel)
         1        -0.3637     -0.6463     -0.0000      1.0101      0.6734
         2        -0.3157     -0.0322     -0.0000      0.3478      0.2319
         3        -0.0871     -0.0023     -0.0000      0.0894      0.0596

 Excitation energies and oscillator strengths:
 
 Excited state symmetry could not be determined.
 Excited State   1:      Singlet-?Sym    3.5274 eV  351.48 nm  f=0.6832  <S**2>=0.000
      59 -> 60         0.68839
 This state for optimization and/or second-order correction.
 Total Energy, E(TD-HF/TD-DFT) =  -1028.68859664    
 Copying the excited state density for this state as the 1-particle RhoCI density.
 
 Excited state symmetry could not be determined.
 Excited State   2:      Singlet-?Sym    4.4247 eV  280.21 nm  f=0.2385  <S**2>=0.000
      57 -> 60         0.28574
      58 -> 60         0.59623
      59 -> 62         0.14872
 
 Excited state symmetry could not be determined.
 Excited State   3:      Singlet-?Sym    4.6186 eV  268.45 nm  f=0.0600  <S**2>=0.000
      57 -> 60         0.55464
      57 -> 62        -0.11862
      58 -> 60        -0.27751
      58 -> 61        -0.12441
      59 -> 61         0.22295
 SavETr:  write IOETrn=   770 NScale= 10 NData=  16 NLR=1 NState=    3 LETran=      64.
 The selected state is a singlet.
 CISGrd: IGrad=2 NXY=2 DFT=T
 CISAX will form     1 AO SS matrices at one time.
 NMat=     1 NSing=     1 JSym2X= 0.
 GePol: Maximum number of non-zero 1st derivatives   =     258
 Leave Link  914 at Mon Jul 13 13:34:59 2020, MaxMem=  7784628224 cpu:            1579.6 elap:             160.6
 (Enter /gpfs/loomis/apps/avx/software/Gaussian/16-C.01_AVX/g16/l1002.exe)
 Minotr:  Closed shell wavefunction.
          Computing CIS/TDA/TD derivatives.
          Using Z-Vector for PSCF gradient.
          Skipping F1 and S1 gradient terms here.
          IDoAtm=1111111111111111111111111
 NEqPCM:  Using equilibrium solvation (IEInf=0, Eps=   2.2280, EpsInf=   2.1319)
          Frozen-core window.
          Direct CPHF calculation.
          Differentiating once with respect to electric field.
                with respect to dipole field.
          Differentiating once with respect to nuclear coordinates.
          Requested convergence is 1.0D-10 RMS, and 1.0D-09 maximum.
          NewPWx=F KeepS1=T KeepF1=T KeepIn=T MapXYZ=F SortEE=F KeepMc=T.
 Keep R1 ints in memory in canonical form, NReq=1421356584.
 FoFCou: FMM=F IPFlag=           0 FMFlag=           0 FMFlg1=           0
         NFxFlg=           0 DoJE=F BraDBF=F KetDBF=F FulRan=T
         wScrn=  0.000000 ICntrl=       600 IOpCl=  0 I1Cent=           0 NGrid=           0
         NMat0=    1 NMatS0=  37401 NMatT0=    0 NMatD0=    1 NMtDS0=    0 NMtDT0=    0
 Symmetry not used in FoFCou.
 Two-electron integral symmetry not used.
          MDV=    7784628224 using IRadAn=       5.
          Solving linear equations separately, MaxMat=       0.
          There are     1 degrees of freedom in the 1st order CPHF.  IDoFFX=0 NUNeed=     1.
 LinEq1:  Iter=  0 NonCon=     1 RMS=4.06D-03 Max=2.03D-01 NDo=     1
 AX will form     1 AO Fock derivatives at one time.
 LinEq1:  Iter=  1 NonCon=     1 RMS=1.59D-03 Max=6.41D-02 NDo=     1
 LinEq1:  Iter=  2 NonCon=     1 RMS=9.16D-04 Max=3.81D-02 NDo=     1
 LinEq1:  Iter=  3 NonCon=     1 RMS=3.44D-04 Max=1.15D-02 NDo=     1
 LinEq1:  Iter=  4 NonCon=     1 RMS=1.80D-04 Max=8.10D-03 NDo=     1
 LinEq1:  Iter=  5 NonCon=     1 RMS=9.27D-05 Max=2.98D-03 NDo=     1
 LinEq1:  Iter=  6 NonCon=     1 RMS=3.53D-05 Max=1.04D-03 NDo=     1
 LinEq1:  Iter=  7 NonCon=     1 RMS=2.37D-05 Max=9.00D-04 NDo=     1
 LinEq1:  Iter=  8 NonCon=     1 RMS=9.35D-06 Max=3.15D-04 NDo=     1
 LinEq1:  Iter=  9 NonCon=     1 RMS=5.67D-06 Max=1.77D-04 NDo=     1
 LinEq1:  Iter= 10 NonCon=     1 RMS=2.12D-06 Max=6.70D-05 NDo=     1
 LinEq1:  Iter= 11 NonCon=     1 RMS=1.13D-06 Max=4.11D-05 NDo=     1
 LinEq1:  Iter= 12 NonCon=     1 RMS=5.59D-07 Max=1.44D-05 NDo=     1
 LinEq1:  Iter= 13 NonCon=     1 RMS=2.32D-07 Max=6.55D-06 NDo=     1
 LinEq1:  Iter= 14 NonCon=     1 RMS=9.54D-08 Max=3.32D-06 NDo=     1
 LinEq1:  Iter= 15 NonCon=     1 RMS=4.02D-08 Max=1.04D-06 NDo=     1
 LinEq1:  Iter= 16 NonCon=     1 RMS=1.57D-08 Max=4.43D-07 NDo=     1
 LinEq1:  Iter= 17 NonCon=     1 RMS=7.49D-09 Max=1.83D-07 NDo=     1
 LinEq1:  Iter= 18 NonCon=     1 RMS=2.77D-09 Max=1.07D-07 NDo=     1
 LinEq1:  Iter= 19 NonCon=     1 RMS=9.34D-10 Max=3.34D-08 NDo=     1
 LinEq1:  Iter= 20 NonCon=     1 RMS=4.82D-10 Max=1.42D-08 NDo=     1
 LinEq1:  Iter= 21 NonCon=     1 RMS=1.90D-10 Max=5.69D-09 NDo=     1
 LinEq1:  Iter= 22 NonCon=     1 RMS=8.16D-11 Max=1.56D-09 NDo=     1
 LinEq1:  Iter= 23 NonCon=     0 RMS=3.79D-11 Max=7.31D-10 NDo=     1
 Linear equations converged to 1.000D-10 1.000D-09 after    23 iterations.
 End of Minotr F.D. properties file   721 does not exist.
 End of Minotr F.D. properties file   722 does not exist.
 End of Minotr F.D. properties file   788 does not exist.
 Leave Link 1002 at Mon Jul 13 13:36:38 2020, MaxMem=  7784628224 cpu:             730.6 elap:              99.2
 (Enter /gpfs/loomis/apps/avx/software/Gaussian/16-C.01_AVX/g16/l601.exe)
 Copying SCF densities to generalized density rwf, IOpCl= 0 IROHF=0.

 **********************************************************************

            Population analysis using the SCF Density.

 **********************************************************************

 Alpha  occ. eigenvalues --  -89.08941 -19.27765 -14.46799 -10.39632 -10.38134
 Alpha  occ. eigenvalues --  -10.35035 -10.34648 -10.32407 -10.32290 -10.32123
 Alpha  occ. eigenvalues --  -10.32029 -10.31548 -10.31412 -10.31345 -10.30508
 Alpha  occ. eigenvalues --  -10.30483  -8.10936  -6.05780  -6.05438  -6.04999
 Alpha  occ. eigenvalues --   -1.18157  -1.08318  -0.96777  -0.95748  -0.91877
 Alpha  occ. eigenvalues --   -0.88821  -0.84976  -0.84595  -0.82522  -0.76128
 Alpha  occ. eigenvalues --   -0.71250  -0.70216  -0.69597  -0.68355  -0.64001
 Alpha  occ. eigenvalues --   -0.60448  -0.59057  -0.58650  -0.55929  -0.54533
 Alpha  occ. eigenvalues --   -0.53963  -0.53222  -0.52963  -0.50878  -0.50501
 Alpha  occ. eigenvalues --   -0.49393  -0.47700  -0.45945  -0.45650  -0.44810
 Alpha  occ. eigenvalues --   -0.43841  -0.42991  -0.42354  -0.39962  -0.36969
 Alpha  occ. eigenvalues --   -0.36466  -0.32134  -0.31441  -0.28142
 Alpha virt. eigenvalues --   -0.01700   0.05128   0.06979   0.07157   0.07665
 Alpha virt. eigenvalues --    0.11122   0.14148   0.15205   0.16455   0.18065
 Alpha virt. eigenvalues --    0.18622   0.21168   0.21801   0.22356   0.22748
 Alpha virt. eigenvalues --    0.23780   0.24153   0.24427   0.28376   0.30554
 Alpha virt. eigenvalues --    0.32317   0.33392   0.35140   0.36230   0.37172
 Alpha virt. eigenvalues --    0.37997   0.38669   0.40825   0.43627   0.44744
 Alpha virt. eigenvalues --    0.47161   0.48273   0.50738   0.51466   0.51633
 Alpha virt. eigenvalues --    0.52180   0.53443   0.54272   0.55096   0.55764
 Alpha virt. eigenvalues --    0.55965   0.56422   0.57240   0.57764   0.58201
 Alpha virt. eigenvalues --    0.58673   0.58860   0.59047   0.59727   0.60333
 Alpha virt. eigenvalues --    0.60546   0.60740   0.62250   0.62421   0.63388
 Alpha virt. eigenvalues --    0.64612   0.65918   0.66571   0.67799   0.69159
 Alpha virt. eigenvalues --    0.70568   0.70679   0.72379   0.72789   0.73141
 Alpha virt. eigenvalues --    0.73146   0.74384   0.75428   0.76132   0.78268
 Alpha virt. eigenvalues --    0.79104   0.79170   0.80208   0.82003   0.82103
 Alpha virt. eigenvalues --    0.83794   0.89715   0.89925   0.92113   0.93762
 Alpha virt. eigenvalues --    0.95127   0.95164   0.95817   0.96910   0.97195
 Alpha virt. eigenvalues --    0.98213   0.99158   1.00239   1.00532   1.02029
 Alpha virt. eigenvalues --    1.02573   1.05348   1.06449   1.07521   1.08103
 Alpha virt. eigenvalues --    1.08535   1.08867   1.09430   1.11005   1.11589
 Alpha virt. eigenvalues --    1.12562   1.12898   1.12952   1.15049   1.15676
 Alpha virt. eigenvalues --    1.16173   1.19555   1.20398   1.22162   1.22782
 Alpha virt. eigenvalues --    1.25450   1.29161   1.33333   1.34676   1.35260
 Alpha virt. eigenvalues --    1.35507   1.36697   1.38502   1.42064   1.46334
 Alpha virt. eigenvalues --    1.47884   1.49057   1.50854   1.53715   1.54000
 Alpha virt. eigenvalues --    1.54856   1.56336   1.56697   1.57260   1.57674
 Alpha virt. eigenvalues --    1.58790   1.59869   1.62234   1.66086   1.66748
 Alpha virt. eigenvalues --    1.68678   1.69321   1.70032   1.70331   1.71366
 Alpha virt. eigenvalues --    1.72519   1.72657   1.72913   1.73591   1.74509
 Alpha virt. eigenvalues --    1.76304   1.77291   1.80072   1.81252   1.82544
 Alpha virt. eigenvalues --    1.82603   1.83494   1.85114   1.85296   1.85341
 Alpha virt. eigenvalues --    1.86884   1.88395   1.88650   1.89443   1.92153
 Alpha virt. eigenvalues --    1.92550   1.93144   1.93602   1.94845   1.95746
 Alpha virt. eigenvalues --    2.00063   2.00557   2.02744   2.03769   2.04577
 Alpha virt. eigenvalues --    2.05227   2.08140   2.08871   2.11653   2.12521
 Alpha virt. eigenvalues --    2.15158   2.17662   2.20683   2.23600   2.24501
 Alpha virt. eigenvalues --    2.26552   2.28646   2.36606   2.38057   2.40505
 Alpha virt. eigenvalues --    2.41571   2.41643   2.45948   2.46114   2.47544
 Alpha virt. eigenvalues --    2.48010   2.50851   2.52792   2.53833   2.62572
 Alpha virt. eigenvalues --    2.63530   2.73011   2.73235   2.75573   2.80440
 Alpha virt. eigenvalues --    2.81871   2.84290   2.86402   2.90625   2.93960
 Alpha virt. eigenvalues --    3.02037   3.05449   3.09122   3.18210   3.33853
 Alpha virt. eigenvalues --    3.48295   3.57096   3.66621   3.99778
          Condensed to atoms (all electrons):
               1          2          3          4          5          6
     1  C    4.743992   0.462016   0.009237  -0.053384  -0.013557   0.523626
     2  C    0.462016   5.318934   0.341083  -0.036330  -0.066813  -0.008048
     3  C    0.009237   0.341083   4.760156   0.492391  -0.004776  -0.064201
     4  C   -0.053384  -0.036330   0.492391   4.775394   0.525140  -0.012835
     5  C   -0.013557  -0.066813  -0.004776   0.525140   4.733676   0.490766
     6  C    0.523626  -0.008048  -0.064201  -0.012835   0.490766   4.743648
     7  H    0.401152  -0.037787   0.008429  -0.000509   0.008116  -0.039806
     8  H   -0.000934   0.012082  -0.032172   0.393195  -0.044043   0.007967
     9  H    0.008988  -0.000703   0.008708  -0.039139   0.404751  -0.045694
    10  H   -0.042297   0.009638  -0.000532   0.008583  -0.043538   0.405964
    11  N    0.007858  -0.061398   0.477482  -0.039260   0.003117   0.000003
    12  S   -0.067529   0.342154  -0.104584   0.007020   0.000241   0.003751
    13  C   -0.000187   0.003449   0.007871  -0.000680   0.000009   0.000003
    14  C   -0.000008   0.000065   0.000274   0.000006  -0.000000  -0.000000
    15  C    0.000005  -0.000207  -0.000296   0.000033  -0.000000   0.000000
    16  C    0.000000  -0.000003   0.000005  -0.000000   0.000000   0.000000
    17  H   -0.000005   0.000098   0.000002  -0.000000   0.000000   0.000000
    18  C    0.000000   0.000007  -0.000027  -0.000000  -0.000000  -0.000000
    19  C   -0.000000   0.000000   0.000002   0.000000   0.000000   0.000000
    20  H   -0.000000  -0.000000  -0.000000   0.000000   0.000000  -0.000000
    21  H   -0.000000  -0.000000   0.000001   0.000000   0.000000   0.000000
    22  H    0.000000  -0.000000  -0.000000  -0.000000   0.000000  -0.000000
    23  C    0.004467  -0.053925  -0.126529  -0.000164   0.000267  -0.000179
    24  O    0.000001  -0.000023  -0.002013  -0.000071  -0.000000  -0.000000
    25  H   -0.000070   0.002707  -0.005999  -0.000805  -0.000010   0.000011
               7          8          9         10         11         12
     1  C    0.401152  -0.000934   0.008988  -0.042297   0.007858  -0.067529
     2  C   -0.037787   0.012082  -0.000703   0.009638  -0.061398   0.342154
     3  C    0.008429  -0.032172   0.008708  -0.000532   0.477482  -0.104584
     4  C   -0.000509   0.393195  -0.039139   0.008583  -0.039260   0.007020
     5  C    0.008116  -0.044043   0.404751  -0.043538   0.003117   0.000241
     6  C   -0.039806   0.007967  -0.045694   0.405964   0.000003   0.003751
     7  H    0.662124   0.000035  -0.000155  -0.011822  -0.000115  -0.007230
     8  H    0.000035   0.660100  -0.012684  -0.000122  -0.001427  -0.000145
     9  H   -0.000155  -0.012684   0.669120  -0.012363  -0.000105   0.000021
    10  H   -0.011822  -0.000122  -0.012363   0.666111   0.000000  -0.000157
    11  N   -0.000115  -0.001427  -0.000105   0.000000   6.504354  -0.073608
    12  S   -0.007230  -0.000145   0.000021  -0.000157  -0.073608  15.482459
    13  C    0.000004   0.000042  -0.000000  -0.000000  -0.014521  -0.062453
    14  C    0.000001   0.000001   0.000000  -0.000000   0.003538  -0.007984
    15  C   -0.000000  -0.000028   0.000000   0.000000  -0.020196   0.004575
    16  C    0.000000  -0.000000  -0.000000   0.000000  -0.000088   0.000037
    17  H    0.000001   0.000000  -0.000000  -0.000000   0.000220   0.007679
    18  C   -0.000000  -0.000000  -0.000000  -0.000000  -0.000577  -0.000147
    19  C    0.000000   0.000000  -0.000000  -0.000000   0.000045   0.000023
    20  H    0.000000  -0.000000   0.000000   0.000000   0.000001   0.000003
    21  H   -0.000000   0.000000  -0.000000   0.000000   0.000013   0.000003
    22  H    0.000000  -0.000000  -0.000000  -0.000000  -0.000000  -0.000000
    23  C    0.000098  -0.000949   0.000007   0.000004   0.533250   0.313799
    24  O   -0.000000  -0.000161   0.000000  -0.000000  -0.064049  -0.000230
    25  H    0.000001   0.001231  -0.000004   0.000000   0.098718   0.002955
              13         14         15         16         17         18
     1  C   -0.000187  -0.000008   0.000005   0.000000  -0.000005   0.000000
     2  C    0.003449   0.000065  -0.000207  -0.000003   0.000098   0.000007
     3  C    0.007871   0.000274  -0.000296   0.000005   0.000002  -0.000027
     4  C   -0.000680   0.000006   0.000033  -0.000000  -0.000000  -0.000000
     5  C    0.000009  -0.000000  -0.000000   0.000000   0.000000  -0.000000
     6  C    0.000003  -0.000000   0.000000   0.000000   0.000000  -0.000000
     7  H    0.000004   0.000001  -0.000000   0.000000   0.000001  -0.000000
     8  H    0.000042   0.000001  -0.000028  -0.000000   0.000000  -0.000000
     9  H   -0.000000   0.000000   0.000000  -0.000000  -0.000000  -0.000000
    10  H   -0.000000  -0.000000   0.000000   0.000000  -0.000000  -0.000000
    11  N   -0.014521   0.003538  -0.020196  -0.000088   0.000220  -0.000577
    12  S   -0.062453  -0.007984   0.004575   0.000037   0.007679  -0.000147
    13  C    5.308472   0.489646   0.277477  -0.008691  -0.037330  -0.053487
    14  C    0.489646   4.799017  -0.007491   0.530474   0.400260  -0.054009
    15  C    0.277477  -0.007491   4.804278  -0.060841   0.007384   0.497737
    16  C   -0.008691   0.530474  -0.060841   4.740102  -0.034540  -0.017840
    17  H   -0.037330   0.400260   0.007384  -0.034540   0.667516  -0.000686
    18  C   -0.053487  -0.054009   0.497737  -0.017840  -0.000686   4.808798
    19  C   -0.050635  -0.019116  -0.008877   0.493625   0.008265   0.516197
    20  H    0.008801  -0.035436  -0.000229   0.401580  -0.012535   0.008329
    21  H    0.012551  -0.000444  -0.023627   0.007174   0.000043   0.379451
    22  H   -0.001131   0.009315   0.009052  -0.043641  -0.000160  -0.042060
    23  C    0.324783  -0.089694  -0.075271   0.007083  -0.021037   0.007369
    24  O   -0.090046   0.003897   0.529472  -0.000001  -0.000057  -0.057177
    25  H   -0.032934  -0.000945  -0.014438  -0.000023   0.000008   0.005402
              19         20         21         22         23         24
     1  C   -0.000000  -0.000000  -0.000000   0.000000   0.004467   0.000001
     2  C    0.000000  -0.000000  -0.000000  -0.000000  -0.053925  -0.000023
     3  C    0.000002  -0.000000   0.000001  -0.000000  -0.126529  -0.002013
     4  C    0.000000   0.000000   0.000000  -0.000000  -0.000164  -0.000071
     5  C    0.000000   0.000000   0.000000   0.000000   0.000267  -0.000000
     6  C    0.000000  -0.000000   0.000000  -0.000000  -0.000179  -0.000000
     7  H    0.000000   0.000000  -0.000000   0.000000   0.000098  -0.000000
     8  H    0.000000  -0.000000   0.000000  -0.000000  -0.000949  -0.000161
     9  H   -0.000000   0.000000  -0.000000  -0.000000   0.000007   0.000000
    10  H   -0.000000   0.000000   0.000000  -0.000000   0.000004  -0.000000
    11  N    0.000045   0.000001   0.000013  -0.000000   0.533250  -0.064049
    12  S    0.000023   0.000003   0.000003  -0.000000   0.313799  -0.000230
    13  C   -0.050635   0.008801   0.012551  -0.001131   0.324783  -0.090046
    14  C   -0.019116  -0.035436  -0.000444   0.009315  -0.089694   0.003897
    15  C   -0.008877  -0.000229  -0.023627   0.009052  -0.075271   0.529472
    16  C    0.493625   0.401580   0.007174  -0.043641   0.007083  -0.000001
    17  H    0.008265  -0.012535   0.000043  -0.000160  -0.021037  -0.000057
    18  C    0.516197   0.008329   0.379451  -0.042060   0.007369  -0.057177
    19  C    4.718872  -0.046670  -0.043963   0.406653   0.000702   0.002764
    20  H   -0.046670   0.677144  -0.000149  -0.011979  -0.000362   0.000003
    21  H   -0.043963  -0.000149   0.659557  -0.012068  -0.000424   0.002554
    22  H    0.406653  -0.011979  -0.012068   0.662790  -0.000001  -0.000058
    23  C    0.000702  -0.000362  -0.000424  -0.000001   5.097170  -0.000252
    24  O    0.002764   0.000003   0.002554  -0.000058  -0.000252   7.462272
    25  H   -0.000131  -0.000001   0.000045   0.000008  -0.000065   0.364868
              25
     1  C   -0.000070
     2  C    0.002707
     3  C   -0.005999
     4  C   -0.000805
     5  C   -0.000010
     6  C    0.000011
     7  H    0.000001
     8  H    0.001231
     9  H   -0.000004
    10  H    0.000000
    11  N    0.098718
    12  S    0.002955
    13  C   -0.032934
    14  C   -0.000945
    15  C   -0.014438
    16  C   -0.000023
    17  H    0.000008
    18  C    0.005402
    19  C   -0.000131
    20  H   -0.000001
    21  H    0.000045
    22  H    0.000008
    23  C   -0.000065
    24  O    0.364868
    25  H    0.455805
 Mulliken charges:
               1
     1  C    0.016629
     2  C   -0.226994
     3  C    0.235489
     4  C   -0.018584
     5  C    0.006656
     6  C   -0.004976
     7  H    0.017463
     8  H    0.018014
     9  H    0.019252
    10  H    0.020531
    11  N   -0.353254
    12  S    0.159347
    13  C   -0.081013
    14  C   -0.021366
    15  C    0.081487
    16  C   -0.014412
    17  H    0.014875
    18  C    0.002721
    19  C    0.022243
    20  H    0.011501
    21  H    0.019284
    22  H    0.023280
    23  C    0.079854
    24  O   -0.151692
    25  H    0.123667
 Sum of Mulliken charges =  -0.00000
 Mulliken charges with hydrogens summed into heavy atoms:
               1
     1  C    0.034092
     2  C   -0.226994
     3  C    0.235489
     4  C   -0.000571
     5  C    0.025907
     6  C    0.015555
    11  N   -0.353254
    12  S    0.159347
    13  C   -0.081013
    14  C   -0.006491
    15  C    0.081487
    16  C   -0.002911
    18  C    0.022005
    19  C    0.045523
    23  C    0.079854
    24  O   -0.028025
 Electronic spatial extent (au):  <R**2>=           4338.2756
 Charge=             -0.0000 electrons
 Dipole moment (field-independent basis, Debye):
    X=             -0.4865    Y=             -2.0825    Z=             -0.0000  Tot=              2.1385
 Quadrupole moment (field-independent basis, Debye-Ang):
   XX=            -83.2497   YY=            -88.9091   ZZ=           -104.2712
   XY=             -7.1307   XZ=             -0.0001   YZ=              0.0001
 Traceless Quadrupole moment (field-independent basis, Debye-Ang):
   XX=              8.8936   YY=              3.2343   ZZ=            -12.1279
   XY=             -7.1307   XZ=             -0.0001   YZ=              0.0001
 Octapole moment (field-independent basis, Debye-Ang**2):
  XXX=              8.3804  YYY=            -16.9814  ZZZ=              0.0000  XYY=             -7.1116
  XXY=              3.4004  XXZ=              0.0001  XZZ=              0.9972  YZZ=              3.3188
  YYZ=              0.0004  XYZ=             -0.0006
[...]
 5,-0.00109312,-0.00000005,-0.00773070,-0.00510981,-0.00000006,-0.01106
 458,0.01737390,0.00000032,0.01027227,-0.00244409,0.00000004,0.00031309
 ,0.00726211,0.00000006,-0.00215047,-0.00227802,-0.00000004,0.00003251,
 0.00019961,0.,-0.00009217,-0.00012915,0.00000001,-0.00013969,0.0001272
 6,0.,-0.00004243,-0.00003635,0.,0.01685210,-0.01412845,0.00000004,0.00
 116911,-0.00513485,-0.00000007,0.05274840,0.03230585,0.00000021,0.0711
 7531,-0.25040285,-0.00000405,-0.00335936,-0.01427724,-0.00000054,0.003
 04716,0.63833181,-0.00000005,-0.00000001,-0.00007763,-0.00000016,-0.00
 000013,-0.00013218,-0.00000024,0.00000040,-0.00009092,0.00000023,-0.00
 000005,-0.00016513,0.,0.00000015,-0.00004646,-0.00000003,-0.00000005,0
 .00002768,0.,0.,-0.00003874,0.,0.,-0.00004044,0.,0.,-0.00000053,0.,0.,
 0.00007046,0.00000041,-0.00000038,0.00193088,0.00000004,-0.00000014,0.
 00006456,0.00000134,0.00000032,0.00269236,0.00000343,-0.00000535,-0.05
 256240,-0.00000016,-0.00000029,-0.00386556,-0.00000657,0.00000998,0.13
 135160,0.00023181,-0.00006280,0.,-0.00103929,0.00002170,-0.00000003,0.
 00014254,0.00038490,0.,0.00027807,0.00004096,0.,0.00009780,0.00026239,
 0.,-0.00015182,-0.00017117,0.,-0.00001466,0.00000528,0.,0.00002428,-0.
 00000467,0.,0.00000187,0.00000054,0.,0.00002979,-0.00000593,0.,0.00067
 340,0.00021045,-0.00000002,-0.00114609,0.00153132,0.00000005,-0.005055
 43,-0.02877379,-0.00000041,-0.09182067,-0.09369038,-0.00000087,-0.0056
 2379,0.00257093,0.00000018,0.01064769,0.02023231,0.00000024,0.09447944
 ,0.00004055,-0.00008013,0.,-0.00043703,0.00013676,0.,-0.00009421,0.000
 67201,0.,0.00036705,-0.00005461,0.,0.00004760,0.00040974,0.,-0.0002482
 3,-0.00019670,0.,-0.00000703,0.00001979,0.,0.00000684,-0.00001339,0.,-
 0.00000987,0.00000442,0.,-0.00000317,0.00000364,0.,0.00065950,0.000024
 98,0.00000001,0.00036215,-0.00093408,-0.00000004,0.00220022,-0.0016474
 7,-0.00000007,-0.09337348,-0.31011511,-0.00000351,0.00015692,0.0016918
 4,-0.00000009,-0.01112401,-0.01792081,-0.00000019,0.09761362,0.3286048
 1,0.,0.,-0.00004043,-0.00000003,0.,-0.00036066,-0.00000004,0.00000007,
 0.00011716,0.00000004,-0.00000001,0.00010135,0.,0.00000004,0.00000777,
 -0.00000002,-0.00000001,0.00002285,0.,0.,0.00000711,0.,0.,0.00002396,0
 .,0.,0.00000192,0.,0.,-0.00001598,0.00000007,-0.00000003,-0.00121883,0
 .00000002,-0.00000007,0.00051698,0.00000034,0.00000024,0.00274997,-0.0
 0000112,-0.00000332,-0.03069787,0.00000004,-0.00000008,0.00618209,-0.0
 0000019,-0.00000077,0.00264782,0.00000077,0.00000393,0.02052164,-0.002
 31951,0.00180616,-0.00000002,0.00072032,-0.00185898,0.00000006,-0.0022
 5984,0.00643141,0.00000025,0.00265261,-0.00032165,-0.00000003,-0.00042
 182,-0.00045247,-0.00000002,0.00289324,-0.00019836,0.00000001,-0.00014
 330,0.00003007,0.,0.00014190,0.00003596,0.00000001,0.00013437,-0.00002
 639,0.,0.00010147,-0.00004601,0.,0.00896343,0.00549179,-0.00000036,-0.
 00174006,-0.00192125,-0.00000004,0.01665511,0.02272418,0.00000050,-0.0
 1618751,0.02245578,0.00000077,-0.18079726,0.07701721,0.00000253,-0.011
 30775,-0.05575985,-0.00000083,-0.00033650,0.00010210,-0.00000003,0.727
 30006,0.00012896,-0.00044142,0.,-0.00354582,-0.00314749,-0.00000009,-0
 .00252013,0.00601160,0.,0.00260464,-0.00068017,0.00000004,0.00044450,0
 .00257465,0.00000003,-0.00131594,-0.00121427,-0.00000002,0.00001165,0.
 00009966,0.,-0.00010398,-0.00006745,0.,-0.00005493,0.00001871,0.,0.000
 00680,-0.00000456,0.,0.00803431,-0.00367661,0.00000018,0.00139292,-0.0
 0442228,-0.00000001,0.02404397,-0.03700529,-0.00000112,-0.00651168,0.0
 0193583,0.00000014,0.11611800,-0.25956418,-0.00000588,-0.03296556,-0.0
 1406322,0.00000003,-0.00039879,0.00039085,0.00000001,0.03968465,0.7246
 0081,0.,-0.00000005,0.00021752,-0.00000020,-0.00000018,0.00083122,-0.0
 0000018,0.00000026,0.00160458,0.00000015,-0.00000002,-0.00045277,0.000
 00001,0.00000015,-0.00003167,-0.00000008,-0.00000009,-0.00007723,0.,0.
 ,0.00005259,0.,0.,0.00006631,0.,0.,0.00004453,0.,0.,-0.00008131,0.0000
 0023,-0.00000057,-0.00437424,0.00000009,-0.00000013,-0.00005200,0.0000
 0063,-0.00000113,0.01102125,-0.00000003,-0.00000017,-0.00162581,0.0000
 0305,-0.00000495,-0.06563966,-0.00000041,0.00000017,0.00534927,-0.0000
 0001,0.00000002,-0.00069862,-0.00000759,0.00001093,0.11131260,0.002795
 32,-0.00094996,0.00000003,0.00355362,0.00519668,0.00000004,0.00882964,
 -0.01591857,-0.00000030,-0.00793245,0.00177525,-0.00000002,0.00024941,
 -0.00384991,-0.00000002,-0.00119274,0.00197194,0.00000002,0.00008930,-
 0.00008011,0.,-0.00001032,0.00003948,-0.00000001,-0.00007856,-0.000024
 18,0.,-0.00005557,0.00006902,0.,-0.01905632,0.00742068,-0.00000005,0.0
 0227619,0.00414346,0.00000006,-0.01642613,-0.02303381,-0.00000058,0.04
 941029,-0.00518656,-0.00000068,-0.04190279,0.03043798,0.00000150,-0.14
 131197,-0.02231215,0.00000029,-0.00250702,0.00455397,0.00000025,-0.369
 95523,-0.06642436,0.00000272,0.71902627,0.00015718,-0.00045753,0.,-0.0
 0348365,-0.00267714,-0.00000008,-0.00174508,0.00633539,-0.00000002,0.0
 0265890,-0.00074284,0.00000004,0.00031152,0.00281861,0.00000003,-0.001
 33417,-0.00178787,-0.00000003,0.00001459,0.00009033,0.,-0.00008083,-0.
 00010830,0.,-0.00004030,0.00000986,0.,-0.00002104,0.00002018,0.,0.0078
 4025,-0.00157736,0.00000010,-0.00082406,-0.00252957,0.00000004,-0.0127
 2979,-0.01523515,-0.00000019,0.02496058,-0.05820010,-0.00000172,0.0168
 8421,0.03226027,0.00000049,-0.08758972,-0.29426263,-0.00000394,0.00324
 170,-0.00110395,-0.00000012,-0.02758524,-0.12668159,-0.00000076,-0.040
 25184,0.68328657,-0.00000004,0.00000001,0.00014573,-0.00000008,-0.0000
 0010,-0.00038099,-0.00000011,0.00000029,-0.00092818,0.00000013,-0.0000
 0003,0.00008707,0.,0.00000008,0.00008629,0.,-0.00000004,0.00000036,0.,
 0.,-0.00002903,0.,0.,-0.00010922,0.,0.,-0.00000252,0.,0.,0.00000869,0.
 00000037,-0.00000003,0.00132194,-0.00000006,-0.00000009,0.00041911,-0.
 00000015,0.00000016,-0.00368216,0.00000003,-0.00000131,0.00886129,0.00
 000089,-0.00000014,0.00194076,-0.00000083,-0.00000449,-0.05998806,0.00
 000016,-0.00000015,0.00570932,0.00000318,-0.00000048,-0.04946738,-0.00
 000798,0.00001172,0.11477480,0.00004834,-0.00008053,0.,-0.00010171,0.0
 0007556,0.,0.00000650,-0.00007950,0.,-0.00000285,0.00002460,0.,0.00002
 143,0.00009150,0.,-0.00014390,0.00000387,0.,0.00000690,0.00000919,0.,-
 0.00000431,-0.00000708,0.,-0.00001361,0.00000644,0.,-0.00000855,0.0000
 0540,0.,-0.00020122,0.00040400,0.,0.00006548,-0.00006556,0.,0.00005486
 ,0.00337345,0.00000013,-0.01437150,-0.00755466,0.00000010,0.00056350,0
 .00019547,-0.00000001,-0.33670866,-0.05421990,0.00000229,0.00076561,0.
 00006127,-0.00000005,0.00152750,-0.00163565,0.,-0.00520605,0.00194222,
 0.00000017,0.35414856,-0.00001960,0.00000598,0.,-0.00008865,-0.0001376
 5,0.,-0.00003289,0.00029172,0.,0.00012013,-0.00006985,0.,0.00001859,0.
 00008364,0.,-0.00001051,-0.00003578,0.,0.00000028,0.00000032,0.,-0.000
 00092,-0.00000058,0.,0.00000130,-0.00000266,0.,0.00000182,-0.00000134,
 0.,0.00052384,-0.00043132,0.00000001,0.00002588,-0.00003155,0.,0.00351
 512,-0.00364320,-0.00000023,0.02330452,0.00842665,-0.00000025,0.000446
 82,-0.00124056,-0.00000001,-0.05478401,-0.06979948,0.,-0.00017871,0.00
 086249,0.00000009,-0.00078204,-0.00545415,-0.00000020,-0.02951307,-0.0
 0028358,0.00000023,0.05814170,0.06919805,0.,0.,-0.00004190,0.,0.,0.000
 03957,0.,0.,0.00054611,0.,0.,0.00014679,0.,0.,-0.00007720,0.,0.,0.0000
 1896,0.,0.,0.00000657,0.,0.,0.00003928,0.,0.,-0.00002926,0.,0.,0.00000
 051,0.00000004,0.,-0.00096069,0.,0.,-0.00009344,0.00000017,-0.00000024
 ,0.00701679,0.00000064,0.00000023,0.00663850,0.00000003,0.00000001,-0.
 00106220,0.00000231,-0.00000006,-0.03844910,-0.00000005,0.00000006,-0.
 00402272,-0.00000002,-0.00000022,0.00477393,-0.00000046,-0.00000012,0.
 00570273,-0.00000258,0.00000026,0.02361527,-0.00010680,0.00003943,0.,0
 .00011487,0.00007094,0.,-0.00010250,0.00004973,0.,0.00003255,0.0000030
 1,0.,-0.00002641,-0.00004457,0.,0.00009361,0.00001553,0.,0.00000019,-0
 .00000554,0.,-0.00000353,0.00000256,0.,0.00000385,-0.00000049,0.,-0.00
 000213,-0.00000190,0.,0.00020592,-0.00029492,0.00000003,-0.00029724,0.
 00016011,0.,-0.00380299,0.00288123,0.00000017,0.00016805,0.00015500,0.
 ,0.00905382,0.02118987,0.00000030,-0.00575031,0.00057222,0.00000018,0.
 00012687,-0.00008726,-0.00000001,-0.09100264,-0.09507733,-0.00000077,-
 0.00308992,-0.02869300,-0.00000042,-0.00035074,-0.00141514,-0.00000004
 ,0.09073577,0.00010672,0.00001313,0.,-0.00005812,0.00003559,0.,0.00017
 085,-0.00012450,0.,-0.00008330,0.00000962,0.,-0.00001084,-0.00007565,0
 .,0.00002336,-0.00000726,0.,-0.00000633,-0.00000078,0.,0.00001042,0.00
 000373,0.,0.00000852,-0.00000257,0.,0.00000809,-0.00000187,0.,-0.00040
 260,0.00042859,-0.00000002,0.00024310,-0.00008041,0.,0.00382008,-0.000
 98938,-0.00000016,0.00026558,0.00021647,0.00000001,-0.01215891,-0.0180
 0052,-0.00000019,-0.00045623,0.00153469,-0.00000006,-0.00006816,-0.000
 07130,0.00000001,-0.09230184,-0.31511327,-0.00000368,0.00176437,-0.000
 05407,-0.00000007,0.00007803,-0.00010187,0.,0.10070642,0.33049760,0.00
 000002,0.,-0.00032880,0.00000002,0.00000002,-0.00006477,0.00000003,-0.
 00000006,0.00034033,-0.00000003,0.,-0.00000302,0.,-0.00000002,-0.00005
 437,0.,0.,0.00003415,0.,0.,-0.00000417,0.,0.,0.00004961,0.,0.,-0.00000
 298,0.,0.,0.00006089,-0.00000010,0.00000003,-0.00018962,0.00000001,0.0
 0000001,-0.00012824,0.00000017,-0.00000022,0.00425354,0.00000006,0.,-0
 .00063177,-0.00000026,-0.00000049,0.00361112,0.00000013,-0.00000002,0.
 00685553,0.,0.,-0.00061820,-0.00000057,-0.00000361,-0.03264779,-0.0000
 0003,0.00000023,0.00357155,0.,0.00000002,-0.00026690,0.00000083,0.0000
 0396,0.02273239,0.00001087,-0.00005599,0.,-0.00027189,-0.00010979,0.,-
 0.00009930,0.00044005,0.,0.00022779,-0.00006046,0.,0.00002955,0.000243
 98,0.,-0.00014151,-0.00009430,0.,0.00000244,0.00001079,0.,-0.00000344,
 -0.00000980,0.,-0.00001003,0.00000465,0.,-0.00000459,0.00000274,0.,0.0
 0056594,0.00012649,-0.00000002,-0.00002056,-0.00009500,0.,0.00039567,-
 0.00061952,-0.00000001,-0.00088429,-0.00230668,0.,-0.00378293,-0.00299
 523,0.00000007,0.00996438,-0.01064317,-0.00000028,0.00033735,-0.000465
 27,0.,-0.01336632,0.02432324,0.00000062,-0.18738272,0.14486151,0.00000
 469,0.00061640,0.00038149,-0.00000004,0.00111015,-0.00019963,-0.000000
 07,0.19482810,0.00008505,0.00004941,0.,0.00032714,0.00034176,0.,0.0005
 1324,-0.00090031,0.,-0.00047262,0.00012666,0.,-0.00002063,-0.00037181,
 0.,0.00012755,0.00013565,0.,-0.00000579,-0.00001177,0.,0.00001068,0.00
 001062,0.,0.00001012,-0.00000587,0.,0.00000676,-0.00000111,0.,-0.00100
 346,0.00050639,-0.00000002,-0.00002496,0.00032145,0.,-0.00153279,0.000
 14825,0.00000004,-0.00242658,-0.00417187,-0.00000014,-0.00187353,-0.00
 011568,-0.00000012,0.02171263,-0.01493637,-0.00000057,0.00100515,-0.00
 096360,-0.00000004,-0.00741137,0.00852689,0.00000014,0.14477314,-0.219
 57436,-0.00000533,-0.00010548,0.00098160,0.00000007,0.00031589,0.00059
 193,0.00000009,-0.15427539,0.22924617,0.00000001,0.,0.00004042,0.00000
 001,0.00000003,0.00001935,0.00000003,-0.00000004,-0.00015668,-0.000000
 02,0.,0.00003713,0.,-0.00000001,0.00001070,0.,0.,-0.00000449,0.,0.,0.0
 0000660,0.,0.,0.00001519,0.,0.,-0.00000002,0.,0.,-0.00002308,-0.000000
 05,0.00000005,0.00039712,0.,0.00000002,-0.00015874,-0.00000005,0.00000
 008,-0.00145184,-0.00000007,-0.00000012,0.00407636,0.00000011,-0.00000
 010,0.00713260,0.00000034,-0.00000031,0.00269434,0.00000003,-0.0000000
 4,0.00086012,0.00000015,-0.00000016,0.00424038,0.00000467,-0.00000534,
 -0.03216323,-0.00000005,0.00000007,-0.00288918,-0.00000007,0.00000007,
 -0.00400832,-0.00000506,0.00000584,0.02193490,-0.00910485,-0.00357212,
 -0.00000007,-0.01002393,0.00925894,0.00000007,-0.09519046,0.05867832,-
 0.00000030,0.02411331,-0.00573948,0.00000013,-0.00037199,0.01476432,0.
 00000014,-0.00544236,-0.00282601,-0.00000009,0.00036224,-0.00040944,0.
 ,-0.00050074,-0.00021458,0.,-0.00023557,0.00025626,0.,-0.00060350,-0.0
 0011041,0.,-0.29256493,-0.05514419,-0.00000220,-0.05055185,-0.03834299
 ,-0.00000041,-0.19898882,0.13062209,0.00000220,-0.05283487,0.04264942,
 0.00000124,0.01160612,0.00540524,-0.00000008,0.00264436,-0.01990676,-0
 .00000042,-0.00006616,-0.00021039,-0.00000005,-0.00404862,-0.01495372,
 -0.00000024,0.00908933,-0.00366086,-0.00000017,-0.00068930,0.00047569,
 0.00000001,0.00087713,-0.00069376,0.00000003,-0.00048224,0.00085324,0.
 00000004,0.66707681,-0.00601242,0.00601632,0.00000009,0.04570758,-0.02
 182245,0.00000016,0.02709824,-0.01058971,-0.00000010,-0.00210538,-0.00
 520890,-0.00000013,-0.00128561,-0.00725976,-0.00000007,0.00857973,0.00
 260371,0.00000006,-0.00010578,-0.00087459,0.,0.00003869,0.00042076,-0.
 00000001,0.00048422,-0.00054124,0.,-0.00003289,-0.00001589,0.,-0.05921
 643,-0.09537866,-0.00000069,-0.01995144,-0.12858692,-0.00000092,0.1057
 0749,-0.23066722,-0.00000266,0.01991805,0.01110843,-0.00000002,0.03145
 327,-0.04680887,-0.00000079,-0.00638955,-0.00064018,0.00000005,-0.0014
 6235,0.00063033,0.00000004,-0.01606764,0.00530050,0.00000034,0.0069561
 5,0.00713344,-0.00000003,-0.00064713,0.00110988,0.00000004,0.00035023,
 -0.00059986,0.,0.00040947,-0.00011469,-0.00000002,-0.11782257,0.521800
 40,-0.00000011,0.00000006,0.00215966,0.00000034,-0.00000019,-0.0024932
 6,-0.00000038,0.00000037,0.00423061,0.00000014,-0.00000014,0.00524176,
 -0.00000004,0.,0.00096872,0.00000007,-0.00000003,0.00093998,0.,0.,-0.0
 0040346,0.,0.00000002,-0.00080608,0.00000001,0.,-0.00080130,0.,0.,-0.0
 0031769,-0.00000180,-0.00000072,-0.03858305,-0.00000033,-0.00000116,-0
 .02049249,0.00000075,-0.00000178,-0.04077326,0.00000069,0.00000006,0.0
 0820879,0.00000055,-0.00000121,0.00647500,0.,-0.00000012,0.00213623,0.
 00000001,0.00000002,-0.00090478,-0.00000068,0.00000011,0.00010000,0.00
 000057,0.00000010,-0.00093976,0.,0.00000003,-0.00071258,0.,-0.00000003
 ,0.00137876,0.,0.,0.00015726,0.00000019,0.00000441,0.07501839,0.002250
 19,0.00192174,0.00000004,0.00775823,0.01134873,0.00000031,0.01923483,-
 0.01740499,-0.00000010,-0.00997023,0.00254622,-0.00000016,-0.00134584,
 -0.00895004,-0.00000010,0.00373403,0.00342910,0.00000006,-0.00027392,-
 0.00000608,0.,0.00049605,0.00015602,0.,0.00015615,-0.00002079,0.000000
 01,0.00006447,0.00005473,0.,-0.01825347,0.05274674,-0.00000168,0.00042
 411,0.00947701,0.,-0.05051845,-0.01498685,0.00000080,0.02893890,-0.012
 48332,-0.00000044,-0.39686360,-0.09107123,0.00000588,-0.01190410,0.016
 82101,0.00000041,-0.00051650,-0.00028177,0.00000003,-0.06895569,0.0139
 2351,0.00000211,0.00046507,0.00422289,0.00000010,-0.00008491,-0.000121
 02,-0.00000002,0.00220107,-0.00100479,-0.00000022,-0.00151056,-0.00063
 296,-0.00000001,0.00624733,-0.00824503,-0.00000037,0.56229193,-0.00116
 311,-0.00138129,-0.00000004,-0.00199908,-0.00677519,-0.00000020,-0.016
 71782,0.00343042,0.00000015,0.00355496,-0.00132190,0.00000008,0.000365
 28,0.00324091,0.00000004,-0.00110531,-0.00174057,-0.00000002,0.0002129
 9,-0.00032709,0.,-0.00002650,0.00013232,0.,0.00015014,-0.00009519,0.,0
 .00004170,-0.00009426,0.,0.02761900,-0.06840120,0.00000155,0.00065639,
 -0.00348043,0.00000002,-0.03423757,-0.00788223,0.00000006,-0.00700092,
 -0.00632987,-0.00000001,-0.06466655,-0.13121866,-0.00000137,0.00071564
 ,-0.00364863,-0.00000003,-0.00195691,-0.00018041,0.00000002,0.04606038
 ,0.01735397,-0.00000036,0.00066643,-0.00765289,-0.00000008,-0.00003653
 ,0.00042553,0.,-0.00140576,0.00232234,0.00000004,0.00165902,0.00064687
 ,-0.00000004,0.00805868,0.01052804,0.00000019,-0.00670250,0.38050714,-
 0.00000006,-0.00000002,0.00040321,0.,-0.00000017,-0.00080723,-0.000000
 58,0.00000017,-0.00040479,0.00000013,-0.00000007,0.00035429,0.00000004
 ,0.00000012,0.00016788,-0.00000006,0.,0.00002994,0.,0.,-0.00004132,0.,
 0.,-0.00015637,0.,0.,-0.00004110,0.,0.,-0.00009469,0.00000051,-0.00000
 106,0.01351059,-0.00000007,-0.00000012,-0.00083180,0.00000053,-0.00000
 005,0.01499581,-0.00000044,0.00000012,0.00199109,0.00000714,-0.0000006
 4,-0.04681439,0.00000022,-0.00000027,-0.00032996,-0.00000002,0.0000000
 4,-0.00122365,0.00000264,0.00000015,0.00920654,0.00000009,-0.00000036,
 0.00394407,0.,0.00000001,0.00002044,-0.00000019,0.00000015,-0.00330698
 ,0.00000010,0.00000003,-0.00000591,0.00000004,0.,-0.00279364,-0.000013
 73,0.00001006,0.04361343,-0.00101452,-0.00056899,-0.00000002,-0.003626
 79,-0.00406028,-0.00000012,-0.00759590,0.01036043,-0.00000004,0.004401
 64,-0.00103751,0.00000008,0.00036621,0.00329190,0.00000004,-0.00108633
 ,-0.00126159,-0.00000002,0.00009943,-0.00000261,0.,-0.00044725,-0.0000
 8813,0.,-0.00000374,-0.00000868,0.,-0.00001331,-0.00007053,0.,-0.01295
 040,-0.01964389,0.00000117,-0.00190690,-0.00527236,-0.00000008,0.00735
 779,-0.00115613,-0.00000019,-0.00772293,0.00319923,0.00000012,-0.04996
 291,0.03254344,0.00000246,0.00186831,-0.00434300,-0.00000011,0.0004414
 0,0.00016993,0.,0.00175203,-0.00520925,-0.00000009,0.00032337,0.000944
 01,0.00000010,0.00006222,-0.00001060,0.,-0.00018865,0.00023898,-0.0000
 0001,-0.00012824,0.00004498,0.,-0.00031643,-0.00735890,0.00000040,-0.0
 7406508,0.04725795,0.00000370,0.14435697,0.00397395,0.00103827,0.00000
 011,0.00550705,0.01421570,0.00000039,0.02970026,-0.01826247,-0.0000005
 9,-0.01073737,0.00392422,-0.00000016,-0.00129072,-0.00824186,-0.000000
 10,0.00166881,0.00333129,0.00000005,-0.00031446,0.00033973,0.,0.000336
 00,-0.00014186,-0.00000001,-0.00014948,0.00014311,0.00000001,-0.000078
 62,0.00017383,0.,-0.03339962,0.03028512,-0.00000250,0.00237013,0.01128
 988,0.00000014,-0.02315801,0.00409057,0.00000026,0.02209081,-0.0079120
 8,-0.00000029,0.03832563,0.01792005,-0.00000008,-0.00505629,0.01317003
 ,0.00000026,-0.00034759,-0.00017013,0.00000004,-0.01710660,0.00472247,
 0.00000032,-0.00222404,0.00097426,-0.00000010,0.00001930,-0.00015228,-
 0.00000002,0.00051372,-0.00043039,0.00000001,-0.00053320,-0.00046618,0
 .00000001,-0.00741492,-0.01754287,0.00000003,0.04526366,-0.17805774,-0
 .00000810,-0.04795840,0.12575935,0.00000003,-0.00000008,0.00015177,0.0
 0000009,-0.00000001,0.00102861,0.00000005,-0.00000069,-0.00234533,-0.0
 0000021,0.00000005,-0.00054854,0.00000003,-0.00000011,-0.00008072,-0.0
 0000002,0.00000006,-0.00003516,0.00000001,-0.00000001,-0.00003826,-0.0
 0000003,0.00000001,0.00007246,0.,0.,0.00005050,0.,0.,0.00005487,0.0000
 0047,0.00000137,-0.01450553,-0.00000007,-0.00000020,0.00091158,-0.0000
 0029,0.00000005,-0.00472471,0.,-0.00000005,0.00019270,0.00000030,-0.00
 000085,-0.00068949,0.00000005,0.00000005,-0.00003361,-0.00000002,-0.00
 000001,0.00033167,0.00000007,-0.00000003,0.00632775,-0.00000010,-0.000
 00007,0.00111680,0.,0.,0.00003969,0.,0.,-0.00063193,0.,0.00000002,-0.0
 0076097,-0.00000006,0.00000025,0.00300621,0.00000706,-0.00001004,-0.03
 138547,-0.00000738,0.00001032,0.04249511\\-0.00000545,0.00020311,-0.00
 000005,0.00038909,0.00021099,-0.00000015,0.00044036,0.00027423,0.00000
 052,0.00003515,0.00001435,0.,-0.00004303,-0.00010418,-0.00000002,0.000
 15528,0.00008714,0.,-0.00000407,0.00004470,0.00000002,0.00003310,-0.00
 001818,0.00000002,0.00001708,0.00000273,0.,0.00002787,0.00001679,0.,-0
 .00044583,0.00005889,0.00000141,0.00015348,0.00048932,0.00000004,-0.00
 041785,0.00036513,-0.00000006,0.00035799,-0.00007903,0.00000003,0.0007
 4679,0.00018520,0.00000064,-0.00018059,0.00050240,-0.00000013,0.000003
 47,0.00001578,0.00000005,-0.00005008,-0.00001059,-0.00000052,-0.000328
 14,-0.00014766,0.00000004,-0.00001045,0.00000778,0.00000002,-0.0000684
 1,0.00001243,0.00000003,-0.00000489,0.00003020,0.00000007,-0.00081355,
 -0.00033480,-0.00000060,-0.00054339,-0.00016803,0.00000237,0.00055607,
 -0.00165873,-0.00000374\\\@
 The archive entry for this job was punched.


 Ideas are like rabbits. You get a couple and learn
 how to handle them, and pretty soon you have a dozen.
                                    -- John Steinbeck
 Job cpu time:       0 days  2 hours 51 minutes  2.7 seconds.
 Elapsed time:       0 days  0 hours 17 minutes 39.9 seconds.
 File lengths (MBytes):  RWF=   1384 Int=      0 D2E=      0 Chk=     48 Scr=      8
 Normal termination of Gaussian 16 at Mon Jul 13 14:19:16 2020.
