 Entering Gaussian System, Link 0=g16
 Initial command:
 /gpfs/loomis/apps/avx/software/Gaussian/16-C.01_AVX/g16/l1.exe "/home/fas/batista/pev4/scratch60/gauss-scratch/Gau-185817.inp" -scrdir="/home/fas/batista/pev4/scratch60/gauss-scratch/"
 Entering Link 1 = /gpfs/loomis/apps/avx/software/Gaussian/16-C.01_AVX/g16/l1.exe PID=    185818.
  
 Copyright (c) 1988-2019, Gaussian, Inc.  All Rights Reserved.
  
 This is part of the Gaussian(R) 16 program.  It is based on
 the Gaussian(R) 09 system (copyright 2009, Gaussian, Inc.),
 the Gaussian(R) 03 system (copyright 2003, Gaussian, Inc.),
 the Gaussian(R) 98 system (copyright 1998, Gaussian, Inc.),
 the Gaussian(R) 94 system (copyright 1995, Gaussian, Inc.),
 the Gaussian 92(TM) system (copyright 1992, Gaussian, Inc.),
 the Gaussian 90(TM) system (copyright 1990, Gaussian, Inc.),
 the Gaussian 88(TM) system (copyright 1988, Gaussian, Inc.),
 the Gaussian 86(TM) system (copyright 1986, Carnegie Mellon
 University), and the Gaussian 82(TM) system (copyright 1983,
 Carnegie Mellon University). Gaussian is a federally registered
 trademark of Gaussian, Inc.
  
 This software contains proprietary and confidential information,
 including trade secrets, belonging to Gaussian, Inc.
  
 This software is provided under written license and may be
 used, copied, transmitted, or stored only in accord with that
 written license.
  
 The following legend is applicable only to US Government
 contracts under FAR:
  
                    RESTRICTED RIGHTS LEGEND
  
 Use, reproduction and disclosure by the US Government is
 subject to restrictions as set forth in subparagraphs (a)
 and (c) of the Commercial Computer Software - Restricted
 Rights clause in FAR 52.227-19.
  
 Gaussian, Inc.
 340 Quinnipiac St., Bldg. 40, Wallingford CT 06492
  
  
 ---------------------------------------------------------------
 Warning -- This program may not be used in any manner that
 competes with the business of Gaussian, Inc. or will provide
 assistance to any competitor of Gaussian, Inc.  The licensee
 of this program is prohibited from giving any competitor of
 Gaussian, Inc. access to this program.  By using this program,
 the user acknowledges that Gaussian, Inc. is engaged in the
 business of creating and licensing software in the field of
 computational chemistry and represents and warrants to the
 licensee that it is not a competitor of Gaussian, Inc. and that
 it will not use this program in any manner prohibited above.
 ---------------------------------------------------------------
  

 Cite this work as:
 Gaussian 16, Revision C.01,
 M. J. Frisch, G. W. Trucks, H. B. Schlegel, G. E. Scuseria, 
 M. A. Robb, J. R. Cheeseman, G. Scalmani, V. Barone, 
 G. A. Petersson, H. Nakatsuji, X. Li, M. Caricato, A. V. Marenich, 
 J. Bloino, B. G. Janesko, R. Gomperts, B. Mennucci, H. P. Hratchian, 
 J. V. Ortiz, A. F. Izmaylov, J. L. Sonnenberg, D. Williams-Young, 
 F. Ding, F. Lipparini, F. Egidi, J. Goings, B. Peng, A. Petrone, 
 T. Henderson, D. Ranasinghe, V. G. Zakrzewski, J. Gao, N. Rega, 
 G. Zheng, W. Liang, M. Hada, M. Ehara, K. Toyota, R. Fukuda, 
 J. Hasegawa, M. Ishida, T. Nakajima, Y. Honda, O. Kitao, H. Nakai, 
 T. Vreven, K. Throssell, J. A. Montgomery, Jr., J. E. Peralta, 
 F. Ogliaro, M. J. Bearpark, J. J. Heyd, E. N. Brothers, K. N. Kudin, 
 V. N. Staroverov, T. A. Keith, R. Kobayashi, J. Normand, 
 K. Raghavachari, A. P. Rendell, J. C. Burant, S. S. Iyengar, 
 J. Tomasi, M. Cossi, J. M. Millam, M. Klene, C. Adamo, R. Cammi, 
 J. W. Ochterski, R. L. Martin, K. Morokuma, O. Farkas, 
 J. B. Foresman, and D. J. Fox, Gaussian, Inc., Wallingford CT, 2019.
 
 ******************************************
 Gaussian 16:  ES64L-G16RevC.01  3-Jul-2019
                14-Jul-2020 
 ******************************************
 %chk=config_12_12_fixed.chk
 %mem=58GB
 %nprocshared=10
 Will use up to   10 processors via shared memory.
 ----------------------------------------------------------------------
 #p opt=addgic freq td wb97xd/cc-pvdz nosymm int=ultrafine scrf=(solven
 t=CarbonTetraChloride)
 ----------------------------------------------------------------------
 1/18=20,19=15,26=6,38=1,145=903/1,3;
 2/9=110,12=2,15=1,17=6,18=5,40=1/2;
 3/5=16,11=9,25=1,30=1,70=2201,71=1,72=11,74=-58,75=-5/1,2,3,8;
 4//1;
 5/5=2,38=5,53=11/2;
 8/6=1,10=1/1;
 9/15=2,42=1,70=2/14;
 10/5=4,31=1/2;
 6/7=2,8=2,9=2,10=2/1;
 7/12=6,13=5,30=1/1,2,3,16;
 1/18=20,19=15,26=6,145=903/3(2);
 2/9=110,15=1/2;
 99//99;
 2/9=110,15=1/2;
 3/5=16,11=9,25=1,30=1,70=2205,71=1,72=11,74=-58,75=-5/1,2,3,8;
 4/5=5,16=3,69=1/1;
 5/5=2,38=5,53=11/2;
 8/6=1,10=1/1;
 9/15=2,42=1,49=4,70=2/14;
 10/5=4,31=1/2;
 7/12=6,13=5,30=1/1,2,3,16;
 1/18=20,19=15,26=6,145=903/3(-8);
 2/9=110,15=1/2;
 6/7=2,8=2,9=2,10=2/1;
 99/9=10/99;
 Leave Link    1 at Tue Jul 14 11:00:23 2020, MaxMem=  7784628224 cpu:               4.3 elap:               0.5
 (Enter /gpfs/loomis/apps/avx/software/Gaussian/16-C.01_AVX/g16/l101.exe)
 ------------------------------------------------
 NM 2D-scan of HBT TD-WB97XD pVDZ in CTC Relaxed.
 ------------------------------------------------
 Symbolic Z-matrix:
 Charge =  0 Multiplicity = 1
 C                     1.60693  -3.251    -0.00002 
 C                     1.01039  -1.98925  -0.00002 
 C                     1.77012  -0.79248  -0.00002 
 C                     3.1588   -0.87747  -0.00003 
 C                     3.75558  -2.14219  -0.00002 
 C                     2.99873  -3.31754  -0.00002 
 H                     0.99445  -4.15565  -0.00002 
 H                     3.76907   0.02832  -0.00003 
 H                     4.84541  -2.20576  -0.00002 
 H                     3.4963   -4.2888   -0.00002 
 N                     0.95542   0.3457   -0.00003 
 S                    -0.7137   -1.66512  -0.00002 
 C                    -1.36333   1.05706   0.00001 
 C                    -2.70954   0.77758   0.00001 
 C                    -0.86743   2.4561    0.00003 
 C                    -3.65611   1.84517   0.00003 
 H                    -3.07472  -0.25319  0. 
 C                    -1.8721    3.48245   0.00005 
 C                    -3.23846   3.17221   0.00004 
 H                    -4.72096   1.60213   0.00003 
 H                    -1.51331   4.514     0.00007 
 H                    -3.97935   3.97323   0.00006 
 C                    -0.36888   0.03291  -0.00002 
 O                     0.36139   2.67465   0.00005 
 H                     1.1384    0.95758  0. 
 
 Initializing the GIC definitions file.
 Number of initial coordinates =   134
 Number of input entries/lines =    53
 Number of additional coordinates =     2
 Number of removed coordinates =     0
 Number of frozen coordinates =     3
 Number of final active and frozen coordinates =   136
 ITRead=  0  0  0  0  0  0  0  0  0  0  0  0  0  0  0  0  0  0  0  0
 ITRead=  0  0  0  0  0
 MicOpt= -1 -1 -1 -1 -1 -1 -1 -1 -1 -1 -1 -1 -1 -1 -1 -1 -1 -1 -1 -1
 MicOpt= -1 -1 -1 -1 -1
 NAtoms=     25 NQM=       25 NQMF=       0 NMMI=      0 NMMIF=      0
                NMic=       0 NMicF=      0.
                    Isotopes and Nuclear Properties:
 (Nuclear quadrupole moments (NQMom) in fm**2, nuclear magnetic moments (NMagM)
  in nuclear magnetons)

  Atom         1           2           3           4           5           6           7           8           9          10
 IAtWgt=          12          12          12          12          12          12           1           1           1           1
 AtmWgt=  12.0000000  12.0000000  12.0000000  12.0000000  12.0000000  12.0000000   1.0078250   1.0078250   1.0078250   1.0078250
 NucSpn=           0           0           0           0           0           0           1           1           1           1
 AtZEff=  -0.0000000  -0.0000000  -0.0000000  -0.0000000  -0.0000000  -0.0000000  -0.0000000  -0.0000000  -0.0000000  -0.0000000
 NQMom=    0.0000000   0.0000000   0.0000000   0.0000000   0.0000000   0.0000000   0.0000000   0.0000000   0.0000000   0.0000000
 NMagM=    0.0000000   0.0000000   0.0000000   0.0000000   0.0000000   0.0000000   2.7928460   2.7928460   2.7928460   2.7928460
 AtZNuc=   6.0000000   6.0000000   6.0000000   6.0000000   6.0000000   6.0000000   1.0000000   1.0000000   1.0000000   1.0000000

  Atom        11          12          13          14          15          16          17          18          19          20
 IAtWgt=          14          32          12          12          12          12           1          12          12           1
 AtmWgt=  14.0030740  31.9720718  12.0000000  12.0000000  12.0000000  12.0000000   1.0078250  12.0000000  12.0000000   1.0078250
 NucSpn=           2           0           0           0           0           0           1           0           0           1
 AtZEff=  -0.0000000  -0.0000000  -0.0000000  -0.0000000  -0.0000000  -0.0000000  -0.0000000  -0.0000000  -0.0000000  -0.0000000
 NQMom=    2.0440000   0.0000000   0.0000000   0.0000000   0.0000000   0.0000000   0.0000000   0.0000000   0.0000000   0.0000000
 NMagM=    0.4037610   0.0000000   0.0000000   0.0000000   0.0000000   0.0000000   2.7928460   0.0000000   0.0000000   2.7928460
 AtZNuc=   7.0000000  16.0000000   6.0000000   6.0000000   6.0000000   6.0000000   1.0000000   6.0000000   6.0000000   1.0000000

  Atom        21          22          23          24          25
 IAtWgt=           1           1          12          16           1
 AtmWgt=   1.0078250   1.0078250  12.0000000  15.9949146   1.0078250
 NucSpn=           1           1           0           0           1
 AtZEff=  -0.0000000  -0.0000000  -0.0000000  -0.0000000  -0.0000000
 NQMom=    0.0000000   0.0000000   0.0000000   0.0000000   0.0000000
 NMagM=    2.7928460   2.7928460   0.0000000   0.0000000   2.7928460
 AtZNuc=   1.0000000   1.0000000   6.0000000   8.0000000   1.0000000
 Leave Link  101 at Tue Jul 14 11:00:26 2020, MaxMem=  7784628224 cpu:              31.6 elap:               3.2
 (Enter /gpfs/loomis/apps/avx/software/Gaussian/16-C.01_AVX/g16/l103.exe)

 GradGradGradGradGradGradGradGradGradGradGradGradGradGradGradGradGradGrad
 Berny optimization.
 Initialization pass.
                           ----------------------------
                           !    Initial Parameters    !
                           ! (Angstroms and Degrees)  !
 --------------------------                            --------------------------
 ! Name  Definition              Value          Derivative Info.                !
 --------------------------------------------------------------------------------
 ! R1    R(1,2)                  1.3957         estimate D2E/DX2                !
 ! R2    R(1,6)                  1.3934         estimate D2E/DX2                !
 ! R3    R(1,7)                  1.0925         estimate D2E/DX2                !
 ! R4    R(2,3)                  1.4176         estimate D2E/DX2                !
 ! R5    R(2,12)                 1.7543         estimate D2E/DX2                !
 ! R6    R(3,4)                  1.3913         estimate D2E/DX2                !
 ! R7    R(3,11)                 1.3997         estimate D2E/DX2                !
 ! R8    R(4,5)                  1.3984         estimate D2E/DX2                !
 ! R9    R(4,8)                  1.0922         estimate D2E/DX2                !
 ! R10   R(5,6)                  1.3979         estimate D2E/DX2                !
 ! R11   R(5,9)                  1.0917         estimate D2E/DX2                !
 ! R12   R(6,10)                 1.0913         estimate D2E/DX2                !
 ! R13   R(11,23)                1.3607         estimate D2E/DX2                !
 ! R14   R(11,25)                0.6387         estimate D2E/DX2                !
 ! R15   R(12,23)                1.7327         estimate D2E/DX2                !
 ! R16   R(13,14)                1.3749         estimate D2E/DX2                !
 ! R17   R(13,15)                1.4843         estimate D2E/DX2                !
 ! R18   R(13,23)                1.4275         estimate D2E/DX2                !
 ! R19   R(14,16)                1.4268         estimate D2E/DX2                !
 ! R20   R(14,17)                1.0935         estimate D2E/DX2                !
 ! R21   R(15,18)                1.4362         estimate D2E/DX2                !
 ! R22   R(15,24)                1.2481         estimate D2E/DX2                !
 ! R23   R(16,19)                1.3912         estimate D2E/DX2                !
 ! R24   R(16,20)                1.0922         estimate D2E/DX2                !
 ! R25   R(18,19)                1.4011         estimate D2E/DX2                !
 ! R26   R(18,21)                1.0922         estimate D2E/DX2                !
 ! R27   R(19,22)                1.0911         estimate D2E/DX2                !
 ! A1    A(2,1,6)              118.0412         estimate D2E/DX2                !
 ! A2    A(2,1,7)              120.5962         estimate D2E/DX2                !
 ! A3    A(6,1,7)              121.3626         estimate D2E/DX2                !
 ! A4    A(1,2,3)              122.2878         estimate D2E/DX2                !
 ! A5    A(1,2,12)             125.9516         estimate D2E/DX2                !
 ! A6    A(3,2,12)             111.7607         estimate D2E/DX2                !
 ! A7    A(2,3,4)              118.9054         estimate D2E/DX2                !
 ! A8    A(2,3,11)             111.9973         estimate D2E/DX2                !
 ! A9    A(4,3,11)             129.0973         estimate D2E/DX2                !
 ! A10   A(3,4,5)              118.7635         estimate D2E/DX2                !
 ! A11   A(3,4,8)              120.4671         estimate D2E/DX2                !
 ! A12   A(5,4,8)              120.7694         estimate D2E/DX2                !
 ! A13   A(4,5,6)              121.9604         estimate D2E/DX2                !
 ! A14   A(4,5,9)              118.5992         estimate D2E/DX2                !
 ! A15   A(6,5,9)              119.4404         estimate D2E/DX2                !
 ! A16   A(1,6,5)              120.0417         estimate D2E/DX2                !
 ! A17   A(1,6,10)             119.8625         estimate D2E/DX2                !
 ! A18   A(5,6,10)             120.0958         estimate D2E/DX2                !
 ! A19   A(3,11,23)            112.3051         estimate D2E/DX2                !
 ! A20   A(3,11,25)            127.7564         estimate D2E/DX2                !
 ! A21   A(23,11,25)           119.9385         estimate D2E/DX2                !
 ! A22   A(2,12,23)             89.1682         estimate D2E/DX2                !
 ! A23   A(14,13,15)           121.2459         estimate D2E/DX2                !
 ! A24   A(14,13,23)           122.4286         estimate D2E/DX2                !
 ! A25   A(15,13,23)           116.3256         estimate D2E/DX2                !
 ! A26   A(13,14,16)           119.833          estimate D2E/DX2                !
 ! A27   A(13,14,17)           121.2367         estimate D2E/DX2                !
 ! A28   A(16,14,17)           118.9303         estimate D2E/DX2                !
 ! A29   A(13,15,18)           116.0941         estimate D2E/DX2                !
 ! A30   A(13,15,24)           119.602          estimate D2E/DX2                !
 ! A31   A(18,15,24)           124.3039         estimate D2E/DX2                !
 ! A32   A(14,16,19)           120.9685         estimate D2E/DX2                !
 ! A33   A(14,16,20)           118.7043         estimate D2E/DX2                !
 ! A34   A(19,16,20)           120.3271         estimate D2E/DX2                !
 ! A35   A(15,18,19)           121.5963         estimate D2E/DX2                !
 ! A36   A(15,18,21)           116.4332         estimate D2E/DX2                !
 ! A37   A(19,18,21)           121.9705         estimate D2E/DX2                !
 ! A38   A(16,19,18)           120.2622         estimate D2E/DX2                !
 ! A39   A(16,19,22)           119.7635         estimate D2E/DX2                !
 ! A40   A(18,19,22)           119.9743         estimate D2E/DX2                !
 ! A41   A(11,23,12)           114.7687         estimate D2E/DX2                !
 ! A42   A(11,23,13)           120.8675         estimate D2E/DX2                !
 ! A43   A(12,23,13)           124.3638         estimate D2E/DX2                !
 ! D1    D(6,1,2,3)              0.0            estimate D2E/DX2                !
 ! D2    D(6,1,2,12)          -180.0            estimate D2E/DX2                !
 ! D3    D(7,1,2,3)            179.9999         estimate D2E/DX2                !
 ! D4    D(7,1,2,12)            -0.0001         estimate D2E/DX2                !
 ! D5    D(2,1,6,5)             -0.0001         estimate D2E/DX2                !
 ! D6    D(2,1,6,10)           179.9999         estimate D2E/DX2                !
 ! D7    D(7,1,6,5)            180.0            estimate D2E/DX2                !
 ! D8    D(7,1,6,10)             0.0            estimate D2E/DX2                !
 ! D9    D(1,2,3,4)              0.0002         estimate D2E/DX2                !
 ! D10   D(1,2,3,11)          -180.0            estimate D2E/DX2                !
 ! D11   D(12,2,3,4)          -179.9999         estimate D2E/DX2                !
 ! D12   D(12,2,3,11)            0.0            estimate D2E/DX2                !
 ! D13   D(1,2,12,23)          179.9998         estimate D2E/DX2                !
 ! D14   D(3,2,12,23)           -0.0002         estimate D2E/DX2                !
 ! D15   D(2,3,4,5)             -0.0002         estimate D2E/DX2                !
 ! D16   D(2,3,4,8)            179.9999         estimate D2E/DX2                !
 ! D17   D(11,3,4,5)          -180.0            estimate D2E/DX2                !
 ! D18   D(11,3,4,8)             0.0001         estimate D2E/DX2                !
 ! D19   D(2,3,11,23)            0.0003         estimate D2E/DX2                !
 ! D20   D(2,3,11,25)          179.9975         estimate D2E/DX2                !
 ! D21   D(4,3,11,23)         -179.9999         estimate D2E/DX2                !
 ! D22   D(4,3,11,25)           -0.0027         estimate D2E/DX2                !
 ! D23   D(3,4,5,6)              0.0            estimate D2E/DX2                !
 ! D24   D(3,4,5,9)           -179.9999         estimate D2E/DX2                !
 ! D25   D(8,4,5,6)            180.0            estimate D2E/DX2                !
 ! D26   D(8,4,5,9)              0.0            estimate D2E/DX2                !
 ! D27   D(4,5,6,1)              0.0001         estimate D2E/DX2                !
 ! D28   D(4,5,6,10)          -179.9999         estimate D2E/DX2                !
 ! D29   D(9,5,6,1)           -179.9999         estimate D2E/DX2                !
 ! D30   D(9,5,6,10)             0.0            estimate D2E/DX2                !
 ! D31   D(3,11,23,12)          -0.0005         estimate D2E/DX2                !
 ! D32   D(3,11,23,13)         179.9987         estimate D2E/DX2                !
 ! D33   D(25,11,23,12)       -179.9979         estimate D2E/DX2                !
 ! D34   D(25,11,23,13)          0.0013         estimate D2E/DX2                !
 ! D35   D(2,12,23,11)           0.0004         estimate D2E/DX2                !
 ! D36   D(2,12,23,13)        -179.9987         estimate D2E/DX2                !
 ! D37   D(15,13,14,16)          0.0006         estimate D2E/DX2                !
 ! D38   D(15,13,14,17)       -179.9997         estimate D2E/DX2                !
 ! D39   D(23,13,14,16)       -179.9995         estimate D2E/DX2                !
 ! D40   D(23,13,14,17)          0.0002         estimate D2E/DX2                !
 ! D41   D(14,13,15,18)         -0.0007         estimate D2E/DX2                !
 ! D42   D(14,13,15,24)        179.9991         estimate D2E/DX2                !
 ! D43   D(23,13,15,18)        179.9994         estimate D2E/DX2                !
 ! D44   D(23,13,15,24)         -0.0008         estimate D2E/DX2                !
 ! D45   D(14,13,23,11)        179.9998         estimate D2E/DX2                !
 ! D46   D(14,13,23,12)         -0.0011         estimate D2E/DX2                !
 ! Atot  D(15,13,23,11)         -0.0003         Frozen                          !
 ! D48   D(15,13,23,12)        179.9988         estimate D2E/DX2                !
 ! D49   D(13,14,16,19)         -0.0001         estimate D2E/DX2                !
 ! D50   D(13,14,16,20)        179.9999         estimate D2E/DX2                !
 ! D51   D(17,14,16,19)       -179.9998         estimate D2E/DX2                !
 ! D52   D(17,14,16,20)          0.0001         estimate D2E/DX2                !
 ! D53   D(13,15,18,19)          0.0004         estimate D2E/DX2                !
 ! D54   D(13,15,18,21)        179.9999         estimate D2E/DX2                !
 ! D55   D(24,15,18,19)       -179.9994         estimate D2E/DX2                !
 ! D56   D(24,15,18,21)          0.0001         estimate D2E/DX2                !
 ! D57   D(14,16,19,18)         -0.0002         estimate D2E/DX2                !
 ! D58   D(14,16,19,22)        179.9999         estimate D2E/DX2                !
 ! D59   D(20,16,19,18)        179.9998         estimate D2E/DX2                !
 ! D60   D(20,16,19,22)          0.0            estimate D2E/DX2                !
 ! D61   D(15,18,19,16)          0.0            estimate D2E/DX2                !
 ! D62   D(15,18,19,22)        179.9999         estimate D2E/DX2                !
 ! D63   D(21,18,19,16)       -179.9995         estimate D2E/DX2                !
 ! D64   D(21,18,19,22)          0.0004         estimate D2E/DX2                !
 ! Qtot  GIC-1                  60.0            Frozen                          !
 ! Ptot  GIC-2                  80.0            Frozen                          !
 --------------------------------------------------------------------------------
 NOTE: GIC-type coordinates are in arbitrary units.
 Trust Radius=3.00D-01 FncErr=5.00D-06 GrdErr=5.00D-06 EigMax=2.50D+02 EigMin=1.00D-04
 Number of steps in this run=    146 maximum allowed number of steps=    150.
 GradGradGradGradGradGradGradGradGradGradGradGradGradGradGradGradGradGrad

 Leave Link  103 at Tue Jul 14 11:00:26 2020, MaxMem=  7784628224 cpu:               0.1 elap:               0.0
 (Enter /gpfs/loomis/apps/avx/software/Gaussian/16-C.01_AVX/g16/l202.exe)
                          Input orientation:                          
 ---------------------------------------------------------------------
 Center     Atomic      Atomic             Coordinates (Angstroms)
 Number     Number       Type             X           Y           Z
 ---------------------------------------------------------------------
      1          6           0        1.606932   -3.251003   -0.000020
      2          6           0        1.010389   -1.989251   -0.000022
      3          6           0        1.770118   -0.792477   -0.000024
      4          6           0        3.158803   -0.877475   -0.000026
      5          6           0        3.755576   -2.142187   -0.000023
      6          6           0        2.998734   -3.317538   -0.000019
      7          1           0        0.994454   -4.155647   -0.000017
      8          1           0        3.769068    0.028316   -0.000029
      9          1           0        4.845409   -2.205756   -0.000024
     10          1           0        3.496301   -4.288801   -0.000016
     11          7           0        0.955420    0.345703   -0.000026
     12         16           0       -0.713700   -1.665123   -0.000023
     13          6           0       -1.363332    1.057061    0.000008
     14          6           0       -2.709538    0.777578    0.000012
     15          6           0       -0.867428    2.456102    0.000034
     16          6           0       -3.656112    1.845175    0.000029
     17          1           0       -3.074716   -0.253185   -0.000002
     18          6           0       -1.872096    3.482445    0.000047
     19          6           0       -3.238465    3.172208    0.000044
     20          1           0       -4.720959    1.602130    0.000030
     21          1           0       -1.513308    4.514003    0.000068
     22          1           0       -3.979346    3.973226    0.000056
     23          6           0       -0.368877    0.032906   -0.000019
     24          8           0        0.361392    2.674648    0.000048
     25          1           0        1.138398    0.957584   -0.000004
 ---------------------------------------------------------------------
                    Distance matrix (angstroms):
                    1          2          3          4          5
     1  C    0.000000
     2  C    1.395666   0.000000
     3  C    2.463936   1.417552   0.000000
     4  C    2.835831   2.419034   1.391284   0.000000
     5  C    2.417880   2.749444   2.400783   1.398440   0.000000
     6  C    1.393391   2.391205   2.808101   2.445308   1.397949
     7  H    1.092479   2.166456   3.451459   3.928208   3.417283
     8  H    3.927947   3.417731   2.160904   1.092191   2.170544
     9  H    3.402980   3.841126   3.384490   2.146851   1.091685
    10  H    2.155630   3.386398   3.899230   3.427981   2.162216
    11  N    3.655238   2.335601   1.399709   2.520131   3.745727
    12  S    2.810756   1.754292   2.632653   3.951793   4.494666
    13  C    5.232771   3.861938   3.638585   4.918550   6.036423
    14  C    5.904352   4.636075   4.746829   6.097263   7.093851
    15  C    6.220411   4.825698   4.184485   5.227167   6.520462
    16  C    7.326027   6.039789   6.033339   7.338657   8.416185
    17  H    5.559203   4.438694   4.874756   6.264702   7.086693
    18  C    7.579114   6.184511   5.616109   6.657240   7.956581
    19  C    8.045839   6.685313   6.387850   7.571325   8.784042
    20  H    7.974654   6.763606   6.918687   8.260696   9.266691
    21  H    8.368466   6.975769   6.240162   7.134189   8.489170
    22  H    9.132140   7.774868   7.467814   8.630322   9.860390
    23  C    3.832477   2.447752   2.292718   3.643256   4.662847
    24  O    6.055140   4.708837   3.742388   4.521403   5.892570
    25  H    4.234587   2.949613   1.860586   2.729372   4.056870
                    6          7          8          9         10
     6  C    0.000000
     7  H    2.172456   0.000000
     8  H    3.433388   5.020362   0.000000
     9  H    2.155520   4.316472   2.479836   0.000000
    10  H    1.091295   2.505388   4.325725   2.481767   0.000000
    11  N    4.194576   4.501520   2.831492   4.652091   5.285329
    12  S    4.063575   3.020017   4.791967   5.585336   4.960625
    13  C    6.177761   5.721144   5.234486   7.013875   7.224561
    14  C    7.025264   6.168976   6.521789   8.122653   8.011281
    15  C    6.948534   6.868904   5.233665   7.373563   8.033421
    16  C    8.422623   7.591945   7.644232   9.417319   9.422456
    17  H    6.802724   5.638028   6.849571   8.157261   7.711320
    18  C    8.364494   8.158282   6.614661   8.802301   9.445208
    19  C    9.001081   8.462569   7.680467   9.709352  10.051056
    20  H    9.154059   8.112826   8.634666  10.296378  10.110709
    21  H    9.038338   9.025060   6.930000   9.251403  10.128453
    22  H   10.092018   9.529809   8.694839  10.772934  11.142099
    23  C    4.750398   4.404844   4.137948   5.674538   5.797996
    24  O    6.546898   6.859571   4.314549   6.627575   7.636575
    25  H    4.662350   5.115257   2.789975   4.873258   5.751892
                   11         12         13         14         15
    11  N    0.000000
    12  S    2.613309   0.000000
    13  C    2.425416   2.798626   0.000000
    14  C    3.690316   3.154386   1.374911   0.000000
    15  C    2.788649   4.124091   1.484330   2.492150   0.000000
    16  C    4.849190   4.580391   2.424451   1.426803   2.854819
    17  H    4.074391   2.750993   2.155361   1.093539   3.494619
    18  C    4.223032   5.276300   2.478170   2.831540   1.436223
    19  C    5.057450   5.456575   2.826653   2.452350   2.476817
    20  H    5.813768   5.170403   3.401582   2.173868   3.947021
    21  H    4.844517   6.230648   3.460194   3.923244   2.156877
    22  H    6.124609   6.515782   3.917594   3.438689   3.462036
    23  C    1.360737   1.732688   1.427527   2.456263   2.473951
    24  O    2.403509   4.470955   2.364584   3.609638   1.248103
    25  H    0.638654   3.210741   2.503707   3.852144   2.503777
                   16         17         18         19         20
    16  C    0.000000
    17  H    2.177415   0.000000
    18  C    2.421439   3.924440   0.000000
    19  C    1.391204   3.429305   1.401146   0.000000
    20  H    1.092232   2.480385   3.413445   2.159383   0.000000
    21  H    3.422609   5.016381   1.092172   2.185538   4.332208
    22  H    2.152459   4.322141   2.163647   1.091116   2.484368
    23  C    3.753696   2.720922   3.762843   4.253205   4.626347
    24  O    4.102239   4.514316   2.375080   3.634079   5.194284
    25  H    4.875977   4.383639   3.929122   4.905252   5.894702
                   21         22         23         24         25
    21  H    0.000000
    22  H    2.524635   0.000000
    23  C    4.624928   5.344306   0.000000
    24  O    2.626353   4.530817   2.740820   0.000000
    25  H    4.436177   5.940152   1.768306   1.884688   0.000000
 Symmetry turned off by external request.
 Stoichiometry    C13H9NOS
 Framework group  C1[X(C13H9NOS)]
 Deg. of freedom    69
 Full point group                 C1      NOp   1
 Rotational constants (GHZ):           1.4093483           0.2860765           0.2378056
 Leave Link  202 at Tue Jul 14 11:00:26 2020, MaxMem=  7784628224 cpu:               0.1 elap:               0.0
 (Enter /gpfs/loomis/apps/avx/software/Gaussian/16-C.01_AVX/g16/l301.exe)
 Standard basis: CC-pVDZ (5D, 7F)
 Ernie: Thresh=  0.10000D-02 Tol=  0.10000D-05 Strict=F.
 Ernie:  40 primitive shells out of 425 were deleted.
   273 basis functions,   629 primitive gaussians,   289 cartesian basis functions
    59 alpha electrons       59 beta electrons
       nuclear repulsion energy      1103.6409188533 Hartrees.
 IExCor= 4639 DFT=T Ex+Corr=wB97XD ExCW=0 ScaHFX=  1.000000
 ScaDFX=  1.000000  1.000000  1.000000  1.000000 ScalE2=  1.000000  1.000000
 IRadAn=      5 IRanWt=     -1 IRanGd=            0 ICorTp=0 IEmpDi=121
 HFx  wShort=  0.000000 wLong=  0.200000 cFull=  0.222036 cShort=  0.000000 cLong=  0.777964
 DFx  wShort=  0.000000 wLong=  0.200000 cFull=  0.000000 cShort=  0.000000 cLong=  1.000000
 NAtoms=   25 NActive=   25 NUniq=   25 SFac= 1.00D+00 NAtFMM=   60 NAOKFM=F Big=F
 Integral buffers will be    131072 words long.
 Raffenetti 1 integral format.
 Two-electron integral symmetry is turned off.
 R6Disp:  Grimme-D2 Dispersion energy=       -0.0141076896 Hartrees.
 Nuclear repulsion after empirical dispersion term =     1103.6268111637 Hartrees.
 ------------------------------------------------------------------------------
 Polarizable Continuum Model (PCM)
 =================================
 Model                : PCM.
 Atomic radii         : UFF (Universal Force Field).
 Polarization charges : Total charges.
 Charge compensation  : None.
 Solution method      : On-the-fly selection.
 Cavity type          : Scaled VdW (van der Waals Surface) (Alpha=1.100).
 Cavity algorithm     : GePol (No added spheres)
                        Default sphere list used, NSphG=   25.
                        Lebedev-Laikov grids with approx.  5.0 points / Ang**2.
                        Smoothing algorithm: York/Karplus (Gamma=1.0000).
                        Polarization charges: spherical gaussians, with
                                              point-specific exponents (IZeta= 3).
                        Self-potential: point-specific (ISelfS= 7).
                        Self-field    : sphere-specific E.n sum rule (ISelfD= 2).
 1st derivatives      : Analytical E(r).r(x)/FMM algorithm (CHGder, D1EAlg=3).
                        Cavity 1st derivative terms included.
 Solvent              : CarbonTetraChloride, Eps=   2.228000 Eps(inf)=   2.131892
 ------------------------------------------------------------------------------
 GePol: Number of generator spheres                  =      25
 GePol: Total number of spheres                      =      25
 GePol: Number of exposed spheres                    =      25 (100.00%)
 GePol: Number of points                             =    2183
 GePol: Average weight of points                     =       0.12
 GePol: Minimum weight of points                     =   0.95D-08
 GePol: Maximum weight of points                     =    0.20577
 GePol: Number of points with low weight             =     144
 GePol: Fraction of low-weight points (<1% of avg)   =       6.60%
 GePol: Cavity surface area                          =    271.930 Ang**2
 GePol: Cavity volume                                =    291.381 Ang**3
 Leave Link  301 at Tue Jul 14 11:00:26 2020, MaxMem=  7784628224 cpu:               0.8 elap:               0.1
 (Enter /gpfs/loomis/apps/avx/software/Gaussian/16-C.01_AVX/g16/l302.exe)
 NPDir=0 NMtPBC=     1 NCelOv=     1 NCel=       1 NClECP=     1 NCelD=      1
         NCelK=      1 NCelE2=     1 NClLst=     1 CellRange=     0.0.
 One-electron integrals computed using PRISM.
 NBasis=   273 RedAO= T EigKep=  3.00D-04  NBF=   273
 NBsUse=   273 1.00D-06 EigRej= -1.00D+00 NBFU=   273
 Precomputing XC quadrature grid using
 IXCGrd= 4 IRadAn=           5 IRanWt=          -1 IRanGd=           0 AccXCQ= 0.00D+00.
 Generated NRdTot=       0 NPtTot=           0 NUsed=           0 NTot=          32
 NSgBfM=   288   288   288   288   288 MxSgAt=    25 MxSgA2=    25.
 Leave Link  302 at Tue Jul 14 11:00:26 2020, MaxMem=  7784628224 cpu:               2.5 elap:               0.3
 (Enter /gpfs/loomis/apps/avx/software/Gaussian/16-C.01_AVX/g16/l303.exe)
 DipDrv:  MaxL=1.
 Leave Link  303 at Tue Jul 14 11:00:27 2020, MaxMem=  7784628224 cpu:               0.4 elap:               0.1
 (Enter /gpfs/loomis/apps/avx/software/Gaussian/16-C.01_AVX/g16/l308.exe)
 Leave Link  308 at Tue Jul 14 11:00:27 2020, MaxMem=  7784628224 cpu:               0.4 elap:               0.1
 (Enter /gpfs/loomis/apps/avx/software/Gaussian/16-C.01_AVX/g16/l401.exe)
 ExpMin= 1.22D-01 ExpMax= 1.11D+05 ExpMxC= 1.07D+03 IAcc=3 IRadAn=         5 AccDes= 0.00D+00
 Harris functional with IExCor= 4639 and IRadAn=       5 diagonalized for initial guess.
 HarFok:  IExCor= 4639 AccDes= 0.00D+00 IRadAn=         5 IDoV= 1 UseB2=F ITyADJ=14
 ICtDFT=  3500011 ScaDFX=  1.000000  1.000000  1.000000  1.000000
 FoFCou: FMM=F IPFlag=           0 FMFlag=      100000 FMFlg1=           0
         NFxFlg=           0 DoJE=T BraDBF=F KetDBF=T FulRan=T
         wScrn=  0.000000 ICntrl=       500 IOpCl=  0 I1Cent=   200000004 NGrid=           0
         NMat0=    1 NMatS0=      1 NMatT0=    0 NMatD0=    1 NMtDS0=    0 NMtDT0=    0
 Symmetry not used in FoFCou.
 Harris En= -994.132007218629    
 JPrj=0 DoOrth=F DoCkMO=F.
 Leave Link  401 at Tue Jul 14 11:00:28 2020, MaxMem=  7784628224 cpu:              13.4 elap:               1.4
 (Enter /gpfs/loomis/apps/avx/software/Gaussian/16-C.01_AVX/g16/l502.exe)
 Two-electron integral symmetry not used.
 Closed shell SCF:
 Using DIIS extrapolation, IDIIS=  1040.
 NGot=  7784628224 LenX=  7784455381 LenY=  7784371419
 Requested convergence on RMS density matrix=1.00D-08 within 128 cycles.
 Requested convergence on MAX density matrix=1.00D-06.
 Requested convergence on             energy=1.00D-06.
 No special actions if energy rises.
 Fock matrices will be formed incrementally for  20 cycles.

 Cycle   1  Pass 1  IDiag  1:
 FoFJK:  IHMeth= 1 ICntrl=       0 DoSepK=T KAlg= 0 I1Cent=           0 FoldK=F
 IRaf=         1 NMat=       1 IRICut=       1 DoRegI=T DoRafI=F ISym2E= 0 IDoP0=0 IntGTp=1.
 FoFCou: FMM=F IPFlag=           0 FMFlag=      100000 FMFlg1=           0
         NFxFlg=           0 DoJE=T BraDBF=F KetDBF=F FulRan=T
         wScrn=  0.000000 ICntrl=       500 IOpCl=  0 I1Cent=           0 NGrid=           0
         NMat0=    1 NMatS0=      1 NMatT0=    0 NMatD0=    1 NMtDS0=    0 NMtDT0=    0
 Symmetry not used in FoFCou.
 Inv3:  Mode=1 IEnd=    14296467.
 Iteration    1 A*A^-1 deviation from unit magnitude is 4.22D-15 for   2165.
 Iteration    1 A*A^-1 deviation from orthogonality  is 2.41D-15 for   2160   2074.
 Iteration    1 A^-1*A deviation from unit magnitude is 3.77D-15 for   2165.
 Iteration    1 A^-1*A deviation from orthogonality  is 2.59D-15 for   2160   2074.
 E= -1028.23169427326    
 DIIS: error= 4.21D-02 at cycle   1 NSaved=   1.
 NSaved= 1 IEnMin= 1 EnMin= -1028.23169427326     IErMin= 1 ErrMin= 4.21D-02
 ErrMax= 4.21D-02  0.00D+00 EMaxC= 1.00D-01 BMatC= 4.05D-01 BMatP= 4.05D-01
 IDIUse=3 WtCom= 5.79D-01 WtEn= 4.21D-01
 Coeff-Com:  0.100D+01
 Coeff-En:   0.100D+01
 Coeff:      0.100D+01
 Gap=     0.293 Goal=   None    Shift=    0.000
 GapD=    0.293 DampG=1.000 DampE=0.500 DampFc=0.5000 IDamp=-1.
 Damping current iteration by 5.00D-01
 RMSDP=3.76D-03 MaxDP=2.62D-01              OVMax= 2.17D-01

 Cycle   2  Pass 1  IDiag  1:
 RMSU=  1.88D-03    CP:  9.93D-01
 E= -1028.35978299022     Delta-E=       -0.128088716964 Rises=F Damp=T
 DIIS: error= 1.09D-02 at cycle   2 NSaved=   2.
 NSaved= 2 IEnMin= 2 EnMin= -1028.35978299022     IErMin= 2 ErrMin= 1.09D-02
 ErrMax= 1.09D-02  0.00D+00 EMaxC= 1.00D-01 BMatC= 5.82D-02 BMatP= 4.05D-01
 IDIUse=3 WtCom= 8.91D-01 WtEn= 1.09D-01
 Coeff-Com: -0.270D+00 0.127D+01
 Coeff-En:   0.000D+00 0.100D+01
 Coeff:     -0.241D+00 0.124D+01
 Gap=     0.365 Goal=   None    Shift=    0.000
 RMSDP=1.17D-03 MaxDP=3.00D-02 DE=-1.28D-01 OVMax= 1.44D-01

 Cycle   3  Pass 1  IDiag  1:
 RMSU=  1.13D-03    CP:  9.91D-01  1.16D+00
 E= -1028.47710977157     Delta-E=       -0.117326781344 Rises=F Damp=F
 DIIS: error= 5.40D-03 at cycle   3 NSaved=   3.
 NSaved= 3 IEnMin= 3 EnMin= -1028.47710977157     IErMin= 3 ErrMin= 5.40D-03
 ErrMax= 5.40D-03  0.00D+00 EMaxC= 1.00D-01 BMatC= 1.44D-02 BMatP= 5.82D-02
 IDIUse=3 WtCom= 9.46D-01 WtEn= 5.40D-02
 Coeff-Com: -0.194D+00 0.475D+00 0.719D+00
 Coeff-En:   0.000D+00 0.000D+00 0.100D+01
 Coeff:     -0.183D+00 0.449D+00 0.734D+00
 Gap=     0.231 Goal=   None    Shift=    0.000
 RMSDP=5.12D-04 MaxDP=2.17D-02 DE=-1.17D-01 OVMax= 4.60D-02

 Cycle   4  Pass 1  IDiag  1:
 RMSU=  4.08D-04    CP:  9.89D-01  1.31D+00  8.85D-01
 E= -1028.49119006500     Delta-E=       -0.014080293430 Rises=F Damp=F
 DIIS: error= 1.86D-03 at cycle   4 NSaved=   4.
 NSaved= 4 IEnMin= 4 EnMin= -1028.49119006500     IErMin= 4 ErrMin= 1.86D-03
 ErrMax= 1.86D-03  0.00D+00 EMaxC= 1.00D-01 BMatC= 1.67D-03 BMatP= 1.44D-02
 IDIUse=3 WtCom= 9.81D-01 WtEn= 1.86D-02
 Coeff-Com: -0.686D-01 0.135D+00 0.337D+00 0.596D+00
 Coeff-En:   0.000D+00 0.000D+00 0.000D+00 0.100D+01
 Coeff:     -0.673D-01 0.133D+00 0.331D+00 0.604D+00
 Gap=     0.234 Goal=   None    Shift=    0.000
 RMSDP=1.61D-04 MaxDP=8.51D-03 DE=-1.41D-02 OVMax= 1.20D-02

 Cycle   5  Pass 1  IDiag  1:
 RMSU=  1.13D-04    CP:  9.89D-01  1.32D+00  9.48D-01  7.86D-01
 E= -1028.49301510151     Delta-E=       -0.001825036513 Rises=F Damp=F
 DIIS: error= 6.40D-04 at cycle   5 NSaved=   5.
 NSaved= 5 IEnMin= 5 EnMin= -1028.49301510151     IErMin= 5 ErrMin= 6.40D-04
 ErrMax= 6.40D-04  0.00D+00 EMaxC= 1.00D-01 BMatC= 6.38D-05 BMatP= 1.67D-03
 IDIUse=3 WtCom= 9.94D-01 WtEn= 6.40D-03
 Coeff-Com: -0.196D-04-0.634D-02 0.240D-01 0.159D+00 0.823D+00
 Coeff-En:   0.000D+00 0.000D+00 0.000D+00 0.000D+00 0.100D+01
 Coeff:     -0.195D-04-0.630D-02 0.238D-01 0.158D+00 0.824D+00
 Gap=     0.235 Goal=   None    Shift=    0.000
 RMSDP=6.46D-05 MaxDP=2.18D-03 DE=-1.83D-03 OVMax= 7.62D-03

 Cycle   6  Pass 1  IDiag  1:
 RMSU=  4.19D-05    CP:  9.89D-01  1.32D+00  9.66D-01  8.87D-01  1.14D+00
 E= -1028.49317145754     Delta-E=       -0.000156356032 Rises=F Damp=F
 DIIS: error= 2.81D-04 at cycle   6 NSaved=   6.
 NSaved= 6 IEnMin= 6 EnMin= -1028.49317145754     IErMin= 6 ErrMin= 2.81D-04
 ErrMax= 2.81D-04  0.00D+00 EMaxC= 1.00D-01 BMatC= 1.28D-05 BMatP= 6.38D-05
 IDIUse=3 WtCom= 9.97D-01 WtEn= 2.81D-03
 Coeff-Com:  0.175D-01-0.358D-01-0.707D-01-0.863D-01 0.221D+00 0.955D+00
 Coeff-En:   0.000D+00 0.000D+00 0.000D+00 0.000D+00 0.000D+00 0.100D+01
 Coeff:      0.175D-01-0.357D-01-0.705D-01-0.861D-01 0.220D+00 0.955D+00
 Gap=     0.236 Goal=   None    Shift=    0.000
 RMSDP=4.32D-05 MaxDP=2.17D-03 DE=-1.56D-04 OVMax= 5.08D-03

 Cycle   7  Pass 1  IDiag  1:
 RMSU=  2.02D-05    CP:  9.88D-01  1.32D+00  9.81D-01  9.27D-01  1.38D+00
                    CP:  1.35D+00
 E= -1028.49321949232     Delta-E=       -0.000048034778 Rises=F Damp=F
 DIIS: error= 9.14D-05 at cycle   7 NSaved=   7.
 NSaved= 7 IEnMin= 7 EnMin= -1028.49321949232     IErMin= 7 ErrMin= 9.14D-05
 ErrMax= 9.14D-05  0.00D+00 EMaxC= 1.00D-01 BMatC= 2.55D-06 BMatP= 1.28D-05
 IDIUse=1 WtCom= 1.00D+00 WtEn= 0.00D+00
 Coeff-Com:  0.654D-02-0.122D-01-0.279D-01-0.550D-01-0.298D-01 0.362D+00
 Coeff-Com:  0.757D+00
 Coeff:      0.654D-02-0.122D-01-0.279D-01-0.550D-01-0.298D-01 0.362D+00
 Coeff:      0.757D+00
 Gap=     0.236 Goal=   None    Shift=    0.000
 RMSDP=1.61D-05 MaxDP=6.06D-04 DE=-4.80D-05 OVMax= 2.05D-03

 Cycle   8  Pass 1  IDiag  1:
 RMSU=  8.41D-06    CP:  9.88D-01  1.32D+00  9.82D-01  9.37D-01  1.44D+00
                    CP:  1.60D+00  1.18D+00
 E= -1028.49322697189     Delta-E=       -0.000007479571 Rises=F Damp=F
 DIIS: error= 6.48D-05 at cycle   8 NSaved=   8.
 NSaved= 8 IEnMin= 8 EnMin= -1028.49322697189     IErMin= 8 ErrMin= 6.48D-05
 ErrMax= 6.48D-05  0.00D+00 EMaxC= 1.00D-01 BMatC= 4.69D-07 BMatP= 2.55D-06
 IDIUse=1 WtCom= 1.00D+00 WtEn= 0.00D+00
 Coeff-Com: -0.163D-02 0.354D-02 0.738D-02 0.252D-02-0.380D-01-0.110D+00
 Coeff-Com:  0.215D+00 0.921D+00
 Coeff:     -0.163D-02 0.354D-02 0.738D-02 0.252D-02-0.380D-01-0.110D+00
 Coeff:      0.215D+00 0.921D+00
 Gap=     0.236 Goal=   None    Shift=    0.000
 RMSDP=8.39D-06 MaxDP=2.28D-04 DE=-7.48D-06 OVMax= 1.40D-03

 Cycle   9  Pass 1  IDiag  1:
 RMSU=  3.40D-06    CP:  9.88D-01  1.32D+00  9.82D-01  9.37D-01  1.46D+00
                    CP:  1.71D+00  1.45D+00  1.17D+00
 E= -1028.49322890525     Delta-E=       -0.000001933357 Rises=F Damp=F
 DIIS: error= 2.17D-05 at cycle   9 NSaved=   9.
 NSaved= 9 IEnMin= 9 EnMin= -1028.49322890525     IErMin= 9 ErrMin= 2.17D-05
 ErrMax= 2.17D-05  0.00D+00 EMaxC= 1.00D-01 BMatC= 1.45D-07 BMatP= 4.69D-07
 IDIUse=1 WtCom= 1.00D+00 WtEn= 0.00D+00
 Coeff-Com: -0.163D-02 0.321D-02 0.742D-02 0.905D-02-0.104D-01-0.115D+00
 Coeff-Com: -0.445D-01 0.389D+00 0.762D+00
 Coeff:     -0.163D-02 0.321D-02 0.742D-02 0.905D-02-0.104D-01-0.115D+00
 Coeff:     -0.445D-01 0.389D+00 0.762D+00
 Gap=     0.237 Goal=   None    Shift=    0.000
 RMSDP=4.45D-06 MaxDP=1.63D-04 DE=-1.93D-06 OVMax= 5.94D-04

 Cycle  10  Pass 1  IDiag  1:
 RMSU=  1.73D-06    CP:  9.88D-01  1.32D+00  9.82D-01  9.37D-01  1.47D+00
                    CP:  1.76D+00  1.54D+00  1.44D+00  1.13D+00
 E= -1028.49322934357     Delta-E=       -0.000000438324 Rises=F Damp=F
 DIIS: error= 1.39D-05 at cycle  10 NSaved=  10.
 NSaved=10 IEnMin=10 EnMin= -1028.49322934357     IErMin=10 ErrMin= 1.39D-05
 ErrMax= 1.39D-05  0.00D+00 EMaxC= 1.00D-01 BMatC= 2.24D-08 BMatP= 1.45D-07
 IDIUse=1 WtCom= 1.00D+00 WtEn= 0.00D+00
 Coeff-Com:  0.412D-04-0.157D-03 0.128D-03 0.151D-02 0.910D-02-0.118D-01
 Coeff-Com: -0.727D-01-0.852D-01 0.278D+00 0.882D+00
 Coeff:      0.412D-04-0.157D-03 0.128D-03 0.151D-02 0.910D-02-0.118D-01
 Coeff:     -0.727D-01-0.852D-01 0.278D+00 0.882D+00
 Gap=     0.237 Goal=   None    Shift=    0.000
 RMSDP=2.03D-06 MaxDP=5.80D-05 DE=-4.38D-07 OVMax= 3.76D-04

 Cycle  11  Pass 1  IDiag  1:
 RMSU=  6.44D-07    CP:  9.88D-01  1.32D+00  9.82D-01  9.37D-01  1.48D+00
                    CP:  1.79D+00  1.59D+00  1.53D+00  1.44D+00  1.16D+00
 E= -1028.49322944072     Delta-E=       -0.000000097147 Rises=F Damp=F
 DIIS: error= 4.23D-06 at cycle  11 NSaved=  11.
 NSaved=11 IEnMin=11 EnMin= -1028.49322944072     IErMin=11 ErrMin= 4.23D-06
 ErrMax= 4.23D-06  0.00D+00 EMaxC= 1.00D-01 BMatC= 4.80D-09 BMatP= 2.24D-08
 IDIUse=1 WtCom= 1.00D+00 WtEn= 0.00D+00
 Coeff-Com:  0.258D-03-0.533D-03-0.101D-02-0.907D-03 0.526D-02 0.122D-01
 Coeff-Com: -0.181D-01-0.825D-01-0.468D-01 0.299D+00 0.833D+00
 Coeff:      0.258D-03-0.533D-03-0.101D-02-0.907D-03 0.526D-02 0.122D-01
 Coeff:     -0.181D-01-0.825D-01-0.468D-01 0.299D+00 0.833D+00
 Gap=     0.237 Goal=   None    Shift=    0.000
 RMSDP=7.97D-07 MaxDP=2.52D-05 DE=-9.71D-08 OVMax= 1.20D-04

 Cycle  12  Pass 1  IDiag  1:
 RMSU=  2.58D-07    CP:  9.88D-01  1.32D+00  9.82D-01  9.38D-01  1.48D+00
                    CP:  1.79D+00  1.60D+00  1.58D+00  1.54D+00  1.40D+00
                    CP:  1.16D+00
 E= -1028.49322945486     Delta-E=       -0.000000014144 Rises=F Damp=F
 DIIS: error= 1.65D-06 at cycle  12 NSaved=  12.
 NSaved=12 IEnMin=12 EnMin= -1028.49322945486     IErMin=12 ErrMin= 1.65D-06
 ErrMax= 1.65D-06  0.00D+00 EMaxC= 1.00D-01 BMatC= 6.71D-10 BMatP= 4.80D-09
 IDIUse=1 WtCom= 1.00D+00 WtEn= 0.00D+00
 Coeff-Com:  0.118D-03-0.227D-03-0.517D-03-0.911D-03 0.553D-03 0.814D-02
 Coeff-Com:  0.865D-02-0.147D-01-0.853D-01-0.579D-01 0.289D+00 0.853D+00
 Coeff:      0.118D-03-0.227D-03-0.517D-03-0.911D-03 0.553D-03 0.814D-02
 Coeff:      0.865D-02-0.147D-01-0.853D-01-0.579D-01 0.289D+00 0.853D+00
 Gap=     0.237 Goal=   None    Shift=    0.000
 RMSDP=3.26D-07 MaxDP=8.94D-06 DE=-1.41D-08 OVMax= 5.08D-05

 Cycle  13  Pass 1  IDiag  1:
 RMSU=  9.80D-08    CP:  9.88D-01  1.32D+00  9.82D-01  9.38D-01  1.48D+00
                    CP:  1.79D+00  1.60D+00  1.59D+00  1.58D+00  1.49D+00
                    CP:  1.39D+00  1.07D+00
 E= -1028.49322945719     Delta-E=       -0.000000002326 Rises=F Damp=F
 DIIS: error= 6.41D-07 at cycle  13 NSaved=  13.
 NSaved=13 IEnMin=13 EnMin= -1028.49322945719     IErMin=13 ErrMin= 6.41D-07
 ErrMax= 6.41D-07  0.00D+00 EMaxC= 1.00D-01 BMatC= 6.78D-11 BMatP= 6.71D-10
 IDIUse=1 WtCom= 1.00D+00 WtEn= 0.00D+00
 Coeff-Com: -0.917D-05 0.208D-04 0.341D-04-0.712D-04-0.247D-03 0.261D-03
 Coeff-Com:  0.307D-02 0.588D-02-0.119D-01-0.370D-01-0.549D-01 0.179D+00
 Coeff-Com:  0.915D+00
 Coeff:     -0.917D-05 0.208D-04 0.341D-04-0.712D-04-0.247D-03 0.261D-03
 Coeff:      0.307D-02 0.588D-02-0.119D-01-0.370D-01-0.549D-01 0.179D+00
 Coeff:      0.915D+00
 Gap=     0.237 Goal=   None    Shift=    0.000
 RMSDP=8.87D-08 MaxDP=2.23D-06 DE=-2.33D-09 OVMax= 1.03D-05

 Cycle  14  Pass 1  IDiag  1:
 RMSU=  3.53D-08    CP:  9.88D-01  1.32D+00  9.82D-01  9.38D-01  1.48D+00
                    CP:  1.79D+00  1.60D+00  1.59D+00  1.59D+00  1.52D+00
                    CP:  1.44D+00  1.23D+00  1.17D+00
 E= -1028.49322945739     Delta-E=       -0.000000000206 Rises=F Damp=F
 DIIS: error= 1.85D-07 at cycle  14 NSaved=  14.
 NSaved=14 IEnMin=14 EnMin= -1028.49322945739     IErMin=14 ErrMin= 1.85D-07
 ErrMax= 1.85D-07  0.00D+00 EMaxC= 1.00D-01 BMatC= 1.01D-11 BMatP= 6.78D-11
 IDIUse=1 WtCom= 1.00D+00 WtEn= 0.00D+00
 Coeff-Com: -0.147D-04 0.294D-04 0.646D-04 0.625D-04-0.131D-03-0.747D-03
 Coeff-Com:  0.118D-03 0.376D-02 0.428D-02-0.569D-02-0.501D-01-0.302D-01
 Coeff-Com:  0.333D+00 0.746D+00
 Coeff:     -0.147D-04 0.294D-04 0.646D-04 0.625D-04-0.131D-03-0.747D-03
 Coeff:      0.118D-03 0.376D-02 0.428D-02-0.569D-02-0.501D-01-0.302D-01
 Coeff:      0.333D+00 0.746D+00
 Gap=     0.237 Goal=   None    Shift=    0.000
 RMSDP=2.33D-08 MaxDP=5.58D-07 DE=-2.06D-10 OVMax= 2.84D-06

 Cycle  15  Pass 1  IDiag  1:
 RMSU=  1.21D-08    CP:  9.88D-01  1.32D+00  9.82D-01  9.38D-01  1.48D+00
                    CP:  1.79D+00  1.60D+00  1.60D+00  1.59D+00  1.52D+00
                    CP:  1.45D+00  1.26D+00  1.31D+00  1.10D+00
 E= -1028.49322945742     Delta-E=       -0.000000000025 Rises=F Damp=F
 DIIS: error= 7.15D-08 at cycle  15 NSaved=  15.
 NSaved=15 IEnMin=15 EnMin= -1028.49322945742     IErMin=15 ErrMin= 7.15D-08
 ErrMax= 7.15D-08  0.00D+00 EMaxC= 1.00D-01 BMatC= 1.27D-12 BMatP= 1.01D-11
 IDIUse=1 WtCom= 1.00D+00 WtEn= 0.00D+00
 Coeff-Com: -0.221D-05 0.391D-05 0.125D-04 0.330D-04 0.377D-05-0.308D-03
 Coeff-Com: -0.644D-03 0.195D-04 0.363D-02 0.684D-02-0.184D-02-0.513D-01
 Coeff-Com: -0.874D-01 0.170D+00 0.961D+00
 Coeff:     -0.221D-05 0.391D-05 0.125D-04 0.330D-04 0.377D-05-0.308D-03
 Coeff:     -0.644D-03 0.195D-04 0.363D-02 0.684D-02-0.184D-02-0.513D-01
 Coeff:     -0.874D-01 0.170D+00 0.961D+00
 Gap=     0.237 Goal=   None    Shift=    0.000
 RMSDP=1.25D-08 MaxDP=2.94D-07 DE=-2.52D-11 OVMax= 1.41D-06

 Cycle  16  Pass 1  IDiag  1:
 RMSU=  5.10D-09    CP:  9.88D-01  1.32D+00  9.82D-01  9.38D-01  1.48D+00
                    CP:  1.79D+00  1.60D+00  1.60D+00  1.59D+00  1.52D+00
                    CP:  1.45D+00  1.27D+00  1.38D+00  1.29D+00  1.21D+00
 E= -1028.49322945742     Delta-E=       -0.000000000002 Rises=F Damp=F
 DIIS: error= 2.53D-08 at cycle  16 NSaved=  16.
 NSaved=16 IEnMin=16 EnMin= -1028.49322945742     IErMin=16 ErrMin= 2.53D-08
 ErrMax= 2.53D-08  0.00D+00 EMaxC= 1.00D-01 BMatC= 1.33D-13 BMatP= 1.27D-12
 IDIUse=1 WtCom= 1.00D+00 WtEn= 0.00D+00
 Coeff-Com:  0.807D-06-0.173D-05-0.257D-05 0.200D-05 0.977D-05-0.103D-04
 Coeff-Com: -0.175D-03-0.330D-03 0.372D-03 0.208D-02 0.435D-02-0.106D-01
 Coeff-Com: -0.468D-01-0.325D-01 0.241D+00 0.843D+00
 Coeff:      0.807D-06-0.173D-05-0.257D-05 0.200D-05 0.977D-05-0.103D-04
 Coeff:     -0.175D-03-0.330D-03 0.372D-03 0.208D-02 0.435D-02-0.106D-01
 Coeff:     -0.468D-01-0.325D-01 0.241D+00 0.843D+00
 Gap=     0.237 Goal=   None    Shift=    0.000
 RMSDP=3.65D-09 MaxDP=1.18D-07 DE=-2.27D-12 OVMax= 4.98D-07

 Error on total polarization charges =  0.00879
 SCF Done:  E(RwB97XD) =  -1028.49322946     A.U. after   16 cycles
            NFock= 16  Conv=0.36D-08     -V/T= 2.0034
 KE= 1.025012409539D+03 PE=-4.619290592491D+03 EE= 1.462158142331D+03
 Leave Link  502 at Tue Jul 14 11:01:56 2020, MaxMem=  7784628224 cpu:             874.5 elap:              88.2
 (Enter /gpfs/loomis/apps/avx/software/Gaussian/16-C.01_AVX/g16/l801.exe)
 DoSCS=F DFT=T ScalE2(SS,OS)=  1.000000  1.000000
 ExpMin= 1.22D-01 ExpMax= 1.11D+05 ExpMxC= 1.07D+03 IAcc=3 IRadAn=         5 AccDes= 0.00D+00
 HarFok:  IExCor=  205 AccDes= 0.00D+00 IRadAn=         5 IDoV=-2 UseB2=F ITyADJ=14
 ICtDFT= 12500011 ScaDFX=  1.000000  1.000000  1.000000  1.000000
 Largest valence mixing into a core orbital is  9.47D-05
 Largest core mixing into a valence orbital is  3.25D-05
 Range of M.O.s used for correlation:    21   273
 NBasis=   273 NAE=    59 NBE=    59 NFC=    20 NFV=     0
 NROrb=    253 NOA=    39 NOB=    39 NVA=   214 NVB=   214
 Leave Link  801 at Tue Jul 14 11:01:56 2020, MaxMem=  7784628224 cpu:               1.4 elap:               0.2
 (Enter /gpfs/loomis/apps/avx/software/Gaussian/16-C.01_AVX/g16/l914.exe)
 RHF ground state
 Keep R1, R2, and R3 ints in memory in canonical form, NReq=4262515490.
 FoFCou: FMM=F IPFlag=           0 FMFlag=           0 FMFlg1=           0
         NFxFlg=           0 DoJE=F BraDBF=F KetDBF=F FulRan=T
         wScrn=  0.000000 ICntrl=       600 IOpCl=  0 I1Cent=           0 NGrid=           0
         NMat0=    1 NMatS0=  37401 NMatT0=    0 NMatD0=    1 NMtDS0=    0 NMtDT0=    0
 Symmetry not used in FoFCou.
 Two-electron integral symmetry not used.
 MDV=  7784628224 DFT=T DoStab=F Mixed=T DoRPA=T DoScal=F NonHer=T
 NEqPCM:  Using equilibrium solvation (IEInf=0, Eps=   2.2280, EpsInf=   2.1319)
 Making orbital integer symmetry assigments:
    12 initial guesses have been made.
 Convergence on wavefunction:    0.000001000000000
 Davidson Disk Diagonalization:  ConvIn= 1.00D-06 SkipCon=T Conv= 1.00D-06.
 Max sub-space:  2000 roots to seek:    12 dimension of matrix:        16692
 Iteration     1 Dimension    12 NMult     0 NNew     12
 CISAX will form    12 AO SS matrices at one time.
 NMat=    12 NSing=    12 JSym2X= 0.
 New state      3 was old state      4
 Excitation Energies [eV] at current iteration:
 Root      1 :     3.398571679590946
 Root      2 :     3.544557360324507
 Root      3 :     4.939433299485459
 Root      4 :     5.176598687778505
 Root      5 :     5.190406750197712
 Root      6 :     5.678728879867021
 Root      7 :     5.851311445594909
 Root      8 :     6.486825156304916
 Root      9 :     6.657154658850528
 Root     10 :     6.761474155469950
 Root     11 :     6.929258969416839
 Root     12 :     6.957984983193748
 Iteration     2 Dimension    18 NMult    12 NNew      6
 CISAX will form     6 AO SS matrices at one time.
 NMat=     6 NSing=     6 JSym2X= 0.
 Root      1 not converged, maximum delta is    0.042643318266591
 Root      2 not converged, maximum delta is    0.059755076942518
 Root      3 not converged, maximum delta is    0.059449183777178
 Excitation Energies [eV] at current iteration:
 Root      1 :     2.874393036386391   Change is   -0.524178643204555
 Root      2 :     3.421764193211165   Change is   -0.122793167113343
 Root      3 :     4.392885151052173   Change is   -0.546548148433285
 Iteration     3 Dimension    24 NMult    18 NNew      6
 CISAX will form     6 AO SS matrices at one time.
 NMat=     6 NSing=     6 JSym2X= 0.
 Root      1 not converged, maximum delta is    0.014264519741901
 Root      2 not converged, maximum delta is    0.035018516092920
 Root      3 not converged, maximum delta is    0.013971293553177
 Excitation Energies [eV] at current iteration:
 Root      1 :     2.847429693208137   Change is   -0.026963343178254
 Root      2 :     3.402687014050418   Change is   -0.019077179160747
 Root      3 :     4.362089702296930   Change is   -0.030795448755243
 Iteration     4 Dimension    30 NMult    24 NNew      6
 CISAX will form     6 AO SS matrices at one time.
 NMat=     6 NSing=     6 JSym2X= 0.
 Root      1 not converged, maximum delta is    0.008100374747302
 Root      2 not converged, maximum delta is    0.005921854113109
 Root      3 not converged, maximum delta is    0.014384724430082
 Excitation Energies [eV] at current iteration:
 Root      1 :     2.842550702048937   Change is   -0.004878991159200
 Root      2 :     3.401492088112815   Change is   -0.001194925937602
 Root      3 :     4.355952040281001   Change is   -0.006137662015929
 Iteration     5 Dimension    36 NMult    30 NNew      6
 CISAX will form     6 AO SS matrices at one time.
 NMat=     6 NSing=     6 JSym2X= 0.
 Root      1 not converged, maximum delta is    0.001846777813365
 Root      2 not converged, maximum delta is    0.000863779136184
 Root      3 not converged, maximum delta is    0.008841799250120
 Excitation Energies [eV] at current iteration:
 Root      1 :     2.842059172294040   Change is   -0.000491529754897
 Root      2 :     3.401426511992162   Change is   -0.000065576120653
 Root      3 :     4.354573531268826   Change is   -0.001378509012176
 Iteration     6 Dimension    42 NMult    36 NNew      6
 CISAX will form     6 AO SS matrices at one time.
 NMat=     6 NSing=     6 JSym2X= 0.
 Root      1 not converged, maximum delta is    0.000486002019492
 Root      2 not converged, maximum delta is    0.000265801395683
 Root      3 not converged, maximum delta is    0.003229319566028
 Excitation Energies [eV] at current iteration:
 Root      1 :     2.842018105798688   Change is   -0.000041066495351
 Root      2 :     3.401422141813750   Change is   -0.000004370178412
 Root      3 :     4.354296930936136   Change is   -0.000276600332689
 Iteration     7 Dimension    48 NMult    42 NNew      6
 CISAX will form     6 AO SS matrices at one time.
 NMat=     6 NSing=     6 JSym2X= 0.
 Root      1 not converged, maximum delta is    0.000082125714674
 Root      2 not converged, maximum delta is    0.000055000123356
 Root      3 not converged, maximum delta is    0.000988692637914
 Excitation Energies [eV] at current iteration:
 Root      1 :     2.842015690546283   Change is   -0.000002415252405
 Root      2 :     3.401421867151477   Change is   -0.000000274662273
 Root      3 :     4.354254227221540   Change is   -0.000042703714596
 Iteration     8 Dimension    54 NMult    48 NNew      6
 CISAX will form     6 AO SS matrices at one time.
 NMat=     6 NSing=     6 JSym2X= 0.
 Root      1 not converged, maximum delta is    0.000016438203511
 Root      2 not converged, maximum delta is    0.000007419434332
 Root      3 not converged, maximum delta is    0.000533540400785
 Excitation Energies [eV] at current iteration:
 Root      1 :     2.842015582821910   Change is   -0.000000107724373
 Root      2 :     3.401421854666789   Change is   -0.000000012484688
 Root      3 :     4.354247472771859   Change is   -0.000006754449681
 Iteration     9 Dimension    60 NMult    54 NNew      6
 CISAX will form     6 AO SS matrices at one time.
 NMat=     6 NSing=     6 JSym2X= 0.
 Root      1 not converged, maximum delta is    0.000005876964532
 Root      2 not converged, maximum delta is    0.000002084033049
 Root      3 not converged, maximum delta is    0.000163089502325
 Excitation Energies [eV] at current iteration:
 Root      1 :     2.842015573832646   Change is   -0.000000008989264
 Root      2 :     3.401421854110888   Change is   -0.000000000555902
 Root      3 :     4.354246834661987   Change is   -0.000000638109872
 Iteration    10 Dimension    66 NMult    60 NNew      6
 CISAX will form     6 AO SS matrices at one time.
 NMat=     6 NSing=     6 JSym2X= 0.
 Root      1 not converged, maximum delta is    0.000001078596816
 Root      2 has converged.
 Root      3 not converged, maximum delta is    0.000032484232741
 Excitation Energies [eV] at current iteration:
 Root      1 :     2.842015573415796   Change is   -0.000000000416850
 Root      2 :     3.401421854072653   Change is   -0.000000000038235
 Root      3 :     4.354246772066834   Change is   -0.000000062595153
 Iteration    11 Dimension    70 NMult    66 NNew      4
 CISAX will form     4 AO SS matrices at one time.
 NMat=     4 NSing=     4 JSym2X= 0.
 Root      1 has converged.
 Root      2 has converged.
 Root      3 not converged, maximum delta is    0.000008273846199
 Excitation Energies [eV] at current iteration:
 Root      1 :     2.842015573389676   Change is   -0.000000000026120
 Root      2 :     3.401421854072605   Change is   -0.000000000000048
 Root      3 :     4.354246766833151   Change is   -0.000000005233683
 Iteration    12 Dimension    72 NMult    70 NNew      2
 CISAX will form     2 AO SS matrices at one time.
 NMat=     2 NSing=     2 JSym2X= 0.
 Root      1 has converged.
 Root      2 has converged.
 Root      3 not converged, maximum delta is    0.000002580747668
 Excitation Energies [eV] at current iteration:
 Root      1 :     2.842015573389590   Change is   -0.000000000000087
 Root      2 :     3.401421854072701   Change is    0.000000000000097
 Root      3 :     4.354246766417248   Change is   -0.000000000415904
 Iteration    13 Dimension    74 NMult    72 NNew      2
 CISAX will form     2 AO SS matrices at one time.
 NMat=     2 NSing=     2 JSym2X= 0.
 Root      1 has converged.
 Root      2 has converged.
 Root      3 has converged.
 Excitation Energies [eV] at current iteration:
 Root      1 :     2.842015573389560   Change is   -0.000000000000029
 Root      2 :     3.401421854072508   Change is   -0.000000000000193
 Root      3 :     4.354246766388569   Change is   -0.000000000028678
 Convergence achieved on expansion vectors.
 ***********************************************************************
 Excited states from <AA,BB:AA,BB> singles matrix:
 ***********************************************************************
 
 1PDM for each excited state written to RWF  633
 Ground to excited state transition densities written to RWF  633
 Ground to excited state transition electric dipole moments (Au):
       state          X           Y           Z        Dip. S.      Osc.
         1         1.1487     -2.2514     -0.0000      6.3885      0.4448
         2        -0.0000      0.0000     -0.0059      0.0000      0.0000
         3        -1.5689      1.0324      0.0000      3.5274      0.3763
 Ground to excited state transition velocity dipole moments (Au):
       state          X           Y           Z        Dip. S.      Osc.
         1        -0.1161      0.2392      0.0000      0.0707      0.4512
         2         0.0000     -0.0000      0.0009      0.0000      0.0000
         3         0.2461     -0.1557     -0.0000      0.0848      0.3534
 Ground to excited state transition magnetic dipole moments (Au):
       state          X           Y           Z
         1         0.0000      0.0000     -1.1350
         2         0.4283     -0.0119      0.0000
         3        -0.0000      0.0000     -1.0306
 Ground to excited state transition velocity quadrupole moments (Au):
       state          XX          YY          ZZ          XY          XZ          YZ
         1         0.0587      0.6600     -0.0121     -0.2950     -0.0000      0.0000
         2        -0.0000     -0.0000      0.0000      0.0000     -0.0053      0.0202
         3        -0.5149      0.5194      0.0069      0.1157      0.0000      0.0000
 <0|del|b> * <b|rxdel|0> + <0|del|b> * <b|delr+rdel|0>
 Rotatory Strengths (R) in cgs (10**-40 erg-esu-cm/Gauss)
       state          XX          YY          ZZ    R(velocity)    E-M Angle
         1         0.0035     -0.0194      0.0166      0.0002       90.00
         2         0.0001      0.0011      0.0011      0.0008       90.00
         3         0.0041      0.0036     -0.0068      0.0003       90.00
 1/2[<0|r|b>*<b|rxdel|0> + (<0|rxdel|b>*<b|r|0>)*]
 Rotatory Strengths (R) in cgs (10**-40 erg-esu-cm/Gauss)
       state          XX          YY          ZZ     R(length)
         1        -0.0068      0.0365     -0.0295      0.0000
         2         0.0023      0.0002      0.0001      0.0009
         3        -0.0059     -0.0025      0.0100      0.0005
  1/2[<0|del|b>*<b|r|0> + (<0|r|b>*<b|del|0>)*] (Au)
       state          X           Y           Z        Dip. S.   Osc.(frdel)
         1        -0.1333     -0.5385     -0.0000      0.6719      0.4479
         2        -0.0000     -0.0000     -0.0000      0.0000      0.0000
         3        -0.3862     -0.1607     -0.0000      0.5469      0.3646

 Excitation energies and oscillator strengths:
 
 Excited state symmetry could not be determined.
 Excited State   1:      Singlet-?Sym    2.8420 eV  436.25 nm  f=0.4448  <S**2>=0.000
      59 -> 60         0.70001
 This state for optimization and/or second-order correction.
 Total Energy, E(TD-HF/TD-DFT) =  -1028.38878731    
 Copying the excited state density for this state as the 1-particle RhoCI density.
 
 Excited state symmetry could not be determined.
 Excited State   2:      Singlet-?Sym    3.4014 eV  364.51 nm  f=0.0000  <S**2>=0.000
      58 -> 60         0.68516
      58 -> 62         0.10933
      58 -> 64         0.10787
 
 Excited state symmetry could not be determined.
 Excited State   3:      Singlet-?Sym    4.3542 eV  284.74 nm  f=0.3763  <S**2>=0.000
      57 -> 60         0.68536
 SavETr:  write IOETrn=   770 NScale= 10 NData=  16 NLR=1 NState=    3 LETran=      64.
 The selected state is a singlet.
 CISGrd: IGrad=2 NXY=2 DFT=T
 CISAX will form     1 AO SS matrices at one time.
 NMat=     1 NSing=     1 JSym2X= 0.
 GePol: Maximum number of non-zero 1st derivatives   =     255
 Leave Link  914 at Tue Jul 14 11:04:52 2020, MaxMem=  7784628224 cpu:            1736.1 elap:             176.1
 (Enter /gpfs/loomis/apps/avx/software/Gaussian/16-C.01_AVX/g16/l1002.exe)
 Minotr:  Closed shell wavefunction.
          Computing CIS/TDA/TD derivatives.
          Using Z-Vector for PSCF gradient.
          Skipping F1 and S1 gradient terms here.
          IDoAtm=1111111111111111111111111
 NEqPCM:  Using equilibrium solvation (IEInf=0, Eps=   2.2280, EpsInf=   2.1319)
          Frozen-core window.
          Direct CPHF calculation.
          Differentiating once with respect to electric field.
                with respect to dipole field.
          Differentiating once with respect to nuclear coordinates.
          Requested convergence is 1.0D-10 RMS, and 1.0D-09 maximum.
          NewPWx=F KeepS1=T KeepF1=T KeepIn=T MapXYZ=F SortEE=F KeepMc=T.
 Keep R1 ints in memory in canonical form, NReq=1421425014.
 FoFCou: FMM=F IPFlag=           0 FMFlag=           0 FMFlg1=           0
         NFxFlg=           0 DoJE=F BraDBF=F KetDBF=F FulRan=T
         wScrn=  0.000000 ICntrl=       600 IOpCl=  0 I1Cent=           0 NGrid=           0
         NMat0=    1 NMatS0=  37401 NMatT0=    0 NMatD0=    1 NMtDS0=    0 NMtDT0=    0
 Symmetry not used in FoFCou.
 Two-electron integral symmetry not used.
          MDV=    7784628224 using IRadAn=       5.
          Solving linear equations separately, MaxMat=       0.
          There are     1 degrees of freedom in the 1st order CPHF.  IDoFFX=0 NUNeed=     1.
 LinEq1:  Iter=  0 NonCon=     1 RMS=6.98D-03 Max=5.73D-01 NDo=     1
 AX will form     1 AO Fock derivatives at one time.
 LinEq1:  Iter=  1 NonCon=     1 RMS=3.21D-03 Max=1.76D-01 NDo=     1
 LinEq1:  Iter=  2 NonCon=     1 RMS=1.59D-03 Max=3.70D-02 NDo=     1
 LinEq1:  Iter=  3 NonCon=     1 RMS=7.63D-04 Max=2.14D-02 NDo=     1
 LinEq1:  Iter=  4 NonCon=     1 RMS=4.49D-04 Max=1.38D-02 NDo=     1
 LinEq1:  Iter=  5 NonCon=     1 RMS=2.21D-04 Max=8.28D-03 NDo=     1
 LinEq1:  Iter=  6 NonCon=     1 RMS=9.11D-05 Max=4.60D-03 NDo=     1
 LinEq1:  Iter=  7 NonCon=     1 RMS=4.65D-05 Max=1.45D-03 NDo=     1
 LinEq1:  Iter=  8 NonCon=     1 RMS=1.76D-05 Max=6.08D-04 NDo=     1
 LinEq1:  Iter=  9 NonCon=     1 RMS=7.93D-06 Max=1.86D-04 NDo=     1
 LinEq1:  Iter= 10 NonCon=     1 RMS=3.12D-06 Max=8.24D-05 NDo=     1
 LinEq1:  Iter= 11 NonCon=     1 RMS=1.52D-06 Max=5.27D-05 NDo=     1
 LinEq1:  Iter= 12 NonCon=     1 RMS=6.92D-07 Max=2.20D-05 NDo=     1
 LinEq1:  Iter= 13 NonCon=     1 RMS=3.53D-07 Max=1.16D-05 NDo=     1
 LinEq1:  Iter= 14 NonCon=     1 RMS=1.12D-07 Max=2.48D-06 NDo=     1
 LinEq1:  Iter= 15 NonCon=     1 RMS=5.93D-08 Max=1.78D-06 NDo=     1
 LinEq1:  Iter= 16 NonCon=     1 RMS=2.51D-08 Max=7.40D-07 NDo=     1
 LinEq1:  Iter= 17 NonCon=     1 RMS=1.14D-08 Max=3.11D-07 NDo=     1
 LinEq1:  Iter= 18 NonCon=     1 RMS=4.97D-09 Max=1.17D-07 NDo=     1
 LinEq1:  Iter= 19 NonCon=     1 RMS=1.92D-09 Max=4.92D-08 NDo=     1
 LinEq1:  Iter= 20 NonCon=     1 RMS=9.65D-10 Max=2.65D-08 NDo=     1
 LinEq1:  Iter= 21 NonCon=     1 RMS=3.53D-10 Max=9.72D-09 NDo=     1
 LinEq1:  Iter= 22 NonCon=     1 RMS=1.48D-10 Max=4.25D-09 NDo=     1
 LinEq1:  Iter= 23 NonCon=     1 RMS=6.49D-11 Max=1.59D-09 NDo=     1
 LinEq1:  Iter= 24 NonCon=     0 RMS=1.84D-11 Max=4.73D-10 NDo=     1
 Linear equations converged to 1.000D-10 1.000D-09 after    24 iterations.
 End of Minotr F.D. properties file   721 does not exist.
 End of Minotr F.D. properties file   722 does not exist.
 End of Minotr F.D. properties file   788 does not exist.
 Leave Link 1002 at Tue Jul 14 11:06:34 2020, MaxMem=  7784628224 cpu:             748.5 elap:             101.7
 (Enter /gpfs/loomis/apps/avx/software/Gaussian/16-C.01_AVX/g16/l601.exe)
 Copying SCF densities to generalized density rwf, IOpCl= 0 IROHF=0.

 **********************************************************************

            Population analysis using the SCF Density.

 **********************************************************************

 Alpha  occ. eigenvalues --  -89.10747 -19.20351 -14.50697 -10.41903 -10.38026
 Alpha  occ. eigenvalues --  -10.36527 -10.35421 -10.33563 -10.33229 -10.32758
 Alpha  occ. eigenvalues --  -10.32571 -10.31376 -10.30663 -10.30464 -10.29193
 Alpha  occ. eigenvalues --  -10.28283  -8.12796  -6.07669  -6.07301  -6.06805
 Alpha  occ. eigenvalues --   -1.16670  -1.09389  -1.00165  -0.96777  -0.93684
 Alpha  occ. eigenvalues --   -0.89331  -0.87738  -0.83822  -0.81436  -0.79616
 Alpha  occ. eigenvalues --   -0.75634  -0.72370  -0.69703  -0.67811  -0.65841
 Alpha  occ. eigenvalues --   -0.60912  -0.59789  -0.57245  -0.56420  -0.56284
 Alpha  occ. eigenvalues --   -0.55150  -0.53723  -0.53152  -0.50456  -0.49506
 Alpha  occ. eigenvalues --   -0.48849  -0.48566  -0.47052  -0.45628  -0.44981
 Alpha  occ. eigenvalues --   -0.44030  -0.43104  -0.42722  -0.40069  -0.36839
 Alpha  occ. eigenvalues --   -0.33997  -0.31683  -0.31045  -0.25637
 Alpha virt. eigenvalues --   -0.01983   0.03437   0.05234   0.06088   0.09589
 Alpha virt. eigenvalues --    0.10702   0.14001   0.14725   0.16591   0.17343
 Alpha virt. eigenvalues --    0.18868   0.19998   0.21016   0.21333   0.23204
 Alpha virt. eigenvalues --    0.23564   0.24379   0.25914   0.28030   0.30047
 Alpha virt. eigenvalues --    0.30631   0.34172   0.35533   0.35728   0.36720
 Alpha virt. eigenvalues --    0.37900   0.39522   0.39900   0.41683   0.45132
 Alpha virt. eigenvalues --    0.46890   0.48808   0.50744   0.51300   0.51558
 Alpha virt. eigenvalues --    0.52642   0.52860   0.52993   0.53990   0.55495
 Alpha virt. eigenvalues --    0.56187   0.56480   0.56546   0.57267   0.57665
 Alpha virt. eigenvalues --    0.57918   0.58978   0.59389   0.59719   0.60865
 Alpha virt. eigenvalues --    0.61427   0.61616   0.62848   0.62886   0.63576
 Alpha virt. eigenvalues --    0.64659   0.66960   0.67012   0.68692   0.70129
 Alpha virt. eigenvalues --    0.70304   0.70735   0.71969   0.72391   0.73028
 Alpha virt. eigenvalues --    0.74370   0.75437   0.75865   0.77287   0.78547
 Alpha virt. eigenvalues --    0.78825   0.79883   0.81108   0.81674   0.83698
 Alpha virt. eigenvalues --    0.86126   0.89188   0.91192   0.91916   0.93292
 Alpha virt. eigenvalues --    0.94525   0.94545   0.96386   0.97529   0.98528
 Alpha virt. eigenvalues --    0.99547   1.00519   1.00663   1.00942   1.01183
 Alpha virt. eigenvalues --    1.02729   1.05233   1.06181   1.06272   1.07236
 Alpha virt. eigenvalues --    1.09236   1.09577   1.10130   1.11051   1.11352
 Alpha virt. eigenvalues --    1.12837   1.13427   1.13777   1.14258   1.15636
 Alpha virt. eigenvalues --    1.17445   1.19046   1.20137   1.22757   1.24252
 Alpha virt. eigenvalues --    1.26628   1.27440   1.31329   1.33802   1.34389
 Alpha virt. eigenvalues --    1.34471   1.36654   1.38254   1.41750   1.45289
 Alpha virt. eigenvalues --    1.49370   1.49569   1.53200   1.54688   1.55351
 Alpha virt. eigenvalues --    1.55873   1.57173   1.57402   1.57999   1.59918
 Alpha virt. eigenvalues --    1.60515   1.61709   1.63235   1.65401   1.68033
 Alpha virt. eigenvalues --    1.68711   1.70108   1.71146   1.71858   1.71909
 Alpha virt. eigenvalues --    1.72879   1.73711   1.73798   1.75035   1.76490
 Alpha virt. eigenvalues --    1.77965   1.79247   1.80529   1.81950   1.82285
 Alpha virt. eigenvalues --    1.84459   1.84838   1.85056   1.85387   1.86368
 Alpha virt. eigenvalues --    1.87434   1.90482   1.91482   1.92143   1.92432
 Alpha virt. eigenvalues --    1.94571   1.95551   1.96023   1.96584   1.98664
 Alpha virt. eigenvalues --    2.00806   2.01172   2.03038   2.05327   2.06670
 Alpha virt. eigenvalues --    2.07312   2.08468   2.09787   2.12343   2.15113
 Alpha virt. eigenvalues --    2.17701   2.23038   2.24527   2.24960   2.27107
 Alpha virt. eigenvalues --    2.27941   2.30335   2.35439   2.36861   2.38837
 Alpha virt. eigenvalues --    2.41395   2.43058   2.46412   2.48687   2.50287
 Alpha virt. eigenvalues --    2.51960   2.55244   2.61871   2.67533   2.68740
 Alpha virt. eigenvalues --    2.72356   2.73506   2.75464   2.79124   2.81556
 Alpha virt. eigenvalues --    2.82022   2.82173   2.82888   2.89430   2.94691
 Alpha virt. eigenvalues --    2.95987   3.10602   3.18765   3.34832   3.50882
 Alpha virt. eigenvalues --    3.53792   3.60457   3.69955   5.19898
          Condensed to atoms (all electrons):
               1          2          3          4          5          6
     1  C    4.746045   0.477619   0.016521  -0.055146  -0.010237   0.502530
     2  C    0.477619   5.398719   0.256042  -0.066546  -0.079154   0.000711
     3  C    0.016521   0.256042   4.928953   0.513819  -0.000930  -0.071607
     4  C   -0.055146  -0.066546   0.513819   4.819335   0.509396  -0.011653
     5  C   -0.010237  -0.079154  -0.000930   0.509396   4.736692   0.501805
     6  C    0.502530   0.000711  -0.071607  -0.011653   0.501805   4.734426
     7  H    0.404764  -0.039876   0.009535  -0.000639   0.008118  -0.039203
     8  H   -0.000572   0.010590  -0.025368   0.395057  -0.041144   0.007343
     9  H    0.008698  -0.000372   0.008193  -0.037947   0.405533  -0.043655
    10  H   -0.042954   0.009487  -0.000535   0.008529  -0.042093   0.408019
    11  N    0.003673  -0.044277   0.422779  -0.044691   0.002834   0.000301
    12  S   -0.070459   0.338471  -0.142793   0.003080   0.000006   0.004789
    13  C   -0.000266  -0.000933   0.015230   0.000059   0.000018  -0.000002
    14  C   -0.000009   0.000046   0.000432   0.000009  -0.000000  -0.000000
    15  C    0.000005  -0.000259   0.000454   0.000007  -0.000001   0.000000
    16  C    0.000000  -0.000004   0.000003  -0.000000   0.000000   0.000000
    17  H   -0.000008   0.000162   0.000001   0.000001   0.000000   0.000000
    18  C    0.000000   0.000011  -0.000043  -0.000001  -0.000000  -0.000000
    19  C   -0.000000  -0.000000   0.000003  -0.000000  -0.000000   0.000000
    20  H   -0.000000  -0.000000  -0.000000   0.000000   0.000000  -0.000000
    21  H   -0.000000   0.000000  -0.000002  -0.000000  -0.000000   0.000000
    22  H    0.000000  -0.000000  -0.000000  -0.000000   0.000000  -0.000000
    23  C    0.003607  -0.059453  -0.085890   0.006148   0.000540  -0.000510
    24  O    0.000001  -0.000177  -0.001114   0.000100   0.000001  -0.000000
    25  H    0.000231   0.030070  -0.027876  -0.032143  -0.001080   0.000019
               7          8          9         10         11         12
     1  C    0.404764  -0.000572   0.008698  -0.042954   0.003673  -0.070459
     2  C   -0.039876   0.010590  -0.000372   0.009487  -0.044277   0.338471
     3  C    0.009535  -0.025368   0.008193  -0.000535   0.422779  -0.142793
     4  C   -0.000639   0.395057  -0.037947   0.008529  -0.044691   0.003080
     5  C    0.008118  -0.041144   0.405533  -0.042093   0.002834   0.000006
     6  C   -0.039203   0.007343  -0.043655   0.408019   0.000301   0.004789
     7  H    0.648170   0.000027  -0.000147  -0.011260  -0.000099  -0.007790
     8  H    0.000027   0.636648  -0.011822  -0.000109  -0.006367  -0.000253
     9  H   -0.000147  -0.011822   0.654513  -0.012147  -0.000085   0.000021
    10  H   -0.011260  -0.000109  -0.012147   0.654901   0.000006  -0.000142
    11  N   -0.000099  -0.006367  -0.000085   0.000006   5.617766  -0.042539
    12  S   -0.007790  -0.000253   0.000021  -0.000142  -0.042539  15.462768
    13  C    0.000002   0.000050  -0.000000  -0.000000  -0.012495  -0.077671
    14  C    0.000001   0.000001   0.000000  -0.000000   0.004073  -0.008514
    15  C   -0.000000  -0.000014   0.000000   0.000000  -0.009499   0.004580
    16  C    0.000000  -0.000000  -0.000000  -0.000000  -0.000076   0.000220
    17  H    0.000001   0.000000   0.000000  -0.000000   0.000260   0.007445
    18  C    0.000000  -0.000000   0.000000  -0.000000  -0.000621  -0.000127
    19  C   -0.000000   0.000000  -0.000000   0.000000   0.000013   0.000013
    20  H    0.000000  -0.000000   0.000000   0.000000   0.000001   0.000004
    21  H   -0.000000   0.000000  -0.000000   0.000000  -0.000002   0.000003
    22  H    0.000000  -0.000000  -0.000000  -0.000000  -0.000000  -0.000000
    23  C    0.000274  -0.000624   0.000006   0.000004   0.486635   0.296300
    24  O    0.000000  -0.000137   0.000000  -0.000000  -0.010736   0.000071
    25  H    0.000011   0.000923  -0.000019   0.000000   0.309339   0.013685
              13         14         15         16         17         18
     1  C   -0.000266  -0.000009   0.000005   0.000000  -0.000008   0.000000
     2  C   -0.000933   0.000046  -0.000259  -0.000004   0.000162   0.000011
     3  C    0.015230   0.000432   0.000454   0.000003   0.000001  -0.000043
     4  C    0.000059   0.000009   0.000007  -0.000000   0.000001  -0.000001
     5  C    0.000018  -0.000000  -0.000001   0.000000   0.000000  -0.000000
     6  C   -0.000002  -0.000000   0.000000   0.000000   0.000000  -0.000000
     7  H    0.000002   0.000001  -0.000000   0.000000   0.000001   0.000000
     8  H    0.000050   0.000001  -0.000014  -0.000000   0.000000  -0.000000
     9  H   -0.000000   0.000000   0.000000  -0.000000   0.000000   0.000000
    10  H   -0.000000  -0.000000   0.000000  -0.000000  -0.000000  -0.000000
    11  N   -0.012495   0.004073  -0.009499  -0.000076   0.000260  -0.000621
    12  S   -0.077671  -0.008514   0.004580   0.000220   0.007445  -0.000127
    13  C    5.544855   0.417336   0.151015  -0.003437  -0.042968  -0.042293
    14  C    0.417336   4.885972   0.011680   0.537122   0.399915  -0.067392
    15  C    0.151015   0.011680   4.720375  -0.054227   0.005760   0.435710
    16  C   -0.003437   0.537122  -0.054227   4.767375  -0.030743  -0.015643
    17  H   -0.042968   0.399915   0.005760  -0.030743   0.677881  -0.001047
    18  C   -0.042293  -0.067392   0.435710  -0.015643  -0.001047   4.963659
    19  C   -0.053858  -0.016891   0.000960   0.473092   0.008339   0.485937
    20  H    0.009218  -0.036893  -0.000145   0.399872  -0.011834   0.008400
    21  H    0.016225  -0.000568  -0.025315   0.007716   0.000057   0.370597
    22  H   -0.001853   0.009914   0.008358  -0.046692  -0.000209  -0.039379
    23  C    0.340012  -0.101547  -0.068046   0.006199  -0.021593   0.012934
    24  O   -0.109794   0.006575   0.712330  -0.000243  -0.000078  -0.071352
    25  H   -0.068654  -0.001010  -0.003632   0.000076  -0.000116   0.003525
              19         20         21         22         23         24
     1  C   -0.000000  -0.000000  -0.000000   0.000000   0.003607   0.000001
     2  C   -0.000000  -0.000000   0.000000  -0.000000  -0.059453  -0.000177
     3  C    0.000003  -0.000000  -0.000002  -0.000000  -0.085890  -0.001114
     4  C   -0.000000   0.000000  -0.000000  -0.000000   0.006148   0.000100
     5  C   -0.000000   0.000000  -0.000000   0.000000   0.000540   0.000001
     6  C    0.000000  -0.000000   0.000000  -0.000000  -0.000510  -0.000000
     7  H   -0.000000   0.000000  -0.000000   0.000000   0.000274   0.000000
     8  H    0.000000  -0.000000   0.000000  -0.000000  -0.000624  -0.000137
     9  H   -0.000000   0.000000  -0.000000  -0.000000   0.000006   0.000000
    10  H    0.000000   0.000000   0.000000  -0.000000   0.000004  -0.000000
    11  N    0.000013   0.000001  -0.000002  -0.000000   0.486635  -0.010736
    12  S    0.000013   0.000004   0.000003  -0.000000   0.296300   0.000071
    13  C   -0.053858   0.009218   0.016225  -0.001853   0.340012  -0.109794
    14  C   -0.016891  -0.036893  -0.000568   0.009914  -0.101547   0.006575
    15  C    0.000960  -0.000145  -0.025315   0.008358  -0.068046   0.712330
    16  C    0.473092   0.399872   0.007716  -0.046692   0.006199  -0.000243
    17  H    0.008339  -0.011834   0.000057  -0.000209  -0.021593  -0.000078
    18  C    0.485937   0.008400   0.370597  -0.039379   0.012934  -0.071352
    19  C    4.754032  -0.047085  -0.047280   0.402698   0.000079   0.004865
    20  H   -0.047085   0.690643  -0.000164  -0.012753  -0.000407   0.000000
    21  H   -0.047280  -0.000164   0.686680  -0.013004  -0.000518   0.005572
    22  H    0.402698  -0.012753  -0.013004   0.679456   0.000010  -0.000075
    23  C    0.000079  -0.000407  -0.000518   0.000010   5.156649  -0.016881
    24  O    0.004865   0.000000   0.005572  -0.000075  -0.016881   7.796688
    25  H   -0.000298  -0.000000  -0.000005   0.000003   0.023700   0.061857
              25
     1  C    0.000231
     2  C    0.030070
     3  C   -0.027876
     4  C   -0.032143
     5  C   -0.001080
     6  C    0.000019
     7  H    0.000011
     8  H    0.000923
     9  H   -0.000019
    10  H    0.000000
    11  N    0.309339
    12  S    0.013685
    13  C   -0.068654
    14  C   -0.001010
    15  C   -0.003632
    16  C    0.000076
    17  H   -0.000116
    18  C    0.003525
    19  C   -0.000298
    20  H   -0.000000
    21  H   -0.000005
[...]
 -0.00025396,-0.00000002,0.00000040,0.00000558,-0.00000016,-0.00000016,
 0.00002633,0.,0.,-0.00004315,0.,0.,-0.00001999,0.,0.,0.00002500,0.,0.,
 0.00003325,0.00000023,-0.00000117,0.00193892,0.00000034,-0.00000009,-0
 .00074306,0.00000191,0.00000289,0.00195872,-0.00000009,-0.00000830,-0.
 05471786,0.00000177,-0.00000133,-0.00555296,0.00000795,0.00002974,0.12
 222413,0.00020100,0.00005420,0.,-0.00053606,0.00029832,0.00000008,0.00
 034002,-0.00016631,-0.00000007,-0.00007558,0.00010915,0.,0.00005734,-0
 .00008391,0.,0.00003730,-0.00003365,0.,-0.00001826,-0.00000903,0.,0.00
 003245,0.00000333,0.,0.00001203,-0.00000505,0.,0.00003321,-0.00000776,
 0.,0.00068649,0.00048994,0.00000009,-0.00216870,0.00186786,-0.00000027
 ,-0.00461125,-0.03048384,-0.00000240,-0.08828865,-0.08732607,-0.000006
 33,-0.00411476,0.00370346,-0.00000030,0.01044406,0.02102570,0.00000150
 ,0.09202101,0.00005504,-0.00001500,-0.00000002,-0.00022680,0.00057509,
 -0.00000012,0.00031925,0.00000250,-0.00000010,-0.00001925,0.00005622,0
 .,0.00001996,0.00004704,0.,-0.00009328,-0.00001487,0.00000001,-0.00001
 034,0.00001170,-0.00000001,0.00002146,-0.00000361,-0.00000001,-0.00000
 211,0.00000131,0.,0.00000135,0.00000239,0.,0.00003820,0.00016617,0.000
 00020,0.00045435,-0.00074352,0.00000035,0.00056843,-0.00312999,-0.0000
 0068,-0.08593828,-0.30850272,-0.00002071,0.00007169,0.00253550,-0.0000
 0062,-0.01111526,-0.01657002,-0.00000157,0.09148330,0.32741961,0.00000
 001,0.00000015,0.00003288,0.00000039,0.00000019,-0.00037794,0.00000051
 ,-0.00000063,0.00081977,-0.00000038,0.00000009,0.00010348,0.00000002,-
 0.00000027,-0.00002283,0.00000013,0.00000009,-0.00000831,0.,0.,0.00003
 563,0.00000002,0.,0.00002836,0.,0.,-0.00000991,0.,0.,-0.00001399,0.000
 00023,0.00000132,-0.00145500,-0.00000053,0.00000028,0.00155071,0.00000
 129,-0.00000323,0.00883927,-0.00000712,-0.00002014,-0.03654796,-0.0000
 0080,0.00000123,0.01005671,-0.00000059,-0.00000116,0.00389822,0.000007
 33,0.00002277,0.02039184,-0.00143718,0.00031757,0.00000030,-0.00454040
 ,-0.00359362,0.00000035,-0.00473892,0.01106037,-0.00000064,0.00489086,
 -0.00061517,-0.00000006,-0.00023038,0.00161940,-0.00000004,0.00116709,
 -0.00120696,-0.00000002,-0.00011177,0.00008876,0.00000002,0.00005933,-
 0.00000293,0.00000001,0.00012175,-0.00000221,0.,0.00009209,-0.00006758
 ,-0.00000007,0.01027040,-0.00204748,0.00000139,0.00080448,-0.00279645,
 0.00000038,0.02549641,0.01158155,0.00000115,-0.03916612,0.01916961,0.0
 0000097,-0.12238755,0.05825874,0.00000567,-0.00929909,-0.08699174,-0.0
 0000518,-0.00056126,0.00035805,0.00000050,0.62941896,0.00066012,-0.000
 04315,-0.00000003,0.00013090,-0.00001100,0.00000003,0.00079950,-0.0014
 1501,0.00000023,-0.00090555,0.00010565,0.,0.00012492,-0.00025909,0.,-0
 .00033858,0.00011902,0.,0.00000502,0.00000553,0.,-0.00000929,-0.000005
 87,0.,-0.00001950,-0.00000184,0.,0.00001236,0.00001024,0.,-0.00043374,
 0.00048553,-0.00000038,0.00136173,-0.00068093,0.00000003,0.01299901,-0
 .02833566,-0.00000063,0.00832708,-0.00398302,-0.00000041,0.05970116,-0
 .21460800,-0.00000763,-0.03712507,-0.00303219,-0.00000050,-0.00027627,
 0.00076238,-0.00000025,0.06267892,0.67905578,0.00000018,0.00000004,0.0
 0019355,0.00000027,0.00000035,0.00061054,0.00000078,-0.00000098,0.0015
 2530,-0.00000041,0.00000004,-0.00012870,0.00000006,-0.00000015,-0.0000
 7467,-0.00000008,0.00000012,-0.00012120,0.,0.,0.00012771,0.00000002,0.
 ,0.00009260,-0.00000001,0.,-0.00000368,0.,0.,-0.00007584,-0.00000090,0
 .00000190,-0.00192216,-0.00000006,-0.00000022,0.00130061,0.00000093,-0
 .00000301,0.01476331,-0.00000107,0.00000155,-0.00586214,0.00000581,-0.
 00000763,-0.06704785,-0.00000164,-0.00000150,0.00815165,0.00000018,0.0
 0000024,-0.00260679,0.00000295,0.00003501,0.10934278,0.00133749,0.0003
 1511,-0.00000025,0.00552417,0.00333145,-0.00000051,0.00616809,-0.01252
 383,0.00000016,-0.00597318,0.00079052,0.00000010,0.00028182,-0.0026171
 4,0.00000010,-0.00042960,0.00156566,0.00000002,0.00008119,-0.00008055,
 -0.00000005,-0.00000500,0.00002353,-0.00000005,-0.00010175,-0.00001646
 ,0.,-0.00004943,0.00006324,0.00000008,-0.01079252,0.00671983,-0.000000
 53,-0.00011345,0.00105755,-0.00000037,-0.01396139,-0.01216743,-0.00000
 167,0.05555785,0.00665231,0.00000066,-0.05629356,0.01926186,-0.0000008
 9,-0.14458251,-0.01772244,-0.00000089,-0.00314594,0.00450573,0.0000000
 7,-0.30102788,-0.06731910,-0.00000323,0.64988089,0.00021373,0.00093952
 ,-0.00000013,0.00321816,0.00124693,-0.00000010,0.00320799,-0.00531060,
 0.00000039,-0.00344268,0.00060318,0.00000006,0.00010126,-0.00226258,0.
 00000005,0.00080769,0.00089231,-0.00000002,0.00000340,-0.00005016,0.,0
 .00001030,0.00001058,0.,-0.00000886,-0.00004969,0.,0.00001547,0.000033
 35,0.00000003,-0.00088678,0.00386811,-0.00000063,-0.00161289,0.0003717
 8,0.00000009,-0.03252799,-0.00579227,0.00000008,0.05805881,-0.05409103
 ,-0.00000301,-0.00942497,0.02671264,-0.00000086,-0.11023828,-0.3360888
 2,-0.00001554,0.00337260,-0.00153230,-0.00000072,0.00504554,-0.1288393
 3,-0.00000475,-0.05658561,0.71898768,-0.00000001,0.00000004,0.00013087
 ,0.00000013,-0.00000004,-0.00036111,-0.00000008,-0.00000007,-0.0009989
 0,-0.00000009,0.00000002,0.00006741,-0.00000002,-0.00000007,0.00009104
 ,0.00000005,0.,0.00001306,0.,0.,-0.00005561,0.,0.,-0.00010994,0.,0.,0.
 00000386,0.,0.,0.00000877,0.00000012,-0.00000036,0.00043549,-0.0000000
 3,0.00000014,0.00047537,-0.00000236,-0.00000052,-0.00160329,0.00000396
 ,-0.00000344,0.00797533,0.00000033,0.00000296,0.00075394,-0.00000660,-
 0.00001605,-0.05702851,0.00000008,-0.00000035,0.00356889,-0.00000003,-
 0.00000505,-0.05088680,-0.00000303,0.00003506,0.11629216,0.00007101,-0
 .00011263,0.,-0.00010635,0.00013544,0.,-0.00003291,-0.00007951,0.,0.00
 002815,0.00001069,0.,0.00000506,0.00011025,0.,-0.00015763,-0.00000678,
 0.,0.00000657,0.00000640,0.,0.00000162,-0.00000388,0.,-0.00001026,0.00
 000803,0.,-0.00000920,0.00000456,0.,-0.00020785,0.00037472,0.,0.000048
 18,0.00000924,0.,-0.00011554,0.00342518,0.00000026,-0.01484879,-0.0083
 4016,-0.00000068,0.00054840,0.00044149,0.00000005,-0.32986154,-0.06969
 117,-0.00000594,0.00070868,0.00011252,0.,0.00146156,-0.00147355,-0.000
 00016,-0.00389441,0.00232563,0.00000007,0.34668270,0.00000794,0.000001
 73,0.,-0.00004997,-0.00007821,0.,0.00002784,0.00018150,-0.00000004,0.0
 0004240,-0.00005196,0.,0.00001296,0.00003410,0.,-0.00000728,-0.0000253
 5,0.,-0.00000004,-0.00000200,0.,0.00000038,0.00000104,0.,0.00000301,-0
 .00000359,0.,0.00000218,-0.00000148,0.,0.00035639,-0.00041611,0.,0.000
 01207,0.00003565,0.,0.00306510,-0.00385348,-0.00000050,0.02238819,0.00
 817008,0.00000047,0.00061304,-0.00085623,0.00000009,-0.06898682,-0.076
 33252,-0.00000307,-0.00030927,0.00082452,0.00000018,-0.00074415,-0.005
 30316,-0.00000074,-0.02923094,0.00001395,-0.00000045,0.07373224,0.0756
 1200,0.,0.,-0.00000862,-0.00000003,0.,0.00008437,0.00000002,0.00000005
 ,0.00044136,0.00000002,0.,0.00005629,0.,0.00000002,-0.00005739,-0.0000
 0001,0.,0.00000456,0.,0.,0.00001304,0.,0.,0.00003540,0.,0.,-0.00001646
 ,0.,0.,-0.00000706,-0.00000004,0.,0.00023643,0.,0.,-0.00019921,-0.0000
 0024,-0.00000017,0.00382633,0.00000116,-0.00000005,0.00442276,0.000000
 04,-0.00000030,-0.00154484,-0.00000592,-0.00000310,-0.03399100,0.,0.00
 000024,-0.00202127,0.00000010,-0.00000041,0.00681443,-0.00000155,-0.00
 000044,0.00624368,0.00000639,0.00000361,0.02149421,-0.00012312,0.00003
 529,0.,0.00011861,0.00005600,0.,-0.00009794,0.00007378,0.,0.00003736,0
 .00000997,0.,-0.00002122,-0.00004134,0.,0.00009001,0.00001527,0.,-0.00
 000043,-0.00000440,0.,-0.00000518,-0.00000010,0.,0.00000270,-0.0000011
 3,0.,-0.00000345,-0.00000134,0.,0.00024705,-0.00014116,0.,-0.00032039,
 0.00015395,0.00000001,-0.00360753,0.00315241,0.00000010,-0.00013878,0.
 00032801,0.,0.00989340,0.02122842,0.00000157,-0.00601077,0.00011794,0.
 ,0.00009512,-0.00008757,0.,-0.08272375,-0.08363116,-0.00000561,-0.0028
 8649,-0.02911019,-0.00000192,-0.00035203,-0.00146727,-0.00000007,0.082
 42439,0.00002981,0.00006366,0.00000003,-0.00009741,-0.00015193,0.00000
 004,0.00003227,0.00005805,0.00000005,-0.00000002,0.00000072,0.,0.00000
 525,-0.00004841,0.,0.00007132,-0.00001784,0.,-0.00000654,0.00000094,0.
 ,0.00000581,0.00000389,0.,0.00000833,-0.00000438,0.,0.00001176,-0.0000
 0336,0.,-0.00009751,0.00002446,-0.00000007,0.00029892,-0.00015815,0.00
 000008,0.00388461,-0.00222751,-0.00000014,0.00052218,0.00032988,0.,-0.
 01320295,-0.01667797,-0.00000144,-0.00081186,0.00147540,-0.00000022,-0
 .00007633,-0.00008203,-0.00000013,-0.08319569,-0.31931691,-0.00001942,
 0.00249676,-0.00114914,-0.00000054,0.00005686,-0.00019179,0.00000007,0
 .09041162,0.33542269,0.,-0.00000009,-0.00034076,-0.00000030,-0.0000001
 0,-0.00040779,-0.00000032,0.00000046,-0.00028918,0.00000026,-0.0000000
 4,0.00002307,-0.00000001,0.00000016,-0.00003126,-0.00000007,-0.0000000
 7,0.00009275,0.,0.,-0.00004980,0.,0.,0.00001577,0.,0.,-0.00000215,0.,0
 .,0.00007702,0.00000010,-0.00000073,0.00056243,0.00000019,0.00000006,-
 0.00087714,0.00000013,0.00000055,0.00202530,0.00000054,-0.00000069,0.0
 0023865,-0.00000232,-0.00000225,0.00384359,-0.00000011,-0.00000024,0.0
 0504784,-0.00000009,-0.00000006,0.00055234,-0.00000525,-0.00001996,-0.
 03054469,0.00000054,0.00000052,0.00413080,0.,0.00000001,-0.00037602,0.
 00000618,0.00002140,0.02011390,0.00004660,-0.00003219,0.,-0.00000399,0
 .00010784,-0.00000002,0.00013531,-0.00010867,-0.00000005,-0.00006131,0
 .00000604,0.,0.00001240,0.00001462,0.,-0.00006671,0.00000960,0.,0.0000
 0239,0.00000297,0.,0.00000633,-0.00000310,0.,-0.00000612,0.00000222,0.
 ,-0.00000394,0.00000377,0.,0.00008329,0.00026335,0.00000005,-0.0000774
 2,0.00006063,-0.00000004,-0.00037854,-0.00048375,-0.00000017,0.0007781
 3,-0.00230046,-0.00000009,-0.00239900,-0.00436217,-0.00000011,0.009235
 81,-0.00885640,-0.00000052,0.00035584,-0.00038115,0.00000005,-0.013889
 61,0.02407362,0.00000131,-0.19140170,0.14460614,0.00000812,0.00069386,
 0.00033070,0.00000003,0.00106423,-0.00030294,-0.00000006,0.19787396,-0
 .00000187,0.00006900,0.,0.00014001,0.00007574,-0.00000003,0.00017609,-
 0.00028185,-0.00000003,-0.00015439,0.00003298,0.,0.00000307,-0.0001283
 1,0.,0.00007937,0.00004180,0.,-0.00000431,-0.00000489,0.,0.00000261,0.
 00000342,0.,0.00000455,-0.00000383,0.,0.00000585,-0.00000210,0.,-0.000
 20903,0.00008553,0.00000002,-0.00009698,0.00000821,-0.00000001,-0.0005
 9296,0.00028235,-0.00000005,-0.00294038,-0.00414962,-0.00000059,-0.002
 37832,-0.00008184,-0.00000029,0.02294122,-0.01538393,-0.00000104,0.001
 05798,-0.00106138,-0.00000008,-0.00695777,0.00820493,0.00000034,0.1427
 0013,-0.21304232,-0.00001027,-0.00017601,0.00102464,0.00000035,0.00034
 328,0.00064739,0.00000017,-0.15380514,0.22287243,-0.00000003,0.0000000
 7,0.00000918,0.00000014,0.,0.00009334,0.00000012,-0.00000015,0.0001997
 1,-0.00000012,0.00000003,0.00001034,0.,-0.00000011,-0.00000469,0.00000
 008,0.00000004,-0.00000986,0.,0.,0.00001218,0.,0.,0.00001579,0.,0.,-0.
 00000122,0.,0.,-0.00001094,0.00000011,0.00000025,-0.00019883,-0.000000
 11,-0.00000007,-0.00002992,0.00000028,-0.00000018,-0.00057425,-0.00000
 019,-0.00000038,0.00635039,-0.00000050,-0.00000061,0.00625600,0.000001
 39,-0.00000086,0.00372787,0.00000005,-0.00000006,0.00037231,0.00000018
 ,0.00000039,0.00309658,0.00000747,-0.00001062,-0.03392288,0.00000005,0
 .00000032,-0.00432851,0.00000003,0.00000027,-0.00323718,-0.00000868,0.
 00001129,0.02354418,-0.00266474,-0.00679726,0.00000003,-0.00197201,0.0
 2161486,-0.00000008,-0.05216005,0.03213867,-0.00000144,0.00533303,-0.0
 0294381,0.00000012,-0.00088612,0.00439388,-0.00000002,-0.00523197,-0.0
 0171025,0.00000005,0.00022353,-0.00073669,0.00000003,-0.00073276,-0.00
 005120,-0.00000006,0.00020994,-0.00014351,0.,-0.00066549,-0.00016212,0
 .00000006,-0.34960462,-0.02834497,0.00000352,-0.05026929,-0.05270401,0
 .00000293,-0.15191348,0.06193344,0.00000600,-0.04314726,0.03114974,0.0
 0000154,0.04437565,0.01417772,-0.00000050,-0.00378911,-0.01012752,0.00
 000043,0.00014535,0.00078491,-0.00000138,-0.00563411,-0.00226381,-0.00
 000068,-0.00082003,0.00432357,0.00000063,-0.00052589,0.00067790,0.0000
 0008,0.00065203,-0.00102182,0.00000029,0.00010433,-0.00007936,-0.00000
 039,0.64478242,-0.00026481,-0.00046159,0.00000004,0.02115376,-0.019341
 71,0.00000116,0.01831597,0.01187884,-0.00000104,0.00112203,-0.00643988
 ,0.00000049,-0.00035833,-0.00084222,0.00000012,0.00125400,-0.00087164,
 -0.00000005,0.00009552,-0.00042594,0.00000004,-0.00042864,0.00011399,-
 0.00000005,0.00024975,-0.00050003,-0.00000003,-0.00021414,0.00005889,-
 0.00000003,-0.02182549,-0.12484287,0.00000296,-0.01471946,-0.18273613,
 0.00000865,0.04608566,-0.16917844,-0.00000590,0.02340366,0.01120976,0.
 00000060,0.01887590,-0.04600525,-0.00000237,-0.00446021,0.00220302,-0.
 00000114,-0.00174809,-0.00001387,0.00000140,-0.01247295,-0.00404589,-0
 .00000004,0.00720147,-0.00059914,-0.00000006,-0.00076071,0.00093743,-0
 .00000006,0.00085232,-0.00063950,-0.00000053,-0.00002570,0.00035370,0.
 00000036,-0.06564692,0.51552129,0.00000028,-0.00000001,0.00077950,-0.0
 0000141,0.00000003,-0.00110263,-0.00000047,0.00000054,0.00442607,0.000
 00026,0.00000012,0.00128381,0.00000008,0.00000020,0.00119082,-0.000000
 11,-0.00000003,0.00075314,0.,0.00000002,-0.00035099,0.00000002,-0.0000
 0002,-0.00055519,0.,0.,-0.00040507,0.00000003,0.,-0.00020654,0.0000059
 3,0.00000272,-0.02018394,0.00000227,0.00000619,-0.01667029,-0.00000196
 ,-0.00000122,-0.03260203,0.00000096,0.00000277,0.00745932,0.00000314,-
 0.00000400,0.00360517,0.00000023,-0.00000230,0.00507782,0.00000007,0.0
 0000026,-0.00395562,-0.00000335,-0.00000016,-0.00075376,0.00000292,0.0
 0000029,-0.00037746,-0.00000002,0.00000012,-0.00106273,0.00000004,-0.0
 0000021,0.00240776,0.00000008,0.00000013,-0.00061432,-0.00001042,-0.00
 000561,0.06142326,-0.00061428,0.00135414,0.00000019,-0.00065287,-0.000
 11316,-0.00000022,0.00443813,0.00149702,-0.00000078,-0.00012756,0.0000
 5593,0.00000003,0.00002562,-0.00106483,0.00000009,0.00171939,0.0001041
 6,0.,-0.00014016,0.00012417,-0.00000004,0.00028004,0.00007779,-0.00000
 006,0.00007300,-0.00001333,0.,0.00010813,-0.00001371,-0.00000004,0.002
 66942,0.01781188,0.00000275,-0.00014926,-0.00191203,-0.00000018,-0.036
 26735,-0.05735286,-0.00000222,0.00266691,-0.00493835,-0.00000014,-0.55
 117658,-0.09089711,-0.00000203,-0.00907264,-0.01005613,-0.00000051,-0.
 00181645,-0.00101875,0.00000006,-0.08969870,0.02287363,0.00000104,0.01
 721884,0.01859457,0.00000079,-0.00019072,-0.00048739,-0.00000002,0.001
 71023,0.00099139,0.00000041,-0.00224729,-0.00001748,0.00000006,-0.0216
 7038,0.00799552,-0.00000003,0.67707715,-0.00023533,-0.00016763,-0.0000
 0002,0.00065778,-0.00130817,0.00000025,-0.00374061,-0.00088823,0.00000
 016,0.00018645,-0.00029578,0.00000002,0.00002811,0.00027915,-0.0000000
 1,-0.00002563,-0.00029033,0.00000001,0.00002768,-0.00013732,0.00000002
 ,0.00006960,0.00003163,0.,0.00006682,-0.00005719,0.,0.00001390,-0.0000
 2769,0.,0.01153519,-0.01627969,-0.00000214,0.00013044,0.00157337,-0.00
 000024,-0.05344102,-0.01559329,0.00000055,-0.00004430,-0.01100687,-0.0
 0000155,-0.08955337,-0.10087284,-0.00000051,0.00045169,-0.00138969,0.0
 0000017,-0.00259411,-0.00058494,-0.00000057,0.03215390,0.02153795,-0.0
 0000075,0.00206603,-0.00308166,-0.00000096,-0.00012367,0.00033750,0.00
 000022,-0.00234937,0.00266007,0.00000117,0.00142486,0.00044924,0.00000
 015,0.00144397,0.00840206,0.00000104,0.10527083,0.12411976,-0.00000011
 ,0.,0.00022542,0.00000034,-0.00000027,-0.00016982,-0.00000058,-0.00000
 020,-0.00011708,-0.00000008,0.00000001,0.00005900,-0.00000003,-0.00000
 008,0.00016806,0.00000008,-0.00000002,0.00001710,0.00000001,-0.0000000
 2,-0.00007090,0.,0.,-0.00018419,0.,0.,-0.00001200,0.,0.,-0.00006123,0.
 00000173,-0.00000278,0.00529453,-0.00000009,0.00000039,-0.00042380,-0.
 00000071,-0.00000236,0.02038661,-0.00000102,0.00000012,0.00229415,-0.0
 0000269,0.00000018,-0.05479414,0.00000040,-0.00000087,0.00036586,0.000
 00006,0.00000017,-0.00249081,0.00000106,-0.00000011,0.01493614,0.00000
 049,0.00000024,0.00456514,0.,0.,0.00005516,-0.00000034,0.00000031,-0.0
 0343746,0.00000009,0.00000003,-0.00058822,0.00000053,0.00000135,-0.003
 68056,0.00000226,0.00000312,0.02055973,0.00142882,0.00029698,0.0000000
 1,-0.00226389,0.00606037,-0.00000027,0.01593156,0.02231883,-0.00000140
 ,0.00093528,0.00142245,0.00000017,-0.00035473,-0.00031854,0.00000001,-
 0.00046341,0.00003606,0.,-0.00016866,0.00030877,0.,-0.00165775,-0.0006
 8994,-0.00000011,0.00000093,-0.00001264,0.,-0.00006598,-0.00008644,0.0
 0000001,-0.20174330,-0.23179196,0.00001443,-0.00385552,-0.00087614,0.0
 0000012,0.00165510,0.00045575,-0.00000047,0.00011168,-0.00013312,0.000
 00006,-0.00694149,-0.00081924,0.00000003,0.00016485,0.00039362,-0.0000
 0011,0.00016702,0.00009853,0.00000019,0.00166381,0.00004765,0.00000032
 ,-0.00057152,-0.00006663,-0.00000010,0.00005735,0.00001077,0.00000002,
 -0.00004403,-0.00001380,-0.00000009,0.00014318,-0.00004015,0.00000003,
 -0.00413895,-0.02368009,0.00000149,0.00583740,-0.00341983,-0.00000141,
 0.19417225,-0.00064229,-0.00061806,0.00000006,0.00289949,-0.00218260,0
 .00000031,-0.00966789,-0.03041092,0.00000220,-0.00171692,0.00234226,0.
 00000007,-0.00034918,-0.00101630,-0.00000004,-0.00005808,0.00068944,-0
 .00000001,0.00020298,-0.00014695,0.,0.00083433,-0.00009042,0.00000001,
 -0.00012867,0.00016190,0.,0.00000942,0.00006213,0.,-0.22006718,-0.3824
 4691,0.00002644,0.00267504,0.00432237,-0.00000029,-0.00280054,0.001179
 21,0.00000082,0.00230484,-0.00089536,-0.00000025,0.00929115,0.00291400
 ,0.00000029,-0.00186931,0.00209759,0.00000044,-0.00034615,-0.00015017,
 -0.00000050,-0.00163771,-0.00040596,-0.00000038,-0.00048766,-0.0017910
 0,0.00000004,0.00001482,-0.00005827,-0.00000002,0.00005678,-0.00001823
 ,0.00000025,-0.00024470,-0.00001129,-0.00000014,0.00009459,0.00626508,
 -0.00000086,-0.00886590,-0.00740940,0.00000078,0.23049872,0.40761786,0
 .00000012,0.00000012,0.00055408,0.00000004,0.00000048,0.00345164,0.000
 00151,0.00000080,0.00501223,-0.00000006,0.00000003,-0.00165832,0.00000
 006,-0.00000017,-0.00061938,0.00000005,0.00000007,-0.00001081,-0.00000
 003,0.00000002,-0.00006455,-0.00000011,-0.00000003,0.00034029,0.,0.,0.
 00010472,0.,0.,-0.00001218,0.00001409,0.00002855,-0.00477060,-0.000000
 37,-0.00000010,0.00398633,0.00000035,-0.00000083,0.00038287,-0.0000011
 1,0.00000067,-0.00052806,0.00000057,0.00000092,0.00040354,0.00000038,-
 0.00000079,0.00054044,0.00000004,0.00000006,-0.00073998,-0.00000040,-0
 .00000017,-0.00092693,0.00000042,0.00000004,0.00058869,-0.00000002,0.,
 -0.00011489,0.00000002,-0.00000007,0.00046220,0.,0.00000004,-0.0001670
 6,-0.00000126,-0.00000028,-0.00588555,-0.00000141,-0.00000014,-0.00289
 668,-0.00001290,-0.00002919,0.00256795\\0.00162143,0.00565752,-0.00000
 019,0.00791911,0.01146736,-0.00000044,0.01439094,-0.00009601,0.0000001
 4,-0.00127965,0.00234109,0.00000016,-0.00040599,-0.00419028,0.00000010
 ,0.00185537,0.00192714,-0.00000014,-0.00011502,0.00077602,-0.00000018,
 0.00043299,0.00002724,0.00000005,0.00005069,0.00016702,0.00000001,0.00
 015199,0.00022797,-0.00000007,-0.01991111,0.01371040,0.00000115,0.0049
 2498,0.01358205,-0.00000054,-0.01180613,0.00748446,0.00000215,0.011801
 69,-0.00143490,0.00000014,0.02065879,0.00435758,-0.00000055,-0.0042769
 5,0.01053238,0.00000013,0.00031843,-0.00009632,0.00000026,-0.00528071,
 0.00036271,0.00000002,-0.00800947,-0.00186690,-0.00000002,-0.00026317,
 -0.00012252,-0.00000009,-0.00056380,-0.00003763,-0.00000009,-0.0008555
 8,-0.00033613,0.00000007,-0.01215958,-0.00800342,-0.00000238,-0.011322
 95,-0.01600329,-0.00000027,0.01212370,-0.04043355,0.00000057\\\@
 The archive entry for this job was punched.


 IF OTHER PEOPLE ARE GOING TO TALK, CONVERSATION IS SIMPLY IMPOSSIBLE.

                                               -- WHISTLER'S PRINCIPLE
 Job cpu time:       0 days  2 hours 49 minutes 45.3 seconds.
 Elapsed time:       0 days  0 hours 17 minutes 28.1 seconds.
 File lengths (MBytes):  RWF=   1376 Int=      0 D2E=      0 Chk=     48 Scr=      8
 Normal termination of Gaussian 16 at Tue Jul 14 12:07:33 2020.
