 Entering Gaussian System, Link 0=g16
 Initial command:
 /gpfs/loomis/apps/avx/software/Gaussian/16-C.01_AVX/g16/l1.exe "/home/fas/batista/pev4/scratch60/gauss-scratch/Gau-265827.inp" -scrdir="/home/fas/batista/pev4/scratch60/gauss-scratch/"
 Entering Link 1 = /gpfs/loomis/apps/avx/software/Gaussian/16-C.01_AVX/g16/l1.exe PID=    265828.
  
 Copyright (c) 1988-2019, Gaussian, Inc.  All Rights Reserved.
  
 This is part of the Gaussian(R) 16 program.  It is based on
 the Gaussian(R) 09 system (copyright 2009, Gaussian, Inc.),
 the Gaussian(R) 03 system (copyright 2003, Gaussian, Inc.),
 the Gaussian(R) 98 system (copyright 1998, Gaussian, Inc.),
 the Gaussian(R) 94 system (copyright 1995, Gaussian, Inc.),
 the Gaussian 92(TM) system (copyright 1992, Gaussian, Inc.),
 the Gaussian 90(TM) system (copyright 1990, Gaussian, Inc.),
 the Gaussian 88(TM) system (copyright 1988, Gaussian, Inc.),
 the Gaussian 86(TM) system (copyright 1986, Carnegie Mellon
 University), and the Gaussian 82(TM) system (copyright 1983,
 Carnegie Mellon University). Gaussian is a federally registered
 trademark of Gaussian, Inc.
  
 This software contains proprietary and confidential information,
 including trade secrets, belonging to Gaussian, Inc.
  
 This software is provided under written license and may be
 used, copied, transmitted, or stored only in accord with that
 written license.
  
 The following legend is applicable only to US Government
 contracts under FAR:
  
                    RESTRICTED RIGHTS LEGEND
  
 Use, reproduction and disclosure by the US Government is
 subject to restrictions as set forth in subparagraphs (a)
 and (c) of the Commercial Computer Software - Restricted
 Rights clause in FAR 52.227-19.
  
 Gaussian, Inc.
 340 Quinnipiac St., Bldg. 40, Wallingford CT 06492
  
  
 ---------------------------------------------------------------
 Warning -- This program may not be used in any manner that
 competes with the business of Gaussian, Inc. or will provide
 assistance to any competitor of Gaussian, Inc.  The licensee
 of this program is prohibited from giving any competitor of
 Gaussian, Inc. access to this program.  By using this program,
 the user acknowledges that Gaussian, Inc. is engaged in the
 business of creating and licensing software in the field of
 computational chemistry and represents and warrants to the
 licensee that it is not a competitor of Gaussian, Inc. and that
 it will not use this program in any manner prohibited above.
 ---------------------------------------------------------------
  

 Cite this work as:
 Gaussian 16, Revision C.01,
 M. J. Frisch, G. W. Trucks, H. B. Schlegel, G. E. Scuseria, 
 M. A. Robb, J. R. Cheeseman, G. Scalmani, V. Barone, 
 G. A. Petersson, H. Nakatsuji, X. Li, M. Caricato, A. V. Marenich, 
 J. Bloino, B. G. Janesko, R. Gomperts, B. Mennucci, H. P. Hratchian, 
 J. V. Ortiz, A. F. Izmaylov, J. L. Sonnenberg, D. Williams-Young, 
 F. Ding, F. Lipparini, F. Egidi, J. Goings, B. Peng, A. Petrone, 
 T. Henderson, D. Ranasinghe, V. G. Zakrzewski, J. Gao, N. Rega, 
 G. Zheng, W. Liang, M. Hada, M. Ehara, K. Toyota, R. Fukuda, 
 J. Hasegawa, M. Ishida, T. Nakajima, Y. Honda, O. Kitao, H. Nakai, 
 T. Vreven, K. Throssell, J. A. Montgomery, Jr., J. E. Peralta, 
 F. Ogliaro, M. J. Bearpark, J. J. Heyd, E. N. Brothers, K. N. Kudin, 
 V. N. Staroverov, T. A. Keith, R. Kobayashi, J. Normand, 
 K. Raghavachari, A. P. Rendell, J. C. Burant, S. S. Iyengar, 
 J. Tomasi, M. Cossi, J. M. Millam, M. Klene, C. Adamo, R. Cammi, 
 J. W. Ochterski, R. L. Martin, K. Morokuma, O. Farkas, 
 J. B. Foresman, and D. J. Fox, Gaussian, Inc., Wallingford CT, 2019.
 
 ******************************************
 Gaussian 16:  ES64L-G16RevC.01  3-Jul-2019
                14-Jul-2020 
 ******************************************
 %chk=config_12_1_fixed.chk
 %mem=58GB
 %nprocshared=10
 Will use up to   10 processors via shared memory.
 ----------------------------------------------------------------------
 #p opt=addgic freq td wb97xd/cc-pvdz nosymm int=ultrafine scrf=(solven
 t=CarbonTetraChloride)
 ----------------------------------------------------------------------
 1/18=20,19=15,26=6,38=1,145=903/1,3;
 2/9=110,12=2,15=1,17=6,18=5,40=1/2;
 3/5=16,11=9,25=1,30=1,70=2201,71=1,72=11,74=-58,75=-5/1,2,3,8;
 4//1;
 5/5=2,38=5,53=11/2;
 8/6=1,10=1/1;
 9/15=2,42=1,70=2/14;
 10/5=4,31=1/2;
 6/7=2,8=2,9=2,10=2/1;
 7/12=6,13=5,30=1/1,2,3,16;
 1/18=20,19=15,26=6,145=903/3(2);
 2/9=110,15=1/2;
 99//99;
 2/9=110,15=1/2;
 3/5=16,11=9,25=1,30=1,70=2205,71=1,72=11,74=-58,75=-5/1,2,3,8;
 4/5=5,16=3,69=1/1;
 5/5=2,38=5,53=11/2;
 8/6=1,10=1/1;
 9/15=2,42=1,49=4,70=2/14;
 10/5=4,31=1/2;
 7/12=6,13=5,30=1/1,2,3,16;
 1/18=20,19=15,26=6,145=903/3(-8);
 2/9=110,15=1/2;
 6/7=2,8=2,9=2,10=2/1;
 99/9=10/99;
 Leave Link    1 at Tue Jul 14 10:31:47 2020, MaxMem=  7784628224 cpu:               5.3 elap:               0.6
 (Enter /gpfs/loomis/apps/avx/software/Gaussian/16-C.01_AVX/g16/l101.exe)
 ------------------------------------------------
 NM 2D-scan of HBT TD-WB97XD pVDZ in CTC Relaxed.
 ------------------------------------------------
 Symbolic Z-matrix:
 Charge =  0 Multiplicity = 1
 C                     1.76471  -3.26682  -0.00003 
 C                     1.01135  -2.08553  -0.00002 
 C                     1.66989  -0.83327  -0.00002 
 C                     3.06127  -0.73719  -0.00002 
 C                     3.80155  -1.9162   -0.00002 
 C                     3.16372  -3.16453  -0.00003 
 H                     1.28013  -4.2479   -0.00003 
 H                     3.54033   0.24598  -0.00001 
 H                     4.89402  -1.86384  -0.00002 
 H                     3.76422  -4.07776  -0.00003 
 N                     0.80392   0.23639  -0.00001 
 S                    -0.75255  -1.85642  -0.00002 
 C                    -1.44169   1.00299  0. 
 C                    -2.82035   0.90237  -0.00002 
 C                    -0.83264   2.3829    0.00003 
 C                    -3.64767   2.06967   0.00002 
 H                    -3.30505  -0.08193  -0.00005 
 C                    -1.718     3.50611   0.00007 
 C                    -3.10458   3.35505   0.00007 
 H                    -4.73203   1.93558   0.00001 
 H                    -1.23033   4.48616   0.00009 
 H                    -3.75929   4.22947   0.0001 
 C                    -0.51034  -0.09868  -0.00001 
 O                     0.40699   2.56828   0.00002 
 H                     1.06298   0.92354  -0.00001 
 
 Initializing the GIC definitions file.
 Number of initial coordinates =   134
 Number of input entries/lines =    53
 Number of additional coordinates =     2
 Number of removed coordinates =     0
 Number of frozen coordinates =     3
 Number of final active and frozen coordinates =   136
 ITRead=  0  0  0  0  0  0  0  0  0  0  0  0  0  0  0  0  0  0  0  0
 ITRead=  0  0  0  0  0
 MicOpt= -1 -1 -1 -1 -1 -1 -1 -1 -1 -1 -1 -1 -1 -1 -1 -1 -1 -1 -1 -1
 MicOpt= -1 -1 -1 -1 -1
 NAtoms=     25 NQM=       25 NQMF=       0 NMMI=      0 NMMIF=      0
                NMic=       0 NMicF=      0.
                    Isotopes and Nuclear Properties:
 (Nuclear quadrupole moments (NQMom) in fm**2, nuclear magnetic moments (NMagM)
  in nuclear magnetons)

  Atom         1           2           3           4           5           6           7           8           9          10
 IAtWgt=          12          12          12          12          12          12           1           1           1           1
 AtmWgt=  12.0000000  12.0000000  12.0000000  12.0000000  12.0000000  12.0000000   1.0078250   1.0078250   1.0078250   1.0078250
 NucSpn=           0           0           0           0           0           0           1           1           1           1
 AtZEff=  -0.0000000  -0.0000000  -0.0000000  -0.0000000  -0.0000000  -0.0000000  -0.0000000  -0.0000000  -0.0000000  -0.0000000
 NQMom=    0.0000000   0.0000000   0.0000000   0.0000000   0.0000000   0.0000000   0.0000000   0.0000000   0.0000000   0.0000000
 NMagM=    0.0000000   0.0000000   0.0000000   0.0000000   0.0000000   0.0000000   2.7928460   2.7928460   2.7928460   2.7928460
 AtZNuc=   6.0000000   6.0000000   6.0000000   6.0000000   6.0000000   6.0000000   1.0000000   1.0000000   1.0000000   1.0000000

  Atom        11          12          13          14          15          16          17          18          19          20
 IAtWgt=          14          32          12          12          12          12           1          12          12           1
 AtmWgt=  14.0030740  31.9720718  12.0000000  12.0000000  12.0000000  12.0000000   1.0078250  12.0000000  12.0000000   1.0078250
 NucSpn=           2           0           0           0           0           0           1           0           0           1
 AtZEff=  -0.0000000  -0.0000000  -0.0000000  -0.0000000  -0.0000000  -0.0000000  -0.0000000  -0.0000000  -0.0000000  -0.0000000
 NQMom=    2.0440000   0.0000000   0.0000000   0.0000000   0.0000000   0.0000000   0.0000000   0.0000000   0.0000000   0.0000000
 NMagM=    0.4037610   0.0000000   0.0000000   0.0000000   0.0000000   0.0000000   2.7928460   0.0000000   0.0000000   2.7928460
 AtZNuc=   7.0000000  16.0000000   6.0000000   6.0000000   6.0000000   6.0000000   1.0000000   6.0000000   6.0000000   1.0000000

  Atom        21          22          23          24          25
 IAtWgt=           1           1          12          16           1
 AtmWgt=   1.0078250   1.0078250  12.0000000  15.9949146   1.0078250
 NucSpn=           1           1           0           0           1
 AtZEff=  -0.0000000  -0.0000000  -0.0000000  -0.0000000  -0.0000000
 NQMom=    0.0000000   0.0000000   0.0000000   0.0000000   0.0000000
 NMagM=    2.7928460   2.7928460   0.0000000   0.0000000   2.7928460
 AtZNuc=   1.0000000   1.0000000   6.0000000   8.0000000   1.0000000
 Leave Link  101 at Tue Jul 14 10:31:50 2020, MaxMem=  7784628224 cpu:              33.0 elap:               3.4
 (Enter /gpfs/loomis/apps/avx/software/Gaussian/16-C.01_AVX/g16/l103.exe)

 GradGradGradGradGradGradGradGradGradGradGradGradGradGradGradGradGradGrad
 Berny optimization.
 Initialization pass.
                           ----------------------------
                           !    Initial Parameters    !
                           ! (Angstroms and Degrees)  !
 --------------------------                            --------------------------
 ! Name  Definition              Value          Derivative Info.                !
 --------------------------------------------------------------------------------
 ! R1    R(1,2)                  1.4011         estimate D2E/DX2                !
 ! R2    R(1,6)                  1.4027         estimate D2E/DX2                !
 ! R3    R(1,7)                  1.0942         estimate D2E/DX2                !
 ! R4    R(2,3)                  1.4149         estimate D2E/DX2                !
 ! R5    R(2,12)                 1.7787         estimate D2E/DX2                !
 ! R6    R(3,4)                  1.3947         estimate D2E/DX2                !
 ! R7    R(3,11)                 1.3762         estimate D2E/DX2                !
 ! R8    R(4,5)                  1.3921         estimate D2E/DX2                !
 ! R9    R(4,8)                  1.0937         estimate D2E/DX2                !
 ! R10   R(5,6)                  1.4018         estimate D2E/DX2                !
 ! R11   R(5,9)                  1.0937         estimate D2E/DX2                !
 ! R12   R(6,10)                 1.093          estimate D2E/DX2                !
 ! R13   R(11,23)                1.3563         estimate D2E/DX2                !
 ! R14   R(11,25)                0.7344         estimate D2E/DX2                !
 ! R15   R(12,23)                1.7743         estimate D2E/DX2                !
 ! R16   R(13,14)                1.3823         estimate D2E/DX2                !
 ! R17   R(13,15)                1.5083         estimate D2E/DX2                !
 ! R18   R(13,23)                1.4426         estimate D2E/DX2                !
 ! R19   R(14,16)                1.4307         estimate D2E/DX2                !
 ! R20   R(14,17)                1.0972         estimate D2E/DX2                !
 ! R21   R(15,18)                1.4302         estimate D2E/DX2                !
 ! R22   R(15,24)                1.2534         estimate D2E/DX2                !
 ! R23   R(16,19)                1.3954         estimate D2E/DX2                !
 ! R24   R(16,20)                1.0926         estimate D2E/DX2                !
 ! R25   R(18,19)                1.3948         estimate D2E/DX2                !
 ! R26   R(18,21)                1.0947         estimate D2E/DX2                !
 ! R27   R(19,22)                1.0924         estimate D2E/DX2                !
 ! A1    A(2,1,6)              118.3459         estimate D2E/DX2                !
 ! A2    A(2,1,7)              121.1861         estimate D2E/DX2                !
 ! A3    A(6,1,7)              120.468          estimate D2E/DX2                !
 ! A4    A(1,2,3)              119.7335         estimate D2E/DX2                !
 ! A5    A(1,2,12)             129.9285         estimate D2E/DX2                !
 ! A6    A(3,2,12)             110.3381         estimate D2E/DX2                !
 ! A7    A(2,3,4)              121.6888         estimate D2E/DX2                !
 ! A8    A(2,3,11)             113.2685         estimate D2E/DX2                !
 ! A9    A(4,3,11)             125.0426         estimate D2E/DX2                !
 ! A10   A(3,4,5)              118.174          estimate D2E/DX2                !
 ! A11   A(3,4,8)              119.9278         estimate D2E/DX2                !
 ! A12   A(5,4,8)              121.8982         estimate D2E/DX2                !
 ! A13   A(4,5,6)              120.8113         estimate D2E/DX2                !
 ! A14   A(4,5,9)              119.3799         estimate D2E/DX2                !
 ! A15   A(6,5,9)              119.8088         estimate D2E/DX2                !
 ! A16   A(1,6,5)              121.2464         estimate D2E/DX2                !
 ! A17   A(1,6,10)             119.1455         estimate D2E/DX2                !
 ! A18   A(5,6,10)             119.6081         estimate D2E/DX2                !
 ! A19   A(3,11,23)            114.6897         estimate D2E/DX2                !
 ! A20   A(3,11,25)            120.351          estimate D2E/DX2                !
 ! A21   A(23,11,25)           124.9593         estimate D2E/DX2                !
 ! A22   A(2,12,23)             89.5551         estimate D2E/DX2                !
 ! A23   A(14,13,15)           117.9895         estimate D2E/DX2                !
 ! A24   A(14,13,23)           126.0368         estimate D2E/DX2                !
 ! A25   A(15,13,23)           115.9737         estimate D2E/DX2                !
 ! A26   A(13,14,16)           121.1525         estimate D2E/DX2                !
 ! A27   A(13,14,17)           120.3911         estimate D2E/DX2                !
 ! A28   A(16,14,17)           118.4564         estimate D2E/DX2                !
 ! A29   A(13,15,18)           117.9379         estimate D2E/DX2                !
 ! A30   A(13,15,24)           122.3205         estimate D2E/DX2                !
 ! A31   A(18,15,24)           119.7416         estimate D2E/DX2                !
 ! A32   A(14,16,19)           121.7687         estimate D2E/DX2                !
 ! A33   A(14,16,20)           118.2774         estimate D2E/DX2                !
 ! A34   A(19,16,20)           119.9538         estimate D2E/DX2                !
 ! A35   A(15,18,19)           122.0294         estimate D2E/DX2                !
 ! A36   A(15,18,21)           115.2983         estimate D2E/DX2                !
 ! A37   A(19,18,21)           122.6723         estimate D2E/DX2                !
 ! A38   A(16,19,18)           119.1219         estimate D2E/DX2                !
 ! A39   A(16,19,22)           120.2722         estimate D2E/DX2                !
 ! A40   A(18,19,22)           120.6058         estimate D2E/DX2                !
 ! A41   A(11,23,12)           112.1486         estimate D2E/DX2                !
 ! A42   A(11,23,13)           115.9081         estimate D2E/DX2                !
 ! A43   A(12,23,13)           131.9432         estimate D2E/DX2                !
 ! D1    D(6,1,2,3)              0.0            estimate D2E/DX2                !
 ! D2    D(6,1,2,12)          -179.9999         estimate D2E/DX2                !
 ! D3    D(7,1,2,3)            179.9999         estimate D2E/DX2                !
 ! D4    D(7,1,2,12)             0.0            estimate D2E/DX2                !
 ! D5    D(2,1,6,5)              0.0            estimate D2E/DX2                !
 ! D6    D(2,1,6,10)           180.0            estimate D2E/DX2                !
 ! D7    D(7,1,6,5)           -179.9999         estimate D2E/DX2                !
 ! D8    D(7,1,6,10)             0.0001         estimate D2E/DX2                !
 ! D9    D(1,2,3,4)             -0.0001         estimate D2E/DX2                !
 ! D10   D(1,2,3,11)           179.9999         estimate D2E/DX2                !
 ! D11   D(12,2,3,4)           179.9999         estimate D2E/DX2                !
 ! D12   D(12,2,3,11)           -0.0001         estimate D2E/DX2                !
 ! D13   D(1,2,12,23)         -180.0            estimate D2E/DX2                !
 ! D14   D(3,2,12,23)            0.0001         estimate D2E/DX2                !
 ! D15   D(2,3,4,5)              0.0            estimate D2E/DX2                !
 ! D16   D(2,3,4,8)           -180.0            estimate D2E/DX2                !
 ! D17   D(11,3,4,5)          -179.9999         estimate D2E/DX2                !
 ! D18   D(11,3,4,8)             0.0001         estimate D2E/DX2                !
 ! D19   D(2,3,11,23)            0.0001         estimate D2E/DX2                !
 ! D20   D(2,3,11,25)         -179.9998         estimate D2E/DX2                !
 ! D21   D(4,3,11,23)         -179.9999         estimate D2E/DX2                !
 ! D22   D(4,3,11,25)            0.0002         estimate D2E/DX2                !
 ! D23   D(3,4,5,6)              0.0            estimate D2E/DX2                !
 ! D24   D(3,4,5,9)           -180.0            estimate D2E/DX2                !
 ! D25   D(8,4,5,6)           -180.0            estimate D2E/DX2                !
 ! D26   D(8,4,5,9)              0.0            estimate D2E/DX2                !
 ! D27   D(4,5,6,1)              0.0            estimate D2E/DX2                !
 ! D28   D(4,5,6,10)           180.0            estimate D2E/DX2                !
 ! D29   D(9,5,6,1)            180.0            estimate D2E/DX2                !
 ! D30   D(9,5,6,10)             0.0            estimate D2E/DX2                !
 ! D31   D(3,11,23,12)          -0.0001         estimate D2E/DX2                !
 ! D32   D(3,11,23,13)         179.9996         estimate D2E/DX2                !
 ! D33   D(25,11,23,12)        179.9999         estimate D2E/DX2                !
 ! D34   D(25,11,23,13)         -0.0004         estimate D2E/DX2                !
 ! D35   D(2,12,23,11)           0.0            estimate D2E/DX2                !
 ! D36   D(2,12,23,13)        -179.9997         estimate D2E/DX2                !
 ! D37   D(15,13,14,16)         -0.001          estimate D2E/DX2                !
 ! D38   D(15,13,14,17)        179.9993         estimate D2E/DX2                !
 ! D39   D(23,13,14,16)        179.9989         estimate D2E/DX2                !
 ! D40   D(23,13,14,17)         -0.0008         estimate D2E/DX2                !
 ! D41   D(14,13,15,18)          0.0011         estimate D2E/DX2                !
 ! D42   D(14,13,15,24)       -179.9989         estimate D2E/DX2                !
 ! D43   D(23,13,15,18)       -179.9989         estimate D2E/DX2                !
 ! D44   D(23,13,15,24)          0.0012         estimate D2E/DX2                !
 ! D45   D(14,13,23,11)        179.9991         estimate D2E/DX2                !
 ! D46   D(14,13,23,12)         -0.0013         estimate D2E/DX2                !
 ! Atot  D(15,13,23,11)         -0.001          Frozen                          !
 ! D48   D(15,13,23,12)        179.9987         estimate D2E/DX2                !
 ! D49   D(13,14,16,19)          0.0003         estimate D2E/DX2                !
 ! D50   D(13,14,16,20)       -179.9996         estimate D2E/DX2                !
 ! D51   D(17,14,16,19)        179.9999         estimate D2E/DX2                !
 ! D52   D(17,14,16,20)          0.0001         estimate D2E/DX2                !
 ! D53   D(13,15,18,19)         -0.0004         estimate D2E/DX2                !
 ! D54   D(13,15,18,21)        179.9997         estimate D2E/DX2                !
 ! D55   D(24,15,18,19)        179.9996         estimate D2E/DX2                !
 ! D56   D(24,15,18,21)         -0.0004         estimate D2E/DX2                !
 ! D57   D(14,16,19,18)          0.0005         estimate D2E/DX2                !
 ! D58   D(14,16,19,22)       -179.9997         estimate D2E/DX2                !
 ! D59   D(20,16,19,18)       -179.9996         estimate D2E/DX2                !
 ! D60   D(20,16,19,22)          0.0002         estimate D2E/DX2                !
 ! D61   D(15,18,19,16)         -0.0004         estimate D2E/DX2                !
 ! D62   D(15,18,19,22)        179.9998         estimate D2E/DX2                !
 ! D63   D(21,18,19,16)        179.9996         estimate D2E/DX2                !
 ! D64   D(21,18,19,22)         -0.0002         estimate D2E/DX2                !
 ! Qtot  GIC-1                  60.0            Frozen                          !
 ! Ptot  GIC-2                -140.0            Frozen                          !
 --------------------------------------------------------------------------------
 NOTE: GIC-type coordinates are in arbitrary units.
 Trust Radius=3.00D-01 FncErr=5.00D-06 GrdErr=5.00D-06 EigMax=2.50D+02 EigMin=1.00D-04
 Number of steps in this run=    146 maximum allowed number of steps=    150.
 GradGradGradGradGradGradGradGradGradGradGradGradGradGradGradGradGradGrad

 Leave Link  103 at Tue Jul 14 10:31:50 2020, MaxMem=  7784628224 cpu:               0.3 elap:               0.0
 (Enter /gpfs/loomis/apps/avx/software/Gaussian/16-C.01_AVX/g16/l202.exe)
                          Input orientation:                          
 ---------------------------------------------------------------------
 Center     Atomic      Atomic             Coordinates (Angstroms)
 Number     Number       Type             X           Y           Z
 ---------------------------------------------------------------------
      1          6           0        1.764713   -3.266820   -0.000025
      2          6           0        1.011348   -2.085534   -0.000021
      3          6           0        1.669887   -0.833266   -0.000017
      4          6           0        3.061275   -0.737191   -0.000017
      5          6           0        3.801554   -1.916198   -0.000022
      6          6           0        3.163720   -3.164531   -0.000026
      7          1           0        1.280127   -4.247898   -0.000027
      8          1           0        3.540327    0.245977   -0.000014
      9          1           0        4.894015   -1.863835   -0.000022
     10          1           0        3.764221   -4.077760   -0.000030
     11          7           0        0.803923    0.236391   -0.000014
     12         16           0       -0.752551   -1.856419   -0.000016
     13          6           0       -1.441692    1.002991   -0.000002
     14          6           0       -2.820354    0.902371   -0.000016
     15          6           0       -0.832640    2.382904    0.000030
     16          6           0       -3.647667    2.069668    0.000020
     17          1           0       -3.305047   -0.081927   -0.000050
     18          6           0       -1.718004    3.506109    0.000067
     19          6           0       -3.104583    3.355050    0.000066
     20          1           0       -4.732028    1.935577    0.000013
     21          1           0       -1.230331    4.486164    0.000094
     22          1           0       -3.759289    4.229472    0.000098
     23          6           0       -0.510342   -0.098682   -0.000012
     24          8           0        0.406993    2.568285    0.000024
     25          1           0        1.062977    0.923539   -0.000015
 ---------------------------------------------------------------------
                    Distance matrix (angstroms):
                    1          2          3          4          5
     1  C    0.000000
     2  C    1.401070   0.000000
     3  C    2.435401   1.414867   0.000000
     4  C    2.842551   2.453615   1.394701   0.000000
     5  C    2.443952   2.795339   2.390972   1.392146   0.000000
     6  C    1.402742   2.407684   2.768815   2.429501   1.401844
     7  H    1.094229   2.179005   3.436804   3.936693   3.434300
     8  H    3.936057   3.439720   2.159470   1.093668   2.177898
     9  H    3.429417   3.888991   3.384830   2.151340   1.093716
    10  H    2.157697   3.398128   3.861732   3.413727   2.161884
    11  N    3.632576   2.331172   1.376249   2.458353   3.690452
    12  S    2.885455   1.778717   2.629648   3.974662   4.554497
    13  C    5.339693   3.944159   3.612999   4.827519   6.001107
    14  C    6.197176   4.858962   4.814010   6.105876   7.196804
    15  C    6.218169   4.833966   4.075094   4.989746   6.321236
    16  C    7.600787   6.242765   6.058333   7.272438   8.448551
    17  H    5.987154   4.758751   5.031349   6.399955   7.339505
    18  C    7.615896   6.222204   5.505268   6.391173   7.737372
    19  C    8.219440   6.822084   6.351185   7.400286   8.687967
    20  H    8.323015   7.011113   6.975027   8.238887   9.362595
    21  H    8.311380   6.943510   6.058679   6.760275   8.143102
    22  H    9.311766   7.914435   7.423427   8.437288   9.743490
    23  C    3.900381   2.502623   2.300654   3.628242   4.679296
    24  O    5.990981   4.692896   3.628423   4.239267   5.624378
    25  H    4.248710   3.009515   1.858683   2.598311   3.945112
                    6          7          8          9         10
     6  C    0.000000
     7  H    2.172926   0.000000
     8  H    3.431239   5.030250   0.000000
     9  H    2.164655   4.329428   2.506747   0.000000
    10  H    1.092972   2.489914   4.329530   2.485538   0.000000
    11  N    4.139435   4.509504   2.736421   4.597805   5.232138
    12  S    4.128963   3.138622   4.780049   5.646571   5.033446
    13  C    6.211124   5.914400   5.039204   6.954127   7.274308
    14  C    7.235250   6.583252   6.394459   8.195327   8.255806
    15  C    6.837027   6.959262   4.867165   7.129472   7.929143
    16  C    8.590217   8.012165   7.415733   9.403870   9.629483
    17  H    7.165710   6.195090   6.853223   8.390460   8.120421
    18  C    8.266116   8.313447   6.186962   8.517928   9.357876
    19  C    9.044145   8.776702   7.336290   9.550619  10.120628
    20  H    9.399678   8.624463   8.443139  10.348731  10.408961
    21  H    8.822745   9.087697   6.382661   8.822137   9.913947
    22  H   10.129133   9.862125   8.315806  10.583386  11.207734
    23  C    4.785203   4.519046   4.065305   5.685318   5.839944
    24  O    6.361189   6.871878   3.900115   6.306906   7.445864
    25  H    4.596242   5.175994   2.568336   4.737753   5.684163
                   11         12         13         14         15
    11  N    0.000000
    12  S    2.608154   0.000000
    13  C    2.372859   2.941282   0.000000
    14  C    3.684957   3.447714   1.382329   0.000000
    15  C    2.699232   4.240080   1.508346   2.478505   0.000000
    16  C    4.814307   4.878100   2.450331   1.430744   2.832401
    17  H    4.121281   3.108707   2.156186   1.097164   3.491159
    18  C    4.129306   5.448743   2.518322   2.827477   1.430195
    19  C    5.000244   5.717645   2.880519   2.469093   2.471192
    20  H    5.790853   5.496860   3.419946   2.173019   3.924963
    21  H    4.711555   6.360553   3.489580   3.920681   2.140528
    22  H    6.063629   6.788118   3.972586   3.457051   3.460504
    23  C    1.356306   1.774346   1.442600   2.517591   2.502428
    24  O    2.365435   4.574117   2.422350   3.631947   1.253417
    25  H    0.734357   3.320287   2.505929   3.883388   2.392302
                   16         17         18         19         20
    16  C    0.000000
    17  H    2.178703   0.000000
    18  C    2.405610   3.923354   0.000000
    19  C    1.395402   3.442818   1.394783   0.000000
    20  H    1.092621   2.471153   3.398663   2.159510   0.000000
    21  H    3.418035   5.017160   1.094684   2.189118   4.332133
    22  H    2.162686   4.335262   2.165664   1.092362   2.491621
    23  C    3.813732   2.794755   3.801705   4.319531   4.686240
    24  O    4.085203   4.561015   2.322740   3.598633   5.177823
    25  H    4.848069   4.482253   3.795197   4.825018   5.882712
                   21         22         23         24         25
    21  H    0.000000
    22  H    2.541952   0.000000
    23  C    4.641034   5.411892   0.000000
    24  O    2.521723   4.485248   2.820322   0.000000
    25  H    4.236928   5.846661   1.876237   1.770736   0.000000
 Symmetry turned off by external request.
 Stoichiometry    C13H9NOS
 Framework group  C1[X(C13H9NOS)]
 Deg. of freedom    69
 Full point group                 C1      NOp   1
 Rotational constants (GHZ):           1.3534265           0.2851009           0.2354939
 Leave Link  202 at Tue Jul 14 10:31:50 2020, MaxMem=  7784628224 cpu:               0.2 elap:               0.0
 (Enter /gpfs/loomis/apps/avx/software/Gaussian/16-C.01_AVX/g16/l301.exe)
 Standard basis: CC-pVDZ (5D, 7F)
 Ernie: Thresh=  0.10000D-02 Tol=  0.10000D-05 Strict=F.
 Ernie:  40 primitive shells out of 425 were deleted.
   273 basis functions,   629 primitive gaussians,   289 cartesian basis functions
    59 alpha electrons       59 beta electrons
       nuclear repulsion energy      1096.6866432419 Hartrees.
 IExCor= 4639 DFT=T Ex+Corr=wB97XD ExCW=0 ScaHFX=  1.000000
 ScaDFX=  1.000000  1.000000  1.000000  1.000000 ScalE2=  1.000000  1.000000
 IRadAn=      5 IRanWt=     -1 IRanGd=            0 ICorTp=0 IEmpDi=121
 HFx  wShort=  0.000000 wLong=  0.200000 cFull=  0.222036 cShort=  0.000000 cLong=  0.777964
 DFx  wShort=  0.000000 wLong=  0.200000 cFull=  0.000000 cShort=  0.000000 cLong=  1.000000
 NAtoms=   25 NActive=   25 NUniq=   25 SFac= 1.00D+00 NAtFMM=   60 NAOKFM=F Big=F
 Integral buffers will be    131072 words long.
 Raffenetti 1 integral format.
 Two-electron integral symmetry is turned off.
 R6Disp:  Grimme-D2 Dispersion energy=       -0.0141834253 Hartrees.
 Nuclear repulsion after empirical dispersion term =     1096.6724598166 Hartrees.
 ------------------------------------------------------------------------------
 Polarizable Continuum Model (PCM)
 =================================
 Model                : PCM.
 Atomic radii         : UFF (Universal Force Field).
 Polarization charges : Total charges.
 Charge compensation  : None.
 Solution method      : On-the-fly selection.
 Cavity type          : Scaled VdW (van der Waals Surface) (Alpha=1.100).
 Cavity algorithm     : GePol (No added spheres)
                        Default sphere list used, NSphG=   25.
                        Lebedev-Laikov grids with approx.  5.0 points / Ang**2.
                        Smoothing algorithm: York/Karplus (Gamma=1.0000).
                        Polarization charges: spherical gaussians, with
                                              point-specific exponents (IZeta= 3).
                        Self-potential: point-specific (ISelfS= 7).
                        Self-field    : sphere-specific E.n sum rule (ISelfD= 2).
 1st derivatives      : Analytical E(r).r(x)/FMM algorithm (CHGder, D1EAlg=3).
                        Cavity 1st derivative terms included.
 Solvent              : CarbonTetraChloride, Eps=   2.228000 Eps(inf)=   2.131892
 ------------------------------------------------------------------------------
 GePol: Number of generator spheres                  =      25
 GePol: Total number of spheres                      =      25
 GePol: Number of exposed spheres                    =      25 (100.00%)
 GePol: Number of points                             =    2197
 GePol: Average weight of points                     =       0.13
 GePol: Minimum weight of points                     =   0.12D-10
 GePol: Maximum weight of points                     =    0.20577
 GePol: Number of points with low weight             =     138
 GePol: Fraction of low-weight points (<1% of avg)   =       6.28%
 GePol: Cavity surface area                          =    275.963 Ang**2
 GePol: Cavity volume                                =    294.567 Ang**3
 Leave Link  301 at Tue Jul 14 10:31:51 2020, MaxMem=  7784628224 cpu:               1.2 elap:               0.2
 (Enter /gpfs/loomis/apps/avx/software/Gaussian/16-C.01_AVX/g16/l302.exe)
 NPDir=0 NMtPBC=     1 NCelOv=     1 NCel=       1 NClECP=     1 NCelD=      1
         NCelK=      1 NCelE2=     1 NClLst=     1 CellRange=     0.0.
 One-electron integrals computed using PRISM.
 NBasis=   273 RedAO= T EigKep=  3.07D-04  NBF=   273
 NBsUse=   273 1.00D-06 EigRej= -1.00D+00 NBFU=   273
 Precomputing XC quadrature grid using
 IXCGrd= 4 IRadAn=           5 IRanWt=          -1 IRanGd=           0 AccXCQ= 0.00D+00.
 Generated NRdTot=       0 NPtTot=           0 NUsed=           0 NTot=          32
 NSgBfM=   288   288   288   288   288 MxSgAt=    25 MxSgA2=    25.
 Leave Link  302 at Tue Jul 14 10:31:51 2020, MaxMem=  7784628224 cpu:               7.2 elap:               0.8
 (Enter /gpfs/loomis/apps/avx/software/Gaussian/16-C.01_AVX/g16/l303.exe)
 DipDrv:  MaxL=1.
 Leave Link  303 at Tue Jul 14 10:31:52 2020, MaxMem=  7784628224 cpu:               1.0 elap:               0.2
 (Enter /gpfs/loomis/apps/avx/software/Gaussian/16-C.01_AVX/g16/l308.exe)
 Leave Link  308 at Tue Jul 14 10:31:52 2020, MaxMem=  7784628224 cpu:               0.8 elap:               0.2
 (Enter /gpfs/loomis/apps/avx/software/Gaussian/16-C.01_AVX/g16/l401.exe)
 ExpMin= 1.22D-01 ExpMax= 1.11D+05 ExpMxC= 1.07D+03 IAcc=3 IRadAn=         5 AccDes= 0.00D+00
 Harris functional with IExCor= 4639 and IRadAn=       5 diagonalized for initial guess.
 HarFok:  IExCor= 4639 AccDes= 0.00D+00 IRadAn=         5 IDoV= 1 UseB2=F ITyADJ=14
 ICtDFT=  3500011 ScaDFX=  1.000000  1.000000  1.000000  1.000000
 FoFCou: FMM=F IPFlag=           0 FMFlag=      100000 FMFlg1=           0
         NFxFlg=           0 DoJE=T BraDBF=F KetDBF=T FulRan=T
         wScrn=  0.000000 ICntrl=       500 IOpCl=  0 I1Cent=   200000004 NGrid=           0
         NMat0=    1 NMatS0=      1 NMatT0=    0 NMatD0=    1 NMtDS0=    0 NMtDT0=    0
 Symmetry not used in FoFCou.
 Harris En= -994.308643702736    
 JPrj=0 DoOrth=F DoCkMO=F.
 Leave Link  401 at Tue Jul 14 10:31:53 2020, MaxMem=  7784628224 cpu:              14.4 elap:               1.5
 (Enter /gpfs/loomis/apps/avx/software/Gaussian/16-C.01_AVX/g16/l502.exe)
 Two-electron integral symmetry not used.
 Closed shell SCF:
 Using DIIS extrapolation, IDIIS=  1040.
 NGot=  7784628224 LenX=  7784455381 LenY=  7784371419
 Requested convergence on RMS density matrix=1.00D-08 within 128 cycles.
 Requested convergence on MAX density matrix=1.00D-06.
 Requested convergence on             energy=1.00D-06.
 No special actions if energy rises.
 Fock matrices will be formed incrementally for  20 cycles.

 Cycle   1  Pass 1  IDiag  1:
 FoFJK:  IHMeth= 1 ICntrl=       0 DoSepK=T KAlg= 0 I1Cent=           0 FoldK=F
 IRaf=         1 NMat=       1 IRICut=       1 DoRegI=T DoRafI=F ISym2E= 0 IDoP0=0 IntGTp=1.
 FoFCou: FMM=F IPFlag=           0 FMFlag=      100000 FMFlg1=           0
         NFxFlg=           0 DoJE=T BraDBF=F KetDBF=F FulRan=T
         wScrn=  0.000000 ICntrl=       500 IOpCl=  0 I1Cent=           0 NGrid=           0
         NMat0=    1 NMatS0=      1 NMatT0=    0 NMatD0=    1 NMtDS0=    0 NMtDT0=    0
 Symmetry not used in FoFCou.
 Inv3:  Mode=1 IEnd=    14480427.
 Iteration    1 A*A^-1 deviation from unit magnitude is 5.11D-15 for   2184.
 Iteration    1 A*A^-1 deviation from orthogonality  is 2.33D-15 for   2195   2095.
 Iteration    1 A^-1*A deviation from unit magnitude is 5.33D-15 for   2184.
 Iteration    1 A^-1*A deviation from orthogonality  is 2.02D-15 for   2193   2121.
 E= -1028.40220572221    
 DIIS: error= 4.35D-02 at cycle   1 NSaved=   1.
 NSaved= 1 IEnMin= 1 EnMin= -1028.40220572221     IErMin= 1 ErrMin= 4.35D-02
 ErrMax= 4.35D-02  0.00D+00 EMaxC= 1.00D-01 BMatC= 3.98D-01 BMatP= 3.98D-01
 IDIUse=3 WtCom= 5.65D-01 WtEn= 4.35D-01
 Coeff-Com:  0.100D+01
 Coeff-En:   0.100D+01
 Coeff:      0.100D+01
 Gap=     0.296 Goal=   None    Shift=    0.000
 GapD=    0.296 DampG=1.000 DampE=0.500 DampFc=0.5000 IDamp=-1.
 Damping current iteration by 5.00D-01
 RMSDP=3.74D-03 MaxDP=2.58D-01              OVMax= 2.25D-01

 Cycle   2  Pass 1  IDiag  1:
 RMSU=  1.87D-03    CP:  9.94D-01
 E= -1028.52750778691     Delta-E=       -0.125302064698 Rises=F Damp=T
 DIIS: error= 1.18D-02 at cycle   2 NSaved=   2.
 NSaved= 2 IEnMin= 2 EnMin= -1028.52750778691     IErMin= 2 ErrMin= 1.18D-02
 ErrMax= 1.18D-02  0.00D+00 EMaxC= 1.00D-01 BMatC= 5.83D-02 BMatP= 3.98D-01
 IDIUse=3 WtCom= 8.82D-01 WtEn= 1.18D-01
 Coeff-Com: -0.276D+00 0.128D+01
 Coeff-En:   0.000D+00 0.100D+01
 Coeff:     -0.244D+00 0.124D+01
 Gap=     0.364 Goal=   None    Shift=    0.000
 RMSDP=1.18D-03 MaxDP=3.32D-02 DE=-1.25D-01 OVMax= 1.58D-01

 Cycle   3  Pass 1  IDiag  1:
 RMSU=  1.15D-03    CP:  9.92D-01  1.15D+00
 E= -1028.64206476934     Delta-E=       -0.114556982434 Rises=F Damp=F
 DIIS: error= 6.45D-03 at cycle   3 NSaved=   3.
 NSaved= 3 IEnMin= 3 EnMin= -1028.64206476934     IErMin= 3 ErrMin= 6.45D-03
 ErrMax= 6.45D-03  0.00D+00 EMaxC= 1.00D-01 BMatC= 1.55D-02 BMatP= 5.83D-02
 IDIUse=3 WtCom= 9.36D-01 WtEn= 6.45D-02
 Coeff-Com: -0.200D+00 0.494D+00 0.706D+00
 Coeff-En:   0.000D+00 0.000D+00 0.100D+01
 Coeff:     -0.187D+00 0.462D+00 0.725D+00
 Gap=     0.229 Goal=   None    Shift=    0.000
 RMSDP=5.49D-04 MaxDP=2.47D-02 DE=-1.15D-01 OVMax= 5.11D-02

 Cycle   4  Pass 1  IDiag  1:
 RMSU=  4.34D-04    CP:  9.90D-01  1.30D+00  8.64D-01
 E= -1028.65766217287     Delta-E=       -0.015597403526 Rises=F Damp=F
 DIIS: error= 2.18D-03 at cycle   4 NSaved=   4.
 NSaved= 4 IEnMin= 4 EnMin= -1028.65766217287     IErMin= 4 ErrMin= 2.18D-03
 ErrMax= 2.18D-03  0.00D+00 EMaxC= 1.00D-01 BMatC= 1.86D-03 BMatP= 1.55D-02
 IDIUse=3 WtCom= 9.78D-01 WtEn= 2.18D-02
 Coeff-Com: -0.709D-01 0.140D+00 0.337D+00 0.594D+00
 Coeff-En:   0.000D+00 0.000D+00 0.000D+00 0.100D+01
 Coeff:     -0.694D-01 0.137D+00 0.330D+00 0.603D+00
 Gap=     0.233 Goal=   None    Shift=    0.000
 RMSDP=1.73D-04 MaxDP=9.49D-03 DE=-1.56D-02 OVMax= 1.36D-02

 Cycle   5  Pass 1  IDiag  1:
 RMSU=  1.17D-04    CP:  9.90D-01  1.31D+00  9.34D-01  7.80D-01
 E= -1028.65974547575     Delta-E=       -0.002083302876 Rises=F Damp=F
 DIIS: error= 6.84D-04 at cycle   5 NSaved=   5.
 NSaved= 5 IEnMin= 5 EnMin= -1028.65974547575     IErMin= 5 ErrMin= 6.84D-04
 ErrMax= 6.84D-04  0.00D+00 EMaxC= 1.00D-01 BMatC= 6.47D-05 BMatP= 1.86D-03
 IDIUse=3 WtCom= 9.93D-01 WtEn= 6.84D-03
 Coeff-Com:  0.180D-03-0.688D-02 0.206D-01 0.152D+00 0.834D+00
 Coeff-En:   0.000D+00 0.000D+00 0.000D+00 0.000D+00 0.100D+01
 Coeff:      0.179D-03-0.684D-02 0.204D-01 0.151D+00 0.835D+00
 Gap=     0.233 Goal=   None    Shift=    0.000
 RMSDP=6.44D-05 MaxDP=2.02D-03 DE=-2.08D-03 OVMax= 7.82D-03

 Cycle   6  Pass 1  IDiag  1:
 RMSU=  4.11D-05    CP:  9.90D-01  1.32D+00  9.53D-01  8.74D-01  1.14D+00
 E= -1028.65991079040     Delta-E=       -0.000165314658 Rises=F Damp=F
 DIIS: error= 2.37D-04 at cycle   6 NSaved=   6.
 NSaved= 6 IEnMin= 6 EnMin= -1028.65991079040     IErMin= 6 ErrMin= 2.37D-04
 ErrMax= 2.37D-04  0.00D+00 EMaxC= 1.00D-01 BMatC= 1.35D-05 BMatP= 6.47D-05
 IDIUse=3 WtCom= 9.98D-01 WtEn= 2.37D-03
 Coeff-Com:  0.178D-01-0.363D-01-0.707D-01-0.877D-01 0.233D+00 0.944D+00
 Coeff-En:   0.000D+00 0.000D+00 0.000D+00 0.000D+00 0.000D+00 0.100D+01
 Coeff:      0.177D-01-0.363D-01-0.706D-01-0.875D-01 0.233D+00 0.944D+00
 Gap=     0.235 Goal=   None    Shift=    0.000
 RMSDP=4.35D-05 MaxDP=1.94D-03 DE=-1.65D-04 OVMax= 4.56D-03

 Cycle   7  Pass 1  IDiag  1:
 RMSU=  2.06D-05    CP:  9.90D-01  1.32D+00  9.66D-01  9.12D-01  1.37D+00
                    CP:  1.36D+00
 E= -1028.65995914717     Delta-E=       -0.000048356764 Rises=F Damp=F
 DIIS: error= 1.13D-04 at cycle   7 NSaved=   7.
 NSaved= 7 IEnMin= 7 EnMin= -1028.65995914717     IErMin= 7 ErrMin= 1.13D-04
 ErrMax= 1.13D-04  0.00D+00 EMaxC= 1.00D-01 BMatC= 2.50D-06 BMatP= 1.35D-05
 IDIUse=3 WtCom= 9.99D-01 WtEn= 1.13D-03
 Coeff-Com:  0.692D-02-0.130D-01-0.284D-01-0.554D-01-0.101D-01 0.353D+00
 Coeff-Com:  0.747D+00
 Coeff-En:   0.000D+00 0.000D+00 0.000D+00 0.000D+00 0.000D+00 0.000D+00
 Coeff-En:   0.100D+01
 Coeff:      0.691D-02-0.130D-01-0.283D-01-0.553D-01-0.101D-01 0.352D+00
 Coeff:      0.748D+00
 Gap=     0.235 Goal=   None    Shift=    0.000
 RMSDP=1.43D-05 MaxDP=5.21D-04 DE=-4.84D-05 OVMax= 2.11D-03

 Cycle   8  Pass 1  IDiag  1:
 RMSU=  8.00D-06    CP:  9.90D-01  1.32D+00  9.68D-01  9.18D-01  1.42D+00
                    CP:  1.58D+00  1.17D+00
 E= -1028.65996631785     Delta-E=       -0.000007170684 Rises=F Damp=F
 DIIS: error= 4.24D-05 at cycle   8 NSaved=   8.
 NSaved= 8 IEnMin= 8 EnMin= -1028.65996631785     IErMin= 8 ErrMin= 4.24D-05
 ErrMax= 4.24D-05  0.00D+00 EMaxC= 1.00D-01 BMatC= 6.53D-07 BMatP= 2.50D-06
 IDIUse=1 WtCom= 1.00D+00 WtEn= 0.00D+00
 Coeff-Com: -0.189D-02 0.408D-02 0.861D-02 0.308D-02-0.418D-01-0.125D+00
 Coeff-Com:  0.260D+00 0.893D+00
 Coeff:     -0.189D-02 0.408D-02 0.861D-02 0.308D-02-0.418D-01-0.125D+00
 Coeff:      0.260D+00 0.893D+00
 Gap=     0.235 Goal=   None    Shift=    0.000
 RMSDP=8.92D-06 MaxDP=2.26D-04 DE=-7.17D-06 OVMax= 1.19D-03

 Cycle   9  Pass 1  IDiag  1:
 RMSU=  3.68D-06    CP:  9.90D-01  1.32D+00  9.68D-01  9.17D-01  1.44D+00
                    CP:  1.69D+00  1.45D+00  1.19D+00
 E= -1028.65996834343     Delta-E=       -0.000002025572 Rises=F Damp=F
 DIIS: error= 2.94D-05 at cycle   9 NSaved=   9.
 NSaved= 9 IEnMin= 9 EnMin= -1028.65996834343     IErMin= 9 ErrMin= 2.94D-05
 ErrMax= 2.94D-05  0.00D+00 EMaxC= 1.00D-01 BMatC= 1.07D-07 BMatP= 6.53D-07
 IDIUse=1 WtCom= 1.00D+00 WtEn= 0.00D+00
 Coeff-Com: -0.136D-02 0.267D-02 0.634D-02 0.748D-02-0.886D-02-0.103D+00
 Coeff-Com: -0.119D-01 0.289D+00 0.820D+00
 Coeff:     -0.136D-02 0.267D-02 0.634D-02 0.748D-02-0.886D-02-0.103D+00
 Coeff:     -0.119D-01 0.289D+00 0.820D+00
 Gap=     0.235 Goal=   None    Shift=    0.000
 RMSDP=3.85D-06 MaxDP=1.30D-04 DE=-2.03D-06 OVMax= 6.64D-04

 Cycle  10  Pass 1  IDiag  1:
 RMSU=  1.74D-06    CP:  9.90D-01  1.32D+00  9.68D-01  9.17D-01  1.45D+00
                    CP:  1.74D+00  1.55D+00  1.41D+00  1.14D+00
 E= -1028.65996875684     Delta-E=       -0.000000413414 Rises=F Damp=F
 DIIS: error= 9.88D-06 at cycle  10 NSaved=  10.
 NSaved=10 IEnMin=10 EnMin= -1028.65996875684     IErMin=10 ErrMin= 9.88D-06
 ErrMax= 9.88D-06  0.00D+00 EMaxC= 1.00D-01 BMatC= 4.14D-08 BMatP= 1.07D-07
 IDIUse=1 WtCom= 1.00D+00 WtEn= 0.00D+00
 Coeff-Com: -0.129D-05-0.789D-04 0.322D-03 0.169D-02 0.792D-02-0.143D-01
 Coeff-Com: -0.630D-01-0.142D+00 0.399D+00 0.810D+00
 Coeff:     -0.129D-05-0.789D-04 0.322D-03 0.169D-02 0.792D-02-0.143D-01
 Coeff:     -0.630D-01-0.142D+00 0.399D+00 0.810D+00
 Gap=     0.235 Goal=   None    Shift=    0.000
 RMSDP=2.34D-06 MaxDP=6.83D-05 DE=-4.13D-07 OVMax= 3.54D-04

 Cycle  11  Pass 1  IDiag  1:
 RMSU=  7.05D-07    CP:  9.90D-01  1.32D+00  9.68D-01  9.17D-01  1.45D+00
                    CP:  1.76D+00  1.61D+00  1.50D+00  1.51D+00  1.10D+00
 E= -1028.65996887275     Delta-E=       -0.000000115914 Rises=F Damp=F
 DIIS: error= 4.47D-06 at cycle  11 NSaved=  11.
 NSaved=11 IEnMin=11 EnMin= -1028.65996887275     IErMin=11 ErrMin= 4.47D-06
 ErrMax= 4.47D-06  0.00D+00 EMaxC= 1.00D-01 BMatC= 4.41D-09 BMatP= 4.14D-08
 IDIUse=1 WtCom= 1.00D+00 WtEn= 0.00D+00
 Coeff-Com:  0.295D-03-0.608D-03-0.112D-02-0.106D-02 0.579D-02 0.128D-01
 Coeff-Com: -0.160D-01-0.107D+00 0.228D-01 0.225D+00 0.860D+00
 Coeff:      0.295D-03-0.608D-03-0.112D-02-0.106D-02 0.579D-02 0.128D-01
 Coeff:     -0.160D-01-0.107D+00 0.228D-01 0.225D+00 0.860D+00
 Gap=     0.235 Goal=   None    Shift=    0.000
 RMSDP=7.57D-07 MaxDP=1.83D-05 DE=-1.16D-07 OVMax= 1.31D-04

 Cycle  12  Pass 1  IDiag  1:
 RMSU=  2.67D-07    CP:  9.90D-01  1.32D+00  9.68D-01  9.18D-01  1.45D+00
                    CP:  1.76D+00  1.62D+00  1.53D+00  1.62D+00  1.30D+00
                    CP:  1.18D+00
 E= -1028.65996888795     Delta-E=       -0.000000015199 Rises=F Damp=F
 DIIS: error= 1.58D-06 at cycle  12 NSaved=  12.
 NSaved=12 IEnMin=12 EnMin= -1028.65996888795     IErMin=12 ErrMin= 1.58D-06
 ErrMax= 1.58D-06  0.00D+00 EMaxC= 1.00D-01 BMatC= 9.62D-10 BMatP= 4.41D-09
 IDIUse=1 WtCom= 1.00D+00 WtEn= 0.00D+00
 Coeff-Com:  0.130D-03-0.252D-03-0.536D-03-0.927D-03 0.104D-02 0.795D-02
 Coeff-Com:  0.691D-02-0.189D-01-0.638D-01-0.955D-01 0.312D+00 0.852D+00
 Coeff:      0.130D-03-0.252D-03-0.536D-03-0.927D-03 0.104D-02 0.795D-02
 Coeff:      0.691D-02-0.189D-01-0.638D-01-0.955D-01 0.312D+00 0.852D+00
 Gap=     0.235 Goal=   None    Shift=    0.000
 RMSDP=3.87D-07 MaxDP=1.13D-05 DE=-1.52D-08 OVMax= 5.86D-05

 Cycle  13  Pass 1  IDiag  1:
 RMSU=  1.04D-07    CP:  9.90D-01  1.32D+00  9.68D-01  9.18D-01  1.46D+00
                    CP:  1.77D+00  1.63D+00  1.54D+00  1.69D+00  1.37D+00
                    CP:  1.43D+00  1.08D+00
 E= -1028.65996889081     Delta-E=       -0.000000002859 Rises=F Damp=F
 DIIS: error= 6.09D-07 at cycle  13 NSaved=  13.
 NSaved=13 IEnMin=13 EnMin= -1028.65996889081     IErMin=13 ErrMin= 6.09D-07
 ErrMax= 6.09D-07  0.00D+00 EMaxC= 1.00D-01 BMatC= 7.69D-11 BMatP= 9.62D-10
 IDIUse=1 WtCom= 1.00D+00 WtEn= 0.00D+00
 Coeff-Com: -0.105D-04 0.236D-04 0.447D-04-0.620D-04-0.212D-03 0.911D-04
 Coeff-Com:  0.308D-02 0.714D-02-0.980D-02-0.469D-01-0.493D-01 0.171D+00
 Coeff-Com:  0.925D+00
 Coeff:     -0.105D-04 0.236D-04 0.447D-04-0.620D-04-0.212D-03 0.911D-04
 Coeff:      0.308D-02 0.714D-02-0.980D-02-0.469D-01-0.493D-01 0.171D+00
 Coeff:      0.925D+00
 Gap=     0.235 Goal=   None    Shift=    0.000
 RMSDP=9.52D-08 MaxDP=2.16D-06 DE=-2.86D-09 OVMax= 1.18D-05

 Cycle  14  Pass 1  IDiag  1:
 RMSU=  3.83D-08    CP:  9.90D-01  1.32D+00  9.68D-01  9.18D-01  1.46D+00
                    CP:  1.77D+00  1.63D+00  1.54D+00  1.70D+00  1.39D+00
                    CP:  1.49D+00  1.24D+00  1.18D+00
 E= -1028.65996889105     Delta-E=       -0.000000000243 Rises=F Damp=F
 DIIS: error= 1.84D-07 at cycle  14 NSaved=  14.
 NSaved=14 IEnMin=14 EnMin= -1028.65996889105     IErMin=14 ErrMin= 1.84D-07
 ErrMax= 1.84D-07  0.00D+00 EMaxC= 1.00D-01 BMatC= 1.16D-11 BMatP= 7.69D-11
 IDIUse=1 WtCom= 1.00D+00 WtEn= 0.00D+00
 Coeff-Com: -0.152D-04 0.305D-04 0.653D-04 0.573D-04-0.169D-03-0.729D-03
 Coeff-Com:  0.457D-03 0.413D-02 0.318D-02-0.810D-02-0.468D-01-0.236D-01
 Coeff-Com:  0.351D+00 0.720D+00
 Coeff:     -0.152D-04 0.305D-04 0.653D-04 0.573D-04-0.169D-03-0.729D-03
 Coeff:      0.457D-03 0.413D-02 0.318D-02-0.810D-02-0.468D-01-0.236D-01
 Coeff:      0.351D+00 0.720D+00
 Gap=     0.235 Goal=   None    Shift=    0.000
 RMSDP=2.40D-08 MaxDP=6.41D-07 DE=-2.43D-10 OVMax= 2.86D-06

 Cycle  15  Pass 1  IDiag  1:
 RMSU=  1.27D-08    CP:  9.90D-01  1.32D+00  9.68D-01  9.18D-01  1.46D+00
                    CP:  1.77D+00  1.63D+00  1.54D+00  1.70D+00  1.39D+00
                    CP:  1.50D+00  1.26D+00  1.31D+00  1.10D+00
 E= -1028.65996889107     Delta-E=       -0.000000000020 Rises=F Damp=F
 DIIS: error= 7.36D-08 at cycle  15 NSaved=  15.
 NSaved=15 IEnMin=15 EnMin= -1028.65996889107     IErMin=15 ErrMin= 7.36D-08
 ErrMax= 7.36D-08  0.00D+00 EMaxC= 1.00D-01 BMatC= 1.40D-12 BMatP= 1.16D-11
 IDIUse=1 WtCom= 1.00D+00 WtEn= 0.00D+00
 Coeff-Com: -0.218D-05 0.386D-05 0.111D-04 0.316D-04-0.125D-04-0.278D-03
 Coeff-Com: -0.531D-03-0.282D-03 0.346D-02 0.810D-02-0.247D-02-0.498D-01
 Coeff-Com: -0.889D-01 0.165D+00 0.966D+00
 Coeff:     -0.218D-05 0.386D-05 0.111D-04 0.316D-04-0.125D-04-0.278D-03
 Coeff:     -0.531D-03-0.282D-03 0.346D-02 0.810D-02-0.247D-02-0.498D-01
 Coeff:     -0.889D-01 0.165D+00 0.966D+00
 Gap=     0.235 Goal=   None    Shift=    0.000
 RMSDP=1.35D-08 MaxDP=3.42D-07 DE=-2.00D-11 OVMax= 1.60D-06

 Cycle  16  Pass 1  IDiag  1:
 RMSU=  5.58D-09    CP:  9.90D-01  1.32D+00  9.68D-01  9.18D-01  1.46D+00
                    CP:  1.77D+00  1.63D+00  1.54D+00  1.70D+00  1.39D+00
                    CP:  1.50D+00  1.28D+00  1.38D+00  1.29D+00  1.22D+00
 E= -1028.65996889107     Delta-E=        0.000000000003 Rises=F Damp=F
 DIIS: error= 2.75D-08 at cycle  16 NSaved=  16.
 NSaved=16 IEnMin=15 EnMin= -1028.65996889107     IErMin=16 ErrMin= 2.75D-08
 ErrMax= 2.75D-08  0.00D+00 EMaxC= 1.00D-01 BMatC= 1.68D-13 BMatP= 1.40D-12
 IDIUse=1 WtCom= 1.00D+00 WtEn= 0.00D+00
 Coeff-Com:  0.639D-06-0.141D-05-0.195D-05 0.379D-05 0.710D-05-0.180D-04
 Coeff-Com: -0.184D-03-0.413D-03 0.561D-03 0.258D-02 0.342D-02-0.114D-01
 Coeff-Com: -0.491D-01-0.288D-01 0.263D+00 0.821D+00
 Coeff:      0.639D-06-0.141D-05-0.195D-05 0.379D-05 0.710D-05-0.180D-04
 Coeff:     -0.184D-03-0.413D-03 0.561D-03 0.258D-02 0.342D-02-0.114D-01
 Coeff:     -0.491D-01-0.288D-01 0.263D+00 0.821D+00
 Gap=     0.235 Goal=   None    Shift=    0.000
 RMSDP=3.97D-09 MaxDP=1.25D-07 DE= 2.96D-12 OVMax= 5.47D-07

 Error on total polarization charges =  0.00875
 SCF Done:  E(RwB97XD) =  -1028.65996889     A.U. after   16 cycles
            NFock= 16  Conv=0.40D-08     -V/T= 2.0042
 KE= 1.024367654762D+03 PE=-4.605263828439D+03 EE= 1.455563744969D+03
 Leave Link  502 at Tue Jul 14 10:33:22 2020, MaxMem=  7784628224 cpu:             880.0 elap:              88.7
 (Enter /gpfs/loomis/apps/avx/software/Gaussian/16-C.01_AVX/g16/l801.exe)
 DoSCS=F DFT=T ScalE2(SS,OS)=  1.000000  1.000000
 ExpMin= 1.22D-01 ExpMax= 1.11D+05 ExpMxC= 1.07D+03 IAcc=3 IRadAn=         5 AccDes= 0.00D+00
 HarFok:  IExCor=  205 AccDes= 0.00D+00 IRadAn=         5 IDoV=-2 UseB2=F ITyADJ=14
 ICtDFT= 12500011 ScaDFX=  1.000000  1.000000  1.000000  1.000000
 Largest valence mixing into a core orbital is  9.60D-05
 Largest core mixing into a valence orbital is  3.05D-05
 Range of M.O.s used for correlation:    21   273
 NBasis=   273 NAE=    59 NBE=    59 NFC=    20 NFV=     0
 NROrb=    253 NOA=    39 NOB=    39 NVA=   214 NVB=   214
 Leave Link  801 at Tue Jul 14 10:33:22 2020, MaxMem=  7784628224 cpu:               2.3 elap:               0.3
 (Enter /gpfs/loomis/apps/avx/software/Gaussian/16-C.01_AVX/g16/l914.exe)
 RHF ground state
 Keep R1, R2, and R3 ints in memory in canonical form, NReq=4262515490.
 FoFCou: FMM=F IPFlag=           0 FMFlag=           0 FMFlg1=           0
         NFxFlg=           0 DoJE=F BraDBF=F KetDBF=F FulRan=T
         wScrn=  0.000000 ICntrl=       600 IOpCl=  0 I1Cent=           0 NGrid=           0
         NMat0=    1 NMatS0=  37401 NMatT0=    0 NMatD0=    1 NMtDS0=    0 NMtDT0=    0
 Symmetry not used in FoFCou.
 Two-electron integral symmetry not used.
 MDV=  7784628224 DFT=T DoStab=F Mixed=T DoRPA=T DoScal=F NonHer=T
 NEqPCM:  Using equilibrium solvation (IEInf=0, Eps=   2.2280, EpsInf=   2.1319)
 Making orbital integer symmetry assigments:
    12 initial guesses have been made.
 Convergence on wavefunction:    0.000001000000000
 Davidson Disk Diagonalization:  ConvIn= 1.00D-06 SkipCon=T Conv= 1.00D-06.
 Max sub-space:  2000 roots to seek:    12 dimension of matrix:        16692
 Iteration     1 Dimension    12 NMult     0 NNew     12
 CISAX will form    12 AO SS matrices at one time.
 NMat=    12 NSing=    12 JSym2X= 0.
 New state      2 was old state      3
 New state      3 was old state      4
 Excitation Energies [eV] at current iteration:
 Root      1 :     3.393791104292756
 Root      2 :     3.647268156575610
 Root      3 :     4.832496362659836
 Root      4 :     5.083949504742300
 Root      5 :     5.118875049686623
 Root      6 :     5.677132109404398
 Root      7 :     5.848107792892515
 Root      8 :     6.257156057506142
 Root      9 :     6.443831859112078
 Root     10 :     6.624082155587373
 Root     11 :     6.926364506276531
 Root     12 :     7.161065832549278
 Iteration     2 Dimension    18 NMult    12 NNew      6
 CISAX will form     6 AO SS matrices at one time.
 NMat=     6 NSing=     6 JSym2X= 0.
 Root      1 not converged, maximum delta is    0.044209412214337
 Root      2 not converged, maximum delta is    0.109903017434709
 Root      3 not converged, maximum delta is    0.081258640770079
 Excitation Energies [eV] at current iteration:
 Root      1 :     2.872515997139325   Change is   -0.521275107153431
 Root      2 :     3.433874788075246   Change is   -0.213393368500364
 Root      3 :     4.393279435491590   Change is   -0.439216927168247
 Iteration     3 Dimension    24 NMult    18 NNew      6
 CISAX will form     6 AO SS matrices at one time.
 NMat=     6 NSing=     6 JSym2X= 0.
 Root      1 not converged, maximum delta is    0.016577086110206
 Root      2 not converged, maximum delta is    0.028295252401762
 Root      3 not converged, maximum delta is    0.029419672890858
 Excitation Energies [eV] at current iteration:
 Root      1 :     2.842458981686214   Change is   -0.030057015453111
 Root      2 :     3.412906350761726   Change is   -0.020968437313520
 Root      3 :     4.363583659878521   Change is   -0.029695775613069
 Iteration     4 Dimension    30 NMult    24 NNew      6
 CISAX will form     6 AO SS matrices at one time.
 NMat=     6 NSing=     6 JSym2X= 0.
 Root      1 not converged, maximum delta is    0.008653693486701
 Root      2 not converged, maximum delta is    0.009154700611815
 Root      3 not converged, maximum delta is    0.015759931139221
 Excitation Energies [eV] at current iteration:
 Root      1 :     2.837805431877419   Change is   -0.004653549808795
 Root      2 :     3.411001261160134   Change is   -0.001905089601592
 Root      3 :     4.357649198529036   Change is   -0.005934461349485
 Iteration     5 Dimension    36 NMult    30 NNew      6
 CISAX will form     6 AO SS matrices at one time.
 NMat=     6 NSing=     6 JSym2X= 0.
 Root      1 not converged, maximum delta is    0.001813677573556
 Root      2 not converged, maximum delta is    0.001320788326048
 Root      3 not converged, maximum delta is    0.008777810121390
 Excitation Energies [eV] at current iteration:
 Root      1 :     2.837178794176141   Change is   -0.000626637701278
 Root      2 :     3.410894329614606   Change is   -0.000106931545528
 Root      3 :     4.356286458145698   Change is   -0.001362740383337
 Iteration     6 Dimension    42 NMult    36 NNew      6
 CISAX will form     6 AO SS matrices at one time.
 NMat=     6 NSing=     6 JSym2X= 0.
 Root      1 not converged, maximum delta is    0.000363947230893
 Root      2 not converged, maximum delta is    0.000298196590738
 Root      3 not converged, maximum delta is    0.002178091735314
 Excitation Energies [eV] at current iteration:
 Root      1 :     2.837134535200294   Change is   -0.000044258975847
 Root      2 :     3.410889249381073   Change is   -0.000005080233533
 Root      3 :     4.356103567528109   Change is   -0.000182890617589
 Iteration     7 Dimension    48 NMult    42 NNew      6
 CISAX will form     6 AO SS matrices at one time.
 NMat=     6 NSing=     6 JSym2X= 0.
 Root      1 not converged, maximum delta is    0.000104452652760
 Root      2 not converged, maximum delta is    0.000119556094168
 Root      3 not converged, maximum delta is    0.000596867659955
 Excitation Energies [eV] at current iteration:
 Root      1 :     2.837131131458195   Change is   -0.000003403742099
 Root      2 :     3.410888808413179   Change is   -0.000000440967893
 Root      3 :     4.356081543468395   Change is   -0.000022024059714
 Iteration     8 Dimension    54 NMult    48 NNew      6
 CISAX will form     6 AO SS matrices at one time.
 NMat=     6 NSing=     6 JSym2X= 0.
 Root      1 not converged, maximum delta is    0.000027416420238
 Root      2 not converged, maximum delta is    0.000013827413152
 Root      3 not converged, maximum delta is    0.000262931253946
 Excitation Energies [eV] at current iteration:
 Root      1 :     2.837130986535561   Change is   -0.000000144922634
 Root      2 :     3.410888787983692   Change is   -0.000000020429487
 Root      3 :     4.356079022404412   Change is   -0.000002521063983
 Iteration     9 Dimension    60 NMult    54 NNew      6
 CISAX will form     6 AO SS matrices at one time.
 NMat=     6 NSing=     6 JSym2X= 0.
 Root      1 not converged, maximum delta is    0.000009766706336
 Root      2 not converged, maximum delta is    0.000002503042243
 Root      3 not converged, maximum delta is    0.000075531098775
 Excitation Energies [eV] at current iteration:
 Root      1 :     2.837130974336175   Change is   -0.000000012199386
 Root      2 :     3.410888787102566   Change is   -0.000000000881126
 Root      3 :     4.356078751925542   Change is   -0.000000270478871
 Iteration    10 Dimension    66 NMult    60 NNew      6
 CISAX will form     6 AO SS matrices at one time.
 NMat=     6 NSing=     6 JSym2X= 0.
 Root      1 not converged, maximum delta is    0.000002225650517
 Root      2 not converged, maximum delta is    0.000001470968475
 Root      3 not converged, maximum delta is    0.000034203345017
 Excitation Energies [eV] at current iteration:
 Root      1 :     2.837130973613292   Change is   -0.000000000722883
 Root      2 :     3.410888787033708   Change is   -0.000000000068859
 Root      3 :     4.356078706880449   Change is   -0.000000045045093
 Iteration    11 Dimension    72 NMult    66 NNew      6
 CISAX will form     6 AO SS matrices at one time.
 NMat=     6 NSing=     6 JSym2X= 0.
 Root      1 has converged.
 Root      2 has converged.
 Root      3 not converged, maximum delta is    0.000008412290767
 Excitation Energies [eV] at current iteration:
 Root      1 :     2.837130973571336   Change is   -0.000000000041957
 Root      2 :     3.410888787024935   Change is   -0.000000000008772
 Root      3 :     4.356078702187118   Change is   -0.000000004693330
 Iteration    12 Dimension    74 NMult    72 NNew      2
 CISAX will form     2 AO SS matrices at one time.
 NMat=     2 NSing=     2 JSym2X= 0.
 Root      1 has converged.
 Root      2 has converged.
 Root      3 not converged, maximum delta is    0.000002135624166
 Excitation Energies [eV] at current iteration:
 Root      1 :     2.837130973570408   Change is   -0.000000000000927
 Root      2 :     3.410888787024863   Change is   -0.000000000000073
 Root      3 :     4.356078701772276   Change is   -0.000000000414843
 Iteration    13 Dimension    76 NMult    74 NNew      2
 CISAX will form     2 AO SS matrices at one time.
 NMat=     2 NSing=     2 JSym2X= 0.
 Root      1 has converged.
 Root      2 has converged.
 Root      3 has converged.
 Excitation Energies [eV] at current iteration:
 Root      1 :     2.837130973570380   Change is   -0.000000000000029
 Root      2 :     3.410888787024935   Change is    0.000000000000073
 Root      3 :     4.356078701735193   Change is   -0.000000000037083
 Convergence achieved on expansion vectors.
 ***********************************************************************
 Excited states from <AA,BB:AA,BB> singles matrix:
 ***********************************************************************
 
 1PDM for each excited state written to RWF  633
 Ground to excited state transition densities written to RWF  633
 Ground to excited state transition electric dipole moments (Au):
       state          X           Y           Z        Dip. S.      Osc.
         1         1.1297     -2.2810     -0.0000      6.4790      0.4503
         2        -0.0000      0.0001     -0.0058      0.0000      0.0000
         3        -1.7129      1.0748      0.0000      4.0892      0.4364
 Ground to excited state transition velocity dipole moments (Au):
       state          X           Y           Z        Dip. S.      Osc.
         1        -0.1129      0.2399      0.0000      0.0703      0.4496
         2         0.0000     -0.0000      0.0004      0.0000      0.0000
         3         0.2690     -0.1612     -0.0000      0.0983      0.4095
 Ground to excited state transition magnetic dipole moments (Au):
       state          X           Y           Z
         1         0.0000      0.0000     -1.2291
         2         0.4215     -0.0247      0.0000
         3        -0.0000      0.0000     -0.8322
 Ground to excited state transition velocity quadrupole moments (Au):
       state          XX          YY          ZZ          XY          XZ          YZ
         1        -0.0287      0.6432     -0.0111     -0.2613     -0.0000      0.0000
         2         0.0000     -0.0000      0.0000      0.0000     -0.0047      0.0203
         3        -0.3881      0.4166      0.0021      0.1143     -0.0000      0.0000
 <0|del|b> * <b|rxdel|0> + <0|del|b> * <b|delr+rdel|0>
 Rotatory Strengths (R) in cgs (10**-40 erg-esu-cm/Gauss)
       state          XX          YY          ZZ    R(velocity)    E-M Angle
         1         0.0173     -0.0248      0.0231      0.0052       90.00
         2         0.0005      0.0046      0.0049      0.0034       90.00
         3        -0.0035      0.0015     -0.0071     -0.0030       90.00
 1/2[<0|r|b>*<b|rxdel|0> + (<0|rxdel|b>*<b|r|0>)*]
 Rotatory Strengths (R) in cgs (10**-40 erg-esu-cm/Gauss)
       state          XX          YY          ZZ     R(length)
         1        -0.0141      0.0608     -0.0311      0.0052
         2         0.0088      0.0012      0.0001      0.0034
         3        -0.0037     -0.0085      0.0032     -0.0030
  1/2[<0|del|b>*<b|r|0> + (<0|r|b>*<b|del|0>)*] (Au)
       state          X           Y           Z        Dip. S.   Osc.(frdel)
         1        -0.1276     -0.5472     -0.0000      0.6748      0.4499
         2        -0.0000     -0.0000     -0.0000      0.0000      0.0000
         3        -0.4607     -0.1732     -0.0000      0.6339      0.4226

 Excitation energies and oscillator strengths:
 
 Excited state symmetry could not be determined.
 Excited State   1:      Singlet-?Sym    2.8371 eV  437.01 nm  f=0.4503  <S**2>=0.000
      59 -> 60         0.69935
 This state for optimization and/or second-order correction.
 Total Energy, E(TD-HF/TD-DFT) =  -1028.55570625    
 Copying the excited state density for this state as the 1-particle RhoCI density.
 
 Excited state symmetry could not be determined.
 Excited State   2:      Singlet-?Sym    3.4109 eV  363.50 nm  f=0.0000  <S**2>=0.000
      58 -> 60         0.68371
      58 -> 63         0.11439
      58 -> 64         0.11070
 
 Excited state symmetry could not be determined.
 Excited State   3:      Singlet-?Sym    4.3561 eV  284.62 nm  f=0.4364  <S**2>=0.000
      57 -> 60         0.68314
 SavETr:  write IOETrn=   770 NScale= 10 NData=  16 NLR=1 NState=    3 LETran=      64.
 The selected state is a singlet.
 CISGrd: IGrad=2 NXY=2 DFT=T
 CISAX will form     1 AO SS matrices at one time.
 NMat=     1 NSing=     1 JSym2X= 0.
 GePol: Maximum number of non-zero 1st derivatives   =     271
 Leave Link  914 at Tue Jul 14 10:36:22 2020, MaxMem=  7784628224 cpu:            1773.0 elap:             180.0
 (Enter /gpfs/loomis/apps/avx/software/Gaussian/16-C.01_AVX/g16/l1002.exe)
 Minotr:  Closed shell wavefunction.
          Computing CIS/TDA/TD derivatives.
          Using Z-Vector for PSCF gradient.
          Skipping F1 and S1 gradient terms here.
          IDoAtm=1111111111111111111111111
 NEqPCM:  Using equilibrium solvation (IEInf=0, Eps=   2.2280, EpsInf=   2.1319)
          Frozen-core window.
          Direct CPHF calculation.
          Differentiating once with respect to electric field.
                with respect to dipole field.
          Differentiating once with respect to nuclear coordinates.
          Requested convergence is 1.0D-10 RMS, and 1.0D-09 maximum.
          NewPWx=F KeepS1=T KeepF1=T KeepIn=T MapXYZ=F SortEE=F KeepMc=T.
 Keep R1 ints in memory in canonical form, NReq=1421554997.
 FoFCou: FMM=F IPFlag=           0 FMFlag=           0 FMFlg1=           0
         NFxFlg=           0 DoJE=F BraDBF=F KetDBF=F FulRan=T
         wScrn=  0.000000 ICntrl=       600 IOpCl=  0 I1Cent=           0 NGrid=           0
         NMat0=    1 NMatS0=  37401 NMatT0=    0 NMatD0=    1 NMtDS0=    0 NMtDT0=    0
 Symmetry not used in FoFCou.
 Two-electron integral symmetry not used.
          MDV=    7784628224 using IRadAn=       5.
          Solving linear equations separately, MaxMat=       0.
          There are     1 degrees of freedom in the 1st order CPHF.  IDoFFX=0 NUNeed=     1.
 LinEq1:  Iter=  0 NonCon=     1 RMS=6.89D-03 Max=5.60D-01 NDo=     1
 AX will form     1 AO Fock derivatives at one time.
 LinEq1:  Iter=  1 NonCon=     1 RMS=3.18D-03 Max=1.75D-01 NDo=     1
 LinEq1:  Iter=  2 NonCon=     1 RMS=1.62D-03 Max=4.23D-02 NDo=     1
 LinEq1:  Iter=  3 NonCon=     1 RMS=7.61D-04 Max=2.11D-02 NDo=     1
 LinEq1:  Iter=  4 NonCon=     1 RMS=4.64D-04 Max=1.41D-02 NDo=     1
 LinEq1:  Iter=  5 NonCon=     1 RMS=2.25D-04 Max=7.97D-03 NDo=     1
 LinEq1:  Iter=  6 NonCon=     1 RMS=9.18D-05 Max=4.47D-03 NDo=     1
 LinEq1:  Iter=  7 NonCon=     1 RMS=4.86D-05 Max=1.68D-03 NDo=     1
 LinEq1:  Iter=  8 NonCon=     1 RMS=1.87D-05 Max=6.08D-04 NDo=     1
 LinEq1:  Iter=  9 NonCon=     1 RMS=8.56D-06 Max=2.01D-04 NDo=     1
 LinEq1:  Iter= 10 NonCon=     1 RMS=3.33D-06 Max=9.19D-05 NDo=     1
 LinEq1:  Iter= 11 NonCon=     1 RMS=1.66D-06 Max=5.93D-05 NDo=     1
 LinEq1:  Iter= 12 NonCon=     1 RMS=7.58D-07 Max=2.22D-05 NDo=     1
 LinEq1:  Iter= 13 NonCon=     1 RMS=3.75D-07 Max=1.21D-05 NDo=     1
 LinEq1:  Iter= 14 NonCon=     1 RMS=1.22D-07 Max=2.76D-06 NDo=     1
 LinEq1:  Iter= 15 NonCon=     1 RMS=6.40D-08 Max=1.77D-06 NDo=     1
 LinEq1:  Iter= 16 NonCon=     1 RMS=2.70D-08 Max=7.16D-07 NDo=     1
 LinEq1:  Iter= 17 NonCon=     1 RMS=1.34D-08 Max=4.18D-07 NDo=     1
 LinEq1:  Iter= 18 NonCon=     1 RMS=5.67D-09 Max=1.38D-07 NDo=     1
 LinEq1:  Iter= 19 NonCon=     1 RMS=2.27D-09 Max=6.08D-08 NDo=     1
 LinEq1:  Iter= 20 NonCon=     1 RMS=1.16D-09 Max=2.87D-08 NDo=     1
 LinEq1:  Iter= 21 NonCon=     1 RMS=3.81D-10 Max=1.16D-08 NDo=     1
 LinEq1:  Iter= 22 NonCon=     1 RMS=1.73D-10 Max=5.07D-09 NDo=     1
 LinEq1:  Iter= 23 NonCon=     1 RMS=7.29D-11 Max=2.04D-09 NDo=     1
 LinEq1:  Iter= 24 NonCon=     0 RMS=1.95D-11 Max=4.40D-10 NDo=     1
 Linear equations converged to 1.000D-10 1.000D-09 after    24 iterations.
 End of Minotr F.D. properties file   721 does not exist.
 End of Minotr F.D. properties file   722 does not exist.
 End of Minotr F.D. properties file   788 does not exist.
 Leave Link 1002 at Tue Jul 14 10:38:03 2020, MaxMem=  7784628224 cpu:             750.4 elap:             100.5
 (Enter /gpfs/loomis/apps/avx/software/Gaussian/16-C.01_AVX/g16/l601.exe)
 Copying SCF densities to generalized density rwf, IOpCl= 0 IROHF=0.

 **********************************************************************

            Population analysis using the SCF Density.

 **********************************************************************

 Alpha  occ. eigenvalues --  -89.11240 -19.20574 -14.50367 -10.42456 -10.37399
 Alpha  occ. eigenvalues --  -10.36734 -10.35737 -10.33807 -10.33022 -10.32770
 Alpha  occ. eigenvalues --  -10.32609 -10.31488 -10.31293 -10.30602 -10.29240
 Alpha  occ. eigenvalues --  -10.28214  -8.13108  -6.08009  -6.07630  -6.07105
 Alpha  occ. eigenvalues --   -1.15601  -1.09436  -0.99013  -0.95929  -0.93432
 Alpha  occ. eigenvalues --   -0.89115  -0.87028  -0.83989  -0.81043  -0.78195
 Alpha  occ. eigenvalues --   -0.75797  -0.72091  -0.69602  -0.67441  -0.65410
 Alpha  occ. eigenvalues --   -0.60736  -0.59739  -0.56787  -0.56315  -0.56161
 Alpha  occ. eigenvalues --   -0.54932  -0.53480  -0.53139  -0.50746  -0.49465
 Alpha  occ. eigenvalues --   -0.48685  -0.48418  -0.46906  -0.45477  -0.44867
 Alpha  occ. eigenvalues --   -0.44324  -0.42824  -0.42407  -0.40074  -0.36808
 Alpha  occ. eigenvalues --   -0.33876  -0.31658  -0.31176  -0.25594
 Alpha virt. eigenvalues --   -0.02110   0.03422   0.05590   0.05606   0.09484
 Alpha virt. eigenvalues --    0.10401   0.12070   0.14478   0.16160   0.17359
 Alpha virt. eigenvalues --    0.19063   0.20076   0.21044   0.21144   0.22900
 Alpha virt. eigenvalues --    0.23525   0.23899   0.25463   0.28601   0.30083
 Alpha virt. eigenvalues --    0.30502   0.33439   0.35529   0.35791   0.36588
 Alpha virt. eigenvalues --    0.38419   0.38713   0.39954   0.42087   0.44850
 Alpha virt. eigenvalues --    0.46604   0.49094   0.49936   0.51008   0.51168
 Alpha virt. eigenvalues --    0.52572   0.52774   0.53054   0.53596   0.55516
 Alpha virt. eigenvalues --    0.56071   0.56224   0.56344   0.56852   0.57341
 Alpha virt. eigenvalues --    0.57655   0.59159   0.59448   0.59649   0.60375
 Alpha virt. eigenvalues --    0.61312   0.61732   0.62092   0.62133   0.64149
 Alpha virt. eigenvalues --    0.64404   0.66619   0.67143   0.68592   0.69490
 Alpha virt. eigenvalues --    0.69867   0.70332   0.71788   0.71924   0.72649
 Alpha virt. eigenvalues --    0.74152   0.74981   0.75696   0.76265   0.78790
 Alpha virt. eigenvalues --    0.79081   0.79239   0.80872   0.82127   0.82676
 Alpha virt. eigenvalues --    0.85651   0.87190   0.90920   0.91169   0.92060
 Alpha virt. eigenvalues --    0.93245   0.94512   0.96162   0.96912   0.97210
 Alpha virt. eigenvalues --    0.99356   0.99576   1.00322   1.00339   1.00930
 Alpha virt. eigenvalues --    1.02347   1.04761   1.05408   1.06325   1.07051
 Alpha virt. eigenvalues --    1.08146   1.08504   1.10170   1.10680   1.11313
 Alpha virt. eigenvalues --    1.11502   1.12702   1.13729   1.14293   1.16367
 Alpha virt. eigenvalues --    1.17277   1.17871   1.20276   1.23916   1.24119
 Alpha virt. eigenvalues --    1.26069   1.27835   1.30981   1.31407   1.33812
 Alpha virt. eigenvalues --    1.34678   1.35470   1.38588   1.41404   1.44165
 Alpha virt. eigenvalues --    1.49193   1.49316   1.52909   1.54605   1.54806
 Alpha virt. eigenvalues --    1.55854   1.57001   1.57312   1.57358   1.59540
 Alpha virt. eigenvalues --    1.59927   1.62015   1.63101   1.64379   1.67536
 Alpha virt. eigenvalues --    1.68015   1.69758   1.69995   1.71376   1.71767
 Alpha virt. eigenvalues --    1.72083   1.72950   1.73701   1.74919   1.76111
 Alpha virt. eigenvalues --    1.77356   1.78730   1.79954   1.81258   1.82080
 Alpha virt. eigenvalues --    1.83329   1.83914   1.84633   1.85344   1.85848
 Alpha virt. eigenvalues --    1.86852   1.89855   1.90686   1.91464   1.92176
 Alpha virt. eigenvalues --    1.92686   1.93877   1.94968   1.96646   1.98184
 Alpha virt. eigenvalues --    2.00074   2.01129   2.02212   2.04790   2.06203
 Alpha virt. eigenvalues --    2.06691   2.07507   2.09340   2.09782   2.12742
 Alpha virt. eigenvalues --    2.17777   2.21873   2.22472   2.23724   2.26939
 Alpha virt. eigenvalues --    2.27931   2.30150   2.34524   2.37475   2.40196
 Alpha virt. eigenvalues --    2.40339   2.43312   2.46066   2.48338   2.49980
 Alpha virt. eigenvalues --    2.51991   2.52526   2.61021   2.63427   2.63551
 Alpha virt. eigenvalues --    2.69066   2.71256   2.73199   2.78445   2.80062
 Alpha virt. eigenvalues --    2.80455   2.81935   2.82800   2.87780   2.92785
 Alpha virt. eigenvalues --    2.94178   3.03106   3.17340   3.34015   3.47937
 Alpha virt. eigenvalues --    3.52654   3.56807   3.68252   4.27898
          Condensed to atoms (all electrons):
               1          2          3          4          5          6
     1  C    4.740681   0.472050   0.010407  -0.049202  -0.012410   0.514088
     2  C    0.472050   5.413645   0.274125  -0.077762  -0.066941  -0.007396
     3  C    0.010407   0.274125   4.865713   0.515242  -0.006170  -0.066508
     4  C   -0.049202  -0.077762   0.515242   4.824561   0.518377  -0.019601
     5  C   -0.012410  -0.066941  -0.006170   0.518377   4.718355   0.502056
     6  C    0.514088  -0.007396  -0.066508  -0.019601   0.502056   4.738548
     7  H    0.405106  -0.042158   0.008742  -0.000436   0.007925  -0.036574
     8  H   -0.000556   0.010019  -0.021699   0.393339  -0.039752   0.007045
     9  H    0.008091  -0.000137   0.007876  -0.038388   0.405522  -0.042372
    10  H   -0.042174   0.009542  -0.000685   0.008838  -0.042750   0.407374
    11  N    0.003938  -0.047684   0.442600  -0.045683   0.002972   0.000370
    12  S   -0.060079   0.339739  -0.135674   0.002348   0.000174   0.003675
    13  C   -0.000176   0.000967   0.012930  -0.000207   0.000015  -0.000003
    14  C   -0.000003  -0.000028   0.000241   0.000008  -0.000000  -0.000000
    15  C    0.000001  -0.000180   0.001197  -0.000004  -0.000001   0.000000
    16  C    0.000000  -0.000001   0.000004   0.000000   0.000000   0.000000
    17  H   -0.000001   0.000036  -0.000008  -0.000000   0.000000  -0.000000
    18  C    0.000000   0.000011  -0.000053  -0.000003  -0.000000   0.000000
    19  C   -0.000000  -0.000000   0.000003  -0.000000   0.000000   0.000000
    20  H   -0.000000  -0.000000  -0.000000   0.000000  -0.000000  -0.000000
    21  H   -0.000000   0.000000  -0.000001  -0.000000  -0.000000  -0.000000
    22  H    0.000000  -0.000000  -0.000000  -0.000000  -0.000000  -0.000000
    23  C    0.003584  -0.057227  -0.092591   0.008242   0.000314  -0.000354
    24  O    0.000002  -0.000256  -0.002248   0.000192  -0.000001  -0.000000
    25  H    0.000171   0.020670   0.006275  -0.031899  -0.000732  -0.000012
               7          8          9         10         11         12
     1  C    0.405106  -0.000556   0.008091  -0.042174   0.003938  -0.060079
     2  C   -0.042158   0.010019  -0.000137   0.009542  -0.047684   0.339739
     3  C    0.008742  -0.021699   0.007876  -0.000685   0.442600  -0.135674
     4  C   -0.000436   0.393339  -0.038388   0.008838  -0.045683   0.002348
     5  C    0.007925  -0.039752   0.405522  -0.042750   0.002972   0.000174
     6  C   -0.036574   0.007045  -0.042372   0.407374   0.000370   0.003675
     7  H    0.644662   0.000027  -0.000129  -0.011757  -0.000110  -0.005886
     8  H    0.000027   0.630678  -0.010759  -0.000123  -0.006839  -0.000255
     9  H   -0.000129  -0.010759   0.652000  -0.011959  -0.000099   0.000022
    10  H   -0.011757  -0.000123  -0.011959   0.654754   0.000004  -0.000112
    11  N   -0.000110  -0.006839  -0.000099   0.000004   5.663413  -0.040163
    12  S   -0.005886  -0.000255   0.000022  -0.000112  -0.040163  15.430207
    13  C    0.000006   0.000084  -0.000000  -0.000000  -0.030378  -0.062926
    14  C    0.000000   0.000001   0.000000  -0.000000   0.003188  -0.003696
    15  C   -0.000000  -0.000018   0.000000   0.000000  -0.001898   0.003108
    16  C   -0.000000  -0.000000  -0.000000  -0.000000  -0.000089  -0.000060
    17  H    0.000000   0.000000  -0.000000  -0.000000   0.000249   0.004326
    18  C   -0.000000  -0.000001  -0.000000  -0.000000  -0.000732  -0.000049
    19  C    0.000000   0.000000   0.000000   0.000000   0.000037   0.000010
    20  H    0.000000  -0.000000   0.000000   0.000000   0.000001  -0.000001
    21  H   -0.000000   0.000000  -0.000000   0.000000   0.000004   0.000003
    22  H    0.000000  -0.000000  -0.000000  -0.000000  -0.000000  -0.000000
    23  C    0.000128  -0.000626   0.000006   0.000003   0.489870   0.302002
    24  O    0.000000  -0.000217  -0.000000  -0.000000  -0.025378  -0.000155
    25  H    0.000009   0.001247  -0.000027   0.000000   0.365851   0.007473
              13         14         15         16         17         18
     1  C   -0.000176  -0.000003   0.000001   0.000000  -0.000001   0.000000
     2  C    0.000967  -0.000028  -0.000180  -0.000001   0.000036   0.000011
     3  C    0.012930   0.000241   0.001197   0.000004  -0.000008  -0.000053
     4  C   -0.000207   0.000008  -0.000004   0.000000  -0.000000  -0.000003
     5  C    0.000015  -0.000000  -0.000001   0.000000   0.000000  -0.000000
     6  C   -0.000003  -0.000000   0.000000   0.000000  -0.000000   0.000000
     7  H    0.000006   0.000000  -0.000000  -0.000000   0.000000  -0.000000
     8  H    0.000084   0.000001  -0.000018  -0.000000   0.000000  -0.000001
     9  H   -0.000000   0.000000   0.000000  -0.000000  -0.000000  -0.000000
    10  H   -0.000000  -0.000000   0.000000  -0.000000  -0.000000  -0.000000
    11  N   -0.030378   0.003188  -0.001898  -0.000089   0.000249  -0.000732
    12  S   -0.062926  -0.003696   0.003108  -0.000060   0.004326  -0.000049
    13  C    5.511537   0.424747   0.181788  -0.004996  -0.043681  -0.039231
    14  C    0.424747   4.853427   0.016866   0.534889   0.402349  -0.065014
    15  C    0.181788   0.016866   4.709123  -0.057364   0.006652   0.460483
    16  C   -0.004996   0.534889  -0.057364   4.787298  -0.034538  -0.016842
    17  H   -0.043681   0.402349   0.006652  -0.034538   0.686774  -0.001094
    18  C   -0.039231  -0.065014   0.460483  -0.016842  -0.001094   4.922194
    19  C   -0.048914  -0.014820  -0.007900   0.467418   0.008583   0.482741
    20  H    0.009110  -0.036800  -0.000218   0.399972  -0.012344   0.008386
    21  H    0.015238  -0.000674  -0.022562   0.007657   0.000052   0.370750
    22  H   -0.001496   0.009138   0.008496  -0.046894  -0.000187  -0.037886
    23  C    0.337139  -0.101028  -0.076811   0.006669  -0.019122   0.011881
    24  O   -0.090784   0.006053   0.671734  -0.000215  -0.000071  -0.070979
    25  H   -0.049266  -0.000634  -0.006564   0.000063  -0.000075   0.004271
              19         20         21         22         23         24
     1  C   -0.000000  -0.000000  -0.000000   0.000000   0.003584   0.000002
     2  C   -0.000000  -0.000000   0.000000  -0.000000  -0.057227  -0.000256
     3  C    0.000003  -0.000000  -0.000001  -0.000000  -0.092591  -0.002248
     4  C   -0.000000   0.000000  -0.000000  -0.000000   0.008242   0.000192
     5  C    0.000000  -0.000000  -0.000000  -0.000000   0.000314  -0.000001
     6  C    0.000000  -0.000000  -0.000000  -0.000000  -0.000354  -0.000000
     7  H    0.000000   0.000000  -0.000000   0.000000   0.000128   0.000000
     8  H    0.000000  -0.000000   0.000000  -0.000000  -0.000626  -0.000217
     9  H    0.000000   0.000000  -0.000000  -0.000000   0.000006  -0.000000
    10  H    0.000000   0.000000   0.000000  -0.000000   0.000003  -0.000000
    11  N    0.000037   0.000001   0.000004  -0.000000   0.489870  -0.025378
    12  S    0.000010  -0.000001   0.000003  -0.000000   0.302002  -0.000155
    13  C   -0.048914   0.009110   0.015238  -0.001496   0.337139  -0.090784
    14  C   -0.014820  -0.036800  -0.000674   0.009138  -0.101028   0.006053
    15  C   -0.007900  -0.000218  -0.022562   0.008496  -0.076811   0.671734
    16  C    0.467418   0.399972   0.007657  -0.046894   0.006669  -0.000215
    17  H    0.008583  -0.012344   0.000052  -0.000187  -0.019122  -0.000071
    18  C    0.482741   0.008386   0.370750  -0.037886   0.011881  -0.070979
    19  C    4.767975  -0.047682  -0.048139   0.402105  -0.000161   0.005698
    20  H   -0.047682   0.689441  -0.000185  -0.012439  -0.000338   0.000000
    21  H   -0.048139  -0.000185   0.682316  -0.012454  -0.000452   0.006623
    22  H    0.402105  -0.012439  -0.012454   0.677839   0.000015  -0.000094
    23  C   -0.000161  -0.000338  -0.000452   0.000015   5.167372  -0.018878
    24  O    0.005698   0.000000   0.006623  -0.000094  -0.018878   7.830262
    25  H   -0.000375  -0.000000   0.000006   0.000005  -0.008076   0.072088
              25
     1  C    0.000171
     2  C    0.020670
     3  C    0.006275
     4  C   -0.031899
     5  C   -0.000732
     6  C   -0.000012
     7  H    0.000009
     8  H    0.001247
     9  H   -0.000027
    10  H    0.000000
    11  N    0.365851
    12  S    0.007473
    13  C   -0.049266
[...]
 91,0.,-0.00001328,-0.00004072,0.,0.00002313,0.00000017,0.,0.00002105,-
 0.00001898,0.,0.00002030,0.00001661,0.,0.00066206,0.00540218,-0.000000
 06,-0.00165462,-0.00021076,-0.00000005,-0.03807232,0.02401270,0.000001
 09,-0.15849789,0.09298490,0.00000470,0.00883692,-0.00074954,-0.0000005
 2,0.71042776,-0.00081280,-0.00141358,0.00000001,-0.00661260,-0.0037762
 1,-0.00000012,-0.00785832,0.01150553,-0.00000003,0.00740483,-0.0003519
 8,0.00000003,-0.00045710,0.00461452,0.00000004,-0.00112678,-0.00184785
 ,-0.00000002,-0.00005459,0.00014516,0.,-0.00000110,-0.00002324,0.,-0.0
 0000008,0.00006833,0.,0.00000564,-0.00006644,0.,0.00607507,-0.00892019
 ,-0.00000008,0.00218865,-0.00183248,-0.00000009,0.05829961,0.01044356,
 -0.00000047,0.00754778,-0.20225579,-0.00000547,0.02110057,-0.01569428,
 -0.00000106,0.08447768,0.61407816,-0.00000007,-0.00000002,-0.00008115,
 -0.00000019,-0.00000016,-0.00013624,-0.00000029,0.00000046,-0.00056152
 ,0.00000027,0.,-0.00017496,-0.00000002,0.00000013,-0.00000054,0.000000
 01,-0.00000006,0.00002586,0.,0.,-0.00003746,0.,0.,-0.00001862,0.,0.,0.
 00001314,0.,0.,0.00003271,0.00000023,-0.00000025,0.00212422,0.00000006
 ,-0.00000011,-0.00048850,0.00000173,0.00000038,0.00121510,0.00000261,-
 0.00000678,-0.05526123,0.00000053,-0.00000062,-0.00525659,-0.00000445,
 0.00001655,0.12292934,0.00014105,0.00008140,0.,-0.00044144,0.00019296,
 -0.00000002,0.00035694,-0.00012788,0.,-0.00009169,0.00006360,0.,0.0000
 5226,-0.00007235,0.,0.00003860,-0.00001875,0.,-0.00001265,-0.00000570,
 0.,0.00002646,0.00000490,0.,0.00000940,-0.00000293,0.,0.00002543,-0.00
 000135,0.,0.00063934,0.00050186,0.,-0.00096005,0.00114287,-0.00000003,
 -0.00851654,-0.03016727,-0.00000075,-0.11018655,-0.11003037,-0.0000021
 9,-0.00410319,0.00402200,0.00000013,0.01095857,0.01799998,0.00000039,0
 .11512530,-0.00003106,-0.00004862,0.,-0.00005186,0.00031849,0.,0.00012
 979,0.00007103,-0.00000002,-0.00003666,0.00000016,0.,0.00000790,0.0000
 2259,0.,-0.00006292,0.00002006,0.,0.00000002,0.00001279,0.,0.00000265,
 -0.00000578,0.,-0.00000640,0.00000051,0.,-0.00001223,0.00000322,0.,0.0
 0006344,0.00020728,0.00000005,-0.00054003,-0.00017307,0.00000007,0.001
 47220,0.00071070,-0.00000019,-0.10871379,-0.28661725,-0.00000568,0.000
 67137,0.00184547,-0.00000022,-0.01415722,-0.01732944,-0.00000034,0.116
 75969,0.30279997,0.,0.,0.00005731,0.,-0.00000002,-0.00011049,-0.000000
 04,0.00000001,0.00067992,0.,0.,0.00002103,0.,0.,-0.00000592,0.,0.,-0.0
 0002418,0.,0.,0.00003615,0.,0.,0.00003791,0.,0.,0.00000194,0.,0.,-0.00
 001930,0.00000010,-0.00000011,-0.00186613,-0.00000005,0.00000007,0.001
 03122,0.00000046,-0.00000024,0.00851207,-0.00000225,-0.00000500,-0.037
 10432,-0.00000006,0.,0.00980428,-0.00000039,-0.00000110,0.00369097,0.0
 0000229,0.00000629,0.02152641,-0.00175950,0.00040792,-0.00000001,-0.00
 381549,-0.00404612,0.,-0.00537128,0.00989524,0.00000017,0.00506676,-0.
 00020133,0.,-0.00034368,0.00180108,0.00000002,0.00133226,-0.00101083,0
 .,-0.00013009,0.00008084,0.00000001,0.00007893,0.00001523,0.00000002,0
 .00011206,0.00000726,0.,0.00010704,-0.00005781,0.,0.01031203,0.0005786
 6,-0.00000051,0.00129336,-0.00314258,-0.00000025,0.02731555,0.00764035
 ,0.00000006,-0.03535317,0.02318303,0.00000099,-0.11420541,0.05174033,0
 .00000071,-0.02311421,-0.08555305,-0.00000229,-0.00058813,0.00066227,-
 0.00000008,0.66926746,0.00086677,0.00000166,0.00000001,0.00047345,0.00
 045588,-0.00000003,0.00144432,-0.00223879,-0.00000006,-0.00152072,0.00
 005941,0.,0.00019047,-0.00051963,0.,-0.00048237,0.00019639,0.,0.000020
 80,-0.00000569,0.,-0.00001921,-0.00000667,0.,-0.00003137,-0.00000206,0
 .,-0.00000079,0.00002016,0.,-0.00131080,0.00030408,0.00000022,0.001010
 82,-0.00026611,0.00000003,0.00711057,-0.02996962,-0.00000131,0.0109689
 7,-0.00784495,-0.00000016,0.05749798,-0.22739549,-0.00000499,-0.035676
 20,0.00912080,0.00000042,-0.00008907,0.00079397,0.00000013,0.06613934,
 0.66107455,0.00000002,0.,0.00026948,0.00000009,-0.00000005,0.00066923,
 -0.00000008,-0.00000017,0.00143502,-0.00000009,0.,-0.00023448,0.,-0.00
 000005,-0.00005264,0.,0.,-0.00016657,0.,0.,0.00014520,0.,0.,0.00011550
 ,0.,0.,0.00002309,0.,0.,-0.00008754,0.00000015,-0.00000036,-0.00406240
 ,0.00000007,0.00000024,0.00220962,0.00000010,-0.00000134,0.01395325,0.
 00000103,-0.00000055,-0.00523221,0.00000114,-0.00000491,-0.06851631,-0
 .00000075,0.00000130,0.00808418,0.,0.00000010,-0.00249915,-0.00000681,
 0.00001376,0.10878633,0.00199899,0.00021958,0.,0.00515938,0.00456409,0
 .00000004,0.00801258,-0.01260864,0.,-0.00694900,0.00022438,-0.00000002
 ,0.00052926,-0.00307383,-0.00000004,-0.00079545,0.00148151,0.,0.000105
 12,-0.00009127,0.,-0.00001777,0.00000594,0.,-0.00009548,-0.00002309,0.
 ,-0.00006558,0.00007057,0.,-0.01091746,0.00692422,0.00000022,-0.000741
 87,0.00184262,0.00000029,-0.01843368,-0.01227411,0.00000011,0.06058022
 ,-0.00724980,-0.00000034,-0.05211076,0.02576727,0.00000236,-0.15963717
 ,-0.03447943,-0.00000020,-0.00220134,0.00440685,0.00000024,-0.32011628
 ,-0.04707642,0.00000197,0.65177138,0.00002086,0.00088553,0.,0.00247965
 ,0.00104614,0.00000005,0.00291493,-0.00343608,-0.00000005,-0.00299832,
 0.00028468,0.,0.00022352,-0.00221656,0.,0.00091841,0.00076933,0.000000
 01,0.00000533,-0.00004989,0.,0.00000406,-0.00000757,0.,0.00001600,-0.0
 0004358,0.,0.00001551,0.00003600,0.,0.00089205,0.00366616,0.00000009,-
 0.00160478,0.00018805,-0.00000007,-0.03085701,-0.00190561,-0.00000027,
 0.04451024,-0.05971779,-0.00000269,0.00141583,0.02289734,0.00000127,-0
 .12776637,-0.32158335,-0.00000806,0.00345447,-0.00251077,-0.00000010,0
 .02362531,-0.12366261,-0.00000212,-0.04820068,0.73166252,-0.00000004,0
 .00000005,0.00013025,0.00000003,-0.00000001,-0.00026167,0.00000006,0.0
 0000004,-0.00105155,-0.00000003,0.00000001,0.00010659,0.,-0.00000006,0
 .00009178,0.00000007,0.00000002,0.00002924,0.,0.,-0.00006155,0.,0.,-0.
 00012143,0.,0.,-0.00000558,0.,0.,-0.00000005,0.00000014,0.00000015,0.0
 0112625,-0.00000006,-0.00000008,-0.00004441,-0.00000091,0.00000026,-0.
 00122792,0.00000089,-0.00000244,0.00744476,0.00000054,-0.00000017,0.00
 088946,-0.00000301,-0.00000845,-0.05642788,0.00000022,-0.00000026,0.00
 370937,0.00000437,-0.00000131,-0.04971112,-0.00000830,0.00002081,0.114
 22875,0.00008074,-0.00009149,0.,-0.00011359,0.00011083,0.,-0.00000726,
 -0.00006138,0.,0.00001883,0.00000764,0.,0.00000190,0.00010297,0.,-0.00
 014774,-0.00001598,0.,0.00000425,0.00000800,0.,0.00000170,-0.00000544,
 0.,-0.00001061,0.00000527,0.,-0.00000829,0.00000328,0.,-0.00015321,0.0
 0035332,0.,0.00001690,0.00000675,0.,0.00060852,0.00284759,0.00000015,-
 0.01306276,-0.00600304,-0.00000007,0.00062391,0.00033093,-0.00000002,-
 0.34175436,-0.04203271,0.00000237,0.00069586,0.00013289,-0.00000003,0.
 00117331,-0.00226479,0.,-0.00669833,0.00291909,0.00000027,0.35913811,-
 0.00000878,0.00001831,0.,-0.00001762,-0.00009146,0.,0.00001992,0.00016
 892,-0.00000002,0.00004654,-0.00004596,0.,0.00001026,0.00002314,0.,0.0
 0001623,-0.00002175,0.,-0.00000094,-0.00000248,0.,0.00000090,0.0000018
 4,0.,0.00000474,-0.00000395,0.,0.00000353,-0.00000176,0.,0.00041835,-0
 .00041250,0.,0.00002433,0.00003034,0.,0.00255904,-0.00448187,-0.000000
 27,0.02472678,0.00623995,-0.00000028,0.00043484,-0.00094746,0.,-0.0413
 1898,-0.06487611,-0.00000066,-0.00026259,0.00086452,0.00000009,-0.0015
 3978,-0.00513476,-0.00000039,-0.02862545,0.00290805,0.00000018,0.04425
 861,0.06362302,0.,0.,0.00000809,0.,-0.00000002,0.00007701,-0.00000002,
 0.00000003,0.00047712,0.,0.,0.00004416,0.,0.,-0.00005637,0.00000001,0.
 ,0.00000009,0.,0.,0.00001529,0.,0.,0.00003569,0.,0.,-0.00001369,0.,0.,
 -0.00001046,0.00000008,-0.00000006,0.00005675,0.,0.,-0.00009223,0.0000
 0013,-0.00000031,0.00388166,0.00000116,0.00000037,0.00451139,-0.000000
 03,-0.00000007,-0.00153217,0.00000230,-0.00000076,-0.03417168,-0.00000
 005,0.00000006,-0.00211927,0.00000002,-0.00000044,0.00668999,-0.000000
 92,-0.00000009,0.00666309,-0.00000262,0.00000104,0.02125426,-0.0001152
 3,0.00002306,0.,0.00009210,0.00004838,0.,-0.00009413,0.00007092,0.,0.0
 0004142,0.00001485,0.,-0.00001919,-0.00004151,0.,0.00008926,0.00001827
 ,0.,0.00000027,-0.00000394,0.,-0.00000488,0.00000120,0.,0.00000325,-0.
 00000063,0.,-0.00000242,-0.00000195,0.,0.00019220,-0.00015087,0.000000
 01,-0.00027315,0.00011980,-0.00000003,-0.00272386,0.00289138,0.0000001
 6,-0.00001563,0.00034962,0.00000003,0.00920954,0.01858183,0.00000039,-
 0.00599962,0.00091513,0.00000021,0.00007162,-0.00010838,0.,-0.10575538
 ,-0.11067694,-0.00000156,-0.00568604,-0.02828646,-0.00000057,-0.000480
 22,-0.00142591,-0.00000007,0.10828130,0.00004623,0.00005810,0.00000001
 ,-0.00011956,-0.00014388,0.,0.00006571,0.00005919,0.,-0.00001322,-0.00
 000525,0.,0.00001489,-0.00003374,0.,0.00004537,-0.00001582,0.,-0.00000
 631,0.00000159,0.,0.00000746,0.00000338,0.,0.00000738,-0.00000341,0.,0
 .00001150,-0.00000077,0.,-0.00016433,0.00020752,0.,0.00033630,-0.00022
 506,0.00000003,0.00394020,-0.00290238,-0.00000014,0.00056046,0.0002788
 6,0.,-0.01568534,-0.01810747,-0.00000029,0.00011899,0.00144352,-0.0000
 0007,-0.00007918,-0.00003532,0.,-0.10926648,-0.29569524,-0.00000473,0.
 00292197,0.00216394,-0.00000007,0.00011337,-0.00001194,0.,0.11851227,0
 .31004724,0.00000002,0.,-0.00038528,0.00000003,0.00000006,-0.00036472,
 0.00000008,-0.00000009,0.00000880,-0.00000004,0.,0.00003646,0.,-0.0000
 0001,-0.00005714,-0.00000001,0.00000001,0.00008798,0.,0.,-0.00003823,0
 .,0.,0.00003053,0.,0.,-0.00000888,0.,0.,0.00008499,-0.00000016,0.00000
 012,0.00081435,-0.00000002,-0.00000007,-0.00091223,0.00000011,-0.00000
 009,0.00185084,0.00000003,0.,0.00004855,-0.00000030,-0.00000084,0.0043
 9410,0.00000013,-0.00000004,0.00529368,0.,0.,0.00032266,-0.00000115,-0
 .00000460,-0.03108063,-0.00000002,0.00000010,0.00454058,0.,0.00000004,
 -0.00046198,0.00000139,0.00000492,0.02038850,0.00004390,-0.00001396,0.
 ,0.00002619,0.00011243,0.,0.00018888,-0.00013990,0.,-0.00009294,-0.000
 00145,0.,0.00001470,-0.00001153,0.,-0.00005046,0.00001426,0.,0.0000014
 0,0.00000331,0.,0.00000600,-0.00000404,0.,-0.00000597,0.00000098,0.,-0
 .00000388,0.00000353,0.,0.00016446,0.00040880,-0.00000002,-0.00008376,
 0.00010483,0.,-0.00051446,-0.00039868,0.,0.00011642,-0.00277015,-0.000
 00006,-0.00273853,-0.00394393,0.,0.01054950,-0.01166233,-0.00000051,0.
 00040635,-0.00054578,-0.00000002,-0.01164844,0.02654362,0.00000097,-0.
 16078073,0.13851645,0.00000591,0.00071631,0.00039760,-0.00000003,0.001
 05747,-0.00036432,-0.00000009,0.16484194,0.00000154,0.00005465,0.,0.00
 014407,0.00007660,0.,0.00017652,-0.00027273,0.,-0.00015978,0.00001263,
 0.,0.00000821,-0.00012837,0.,0.00006914,0.00004221,0.,-0.00000171,-0.0
 0000673,0.,0.00000025,0.00000522,0.,0.00000528,-0.00000260,0.,0.000004
 81,-0.00000137,0.,-0.00026975,0.00002743,0.,-0.00007020,0.00004659,0.,
 -0.00046504,0.00039864,0.00000007,-0.00338858,-0.00341739,-0.00000025,
 -0.00210102,0.00057307,-0.00000018,0.02003917,-0.01623903,-0.00000090,
 0.00089046,-0.00110519,-0.00000007,-0.00470362,0.00612967,0.00000012,0
 .13681200,-0.24394643,-0.00000828,-0.00012735,0.00099111,0.00000016,0.
 00027869,0.00060917,0.00000012,-0.14739366,0.25549454,0.,-0.00000001,0
 .00000765,-0.00000003,0.,0.00008128,-0.00000002,0.00000003,0.00015619,
 0.00000002,0.,-0.00000033,0.,0.00000002,-0.00000031,-0.00000001,0.,-0.
 00000646,0.,0.,0.00000816,0.,0.,0.00001223,0.,0.,0.00000075,0.,0.,-0.0
 0000924,-0.00000002,-0.00000005,-0.00019122,0.,0.,-0.00007612,0.000000
 08,0.00000006,-0.00067167,-0.00000032,-0.00000027,0.00636934,0.0000001
 7,0.,0.00639091,0.00000056,-0.00000098,0.00350951,0.00000005,-0.000000
 06,0.00043567,-0.00000014,-0.00000019,0.00318318,0.00000611,-0.0000079
 7,-0.03405890,-0.00000007,0.00000018,-0.00423907,-0.00000007,0.0000000
 9,-0.00333428,-0.00000627,0.00000918,0.02369029,-0.00070051,-0.0076778
 9,-0.00000007,-0.00359281,0.02153369,0.00000036,-0.05451067,0.02620168
 ,0.00000020,0.00665970,-0.00238311,0.00000001,-0.00129082,0.00546746,0
 .,-0.00611015,-0.00246919,-0.00000011,0.00035869,-0.00068369,0.0000000
 3,-0.00061615,-0.00006494,-0.00000002,0.00018269,-0.00008392,0.,-0.000
 63142,-0.00025848,0.,-0.36379662,-0.04367081,-0.00000102,-0.04720497,-
 0.03801943,-0.00000143,-0.14177156,0.05906572,-0.00000013,-0.03418484,
 0.03415887,0.00000064,0.04291756,0.00727790,-0.00000074,-0.00489804,-0
 .00900889,-0.00000043,0.00022331,0.00059024,0.00000006,-0.00694389,-0.
 00291730,0.00000011,0.00067839,0.00344023,0.,-0.00047640,0.00072325,0.
 00000004,0.00051947,-0.00116863,0.00000002,0.00003370,0.00001144,0.000
 00005,0.63911643,-0.00073206,-0.00085823,-0.00000012,0.02161211,-0.014
 48376,0.00000016,0.01443501,0.01231967,-0.00000011,0.00206713,-0.00562
 384,-0.00000011,-0.00038813,-0.00109458,0.00000001,0.00153340,-0.00069
 678,0.,0.00016463,-0.00045032,0.00000001,-0.00038707,0.00005031,0.,0.0
 0030721,-0.00043486,0.00000001,-0.00023809,0.00002760,0.,-0.03163020,-
 0.12641875,-0.00000112,-0.00104425,-0.16336139,-0.00000385,0.03417106,
 -0.16190730,-0.00000145,0.02470557,0.00597960,0.00000031,0.01410431,-0
 .04806494,-0.00000055,-0.00339731,0.00164864,-0.00000010,-0.00127097,0
 .00052902,0.00000013,-0.01379021,-0.00154586,0.00000024,0.00893140,-0.
 00091020,-0.00000022,-0.00052561,0.00089200,0.00000006,0.00065575,-0.0
 0065659,-0.00000006,0.00007418,0.00035239,0.,-0.05010625,0.49105696,-0
 .00000027,-0.00000010,0.00073498,0.00000054,0.00000023,-0.00114994,-0.
 00000050,0.00000023,0.00397157,0.00000013,-0.00000002,0.00160050,-0.00
 000007,-0.00000014,0.00127159,0.00000018,0.00000006,0.00057430,0.00000
 002,-0.00000001,-0.00024601,-0.00000002,0.,-0.00065402,0.,0.,-0.000413
 98,-0.00000002,0.,-0.00020969,-0.00000115,-0.00000162,-0.02432001,-0.0
 0000068,-0.00000260,-0.01529582,0.00000080,-0.00000271,-0.03181047,0.0
 0000023,-0.00000030,0.00623171,-0.00000038,0.00000001,0.00301915,0.000
 00009,0.00000042,0.00537782,-0.00000003,0.00000015,-0.00395404,0.00000
 073,-0.00000038,-0.00138640,-0.00000097,0.,-0.00038400,0.,0.00000006,-
 0.00103074,0.00000005,-0.00000011,0.00245813,-0.00000001,0.,-0.0005566
 1,0.00000160,0.00000700,0.06213067,-0.00040500,0.00123984,-0.00000001,
 -0.00039254,0.00070613,0.00000005,0.00593090,0.00024106,0.00000019,-0.
 00047081,-0.00023255,-0.00000002,0.00007978,-0.00087158,-0.00000001,0.
 00145579,0.00019378,0.,-0.00016272,0.00012917,0.,0.00031948,0.00005425
 ,0.00000002,0.00005949,-0.00000552,0.,0.00009970,0.00002047,0.,0.00699
 153,0.02859540,-0.00000050,0.00076317,-0.00073802,0.,-0.04021573,-0.04
 688374,0.00000080,0.00353756,-0.00526524,-0.00000018,-0.56363292,-0.06
 322251,0.00001404,-0.01048365,-0.00663087,0.00000002,-0.00189552,-0.00
 074036,-0.00000017,-0.08845434,0.03014659,0.00000384,0.01695431,0.0140
 7674,0.00000035,-0.00023453,-0.00044547,0.00000001,0.00163043,0.000151
 82,-0.00000003,-0.00239010,0.00030770,-0.00000008,-0.01931645,0.007418
 43,0.00000023,0.68656904,-0.00056376,-0.00033682,0.,0.00086952,-0.0025
 3057,-0.00000007,-0.00702846,-0.00149234,-0.00000004,0.00070748,-0.000
 26162,0.,-0.00001898,0.00052052,0.,0.00005574,-0.00042386,0.,0.0000975
 9,-0.00020007,0.,0.00005315,0.00001585,0.,0.00009481,-0.00005810,0.,0.
 00002253,-0.00003590,0.,0.01677718,-0.03410394,0.00000032,0.00031958,0
 .00099465,0.00000015,-0.04518944,-0.00842900,0.00000077,-0.00194130,-0
 .01048812,-0.00000053,-0.06133878,-0.09261133,0.00000137,0.00088901,-0
 .00153954,0.00000005,-0.00241474,-0.00014885,-0.00000007,0.04067867,0.
 01642730,-0.00000108,0.00126634,-0.00323628,-0.00000011,-0.00006335,0.
 00038376,0.00000003,-0.00193592,0.00308157,0.00000044,0.00156205,0.000
 26109,-0.00000005,0.00353249,0.00970015,-0.00000013,0.05782689,0.14021
 491,0.00000011,-0.00000005,0.00023399,-0.00000001,0.00000019,-0.000433
 57,0.00000026,-0.00000021,-0.00060947,-0.00000009,-0.00000001,0.000205
 45,0.00000002,0.00000002,0.00023590,-0.00000012,0.00000002,0.00007184,
 0.,0.,-0.00010718,0.,0.,-0.00028405,0.,0.,-0.00003527,0.,0.,-0.0000763
 1,-0.00000085,0.00000025,0.01106158,0.,0.00000009,-0.00159921,-0.00000
 012,0.00000046,0.01698338,-0.00000005,-0.00000009,0.00257548,0.0000145
 3,0.00000184,-0.05410142,0.00000039,0.00000020,-0.00001106,-0.00000001
 ,0.00000005,-0.00176185,0.00000416,-0.00000118,0.01772409,-0.00000054,
 -0.00000082,0.00376472,0.,0.00000002,0.00014425,0.00000007,0.00000036,
 -0.00385808,0.00000010,0.00000004,-0.00056960,0.00000040,-0.00000026,-
 0.00252297,-0.00001847,-0.00000137,0.01743333,0.00148866,0.00055330,0.
 ,-0.00317597,0.00592336,0.,0.01471439,0.02681582,0.00000044,0.00096326
 ,0.00190724,0.00000007,-0.00034480,-0.00026135,-0.00000001,-0.00046422
 ,-0.00010666,0.,-0.00022404,0.00031028,0.,-0.00168219,-0.00122822,0.00
 000001,0.00001399,-0.00001611,0.,-0.00005864,-0.00010131,0.,-0.1595773
 1,-0.20400610,-0.00000334,-0.00418522,-0.00160189,0.00000005,0.0023361
 3,-0.00017417,0.00000009,-0.00000306,-0.00012236,-0.00000003,-0.009219
 70,0.00158683,0.00000013,0.00029603,0.00027573,0.00000004,0.00022661,0
 .00010738,-0.00000004,0.00154054,-0.00034773,-0.00000020,-0.00054267,0
 .00026494,0.00000006,0.00006695,0.00000062,0.,-0.00001857,0.00001345,0
 .00000001,0.00014207,-0.00006861,0.,-0.00464465,-0.02667004,-0.0000005
 3,0.00366314,-0.00425831,0.00000024,0.15868931,-0.00001101,-0.00054707
 ,-0.00000003,0.00304221,0.00043927,-0.00000006,-0.00121115,-0.02887912
 ,-0.00000034,-0.00256913,0.00274041,0.00000007,-0.00037335,-0.00135565
 ,0.,-0.00025634,0.00084834,0.,0.00011815,0.00000390,0.,0.00043794,0.00
 007860,0.,-0.00020445,0.00018107,0.,-0.00002884,0.00008101,0.,-0.19063
 700,-0.40791463,-0.00000752,0.00292482,0.00687000,0.00000034,-0.005979
 18,0.00371767,0.00000011,0.00418320,-0.00249986,0.00000007,0.01760327,
 0.00482455,-0.00000069,-0.00287904,0.00468129,0.00000013,-0.00057105,-
 0.00022549,0.,-0.00314373,-0.00029638,-0.00000002,-0.00173601,-0.00328
 103,-0.00000006,-0.00000938,-0.00011297,-0.00000002,0.00015134,-0.0001
 1722,0.,-0.00049233,0.00004485,0.00000004,-0.00349047,0.00395107,-0.00
 000003,-0.01607241,-0.01570345,0.00000046,0.20120393,0.43247084,0.0000
 0005,-0.00000005,0.00053072,-0.00000010,0.00000002,0.00358810,-0.00000
 028,-0.00000003,0.00491619,0.00000006,0.00000006,-0.00180472,0.,0.0000
 0007,-0.00065800,-0.00000007,-0.00000003,-0.00000327,0.,0.,-0.00008169
 ,0.00000003,0.,0.00038894,0.,0.,0.00012624,0.,0.,0.00000281,-0.0000032
 4,-0.00000754,-0.01051701,-0.00000009,-0.00000024,0.00424779,-0.000000
 06,0.00000011,-0.00106630,0.00000018,-0.00000005,-0.00030951,0.0000002
 5,-0.00000028,0.00069703,-0.00000007,0.00000010,0.00033091,0.,0.000000
 01,-0.00040226,0.,0.00000008,-0.00025870,0.,-0.00000007,0.00063122,0.,
 0.,-0.00013117,0.,0.,0.00014129,0.,0.,-0.00013134,0.00000040,0.0000000
 2,-0.00343571,-0.00000010,0.00000029,-0.00446395,0.00000303,0.00000753
 ,0.00766240\\0.00323536,0.00547043,0.00000040,0.00786684,0.01062850,0.
 00000127,0.01345363,-0.00073040,-0.00000026,-0.00222745,0.00363358,-0.
 00000034,0.00003011,-0.00185876,-0.00000008,0.00334650,0.00338021,0.00
 000018,0.00003439,0.00069644,-0.00000017,0.00021251,0.00014257,0.00000
 004,0.00001917,0.00034663,0.,0.00026454,0.00034280,-0.00000004,-0.0219
 4029,0.01241499,-0.00000084,0.00388321,0.00857665,-0.00000100,-0.01267
 797,0.00688721,-0.00000176,0.01063334,-0.00008635,-0.00000156,0.021395
 31,0.00368786,0.00000229,-0.00407793,0.01275894,0.00000121,0.00012459,
 0.00013143,0.00000028,-0.00387892,0.00071733,-0.00000024,-0.00648839,0
 .00013520,0.00000009,-0.00025608,0.00029183,0.00000007,-0.00015652,-0.
 00006128,-0.00000010,-0.00063317,-0.00006610,-0.00000009,-0.01351016,-
 0.00927763,0.00000169,-0.01081860,-0.01754066,-0.00000089,0.01216597,-
 0.04062141,-0.00000015\\\@
 The archive entry for this job was punched.


 THOSE WHO ARE UNABLE TO LEARN FROM PAST MEETINGS
 ARE CONDEMNED TO REPEAT THEM.
 Job cpu time:       0 days  2 hours 49 minutes 34.7 seconds.
 Elapsed time:       0 days  0 hours 17 minutes 33.9 seconds.
 File lengths (MBytes):  RWF=   1376 Int=      0 D2E=      0 Chk=     48 Scr=      8
 Normal termination of Gaussian 16 at Tue Jul 14 11:34:35 2020.
