 Entering Gaussian System, Link 0=g16
 Initial command:
 /gpfs/loomis/apps/avx/software/Gaussian/16-C.01_AVX/g16/l1.exe "/home/fas/batista/pev4/scratch60/gauss-scratch/Gau-90754.inp" -scrdir="/home/fas/batista/pev4/scratch60/gauss-scratch/"
 Entering Link 1 = /gpfs/loomis/apps/avx/software/Gaussian/16-C.01_AVX/g16/l1.exe PID=     90755.
  
 Copyright (c) 1988-2019, Gaussian, Inc.  All Rights Reserved.
  
 This is part of the Gaussian(R) 16 program.  It is based on
 the Gaussian(R) 09 system (copyright 2009, Gaussian, Inc.),
 the Gaussian(R) 03 system (copyright 2003, Gaussian, Inc.),
 the Gaussian(R) 98 system (copyright 1998, Gaussian, Inc.),
 the Gaussian(R) 94 system (copyright 1995, Gaussian, Inc.),
 the Gaussian 92(TM) system (copyright 1992, Gaussian, Inc.),
 the Gaussian 90(TM) system (copyright 1990, Gaussian, Inc.),
 the Gaussian 88(TM) system (copyright 1988, Gaussian, Inc.),
 the Gaussian 86(TM) system (copyright 1986, Carnegie Mellon
 University), and the Gaussian 82(TM) system (copyright 1983,
 Carnegie Mellon University). Gaussian is a federally registered
 trademark of Gaussian, Inc.
  
 This software contains proprietary and confidential information,
 including trade secrets, belonging to Gaussian, Inc.
  
 This software is provided under written license and may be
 used, copied, transmitted, or stored only in accord with that
 written license.
  
 The following legend is applicable only to US Government
 contracts under FAR:
  
                    RESTRICTED RIGHTS LEGEND
  
 Use, reproduction and disclosure by the US Government is
 subject to restrictions as set forth in subparagraphs (a)
 and (c) of the Commercial Computer Software - Restricted
 Rights clause in FAR 52.227-19.
  
 Gaussian, Inc.
 340 Quinnipiac St., Bldg. 40, Wallingford CT 06492
  
  
 ---------------------------------------------------------------
 Warning -- This program may not be used in any manner that
 competes with the business of Gaussian, Inc. or will provide
 assistance to any competitor of Gaussian, Inc.  The licensee
 of this program is prohibited from giving any competitor of
 Gaussian, Inc. access to this program.  By using this program,
 the user acknowledges that Gaussian, Inc. is engaged in the
 business of creating and licensing software in the field of
 computational chemistry and represents and warrants to the
 licensee that it is not a competitor of Gaussian, Inc. and that
 it will not use this program in any manner prohibited above.
 ---------------------------------------------------------------
  

 Cite this work as:
 Gaussian 16, Revision C.01,
 M. J. Frisch, G. W. Trucks, H. B. Schlegel, G. E. Scuseria, 
 M. A. Robb, J. R. Cheeseman, G. Scalmani, V. Barone, 
 G. A. Petersson, H. Nakatsuji, X. Li, M. Caricato, A. V. Marenich, 
 J. Bloino, B. G. Janesko, R. Gomperts, B. Mennucci, H. P. Hratchian, 
 J. V. Ortiz, A. F. Izmaylov, J. L. Sonnenberg, D. Williams-Young, 
 F. Ding, F. Lipparini, F. Egidi, J. Goings, B. Peng, A. Petrone, 
 T. Henderson, D. Ranasinghe, V. G. Zakrzewski, J. Gao, N. Rega, 
 G. Zheng, W. Liang, M. Hada, M. Ehara, K. Toyota, R. Fukuda, 
 J. Hasegawa, M. Ishida, T. Nakajima, Y. Honda, O. Kitao, H. Nakai, 
 T. Vreven, K. Throssell, J. A. Montgomery, Jr., J. E. Peralta, 
 F. Ogliaro, M. J. Bearpark, J. J. Heyd, E. N. Brothers, K. N. Kudin, 
 V. N. Staroverov, T. A. Keith, R. Kobayashi, J. Normand, 
 K. Raghavachari, A. P. Rendell, J. C. Burant, S. S. Iyengar, 
 J. Tomasi, M. Cossi, J. M. Millam, M. Klene, C. Adamo, R. Cammi, 
 J. W. Ochterski, R. L. Martin, K. Morokuma, O. Farkas, 
 J. B. Foresman, and D. J. Fox, Gaussian, Inc., Wallingford CT, 2019.
 
 ******************************************
 Gaussian 16:  ES64L-G16RevC.01  3-Jul-2019
                13-Jul-2020 
 ******************************************
 %chk=config_7_5.chk
 %mem=58GB
 %nprocshared=10
 Will use up to   10 processors via shared memory.
 ----------------------------------------------------------------------
 #p opt=addgic freq td wb97xd/cc-pvdz nosymm int=ultrafine scrf=(solven
 t=CarbonTetraChloride)
 ----------------------------------------------------------------------
 1/18=20,19=15,26=6,38=1,145=903/1,3;
 2/9=110,12=2,15=1,17=6,18=5,40=1/2;
 3/5=16,11=9,25=1,30=1,70=2201,71=1,72=11,74=-58,75=-5/1,2,3,8;
 4//1;
 5/5=2,38=5,53=11/2;
 8/6=1,10=1/1;
 9/15=2,42=1,70=2/14;
 10/5=4,31=1/2;
 6/7=2,8=2,9=2,10=2/1;
 7/12=6,13=5,30=1/1,2,3,16;
 1/18=20,19=15,26=6,145=903/3(2);
 2/9=110,15=1/2;
 99//99;
 2/9=110,15=1/2;
 3/5=16,11=9,25=1,30=1,70=2205,71=1,72=11,74=-58,75=-5/1,2,3,8;
 4/5=5,16=3,69=1/1;
 5/5=2,38=5,53=11/2;
 8/6=1,10=1/1;
 9/15=2,42=1,49=4,70=2/14;
 10/5=4,31=1/2;
 7/12=6,13=5,30=1/1,2,3,16;
 1/18=20,19=15,26=6,145=903/3(-8);
 2/9=110,15=1/2;
 6/7=2,8=2,9=2,10=2/1;
 99/9=10/99;
 Leave Link    1 at Mon Jul 13 14:50:32 2020, MaxMem=  7784628224 cpu:               5.3 elap:               0.6
 (Enter /gpfs/loomis/apps/avx/software/Gaussian/16-C.01_AVX/g16/l101.exe)
 ------------------------------------------------
 NM 2D-scan of HBT TD-WB97XD pVDZ in CTC Relaxed.
 ------------------------------------------------
 Symbolic Z-matrix:
 Charge =  0 Multiplicity = 1
 C                     1.70553  -3.26747  -0.00002 
 C                     1.00208  -2.06373  -0.00002 
 C                     1.6898   -0.81814  -0.00002 
 C                     3.09832  -0.79081  -0.00002 
 C                     3.78539  -1.99345  -0.00002 
 C                     3.10175  -3.22229  -0.00002 
 H                     1.18054  -4.22429  -0.00002 
 H                     3.61787   0.16869  -0.00002 
 H                     4.8772   -1.98738  -0.00002 
 H                     3.66744  -4.15543  -0.00002 
 N                     0.87872   0.26262  -0.00002 
 S                    -0.74052  -1.79267  -0.00002 
 C                    -1.39956   1.01405   0. 
 C                    -2.79366   0.85845  -0.00001 
 C                    -0.86937   2.40438   0.00003 
 C                    -3.64596   1.9756    0.00002 
 H                    -3.22543  -0.14502  -0.00003 
 C                    -1.76818   3.49695   0.00006 
 C                    -3.14425   3.29045   0.00006 
 H                    -4.72532   1.81258   0.00002 
 H                    -1.32876   4.49581   0.00008 
 H                    -3.83004   4.13832   0.00008 
 C                    -0.44489  -0.04166  -0.00001 
 O                     0.40014   2.6209    0.00003 
 H                     0.92432   1.49267   0.00001 
 
 Add virtual bond connecting atoms H25        and N11        Dist= 2.33D+00.
 Add virtual bond connecting atoms H25        and O24        Dist= 2.35D+00.
 Initializing the GIC definitions file.
 Number of initial coordinates =   142
 Number of input entries/lines =    52
 Number of additional coordinates =     2
 Number of removed coordinates =     0
 Number of frozen coordinates =     2
 Number of final active and frozen coordinates =   144
 ITRead=  0  0  0  0  0  0  0  0  0  0  0  0  0  0  0  0  0  0  0  0
 ITRead=  0  0  0  0  0
 MicOpt= -1 -1 -1 -1 -1 -1 -1 -1 -1 -1 -1 -1 -1 -1 -1 -1 -1 -1 -1 -1
 MicOpt= -1 -1 -1 -1 -1
 NAtoms=     25 NQM=       25 NQMF=       0 NMMI=      0 NMMIF=      0
                NMic=       0 NMicF=      0.
                    Isotopes and Nuclear Properties:
 (Nuclear quadrupole moments (NQMom) in fm**2, nuclear magnetic moments (NMagM)
  in nuclear magnetons)

  Atom         1           2           3           4           5           6           7           8           9          10
 IAtWgt=          12          12          12          12          12          12           1           1           1           1
 AtmWgt=  12.0000000  12.0000000  12.0000000  12.0000000  12.0000000  12.0000000   1.0078250   1.0078250   1.0078250   1.0078250
 NucSpn=           0           0           0           0           0           0           1           1           1           1
 AtZEff=  -0.0000000  -0.0000000  -0.0000000  -0.0000000  -0.0000000  -0.0000000  -0.0000000  -0.0000000  -0.0000000  -0.0000000
 NQMom=    0.0000000   0.0000000   0.0000000   0.0000000   0.0000000   0.0000000   0.0000000   0.0000000   0.0000000   0.0000000
 NMagM=    0.0000000   0.0000000   0.0000000   0.0000000   0.0000000   0.0000000   2.7928460   2.7928460   2.7928460   2.7928460
 AtZNuc=   6.0000000   6.0000000   6.0000000   6.0000000   6.0000000   6.0000000   1.0000000   1.0000000   1.0000000   1.0000000

  Atom        11          12          13          14          15          16          17          18          19          20
 IAtWgt=          14          32          12          12          12          12           1          12          12           1
 AtmWgt=  14.0030740  31.9720718  12.0000000  12.0000000  12.0000000  12.0000000   1.0078250  12.0000000  12.0000000   1.0078250
 NucSpn=           2           0           0           0           0           0           1           0           0           1
 AtZEff=  -0.0000000  -0.0000000  -0.0000000  -0.0000000  -0.0000000  -0.0000000  -0.0000000  -0.0000000  -0.0000000  -0.0000000
 NQMom=    2.0440000   0.0000000   0.0000000   0.0000000   0.0000000   0.0000000   0.0000000   0.0000000   0.0000000   0.0000000
 NMagM=    0.4037610   0.0000000   0.0000000   0.0000000   0.0000000   0.0000000   2.7928460   0.0000000   0.0000000   2.7928460
 AtZNuc=   7.0000000  16.0000000   6.0000000   6.0000000   6.0000000   6.0000000   1.0000000   6.0000000   6.0000000   1.0000000

  Atom        21          22          23          24          25
 IAtWgt=           1           1          12          16           1
 AtmWgt=   1.0078250   1.0078250  12.0000000  15.9949146   1.0078250
 NucSpn=           1           1           0           0           1
 AtZEff=  -0.0000000  -0.0000000  -0.0000000  -0.0000000  -0.0000000
 NQMom=    0.0000000   0.0000000   0.0000000   0.0000000   0.0000000
 NMagM=    2.7928460   2.7928460   0.0000000   0.0000000   2.7928460
 AtZNuc=   1.0000000   1.0000000   6.0000000   8.0000000   1.0000000
 Leave Link  101 at Mon Jul 13 14:50:36 2020, MaxMem=  7784628224 cpu:              33.3 elap:               3.4
 (Enter /gpfs/loomis/apps/avx/software/Gaussian/16-C.01_AVX/g16/l103.exe)

 GradGradGradGradGradGradGradGradGradGradGradGradGradGradGradGradGradGrad
 Berny optimization.
 Initialization pass.
                           ----------------------------
                           !    Initial Parameters    !
                           ! (Angstroms and Degrees)  !
 --------------------------                            --------------------------
 ! Name  Definition              Value          Derivative Info.                !
 --------------------------------------------------------------------------------
 ! R1    R(1,2)                  1.3942         estimate D2E/DX2                !
 ! R2    R(1,6)                  1.3969         estimate D2E/DX2                !
 ! R3    R(1,7)                  1.0914         estimate D2E/DX2                !
 ! R4    R(2,3)                  1.4228         estimate D2E/DX2                !
 ! R5    R(2,12)                 1.7636         estimate D2E/DX2                !
 ! R6    R(3,4)                  1.4088         estimate D2E/DX2                !
 ! R7    R(3,11)                 1.3513         estimate D2E/DX2                !
 ! R8    R(4,5)                  1.3851         estimate D2E/DX2                !
 ! R9    R(4,8)                  1.0911         estimate D2E/DX2                !
 ! R10   R(5,6)                  1.4062         estimate D2E/DX2                !
 ! R11   R(5,9)                  1.0918         estimate D2E/DX2                !
 ! R12   R(6,10)                 1.0912         estimate D2E/DX2                !
 ! R13   R(11,23)                1.3581         estimate D2E/DX2                !
 ! R14   R(11,25)                1.2309         estimate D2E/DX2                !
 ! R15   R(12,23)                1.7758         estimate D2E/DX2                !
 ! R16   R(13,14)                1.4028         estimate D2E/DX2                !
 ! R17   R(13,15)                1.488          estimate D2E/DX2                !
 ! R18   R(13,23)                1.4234         estimate D2E/DX2                !
 ! R19   R(14,16)                1.4052         estimate D2E/DX2                !
 ! R20   R(14,17)                1.0924         estimate D2E/DX2                !
 ! R21   R(15,18)                1.4148         estimate D2E/DX2                !
 ! R22   R(15,24)                1.2878         estimate D2E/DX2                !
 ! R23   R(16,19)                1.4073         estimate D2E/DX2                !
 ! R24   R(16,20)                1.0916         estimate D2E/DX2                !
 ! R25   R(18,19)                1.3915         estimate D2E/DX2                !
 ! R26   R(18,21)                1.0912         estimate D2E/DX2                !
 ! R27   R(19,22)                1.0905         estimate D2E/DX2                !
 ! R28   R(24,25)                1.244          estimate D2E/DX2                !
 ! A1    A(2,1,6)              118.4478         estimate D2E/DX2                !
 ! A2    A(2,1,7)              120.9457         estimate D2E/DX2                !
 ! A3    A(6,1,7)              120.6065         estimate D2E/DX2                !
 ! A4    A(1,2,3)              120.7946         estimate D2E/DX2                !
 ! A5    A(1,2,12)             129.1431         estimate D2E/DX2                !
 ! A6    A(3,2,12)             110.0623         estimate D2E/DX2                !
 ! A7    A(2,3,4)              120.0157         estimate D2E/DX2                !
 ! A8    A(2,3,11)             114.2088         estimate D2E/DX2                !
 ! A9    A(4,3,11)             125.7755         estimate D2E/DX2                !
 ! A10   A(3,4,5)              118.6278         estimate D2E/DX2                !
 ! A11   A(3,4,8)              119.5467         estimate D2E/DX2                !
 ! A12   A(5,4,8)              121.8255         estimate D2E/DX2                !
 ! A13   A(4,5,6)              121.1719         estimate D2E/DX2                !
 ! A14   A(4,5,9)              119.4215         estimate D2E/DX2                !
 ! A15   A(6,5,9)              119.4066         estimate D2E/DX2                !
 ! A16   A(1,6,5)              120.9422         estimate D2E/DX2                !
 ! A17   A(1,6,10)             119.3712         estimate D2E/DX2                !
 ! A18   A(5,6,10)             119.6867         estimate D2E/DX2                !
 ! A19   A(3,11,23)            113.9407         estimate D2E/DX2                !
 ! A20   A(3,11,25)            140.9896         estimate D2E/DX2                !
 ! A21   A(23,11,25)           105.0696         estimate D2E/DX2                !
 ! A22   A(2,12,23)             89.2585         estimate D2E/DX2                !
 ! A23   A(14,13,15)           117.2427         estimate D2E/DX2                !
 ! A24   A(14,13,23)           125.7542         estimate D2E/DX2                !
 ! A25   A(15,13,23)           117.0031         estimate D2E/DX2                !
 ! A26   A(13,14,16)           120.9723         estimate D2E/DX2                !
 ! A27   A(13,14,17)           119.6498         estimate D2E/DX2                !
 ! A28   A(16,14,17)           119.3779         estimate D2E/DX2                !
 ! A29   A(13,15,18)           119.6833         estimate D2E/DX2                !
 ! A30   A(13,15,24)           120.5527         estimate D2E/DX2                !
 ! A31   A(18,15,24)           119.764          estimate D2E/DX2                !
 ! A32   A(14,16,19)           121.7734         estimate D2E/DX2                !
 ! A33   A(14,16,20)           118.752          estimate D2E/DX2                !
 ! A34   A(19,16,20)           119.4747         estimate D2E/DX2                !
 ! A35   A(15,18,19)           120.9079         estimate D2E/DX2                !
 ! A36   A(15,18,21)           116.8114         estimate D2E/DX2                !
 ! A37   A(19,18,21)           122.2807         estimate D2E/DX2                !
 ! A38   A(16,19,18)           119.4204         estimate D2E/DX2                !
 ! A39   A(16,19,22)           120.1471         estimate D2E/DX2                !
 ! A40   A(18,19,22)           120.4325         estimate D2E/DX2                !
 ! A41   A(11,23,12)           112.5297         estimate D2E/DX2                !
 ! A42   A(11,23,13)           119.1764         estimate D2E/DX2                !
 ! A43   A(12,23,13)           128.2939         estimate D2E/DX2                !
 ! A44   A(15,24,25)           105.2408         estimate D2E/DX2                !
 ! A45   A(11,25,24)           152.9573         estimate D2E/DX2                !
 ! D1    D(6,1,2,3)              0.0            estimate D2E/DX2                !
 ! D2    D(6,1,2,12)          -179.9999         estimate D2E/DX2                !
 ! D3    D(7,1,2,3)            180.0            estimate D2E/DX2                !
 ! D4    D(7,1,2,12)             0.0            estimate D2E/DX2                !
 ! D5    D(2,1,6,5)              0.0            estimate D2E/DX2                !
 ! D6    D(2,1,6,10)           180.0            estimate D2E/DX2                !
 ! D7    D(7,1,6,5)           -179.9999         estimate D2E/DX2                !
 ! D8    D(7,1,6,10)             0.0            estimate D2E/DX2                !
 ! D9    D(1,2,3,4)              0.0            estimate D2E/DX2                !
 ! D10   D(1,2,3,11)           180.0            estimate D2E/DX2                !
 ! D11   D(12,2,3,4)           180.0            estimate D2E/DX2                !
 ! D12   D(12,2,3,11)           -0.0001         estimate D2E/DX2                !
 ! D13   D(1,2,12,23)          179.9999         estimate D2E/DX2                !
 ! D14   D(3,2,12,23)           -0.0001         estimate D2E/DX2                !
 ! D15   D(2,3,4,5)              0.0            estimate D2E/DX2                !
 ! D16   D(2,3,4,8)           -180.0            estimate D2E/DX2                !
 ! D17   D(11,3,4,5)          -180.0            estimate D2E/DX2                !
 ! D18   D(11,3,4,8)             0.0            estimate D2E/DX2                !
 ! D19   D(2,3,11,23)            0.0002         estimate D2E/DX2                !
 ! D20   D(2,3,11,25)          179.9983         estimate D2E/DX2                !
 ! D21   D(4,3,11,23)         -179.9998         estimate D2E/DX2                !
 ! D22   D(4,3,11,25)           -0.0018         estimate D2E/DX2                !
 ! D23   D(3,4,5,6)              0.0            estimate D2E/DX2                !
 ! D24   D(3,4,5,9)           -180.0            estimate D2E/DX2                !
 ! D25   D(8,4,5,6)           -180.0            estimate D2E/DX2                !
 ! D26   D(8,4,5,9)              0.0            estimate D2E/DX2                !
 ! D27   D(4,5,6,1)              0.0            estimate D2E/DX2                !
 ! D28   D(4,5,6,10)          -180.0            estimate D2E/DX2                !
 ! D29   D(9,5,6,1)            180.0            estimate D2E/DX2                !
 ! D30   D(9,5,6,10)             0.0            estimate D2E/DX2                !
 ! D31   D(3,11,23,12)          -0.0003         estimate D2E/DX2                !
 ! D32   D(3,11,23,13)         179.9993         estimate D2E/DX2                !
 ! D33   D(25,11,23,12)       -179.999          estimate D2E/DX2                !
 ! D34   D(25,11,23,13)          0.0006         estimate D2E/DX2                !
 ! D35   D(3,11,25,24)        -179.9981         estimate D2E/DX2                !
 ! D36   D(23,11,25,24)          0.0            estimate D2E/DX2                !
 ! D37   D(2,12,23,11)           0.0002         estimate D2E/DX2                !
 ! D38   D(2,12,23,13)        -179.9993         estimate D2E/DX2                !
 ! D39   D(15,13,14,16)         -0.0004         estimate D2E/DX2                !
 ! D40   D(15,13,14,17)        179.9997         estimate D2E/DX2                !
 ! D41   D(23,13,14,16)        179.9995         estimate D2E/DX2                !
 ! D42   D(23,13,14,17)         -0.0004         estimate D2E/DX2                !
 ! D43   D(14,13,15,18)          0.0004         estimate D2E/DX2                !
 ! D44   D(14,13,15,24)       -179.9997         estimate D2E/DX2                !
 ! D45   D(23,13,15,18)       -179.9995         estimate D2E/DX2                !
 ! D46   D(23,13,15,24)          0.0004         estimate D2E/DX2                !
 ! D47   D(14,13,23,11)        179.9993         estimate D2E/DX2                !
 ! D48   D(14,13,23,12)         -0.0012         estimate D2E/DX2                !
 ! D49   D(15,13,23,11)         -0.0008         estimate D2E/DX2                !
 ! D50   D(15,13,23,12)        179.9987         estimate D2E/DX2                !
 ! D51   D(13,14,16,19)          0.0001         estimate D2E/DX2                !
 ! D52   D(13,14,16,20)       -179.9999         estimate D2E/DX2                !
 ! D53   D(17,14,16,19)        180.0            estimate D2E/DX2                !
 ! D54   D(17,14,16,20)          0.0            estimate D2E/DX2                !
 ! D55   D(13,15,18,19)         -0.0001         estimate D2E/DX2                !
 ! D56   D(13,15,18,21)        179.9998         estimate D2E/DX2                !
 ! D57   D(24,15,18,19)        180.0            estimate D2E/DX2                !
 ! D58   D(24,15,18,21)         -0.0001         estimate D2E/DX2                !
 ! D59   D(13,15,24,25)          0.0            estimate D2E/DX2                !
 ! D60   D(18,15,24,25)        179.9999         estimate D2E/DX2                !
 ! D61   D(14,16,19,18)          0.0002         estimate D2E/DX2                !
 ! D62   D(14,16,19,22)       -179.9998         estimate D2E/DX2                !
 ! D63   D(20,16,19,18)       -179.9998         estimate D2E/DX2                !
 ! D64   D(20,16,19,22)          0.0001         estimate D2E/DX2                !
 ! D65   D(15,18,19,16)         -0.0002         estimate D2E/DX2                !
 ! D66   D(15,18,19,22)        179.9999         estimate D2E/DX2                !
 ! D67   D(21,18,19,16)        179.9999         estimate D2E/DX2                !
 ! D68   D(21,18,19,22)         -0.0001         estimate D2E/DX2                !
 ! D69   D(15,24,25,11)         -0.0004         estimate D2E/DX2                !
 ! Qtot  GIC-1                  10.0            Frozen                          !
 ! Ptot  GIC-2                 -60.0            Frozen                          !
 --------------------------------------------------------------------------------
 NOTE: GIC-type coordinates are in arbitrary units.
 Trust Radius=3.00D-01 FncErr=5.00D-06 GrdErr=5.00D-06 EigMax=2.50D+02 EigMin=1.00D-04
 Number of steps in this run=    150 maximum allowed number of steps=    150.
 GradGradGradGradGradGradGradGradGradGradGradGradGradGradGradGradGradGrad

 Leave Link  103 at Mon Jul 13 14:50:36 2020, MaxMem=  7784628224 cpu:               0.1 elap:               0.0
 (Enter /gpfs/loomis/apps/avx/software/Gaussian/16-C.01_AVX/g16/l202.exe)
                          Input orientation:                          
 ---------------------------------------------------------------------
 Center     Atomic      Atomic             Coordinates (Angstroms)
 Number     Number       Type             X           Y           Z
 ---------------------------------------------------------------------
      1          6           0        1.705533   -3.267472   -0.000023
      2          6           0        1.002084   -2.063731   -0.000021
      3          6           0        1.689799   -0.818139   -0.000020
      4          6           0        3.098318   -0.790805   -0.000021
      5          6           0        3.785393   -1.993446   -0.000022
      6          6           0        3.101751   -3.222287   -0.000024
      7          1           0        1.180543   -4.224286   -0.000023
      8          1           0        3.617872    0.168690   -0.000020
      9          1           0        4.877204   -1.987384   -0.000022
     10          1           0        3.667437   -4.155434   -0.000025
     11          7           0        0.878718    0.262620   -0.000019
     12         16           0       -0.740518   -1.792666   -0.000019
     13          6           0       -1.399563    1.014052    0.000001
     14          6           0       -2.793657    0.858450   -0.000006
     15          6           0       -0.869371    2.404384    0.000031
     16          6           0       -3.645964    1.975602    0.000023
     17          1           0       -3.225426   -0.145019   -0.000032
     18          6           0       -1.768183    3.496954    0.000060
     19          6           0       -3.144253    3.290445    0.000058
     20          1           0       -4.725320    1.812575    0.000019
     21          1           0       -1.328760    4.495814    0.000084
     22          1           0       -3.830045    4.138316    0.000083
     23          6           0       -0.444888   -0.041658   -0.000015
     24          8           0        0.400145    2.620902    0.000033
     25          1           0        0.924319    1.492674    0.000005
 ---------------------------------------------------------------------
                    Distance matrix (angstroms):
                    1          2          3          4          5
     1  C    0.000000
     2  C    1.394214   0.000000
     3  C    2.449383   1.422833   0.000000
     4  C    2.841430   2.452456   1.408784   0.000000
     5  C    2.439049   2.784197   2.402678   1.385069   0.000000
     6  C    1.396949   2.398093   2.788105   2.431483   1.406207
     7  H    1.091379   2.167913   3.444006   3.932766   3.429562
     8  H    3.932461   3.438903   2.165940   1.091132   2.168616
     9  H    3.420252   3.875872   3.395097   2.143883   1.091827
    10  H    2.153496   3.388116   3.879251   3.412422   2.165204
    11  N    3.625627   2.329620   1.351256   2.456894   3.679483
    12  S    2.856260   1.763558   2.618424   3.967415   4.530363
    13  C    5.288957   3.903929   3.591808   4.846488   5.994065
    14  C    6.104584   4.790281   4.786683   6.118449   7.170580
    15  C    6.228971   4.844213   4.115095   5.094290   6.403728
    16  C    7.491885   6.157967   6.022903   7.289606   8.424869
    17  H    5.836443   4.642553   4.961102   6.356633   7.250398
    18  C    7.604220   6.212536   5.529708   6.485963   7.809398
    19  C    8.156390   6.771951   6.344173   7.458304   8.714327
    20  H    8.195288   6.915845   6.933572   8.245417   9.322985
    21  H    8.335199   6.961355   6.111448   6.895459   8.262267
    22  H    9.245989   7.862242   7.418566   8.502849   9.777187
    23  C    3.876878   2.486465   2.271522   3.621537   4.658836
    24  O    6.031334   4.723147   3.672902   4.349700   5.722946
    25  H    4.823825   3.557255   2.434300   3.152864   4.509853
                    6          7          8          9         10
     6  C    0.000000
     7  H    2.166804   0.000000
     8  H    3.430030   5.023825   0.000000
     9  H    2.162688   4.320767   2.496913   0.000000
    10  H    1.091222   2.487846   4.324408   2.482736   0.000000
    11  N    4.133576   4.497047   2.740763   4.588072   5.224572
    12  S    4.099615   3.098912   4.779380   5.621095   5.001274
    13  C    6.181294   5.839276   5.088152   6.957473   7.238652
    14  C    7.169954   6.452014   6.448525   8.181741   8.178311
    15  C    6.886888   6.938402   5.013350   7.232617   7.975829
    16  C    8.517611   7.857085   7.485201   9.399449   9.543345
    17  H    7.035818   6.004414   6.850485   8.309448   7.974647
    18  C    8.298461   8.265140   6.331423   8.616213   9.386427
    19  C    9.023760   8.670355   7.447932   9.602044  10.091593
    20  H    9.306604   8.445290   8.503600  10.327060  10.298326
    21  H    8.899354   9.073960   6.572150   8.974733   9.990299
    22  H   10.110799   9.748800   8.439750  10.646144  11.180274
    23  C    4.763932   4.487361   4.068201   5.666614   5.816732
    24  O    6.437509   6.889530   4.045628   6.424979   7.522894
    25  H    5.193463   5.722699   3.001360   5.266508   6.278998
                   11         12         13         14         15
    11  N    0.000000
    12  S    2.616510   0.000000
    13  C    2.399003   2.883055   0.000000
    14  C    3.720397   3.353177   1.402751   0.000000
    15  C    2.764592   4.199027   1.487995   2.468358   0.000000
    16  C    4.838084   4.758304   2.443541   1.405153   2.809506
    17  H    4.124339   2.981528   2.162688   1.092417   3.471377
    18  C    4.179354   5.388522   2.510116   2.830778   1.414769
    19  C    5.035079   5.622807   2.868084   2.457136   2.441351
    20  H    5.814431   5.373678   3.420278   2.154455   3.901100
    21  H    4.774190   6.315933   3.482482   3.921268   2.141288
    22  H    6.098644   6.687430   3.958316   3.439712   3.431050
    23  C    1.358130   1.775789   1.423351   2.515335   2.482601
    24  O    2.406351   4.558584   2.412657   3.647822   1.287847
    25  H    1.230899   3.683088   2.372658   3.771682   2.012098
                   16         17         18         19         20
    16  C    0.000000
    17  H    2.161917   0.000000
    18  C    2.416729   3.922694   0.000000
    19  C    1.407312   3.436423   1.391480   0.000000
    20  H    1.091599   2.466143   3.403204   2.164226   0.000000
    21  H    3.423581   5.013450   1.091244   2.179204   4.328556
    22  H    2.170534   4.325797   2.159310   1.090502   2.492105
    23  C    3.783679   2.782459   3.777947   4.288296   4.664792
    24  O    4.097244   4.560163   2.338613   3.607083   5.188813
    25  H    4.595727   4.461213   3.356591   4.448063   5.658689
                   21         22         23         24         25
    21  H    0.000000
    22  H    2.526704   0.000000
    23  C    4.622757   5.378798   0.000000
    24  O    2.550374   4.494112   2.793439   0.000000
    25  H    3.754359   5.440900   2.056429   1.244049   0.000000
 Symmetry turned off by external request.
 Stoichiometry    C13H9NOS
 Framework group  C1[X(C13H9NOS)]
 Deg. of freedom    69
 Full point group                 C1      NOp   1
 Rotational constants (GHZ):           1.3662660           0.2856943           0.2362856
 Leave Link  202 at Mon Jul 13 14:50:36 2020, MaxMem=  7784628224 cpu:               0.1 elap:               0.0
 (Enter /gpfs/loomis/apps/avx/software/Gaussian/16-C.01_AVX/g16/l301.exe)
 Standard basis: CC-pVDZ (5D, 7F)
 Ernie: Thresh=  0.10000D-02 Tol=  0.10000D-05 Strict=F.
 Ernie:  40 primitive shells out of 425 were deleted.
   273 basis functions,   629 primitive gaussians,   289 cartesian basis functions
    59 alpha electrons       59 beta electrons
       nuclear repulsion energy      1096.8583343209 Hartrees.
 IExCor= 4639 DFT=T Ex+Corr=wB97XD ExCW=0 ScaHFX=  1.000000
 ScaDFX=  1.000000  1.000000  1.000000  1.000000 ScalE2=  1.000000  1.000000
 IRadAn=      5 IRanWt=     -1 IRanGd=            0 ICorTp=0 IEmpDi=121
 HFx  wShort=  0.000000 wLong=  0.200000 cFull=  0.222036 cShort=  0.000000 cLong=  0.777964
 DFx  wShort=  0.000000 wLong=  0.200000 cFull=  0.000000 cShort=  0.000000 cLong=  1.000000
 NAtoms=   25 NActive=   25 NUniq=   25 SFac= 1.00D+00 NAtFMM=   60 NAOKFM=F Big=F
 Integral buffers will be    131072 words long.
 Raffenetti 1 integral format.
 Two-electron integral symmetry is turned off.
 R6Disp:  Grimme-D2 Dispersion energy=       -0.0140005688 Hartrees.
 Nuclear repulsion after empirical dispersion term =     1096.8443337522 Hartrees.
 ------------------------------------------------------------------------------
 Polarizable Continuum Model (PCM)
 =================================
 Model                : PCM.
 Atomic radii         : UFF (Universal Force Field).
 Polarization charges : Total charges.
 Charge compensation  : None.
 Solution method      : On-the-fly selection.
 Cavity type          : Scaled VdW (van der Waals Surface) (Alpha=1.100).
 Cavity algorithm     : GePol (No added spheres)
                        Default sphere list used, NSphG=   25.
                        Lebedev-Laikov grids with approx.  5.0 points / Ang**2.
                        Smoothing algorithm: York/Karplus (Gamma=1.0000).
                        Polarization charges: spherical gaussians, with
                                              point-specific exponents (IZeta= 3).
                        Self-potential: point-specific (ISelfS= 7).
                        Self-field    : sphere-specific E.n sum rule (ISelfD= 2).
 1st derivatives      : Analytical E(r).r(x)/FMM algorithm (CHGder, D1EAlg=3).
                        Cavity 1st derivative terms included.
 Solvent              : CarbonTetraChloride, Eps=   2.228000 Eps(inf)=   2.131892
 ------------------------------------------------------------------------------
 GePol: Number of generator spheres                  =      25
 GePol: Total number of spheres                      =      25
 GePol: Number of exposed spheres                    =      25 (100.00%)
 GePol: Number of points                             =    2200
 GePol: Average weight of points                     =       0.12
 GePol: Minimum weight of points                     =   0.12D-09
 GePol: Maximum weight of points                     =    0.20577
 GePol: Number of points with low weight             =     155
 GePol: Fraction of low-weight points (<1% of avg)   =       7.05%
 GePol: Cavity surface area                          =    274.953 Ang**2
 GePol: Cavity volume                                =    294.090 Ang**3
 Leave Link  301 at Mon Jul 13 14:50:36 2020, MaxMem=  7784628224 cpu:               0.8 elap:               0.1
 (Enter /gpfs/loomis/apps/avx/software/Gaussian/16-C.01_AVX/g16/l302.exe)
 NPDir=0 NMtPBC=     1 NCelOv=     1 NCel=       1 NClECP=     1 NCelD=      1
         NCelK=      1 NCelE2=     1 NClLst=     1 CellRange=     0.0.
 One-electron integrals computed using PRISM.
 NBasis=   273 RedAO= T EigKep=  3.11D-04  NBF=   273
 NBsUse=   273 1.00D-06 EigRej= -1.00D+00 NBFU=   273
 Precomputing XC quadrature grid using
 IXCGrd= 4 IRadAn=           5 IRanWt=          -1 IRanGd=           0 AccXCQ= 0.00D+00.
 Generated NRdTot=       0 NPtTot=           0 NUsed=           0 NTot=          32
 NSgBfM=   288   288   288   288   288 MxSgAt=    25 MxSgA2=    25.
 Leave Link  302 at Mon Jul 13 14:50:37 2020, MaxMem=  7784628224 cpu:               4.1 elap:               0.5
 (Enter /gpfs/loomis/apps/avx/software/Gaussian/16-C.01_AVX/g16/l303.exe)
 DipDrv:  MaxL=1.
 Leave Link  303 at Mon Jul 13 14:50:37 2020, MaxMem=  7784628224 cpu:               0.4 elap:               0.1
 (Enter /gpfs/loomis/apps/avx/software/Gaussian/16-C.01_AVX/g16/l308.exe)
 Leave Link  308 at Mon Jul 13 14:50:37 2020, MaxMem=  7784628224 cpu:               1.2 elap:               0.2
 (Enter /gpfs/loomis/apps/avx/software/Gaussian/16-C.01_AVX/g16/l401.exe)
 ExpMin= 1.22D-01 ExpMax= 1.11D+05 ExpMxC= 1.07D+03 IAcc=3 IRadAn=         5 AccDes= 0.00D+00
 Harris functional with IExCor= 4639 and IRadAn=       5 diagonalized for initial guess.
 HarFok:  IExCor= 4639 AccDes= 0.00D+00 IRadAn=         5 IDoV= 1 UseB2=F ITyADJ=14
 ICtDFT=  3500011 ScaDFX=  1.000000  1.000000  1.000000  1.000000
 FoFCou: FMM=F IPFlag=           0 FMFlag=      100000 FMFlg1=           0
         NFxFlg=           0 DoJE=T BraDBF=F KetDBF=T FulRan=T
         wScrn=  0.000000 ICntrl=       500 IOpCl=  0 I1Cent=   200000004 NGrid=           0
         NMat0=    1 NMatS0=      1 NMatT0=    0 NMatD0=    1 NMtDS0=    0 NMtDT0=    0
 Symmetry not used in FoFCou.
 Harris En= -994.460777478628    
 JPrj=0 DoOrth=F DoCkMO=F.
 Leave Link  401 at Mon Jul 13 14:50:38 2020, MaxMem=  7784628224 cpu:              14.0 elap:               1.4
 (Enter /gpfs/loomis/apps/avx/software/Gaussian/16-C.01_AVX/g16/l502.exe)
 Two-electron integral symmetry not used.
 Closed shell SCF:
 Using DIIS extrapolation, IDIIS=  1040.
 NGot=  7784628224 LenX=  7784455381 LenY=  7784371419
 Requested convergence on RMS density matrix=1.00D-08 within 128 cycles.
 Requested convergence on MAX density matrix=1.00D-06.
 Requested convergence on             energy=1.00D-06.
 No special actions if energy rises.
 Fock matrices will be formed incrementally for  20 cycles.

 Cycle   1  Pass 1  IDiag  1:
 FoFJK:  IHMeth= 1 ICntrl=       0 DoSepK=T KAlg= 0 I1Cent=           0 FoldK=F
 IRaf=         1 NMat=       1 IRICut=       1 DoRegI=T DoRafI=F ISym2E= 0 IDoP0=0 IntGTp=1.
 FoFCou: FMM=F IPFlag=           0 FMFlag=      100000 FMFlg1=           0
         NFxFlg=           0 DoJE=T BraDBF=F KetDBF=F FulRan=T
         wScrn=  0.000000 ICntrl=       500 IOpCl=  0 I1Cent=           0 NGrid=           0
         NMat0=    1 NMatS0=      1 NMatT0=    0 NMatD0=    1 NMtDS0=    0 NMtDT0=    0
 Symmetry not used in FoFCou.
 Inv3:  Mode=1 IEnd=    14520000.
 Iteration    1 A*A^-1 deviation from unit magnitude is 4.44D-15 for   2167.
 Iteration    1 A*A^-1 deviation from orthogonality  is 1.68D-15 for    891     98.
 Iteration    1 A^-1*A deviation from unit magnitude is 4.44D-15 for   2167.
 Iteration    1 A^-1*A deviation from orthogonality  is 1.30D-15 for   1114    655.
 E= -1028.56882465016    
 DIIS: error= 3.77D-02 at cycle   1 NSaved=   1.
 NSaved= 1 IEnMin= 1 EnMin= -1028.56882465016     IErMin= 1 ErrMin= 3.77D-02
 ErrMax= 3.77D-02  0.00D+00 EMaxC= 1.00D-01 BMatC= 3.94D-01 BMatP= 3.94D-01
 IDIUse=3 WtCom= 6.23D-01 WtEn= 3.77D-01
 Coeff-Com:  0.100D+01
 Coeff-En:   0.100D+01
 Coeff:      0.100D+01
 Gap=     0.340 Goal=   None    Shift=    0.000
 GapD=    0.340 DampG=1.000 DampE=0.500 DampFc=0.5000 IDamp=-1.
 Damping current iteration by 5.00D-01
 RMSDP=3.55D-03 MaxDP=2.28D-01              OVMax= 1.81D-01

 Cycle   2  Pass 1  IDiag  1:
 RMSU=  1.77D-03    CP:  9.93D-01
 E= -1028.68856895206     Delta-E=       -0.119744301897 Rises=F Damp=T
 DIIS: error= 1.14D-02 at cycle   2 NSaved=   2.
 NSaved= 2 IEnMin= 2 EnMin= -1028.68856895206     IErMin= 2 ErrMin= 1.14D-02
 ErrMax= 1.14D-02  0.00D+00 EMaxC= 1.00D-01 BMatC= 5.79D-02 BMatP= 3.94D-01
 IDIUse=3 WtCom= 8.86D-01 WtEn= 1.14D-01
 Coeff-Com: -0.287D+00 0.129D+01
 Coeff-En:   0.000D+00 0.100D+01
 Coeff:     -0.254D+00 0.125D+01
 Gap=     0.298 Goal=   None    Shift=    0.000
 RMSDP=1.15D-03 MaxDP=2.46D-02 DE=-1.20D-01 OVMax= 1.19D-01

 Cycle   3  Pass 1  IDiag  1:
 RMSU=  1.10D-03    CP:  9.92D-01  1.19D+00
 E= -1028.79503794346     Delta-E=       -0.106468991403 Rises=F Damp=F
 DIIS: error= 6.09D-03 at cycle   3 NSaved=   3.
 NSaved= 3 IEnMin= 3 EnMin= -1028.79503794346     IErMin= 3 ErrMin= 6.09D-03
 ErrMax= 6.09D-03  0.00D+00 EMaxC= 1.00D-01 BMatC= 1.40D-02 BMatP= 5.79D-02
 IDIUse=3 WtCom= 9.39D-01 WtEn= 6.09D-02
 Coeff-Com: -0.201D+00 0.484D+00 0.717D+00
 Coeff-En:   0.000D+00 0.000D+00 0.100D+01
 Coeff:     -0.189D+00 0.455D+00 0.734D+00
 Gap=     0.254 Goal=   None    Shift=    0.000
 RMSDP=5.31D-04 MaxDP=1.60D-02 DE=-1.06D-01 OVMax= 3.87D-02

 Cycle   4  Pass 1  IDiag  1:
 RMSU=  4.20D-04    CP:  9.89D-01  1.35D+00  8.45D-01
 E= -1028.80828132730     Delta-E=       -0.013243383833 Rises=F Damp=F
 DIIS: error= 2.09D-03 at cycle   4 NSaved=   4.
 NSaved= 4 IEnMin= 4 EnMin= -1028.80828132730     IErMin= 4 ErrMin= 2.09D-03
 ErrMax= 2.09D-03  0.00D+00 EMaxC= 1.00D-01 BMatC= 1.73D-03 BMatP= 1.40D-02
 IDIUse=3 WtCom= 9.79D-01 WtEn= 2.09D-02
 Coeff-Com: -0.717D-01 0.142D+00 0.350D+00 0.579D+00
 Coeff-En:   0.000D+00 0.000D+00 0.000D+00 0.100D+01
 Coeff:     -0.702D-01 0.139D+00 0.343D+00 0.588D+00
 Gap=     0.252 Goal=   None    Shift=    0.000
 RMSDP=1.69D-04 MaxDP=1.00D-02 DE=-1.32D-02 OVMax= 1.34D-02

 Cycle   5  Pass 1  IDiag  1:
 RMSU=  1.06D-04    CP:  9.89D-01  1.36D+00  9.15D-01  7.50D-01
 E= -1028.81011915542     Delta-E=       -0.001837828124 Rises=F Damp=F
 DIIS: error= 4.29D-04 at cycle   5 NSaved=   5.
 NSaved= 5 IEnMin= 5 EnMin= -1028.81011915542     IErMin= 5 ErrMin= 4.29D-04
 ErrMax= 4.29D-04  0.00D+00 EMaxC= 1.00D-01 BMatC= 5.35D-05 BMatP= 1.73D-03
 IDIUse=3 WtCom= 9.96D-01 WtEn= 4.29D-03
 Coeff-Com: -0.199D-02-0.210D-02 0.355D-01 0.161D+00 0.808D+00
 Coeff-En:   0.000D+00 0.000D+00 0.000D+00 0.000D+00 0.100D+01
 Coeff:     -0.198D-02-0.209D-02 0.354D-01 0.160D+00 0.808D+00
 Gap=     0.253 Goal=   None    Shift=    0.000
 RMSDP=5.23D-05 MaxDP=1.54D-03 DE=-1.84D-03 OVMax= 5.12D-03

 Cycle   6  Pass 1  IDiag  1:
 RMSU=  3.36D-05    CP:  9.89D-01  1.36D+00  9.33D-01  8.30D-01  1.07D+00
 E= -1028.81023206796     Delta-E=       -0.000112912544 Rises=F Damp=F
 DIIS: error= 1.81D-04 at cycle   6 NSaved=   6.
 NSaved= 6 IEnMin= 6 EnMin= -1028.81023206796     IErMin= 6 ErrMin= 1.81D-04
 ErrMax= 1.81D-04  0.00D+00 EMaxC= 1.00D-01 BMatC= 9.79D-06 BMatP= 5.35D-05
 IDIUse=3 WtCom= 9.98D-01 WtEn= 1.81D-03
 Coeff-Com:  0.147D-01-0.306D-01-0.582D-01-0.606D-01 0.224D+00 0.910D+00
 Coeff-En:   0.000D+00 0.000D+00 0.000D+00 0.000D+00 0.000D+00 0.100D+01
 Coeff:      0.147D-01-0.305D-01-0.581D-01-0.605D-01 0.224D+00 0.911D+00
 Gap=     0.254 Goal=   None    Shift=    0.000
 RMSDP=3.03D-05 MaxDP=1.49D-03 DE=-1.13D-04 OVMax= 2.99D-03

 Cycle   7  Pass 1  IDiag  1:
 RMSU=  1.56D-05    CP:  9.89D-01  1.36D+00  9.43D-01  8.59D-01  1.24D+00
                    CP:  1.26D+00
 E= -1028.81026044425     Delta-E=       -0.000028376289 Rises=F Damp=F
 DIIS: error= 1.25D-04 at cycle   7 NSaved=   7.
 NSaved= 7 IEnMin= 7 EnMin= -1028.81026044425     IErMin= 7 ErrMin= 1.25D-04
 ErrMax= 1.25D-04  0.00D+00 EMaxC= 1.00D-01 BMatC= 2.20D-06 BMatP= 9.79D-06
 IDIUse=3 WtCom= 9.99D-01 WtEn= 1.25D-03
 Coeff-Com:  0.661D-02-0.126D-01-0.296D-01-0.480D-01-0.114D-01 0.398D+00
 Coeff-Com:  0.697D+00
 Coeff-En:   0.000D+00 0.000D+00 0.000D+00 0.000D+00 0.000D+00 0.000D+00
 Coeff-En:   0.100D+01
 Coeff:      0.660D-02-0.126D-01-0.296D-01-0.479D-01-0.113D-01 0.397D+00
 Coeff:      0.697D+00
 Gap=     0.254 Goal=   None    Shift=    0.000
 RMSDP=1.06D-05 MaxDP=4.40D-04 DE=-2.84D-05 OVMax= 1.34D-03

 Cycle   8  Pass 1  IDiag  1:
 RMSU=  6.43D-06    CP:  9.89D-01  1.36D+00  9.45D-01  8.65D-01  1.27D+00
                    CP:  1.45D+00  1.13D+00
 E= -1028.81026509159     Delta-E=       -0.000004647336 Rises=F Damp=F
 DIIS: error= 4.51D-05 at cycle   8 NSaved=   8.
 NSaved= 8 IEnMin= 8 EnMin= -1028.81026509159     IErMin= 8 ErrMin= 4.51D-05
 ErrMax= 4.51D-05  0.00D+00 EMaxC= 1.00D-01 BMatC= 3.45D-07 BMatP= 2.20D-06
 IDIUse=1 WtCom= 1.00D+00 WtEn= 0.00D+00
 Coeff-Com: -0.123D-02 0.274D-02 0.422D-02 0.982D-03-0.401D-01-0.775D-01
 Coeff-Com:  0.225D+00 0.886D+00
 Coeff:     -0.123D-02 0.274D-02 0.422D-02 0.982D-03-0.401D-01-0.775D-01
 Coeff:      0.225D+00 0.886D+00
 Gap=     0.254 Goal=   None    Shift=    0.000
 RMSDP=5.53D-06 MaxDP=1.54D-04 DE=-4.65D-06 OVMax= 8.21D-04

 Cycle   9  Pass 1  IDiag  1:
 RMSU=  2.52D-06    CP:  9.89D-01  1.36D+00  9.44D-01  8.65D-01  1.29D+00
                    CP:  1.54D+00  1.36D+00  1.19D+00
 E= -1028.81026614264     Delta-E=       -0.000001051055 Rises=F Damp=F
 DIIS: error= 1.98D-05 at cycle   9 NSaved=   9.
 NSaved= 9 IEnMin= 9 EnMin= -1028.81026614264     IErMin= 9 ErrMin= 1.98D-05
 ErrMax= 1.98D-05  0.00D+00 EMaxC= 1.00D-01 BMatC= 5.12D-08 BMatP= 3.45D-07
 IDIUse=1 WtCom= 1.00D+00 WtEn= 0.00D+00
 Coeff-Com: -0.118D-02 0.235D-02 0.507D-02 0.679D-02-0.975D-02-0.867D-01
 Coeff-Com: -0.224D-01 0.252D+00 0.854D+00
 Coeff:     -0.118D-02 0.235D-02 0.507D-02 0.679D-02-0.975D-02-0.867D-01
 Coeff:     -0.224D-01 0.252D+00 0.854D+00
 Gap=     0.254 Goal=   None    Shift=    0.000
 RMSDP=2.63D-06 MaxDP=6.38D-05 DE=-1.05D-06 OVMax= 4.44D-04

 Cycle  10  Pass 1  IDiag  1:
 RMSU=  1.20D-06    CP:  9.89D-01  1.36D+00  9.44D-01  8.65D-01  1.29D+00
                    CP:  1.57D+00  1.45D+00  1.37D+00  1.26D+00
 E= -1028.81026636887     Delta-E=       -0.000000226227 Rises=F Damp=F
 DIIS: error= 8.45D-06 at cycle  10 NSaved=  10.
 NSaved=10 IEnMin=10 EnMin= -1028.81026636887     IErMin=10 ErrMin= 8.45D-06
 ErrMax= 8.45D-06  0.00D+00 EMaxC= 1.00D-01 BMatC= 1.67D-08 BMatP= 5.12D-08
 IDIUse=1 WtCom= 1.00D+00 WtEn= 0.00D+00
 Coeff-Com: -0.160D-03 0.257D-03 0.996D-03 0.249D-02 0.527D-02-0.200D-01
 Coeff-Com: -0.518D-01-0.114D+00 0.345D+00 0.833D+00
 Coeff:     -0.160D-03 0.257D-03 0.996D-03 0.249D-02 0.527D-02-0.200D-01
 Coeff:     -0.518D-01-0.114D+00 0.345D+00 0.833D+00
 Gap=     0.254 Goal=   None    Shift=    0.000
 RMSDP=1.47D-06 MaxDP=3.45D-05 DE=-2.26D-07 OVMax= 2.43D-04

 Cycle  11  Pass 1  IDiag  1:
 RMSU=  5.62D-07    CP:  9.89D-01  1.36D+00  9.44D-01  8.65D-01  1.29D+00
                    CP:  1.58D+00  1.50D+00  1.47D+00  1.60D+00  1.19D+00
 E= -1028.81026643052     Delta-E=       -0.000000061649 Rises=F Damp=F
 DIIS: error= 4.77D-06 at cycle  11 NSaved=  11.
 NSaved=11 IEnMin=11 EnMin= -1028.81026643052     IErMin=11 ErrMin= 4.77D-06
 ErrMax= 4.77D-06  0.00D+00 EMaxC= 1.00D-01 BMatC= 2.44D-09 BMatP= 1.67D-08
 IDIUse=1 WtCom= 1.00D+00 WtEn= 0.00D+00
 Coeff-Com:  0.257D-03-0.529D-03-0.947D-03-0.883D-03 0.464D-02 0.116D-01
 Coeff-Com: -0.626D-02-0.921D-01-0.531D-01 0.226D+00 0.911D+00
 Coeff:      0.257D-03-0.529D-03-0.947D-03-0.883D-03 0.464D-02 0.116D-01
 Coeff:     -0.626D-02-0.921D-01-0.531D-01 0.226D+00 0.911D+00
 Gap=     0.254 Goal=   None    Shift=    0.000
 RMSDP=6.34D-07 MaxDP=1.88D-05 DE=-6.16D-08 OVMax= 1.22D-04

 Cycle  12  Pass 1  IDiag  1:
 RMSU=  2.19D-07    CP:  9.89D-01  1.36D+00  9.44D-01  8.65D-01  1.29D+00
                    CP:  1.59D+00  1.51D+00  1.50D+00  1.75D+00  1.47D+00
                    CP:  1.16D+00
 E= -1028.81026644224     Delta-E=       -0.000000011718 Rises=F Damp=F
 DIIS: error= 1.25D-06 at cycle  12 NSaved=  12.
 NSaved=12 IEnMin=12 EnMin= -1028.81026644224     IErMin=12 ErrMin= 1.25D-06
 ErrMax= 1.25D-06  0.00D+00 EMaxC= 1.00D-01 BMatC= 6.92D-10 BMatP= 2.44D-09
 IDIUse=1 WtCom= 1.00D+00 WtEn= 0.00D+00
 Coeff-Com:  0.127D-03-0.249D-03-0.548D-03-0.862D-03 0.107D-02 0.835D-02
 Coeff-Com:  0.874D-02-0.176D-01-0.938D-01-0.112D+00 0.357D+00 0.849D+00
 Coeff:      0.127D-03-0.249D-03-0.548D-03-0.862D-03 0.107D-02 0.835D-02
 Coeff:      0.874D-02-0.176D-01-0.938D-01-0.112D+00 0.357D+00 0.849D+00
 Gap=     0.254 Goal=   None    Shift=    0.000
 RMSDP=3.34D-07 MaxDP=7.64D-06 DE=-1.17D-08 OVMax= 5.30D-05

 Cycle  13  Pass 1  IDiag  1:
 RMSU=  8.69D-08    CP:  9.89D-01  1.36D+00  9.44D-01  8.65D-01  1.29D+00
                    CP:  1.59D+00  1.51D+00  1.51D+00  1.83D+00  1.59D+00
                    CP:  1.43D+00  1.12D+00
 E= -1028.81026644450     Delta-E=       -0.000000002266 Rises=F Damp=F
 DIIS: error= 5.36D-07 at cycle  13 NSaved=  13.
 NSaved=13 IEnMin=13 EnMin= -1028.81026644450     IErMin=13 ErrMin= 5.36D-07
 ErrMax= 5.36D-07  0.00D+00 EMaxC= 1.00D-01 BMatC= 4.95D-11 BMatP= 6.92D-10
 IDIUse=1 WtCom= 1.00D+00 WtEn= 0.00D+00
 Coeff-Com:  0.899D-07 0.306D-05-0.208D-04-0.133D-03-0.190D-03 0.758D-03
 Coeff-Com:  0.349D-02 0.720D-02-0.151D-01-0.627D-01-0.198D-01 0.231D+00
 Coeff-Com:  0.856D+00
 Coeff:      0.899D-07 0.306D-05-0.208D-04-0.133D-03-0.190D-03 0.758D-03
 Coeff:      0.349D-02 0.720D-02-0.151D-01-0.627D-01-0.198D-01 0.231D+00
 Coeff:      0.856D+00
 Gap=     0.254 Goal=   None    Shift=    0.000
 RMSDP=7.19D-08 MaxDP=1.94D-06 DE=-2.27D-09 OVMax= 1.05D-05

 Cycle  14  Pass 1  IDiag  1:
 RMSU=  3.45D-08    CP:  9.89D-01  1.36D+00  9.44D-01  8.65D-01  1.29D+00
                    CP:  1.59D+00  1.51D+00  1.51D+00  1.84D+00  1.61D+00
                    CP:  1.49D+00  1.26D+00  1.09D+00
 E= -1028.81026644464     Delta-E=       -0.000000000134 Rises=F Damp=F
 DIIS: error= 1.75D-07 at cycle  14 NSaved=  14.
 NSaved=14 IEnMin=14 EnMin= -1028.81026644464     IErMin=14 ErrMin= 1.75D-07
 ErrMax= 1.75D-07  0.00D+00 EMaxC= 1.00D-01 BMatC= 1.20D-11 BMatP= 4.95D-11
 IDIUse=1 WtCom= 1.00D+00 WtEn= 0.00D+00
 Coeff-Com: -0.133D-04 0.276D-04 0.489D-04 0.273D-04-0.187D-03-0.495D-03
 Coeff-Com:  0.733D-03 0.501D-02 0.288D-02-0.174D-01-0.454D-01 0.124D-01
 Coeff-Com:  0.396D+00 0.646D+00
 Coeff:     -0.133D-04 0.276D-04 0.489D-04 0.273D-04-0.187D-03-0.495D-03
 Coeff:      0.733D-03 0.501D-02 0.288D-02-0.174D-01-0.454D-01 0.124D-01
 Coeff:      0.396D+00 0.646D+00
 Gap=     0.254 Goal=   None    Shift=    0.000
 RMSDP=2.11D-08 MaxDP=5.71D-07 DE=-1.34D-10 OVMax= 1.95D-06

 Cycle  15  Pass 1  IDiag  1:
 RMSU=  1.33D-08    CP:  9.89D-01  1.36D+00  9.44D-01  8.65D-01  1.29D+00
                    CP:  1.59D+00  1.51D+00  1.51D+00  1.84D+00  1.62D+00
                    CP:  1.50D+00  1.29D+00  1.21D+00  9.13D-01
 E= -1028.81026644466     Delta-E=       -0.000000000018 Rises=F Damp=F
 DIIS: error= 6.97D-08 at cycle  15 NSaved=  15.
 NSaved=15 IEnMin=15 EnMin= -1028.81026644466     IErMin=15 ErrMin= 6.97D-08
 ErrMax= 6.97D-08  0.00D+00 EMaxC= 1.00D-01 BMatC= 9.96D-13 BMatP= 1.20D-11
 IDIUse=1 WtCom= 1.00D+00 WtEn= 0.00D+00
 Coeff-Com: -0.380D-05 0.720D-05 0.190D-04 0.317D-04-0.248D-04-0.339D-03
 Coeff-Com: -0.498D-03 0.405D-04 0.399D-02 0.723D-02-0.877D-02-0.418D-01
 Coeff-Com: -0.353D-01 0.181D+00 0.894D+00
 Coeff:     -0.380D-05 0.720D-05 0.190D-04 0.317D-04-0.248D-04-0.339D-03
 Coeff:     -0.498D-03 0.405D-04 0.399D-02 0.723D-02-0.877D-02-0.418D-01
 Coeff:     -0.353D-01 0.181D+00 0.894D+00
 Gap=     0.254 Goal=   None    Shift=    0.000
 RMSDP=8.91D-09 MaxDP=2.12D-07 DE=-1.82D-11 OVMax= 9.89D-07

 Error on total polarization charges =  0.00827
 SCF Done:  E(RwB97XD) =  -1028.81026644     A.U. after   15 cycles
            NFock= 15  Conv=0.89D-08     -V/T= 2.0050
 KE= 1.023663562761D+03 PE=-4.605725569396D+03 EE= 1.456407406439D+03
 Leave Link  502 at Mon Jul 13 14:52:02 2020, MaxMem=  7784628224 cpu:             826.8 elap:              83.4
 (Enter /gpfs/loomis/apps/avx/software/Gaussian/16-C.01_AVX/g16/l801.exe)
 DoSCS=F DFT=T ScalE2(SS,OS)=  1.000000  1.000000
 ExpMin= 1.22D-01 ExpMax= 1.11D+05 ExpMxC= 1.07D+03 IAcc=3 IRadAn=         5 AccDes= 0.00D+00
 HarFok:  IExCor=  205 AccDes= 0.00D+00 IRadAn=         5 IDoV=-2 UseB2=F ITyADJ=14
 ICtDFT= 12500011 ScaDFX=  1.000000  1.000000  1.000000  1.000000
 Largest valence mixing into a core orbital is  9.56D-05
 Largest core mixing into a valence orbital is  2.89D-05
 Range of M.O.s used for correlation:    21   273
 NBasis=   273 NAE=    59 NBE=    59 NFC=    20 NFV=     0
 NROrb=    253 NOA=    39 NOB=    39 NVA=   214 NVB=   214

 **** Warning!!: The largest alpha MO coefficient is  0.10196236D+02

 Leave Link  801 at Mon Jul 13 14:52:02 2020, MaxMem=  7784628224 cpu:               2.0 elap:               0.3
 (Enter /gpfs/loomis/apps/avx/software/Gaussian/16-C.01_AVX/g16/l914.exe)
 RHF ground state
 Keep R1, R2, and R3 ints in memory in canonical form, NReq=4262515490.
 FoFCou: FMM=F IPFlag=           0 FMFlag=           0 FMFlg1=           0
         NFxFlg=           0 DoJE=F BraDBF=F KetDBF=F FulRan=T
         wScrn=  0.000000 ICntrl=       600 IOpCl=  0 I1Cent=           0 NGrid=           0
         NMat0=    1 NMatS0=  37401 NMatT0=    0 NMatD0=    1 NMtDS0=    0 NMtDT0=    0
 Symmetry not used in FoFCou.
 Two-electron integral symmetry not used.
 MDV=  7784628224 DFT=T DoStab=F Mixed=T DoRPA=T DoScal=F NonHer=T
 NEqPCM:  Using equilibrium solvation (IEInf=0, Eps=   2.2280, EpsInf=   2.1319)
 Making orbital integer symmetry assigments:
    12 initial guesses have been made.
 Convergence on wavefunction:    0.000001000000000
 Davidson Disk Diagonalization:  ConvIn= 1.00D-06 SkipCon=T Conv= 1.00D-06.
 Max sub-space:  2000 roots to seek:    12 dimension of matrix:        16692
 Iteration     1 Dimension    12 NMult     0 NNew     12
 CISAX will form    12 AO SS matrices at one time.
 NMat=    12 NSing=    12 JSym2X= 0.
 New state      2 was old state      5
 New state      3 was old state      2
 Excitation Energies [eV] at current iteration:
 Root      1 :     3.750148203181210
 Root      2 :     4.728092415162532
 Root      3 :     4.953647862175425
 Root      4 :     5.173395917137594
 Root      5 :     5.749626747920421
 Root      6 :     6.054226102122085
 Root      7 :     6.309309501419277
 Root      8 :     6.356306388492578
 Root      9 :     6.825796120085524
 Root     10 :     7.047021162937782
 Root     11 :     7.201001149876086
 Root     12 :     7.952723061637407
 Iteration     2 Dimension    18 NMult    12 NNew      6
 CISAX will form     6 AO SS matrices at one time.
 NMat=     6 NSing=     6 JSym2X= 0.
 Root      1 not converged, maximum delta is    0.048154113789104
 New state      2 was old state      3
 Root      2 not converged, maximum delta is    0.075926878881498
 New state      3 was old state      2
 Root      3 not converged, maximum delta is    0.077812619078589
 Excitation Energies [eV] at current iteration:
 Root      1 :     3.253009785067612   Change is   -0.497138418113598
 Root      2 :     4.405914345824388   Change is   -0.547733516351037
 Root      3 :     4.519732560706285   Change is   -0.208359854456246
 Iteration     3 Dimension    24 NMult    18 NNew      6
 CISAX will form     6 AO SS matrices at one time.
 NMat=     6 NSing=     6 JSym2X= 0.
 Root      1 not converged, maximum delta is    0.019134645873929
 Root      2 not converged, maximum delta is    0.018015978426418
 Root      3 not converged, maximum delta is    0.029870938734201
 Excitation Energies [eV] at current iteration:
 Root      1 :     3.219656109285113   Change is   -0.033353675782499
 Root      2 :     4.375901310682026   Change is   -0.030013035142362
 Root      3 :     4.502321790317184   Change is   -0.017410770389101
 Iteration     4 Dimension    30 NMult    24 NNew      6
 CISAX will form     6 AO SS matrices at one time.
 NMat=     6 NSing=     6 JSym2X= 0.
 Root      1 not converged, maximum delta is    0.008095209055070
 Root      2 not converged, maximum delta is    0.009444244616102
 Root      3 not converged, maximum delta is    0.009484249094649
 Excitation Energies [eV] at current iteration:
 Root      1 :     3.214400974793481   Change is   -0.005255134491631
 Root      2 :     4.370237354829806   Change is   -0.005663955852220
 Root      3 :     4.500736708245011   Change is   -0.001585082072173
 Iteration     5 Dimension    36 NMult    30 NNew      6
 CISAX will form     6 AO SS matrices at one time.
 NMat=     6 NSing=     6 JSym2X= 0.
 Root      1 not converged, maximum delta is    0.003147759408045
 Root      2 not converged, maximum delta is    0.003070023626107
 Root      3 not converged, maximum delta is    0.001989219782153
 Excitation Energies [eV] at current iteration:
 Root      1 :     3.213892858987309   Change is   -0.000508115806172
 Root      2 :     4.369697317931741   Change is   -0.000540036898065
 Root      3 :     4.500591297861107   Change is   -0.000145410383904
 Iteration     6 Dimension    42 NMult    36 NNew      6
 CISAX will form     6 AO SS matrices at one time.
 NMat=     6 NSing=     6 JSym2X= 0.
 Root      1 not converged, maximum delta is    0.000494625577489
 Root      2 not converged, maximum delta is    0.000949944771191
 Root      3 not converged, maximum delta is    0.000274916005524
 Excitation Energies [eV] at current iteration:
 Root      1 :     3.213838219958555   Change is   -0.000054639028754
 Root      2 :     4.369624629636994   Change is   -0.000072688294747
 Root      3 :     4.500580496853425   Change is   -0.000010801007682
 Iteration     7 Dimension    48 NMult    42 NNew      6
 CISAX will form     6 AO SS matrices at one time.
 NMat=     6 NSing=     6 JSym2X= 0.
 Root      1 not converged, maximum delta is    0.000159600233447
 Root      2 not converged, maximum delta is    0.000658097900184
 Root      3 not converged, maximum delta is    0.000066064488731
 Excitation Energies [eV] at current iteration:
 Root      1 :     3.213834857605609   Change is   -0.000003362352946
 Root      2 :     4.369615558050553   Change is   -0.000009071586441
 Root      3 :     4.500579921039249   Change is   -0.000000575814177
 Iteration     8 Dimension    54 NMult    48 NNew      6
 CISAX will form     6 AO SS matrices at one time.
 NMat=     6 NSing=     6 JSym2X= 0.
 Root      1 not converged, maximum delta is    0.000031892888065
 Root      2 not converged, maximum delta is    0.000191860612582
 Root      3 not converged, maximum delta is    0.000033541923747
 Excitation Energies [eV] at current iteration:
 Root      1 :     3.213834592729527   Change is   -0.000000264876082
 Root      2 :     4.369614600705776   Change is   -0.000000957344777
 Root      3 :     4.500579871814287   Change is   -0.000000049224961
 Iteration     9 Dimension    60 NMult    54 NNew      6
 CISAX will form     6 AO SS matrices at one time.
 NMat=     6 NSing=     6 JSym2X= 0.
 Root      1 not converged, maximum delta is    0.000009454943586
 Root      2 not converged, maximum delta is    0.000094981336382
 Root      3 not converged, maximum delta is    0.000011426501254
 Excitation Energies [eV] at current iteration:
 Root      1 :     3.213834576458379   Change is   -0.000000016271147
 Root      2 :     4.369614455893286   Change is   -0.000000144812490
 Root      3 :     4.500579866994680   Change is   -0.000000004819608
 Iteration    10 Dimension    66 NMult    60 NNew      6
 CISAX will form     6 AO SS matrices at one time.
 NMat=     6 NSing=     6 JSym2X= 0.
 Root      1 not converged, maximum delta is    0.000002041531860
 Root      2 not converged, maximum delta is    0.000054434080979
 Root      3 not converged, maximum delta is    0.000004138996074
 Excitation Energies [eV] at current iteration:
 Root      1 :     3.213834575385559   Change is   -0.000000001072820
 Root      2 :     4.369614426739778   Change is   -0.000000029153508
 Root      3 :     4.500579866546195   Change is   -0.000000000448485
 Iteration    11 Dimension    72 NMult    66 NNew      6
 CISAX will form     6 AO SS matrices at one time.
 NMat=     6 NSing=     6 JSym2X= 0.
 Root      1 has converged.
 Root      2 not converged, maximum delta is    0.000011055685012
 Root      3 not converged, maximum delta is    0.000001929778694
 Excitation Energies [eV] at current iteration:
 Root      1 :     3.213834575311968   Change is   -0.000000000073592
 Root      2 :     4.369614423819423   Change is   -0.000000002920355
 Root      3 :     4.500579866485661   Change is   -0.000000000060533
 Iteration    12 Dimension    76 NMult    72 NNew      4
 CISAX will form     4 AO SS matrices at one time.
 NMat=     4 NSing=     4 JSym2X= 0.
 Root      1 has converged.
 Root      2 not converged, maximum delta is    0.000001301494558
 Root      3 has converged.
 Excitation Energies [eV] at current iteration:
 Root      1 :     3.213834575311891   Change is   -0.000000000000077
 Root      2 :     4.369614423638475   Change is   -0.000000000180948
 Root      3 :     4.500579866474738   Change is   -0.000000000010923
 Iteration    13 Dimension    78 NMult    76 NNew      2
 CISAX will form     2 AO SS matrices at one time.
 NMat=     2 NSing=     2 JSym2X= 0.
 Root      1 has converged.
 Root      2 has converged.
 Root      3 has converged.
 Excitation Energies [eV] at current iteration:
 Root      1 :     3.213834575311788   Change is   -0.000000000000102
 Root      2 :     4.369614423625795   Change is   -0.000000000012680
 Root      3 :     4.500579866474683   Change is   -0.000000000000054
 Convergence achieved on expansion vectors.
 ***********************************************************************
 Excited states from <AA,BB:AA,BB> singles matrix:
 ***********************************************************************
 
 1PDM for each excited state written to RWF  633
 Ground to excited state transition densities written to RWF  633
 Ground to excited state transition electric dipole moments (Au):
       state          X           Y           Z        Dip. S.      Osc.
         1         1.2796     -2.1342     -0.0000      6.1921      0.4876
         2        -1.7034      0.8566      0.0000      3.6354      0.3892
         3        -0.0000      0.0000      0.0104      0.0001      0.0000
 Ground to excited state transition velocity dipole moments (Au):
       state          X           Y           Z        Dip. S.      Osc.
         1        -0.1456      0.2526      0.0000      0.0850      0.4798
         2         0.2683     -0.1278     -0.0000      0.0883      0.3668
         3         0.0000     -0.0000     -0.0027      0.0000      0.0000
 Ground to excited state transition magnetic dipole moments (Au):
       state          X           Y           Z
         1         0.0000      0.0000     -1.0332
         2        -0.0000      0.0000     -1.0701
         3         0.0001      0.0518     -0.0000
 Ground to excited state transition velocity quadrupole moments (Au):
       state          XX          YY          ZZ          XY          XZ          YZ
         1        -0.0769      0.5867     -0.0132     -0.2324     -0.0000      0.0000
         2        -0.3126      0.5779     -0.0034     -0.0248     -0.0000      0.0000
         3        -0.0000     -0.0000      0.0000      0.0000     -0.0168     -0.0159
 <0|del|b> * <b|rxdel|0> + <0|del|b> * <b|delr+rdel|0>
 Rotatory Strengths (R) in cgs (10**-40 erg-esu-cm/Gauss)
       state          XX          YY          ZZ    R(velocity)    E-M Angle
         1         0.0144     -0.0187      0.0215      0.0057       90.00
         2        -0.0024      0.0015     -0.0075     -0.0028       90.00
         3        -0.0009      0.0000     -0.0004     -0.0004       90.00
 1/2[<0|r|b>*<b|rxdel|0> + (<0|rxdel|b>*<b|r|0>)*]
 Rotatory Strengths (R) in cgs (10**-40 erg-esu-cm/Gauss)
       state          XX          YY          ZZ     R(length)
         1        -0.0075      0.0483     -0.0238      0.0057
         2        -0.0047     -0.0066      0.0034     -0.0026
         3         0.0000     -0.0015      0.0001     -0.0005
  1/2[<0|del|b>*<b|r|0> + (<0|r|b>*<b|del|0>)*] (Au)
       state          X           Y           Z        Dip. S.   Osc.(frdel)
         1        -0.1863     -0.5391     -0.0000      0.7254      0.4836
         2        -0.4571     -0.1095     -0.0000      0.5666      0.3777
         3        -0.0000     -0.0000     -0.0000      0.0000      0.0000

 Excitation energies and oscillator strengths:
 
 Excited state symmetry could not be determined.
 Excited State   1:      Singlet-?Sym    3.2138 eV  385.78 nm  f=0.4876  <S**2>=0.000
      59 -> 60         0.69372
 This state for optimization and/or second-order correction.
 Total Energy, E(TD-HF/TD-DFT) =  -1028.69216020    
 Copying the excited state density for this state as the 1-particle RhoCI density.
 
 Excited state symmetry could not be determined.
 Excited State   2:      Singlet-?Sym    4.3696 eV  283.74 nm  f=0.3892  <S**2>=0.000
      57 -> 60        -0.11390
      58 -> 60         0.66930
 
 Excited state symmetry could not be determined.
 Excited State   3:      Singlet-?Sym    4.5006 eV  275.48 nm  f=0.0000  <S**2>=0.000
      56 -> 60         0.68811
      56 -> 64        -0.10570
 SavETr:  write IOETrn=   770 NScale= 10 NData=  16 NLR=1 NState=    3 LETran=      64.
 The selected state is a singlet.
 CISGrd: IGrad=2 NXY=2 DFT=T
 CISAX will form     1 AO SS matrices at one time.
 NMat=     1 NSing=     1 JSym2X= 0.
 GePol: Maximum number of non-zero 1st derivatives   =     270
 Leave Link  914 at Mon Jul 13 14:55:04 2020, MaxMem=  7784628224 cpu:            1791.8 elap:             181.7
 (Enter /gpfs/loomis/apps/avx/software/Gaussian/16-C.01_AVX/g16/l1002.exe)
 Minotr:  Closed shell wavefunction.
          Computing CIS/TDA/TD derivatives.
          Using Z-Vector for PSCF gradient.
          Skipping F1 and S1 gradient terms here.
          IDoAtm=1111111111111111111111111
 NEqPCM:  Using equilibrium solvation (IEInf=0, Eps=   2.2280, EpsInf=   2.1319)
          Frozen-core window.
          Direct CPHF calculation.
          Differentiating once with respect to electric field.
                with respect to dipole field.
          Differentiating once with respect to nuclear coordinates.
          Requested convergence is 1.0D-10 RMS, and 1.0D-09 maximum.
          NewPWx=F KeepS1=T KeepF1=T KeepIn=T MapXYZ=F SortEE=F KeepMc=T.
 Keep R1 ints in memory in canonical form, NReq=1421582101.
 FoFCou: FMM=F IPFlag=           0 FMFlag=           0 FMFlg1=           0
         NFxFlg=           0 DoJE=F BraDBF=F KetDBF=F FulRan=T
         wScrn=  0.000000 ICntrl=       600 IOpCl=  0 I1Cent=           0 NGrid=           0
         NMat0=    1 NMatS0=  37401 NMatT0=    0 NMatD0=    1 NMtDS0=    0 NMtDT0=    0
 Symmetry not used in FoFCou.
 Two-electron integral symmetry not used.
          MDV=    7784628224 using IRadAn=       5.
          Solving linear equations separately, MaxMat=       0.
          There are     1 degrees of freedom in the 1st order CPHF.  IDoFFX=0 NUNeed=     1.
 LinEq1:  Iter=  0 NonCon=     1 RMS=5.68D-03 Max=3.28D-01 NDo=     1
 AX will form     1 AO Fock derivatives at one time.
 LinEq1:  Iter=  1 NonCon=     1 RMS=2.45D-03 Max=1.26D-01 NDo=     1
 LinEq1:  Iter=  2 NonCon=     1 RMS=1.52D-03 Max=5.06D-02 NDo=     1
 LinEq1:  Iter=  3 NonCon=     1 RMS=5.69D-04 Max=1.40D-02 NDo=     1
 LinEq1:  Iter=  4 NonCon=     1 RMS=3.16D-04 Max=1.03D-02 NDo=     1
 LinEq1:  Iter=  5 NonCon=     1 RMS=1.58D-04 Max=6.77D-03 NDo=     1
 LinEq1:  Iter=  6 NonCon=     1 RMS=7.01D-05 Max=2.75D-03 NDo=     1
 LinEq1:  Iter=  7 NonCon=     1 RMS=3.75D-05 Max=1.26D-03 NDo=     1
 LinEq1:  Iter=  8 NonCon=     1 RMS=1.58D-05 Max=4.75D-04 NDo=     1
 LinEq1:  Iter=  9 NonCon=     1 RMS=8.86D-06 Max=2.66D-04 NDo=     1
 LinEq1:  Iter= 10 NonCon=     1 RMS=3.72D-06 Max=1.15D-04 NDo=     1
 LinEq1:  Iter= 11 NonCon=     1 RMS=2.08D-06 Max=9.88D-05 NDo=     1
 LinEq1:  Iter= 12 NonCon=     1 RMS=9.95D-07 Max=3.14D-05 NDo=     1
 LinEq1:  Iter= 13 NonCon=     1 RMS=4.04D-07 Max=1.14D-05 NDo=     1
 LinEq1:  Iter= 14 NonCon=     1 RMS=1.84D-07 Max=5.22D-06 NDo=     1
 LinEq1:  Iter= 15 NonCon=     1 RMS=9.15D-08 Max=3.22D-06 NDo=     1
 LinEq1:  Iter= 16 NonCon=     1 RMS=3.77D-08 Max=1.15D-06 NDo=     1
 LinEq1:  Iter= 17 NonCon=     1 RMS=1.74D-08 Max=7.01D-07 NDo=     1
 LinEq1:  Iter= 18 NonCon=     1 RMS=6.21D-09 Max=1.77D-07 NDo=     1
 LinEq1:  Iter= 19 NonCon=     1 RMS=3.19D-09 Max=9.21D-08 NDo=     1
 LinEq1:  Iter= 20 NonCon=     1 RMS=1.47D-09 Max=4.53D-08 NDo=     1
 LinEq1:  Iter= 21 NonCon=     1 RMS=3.68D-10 Max=8.14D-09 NDo=     1
 LinEq1:  Iter= 22 NonCon=     1 RMS=1.50D-10 Max=3.23D-09 NDo=     1
 LinEq1:  Iter= 23 NonCon=     1 RMS=6.57D-11 Max=1.40D-09 NDo=     1
 LinEq1:  Iter= 24 NonCon=     0 RMS=2.03D-11 Max=5.94D-10 NDo=     1
 Linear equations converged to 1.000D-10 1.000D-09 after    24 iterations.
 End of Minotr F.D. properties file   721 does not exist.
 End of Minotr F.D. properties file   722 does not exist.
 End of Minotr F.D. properties file   788 does not exist.
 Leave Link 1002 at Mon Jul 13 14:56:51 2020, MaxMem=  7784628224 cpu:             789.2 elap:             107.3
 (Enter /gpfs/loomis/apps/avx/software/Gaussian/16-C.01_AVX/g16/l601.exe)
 Copying SCF densities to generalized density rwf, IOpCl= 0 IROHF=0.

 **********************************************************************

            Population analysis using the SCF Density.

 **********************************************************************

 Alpha  occ. eigenvalues --  -89.10002 -19.24324 -14.49288 -10.40999 -10.37082
 Alpha  occ. eigenvalues --  -10.36249 -10.35667 -10.32898 -10.32169 -10.31979
 Alpha  occ. eigenvalues --  -10.31956 -10.31931 -10.31846 -10.31398 -10.29787
 Alpha  occ. eigenvalues --  -10.29303  -8.11929  -6.06795  -6.06440  -6.05966
 Alpha  occ. eigenvalues --   -1.13752  -1.09713  -0.97351  -0.95247  -0.92520
 Alpha  occ. eigenvalues --   -0.88960  -0.85660  -0.83862  -0.82044  -0.75909
 Alpha  occ. eigenvalues --   -0.71483  -0.70898  -0.68527  -0.68159  -0.63724
 Alpha  occ. eigenvalues --   -0.60816  -0.59268  -0.57671  -0.55377  -0.54770
 Alpha  occ. eigenvalues --   -0.54342  -0.53409  -0.52645  -0.51101  -0.49946
 Alpha  occ. eigenvalues --   -0.49439  -0.47460  -0.46403  -0.45464  -0.45017
 Alpha  occ. eigenvalues --   -0.44033  -0.43072  -0.42025  -0.40669  -0.36601
 Alpha  occ. eigenvalues --   -0.34729  -0.32891  -0.31205  -0.27232
 Alpha virt. eigenvalues --   -0.01833   0.04381   0.06556   0.06737   0.08180
 Alpha virt. eigenvalues --    0.10580   0.13258   0.14897   0.16094   0.17731
 Alpha virt. eigenvalues --    0.18835   0.20685   0.21485   0.21981   0.22673
 Alpha virt. eigenvalues --    0.23573   0.23901   0.24708   0.28453   0.29883
 Alpha virt. eigenvalues --    0.31915   0.33107   0.35350   0.35873   0.36764
 Alpha virt. eigenvalues --    0.38337   0.38669   0.40507   0.42927   0.43311
 Alpha virt. eigenvalues --    0.46725   0.47997   0.49877   0.51428   0.51601
 Alpha virt. eigenvalues --    0.52434   0.53156   0.53672   0.54771   0.55081
 Alpha virt. eigenvalues --    0.55972   0.56060   0.56495   0.57125   0.58187
 Alpha virt. eigenvalues --    0.58290   0.58384   0.58982   0.59529   0.60185
 Alpha virt. eigenvalues --    0.60242   0.60934   0.62140   0.62232   0.62969
 Alpha virt. eigenvalues --    0.65169   0.65175   0.66862   0.67738   0.68862
 Alpha virt. eigenvalues --    0.70193   0.70514   0.71930   0.72503   0.72632
 Alpha virt. eigenvalues --    0.72899   0.74645   0.75207   0.76221   0.77115
 Alpha virt. eigenvalues --    0.79067   0.79273   0.79905   0.82036   0.82037
 Alpha virt. eigenvalues --    0.82907   0.88095   0.89050   0.90855   0.92830
 Alpha virt. eigenvalues --    0.94288   0.94989   0.95977   0.96408   0.96824
 Alpha virt. eigenvalues --    0.98657   0.98738   0.99936   1.00194   1.01413
 Alpha virt. eigenvalues --    1.02576   1.05030   1.05907   1.07061   1.07473
 Alpha virt. eigenvalues --    1.08025   1.08476   1.10188   1.10991   1.11781
 Alpha virt. eigenvalues --    1.11897   1.12373   1.13163   1.15077   1.15185
 Alpha virt. eigenvalues --    1.16090   1.19007   1.20138   1.23049   1.23793
 Alpha virt. eigenvalues --    1.26360   1.27688   1.33288   1.33550   1.34654
 Alpha virt. eigenvalues --    1.34787   1.36293   1.38390   1.41075   1.46366
 Alpha virt. eigenvalues --    1.49114   1.49562   1.51088   1.53823   1.55181
 Alpha virt. eigenvalues --    1.56542   1.56651   1.57317   1.58859   1.59275
 Alpha virt. eigenvalues --    1.59724   1.59955   1.64903   1.66581   1.67364
 Alpha virt. eigenvalues --    1.68536   1.69415   1.69912   1.70004   1.70870
 Alpha virt. eigenvalues --    1.71777   1.72435   1.73362   1.73551   1.75072
 Alpha virt. eigenvalues --    1.77332   1.79396   1.80551   1.80718   1.82926
 Alpha virt. eigenvalues --    1.83114   1.83811   1.84704   1.84924   1.85209
 Alpha virt. eigenvalues --    1.87390   1.88688   1.89181   1.90241   1.92050
 Alpha virt. eigenvalues --    1.92288   1.92941   1.93371   1.94700   1.95888
 Alpha virt. eigenvalues --    1.98016   2.00230   2.01548   2.03002   2.04035
 Alpha virt. eigenvalues --    2.04700   2.07594   2.09205   2.10699   2.12876
 Alpha virt. eigenvalues --    2.14673   2.16100   2.17029   2.20867   2.24027
 Alpha virt. eigenvalues --    2.26890   2.30784   2.31722   2.38774   2.40045
 Alpha virt. eigenvalues --    2.41194   2.42352   2.42831   2.45622   2.47000
 Alpha virt. eigenvalues --    2.48380   2.50602   2.52561   2.53112   2.61811
 Alpha virt. eigenvalues --    2.62165   2.70848   2.73846   2.74442   2.80119
 Alpha virt. eigenvalues --    2.81713   2.83756   2.85371   2.89651   2.91454
 Alpha virt. eigenvalues --    2.92828   3.02447   3.10726   3.21689   3.39399
 Alpha virt. eigenvalues --    3.47766   3.56745   3.60464   3.85766
          Condensed to atoms (all electrons):
               1          2          3          4          5          6
     1  C    4.726789   0.481173   0.003401  -0.050151  -0.013182   0.523334
     2  C    0.481173   5.322406   0.332576  -0.050085  -0.064274  -0.011259
     3  C    0.003401   0.332576   4.781623   0.511034  -0.005547  -0.063341
     4  C   -0.050151  -0.050085   0.511034   4.773012   0.523452  -0.016002
     5  C   -0.013182  -0.064274  -0.005547   0.523452   4.722821   0.495295
     6  C    0.523334  -0.011259  -0.063341  -0.016002   0.495295   4.740015
     7  H    0.403435  -0.040243   0.008529  -0.000500   0.008104  -0.038255
     8  H   -0.000685   0.011004  -0.026984   0.392980  -0.042298   0.007515
     9  H    0.008598  -0.000445   0.008373  -0.038721   0.405121  -0.044303
    10  H   -0.042005   0.009584  -0.000571   0.008723  -0.043422   0.406591
    11  N    0.005364  -0.050644   0.414427  -0.042707   0.002923   0.000267
    12  S   -0.062270   0.338099  -0.114240   0.005381   0.000243   0.003488
    13  C   -0.000167   0.002738   0.010141  -0.000726   0.000009   0.000000
    14  C   -0.000004   0.000065   0.000136   0.000005  -0.000000  -0.000000
    15  C    0.000001  -0.000343   0.000876   0.000088  -0.000000   0.000000
    16  C    0.000000  -0.000001   0.000004  -0.000000   0.000000   0.000000
    17  H   -0.000003   0.000056   0.000000  -0.000000   0.000000  -0.000000
    18  C    0.000000   0.000007  -0.000027  -0.000000  -0.000000   0.000000
    19  C   -0.000000   0.000000   0.000001  -0.000000   0.000000   0.000000
    20  H   -0.000000  -0.000000  -0.000000   0.000000   0.000000  -0.000000
    21  H   -0.000000   0.000000   0.000001  -0.000000   0.000000   0.000000
    22  H    0.000000  -0.000000  -0.000000  -0.000000   0.000000  -0.000000
    23  C    0.003584  -0.050193  -0.113524   0.001867   0.000215  -0.000167
    24  O    0.000002  -0.000112  -0.001413  -0.000074  -0.000001  -0.000000
    25  H    0.000008   0.005245  -0.018169  -0.002744  -0.000044   0.000006
               7          8          9         10         11         12
     1  C    0.403435  -0.000685   0.008598  -0.042005   0.005364  -0.062270
     2  C   -0.040243   0.011004  -0.000445   0.009584  -0.050644   0.338099
     3  C    0.008529  -0.026984   0.008373  -0.000571   0.414427  -0.114240
     4  C   -0.000500   0.392980  -0.038721   0.008723  -0.042707   0.005381
     5  C    0.008104  -0.042298   0.405121  -0.043422   0.002923   0.000243
     6  C   -0.038255   0.007515  -0.044303   0.406591   0.000267   0.003488
     7  H    0.654379   0.000031  -0.000141  -0.011948  -0.000109  -0.006502
     8  H    0.000031   0.647092  -0.011839  -0.000126  -0.003028  -0.000209
     9  H   -0.000141  -0.011839   0.662019  -0.012246  -0.000117   0.000022
    10  H   -0.011948  -0.000126  -0.012246   0.661470   0.000002  -0.000135
    11  N   -0.000109  -0.003028  -0.000117   0.000002   6.386248  -0.061071
    12  S   -0.006502  -0.000209   0.000022  -0.000135  -0.061071  15.443790
    13  C    0.000006   0.000054  -0.000000  -0.000000  -0.024446  -0.060906
    14  C    0.000000   0.000001   0.000000  -0.000000   0.003041  -0.005685
    15  C   -0.000000  -0.000011   0.000000   0.000000  -0.007649   0.003556
    16  C   -0.000000  -0.000000  -0.000000   0.000000  -0.000096  -0.000057
    17  H    0.000001   0.000000  -0.000000  -0.000000   0.000227   0.005904
    18  C   -0.000000  -0.000000  -0.000000  -0.000000  -0.000582  -0.000103
    19  C    0.000000   0.000000  -0.000000  -0.000000   0.000058   0.000020
    20  H   -0.000000  -0.000000   0.000000   0.000000   0.000001   0.000000
    21  H   -0.000000   0.000000  -0.000000   0.000000   0.000027   0.000003
    22  H    0.000000  -0.000000  -0.000000  -0.000000  -0.000000  -0.000000
    23  C    0.000095  -0.000763   0.000007   0.000004   0.530379   0.324697
    24  O   -0.000000  -0.000284   0.000000  -0.000000  -0.087615  -0.000359
    25  H    0.000002   0.001294  -0.000008  -0.000000   0.215169   0.002816
              13         14         15         16         17         18
     1  C   -0.000167  -0.000004   0.000001   0.000000  -0.000003   0.000000
     2  C    0.002738   0.000065  -0.000343  -0.000001   0.000056   0.000007
     3  C    0.010141   0.000136   0.000876   0.000004   0.000000  -0.000027
     4  C   -0.000726   0.000005   0.000088  -0.000000  -0.000000  -0.000000
     5  C    0.000009  -0.000000  -0.000000   0.000000   0.000000  -0.000000
     6  C    0.000000  -0.000000   0.000000   0.000000  -0.000000   0.000000
     7  H    0.000006   0.000000  -0.000000  -0.000000   0.000001  -0.000000
     8  H    0.000054   0.000001  -0.000011  -0.000000   0.000000  -0.000000
     9  H   -0.000000   0.000000   0.000000  -0.000000  -0.000000  -0.000000
    10  H   -0.000000  -0.000000   0.000000   0.000000  -0.000000  -0.000000
    11  N   -0.024446   0.003041  -0.007649  -0.000096   0.000227  -0.000582
    12  S   -0.060906  -0.005685   0.003556  -0.000057   0.005904  -0.000103
    13  C    5.363339   0.461898   0.246199  -0.007384  -0.040513  -0.040973
    14  C    0.461898   4.813008   0.005196   0.532444   0.400847  -0.056328
    15  C    0.246199   0.005196   4.754187  -0.060066   0.007263   0.501107
    16  C   -0.007384   0.532444  -0.060066   4.763192  -0.034610  -0.019886
    17  H   -0.040513   0.400847   0.007263  -0.034610   0.678580  -0.000771
    18  C   -0.040973  -0.056328   0.501107  -0.019886  -0.000771   4.820346
    19  C   -0.050107  -0.017567  -0.011220   0.485478   0.008411   0.512752
    20  H    0.008959  -0.036137  -0.000217   0.400850  -0.012646   0.008343
    21  H    0.013768  -0.000583  -0.022521   0.007449   0.000047   0.375531
    22  H   -0.001251   0.009215   0.009030  -0.045288  -0.000169  -0.040571
    23  C    0.341603  -0.093102  -0.079613   0.007048  -0.019562   0.007446
    24  O   -0.082646   0.004966   0.559479  -0.000028  -0.000065  -0.061312
    25  H   -0.023438  -0.000511  -0.028002  -0.000002  -0.000023   0.004039
              19         20         21         22         23         24
     1  C   -0.000000  -0.000000  -0.000000   0.000000   0.003584   0.000002
     2  C    0.000000  -0.000000   0.000000  -0.000000  -0.050193  -0.000112
     3  C    0.000001  -0.000000   0.000001  -0.000000  -0.113524  -0.001413
     4  C   -0.000000   0.000000  -0.000000  -0.000000   0.001867  -0.000074
     5  C    0.000000   0.000000   0.000000   0.000000   0.000215  -0.000001
     6  C    0.000000  -0.000000   0.000000  -0.000000  -0.000167  -0.000000
     7  H    0.000000  -0.000000  -0.000000   0.000000   0.000095  -0.000000
     8  H    0.000000  -0.000000   0.000000  -0.000000  -0.000763  -0.000284
     9  H   -0.000000   0.000000  -0.000000  -0.000000   0.000007   0.000000
    10  H   -0.000000   0.000000   0.000000  -0.000000   0.000004  -0.000000
    11  N    0.000058   0.000001   0.000027  -0.000000   0.530379  -0.087615
    12  S    0.000020   0.000000   0.000003  -0.000000   0.324697  -0.000359
    13  C   -0.050107   0.008959   0.013768  -0.001251   0.341603  -0.082646
    14  C   -0.017567  -0.036137  -0.000583   0.009215  -0.093102   0.004966
    15  C   -0.011220  -0.000217  -0.022521   0.009030  -0.079613   0.559479
    16  C    0.485478   0.400850   0.007449  -0.045288   0.007048  -0.000028
    17  H    0.008411  -0.012646   0.000047  -0.000169  -0.019562  -0.000065
    18  C    0.512752   0.008343   0.375531  -0.040571   0.007446  -0.061312
    19  C    4.728068  -0.047300  -0.046314   0.404900   0.000439   0.003736
    20  H   -0.047300   0.684292  -0.000169  -0.012244  -0.000353   0.000002
    21  H   -0.046314  -0.000169   0.670572  -0.012268  -0.000417   0.004563
    22  H    0.404900  -0.012244  -0.012268   0.669880   0.000006  -0.000079
    23  C    0.000439  -0.000353  -0.000417   0.000006   5.077032  -0.007419
    24  O    0.003736   0.000002   0.004563  -0.000079  -0.007419   7.796330
    25  H   -0.000322  -0.000001   0.000011   0.000010  -0.000748   0.222278
              25
     1  C    0.000008
     2  C    0.005245
     3  C   -0.018169
     4  C   -0.002744
     5  C   -0.000044
     6  C    0.000006
     7  H    0.000002
     8  H    0.001294
     9  H   -0.000008
    10  H   -0.000000
    11  N    0.215169
    12  S    0.002816
    13  C   -0.023438
    14  C   -0.000511
    15  C   -0.028002
    16  C   -0.000002
    17  H   -0.000023
[...]
 47,0.00162087,0.,0.00312533,-0.00507921,-0.00000004,-0.00316852,0.0007
 3177,0.00000003,-0.00008361,-0.00260778,-0.00000002,0.00138652,0.00080
 916,0.,-0.00003933,-0.00007185,0.,0.00005561,0.00003819,0.,0.00006142,
 -0.00003092,0.,0.00003995,0.00000665,0.,-0.00388008,0.00876175,0.00000
 010,-0.00177059,0.00102257,0.,-0.04342247,0.02297791,0.00000031,-0.187
 35516,0.12708012,0.00000211,0.00820105,-0.00004343,0.,0.72749639,-0.00
 044699,-0.00241238,0.00000003,-0.01114621,-0.00628913,0.00000002,-0.01
 363028,0.02019113,0.00000012,0.01261165,-0.00232929,-0.00000008,-0.000
 08277,0.00957880,0.00000007,-0.00374118,-0.00353866,-0.00000002,0.0000
 4032,0.00024456,0.,-0.00011937,-0.00014822,0.,-0.00015730,0.00014343,0
 .,-0.00006737,-0.00005152,0.,0.01551718,-0.02170987,-0.00000027,0.0030
 2997,-0.00527379,-0.00000006,0.06003494,0.02027619,0.00000055,0.037308
 32,-0.23928157,-0.00000358,0.00781535,-0.00571735,0.00000004,0.0237624
 0,0.61321118,-0.00000002,-0.00000004,-0.00003997,-0.00000021,-0.000000
 14,-0.00008909,-0.00000029,0.00000042,-0.00025195,0.00000026,-0.000000
 04,-0.00022063,0.,0.00000019,-0.00002173,-0.00000006,-0.00000007,0.000
 01110,0.,0.,-0.00002566,0.,0.,-0.00001369,0.,0.,0.00001485,0.,0.,0.000
 03779,0.00000032,-0.00000043,0.00226218,0.00000006,-0.00000013,-0.0000
 6087,0.00000091,0.00000052,0.00187272,0.00000049,-0.00000348,-0.052308
 46,0.00000024,-0.00000002,-0.00467307,0.00000200,0.00001029,0.12999341
 ,0.00021593,0.00001016,0.,-0.00067603,0.00017756,0.00000002,0.00035162
 ,-0.00007088,0.,0.00000994,0.00007772,0.,0.00006022,0.00003805,0.,-0.0
 0004912,-0.00006951,0.,-0.00001540,-0.00000142,0.,0.00002792,0.0000026
 4,0.,0.00000644,-0.00000118,0.,0.00002744,-0.00000363,0.,0.00035417,0.
 00068745,0.00000003,-0.00037948,0.00121915,-0.00000005,-0.00679866,-0.
 02909376,-0.00000060,-0.10306759,-0.10506101,-0.00000241,-0.00484148,0
 .00308056,-0.00000004,0.01092060,0.01882776,0.00000040,0.10583207,0.00
 000290,-0.00003988,0.,-0.00017215,0.00029275,0.,0.00011016,0.00021151,
 0.,0.00006296,0.00000945,0.,0.00001149,0.00010433,0.,-0.00008915,-0.00
 004353,0.,-0.00000627,0.00001473,0.,0.00000659,-0.00000694,0.,-0.00000
 469,0.00000112,0.,-0.00000578,0.00000294,0.,0.00020686,0.00047884,0.00
 000005,-0.00033989,-0.00014191,-0.00000004,0.00178149,-0.00020931,-0.0
 0000006,-0.10371794,-0.29754919,-0.00000574,0.00085637,0.00163616,-0.0
 0000015,-0.01291054,-0.01807197,-0.00000045,0.11050000,0.31427649,0.,0
 .,-0.00003292,0.,0.00000003,-0.00024724,0.00000003,-0.00000004,0.00028
 599,-0.00000002,0.,0.00007658,0.,0.,0.00000731,0.,0.,0.00001439,0.,0.,
 0.00000796,0.,0.,0.00001259,0.,0.,-0.00000072,0.,0.,-0.00000578,-0.000
 00001,0.00000007,-0.00173984,-0.00000006,-0.00000001,0.00056352,0.0000
 0011,-0.00000027,0.00457778,-0.00000245,-0.00000573,-0.03296857,-0.000
 00003,-0.00000006,0.00805654,-0.00000021,-0.00000040,0.00260061,0.0000
 0260,0.00000637,0.02107615,-0.00170637,0.00060296,0.00000004,-0.003979
 37,-0.00407056,-0.00000002,-0.00635185,0.01282377,0.,0.00648729,-0.001
 12051,-0.00000002,-0.00031165,0.00316705,0.00000003,0.00079950,-0.0016
 1465,-0.00000002,-0.00011721,0.00010482,0.,0.00006418,-0.00002383,0.,0
 .00007501,0.00002714,0.,0.00008109,-0.00005536,0.,0.01451812,0.0019914
 9,0.00000016,-0.00013026,-0.00433068,0.00000002,0.02330311,0.01729834,
 0.00000045,-0.02831560,0.02536799,0.00000038,-0.15394641,0.07751645,0.
 00000158,-0.01716865,-0.07129096,-0.00000150,-0.00068358,0.00011049,-0
 .00000002,0.72646183,0.00057183,-0.00009577,-0.00000001,-0.00046429,-0
 .00050097,-0.00000001,0.00057788,-0.00035979,-0.00000001,-0.00073505,0
 .00014572,0.,0.00019077,-0.00016171,0.,-0.00038595,-0.00002153,0.,-0.0
 0000094,0.00001838,0.,-0.00003403,-0.00000948,0.,-0.00001492,-0.000008
 84,0.,0.00001440,0.00000762,0.,0.00138629,-0.00019364,0.00000008,0.001
 30356,-0.00148317,-0.00000005,0.01514065,-0.03553511,-0.00000080,0.002
 42974,-0.00259215,0.00000003,0.09984663,-0.26061232,-0.00000396,-0.034
 11279,-0.00468704,-0.00000026,-0.00014078,0.00069044,0.00000005,0.0446
 0773,0.70727342,0.00000002,0.,0.00013802,0.00000005,0.00000004,0.00072
 099,0.00000010,-0.00000013,0.00177733,-0.00000008,0.00000001,-0.000372
 08,0.,-0.00000004,-0.00003397,0.,0.00000002,-0.00010328,0.,0.,0.000102
 50,0.,0.,0.00007766,0.,0.,0.00003627,0.,0.,-0.00006710,-0.00000003,0.0
 0000028,-0.00662371,0.,-0.00000004,0.00124842,0.00000024,-0.00000078,0
 .01139263,0.00000004,0.00000007,-0.00279043,0.00000208,-0.00000412,-0.
 06634003,-0.00000075,-0.00000033,0.00561521,0.,0.00000004,-0.00112310,
 0.00000097,0.00001228,0.10852376,0.00192702,0.00030753,-0.00000004,0.0
 0717073,0.00628730,0.,0.01187912,-0.01926954,-0.00000007,-0.01040958,0
 .00188387,0.00000006,0.00039632,-0.00625376,-0.00000005,0.00051040,0.0
 0287800,0.00000003,0.00006646,-0.00012805,0.,0.00003001,0.00007450,0.,
 -0.00003821,-0.00005985,0.,-0.00003683,0.00007617,0.,-0.02002311,0.012
 96040,0.00000015,0.00027144,0.00488456,0.00000001,-0.02011392,-0.01928
 941,-0.00000040,0.06241669,-0.01109014,-0.00000002,-0.04714347,0.02422
 911,0.00000037,-0.14904373,-0.01449549,-0.00000047,-0.00211771,0.00457
 748,0.00000008,-0.36312613,-0.05444153,-0.00000104,0.69790785,0.000047
 06,0.00071511,0.,0.00171417,0.00069613,0.00000002,0.00294806,-0.002428
 66,0.00000003,-0.00248798,0.00050795,0.00000001,0.00005498,-0.00193003
 ,-0.00000002,0.00091587,0.00038439,0.,-0.00003027,-0.00002701,0.,0.000
 02718,-0.00000444,0.,0.00004605,-0.00004552,0.,0.00002626,0.00002377,0
 .,0.00097116,0.00696103,-0.00000005,-0.00151361,0.00040043,-0.00000002
 ,-0.02304924,-0.01061274,-0.00000032,0.03624298,-0.06072338,-0.0000013
 8,0.01605137,0.02284310,0.00000036,-0.10020945,-0.28758309,-0.00000525
 ,0.00349247,-0.00142110,-0.00000008,-0.00770301,-0.12076493,-0.0000014
 7,-0.05137120,0.69184567,0.,0.00000001,0.00018047,0.00000003,0.,-0.000
 35200,0.00000004,-0.00000001,-0.00113353,-0.00000005,0.,0.00010529,0.,
 -0.00000004,0.00008850,0.00000002,0.,0.00000792,0.,0.,-0.00004409,0.,0
 .,-0.00010967,0.,0.,-0.00000484,0.,0.,-0.00000056,0.00000007,0.0000001
 1,0.00195758,-0.00000004,0.,0.00021309,-0.00000052,-0.00000021,-0.0018
 5057,0.00000083,-0.00000144,0.00820203,0.00000031,0.00000050,0.0024745
 6,-0.00000224,-0.00000513,-0.05883273,0.00000006,-0.00000012,0.0044826
 2,-0.00000022,-0.00000153,-0.04814240,-0.00000078,0.00001268,0.1103940
 2,0.00006242,-0.00008821,0.,-0.00011355,0.00009349,0.,-0.00000670,-0.0
 0006124,0.,0.00001183,0.00001909,0.,0.00001029,0.00009316,0.,-0.000139
 35,-0.00000448,0.,0.00000536,0.00000903,0.,-0.00000242,-0.00000597,0.,
 -0.00001248,0.00000559,0.,-0.00000863,0.00000467,0.,-0.00014994,0.0004
 1873,0.,0.00005326,-0.00003234,0.,0.00042465,0.00318356,0.00000006,-0.
 01377317,-0.00642032,-0.00000020,0.00060489,0.00023095,0.,-0.34068524,
 -0.04302842,-0.00000165,0.00077147,0.00008281,0.,0.00138119,-0.0020305
 8,-0.00000007,-0.00641979,0.00229954,0.00000003,0.35840730,-0.00000488
 ,0.00000345,0.,-0.00007431,-0.00011699,0.,-0.00001339,0.00026092,-0.00
 000001,0.00010317,-0.00006189,0.,0.00001173,0.00007095,0.,-0.00000917,
 -0.00003722,0.,-0.00000062,-0.00000049,0.,-0.00000002,0.00000035,0.,0.
 00000290,-0.00000311,0.,0.00000238,-0.00000176,0.,0.00047622,-0.000389
 03,0.00000002,0.00003045,-0.00000447,0.,0.00332354,-0.00424022,-0.0000
 0018,0.02426807,0.00736054,0.00000009,0.00048328,-0.00105630,0.,-0.043
 32982,-0.06609917,-0.00000078,-0.00016563,0.00088508,0.00000008,-0.001
 26799,-0.00536272,-0.00000024,-0.02895757,0.00154778,-0.00000017,0.045
 86727,0.06500078,0.,0.,-0.00001923,-0.00000001,-0.00000001,0.00004174,
 -0.00000001,0.00000003,0.00053017,0.00000002,0.,0.00010325,0.,0.000000
 01,-0.00006673,0.,0.,0.00001171,0.,0.,0.00000917,0.,0.,0.00003527,0.,0
 .,-0.00002188,0.,0.,-0.00000330,0.00000002,-0.00000004,-0.00059499,0.,
 0.,-0.00010233,0.00000006,-0.00000019,0.00549695,0.00000040,0.00000006
 ,0.00667846,0.,-0.00000002,-0.00130155,-0.00000159,-0.00000085,-0.0377
 1002,0.,0.00000009,-0.00312990,-0.00000002,-0.00000026,0.00543805,-0.0
 0000065,-0.00000006,0.00682983,0.00000179,0.00000105,0.02240453,-0.000
 09304,0.00002331,0.,0.00006509,0.00005266,0.,-0.00011831,0.00007426,0.
 ,0.00004749,0.00000042,0.,-0.00002178,-0.00002205,0.,0.00007072,0.0000
 0627,0.,0.00000127,-0.00000474,0.,-0.00000465,0.00000152,0.,0.00000342
 ,-0.00000011,0.,-0.00000209,-0.00000209,0.,0.00018764,-0.00042229,-0.0
 0000002,-0.00026854,0.00009538,0.,-0.00330351,0.00292991,0.00000005,0.
 00021964,0.00015034,0.,0.00895874,0.01956735,0.00000040,-0.00581881,0.
 00089654,0.00000002,0.00010420,-0.00010517,0.,-0.10204955,-0.10758159,
 -0.00000214,-0.00426506,-0.02817088,-0.00000059,-0.00041445,-0.0014023
 1,-0.00000004,0.10295722,0.00006871,0.00003543,0.,-0.00011773,-0.00006
 279,0.,0.00013641,0.00004206,0.,-0.00001117,-0.00000774,0.,0.00000605,
 -0.00002076,0.,0.00001964,-0.00002134,0.,-0.00000674,0.00000304,0.,0.0
 0000847,0.00000203,0.,0.00000604,-0.00000191,0.,0.00000884,-0.00000119
 ,0.,-0.00030235,0.00056832,0.00000001,0.00026801,-0.00017562,0.,0.0040
 0549,-0.00182906,-0.00000010,0.00017720,0.00030391,0.00000002,-0.01374
 025,-0.01837368,-0.00000045,-0.00001919,0.00124666,-0.00000011,-0.0000
 8501,-0.00005476,0.,-0.10474850,-0.30322165,-0.00000557,0.00243569,0.0
 0172550,-0.00000007,0.00010266,-0.00003223,0.00000001,0.11380739,0.317
 84271,0.,0.,-0.00034825,-0.00000002,0.,-0.00013168,0.,0.,0.00035269,0.
 ,0.,0.00000727,0.,0.00000001,-0.00006181,0.,0.,0.00004534,0.,0.,-0.000
 00782,0.,0.,0.00005163,0.,0.,-0.00000490,0.,0.,0.00006542,-0.00000003,
 -0.00000002,0.00006933,0.00000003,0.,-0.00036186,0.00000008,-0.0000000
 6,0.00339519,0.00000002,0.,-0.00041136,-0.00000042,-0.00000046,0.00372
 960,0.,-0.00000008,0.00646991,0.,0.,-0.00035049,-0.00000199,-0.0000056
 4,-0.03236237,-0.00000002,-0.00000007,0.00445343,0.,0.00000002,-0.0005
 5081,0.00000230,0.00000610,0.02192115,0.00003580,-0.00002610,0.,-0.000
 06904,0.00006440,0.,0.00014584,0.00002467,0.,-0.00000004,-0.00000095,0
 .,0.00001112,0.00005005,0.,-0.00006560,-0.00001362,0.,-0.00000010,0.00
 000662,0.,0.00000204,-0.00000475,0.,-0.00000685,0.00000215,0.,-0.00000
 363,0.00000324,0.,0.00023810,0.00067856,0.00000002,-0.00003471,0.00008
 312,0.,-0.00009841,-0.00065489,-0.00000002,-0.00056158,-0.00259560,-0.
 00000006,-0.00331651,-0.00330297,-0.00000006,0.01036191,-0.01171197,-0
 .00000025,0.00037248,-0.00051482,0.,-0.01279141,0.02608426,0.00000054,
 -0.17307847,0.14249004,0.00000291,0.00070849,0.00038074,0.00000001,0.0
 0110699,-0.00028747,0.,0.17935816,0.00002414,0.00007563,0.,0.00030708,
 0.00022446,0.,0.00042293,-0.00068513,0.,-0.00038126,0.00007583,0.,0.00
 000265,-0.00030384,0.,0.00012868,0.00011355,0.,-0.00000377,-0.00001027
 ,0.,0.00000657,0.00000844,0.,0.00000843,-0.00000469,0.,0.00000629,-0.0
 0000110,0.,-0.00071755,0.00037295,0.,-0.00008382,0.00020796,0.,-0.0011
 1440,0.00037749,0.00000003,-0.00268647,-0.00373315,-0.00000020,-0.0020
 8822,0.00011783,-0.00000014,0.02048427,-0.01551543,-0.00000035,0.00091
 941,-0.00101753,-0.00000004,-0.00572216,0.00737153,0.00000008,0.141579
 50,-0.23339199,-0.00000432,-0.00009290,0.00096302,0.00000010,0.0002793
 5,0.00059194,0.00000009,-0.15162299,0.24383272,0.,0.,0.00001593,0.,0.,
 0.00004316,0.00000001,-0.00000002,-0.00008309,-0.00000001,0.,0.0000295
 9,0.,-0.00000001,0.00000576,0.,0.,-0.00000005,0.,0.,0.00000002,0.,0.,0
 .00000787,0.,0.,-0.00000101,0.,0.,-0.00001219,-0.00000002,0.,0.0003455
 6,0.,0.,-0.00021842,-0.00000002,0.00000003,-0.00131979,-0.00000006,-0.
 00000021,0.00480362,-0.00000007,-0.00000013,0.00700577,0.00000047,-0.0
 0000037,0.00223340,0.00000002,-0.00000004,0.00091411,-0.00000007,0.000
 00010,0.00381588,0.00000282,-0.00000431,-0.03182781,0.00000001,0.00000
 010,-0.00334580,0.,0.00000009,-0.00380712,-0.00000309,0.00000472,0.022
 24123,-0.00324042,-0.00736483,-0.00000006,-0.01340322,0.01664351,0.000
 00014,-0.08190568,0.04485187,0.00000057,0.01635061,-0.00301010,-0.0000
 0010,-0.00140056,0.01120051,0.00000009,-0.00724899,-0.00364095,0.,0.00
 040554,-0.00044919,0.,-0.00055501,-0.00022661,0.,-0.00006378,0.0001237
 5,0.,-0.00064942,-0.00014312,0.,-0.33692847,-0.06415193,0.00000041,-0.
 04560438,-0.03762469,-0.00000004,-0.18949714,0.11059352,0.00000115,-0.
 03885185,0.03801221,0.00000049,0.02761153,0.00882212,0.00000013,-0.002
 05662,-0.01518229,-0.00000032,0.00034903,0.00007697,-0.00000003,-0.007
 91264,-0.00847291,-0.00000021,0.00702046,0.00126359,0.00000003,-0.0006
 5262,0.00057824,0.,0.00076845,-0.00100166,0.,-0.00021285,0.00047042,0.
 ,0.68774506,-0.00194024,0.00202832,0.,0.03515804,-0.01840536,-0.000000
 21,0.02454313,0.00175614,-0.00000019,-0.00046274,-0.00597957,-0.000000
 01,-0.00092486,-0.00384376,-0.00000004,0.00391365,0.00024285,-0.000000
 02,0.00004139,-0.00070135,0.,-0.00028029,0.00022361,0.,0.00045105,-0.0
 0049017,0.,-0.00015683,0.00000737,0.00000001,-0.05669797,-0.10804071,-
 0.00000040,-0.01107456,-0.13976889,-0.00000027,0.08624337,-0.21114114,
 -0.00000175,0.01973569,0.01024464,0.00000006,0.02222642,-0.05146185,-0
 .00000066,-0.00474414,0.00043381,-0.00000015,-0.00145808,0.00058983,0.
 00000008,-0.01525373,0.00245569,0.00000004,0.00838509,0.00252655,0.000
 00007,-0.00058523,0.00111474,0.00000005,0.00038025,-0.00053044,-0.0000
 0005,0.00022514,0.00014237,0.00000001,-0.08608412,0.52593598,0.,0.0000
 0004,0.00136399,0.00000025,-0.00000023,-0.00099421,0.00000032,-0.00000
 006,0.00564473,-0.00000003,-0.00000005,0.00352059,0.,-0.00000006,0.001
 08781,0.00000007,0.,0.00078027,0.,0.,-0.00037219,0.,0.,-0.00073648,0.,
 0.,-0.00060326,0.,0.,-0.00022840,0.00000084,-0.00000026,-0.03573804,0.
 00000002,-0.00000038,-0.01917352,0.00000087,-0.00000174,-0.03702939,0.
 00000010,0.00000021,0.00812326,0.00000033,-0.00000075,0.00521668,-0.00
 000004,-0.00000017,0.00328434,0.,0.00000005,-0.00183257,-0.00000022,0.
 00000002,-0.00019666,0.00000007,0.00000014,-0.00092286,0.,0.00000004,-
 0.00095392,0.,-0.00000005,0.00171476,0.,0.,0.00002458,-0.00000233,0.00
 000336,0.06687214,0.00072096,0.00150819,0.00000001,0.00147570,0.005608
 00,0.,0.01434740,-0.00470857,-0.00000005,-0.00297343,0.00048201,0.0000
 0004,-0.00033875,-0.00280061,-0.00000001,0.00165783,0.00112629,0.,-0.0
 0023251,0.00021319,0.,0.00032153,0.00004168,0.,-0.00001430,0.00005461,
 0.,0.00002912,0.00006124,0.,-0.00088362,0.06061221,0.00000114,0.000533
 88,0.00413313,0.00000006,-0.04470329,-0.02159765,-0.00000048,0.0180604
 1,-0.00958286,-0.00000019,-0.43563643,-0.07188745,-0.00000153,-0.01175
 003,0.01010495,0.00000018,-0.00128314,-0.00080991,-0.00000002,-0.07492
 414,0.01824809,0.00000023,0.00433107,0.00278432,0.00000004,-0.00014643
 ,-0.00031659,0.00000002,0.00202863,-0.00095636,0.00000006,-0.00225362,
 -0.00012230,0.,-0.00774080,-0.00094329,0.00000001,0.55525839,-0.001501
 64,-0.00126219,0.,-0.00045324,-0.00759417,0.00000002,-0.02053703,0.001
 53152,-0.00000006,0.00327456,-0.00114594,-0.00000003,0.00017143,0.0026
 9666,0.00000001,-0.00055804,-0.00154037,-0.00000001,0.00027097,-0.0004
 2773,0.,0.00003158,0.00017100,0.,0.00021559,-0.00013155,0.,0.00006829,
 -0.00011054,0.,0.03316091,-0.09853630,-0.00000206,0.00034790,-0.003398
 10,-0.00000003,-0.03135472,-0.01214770,-0.00000042,-0.01017379,-0.0058
 4404,-0.00000018,-0.06680028,-0.11505241,-0.00000107,0.00174039,-0.008
 89447,-0.00000018,-0.00180259,0.00009482,0.00000002,0.04361433,0.01747
 339,0.00000007,0.00467535,-0.00162902,-0.00000012,0.00000054,0.0004336
 1,0.00000001,-0.00137097,0.00270144,0.00000014,0.00186218,0.00048614,0
 .00000003,0.00887910,0.01312821,0.00000020,0.06429986,0.20967187,-0.00
 000004,-0.00000003,0.00039544,0.,-0.00000016,-0.00089139,-0.00000040,0
 .,-0.00082126,0.00000006,-0.00000001,0.00040577,0.,0.00000004,0.000191
 16,0.,-0.00000003,0.00005822,0.,0.,-0.00009675,0.,0.,-0.00020459,0.,0.
 ,-0.00005118,0.,0.,-0.00008799,0.00000064,-0.00000214,0.02034702,0.,-0
 .00000003,-0.00152874,-0.00000055,-0.00000063,0.01536941,-0.00000012,-
 0.00000013,0.00197644,-0.00000148,-0.00000096,-0.05370982,-0.00000003,
 -0.00000012,0.00015527,0.,0.00000003,-0.00189205,0.00000072,0.00000006
 ,0.01430052,0.00000008,-0.00000009,0.00356589,0.,0.,0.00016744,-0.0000
 0003,0.00000010,-0.00341199,0.00000003,0.00000002,-0.00044896,0.000000
 18,0.00000026,-0.00299137,0.00000149,0.00000308,0.03914756,0.00000820,
 -0.00023234,0.,-0.00369022,-0.00141208,0.,-0.00129942,0.01199518,0.000
 00016,0.00267685,-0.00043907,-0.00000002,0.00005008,0.00144877,0.,-0.0
 0050420,-0.00065509,0.,0.00000312,0.00005751,0.,-0.00053501,-0.0002351
 8,0.,0.00004778,-0.00003473,0.,-0.00000206,-0.00007903,0.,-0.05075864,
 -0.02815100,-0.00000050,-0.00297291,-0.00542680,-0.00000003,0.00436950
 ,-0.00404354,-0.00000009,-0.00561304,0.00236639,0.00000004,-0.03251963
 ,0.01991525,0.00000031,0.00166402,-0.00484876,-0.00000009,0.00050867,0
 .00028974,0.00000002,0.00034350,-0.00198648,0.00000003,0.00188844,0.00
 316057,0.00000006,0.00008363,0.00001427,0.,-0.00015971,0.00022584,0.,0
 .00015187,-0.00000389,0.,-0.00232624,-0.02069715,-0.00000025,-0.015884
 44,-0.02806069,-0.00000056,0.10446985,0.00305034,0.00128042,-0.0000000
 2,0.00304831,0.01366803,0.,0.03373952,-0.01277137,0.00000012,-0.007994
 01,0.00332957,0.00000007,-0.00071853,-0.00582662,-0.00000003,0.0008161
 0,0.00272074,0.00000002,-0.00035298,0.00057646,0.00000001,0.00030174,-
 0.00032422,0.,-0.00036102,0.00025601,0.,-0.00014528,0.00022012,0.,-0.0
 4111112,-0.02483800,0.00000009,0.00297180,0.01319137,0.00000008,-0.025
 63897,0.01567568,0.00000034,0.02493003,-0.01046245,-0.00000019,0.04865
 167,0.01262153,0.00000038,-0.00685309,0.02227720,0.00000045,-0.0010794
 5,-0.00073236,-0.00000006,-0.01003062,0.00017463,-0.00000021,-0.009878
 00,-0.00961548,-0.00000022,-0.00006142,-0.00023562,0.00000002,0.000817
 27,-0.00072988,0.00000003,-0.00121905,-0.00029873,0.,-0.01416341,-0.02
 046686,-0.00000032,-0.05555217,0.00932588,0.00000074,0.05683232,-0.009
 01605,0.00000005,0.00000006,0.00048031,-0.00000002,0.00000020,0.002052
 82,0.00000057,0.00000019,-0.00473110,-0.00000004,0.00000004,-0.0009483
 6,-0.00000003,-0.00000006,-0.00020129,0.00000003,0.00000002,-0.0000688
 7,-0.00000001,0.00000002,-0.00004772,0.,-0.00000001,0.00010717,0.,0.,0
 .00007911,0.,0.,0.00005962,-0.00000088,-0.00000030,-0.02965895,0.00000
 011,0.00000026,0.00166490,-0.00000043,0.00000035,-0.00487044,0.0000003
 6,-0.00000020,0.00021878,0.00000091,0.00000026,0.00151560,-0.00000011,
 0.00000033,-0.00030291,-0.00000003,-0.00000002,0.00064703,-0.00000022,
 -0.00000008,0.00496790,-0.00000013,-0.00000012,0.00026583,0.,0.,0.0000
 5391,0.00000002,0.,-0.00046526,-0.00000003,0.,-0.00042222,-0.00000011,
 -0.00000020,0.00413974,-0.00000096,0.00000058,-0.02994404,0.00000095,-
 0.00000131,0.05540847\\0.00046843,-0.00124700,-0.00000003,-0.00155215,
 -0.00303705,0.,-0.00365687,0.00013749,0.00000005,-0.00016249,0.0002699
 1,0.00000005,0.00030792,0.00214692,-0.00000001,0.00054908,0.00044336,-
 0.00000004,0.00021319,-0.00016594,0.,-0.00020271,0.00008439,0.,0.00002
 256,0.00016494,0.,0.00012593,0.00010550,0.,0.00336020,-0.00417522,-0.0
 0000019,-0.00153414,-0.00563730,0.00000013,0.00200988,-0.00171854,0.,-
 0.00297086,0.00086238,-0.00000016,-0.00415471,-0.00130930,-0.00000039,
 0.00088018,-0.00095313,-0.00000015,-0.00017556,0.00010370,0.,0.0019486
 8,-0.00004181,0.00000016,0.00230793,0.00126351,0.00000018,0.00005495,0
 .00010982,0.00000003,0.00016651,-0.00002896,0.,0.00028244,0.00015058,0
 .00000002,0.00167378,0.00103672,0.00000007,0.00272425,0.00266755,0.000
 00004,-0.00268646,0.00876749,0.00000025\\\@
 The archive entry for this job was punched.


 EVERYBODY NEEDS BEAUTY AS WELL AS BREAD, PLACES TO PLAY IN AND PRAY IN,
 WHERE NATURE MAY HEAL AND CHEER AND GIVE STRENGTH TO BODY AND SOUL ALIKE.

                                    -- JOHN MUIR
 Job cpu time:       0 days  2 hours 55 minutes 19.6 seconds.
 Elapsed time:       0 days  0 hours 18 minutes 40.3 seconds.
 File lengths (MBytes):  RWF=   1380 Int=      0 D2E=      0 Chk=     48 Scr=      8
 Normal termination of Gaussian 16 at Mon Jul 13 15:34:56 2020.
