 Entering Gaussian System, Link 0=g16
 Initial command:
 /gpfs/loomis/apps/avx/software/Gaussian/16-C.01_AVX/g16/l1.exe "/home/fas/batista/pev4/scratch60/gauss-scratch/Gau-111872.inp" -scrdir="/home/fas/batista/pev4/scratch60/gauss-scratch/"
 Entering Link 1 = /gpfs/loomis/apps/avx/software/Gaussian/16-C.01_AVX/g16/l1.exe PID=    111873.
  
 Copyright (c) 1988-2019, Gaussian, Inc.  All Rights Reserved.
  
 This is part of the Gaussian(R) 16 program.  It is based on
 the Gaussian(R) 09 system (copyright 2009, Gaussian, Inc.),
 the Gaussian(R) 03 system (copyright 2003, Gaussian, Inc.),
 the Gaussian(R) 98 system (copyright 1998, Gaussian, Inc.),
 the Gaussian(R) 94 system (copyright 1995, Gaussian, Inc.),
 the Gaussian 92(TM) system (copyright 1992, Gaussian, Inc.),
 the Gaussian 90(TM) system (copyright 1990, Gaussian, Inc.),
 the Gaussian 88(TM) system (copyright 1988, Gaussian, Inc.),
 the Gaussian 86(TM) system (copyright 1986, Carnegie Mellon
 University), and the Gaussian 82(TM) system (copyright 1983,
 Carnegie Mellon University). Gaussian is a federally registered
 trademark of Gaussian, Inc.
  
 This software contains proprietary and confidential information,
 including trade secrets, belonging to Gaussian, Inc.
  
 This software is provided under written license and may be
 used, copied, transmitted, or stored only in accord with that
 written license.
  
 The following legend is applicable only to US Government
 contracts under FAR:
  
                    RESTRICTED RIGHTS LEGEND
  
 Use, reproduction and disclosure by the US Government is
 subject to restrictions as set forth in subparagraphs (a)
 and (c) of the Commercial Computer Software - Restricted
 Rights clause in FAR 52.227-19.
  
 Gaussian, Inc.
 340 Quinnipiac St., Bldg. 40, Wallingford CT 06492
  
  
 ---------------------------------------------------------------
 Warning -- This program may not be used in any manner that
 competes with the business of Gaussian, Inc. or will provide
 assistance to any competitor of Gaussian, Inc.  The licensee
 of this program is prohibited from giving any competitor of
 Gaussian, Inc. access to this program.  By using this program,
 the user acknowledges that Gaussian, Inc. is engaged in the
 business of creating and licensing software in the field of
 computational chemistry and represents and warrants to the
 licensee that it is not a competitor of Gaussian, Inc. and that
 it will not use this program in any manner prohibited above.
 ---------------------------------------------------------------
  

 Cite this work as:
 Gaussian 16, Revision C.01,
 M. J. Frisch, G. W. Trucks, H. B. Schlegel, G. E. Scuseria, 
 M. A. Robb, J. R. Cheeseman, G. Scalmani, V. Barone, 
 G. A. Petersson, H. Nakatsuji, X. Li, M. Caricato, A. V. Marenich, 
 J. Bloino, B. G. Janesko, R. Gomperts, B. Mennucci, H. P. Hratchian, 
 J. V. Ortiz, A. F. Izmaylov, J. L. Sonnenberg, D. Williams-Young, 
 F. Ding, F. Lipparini, F. Egidi, J. Goings, B. Peng, A. Petrone, 
 T. Henderson, D. Ranasinghe, V. G. Zakrzewski, J. Gao, N. Rega, 
 G. Zheng, W. Liang, M. Hada, M. Ehara, K. Toyota, R. Fukuda, 
 J. Hasegawa, M. Ishida, T. Nakajima, Y. Honda, O. Kitao, H. Nakai, 
 T. Vreven, K. Throssell, J. A. Montgomery, Jr., J. E. Peralta, 
 F. Ogliaro, M. J. Bearpark, J. J. Heyd, E. N. Brothers, K. N. Kudin, 
 V. N. Staroverov, T. A. Keith, R. Kobayashi, J. Normand, 
 K. Raghavachari, A. P. Rendell, J. C. Burant, S. S. Iyengar, 
 J. Tomasi, M. Cossi, J. M. Millam, M. Klene, C. Adamo, R. Cammi, 
 J. W. Ochterski, R. L. Martin, K. Morokuma, O. Farkas, 
 J. B. Foresman, and D. J. Fox, Gaussian, Inc., Wallingford CT, 2019.
 
 ******************************************
 Gaussian 16:  ES64L-G16RevC.01  3-Jul-2019
                13-Jul-2020 
 ******************************************
 %chk=config_11_10.chk
 %mem=58GB
 %nprocshared=10
 Will use up to   10 processors via shared memory.
 ----------------------------------------------------------------------
 #p opt=addgic freq td wb97xd/cc-pvdz nosymm int=ultrafine scrf=(solven
 t=CarbonTetraChloride)
 ----------------------------------------------------------------------
 1/18=20,19=15,26=6,38=1,145=903/1,3;
 2/9=110,12=2,15=1,17=6,18=5,40=1/2;
 3/5=16,11=9,25=1,30=1,70=2201,71=1,72=11,74=-58,75=-5/1,2,3,8;
 4//1;
 5/5=2,38=5,53=11/2;
 8/6=1,10=1/1;
 9/15=2,42=1,70=2/14;
 10/5=4,31=1/2;
 6/7=2,8=2,9=2,10=2/1;
 7/12=6,13=5,30=1/1,2,3,16;
 1/18=20,19=15,26=6,145=903/3(2);
 2/9=110,15=1/2;
 99//99;
 2/9=110,15=1/2;
 3/5=16,11=9,25=1,30=1,70=2205,71=1,72=11,74=-58,75=-5/1,2,3,8;
 4/5=5,16=3,69=1/1;
 5/5=2,38=5,53=11/2;
 8/6=1,10=1/1;
 9/15=2,42=1,49=4,70=2/14;
 10/5=4,31=1/2;
 7/12=6,13=5,30=1/1,2,3,16;
 1/18=20,19=15,26=6,145=903/3(-8);
 2/9=110,15=1/2;
 6/7=2,8=2,9=2,10=2/1;
 99/9=10/99;
 Leave Link    1 at Mon Jul 13 18:46:52 2020, MaxMem=  7784628224 cpu:               5.2 elap:               0.6
 (Enter /gpfs/loomis/apps/avx/software/Gaussian/16-C.01_AVX/g16/l101.exe)
 ------------------------------------------------
 NM 2D-scan of HBT TD-WB97XD pVDZ in CTC Relaxed.
 ------------------------------------------------
 Symbolic Z-matrix:
 Charge =  0 Multiplicity = 1
 C                     1.63526  -3.25516  -0.00002 
 C                     1.00878  -2.0094   -0.00002 
 C                     1.74859  -0.79983  -0.00002 
 C                     3.14139  -0.85249  -0.00002 
 C                     3.76405  -2.10011  -0.00002 
 C                     3.02834  -3.29014  -0.00002 
 H                     1.04725  -4.17441  -0.00002 
 H                     3.72635   0.06826  -0.00003 
 H                     4.85442  -2.14343  -0.00002 
 H                     3.54514  -4.25062  -0.00002 
 N                     0.93182   0.32312  -0.00002 
 S                    -0.72118  -1.70107  -0.00002 
 C                    -1.37485   1.04551   0.00001 
 C                    -2.73241   0.80056   0.00001 
 C                    -0.86592   2.44177   0.00003 
 C                    -3.65362   1.88351   0.00003 
 H                    -3.11742  -0.22221  -0.00001 
 C                    -1.84291   3.48664   0.00005 
 C                    -3.21232   3.20583   0.00005 
 H                    -4.72244   1.66241   0.00003 
 H                    -1.46096   4.50885   0.00007 
 H                    -3.93748   4.02022   0.00006 
 C                    -0.3918    0.01082  -0.00002 
 O                     0.37163   2.6581    0.00004 
 H                     1.09147   1.06274  0. 
 
 Initializing the GIC definitions file.
 Number of initial coordinates =   134
 Number of input entries/lines =    52
 Number of additional coordinates =     2
 Number of removed coordinates =     0
 Number of frozen coordinates =     2
 Number of final active and frozen coordinates =   136
 ITRead=  0  0  0  0  0  0  0  0  0  0  0  0  0  0  0  0  0  0  0  0
 ITRead=  0  0  0  0  0
 MicOpt= -1 -1 -1 -1 -1 -1 -1 -1 -1 -1 -1 -1 -1 -1 -1 -1 -1 -1 -1 -1
 MicOpt= -1 -1 -1 -1 -1
 NAtoms=     25 NQM=       25 NQMF=       0 NMMI=      0 NMMIF=      0
                NMic=       0 NMicF=      0.
                    Isotopes and Nuclear Properties:
 (Nuclear quadrupole moments (NQMom) in fm**2, nuclear magnetic moments (NMagM)
  in nuclear magnetons)

  Atom         1           2           3           4           5           6           7           8           9          10
 IAtWgt=          12          12          12          12          12          12           1           1           1           1
 AtmWgt=  12.0000000  12.0000000  12.0000000  12.0000000  12.0000000  12.0000000   1.0078250   1.0078250   1.0078250   1.0078250
 NucSpn=           0           0           0           0           0           0           1           1           1           1
 AtZEff=  -0.0000000  -0.0000000  -0.0000000  -0.0000000  -0.0000000  -0.0000000  -0.0000000  -0.0000000  -0.0000000  -0.0000000
 NQMom=    0.0000000   0.0000000   0.0000000   0.0000000   0.0000000   0.0000000   0.0000000   0.0000000   0.0000000   0.0000000
 NMagM=    0.0000000   0.0000000   0.0000000   0.0000000   0.0000000   0.0000000   2.7928460   2.7928460   2.7928460   2.7928460
 AtZNuc=   6.0000000   6.0000000   6.0000000   6.0000000   6.0000000   6.0000000   1.0000000   1.0000000   1.0000000   1.0000000

  Atom        11          12          13          14          15          16          17          18          19          20
 IAtWgt=          14          32          12          12          12          12           1          12          12           1
 AtmWgt=  14.0030740  31.9720718  12.0000000  12.0000000  12.0000000  12.0000000   1.0078250  12.0000000  12.0000000   1.0078250
 NucSpn=           2           0           0           0           0           0           1           0           0           1
 AtZEff=  -0.0000000  -0.0000000  -0.0000000  -0.0000000  -0.0000000  -0.0000000  -0.0000000  -0.0000000  -0.0000000  -0.0000000
 NQMom=    2.0440000   0.0000000   0.0000000   0.0000000   0.0000000   0.0000000   0.0000000   0.0000000   0.0000000   0.0000000
 NMagM=    0.4037610   0.0000000   0.0000000   0.0000000   0.0000000   0.0000000   2.7928460   0.0000000   0.0000000   2.7928460
 AtZNuc=   7.0000000  16.0000000   6.0000000   6.0000000   6.0000000   6.0000000   1.0000000   6.0000000   6.0000000   1.0000000

  Atom        21          22          23          24          25
 IAtWgt=           1           1          12          16           1
 AtmWgt=   1.0078250   1.0078250  12.0000000  15.9949146   1.0078250
 NucSpn=           1           1           0           0           1
 AtZEff=  -0.0000000  -0.0000000  -0.0000000  -0.0000000  -0.0000000
 NQMom=    0.0000000   0.0000000   0.0000000   0.0000000   0.0000000
 NMagM=    2.7928460   2.7928460   0.0000000   0.0000000   2.7928460
 AtZNuc=   1.0000000   1.0000000   6.0000000   8.0000000   1.0000000
 Leave Link  101 at Mon Jul 13 18:46:56 2020, MaxMem=  7784628224 cpu:              32.1 elap:               3.3
 (Enter /gpfs/loomis/apps/avx/software/Gaussian/16-C.01_AVX/g16/l103.exe)

 GradGradGradGradGradGradGradGradGradGradGradGradGradGradGradGradGradGrad
 Berny optimization.
 Initialization pass.
                           ----------------------------
                           !    Initial Parameters    !
                           ! (Angstroms and Degrees)  !
 --------------------------                            --------------------------
 ! Name  Definition              Value          Derivative Info.                !
 --------------------------------------------------------------------------------
 ! R1    R(1,2)                  1.3944         estimate D2E/DX2                !
 ! R2    R(1,6)                  1.3935         estimate D2E/DX2                !
 ! R3    R(1,7)                  1.0912         estimate D2E/DX2                !
 ! R4    R(2,3)                  1.4179         estimate D2E/DX2                !
 ! R5    R(2,12)                 1.7572         estimate D2E/DX2                !
 ! R6    R(3,4)                  1.3938         estimate D2E/DX2                !
 ! R7    R(3,11)                 1.3886         estimate D2E/DX2                !
 ! R8    R(4,5)                  1.3944         estimate D2E/DX2                !
 ! R9    R(4,8)                  1.0909         estimate D2E/DX2                !
 ! R10   R(5,6)                  1.3991         estimate D2E/DX2                !
 ! R11   R(5,9)                  1.0912         estimate D2E/DX2                !
 ! R12   R(6,10)                 1.0907         estimate D2E/DX2                !
 ! R13   R(11,23)                1.36           estimate D2E/DX2                !
 ! R14   R(11,25)                0.7567         estimate D2E/DX2                !
 ! R15   R(12,23)                1.7433         estimate D2E/DX2                !
 ! R16   R(13,14)                1.3795         estimate D2E/DX2                !
 ! R17   R(13,15)                1.4861         estimate D2E/DX2                !
 ! R18   R(13,23)                1.4272         estimate D2E/DX2                !
 ! R19   R(14,16)                1.4218         estimate D2E/DX2                !
 ! R20   R(14,17)                1.0928         estimate D2E/DX2                !
 ! R21   R(15,18)                1.4305         estimate D2E/DX2                !
 ! R22   R(15,24)                1.2563         estimate D2E/DX2                !
 ! R23   R(16,19)                1.394          estimate D2E/DX2                !
 ! R24   R(16,20)                1.0914         estimate D2E/DX2                !
 ! R25   R(18,19)                1.3979         estimate D2E/DX2                !
 ! R26   R(18,21)                1.0912         estimate D2E/DX2                !
 ! R27   R(19,22)                1.0905         estimate D2E/DX2                !
 ! A1    A(2,1,6)              118.1357         estimate D2E/DX2                !
 ! A2    A(2,1,7)              120.6974         estimate D2E/DX2                !
 ! A3    A(6,1,7)              121.1669         estimate D2E/DX2                !
 ! A4    A(1,2,3)              121.8515         estimate D2E/DX2                !
 ! A5    A(1,2,12)             126.803          estimate D2E/DX2                !
 ! A6    A(3,2,12)             111.3455         estimate D2E/DX2                !
 ! A7    A(2,3,4)              119.2862         estimate D2E/DX2                !
 ! A8    A(2,3,11)             112.5189         estimate D2E/DX2                !
 ! A9    A(4,3,11)             128.1949         estimate D2E/DX2                !
 ! A10   A(3,4,5)              118.6878         estimate D2E/DX2                !
 ! A11   A(3,4,8)              120.2633         estimate D2E/DX2                !
 ! A12   A(5,4,8)              121.0489         estimate D2E/DX2                !
 ! A13   A(4,5,6)              121.7517         estimate D2E/DX2                !
 ! A14   A(4,5,9)              118.7979         estimate D2E/DX2                !
 ! A15   A(6,5,9)              119.4504         estimate D2E/DX2                !
 ! A16   A(1,6,5)              120.2871         estimate D2E/DX2                !
 ! A17   A(1,6,10)             119.722          estimate D2E/DX2                !
 ! A18   A(5,6,10)             119.9909         estimate D2E/DX2                !
 ! A19   A(3,11,23)            112.7536         estimate D2E/DX2                !
 ! A20   A(3,11,25)            131.7894         estimate D2E/DX2                !
 ! A21   A(23,11,25)           115.457          estimate D2E/DX2                !
 ! A22   A(2,12,23)             89.2144         estimate D2E/DX2                !
 ! A23   A(14,13,15)           120.2549         estimate D2E/DX2                !
 ! A24   A(14,13,23)           123.3059         estimate D2E/DX2                !
 ! A25   A(15,13,23)           116.4392         estimate D2E/DX2                !
 ! A26   A(13,14,16)           120.1582         estimate D2E/DX2                !
 ! A27   A(13,14,17)           120.8567         estimate D2E/DX2                !
 ! A28   A(16,14,17)           118.9851         estimate D2E/DX2                !
 ! A29   A(13,15,18)           116.8962         estimate D2E/DX2                !
 ! A30   A(13,15,24)           119.9422         estimate D2E/DX2                !
 ! A31   A(18,15,24)           123.1616         estimate D2E/DX2                !
 ! A32   A(14,16,19)           121.1581         estimate D2E/DX2                !
 ! A33   A(14,16,20)           118.6988         estimate D2E/DX2                !
 ! A34   A(19,16,20)           120.1431         estimate D2E/DX2                !
 ! A35   A(15,18,19)           121.4887         estimate D2E/DX2                !
 ! A36   A(15,18,21)           116.4349         estimate D2E/DX2                !
 ! A37   A(19,18,21)           122.0763         estimate D2E/DX2                !
 ! A38   A(16,19,18)           120.0438         estimate D2E/DX2                !
 ! A39   A(16,19,22)           119.8615         estimate D2E/DX2                !
 ! A40   A(18,19,22)           120.0947         estimate D2E/DX2                !
 ! A41   A(11,23,12)           114.1675         estimate D2E/DX2                !
 ! A42   A(11,23,13)           120.2578         estimate D2E/DX2                !
 ! A43   A(12,23,13)           125.5746         estimate D2E/DX2                !
 ! D1    D(6,1,2,3)              0.0            estimate D2E/DX2                !
 ! D2    D(6,1,2,12)          -180.0            estimate D2E/DX2                !
 ! D3    D(7,1,2,3)            179.9999         estimate D2E/DX2                !
 ! D4    D(7,1,2,12)             0.0            estimate D2E/DX2                !
 ! D5    D(2,1,6,5)             -0.0001         estimate D2E/DX2                !
 ! D6    D(2,1,6,10)           179.9999         estimate D2E/DX2                !
 ! D7    D(7,1,6,5)           -180.0            estimate D2E/DX2                !
 ! D8    D(7,1,6,10)             0.0            estimate D2E/DX2                !
 ! D9    D(1,2,3,4)              0.0001         estimate D2E/DX2                !
 ! D10   D(1,2,3,11)           180.0            estimate D2E/DX2                !
 ! D11   D(12,2,3,4)          -179.9999         estimate D2E/DX2                !
 ! D12   D(12,2,3,11)            0.0            estimate D2E/DX2                !
 ! D13   D(1,2,12,23)          179.9998         estimate D2E/DX2                !
 ! D14   D(3,2,12,23)           -0.0002         estimate D2E/DX2                !
 ! D15   D(2,3,4,5)             -0.0001         estimate D2E/DX2                !
 ! D16   D(2,3,4,8)            179.9999         estimate D2E/DX2                !
 ! D17   D(11,3,4,5)          -180.0            estimate D2E/DX2                !
 ! D18   D(11,3,4,8)             0.0001         estimate D2E/DX2                !
 ! D19   D(2,3,11,23)            0.0003         estimate D2E/DX2                !
 ! D20   D(2,3,11,25)          179.9978         estimate D2E/DX2                !
 ! D21   D(4,3,11,23)         -179.9999         estimate D2E/DX2                !
 ! D22   D(4,3,11,25)           -0.0023         estimate D2E/DX2                !
 ! D23   D(3,4,5,6)              0.0            estimate D2E/DX2                !
 ! D24   D(3,4,5,9)           -179.9999         estimate D2E/DX2                !
 ! D25   D(8,4,5,6)            180.0            estimate D2E/DX2                !
 ! D26   D(8,4,5,9)              0.0            estimate D2E/DX2                !
 ! D27   D(4,5,6,1)              0.0001         estimate D2E/DX2                !
 ! D28   D(4,5,6,10)          -180.0            estimate D2E/DX2                !
 ! D29   D(9,5,6,1)           -180.0            estimate D2E/DX2                !
 ! D30   D(9,5,6,10)             0.0            estimate D2E/DX2                !
 ! D31   D(3,11,23,12)          -0.0004         estimate D2E/DX2                !
 ! D32   D(3,11,23,13)         179.9989         estimate D2E/DX2                !
 ! D33   D(25,11,23,12)       -179.9984         estimate D2E/DX2                !
 ! D34   D(25,11,23,13)          0.0009         estimate D2E/DX2                !
 ! D35   D(2,12,23,11)           0.0003         estimate D2E/DX2                !
 ! D36   D(2,12,23,13)        -179.9989         estimate D2E/DX2                !
 ! D37   D(15,13,14,16)          0.0003         estimate D2E/DX2                !
 ! D38   D(15,13,14,17)       -179.9999         estimate D2E/DX2                !
 ! D39   D(23,13,14,16)       -179.9998         estimate D2E/DX2                !
 ! D40   D(23,13,14,17)          0.0            estimate D2E/DX2                !
 ! D41   D(14,13,15,18)         -0.0004         estimate D2E/DX2                !
 ! D42   D(14,13,15,24)        179.9994         estimate D2E/DX2                !
 ! D43   D(23,13,15,18)        179.9997         estimate D2E/DX2                !
 ! D44   D(23,13,15,24)         -0.0005         estimate D2E/DX2                !
 ! D45   D(14,13,23,11)        179.9997         estimate D2E/DX2                !
 ! D46   D(14,13,23,12)         -0.0011         estimate D2E/DX2                !
 ! D47   D(15,13,23,11)         -0.0004         estimate D2E/DX2                !
 ! D48   D(15,13,23,12)        179.9988         estimate D2E/DX2                !
 ! D49   D(13,14,16,19)          0.0            estimate D2E/DX2                !
 ! D50   D(13,14,16,20)        179.9999         estimate D2E/DX2                !
 ! D51   D(17,14,16,19)       -179.9999         estimate D2E/DX2                !
 ! D52   D(17,14,16,20)          0.0001         estimate D2E/DX2                !
 ! D53   D(13,15,18,19)          0.0003         estimate D2E/DX2                !
 ! D54   D(13,15,18,21)        179.9999         estimate D2E/DX2                !
 ! D55   D(24,15,18,19)       -179.9995         estimate D2E/DX2                !
 ! D56   D(24,15,18,21)          0.0001         estimate D2E/DX2                !
 ! D57   D(14,16,19,18)         -0.0001         estimate D2E/DX2                !
 ! D58   D(14,16,19,22)        180.0            estimate D2E/DX2                !
 ! D59   D(20,16,19,18)        179.9999         estimate D2E/DX2                !
 ! D60   D(20,16,19,22)          0.0            estimate D2E/DX2                !
 ! D61   D(15,18,19,16)         -0.0001         estimate D2E/DX2                !
 ! D62   D(15,18,19,22)        179.9999         estimate D2E/DX2                !
 ! D63   D(21,18,19,16)       -179.9996         estimate D2E/DX2                !
 ! D64   D(21,18,19,22)          0.0003         estimate D2E/DX2                !
 ! Qtot  GIC-1                  50.0            Frozen                          !
 ! Ptot  GIC-2                  40.0            Frozen                          !
 --------------------------------------------------------------------------------
 NOTE: GIC-type coordinates are in arbitrary units.
 Trust Radius=3.00D-01 FncErr=5.00D-06 GrdErr=5.00D-06 EigMax=2.50D+02 EigMin=1.00D-04
 Number of steps in this run=    146 maximum allowed number of steps=    150.
 GradGradGradGradGradGradGradGradGradGradGradGradGradGradGradGradGradGrad

 Leave Link  103 at Mon Jul 13 18:46:56 2020, MaxMem=  7784628224 cpu:               0.2 elap:               0.0
 (Enter /gpfs/loomis/apps/avx/software/Gaussian/16-C.01_AVX/g16/l202.exe)
                          Input orientation:                          
 ---------------------------------------------------------------------
 Center     Atomic      Atomic             Coordinates (Angstroms)
 Number     Number       Type             X           Y           Z
 ---------------------------------------------------------------------
      1          6           0        1.635258   -3.255160   -0.000021
      2          6           0        1.008780   -2.009399   -0.000022
      3          6           0        1.748587   -0.799834   -0.000023
      4          6           0        3.141386   -0.852489   -0.000024
      5          6           0        3.764047   -2.100112   -0.000023
      6          6           0        3.028336   -3.290142   -0.000020
      7          1           0        1.047254   -4.174407   -0.000019
      8          1           0        3.726352    0.068263   -0.000026
      9          1           0        4.854419   -2.143432   -0.000023
     10          1           0        3.545142   -4.250616   -0.000018
     11          7           0        0.931816    0.323124   -0.000024
     12         16           0       -0.721183   -1.701066   -0.000022
     13          6           0       -1.374852    1.045510    0.000006
     14          6           0       -2.732406    0.800559    0.000007
     15          6           0       -0.865919    2.441766    0.000034
     16          6           0       -3.653622    1.883505    0.000028
     17          1           0       -3.117422   -0.222211   -0.000011
     18          6           0       -1.842908    3.486638    0.000051
     19          6           0       -3.212320    3.205829    0.000048
     20          1           0       -4.722435    1.662407    0.000027
     21          1           0       -1.460964    4.508847    0.000073
     22          1           0       -3.937483    4.020221    0.000064
     23          6           0       -0.391795    0.010816   -0.000018
     24          8           0        0.371630    2.658097    0.000044
     25          1           0        1.091469    1.062745   -0.000003
 ---------------------------------------------------------------------
                    Distance matrix (angstroms):
                    1          2          3          4          5
     1  C    0.000000
     2  C    1.394416   0.000000
     3  C    2.457939   1.417872   0.000000
     4  C    2.835709   2.426200   1.393794   0.000000
     5  C    2.421957   2.756760   2.398500   1.394371   0.000000
     6  C    1.393517   2.391425   2.799891   2.440273   1.399086
     7  H    1.091222   2.165350   3.446681   3.926898   3.418138
     8  H    3.926552   3.420800   2.159896   1.090858   2.168703
     9  H    3.405721   3.847974   3.383999   2.144997   1.091232
    10  H    2.153738   3.384699   3.890438   3.422030   2.161617
    11  N    3.646772   2.333792   1.388578   2.502851   3.727413
    12  S    2.822769   1.757225   2.629065   3.954683   4.502947
    13  C    5.249431   3.874812   3.627833   4.898858   6.025216
    14  C    5.960314   4.678924   4.758209   6.101967   7.114619
    15  C    6.221805   4.829841   4.164567   5.187544   6.485772
    16  C    7.374153   6.073936   6.031929   7.325148   8.419681
    17  H    5.637974   4.496619   4.900172   6.290463   7.133101
    18  C    7.586137   6.191812   5.592198   6.608420   7.915158
    19  C    8.077338   6.709417   6.376200   7.539199   8.764856
    20  H    8.037583   6.806540   6.923638   8.256173   9.283153
    21  H    8.358612   6.970449   6.203492   7.065801   8.424908
    22  H    9.164421   7.798835   7.454148   8.593817   9.837278
    23  C    3.843897   2.458227   2.288753   3.637123   4.661228
    24  O    6.046765   4.710783   3.722002   4.471663   5.843719
    25  H    4.352012   3.073256   1.975096   2.805402   4.140814
                    6          7          8          9         10
     6  C    0.000000
     7  H    2.169473   0.000000
     8  H    3.430176   5.017750   0.000000
     9  H    2.156275   4.315016   2.482766   0.000000
    10  H    1.090688   2.499050   4.322679   2.480813   0.000000
    11  N    4.177450   4.499012   2.806133   4.633650   5.267691
    12  S    4.072353   3.040524   4.786553   5.593123   4.970084
    13  C    6.179478   5.754488   5.193968   6.998083   7.228783
    14  C    7.065408   6.247889   6.500139   8.137997   8.057418
    15  C    6.929646   6.887233   5.169378   7.331187   8.015325
    16  C    8.450751   7.667890   7.599942   9.412916   9.457783
    17  H    6.868955   5.741461   6.849935   8.200081   7.785744
    18  C    8.345883   8.188080   6.534673   8.749393   9.428477
    19  C    9.007965   8.521259   7.615083   9.679197  10.062895
    20  H    9.197946   8.207175   8.597866  10.305365  10.164481
    21  H    8.998780   9.038255   6.828399   9.172615  10.089068
    22  H   10.097724   9.591638   8.622780  10.737232  11.153314
    23  C    4.753275   4.425715   4.118548   5.671291   5.801662
    24  O    6.514571   6.865827   4.238090   6.568872   7.602730
    25  H    4.764355   5.237338   2.816310   4.943618   5.852548
                   11         12         13         14         15
    11  N    0.000000
    12  S    2.613379   0.000000
    13  C    2.417139   2.823290   0.000000
    14  C    3.695195   3.209851   1.379476   0.000000
    15  C    2.778578   4.145359   1.486117   2.485424   0.000000
    16  C    4.843659   4.631236   2.427968   1.421764   2.843052
    17  H    4.085795   2.815843   2.154916   1.092838   3.487984
    18  C    4.207959   5.307592   2.485594   2.829527   1.430477
    19  C    5.048153   5.503034   2.836065   2.452680   2.467669
    20  H    5.810701   5.227138   3.403950   2.168640   3.934478
    21  H    4.821377   6.253822   3.464407   3.920200   2.151023
    22  H    6.113804   6.563361   3.926318   3.437795   3.453407
    23  C    1.359957   1.743283   1.427233   2.470254   2.476754
    24  O    2.401231   4.494056   2.377107   3.617387   1.256315
    25  H    0.756656   3.305201   2.466381   3.832853   2.394382
                   16         17         18         19         20
    16  C    0.000000
    17  H    2.172913   0.000000
    18  C    2.418412   3.921727   0.000000
    19  C    1.394018   3.429353   1.397906   0.000000
    20  H    1.091442   2.475450   3.408738   2.159305   0.000000
    21  H    3.420551   5.012660   1.091235   2.182912   4.328905
    22  H    2.155488   4.320963   2.161470   1.090456   2.485042
    23  C    3.761180   2.735569   3.766572   4.261862   4.634889
    24  O    4.099103   4.524340   2.364457   3.625563   5.190462
    25  H    4.815551   4.400667   3.806025   4.807848   5.844748
                   21         22         23         24         25
    21  H    0.000000
    22  H    2.524263   0.000000
    23  C    4.623354   5.352310   0.000000
    24  O    2.604548   4.519273   2.755162   0.000000
    25  H    4.288418   5.834125   1.818413   1.750234   0.000000
 Symmetry turned off by external request.
 Stoichiometry    C13H9NOS
 Framework group  C1[X(C13H9NOS)]
 Deg. of freedom    69
 Full point group                 C1      NOp   1
 Rotational constants (GHZ):           1.3993200           0.2859980           0.2374642
 Leave Link  202 at Mon Jul 13 18:46:56 2020, MaxMem=  7784628224 cpu:               0.4 elap:               0.1
 (Enter /gpfs/loomis/apps/avx/software/Gaussian/16-C.01_AVX/g16/l301.exe)
 Standard basis: CC-pVDZ (5D, 7F)
 Ernie: Thresh=  0.10000D-02 Tol=  0.10000D-05 Strict=F.
 Ernie:  40 primitive shells out of 425 were deleted.
   273 basis functions,   629 primitive gaussians,   289 cartesian basis functions
    59 alpha electrons       59 beta electrons
       nuclear repulsion energy      1101.7950548036 Hartrees.
 IExCor= 4639 DFT=T Ex+Corr=wB97XD ExCW=0 ScaHFX=  1.000000
 ScaDFX=  1.000000  1.000000  1.000000  1.000000 ScalE2=  1.000000  1.000000
 IRadAn=      5 IRanWt=     -1 IRanGd=            0 ICorTp=0 IEmpDi=121
 HFx  wShort=  0.000000 wLong=  0.200000 cFull=  0.222036 cShort=  0.000000 cLong=  0.777964
 DFx  wShort=  0.000000 wLong=  0.200000 cFull=  0.000000 cShort=  0.000000 cLong=  1.000000
 NAtoms=   25 NActive=   25 NUniq=   25 SFac= 1.00D+00 NAtFMM=   60 NAOKFM=F Big=F
 Integral buffers will be    131072 words long.
 Raffenetti 1 integral format.
 Two-electron integral symmetry is turned off.
 R6Disp:  Grimme-D2 Dispersion energy=       -0.0140841021 Hartrees.
 Nuclear repulsion after empirical dispersion term =     1101.7809707015 Hartrees.
 ------------------------------------------------------------------------------
 Polarizable Continuum Model (PCM)
 =================================
 Model                : PCM.
 Atomic radii         : UFF (Universal Force Field).
 Polarization charges : Total charges.
 Charge compensation  : None.
 Solution method      : On-the-fly selection.
 Cavity type          : Scaled VdW (van der Waals Surface) (Alpha=1.100).
 Cavity algorithm     : GePol (No added spheres)
                        Default sphere list used, NSphG=   25.
                        Lebedev-Laikov grids with approx.  5.0 points / Ang**2.
                        Smoothing algorithm: York/Karplus (Gamma=1.0000).
                        Polarization charges: spherical gaussians, with
                                              point-specific exponents (IZeta= 3).
                        Self-potential: point-specific (ISelfS= 7).
                        Self-field    : sphere-specific E.n sum rule (ISelfD= 2).
 1st derivatives      : Analytical E(r).r(x)/FMM algorithm (CHGder, D1EAlg=3).
                        Cavity 1st derivative terms included.
 Solvent              : CarbonTetraChloride, Eps=   2.228000 Eps(inf)=   2.131892
 ------------------------------------------------------------------------------
 GePol: Number of generator spheres                  =      25
 GePol: Total number of spheres                      =      25
 GePol: Number of exposed spheres                    =      25 (100.00%)
 GePol: Number of points                             =    2190
 GePol: Average weight of points                     =       0.12
 GePol: Minimum weight of points                     =   0.48D-09
 GePol: Maximum weight of points                     =    0.20577
 GePol: Number of points with low weight             =     140
 GePol: Fraction of low-weight points (<1% of avg)   =       6.39%
 GePol: Cavity surface area                          =    272.570 Ang**2
 GePol: Cavity volume                                =    291.905 Ang**3
 Leave Link  301 at Mon Jul 13 18:46:56 2020, MaxMem=  7784628224 cpu:               1.2 elap:               0.2
 (Enter /gpfs/loomis/apps/avx/software/Gaussian/16-C.01_AVX/g16/l302.exe)
 NPDir=0 NMtPBC=     1 NCelOv=     1 NCel=       1 NClECP=     1 NCelD=      1
         NCelK=      1 NCelE2=     1 NClLst=     1 CellRange=     0.0.
 One-electron integrals computed using PRISM.
 NBasis=   273 RedAO= T EigKep=  3.01D-04  NBF=   273
 NBsUse=   273 1.00D-06 EigRej= -1.00D+00 NBFU=   273
 Precomputing XC quadrature grid using
 IXCGrd= 4 IRadAn=           5 IRanWt=          -1 IRanGd=           0 AccXCQ= 0.00D+00.
 Generated NRdTot=       0 NPtTot=           0 NUsed=           0 NTot=          32
 NSgBfM=   288   288   288   288   288 MxSgAt=    25 MxSgA2=    25.
 Leave Link  302 at Mon Jul 13 18:46:56 2020, MaxMem=  7784628224 cpu:               2.8 elap:               0.3
 (Enter /gpfs/loomis/apps/avx/software/Gaussian/16-C.01_AVX/g16/l303.exe)
 DipDrv:  MaxL=1.
 Leave Link  303 at Mon Jul 13 18:46:57 2020, MaxMem=  7784628224 cpu:               0.7 elap:               0.1
 (Enter /gpfs/loomis/apps/avx/software/Gaussian/16-C.01_AVX/g16/l308.exe)
 Leave Link  308 at Mon Jul 13 18:46:57 2020, MaxMem=  7784628224 cpu:               0.8 elap:               0.1
 (Enter /gpfs/loomis/apps/avx/software/Gaussian/16-C.01_AVX/g16/l401.exe)
 ExpMin= 1.22D-01 ExpMax= 1.11D+05 ExpMxC= 1.07D+03 IAcc=3 IRadAn=         5 AccDes= 0.00D+00
 Harris functional with IExCor= 4639 and IRadAn=       5 diagonalized for initial guess.
 HarFok:  IExCor= 4639 AccDes= 0.00D+00 IRadAn=         5 IDoV= 1 UseB2=F ITyADJ=14
 ICtDFT=  3500011 ScaDFX=  1.000000  1.000000  1.000000  1.000000
 FoFCou: FMM=F IPFlag=           0 FMFlag=      100000 FMFlg1=           0
         NFxFlg=           0 DoJE=T BraDBF=F KetDBF=T FulRan=T
         wScrn=  0.000000 ICntrl=       500 IOpCl=  0 I1Cent=   200000004 NGrid=           0
         NMat0=    1 NMatS0=      1 NMatT0=    0 NMatD0=    1 NMtDS0=    0 NMtDT0=    0
 Symmetry not used in FoFCou.
 Harris En= -994.330270873017    
 JPrj=0 DoOrth=F DoCkMO=F.
 Leave Link  401 at Mon Jul 13 18:46:59 2020, MaxMem=  7784628224 cpu:              14.0 elap:               1.6
 (Enter /gpfs/loomis/apps/avx/software/Gaussian/16-C.01_AVX/g16/l502.exe)
 Two-electron integral symmetry not used.
 Closed shell SCF:
 Using DIIS extrapolation, IDIIS=  1040.
 NGot=  7784628224 LenX=  7784455381 LenY=  7784371419
 Requested convergence on RMS density matrix=1.00D-08 within 128 cycles.
 Requested convergence on MAX density matrix=1.00D-06.
 Requested convergence on             energy=1.00D-06.
 No special actions if energy rises.
 Fock matrices will be formed incrementally for  20 cycles.

 Cycle   1  Pass 1  IDiag  1:
 FoFJK:  IHMeth= 1 ICntrl=       0 DoSepK=T KAlg= 0 I1Cent=           0 FoldK=F
 IRaf=         1 NMat=       1 IRICut=       1 DoRegI=T DoRafI=F ISym2E= 0 IDoP0=0 IntGTp=1.
 FoFCou: FMM=F IPFlag=           0 FMFlag=      100000 FMFlg1=           0
         NFxFlg=           0 DoJE=T BraDBF=F KetDBF=F FulRan=T
         wScrn=  0.000000 ICntrl=       500 IOpCl=  0 I1Cent=           0 NGrid=           0
         NMat0=    1 NMatS0=      1 NMatT0=    0 NMatD0=    1 NMtDS0=    0 NMtDT0=    0
 Symmetry not used in FoFCou.
 Inv3:  Mode=1 IEnd=    14388300.
 Iteration    1 A*A^-1 deviation from unit magnitude is 5.33D-15 for   2177.
 Iteration    1 A*A^-1 deviation from orthogonality  is 2.02D-15 for   2188   2187.
 Iteration    1 A^-1*A deviation from unit magnitude is 5.33D-15 for   2177.
 Iteration    1 A^-1*A deviation from orthogonality  is 1.72D-15 for   1833    349.
 E= -1028.44284861531    
 DIIS: error= 4.23D-02 at cycle   1 NSaved=   1.
 NSaved= 1 IEnMin= 1 EnMin= -1028.44284861531     IErMin= 1 ErrMin= 4.23D-02
 ErrMax= 4.23D-02  0.00D+00 EMaxC= 1.00D-01 BMatC= 3.93D-01 BMatP= 3.93D-01
 IDIUse=3 WtCom= 5.77D-01 WtEn= 4.23D-01
 Coeff-Com:  0.100D+01
 Coeff-En:   0.100D+01
 Coeff:      0.100D+01
 Gap=     0.302 Goal=   None    Shift=    0.000
 GapD=    0.302 DampG=1.000 DampE=0.500 DampFc=0.5000 IDamp=-1.
 Damping current iteration by 5.00D-01
 RMSDP=3.68D-03 MaxDP=2.53D-01              OVMax= 2.14D-01

 Cycle   2  Pass 1  IDiag  1:
 RMSU=  1.84D-03    CP:  9.94D-01
 E= -1028.56507646567     Delta-E=       -0.122227850359 Rises=F Damp=T
 DIIS: error= 1.12D-02 at cycle   2 NSaved=   2.
 NSaved= 2 IEnMin= 2 EnMin= -1028.56507646567     IErMin= 2 ErrMin= 1.12D-02
 ErrMax= 1.12D-02  0.00D+00 EMaxC= 1.00D-01 BMatC= 5.82D-02 BMatP= 3.93D-01
 IDIUse=3 WtCom= 8.88D-01 WtEn= 1.12D-01
 Coeff-Com: -0.287D+00 0.129D+01
 Coeff-En:   0.000D+00 0.100D+01
 Coeff:     -0.255D+00 0.126D+01
 Gap=     0.370 Goal=   None    Shift=    0.000
 RMSDP=1.17D-03 MaxDP=2.90D-02 DE=-1.22D-01 OVMax= 1.49D-01

 Cycle   3  Pass 1  IDiag  1:
 RMSU=  1.14D-03    CP:  9.92D-01  1.16D+00
 E= -1028.67561897486     Delta-E=       -0.110542509189 Rises=F Damp=F
 DIIS: error= 6.33D-03 at cycle   3 NSaved=   3.
 NSaved= 3 IEnMin= 3 EnMin= -1028.67561897486     IErMin= 3 ErrMin= 6.33D-03
 ErrMax= 6.33D-03  0.00D+00 EMaxC= 1.00D-01 BMatC= 1.51D-02 BMatP= 5.82D-02
 IDIUse=3 WtCom= 9.37D-01 WtEn= 6.33D-02
 Coeff-Com: -0.204D+00 0.497D+00 0.707D+00
 Coeff-En:   0.000D+00 0.000D+00 0.100D+01
 Coeff:     -0.191D+00 0.466D+00 0.725D+00
 Gap=     0.234 Goal=   None    Shift=    0.000
 RMSDP=5.47D-04 MaxDP=2.11D-02 DE=-1.11D-01 OVMax= 4.81D-02

 Cycle   4  Pass 1  IDiag  1:
 RMSU=  4.29D-04    CP:  9.91D-01  1.32D+00  8.54D-01
 E= -1028.69066840493     Delta-E=       -0.015049430074 Rises=F Damp=F
 DIIS: error= 2.04D-03 at cycle   4 NSaved=   4.
 NSaved= 4 IEnMin= 4 EnMin= -1028.69066840493     IErMin= 4 ErrMin= 2.04D-03
 ErrMax= 2.04D-03  0.00D+00 EMaxC= 1.00D-01 BMatC= 1.83D-03 BMatP= 1.51D-02
 IDIUse=3 WtCom= 9.80D-01 WtEn= 2.04D-02
 Coeff-Com: -0.719D-01 0.142D+00 0.340D+00 0.590D+00
 Coeff-En:   0.000D+00 0.000D+00 0.000D+00 0.100D+01
 Coeff:     -0.705D-01 0.139D+00 0.333D+00 0.598D+00
 Gap=     0.236 Goal=   None    Shift=    0.000
 RMSDP=1.71D-04 MaxDP=9.16D-03 DE=-1.50D-02 OVMax= 1.32D-02

 Cycle   5  Pass 1  IDiag  1:
 RMSU=  1.13D-04    CP:  9.90D-01  1.33D+00  9.26D-01  7.73D-01
 E= -1028.69267797334     Delta-E=       -0.002009568409 Rises=F Damp=F
 DIIS: error= 5.35D-04 at cycle   5 NSaved=   5.
 NSaved= 5 IEnMin= 5 EnMin= -1028.69267797334     IErMin= 5 ErrMin= 5.35D-04
 ErrMax= 5.35D-04  0.00D+00 EMaxC= 1.00D-01 BMatC= 6.28D-05 BMatP= 1.83D-03
 IDIUse=3 WtCom= 9.95D-01 WtEn= 5.35D-03
 Coeff-Com: -0.359D-03-0.571D-02 0.254D-01 0.156D+00 0.824D+00
 Coeff-En:   0.000D+00 0.000D+00 0.000D+00 0.000D+00 0.100D+01
 Coeff:     -0.357D-03-0.568D-02 0.252D-01 0.156D+00 0.825D+00
 Gap=     0.237 Goal=   None    Shift=    0.000
 RMSDP=6.27D-05 MaxDP=2.02D-03 DE=-2.01D-03 OVMax= 6.78D-03

 Cycle   6  Pass 1  IDiag  1:
 RMSU=  4.05D-05    CP:  9.90D-01  1.33D+00  9.43D-01  8.67D-01  1.13D+00
 E= -1028.69282785519     Delta-E=       -0.000149881847 Rises=F Damp=F
 DIIS: error= 2.79D-04 at cycle   6 NSaved=   6.
 NSaved= 6 IEnMin= 6 EnMin= -1028.69282785519     IErMin= 6 ErrMin= 2.79D-04
 ErrMax= 2.79D-04  0.00D+00 EMaxC= 1.00D-01 BMatC= 1.15D-05 BMatP= 6.28D-05
 IDIUse=3 WtCom= 9.97D-01 WtEn= 2.79D-03
 Coeff-Com:  0.181D-01-0.367D-01-0.702D-01-0.869D-01 0.200D+00 0.976D+00
 Coeff-En:   0.000D+00 0.000D+00 0.000D+00 0.000D+00 0.000D+00 0.100D+01
 Coeff:      0.180D-01-0.366D-01-0.700D-01-0.867D-01 0.199D+00 0.976D+00
 Gap=     0.238 Goal=   None    Shift=    0.000
 RMSDP=4.16D-05 MaxDP=1.99D-03 DE=-1.50D-04 OVMax= 5.15D-03

 Cycle   7  Pass 1  IDiag  1:
 RMSU=  2.00D-05    CP:  9.90D-01  1.33D+00  9.56D-01  9.05D-01  1.35D+00
                    CP:  1.34D+00
 E= -1028.69287178104     Delta-E=       -0.000043925855 Rises=F Damp=F
 DIIS: error= 8.02D-05 at cycle   7 NSaved=   7.
 NSaved= 7 IEnMin= 7 EnMin= -1028.69287178104     IErMin= 7 ErrMin= 8.02D-05
 ErrMax= 8.02D-05  0.00D+00 EMaxC= 1.00D-01 BMatC= 2.83D-06 BMatP= 1.15D-05
 IDIUse=1 WtCom= 1.00D+00 WtEn= 0.00D+00
 Coeff-Com:  0.731D-02-0.139D-01-0.296D-01-0.553D-01-0.248D-01 0.421D+00
 Coeff-Com:  0.695D+00
 Coeff:      0.731D-02-0.139D-01-0.296D-01-0.553D-01-0.248D-01 0.421D+00
 Coeff:      0.695D+00
 Gap=     0.238 Goal=   None    Shift=    0.000
 RMSDP=1.43D-05 MaxDP=5.14D-04 DE=-4.39D-05 OVMax= 1.57D-03

 Cycle   8  Pass 1  IDiag  1:
 RMSU=  8.42D-06    CP:  9.90D-01  1.33D+00  9.57D-01  9.12D-01  1.40D+00
                    CP:  1.57D+00  1.12D+00
 E= -1028.69287827134     Delta-E=       -0.000006490295 Rises=F Damp=F
 DIIS: error= 6.36D-05 at cycle   8 NSaved=   8.
 NSaved= 8 IEnMin= 8 EnMin= -1028.69287827134     IErMin= 8 ErrMin= 6.36D-05
 ErrMax= 6.36D-05  0.00D+00 EMaxC= 1.00D-01 BMatC= 4.22D-07 BMatP= 2.83D-06
 IDIUse=1 WtCom= 1.00D+00 WtEn= 0.00D+00
 Coeff-Com: -0.149D-02 0.328D-02 0.683D-02 0.146D-02-0.424D-01-0.846D-01
 Coeff-Com:  0.194D+00 0.923D+00
 Coeff:     -0.149D-02 0.328D-02 0.683D-02 0.146D-02-0.424D-01-0.846D-01
 Coeff:      0.194D+00 0.923D+00
 Gap=     0.238 Goal=   None    Shift=    0.000
 RMSDP=8.09D-06 MaxDP=2.29D-04 DE=-6.49D-06 OVMax= 1.36D-03

 Cycle   9  Pass 1  IDiag  1:
 RMSU=  3.40D-06    CP:  9.90D-01  1.33D+00  9.57D-01  9.12D-01  1.42D+00
                    CP:  1.68D+00  1.38D+00  1.17D+00
 E= -1028.69288011153     Delta-E=       -0.000001840187 Rises=F Damp=F
 DIIS: error= 1.86D-05 at cycle   9 NSaved=   9.
 NSaved= 9 IEnMin= 9 EnMin= -1028.69288011153     IErMin= 9 ErrMin= 1.86D-05
 ErrMax= 1.86D-05  0.00D+00 EMaxC= 1.00D-01 BMatC= 1.44D-07 BMatP= 4.22D-07
 IDIUse=1 WtCom= 1.00D+00 WtEn= 0.00D+00
 Coeff-Com: -0.158D-02 0.312D-02 0.716D-02 0.844D-02-0.131D-01-0.104D+00
 Coeff-Com: -0.644D-01 0.385D+00 0.779D+00
 Coeff:     -0.158D-02 0.312D-02 0.716D-02 0.844D-02-0.131D-01-0.104D+00
 Coeff:     -0.644D-01 0.385D+00 0.779D+00
 Gap=     0.238 Goal=   None    Shift=    0.000
 RMSDP=4.25D-06 MaxDP=1.42D-04 DE=-1.84D-06 OVMax= 5.96D-04

 Cycle  10  Pass 1  IDiag  1:
 RMSU=  1.64D-06    CP:  9.90D-01  1.33D+00  9.57D-01  9.12D-01  1.43D+00
                    CP:  1.74D+00  1.47D+00  1.44D+00  1.17D+00
 E= -1028.69288054829     Delta-E=       -0.000000436762 Rises=F Damp=F
 DIIS: error= 1.19D-05 at cycle  10 NSaved=  10.
 NSaved=10 IEnMin=10 EnMin= -1028.69288054829     IErMin=10 ErrMin= 1.19D-05
 ErrMax= 1.19D-05  0.00D+00 EMaxC= 1.00D-01 BMatC= 2.17D-08 BMatP= 1.44D-07
 IDIUse=1 WtCom= 1.00D+00 WtEn= 0.00D+00
 Coeff-Com:  0.614D-04-0.197D-03 0.106D-03 0.140D-02 0.813D-02-0.880D-02
 Coeff-Com: -0.825D-01-0.821D-01 0.262D+00 0.902D+00
 Coeff:      0.614D-04-0.197D-03 0.106D-03 0.140D-02 0.813D-02-0.880D-02
 Coeff:     -0.825D-01-0.821D-01 0.262D+00 0.902D+00
 Gap=     0.238 Goal=   None    Shift=    0.000
 RMSDP=2.07D-06 MaxDP=5.20D-05 DE=-4.37D-07 OVMax= 3.69D-04

 Cycle  11  Pass 1  IDiag  1:
 RMSU=  6.29D-07    CP:  9.90D-01  1.33D+00  9.58D-01  9.12D-01  1.43D+00
                    CP:  1.76D+00  1.51D+00  1.55D+00  1.48D+00  1.20D+00
 E= -1028.69288064705     Delta-E=       -0.000000098763 Rises=F Damp=F
 DIIS: error= 3.93D-06 at cycle  11 NSaved=  11.
 NSaved=11 IEnMin=11 EnMin= -1028.69288064705     IErMin=11 ErrMin= 3.93D-06
 ErrMax= 3.93D-06  0.00D+00 EMaxC= 1.00D-01 BMatC= 4.55D-09 BMatP= 2.17D-08
 IDIUse=1 WtCom= 1.00D+00 WtEn= 0.00D+00
 Coeff-Com:  0.286D-03-0.590D-03-0.106D-02-0.960D-03 0.537D-02 0.136D-01
 Coeff-Com: -0.215D-01-0.793D-01-0.529D-01 0.296D+00 0.841D+00
 Coeff:      0.286D-03-0.590D-03-0.106D-02-0.960D-03 0.537D-02 0.136D-01
 Coeff:     -0.215D-01-0.793D-01-0.529D-01 0.296D+00 0.841D+00
 Gap=     0.238 Goal=   None    Shift=    0.000
 RMSDP=7.77D-07 MaxDP=2.19D-05 DE=-9.88D-08 OVMax= 1.22D-04

 Cycle  12  Pass 1  IDiag  1:
 RMSU=  2.49D-07    CP:  9.90D-01  1.33D+00  9.58D-01  9.13D-01  1.43D+00
                    CP:  1.77D+00  1.52D+00  1.59D+00  1.58D+00  1.44D+00
                    CP:  1.18D+00
 E= -1028.69288066104     Delta-E=       -0.000000013983 Rises=F Damp=F
 DIIS: error= 1.48D-06 at cycle  12 NSaved=  12.
 NSaved=12 IEnMin=12 EnMin= -1028.69288066104     IErMin=12 ErrMin= 1.48D-06
 ErrMax= 1.48D-06  0.00D+00 EMaxC= 1.00D-01 BMatC= 6.23D-10 BMatP= 4.55D-09
 IDIUse=1 WtCom= 1.00D+00 WtEn= 0.00D+00
 Coeff-Com:  0.120D-03-0.232D-03-0.497D-03-0.854D-03 0.709D-03 0.796D-02
 Coeff-Com:  0.726D-02-0.124D-01-0.790D-01-0.625D-01 0.275D+00 0.864D+00
 Coeff:      0.120D-03-0.232D-03-0.497D-03-0.854D-03 0.709D-03 0.796D-02
 Coeff:      0.726D-02-0.124D-01-0.790D-01-0.625D-01 0.275D+00 0.864D+00
 Gap=     0.238 Goal=   None    Shift=    0.000
 RMSDP=3.26D-07 MaxDP=8.60D-06 DE=-1.40D-08 OVMax= 5.17D-05

 Cycle  13  Pass 1  IDiag  1:
 RMSU=  9.39D-08    CP:  9.90D-01  1.33D+00  9.58D-01  9.13D-01  1.43D+00
                    CP:  1.77D+00  1.52D+00  1.61D+00  1.63D+00  1.54D+00
                    CP:  1.40D+00  1.09D+00
 E= -1028.69288066329     Delta-E=       -0.000000002254 Rises=F Damp=F
 DIIS: error= 5.30D-07 at cycle  13 NSaved=  13.
 NSaved=13 IEnMin=13 EnMin= -1028.69288066329     IErMin=13 ErrMin= 5.30D-07
 ErrMax= 5.30D-07  0.00D+00 EMaxC= 1.00D-01 BMatC= 6.33D-11 BMatP= 6.23D-10
 IDIUse=1 WtCom= 1.00D+00 WtEn= 0.00D+00
 Coeff-Com: -0.141D-04 0.306D-04 0.514D-04-0.381D-04-0.296D-03 0.611D-04
 Coeff-Com:  0.283D-02 0.679D-02-0.836D-02-0.397D-01-0.684D-01 0.166D+00
 Coeff-Com:  0.941D+00
 Coeff:     -0.141D-04 0.306D-04 0.514D-04-0.381D-04-0.296D-03 0.611D-04
 Coeff:      0.283D-02 0.679D-02-0.836D-02-0.397D-01-0.684D-01 0.166D+00
 Coeff:      0.941D+00
 Gap=     0.238 Goal=   None    Shift=    0.000
 RMSDP=9.25D-08 MaxDP=2.13D-06 DE=-2.25D-09 OVMax= 1.14D-05

 Cycle  14  Pass 1  IDiag  1:
 RMSU=  3.38D-08    CP:  9.90D-01  1.33D+00  9.58D-01  9.13D-01  1.43D+00
                    CP:  1.77D+00  1.52D+00  1.61D+00  1.64D+00  1.56D+00
                    CP:  1.46D+00  1.26D+00  1.19D+00
 E= -1028.69288066348     Delta-E=       -0.000000000194 Rises=F Damp=F
 DIIS: error= 1.59D-07 at cycle  14 NSaved=  14.
 NSaved=14 IEnMin=14 EnMin= -1028.69288066348     IErMin=14 ErrMin= 1.59D-07
 ErrMax= 1.59D-07  0.00D+00 EMaxC= 1.00D-01 BMatC= 7.34D-12 BMatP= 6.33D-11
 IDIUse=1 WtCom= 1.00D+00 WtEn= 0.00D+00
 Coeff-Com: -0.135D-04 0.270D-04 0.556D-04 0.543D-04-0.148D-03-0.646D-03
 Coeff-Com:  0.935D-04 0.333D-02 0.428D-02-0.478D-02-0.441D-01-0.262D-01
 Coeff-Com:  0.304D+00 0.764D+00
 Coeff:     -0.135D-04 0.270D-04 0.556D-04 0.543D-04-0.148D-03-0.646D-03
 Coeff:      0.935D-04 0.333D-02 0.428D-02-0.478D-02-0.441D-01-0.262D-01
 Coeff:      0.304D+00 0.764D+00
 Gap=     0.238 Goal=   None    Shift=    0.000
 RMSDP=1.90D-08 MaxDP=5.15D-07 DE=-1.94D-10 OVMax= 2.38D-06

 Cycle  15  Pass 1  IDiag  1:
 RMSU=  1.13D-08    CP:  9.90D-01  1.33D+00  9.58D-01  9.13D-01  1.43D+00
                    CP:  1.77D+00  1.52D+00  1.61D+00  1.64D+00  1.57D+00
                    CP:  1.47D+00  1.28D+00  1.31D+00  1.12D+00
 E= -1028.69288066349     Delta-E=       -0.000000000008 Rises=F Damp=F
 DIIS: error= 7.20D-08 at cycle  15 NSaved=  15.
 NSaved=15 IEnMin=15 EnMin= -1028.69288066349     IErMin=15 ErrMin= 7.20D-08
 ErrMax= 7.20D-08  0.00D+00 EMaxC= 1.00D-01 BMatC= 1.25D-12 BMatP= 7.34D-12
 IDIUse=1 WtCom= 1.00D+00 WtEn= 0.00D+00
 Coeff-Com: -0.238D-05 0.427D-05 0.120D-04 0.321D-04-0.219D-05-0.294D-03
 Coeff-Com: -0.618D-03-0.130D-03 0.339D-02 0.714D-02-0.150D-02-0.517D-01
 Coeff-Com: -0.887D-01 0.227D+00 0.905D+00
 Coeff:     -0.238D-05 0.427D-05 0.120D-04 0.321D-04-0.219D-05-0.294D-03
 Coeff:     -0.618D-03-0.130D-03 0.339D-02 0.714D-02-0.150D-02-0.517D-01
 Coeff:     -0.887D-01 0.227D+00 0.905D+00
 Gap=     0.238 Goal=   None    Shift=    0.000
 RMSDP=1.19D-08 MaxDP=2.91D-07 DE=-8.19D-12 OVMax= 1.41D-06

 Cycle  16  Pass 1  IDiag  1:
 RMSU=  4.91D-09    CP:  9.90D-01  1.33D+00  9.58D-01  9.13D-01  1.43D+00
                    CP:  1.77D+00  1.52D+00  1.61D+00  1.64D+00  1.57D+00
                    CP:  1.47D+00  1.29D+00  1.37D+00  1.30D+00  1.19D+00
 E= -1028.69288066350     Delta-E=       -0.000000000007 Rises=F Damp=F
 DIIS: error= 2.91D-08 at cycle  16 NSaved=  16.
 NSaved=16 IEnMin=16 EnMin= -1028.69288066350     IErMin=16 ErrMin= 2.91D-08
 ErrMax= 2.91D-08  0.00D+00 EMaxC= 1.00D-01 BMatC= 1.39D-13 BMatP= 1.25D-12
 IDIUse=1 WtCom= 1.00D+00 WtEn= 0.00D+00
 Coeff-Com:  0.580D-06-0.128D-05-0.170D-05 0.324D-05 0.944D-05-0.219D-04
 Coeff-Com: -0.166D-03-0.324D-03 0.376D-03 0.209D-02 0.389D-02-0.112D-01
 Coeff-Com: -0.460D-01-0.259D-01 0.248D+00 0.829D+00
 Coeff:      0.580D-06-0.128D-05-0.170D-05 0.324D-05 0.944D-05-0.219D-04
 Coeff:     -0.166D-03-0.324D-03 0.376D-03 0.209D-02 0.389D-02-0.112D-01
 Coeff:     -0.460D-01-0.259D-01 0.248D+00 0.829D+00
 Gap=     0.238 Goal=   None    Shift=    0.000
 RMSDP=3.45D-09 MaxDP=1.11D-07 DE=-6.59D-12 OVMax= 4.73D-07

 Error on total polarization charges =  0.00868
 SCF Done:  E(RwB97XD) =  -1028.69288066     A.U. after   16 cycles
            NFock= 16  Conv=0.35D-08     -V/T= 2.0041
 KE= 1.024485410433D+03 PE=-4.615662958841D+03 EE= 1.460703697044D+03
 Leave Link  502 at Mon Jul 13 18:48:28 2020, MaxMem=  7784628224 cpu:             883.0 elap:              89.1
 (Enter /gpfs/loomis/apps/avx/software/Gaussian/16-C.01_AVX/g16/l801.exe)
 DoSCS=F DFT=T ScalE2(SS,OS)=  1.000000  1.000000
 ExpMin= 1.22D-01 ExpMax= 1.11D+05 ExpMxC= 1.07D+03 IAcc=3 IRadAn=         5 AccDes= 0.00D+00
 HarFok:  IExCor=  205 AccDes= 0.00D+00 IRadAn=         5 IDoV=-2 UseB2=F ITyADJ=14
 ICtDFT= 12500011 ScaDFX=  1.000000  1.000000  1.000000  1.000000
 Largest valence mixing into a core orbital is  9.50D-05
 Largest core mixing into a valence orbital is  3.23D-05
 Range of M.O.s used for correlation:    21   273
 NBasis=   273 NAE=    59 NBE=    59 NFC=    20 NFV=     0
 NROrb=    253 NOA=    39 NOB=    39 NVA=   214 NVB=   214

 **** Warning!!: The largest alpha MO coefficient is  0.10744858D+02

 Leave Link  801 at Mon Jul 13 18:48:28 2020, MaxMem=  7784628224 cpu:               1.2 elap:               0.2
 (Enter /gpfs/loomis/apps/avx/software/Gaussian/16-C.01_AVX/g16/l914.exe)
 RHF ground state
 Keep R1, R2, and R3 ints in memory in canonical form, NReq=4262515490.
 FoFCou: FMM=F IPFlag=           0 FMFlag=           0 FMFlg1=           0
         NFxFlg=           0 DoJE=F BraDBF=F KetDBF=F FulRan=T
         wScrn=  0.000000 ICntrl=       600 IOpCl=  0 I1Cent=           0 NGrid=           0
         NMat0=    1 NMatS0=  37401 NMatT0=    0 NMatD0=    1 NMtDS0=    0 NMtDT0=    0
 Symmetry not used in FoFCou.
 Two-electron integral symmetry not used.
 MDV=  7784628224 DFT=T DoStab=F Mixed=T DoRPA=T DoScal=F NonHer=T
 NEqPCM:  Using equilibrium solvation (IEInf=0, Eps=   2.2280, EpsInf=   2.1319)
 Making orbital integer symmetry assigments:
    12 initial guesses have been made.
 Convergence on wavefunction:    0.000001000000000
 Davidson Disk Diagonalization:  ConvIn= 1.00D-06 SkipCon=T Conv= 1.00D-06.
 Max sub-space:  2000 roots to seek:    12 dimension of matrix:        16692
 Iteration     1 Dimension    12 NMult     0 NNew     12
 CISAX will form    12 AO SS matrices at one time.
 NMat=    12 NSing=    12 JSym2X= 0.
 New state      3 was old state      4
 Excitation Energies [eV] at current iteration:
 Root      1 :     3.432155642722801
 Root      2 :     3.706495375975027
 Root      3 :     4.854437530796837
 Root      4 :     5.206456457034569
 Root      5 :     5.224647966025840
 Root      6 :     5.712409973958134
 Root      7 :     5.864383228608816
 Root      8 :     6.346024590552626
 Root      9 :     6.498862434633650
 Root     10 :     6.717520636357504
 Root     11 :     6.964674514383004
 Root     12 :     7.195973509154787
 Iteration     2 Dimension    18 NMult    12 NNew      6
 CISAX will form     6 AO SS matrices at one time.
 NMat=     6 NSing=     6 JSym2X= 0.
 Root      1 not converged, maximum delta is    0.042772690506777
 Root      2 not converged, maximum delta is    0.109987333111764
 Root      3 not converged, maximum delta is    0.080337388778063
 Excitation Energies [eV] at current iteration:
 Root      1 :     2.917261145913434   Change is   -0.514894496809367
 Root      2 :     3.497721753763742   Change is   -0.208773622211285
 Root      3 :     4.401945058145054   Change is   -0.452492472651783
 Iteration     3 Dimension    24 NMult    18 NNew      6
 CISAX will form     6 AO SS matrices at one time.
 NMat=     6 NSing=     6 JSym2X= 0.
 Root      1 not converged, maximum delta is    0.015689861314293
 Root      2 not converged, maximum delta is    0.029322093067508
 Root      3 not converged, maximum delta is    0.028428760755456
 Excitation Energies [eV] at current iteration:
 Root      1 :     2.887798004011742   Change is   -0.029463141901692
 Root      2 :     3.477552285190803   Change is   -0.020169468572939
 Root      3 :     4.372979502485530   Change is   -0.028965555659524
 Iteration     4 Dimension    30 NMult    24 NNew      6
 CISAX will form     6 AO SS matrices at one time.
 NMat=     6 NSing=     6 JSym2X= 0.
 Root      1 not converged, maximum delta is    0.008509660245216
 Root      2 not converged, maximum delta is    0.010003039904703
 Root      3 not converged, maximum delta is    0.016364060477516
 Excitation Energies [eV] at current iteration:
 Root      1 :     2.883203793561254   Change is   -0.004594210450489
 Root      2 :     3.475624260745379   Change is   -0.001928024445424
 Root      3 :     4.367047841224724   Change is   -0.005931661260806
 Iteration     5 Dimension    36 NMult    30 NNew      6
 CISAX will form     6 AO SS matrices at one time.
 NMat=     6 NSing=     6 JSym2X= 0.
 Root      1 not converged, maximum delta is    0.001932932235859
 Root      2 not converged, maximum delta is    0.001345100676605
 Root      3 not converged, maximum delta is    0.009467375754018
 Excitation Energies [eV] at current iteration:
 Root      1 :     2.882610215605516   Change is   -0.000593577955738
 Root      2 :     3.475517464640058   Change is   -0.000106796105321
 Root      3 :     4.365678320449311   Change is   -0.001369520775414
 Iteration     6 Dimension    42 NMult    36 NNew      6
 CISAX will form     6 AO SS matrices at one time.
 NMat=     6 NSing=     6 JSym2X= 0.
 Root      1 not converged, maximum delta is    0.000346461792385
 Root      2 not converged, maximum delta is    0.000342792832704
 Root      3 not converged, maximum delta is    0.002446967649838
 Excitation Energies [eV] at current iteration:
 Root      1 :     2.882568231679264   Change is   -0.000041983926252
 Root      2 :     3.475512145709848   Change is   -0.000005318930210
 Root      3 :     4.365490848945457   Change is   -0.000187471503853
 Iteration     7 Dimension    48 NMult    42 NNew      6
 CISAX will form     6 AO SS matrices at one time.
 NMat=     6 NSing=     6 JSym2X= 0.
 Root      1 not converged, maximum delta is    0.000109263338841
 Root      2 not converged, maximum delta is    0.000125834145225
 Root      3 not converged, maximum delta is    0.000476333610544
 Excitation Energies [eV] at current iteration:
 Root      1 :     2.882564758740127   Change is   -0.000003472939137
 Root      2 :     3.475511671106185   Change is   -0.000000474603663
 Root      3 :     4.365471326461718   Change is   -0.000019522483738
 Iteration     8 Dimension    54 NMult    48 NNew      6
 CISAX will form     6 AO SS matrices at one time.
 NMat=     6 NSing=     6 JSym2X= 0.
 Root      1 not converged, maximum delta is    0.000031381511191
 Root      2 not converged, maximum delta is    0.000011996579816
 Root      3 not converged, maximum delta is    0.000173664915098
 Excitation Energies [eV] at current iteration:
 Root      1 :     2.882564583968046   Change is   -0.000000174772081
 Root      2 :     3.475511650410327   Change is   -0.000000020695859
 Root      3 :     4.365469437818313   Change is   -0.000001888643405
 Iteration     9 Dimension    60 NMult    54 NNew      6
 CISAX will form     6 AO SS matrices at one time.
 NMat=     6 NSing=     6 JSym2X= 0.
 Root      1 not converged, maximum delta is    0.000010246980269
 Root      2 not converged, maximum delta is    0.000001876143688
 Root      3 not converged, maximum delta is    0.000034887398178
 Excitation Energies [eV] at current iteration:
 Root      1 :     2.882564569788573   Change is   -0.000000014179474
 Root      2 :     3.475511649572430   Change is   -0.000000000837897
 Root      3 :     4.365469315082789   Change is   -0.000000122735524
 Iteration    10 Dimension    66 NMult    60 NNew      6
 CISAX will form     6 AO SS matrices at one time.
 NMat=     6 NSing=     6 JSym2X= 0.
 Root      1 not converged, maximum delta is    0.000003084895872
 Root      2 not converged, maximum delta is    0.000001061668950
 Root      3 not converged, maximum delta is    0.000017810208611
 Excitation Energies [eV] at current iteration:
 Root      1 :     2.882564568816991   Change is   -0.000000000971581
 Root      2 :     3.475511649519517   Change is   -0.000000000052913
 Root      3 :     4.365469300367926   Change is   -0.000000014714863
 Iteration    11 Dimension    72 NMult    66 NNew      6
 CISAX will form     6 AO SS matrices at one time.
 NMat=     6 NSing=     6 JSym2X= 0.
 Root      1 has converged.
 Root      2 has converged.
 Root      3 not converged, maximum delta is    0.000004384711698
 Excitation Energies [eV] at current iteration:
 Root      1 :     2.882564568750172   Change is   -0.000000000066820
 Root      2 :     3.475511649512776   Change is   -0.000000000006741
 Root      3 :     4.365469298966632   Change is   -0.000000001401294
 Iteration    12 Dimension    74 NMult    72 NNew      2
 CISAX will form     2 AO SS matrices at one time.
 NMat=     2 NSing=     2 JSym2X= 0.
 Root      1 has converged.
 Root      2 has converged.
 Root      3 has converged.
 Excitation Energies [eV] at current iteration:
 Root      1 :     2.882564568748603   Change is   -0.000000000001569
 Root      2 :     3.475511649512658   Change is   -0.000000000000119
 Root      3 :     4.365469298874038   Change is   -0.000000000092594
 Convergence achieved on expansion vectors.
 ***********************************************************************
 Excited states from <AA,BB:AA,BB> singles matrix:
 ***********************************************************************
 
 1PDM for each excited state written to RWF  633
 Ground to excited state transition densities written to RWF  633
 Ground to excited state transition electric dipole moments (Au):
       state          X           Y           Z        Dip. S.      Osc.
         1         1.1484     -2.2453     -0.0000      6.3603      0.4492
         2        -0.0000      0.0000     -0.0040      0.0000      0.0000
         3        -1.6077      1.0284      0.0000      3.6424      0.3896
 Ground to excited state transition velocity dipole moments (Au):
       state          X           Y           Z        Dip. S.      Osc.
         1        -0.1175      0.2414      0.0000      0.0721      0.4535
         2         0.0000     -0.0000      0.0008      0.0000      0.0000
         3         0.2529     -0.1552     -0.0000      0.0880      0.3658
 Ground to excited state transition magnetic dipole moments (Au):
       state          X           Y           Z
         1         0.0000      0.0000     -1.1363
         2         0.4063     -0.0011      0.0000
         3        -0.0000      0.0000     -1.0341
 Ground to excited state transition velocity quadrupole moments (Au):
       state          XX          YY          ZZ          XY          XZ          YZ
         1         0.0341      0.6510     -0.0125     -0.2820     -0.0000      0.0000
         2        -0.0000     -0.0000      0.0000      0.0000     -0.0064      0.0194
         3        -0.4850      0.5204      0.0050      0.1039      0.0000      0.0000
 <0|del|b> * <b|rxdel|0> + <0|del|b> * <b|delr+rdel|0>
 Rotatory Strengths (R) in cgs (10**-40 erg-esu-cm/Gauss)
       state          XX          YY          ZZ    R(velocity)    E-M Angle
         1         0.0067     -0.0207      0.0179      0.0013       90.00
         2        -0.0000      0.0021      0.0020      0.0014       90.00
         3         0.0022      0.0036     -0.0069     -0.0003       90.00
 1/2[<0|r|b>*<b|rxdel|0> + (<0|rxdel|b>*<b|r|0>)*]
 Rotatory Strengths (R) in cgs (10**-40 erg-esu-cm/Gauss)
       state          XX          YY          ZZ     R(length)
         1        -0.0091      0.0415     -0.0291      0.0011
         2         0.0041      0.0000      0.0000      0.0014
         3        -0.0049     -0.0040      0.0086     -0.0001
  1/2[<0|del|b>*<b|r|0> + (<0|r|b>*<b|del|0>)*] (Au)
       state          X           Y           Z        Dip. S.   Osc.(frdel)
         1        -0.1349     -0.5419     -0.0000      0.6769      0.4512
         2        -0.0000     -0.0000     -0.0000      0.0000      0.0000
         3        -0.4066     -0.1596     -0.0000      0.5662      0.3774

 Excitation energies and oscillator strengths:
 
 Excited state symmetry could not be determined.
 Excited State   1:      Singlet-?Sym    2.8826 eV  430.12 nm  f=0.4492  <S**2>=0.000
      59 -> 60         0.69909
 This state for optimization and/or second-order correction.
 Total Energy, E(TD-HF/TD-DFT) =  -1028.58694836    
 Copying the excited state density for this state as the 1-particle RhoCI density.
 
 Excited state symmetry could not be determined.
 Excited State   2:      Singlet-?Sym    3.4755 eV  356.74 nm  f=0.0000  <S**2>=0.000
      58 -> 60         0.68419
      58 -> 62         0.11362
      58 -> 64         0.11330
 
 Excited state symmetry could not be determined.
 Excited State   3:      Singlet-?Sym    4.3655 eV  284.01 nm  f=0.3896  <S**2>=0.000
      57 -> 60         0.68410
 SavETr:  write IOETrn=   770 NScale= 10 NData=  16 NLR=1 NState=    3 LETran=      64.
 The selected state is a singlet.
 CISGrd: IGrad=2 NXY=2 DFT=T
 CISAX will form     1 AO SS matrices at one time.
 NMat=     1 NSing=     1 JSym2X= 0.
 GePol: Maximum number of non-zero 1st derivatives   =     260
 Leave Link  914 at Mon Jul 13 18:51:21 2020, MaxMem=  7784628224 cpu:            1699.2 elap:             172.7
 (Enter /gpfs/loomis/apps/avx/software/Gaussian/16-C.01_AVX/g16/l1002.exe)
 Minotr:  Closed shell wavefunction.
          Computing CIS/TDA/TD derivatives.
          Using Z-Vector for PSCF gradient.
          Skipping F1 and S1 gradient terms here.
          IDoAtm=1111111111111111111111111
 NEqPCM:  Using equilibrium solvation (IEInf=0, Eps=   2.2280, EpsInf=   2.1319)
          Frozen-core window.
          Direct CPHF calculation.
          Differentiating once with respect to electric field.
                with respect to dipole field.
          Differentiating once with respect to nuclear coordinates.
          Requested convergence is 1.0D-10 RMS, and 1.0D-09 maximum.
          NewPWx=F KeepS1=T KeepF1=T KeepIn=T MapXYZ=F SortEE=F KeepMc=T.
 Keep R1 ints in memory in canonical form, NReq=1421489692.
 FoFCou: FMM=F IPFlag=           0 FMFlag=           0 FMFlg1=           0
         NFxFlg=           0 DoJE=F BraDBF=F KetDBF=F FulRan=T
         wScrn=  0.000000 ICntrl=       600 IOpCl=  0 I1Cent=           0 NGrid=           0
         NMat0=    1 NMatS0=  37401 NMatT0=    0 NMatD0=    1 NMtDS0=    0 NMtDT0=    0
 Symmetry not used in FoFCou.
 Two-electron integral symmetry not used.
          MDV=    7784628224 using IRadAn=       5.
          Solving linear equations separately, MaxMat=       0.
          There are     1 degrees of freedom in the 1st order CPHF.  IDoFFX=0 NUNeed=     1.
 LinEq1:  Iter=  0 NonCon=     1 RMS=6.85D-03 Max=5.51D-01 NDo=     1
 AX will form     1 AO Fock derivatives at one time.
 LinEq1:  Iter=  1 NonCon=     1 RMS=3.16D-03 Max=1.75D-01 NDo=     1
 LinEq1:  Iter=  2 NonCon=     1 RMS=1.62D-03 Max=3.81D-02 NDo=     1
 LinEq1:  Iter=  3 NonCon=     1 RMS=7.55D-04 Max=2.12D-02 NDo=     1
 LinEq1:  Iter=  4 NonCon=     1 RMS=4.49D-04 Max=1.30D-02 NDo=     1
 LinEq1:  Iter=  5 NonCon=     1 RMS=2.19D-04 Max=7.49D-03 NDo=     1
 LinEq1:  Iter=  6 NonCon=     1 RMS=9.01D-05 Max=4.34D-03 NDo=     1
 LinEq1:  Iter=  7 NonCon=     1 RMS=4.63D-05 Max=1.49D-03 NDo=     1
 LinEq1:  Iter=  8 NonCon=     1 RMS=1.74D-05 Max=5.90D-04 NDo=     1
 LinEq1:  Iter=  9 NonCon=     1 RMS=8.08D-06 Max=2.03D-04 NDo=     1
 LinEq1:  Iter= 10 NonCon=     1 RMS=3.06D-06 Max=7.56D-05 NDo=     1
 LinEq1:  Iter= 11 NonCon=     1 RMS=1.50D-06 Max=5.36D-05 NDo=     1
 LinEq1:  Iter= 12 NonCon=     1 RMS=6.43D-07 Max=1.65D-05 NDo=     1
 LinEq1:  Iter= 13 NonCon=     1 RMS=3.41D-07 Max=1.17D-05 NDo=     1
 LinEq1:  Iter= 14 NonCon=     1 RMS=1.09D-07 Max=2.69D-06 NDo=     1
 LinEq1:  Iter= 15 NonCon=     1 RMS=5.76D-08 Max=1.68D-06 NDo=     1
 LinEq1:  Iter= 16 NonCon=     1 RMS=2.52D-08 Max=7.65D-07 NDo=     1
 LinEq1:  Iter= 17 NonCon=     1 RMS=1.19D-08 Max=3.45D-07 NDo=     1
 LinEq1:  Iter= 18 NonCon=     1 RMS=5.23D-09 Max=1.10D-07 NDo=     1
 LinEq1:  Iter= 19 NonCon=     1 RMS=2.18D-09 Max=5.95D-08 NDo=     1
 LinEq1:  Iter= 20 NonCon=     1 RMS=1.11D-09 Max=2.79D-08 NDo=     1
 LinEq1:  Iter= 21 NonCon=     1 RMS=3.76D-10 Max=1.13D-08 NDo=     1
 LinEq1:  Iter= 22 NonCon=     1 RMS=1.59D-10 Max=4.74D-09 NDo=     1
 LinEq1:  Iter= 23 NonCon=     1 RMS=6.83D-11 Max=1.62D-09 NDo=     1
 LinEq1:  Iter= 24 NonCon=     0 RMS=1.93D-11 Max=4.91D-10 NDo=     1
 Linear equations converged to 1.000D-10 1.000D-09 after    24 iterations.
 End of Minotr F.D. properties file   721 does not exist.
 End of Minotr F.D. properties file   722 does not exist.
 End of Minotr F.D. properties file   788 does not exist.
 Leave Link 1002 at Mon Jul 13 18:53:02 2020, MaxMem=  7784628224 cpu:             758.3 elap:             101.5
 (Enter /gpfs/loomis/apps/avx/software/Gaussian/16-C.01_AVX/g16/l601.exe)
 Copying SCF densities to generalized density rwf, IOpCl= 0 IROHF=0.

 **********************************************************************

            Population analysis using the SCF Density.

 **********************************************************************

 Alpha  occ. eigenvalues --  -89.10708 -19.20443 -14.50695 -10.41800 -10.37898
 Alpha  occ. eigenvalues --  -10.36494 -10.35544 -10.33503 -10.33077 -10.32659
 Alpha  occ. eigenvalues --  -10.32493 -10.31403 -10.30694 -10.30648 -10.29203
 Alpha  occ. eigenvalues --  -10.28307  -8.12723  -6.07597  -6.07232  -6.06734
 Alpha  occ. eigenvalues --   -1.15132  -1.09205  -0.99337  -0.96176  -0.93599
 Alpha  occ. eigenvalues --   -0.89315  -0.87347  -0.83861  -0.81210  -0.77879
 Alpha  occ. eigenvalues --   -0.75454  -0.72312  -0.69470  -0.67829  -0.65835
 Alpha  occ. eigenvalues --   -0.60884  -0.59794  -0.56902  -0.56388  -0.56161
 Alpha  occ. eigenvalues --   -0.55096  -0.53759  -0.53142  -0.50549  -0.49304
 Alpha  occ. eigenvalues --   -0.48835  -0.48624  -0.47023  -0.45537  -0.44919
 Alpha  occ. eigenvalues --   -0.44151  -0.43065  -0.42554  -0.40079  -0.36831
 Alpha  occ. eigenvalues --   -0.33867  -0.31627  -0.31242  -0.25768
 Alpha virt. eigenvalues --   -0.01949   0.03545   0.05419   0.06113   0.09495
 Alpha virt. eigenvalues --    0.10636   0.13800   0.14664   0.16474   0.17383
 Alpha virt. eigenvalues --    0.18900   0.20110   0.21124   0.21306   0.23187
 Alpha virt. eigenvalues --    0.23594   0.24254   0.25796   0.28378   0.30154
 Alpha virt. eigenvalues --    0.30622   0.34009   0.35646   0.35787   0.36678
 Alpha virt. eigenvalues --    0.38064   0.39476   0.39888   0.41771   0.44890
 Alpha virt. eigenvalues --    0.46739   0.48691   0.50854   0.51219   0.51399
 Alpha virt. eigenvalues --    0.52766   0.52894   0.52963   0.54174   0.55548
 Alpha virt. eigenvalues --    0.56272   0.56443   0.56503   0.57095   0.57722
 Alpha virt. eigenvalues --    0.57962   0.58996   0.59472   0.59655   0.60780
 Alpha virt. eigenvalues --    0.61214   0.61598   0.62138   0.62732   0.63024
 Alpha virt. eigenvalues --    0.64680   0.66802   0.67082   0.68673   0.69625
 Alpha virt. eigenvalues --    0.70292   0.70772   0.71997   0.72309   0.73015
 Alpha virt. eigenvalues --    0.74383   0.75299   0.76024   0.76932   0.78720
 Alpha virt. eigenvalues --    0.78765   0.79697   0.81339   0.81561   0.83458
 Alpha virt. eigenvalues --    0.85694   0.88642   0.90787   0.91567   0.92534
 Alpha virt. eigenvalues --    0.93941   0.94477   0.96157   0.97470   0.97897
 Alpha virt. eigenvalues --    0.98850   0.99472   1.00486   1.00855   1.01263
 Alpha virt. eigenvalues --    1.02689   1.05184   1.05942   1.06162   1.07271
 Alpha virt. eigenvalues --    1.08648   1.09269   1.10153   1.11140   1.11332
 Alpha virt. eigenvalues --    1.12685   1.13168   1.13537   1.14550   1.15385
 Alpha virt. eigenvalues --    1.17284   1.19080   1.20222   1.23120   1.24210
 Alpha virt. eigenvalues --    1.26733   1.27331   1.31523   1.33620   1.33921
 Alpha virt. eigenvalues --    1.34539   1.36774   1.38202   1.41217   1.45149
 Alpha virt. eigenvalues --    1.49275   1.49371   1.53214   1.54742   1.55272
 Alpha virt. eigenvalues --    1.55867   1.57353   1.57391   1.57762   1.59787
 Alpha virt. eigenvalues --    1.60423   1.62145   1.62589   1.65403   1.67786
 Alpha virt. eigenvalues --    1.68691   1.70105   1.71405   1.71762   1.71973
 Alpha virt. eigenvalues --    1.72482   1.73646   1.73706   1.74993   1.75437
 Alpha virt. eigenvalues --    1.78454   1.78943   1.80517   1.81929   1.82258
 Alpha virt. eigenvalues --    1.83725   1.84656   1.84778   1.85433   1.86488
 Alpha virt. eigenvalues --    1.87104   1.90018   1.91473   1.92045   1.92395
 Alpha virt. eigenvalues --    1.94269   1.94467   1.95845   1.96365   1.98457
 Alpha virt. eigenvalues --    2.00553   2.01072   2.02485   2.05045   2.05885
 Alpha virt. eigenvalues --    2.06997   2.07844   2.09957   2.11141   2.14567
 Alpha virt. eigenvalues --    2.17681   2.20158   2.22701   2.24226   2.27260
 Alpha virt. eigenvalues --    2.27813   2.29965   2.34975   2.37742   2.39349
 Alpha virt. eigenvalues --    2.41038   2.42843   2.46575   2.48827   2.50418
 Alpha virt. eigenvalues --    2.52299   2.55040   2.61753   2.63814   2.65255
 Alpha virt. eigenvalues --    2.68748   2.72345   2.73948   2.78719   2.80305
 Alpha virt. eigenvalues --    2.81832   2.82272   2.83536   2.88833   2.93367
 Alpha virt. eigenvalues --    2.94046   3.04058   3.17666   3.32790   3.49869
 Alpha virt. eigenvalues --    3.52843   3.59145   3.69765   4.14831
          Condensed to atoms (all electrons):
               1          2          3          4          5          6
     1  C    4.735271   0.483230   0.011833  -0.053125  -0.010747   0.507388
     2  C    0.483230   5.387339   0.259342  -0.063940  -0.075036  -0.002238
     3  C    0.011833   0.259342   4.915804   0.520821  -0.000836  -0.069988
     4  C   -0.053125  -0.063940   0.520821   4.799580   0.515688  -0.012706
     5  C   -0.010747  -0.075036  -0.000836   0.515688   4.726613   0.500950
     6  C    0.507388  -0.002238  -0.069988  -0.012706   0.500950   4.734584
     7  H    0.404813  -0.040234   0.009412  -0.000604   0.008160  -0.038937
     8  H   -0.000590   0.010803  -0.025263   0.394285  -0.041140   0.007369
     9  H    0.008701  -0.000385   0.008214  -0.038126   0.405595  -0.043708
    10  H   -0.042720   0.009556  -0.000544   0.008608  -0.042466   0.407865
    11  N    0.003572  -0.035861   0.409488  -0.053562   0.002361   0.000380
    12  S   -0.068045   0.338174  -0.138189   0.003610   0.000096   0.004409
    13  C   -0.000246  -0.000631   0.015912  -0.000139   0.000016  -0.000002
    14  C   -0.000007   0.000038   0.000431   0.000008  -0.000000  -0.000000
    15  C    0.000004  -0.000182   0.000261   0.000004  -0.000001   0.000000
    16  C    0.000000  -0.000003   0.000003  -0.000000   0.000000   0.000000
    17  H   -0.000006   0.000127   0.000000   0.000000   0.000000   0.000000
    18  C    0.000000   0.000011  -0.000045  -0.000001  -0.000000  -0.000000
    19  C   -0.000000  -0.000000   0.000002  -0.000000  -0.000000   0.000000
    20  H   -0.000000  -0.000000  -0.000000   0.000000   0.000000  -0.000000
    21  H   -0.000000   0.000000  -0.000001  -0.000000  -0.000000   0.000000
    22  H    0.000000  -0.000000  -0.000000  -0.000000   0.000000  -0.000000
    23  C    0.003396  -0.055217  -0.093334   0.004542   0.000410  -0.000415
    24  O    0.000002  -0.000210  -0.000821   0.000094   0.000001  -0.000000
    25  H    0.000284   0.019344  -0.037354  -0.018740  -0.000468  -0.000014
               7          8          9         10         11         12
     1  C    0.404813  -0.000590   0.008701  -0.042720   0.003572  -0.068045
     2  C   -0.040234   0.010803  -0.000385   0.009556  -0.035861   0.338174
     3  C    0.009412  -0.025263   0.008214  -0.000544   0.409488  -0.138189
     4  C   -0.000604   0.394285  -0.038126   0.008608  -0.053562   0.003610
     5  C    0.008160  -0.041140   0.405595  -0.042466   0.002361   0.000096
     6  C   -0.038937   0.007369  -0.043708   0.407865   0.000380   0.004409
     7  H    0.649109   0.000027  -0.000144  -0.011494  -0.000100  -0.007429
     8  H    0.000027   0.637822  -0.011813  -0.000112  -0.005677  -0.000247
     9  H   -0.000144  -0.011813   0.655632  -0.012211  -0.000096   0.000021
    10  H   -0.011494  -0.000112  -0.012211   0.656122   0.000005  -0.000139
    11  N   -0.000100  -0.005677  -0.000096   0.000005   5.721591  -0.043221
    12  S   -0.007429  -0.000247   0.000021  -0.000139  -0.043221  15.450451
    13  C    0.000004   0.000047  -0.000000  -0.000000  -0.021567  -0.072106
    14  C    0.000001   0.000001   0.000000  -0.000000   0.003807  -0.007962
    15  C   -0.000000  -0.000009   0.000000   0.000000  -0.007028   0.004611
    16  C    0.000000  -0.000000  -0.000000  -0.000000  -0.000083   0.000115
    17  H    0.000001   0.000000   0.000000  -0.000000   0.000261   0.007020
    18  C    0.000000  -0.000000   0.000000  -0.000000  -0.000640  -0.000117
    19  C    0.000000   0.000000  -0.000000   0.000000   0.000023   0.000016
    20  H    0.000000  -0.000000   0.000000   0.000000   0.000001   0.000002
    21  H   -0.000000   0.000000  -0.000000   0.000000   0.000004   0.000003
    22  H    0.000000  -0.000000  -0.000000  -0.000000  -0.000000  -0.000000
    23  C    0.000229  -0.000637   0.000007   0.000004   0.499070   0.306395
    24  O    0.000000  -0.000174   0.000000  -0.000000  -0.026617  -0.000058
    25  H    0.000009   0.000909  -0.000016  -0.000000   0.377562   0.008264
              13         14         15         16         17         18
     1  C   -0.000246  -0.000007   0.000004   0.000000  -0.000006   0.000000
     2  C   -0.000631   0.000038  -0.000182  -0.000003   0.000127   0.000011
     3  C    0.015912   0.000431   0.000261   0.000003   0.000000  -0.000045
     4  C   -0.000139   0.000008   0.000004  -0.000000   0.000000  -0.000001
     5  C    0.000016  -0.000000  -0.000001   0.000000   0.000000  -0.000000
     6  C   -0.000002  -0.000000   0.000000   0.000000   0.000000  -0.000000
     7  H    0.000004   0.000001  -0.000000   0.000000   0.000001   0.000000
     8  H    0.000047   0.000001  -0.000009  -0.000000   0.000000  -0.000000
     9  H   -0.000000   0.000000   0.000000  -0.000000   0.000000   0.000000
    10  H   -0.000000  -0.000000   0.000000  -0.000000  -0.000000  -0.000000
    11  N   -0.021567   0.003807  -0.007028  -0.000083   0.000261  -0.000640
    12  S   -0.072106  -0.007962   0.004611   0.000115   0.007020  -0.000117
    13  C    5.525223   0.422263   0.157290  -0.003809  -0.042867  -0.041186
    14  C    0.422263   4.870756   0.012312   0.538089   0.399899  -0.065384
    15  C    0.157290   0.012312   4.727999  -0.055609   0.006144   0.450785
    16  C   -0.003809   0.538089  -0.055609   4.768104  -0.031679  -0.016814
    17  H   -0.042867   0.399899   0.006144  -0.031679   0.680797  -0.000999
    18  C   -0.041186  -0.065384   0.450785  -0.016814  -0.000999   4.929819
    19  C   -0.053118  -0.016999  -0.002849   0.473412   0.008417   0.490865
    20  H    0.009227  -0.036731  -0.000157   0.400058  -0.012119   0.008389
    21  H    0.016079  -0.000623  -0.024357   0.007739   0.000056   0.370798
    22  H   -0.001733   0.009791   0.008563  -0.046837  -0.000204  -0.039175
    23  C    0.337960  -0.100819  -0.067727   0.006416  -0.021039   0.012048
    24  O   -0.101521   0.006515   0.682802  -0.000205  -0.000076  -0.069181
    25  H   -0.058348  -0.000915  -0.004250   0.000072  -0.000097   0.003910
              19         20         21         22         23         24
     1  C   -0.000000  -0.000000  -0.000000   0.000000   0.003396   0.000002
     2  C   -0.000000  -0.000000   0.000000  -0.000000  -0.055217  -0.000210
     3  C    0.000002  -0.000000  -0.000001  -0.000000  -0.093334  -0.000821
     4  C   -0.000000   0.000000  -0.000000  -0.000000   0.004542   0.000094
     5  C   -0.000000   0.000000  -0.000000   0.000000   0.000410   0.000001
     6  C    0.000000  -0.000000   0.000000  -0.000000  -0.000415  -0.000000
     7  H    0.000000   0.000000  -0.000000   0.000000   0.000229   0.000000
     8  H    0.000000  -0.000000   0.000000  -0.000000  -0.000637  -0.000174
     9  H   -0.000000   0.000000  -0.000000  -0.000000   0.000007   0.000000
    10  H    0.000000   0.000000   0.000000  -0.000000   0.000004  -0.000000
    11  N    0.000023   0.000001   0.000004  -0.000000   0.499070  -0.026617
    12  S    0.000016   0.000002   0.000003  -0.000000   0.306395  -0.000058
    13  C   -0.053118   0.009227   0.016079  -0.001733   0.337960  -0.101521
    14  C   -0.016999  -0.036731  -0.000623   0.009791  -0.100819   0.006515
    15  C   -0.002849  -0.000157  -0.024357   0.008563  -0.067727   0.682802
    16  C    0.473412   0.400058   0.007739  -0.046837   0.006416  -0.000205
    17  H    0.008417  -0.012119   0.000056  -0.000204  -0.021039  -0.000076
    18  C    0.490865   0.008389   0.370798  -0.039175   0.012048  -0.069181
    19  C    4.753658  -0.047382  -0.047678   0.402713   0.000190   0.004874
    20  H   -0.047382   0.690673  -0.000168  -0.012716  -0.000396   0.000001
    21  H   -0.047678  -0.000168   0.685513  -0.012981  -0.000501   0.005720
    22  H    0.402713  -0.012716  -0.012981   0.679126   0.000010  -0.000080
    23  C    0.000190  -0.000396  -0.000501   0.000010   5.140063  -0.017608
    24  O    0.004874   0.000001   0.005720  -0.000080  -0.017608   7.833542
    25  H   -0.000353  -0.000000  -0.000002   0.000005   0.029953   0.074053
              25
     1  C    0.000284
     2  C    0.019344
     3  C   -0.037354
     4  C   -0.018740
     5  C   -0.000468
     6  C   -0.000014
     7  H    0.000009
     8  H    0.000909
     9  H   -0.000016
    10  H   -0.000000
    11  N    0.377562
    12  S    0.008264
    13  C   -0.058348
    14  C   -0.000915
    15  C   -0.004250
    16  C    0.000072
    17  H   -0.000097
    18  C    0.003910
    19  C   -0.000353
    20  H   -0.000000
    21  H   -0.000002
    22  H    0.000005
    23  C    0.029953
    24  O    0.074053
    25  H    0.721552
 Mulliken charges:
               1
     1  C    0.016994
     2  C   -0.234026
     3  C    0.214853
     4  C   -0.006299
     5  C    0.010805
     6  C    0.005064
     7  H    0.027177
     8  H    0.034399
     9  H    0.028330
    10  H    0.027527
    11  N    0.176327
    12  S    0.214325
    13  C   -0.086746
[...]
 0.00000624,0.,0.00062510,0.00057596,0.00000034,-0.00133081,0.00158143,
 -0.00000080,-0.00537596,-0.03019905,-0.00000545,-0.09145776,-0.0917099
 5,-0.00001513,-0.00426211,0.00360323,-0.00000081,0.01057533,0.02052761
 ,0.00000316,0.09470768,0.00003755,-0.00002529,-0.00000004,-0.00019621,
 0.00053135,-0.00000019,0.00027843,0.00002088,-0.00000016,-0.00001991,0
 .00004448,0.,0.00001798,0.00004663,0.,-0.00008913,-0.00001040,0.000000
 03,-0.00000923,0.00001300,-0.00000002,0.00001635,-0.00000379,-0.000000
 02,-0.00000275,0.00000118,0.,-0.00000127,0.00000272,0.00000002,0.00006
 497,0.00025723,0.00000039,0.00006623,-0.00082734,0.00000105,0.00067399
 ,-0.00241043,-0.00000126,-0.09027747,-0.30517488,-0.00004355,0.0002144
 8,0.00237527,-0.00000104,-0.01163354,-0.01693167,-0.00000357,0.0965084
 0,0.32381740,0.00000007,0.00000020,0.00002813,0.00000057,0.00000035,-0
 .00034884,0.00000099,-0.00000108,0.00066593,-0.00000064,0.00000013,0.0
 0008753,0.00000004,-0.00000043,-0.00001602,0.00000017,0.00000015,-0.00
 000841,0.,0.,0.00003217,0.00000003,0.,0.00002761,0.,-0.00000001,-0.000
 00469,0.00000001,0.,-0.00001176,0.00000041,0.00000257,-0.00185610,-0.0
 0000117,0.00000100,0.00131556,0.00000171,-0.00000705,0.00811261,-0.000
 01691,-0.00004229,-0.03612542,-0.00000186,0.00000155,0.00970581,-0.000
 00086,-0.00000192,0.00371696,0.00001807,0.00004739,0.02079715,-0.00141
 917,0.00029086,0.00000082,-0.00464510,-0.00371814,0.00000100,-0.005191
 23,0.01144758,-0.00000241,0.00530128,-0.00071058,-0.00000031,-0.000251
 84,0.00201649,-0.00000006,0.00101839,-0.00132170,0.,-0.00011331,0.0000
 9264,0.00000002,0.00005783,-0.00000895,-0.00000003,0.00011555,0.000006
 74,0.00000002,0.00008872,-0.00006746,-0.00000016,0.01093451,-0.0013919
 0,0.00000252,0.00081723,-0.00312083,0.00000015,0.02522406,0.01151115,0
 .00000241,-0.03804134,0.02039641,-0.00000039,-0.12595728,0.06375985,0.
 00001047,-0.01153708,-0.08608595,-0.00001234,-0.00059000,0.00035677,0.
 00000082,0.65166548,0.00067182,-0.00004061,-0.00000017,0.00017532,0.00
 005258,-0.00000004,0.00092527,-0.00155662,0.00000051,-0.00103802,0.000
 13829,0.00000003,0.00013767,-0.00035005,0.,-0.00033029,0.00015552,0.00
 000002,0.00000435,0.00000771,0.,-0.00000670,-0.00000289,0.00000001,-0.
 00002001,-0.00000367,0.,0.00001251,0.00001184,0.00000003,-0.00057739,0
 .00046942,-0.00000112,0.00132143,-0.00070928,0.00000006,0.01245372,-0.
 02899733,-0.00000166,0.00835121,-0.00421396,-0.00000024,0.06687071,-0.
 22240912,-0.00001637,-0.03694217,-0.00171760,-0.00000286,-0.00022988,0
 .00075962,-0.00000018,0.06125436,0.68079229,0.00000035,0.00000010,0.00
 020493,0.00000020,0.00000059,0.00054946,0.00000156,-0.00000125,0.00135
 295,-0.00000065,0.00000003,-0.00015656,0.00000014,-0.00000024,-0.00006
 659,-0.00000014,0.00000019,-0.00012741,0.,0.00000003,0.00012815,0.0000
 0003,0.,0.00009181,-0.00000002,0.,0.00000803,0.00000001,0.,-0.00007068
 ,-0.00000152,0.00000430,-0.00303871,-0.00000004,-0.00000085,0.00165558
 ,0.00000320,-0.00000700,0.01391594,-0.00000330,0.00000415,-0.00546752,
 0.00000980,-0.00001627,-0.06701714,-0.00000468,-0.00000761,0.00776908,
 0.00000031,0.00000043,-0.00235868,0.00003787,0.00008155,0.10850681,0.0
 0136797,0.00037361,-0.00000079,0.00589516,0.00372842,-0.00000155,0.007
 06880,-0.01345013,0.00000142,-0.00668273,0.00091371,0.00000051,0.00032
 105,-0.00318575,0.00000025,-0.00025991,0.00176192,-0.00000002,0.000078
 88,-0.00008485,-0.00000010,-0.00000309,0.00003170,-0.00000007,-0.00009
 527,-0.00002738,-0.00000004,-0.00004445,0.00006732,0.00000018,-0.01151
 210,0.00759026,0.00000040,-0.00026722,0.00153744,-0.00000029,-0.014730
 93,-0.01275128,-0.00000316,0.05737003,0.00324826,0.00000442,-0.0563006
 8,0.01945337,-0.00000576,-0.14680999,-0.01803303,-0.00000624,-0.002920
 99,0.00452692,0.00000008,-0.31298894,-0.06532735,-0.00002080,0.6587961
 3,0.00015277,0.00096212,-0.00000043,0.00322003,0.00129774,-0.00000029,
 0.00341314,-0.00521849,0.00000108,-0.00355519,0.00062777,0.00000025,0.
 00011284,-0.00245181,0.00000019,0.00093348,0.00092433,-0.00000012,-0.0
 0000541,-0.00004296,0.,0.00001942,0.00001288,0.,0.00000261,-0.00005422
 ,-0.00000002,0.00002277,0.00003475,0.00000006,-0.00068035,0.00464184,-
 0.00000234,-0.00169757,0.00049143,0.00000023,-0.03145856,-0.00546711,-
 0.00000187,0.05501913,-0.05613262,-0.00000458,-0.00629936,0.02500621,-
 0.00000215,-0.11083869,-0.32573947,-0.00003804,0.00339171,-0.00159942,
 -0.00000108,0.00472027,-0.12763851,-0.00001037,-0.05519598,0.71441381,
 0.00000006,0.00000010,0.00012834,0.00000062,0.00000011,-0.00034820,0.0
 0000019,-0.00000090,-0.00100642,-0.00000057,0.00000009,0.00007909,-0.0
 0000003,-0.00000034,0.00009153,0.00000009,0.00000010,0.00001809,0.,-0.
 00000002,-0.00005813,-0.00000001,0.,-0.00011425,0.,0.,0.00000003,0.,0.
 ,0.00000784,-0.00000016,-0.00000037,0.00087805,-0.00000017,0.00000054,
 0.00030494,-0.00000560,-0.00000167,-0.00141752,0.00001009,-0.00000787,
 0.00796341,-0.00000246,0.00000745,0.00113811,-0.00001853,-0.00003450,-
 0.05736485,-0.00000001,-0.00000054,0.00367267,-0.00001365,-0.00001505,
 -0.05021410,0.00002105,0.00007412,0.11498197,0.00007097,-0.00010766,0.
 ,-0.00011092,0.00012714,0.,-0.00002892,-0.00007512,-0.00000002,0.00002
 637,0.00001146,0.,0.00000498,0.00010710,0.,-0.00015387,-0.00000770,0.,
 0.00000644,0.00000596,0.,-0.00000083,-0.00000466,0.,-0.00001051,0.0000
 0759,0.,-0.00000923,0.00000426,0.,-0.00018474,0.00038078,-0.00000004,0
 .00004877,0.00001117,0.00000001,0.00002612,0.00334629,0.00000028,-0.01
 464333,-0.00789639,-0.00000215,0.00057712,0.00042440,0.00000022,-0.333
 09665,-0.06356305,-0.00002411,0.00069214,0.00010176,0.00000009,0.00142
 451,-0.00161890,-0.00000056,-0.00446450,0.00231982,-0.00000028,0.35019
 798,0.00000664,0.00000179,0.,-0.00005246,-0.00008240,0.,0.00002166,0.0
 0019258,-0.00000008,0.00005129,-0.00005294,-0.00000001,0.00001252,0.00
 003865,0.,-0.00000702,-0.00002681,0.,-0.00000013,-0.00000181,0.,0.0000
 0031,0.00000090,0.,0.00000315,-0.00000352,0.,0.00000223,-0.00000160,0.
 ,0.00036916,-0.00042056,0.00000007,0.00001797,0.00003241,-0.00000004,0
 .00305356,-0.00397548,-0.00000081,0.02289346,0.00792426,0.00000172,0.0
 0058941,-0.00084948,0.00000020,-0.06301938,-0.07340737,-0.00000849,-0.
 00031561,0.00084978,0.00000041,-0.00088178,-0.00532759,-0.00000160,-0.
 02920467,0.00053079,-0.00000217,0.06734094,0.07249457,0.,-0.00000002,-
 0.00000593,-0.00000009,-0.00000002,0.00008067,0.00000004,0.00000015,0.
 00044814,0.00000007,0.,0.00005812,0.00000001,0.00000005,-0.00005732,-0
 .00000002,0.,0.00000439,0.,0.,0.00001283,0.,0.,0.00003566,0.,0.,-0.000
 01629,0.,0.,-0.00000756,-0.00000001,0.00000006,0.00014137,0.00000004,-
 0.00000005,-0.00017891,-0.00000053,-0.00000079,0.00398384,0.00000202,-
 0.00000038,0.00471699,0.00000007,-0.00000030,-0.00153871,-0.00002393,-
 0.00000838,-0.03448216,0.00000007,0.00000051,-0.00215914,0.00000030,-0
 .00000111,0.00668284,-0.00000433,-0.00000106,0.00639051,0.00002623,0.0
 0001001,0.02158415,-0.00011886,0.00003488,0.,0.00011046,0.00004922,0.0
 0000002,-0.00010465,0.00007410,0.,0.00004017,0.00000921,0.,-0.00002146
 ,-0.00003929,0.,0.00008951,0.00001347,-0.00000001,-0.00000025,-0.00000
 452,0.,-0.00000401,0.00000058,0.,0.00000308,-0.00000108,0.,-0.00000283
 ,-0.00000163,0.,0.00023376,-0.00018456,-0.00000013,-0.00030360,0.00015
 003,0.00000010,-0.00346845,0.00304889,-0.00000007,-0.00007183,0.000305
 60,-0.00000003,0.00947902,0.02083400,0.00000384,-0.00598082,0.00030948
 ,-0.00000059,0.00009105,-0.00009536,-0.00000004,-0.08718600,-0.0902389
 9,-0.00001676,-0.00330949,-0.02887480,-0.00000462,-0.00037200,-0.00145
 241,-0.00000012,0.08728797,0.00003645,0.00005801,0.00000006,-0.0001065
 2,-0.00014105,0.00000008,0.00004265,0.00006285,0.00000007,0.00000108,-
 0.00000184,0.,0.00000641,-0.00004049,0.,0.00006059,-0.00001853,-0.0000
 0002,-0.00000679,0.00000214,0.,0.00000626,0.00000349,0.,0.00000797,-0.
 00000380,0.,0.00001150,-0.00000285,-0.00000002,-0.00014445,0.00006678,
 -0.00000015,0.00029421,-0.00020093,0.00000017,0.00395043,-0.00229590,-
 0.00000003,0.00047985,0.00033442,0.00000004,-0.01339553,-0.01717023,-0
 .00000434,-0.00060226,0.00144230,-0.00000065,-0.00007636,-0.00007582,-
 0.00000018,-0.08905696,-0.31483661,-0.00004618,0.00254001,-0.00039749,
 -0.00000095,0.00006626,-0.00015062,0.00000016,0.09694915,0.33066403,-0
 .00000002,-0.00000018,-0.00034265,-0.00000056,-0.00000024,-0.00034013,
 -0.00000062,0.00000082,-0.00009385,0.00000049,-0.00000007,0.00002366,-
 0.00000002,0.00000031,-0.00004055,-0.00000011,-0.00000012,0.00008495,0
 .,0.,-0.00004048,0.,0.,0.00002467,0.,0.,-0.00000536,0.,0.,0.00007306,0
 .00000009,-0.00000147,0.00069850,0.00000040,0.00000012,-0.00087708,0.0
 0000004,0.00000166,0.00232039,0.00000059,-0.00000094,0.00008308,-0.000
 00443,-0.00000366,0.00404446,-0.00000088,-0.00000074,0.00529898,-0.000
 00016,-0.00000007,0.00034656,-0.00001609,-0.00004759,-0.03099760,0.000
 00101,-0.00000073,0.00425020,-0.00000003,-0.00000007,-0.00041921,0.000
 01811,0.00005110,0.02049215,0.00004561,-0.00002926,0.,-0.00000130,0.00
 010889,-0.00000003,0.00015338,-0.00011640,-0.00000008,-0.00006516,0.00
 000683,0.00000001,0.00001239,0.00000951,0.,-0.00006295,0.00001049,0.,0
 .00000211,0.00000286,0.,0.00000418,-0.00000353,0.,-0.00000616,0.000002
 07,0.,-0.00000396,0.00000366,0.,0.00011538,0.00036967,0.00000015,-0.00
 006903,0.00008927,-0.00000010,-0.00039674,-0.00047661,-0.00000027,0.00
 057865,-0.00241855,-0.00000053,-0.00250336,-0.00420945,-0.00000070,0.0
 0952861,-0.00944766,-0.00000088,0.00036300,-0.00041334,0.00000006,-0.0
 1365864,0.02476383,0.00000226,-0.18613078,0.14400299,0.00001025,0.0006
 8351,0.00036352,0.00000031,0.00107224,-0.00032300,0.00000011,0.1924624
 2,-0.00000261,0.00007026,-0.00000003,0.00015927,0.00008166,-0.00000006
 ,0.00019300,-0.00031246,-0.00000004,-0.00017416,0.00003468,0.00000002,
 0.00000363,-0.00014354,0.00000001,0.00008483,0.00004812,0.,-0.00000435
 ,-0.00000487,0.,0.00000394,0.00000450,0.,0.00000501,-0.00000397,0.,0.0
 0000614,-0.00000187,0.,-0.00024652,0.00009986,0.00000013,-0.00009373,0
 .00002272,0.,-0.00058804,0.00029534,-0.00000002,-0.00301552,-0.0040217
 0,-0.00000135,-0.00232872,0.00004153,-0.00000082,0.02239513,-0.0155599
 1,-0.00000124,0.00101667,-0.00106364,-0.00000015,-0.00653922,0.0079469
 0,0.00000040,0.14232686,-0.21845850,-0.00001644,-0.00015284,0.00101093
 ,0.00000074,0.00032456,0.00061919,0.00000046,-0.15330406,0.22853195,-0
 .00000006,0.00000011,0.00000776,0.00000025,0.00000003,0.00009168,0.000
 00025,-0.00000028,0.00016776,-0.00000021,0.00000006,0.00000767,0.,-0.0
 0000020,-0.00000316,0.00000015,0.00000007,-0.00000842,0.,0.,0.00001028
 ,0.,0.,0.00001540,0.,0.,-0.00000035,0.,0.,-0.00001085,0.00000024,0.000
 00051,-0.00023032,-0.00000019,-0.00000010,-0.00005720,0.00000053,-0.00
 000039,-0.00071277,-0.00000060,-0.00000117,0.00622424,-0.00000152,-0.0
 0000136,0.00638656,0.00000327,-0.00000243,0.00343084,0.00000012,-0.000
 00019,0.00046919,-0.00000068,0.00000200,0.00322098,0.00000924,-0.00001
 689,-0.03362528,0.00000031,0.00000070,-0.00421920,0.00000029,0.0000006
 4,-0.00333406,-0.00001071,0.00001819,0.02337385,-0.00240176,-0.0069067
 5,0.00000059,-0.00407300,0.02165321,-0.00000078,-0.05550613,0.03266139
 ,0.00000185,0.00604945,-0.00273238,-0.00000027,-0.00097701,0.00466725,
 -0.00000029,-0.00534759,-0.00182560,0.00000034,0.00026541,-0.00069311,
 0.00000012,-0.00064185,-0.00004892,-0.00000008,0.00018719,-0.00011127,
 0.,-0.00065508,-0.00016533,0.00000011,-0.35762040,-0.03797297,0.000027
 48,-0.04974190,-0.04979671,0.00000647,-0.15841192,0.06929314,0.0000063
 7,-0.04149341,0.03230783,0.00000102,0.04277635,0.01332922,0.00000247,-
 0.00399293,-0.00996758,0.00000013,0.00026470,0.00069445,-0.00000233,-0
 .00571646,-0.00297003,-0.00000319,-0.00037133,0.00408853,0.00000170,-0
 .00054568,0.00067931,-0.00000018,0.00064489,-0.00104032,0.00000090,0.0
 0007404,-0.00005276,-0.00000076,0.66348502,-0.00025933,-0.00033362,-0.
 00000021,0.02296963,-0.01935604,0.00000149,0.01924176,0.01155456,-0.00
 000385,0.00118007,-0.00646389,0.00000095,-0.00042823,-0.00097998,0.000
 00034,0.00132319,-0.00085066,-0.00000001,0.00009930,-0.00046345,0.0000
 0008,-0.00045278,0.00009694,-0.00000008,0.00027665,-0.00049847,-0.0000
 0002,-0.00021265,0.00004753,0.00000002,-0.02835593,-0.12753321,0.00000
 533,-0.01227387,-0.17499534,0.00001787,0.05132509,-0.17591024,-0.00000
 464,0.02350483,0.01064524,0.00000070,0.01775935,-0.04726715,-0.0000022
 1,-0.00444526,0.00182244,-0.00000270,-0.00176998,0.00013822,0.00000256
 ,-0.01311235,-0.00329022,-0.00000080,0.00791601,-0.00041914,0.00000055
 ,-0.00072342,0.00096644,0.00000003,0.00075490,-0.00060735,-0.00000141,
 0.00000184,0.00036407,0.00000072,-0.06342986,0.52077360,-0.00000018,0.
 00000065,0.00082349,-0.00000244,0.00000009,-0.00097859,0.00000077,-0.0
 0000132,0.00464678,0.00000006,0.00000102,0.00152462,0.00000010,-0.0000
 0033,0.00118636,0.00000079,0.00000032,0.00073978,-0.00000004,0.0000000
 7,-0.00035407,0.00000005,-0.00000005,-0.00058151,-0.00000006,0.0000000
 2,-0.00042297,0.00000006,-0.00000001,-0.00020020,0.00003076,0.00001122
 ,-0.02464364,0.00000385,0.00001557,-0.01715100,0.00000112,-0.00000345,
 -0.03332979,-0.00000341,0.00000399,0.00753586,0.00000654,-0.00000406,0
 .00349629,0.00000087,-0.00000403,0.00489584,0.00000035,0.00000059,-0.0
 0363093,-0.00000321,0.00000003,-0.00062763,0.00000176,0.00000166,-0.00
 046456,0.00000010,0.00000017,-0.00101979,0.,-0.00000058,0.00222886,0.0
 0000021,0.00000011,-0.00051565,-0.00003995,-0.00002227,0.06259797,-0.0
 0050587,0.00132973,0.00000035,-0.00058188,0.00034875,-0.00000053,0.005
 36198,0.00107750,-0.00000164,-0.00014654,-0.00001353,0.00000014,0.0000
 0361,-0.00098413,0.00000025,0.00162210,0.00012097,-0.00000006,-0.00015
 205,0.00013730,-0.00000009,0.00022150,0.00006168,-0.00000016,0.0000621
 5,-0.00000111,-0.00000003,0.00009891,-0.00000459,-0.00000009,0.0039446
 2,0.02328104,0.00000802,0.00003362,-0.00149956,-0.00000064,-0.03463240
 ,-0.05265213,-0.00001008,0.00357484,-0.00478158,-0.00000014,-0.5280498
 0,-0.08833549,-0.00004360,-0.00966680,-0.00830196,-0.00000154,-0.00168
 736,-0.00095998,0.00000015,-0.09097118,0.02247068,-0.00000519,0.016428
 18,0.01685885,0.00000233,-0.00020742,-0.00047793,0.,0.00193180,0.00031
 189,0.00000141,-0.00236349,0.00003526,0.00000002,-0.02019501,0.0077407
 7,-0.00000056,0.65111381,-0.00036365,-0.00021813,0.00000001,0.00056797
 ,-0.00186995,0.00000067,-0.00523274,-0.00062309,0.00000008,0.00046001,
 -0.00031259,-0.00000001,0.00001251,0.00041087,-0.00000005,0.00000130,-
 0.00037492,0.00000003,0.00004834,-0.00015858,0.00000006,0.00007732,0.0
 0002875,0.,0.00007940,-0.00006095,0.,0.00001936,-0.00003262,0.,0.01371
 920,-0.02209819,-0.00000720,0.00027957,0.00119505,-0.00000027,-0.04937
 379,-0.01477642,-0.00000442,-0.00095736,-0.01063446,-0.00000277,-0.088
 30668,-0.10365146,-0.00001017,0.00052367,-0.00227008,0.00000006,-0.002
 50905,-0.00047973,-0.00000083,0.03268963,0.02120154,0.00000119,0.00265
 347,-0.00231436,-0.00000179,-0.00010848,0.00034103,0.00000042,-0.00210
 240,0.00272112,0.00000217,0.00142530,0.00041133,0.00000037,0.00186967,
 0.00953347,0.00000165,0.09876645,0.13444740,-0.00000053,0.00000011,0.0
 0022593,0.00000059,-0.00000130,-0.00022721,-0.00000252,0.00000032,-0.0
 0032916,0.00000033,0.00000002,0.00009889,-0.00000012,-0.00000008,0.000
 17994,0.00000043,-0.00000018,0.00003488,0.00000002,-0.00000008,-0.0000
 8776,-0.00000002,0.00000002,-0.00020061,0.00000004,-0.00000002,-0.0000
 1932,0.,-0.00000001,-0.00006223,0.00000624,-0.00000888,0.00742787,-0.0
 0000017,0.00000038,-0.00090125,-0.00000675,-0.00000956,0.01843509,-0.0
 0000134,-0.00000126,0.00243179,-0.00004372,-0.00000904,-0.05572165,-0.
 00000050,-0.00000219,0.00020655,-0.00000008,0.00000020,-0.00215819,-0.
 00000593,0.00000257,0.01611308,0.00000241,0.00000201,0.00426532,-0.000
 00004,-0.00000002,0.00007252,-0.00000004,0.00000081,-0.00363950,0.0000
 0005,0.00000007,-0.00057306,0.00000008,0.00000378,-0.00316461,0.000055
 79,0.00002186,0.02213326,0.00136940,0.00046640,-0.00000011,-0.00319236
 ,0.00536465,-0.00000054,0.01539496,0.02235250,-0.00000251,0.00106241,0
 .00085714,-0.00000020,-0.00015479,-0.00026640,0.00000006,-0.00033000,0
 .00003788,0.00000003,-0.00018401,0.00032438,-0.00000005,-0.00133072,-0
 .00096806,0.00000009,-0.00000614,-0.00001464,0.,-0.00005019,-0.0000641
 7,0.,-0.14584074,-0.17932977,0.00001825,-0.00417931,-0.00201955,0.0000
 0038,0.00215504,0.00014843,-0.00000108,-0.00014559,-0.00008107,0.00000
 016,-0.00896491,0.00022515,0.00000024,0.00041812,0.00006618,-0.0000002
 7,0.00022231,0.00013991,0.00000054,0.00161999,-0.00011315,0.00000113,-
 0.00043382,0.00032754,-0.00000029,0.00006969,0.00000626,0.00000007,-0.
 00003970,-0.00001250,-0.00000023,0.00016606,-0.00005175,0.00000005,-0.
 00605559,-0.02862976,0.00000245,0.00476266,-0.00423903,-0.00000422,0.1
 4366724,-0.00025021,-0.00042655,0.00000028,0.00319939,0.00036117,0.000
 00003,-0.00345869,-0.02125389,0.00000187,-0.00226119,0.00226681,0.0000
 0012,-0.00025106,-0.00131199,0.00000016,-0.00008383,0.00085950,-0.0000
 0009,0.00013967,-0.00004206,-0.00000003,0.00036610,-0.00002534,-0.0000
 0001,-0.00014750,0.00014863,-0.00000004,-0.00001357,0.00007240,-0.0000
 0005,-0.17334361,-0.40291684,0.00004411,0.00272120,0.00607520,-0.00000
 146,-0.00508804,0.00233448,0.00000215,0.00403622,-0.00184793,-0.000000
 52,0.01465518,0.00499598,0.00000274,-0.00292376,0.00403822,0.00000101,
 -0.00049601,-0.00025534,-0.00000114,-0.00252693,-0.00044163,-0.0000008
 2,-0.00140888,-0.00300959,-0.00000042,0.00000327,-0.00008396,0.,0.0001
 3699,-0.00003083,0.00000065,-0.00041886,-0.00001259,-0.00000038,-0.003
 53044,0.00302624,-0.00000108,-0.01452887,-0.01041503,0.00000049,0.1854
 7343,0.41789493,-0.00000005,0.00000057,0.00064618,0.00000010,0.0000007
 8,0.00339891,0.00000222,0.00000209,0.00101100,-0.00000002,-0.00000018,
 -0.00135989,-0.00000004,-0.00000028,-0.00053812,0.00000038,0.00000004,
 -0.00004060,-0.00000007,0.00000006,-0.00006044,0.00000003,0.00000008,0
 .00006895,0.,0.00000002,0.00010608,0.,0.,0.00000804,0.00001628,0.00004
 094,-0.01072898,0.00000010,0.00000044,0.00374073,0.00000104,-0.0000016
 0,-0.00097685,-0.00000187,0.00000051,-0.00030632,0.00000200,0.00000257
 ,0.00055592,0.00000057,-0.00000116,0.00026258,-0.00000005,0.00000005,-
 0.00029972,-0.00000110,-0.00000045,-0.00005702,0.00000041,0.00000037,0
 .00044322,-0.00000002,0.,-0.00010780,0.00000004,-0.00000005,0.00016095
 ,-0.00000008,0.00000005,-0.00011589,-0.00000181,0.00000378,-0.00259090
 ,-0.00000410,-0.00000106,-0.00454055,-0.00001396,-0.00004755,0.0113205
 1\\0.00137091,0.00363456,-0.00000028,0.00510535,0.00748462,-0.00000064
 ,0.00934937,-0.00020795,-0.00000063,-0.00097211,0.00176578,0.00000028,
 -0.00019792,-0.00236079,0.00000010,0.00142090,0.00148449,-0.00000015,-
 0.00006518,0.00049025,-0.00000024,0.00022469,0.00002207,0.,0.00002004,
 0.00011289,0.00000002,0.00010652,0.00015471,-0.00000006,-0.01346773,0.
 00895721,0.00000603,0.00311811,0.00809592,-0.00000219,-0.00795852,0.00
 477313,-0.00000169,0.00753924,-0.00070848,0.00000138,0.01388755,0.0027
 9972,0.00000004,-0.00272095,0.00731223,-0.00000011,0.00018102,-0.00001
 171,0.00000078,-0.00324925,0.00033612,0.00000105,-0.00500492,-0.000869
 74,-0.00000033,-0.00017430,0.00001991,-0.00000023,-0.00027268,-0.00002
 115,-0.00000048,-0.00052151,-0.00016859,0.00000009,-0.00820435,-0.0054
 1339,0.,-0.00746724,-0.01086274,-0.00000079,0.00795298,-0.02681908,-0.
 00000195\\\@
 The archive entry for this job was punched.


 GARLIC THEN HAVE POWER TO SAVE FROM DEATH
 BEAR WITH IT THOUGH IT MAKETH UNSAVORY BREATH,
 AND SCORN NOT GARLIC LIKE SOME THAT THINK
 IT ONLY MAKETH MEN WINK AND DRINK AND STINK.
   --  SIR JOHN HARRINGTON,
       "THE ENGLISHMAN'S DOCTOR", 1609
 Job cpu time:       0 days  2 hours 52 minutes 16.4 seconds.
 Elapsed time:       0 days  0 hours 17 minutes 44.5 seconds.
 File lengths (MBytes):  RWF=   1376 Int=      0 D2E=      0 Chk=     48 Scr=      8
 Normal termination of Gaussian 16 at Mon Jul 13 19:49:09 2020.
