 Entering Gaussian System, Link 0=g16
 Initial command:
 /gpfs/loomis/apps/avx/software/Gaussian/16-C.01_AVX/g16/l1.exe "/home/fas/batista/pev4/scratch60/gauss-scratch/Gau-151036.inp" -scrdir="/home/fas/batista/pev4/scratch60/gauss-scratch/"
 Entering Link 1 = /gpfs/loomis/apps/avx/software/Gaussian/16-C.01_AVX/g16/l1.exe PID=    151037.
  
 Copyright (c) 1988-2019, Gaussian, Inc.  All Rights Reserved.
  
 This is part of the Gaussian(R) 16 program.  It is based on
 the Gaussian(R) 09 system (copyright 2009, Gaussian, Inc.),
 the Gaussian(R) 03 system (copyright 2003, Gaussian, Inc.),
 the Gaussian(R) 98 system (copyright 1998, Gaussian, Inc.),
 the Gaussian(R) 94 system (copyright 1995, Gaussian, Inc.),
 the Gaussian 92(TM) system (copyright 1992, Gaussian, Inc.),
 the Gaussian 90(TM) system (copyright 1990, Gaussian, Inc.),
 the Gaussian 88(TM) system (copyright 1988, Gaussian, Inc.),
 the Gaussian 86(TM) system (copyright 1986, Carnegie Mellon
 University), and the Gaussian 82(TM) system (copyright 1983,
 Carnegie Mellon University). Gaussian is a federally registered
 trademark of Gaussian, Inc.
  
 This software contains proprietary and confidential information,
 including trade secrets, belonging to Gaussian, Inc.
  
 This software is provided under written license and may be
 used, copied, transmitted, or stored only in accord with that
 written license.
  
 The following legend is applicable only to US Government
 contracts under FAR:
  
                    RESTRICTED RIGHTS LEGEND
  
 Use, reproduction and disclosure by the US Government is
 subject to restrictions as set forth in subparagraphs (a)
 and (c) of the Commercial Computer Software - Restricted
 Rights clause in FAR 52.227-19.
  
 Gaussian, Inc.
 340 Quinnipiac St., Bldg. 40, Wallingford CT 06492
  
  
 ---------------------------------------------------------------
 Warning -- This program may not be used in any manner that
 competes with the business of Gaussian, Inc. or will provide
 assistance to any competitor of Gaussian, Inc.  The licensee
 of this program is prohibited from giving any competitor of
 Gaussian, Inc. access to this program.  By using this program,
 the user acknowledges that Gaussian, Inc. is engaged in the
 business of creating and licensing software in the field of
 computational chemistry and represents and warrants to the
 licensee that it is not a competitor of Gaussian, Inc. and that
 it will not use this program in any manner prohibited above.
 ---------------------------------------------------------------
  

 Cite this work as:
 Gaussian 16, Revision C.01,
 M. J. Frisch, G. W. Trucks, H. B. Schlegel, G. E. Scuseria, 
 M. A. Robb, J. R. Cheeseman, G. Scalmani, V. Barone, 
 G. A. Petersson, H. Nakatsuji, X. Li, M. Caricato, A. V. Marenich, 
 J. Bloino, B. G. Janesko, R. Gomperts, B. Mennucci, H. P. Hratchian, 
 J. V. Ortiz, A. F. Izmaylov, J. L. Sonnenberg, D. Williams-Young, 
 F. Ding, F. Lipparini, F. Egidi, J. Goings, B. Peng, A. Petrone, 
 T. Henderson, D. Ranasinghe, V. G. Zakrzewski, J. Gao, N. Rega, 
 G. Zheng, W. Liang, M. Hada, M. Ehara, K. Toyota, R. Fukuda, 
 J. Hasegawa, M. Ishida, T. Nakajima, Y. Honda, O. Kitao, H. Nakai, 
 T. Vreven, K. Throssell, J. A. Montgomery, Jr., J. E. Peralta, 
 F. Ogliaro, M. J. Bearpark, J. J. Heyd, E. N. Brothers, K. N. Kudin, 
 V. N. Staroverov, T. A. Keith, R. Kobayashi, J. Normand, 
 K. Raghavachari, A. P. Rendell, J. C. Burant, S. S. Iyengar, 
 J. Tomasi, M. Cossi, J. M. Millam, M. Klene, C. Adamo, R. Cammi, 
 J. W. Ochterski, R. L. Martin, K. Morokuma, O. Farkas, 
 J. B. Foresman, and D. J. Fox, Gaussian, Inc., Wallingford CT, 2019.
 
 ******************************************
 Gaussian 16:  ES64L-G16RevC.01  3-Jul-2019
                14-Jul-2020 
 ******************************************
 %chk=config_8_16.chk
 %mem=58GB
 %nprocshared=10
 Will use up to   10 processors via shared memory.
 ----------------------------------------------------------------------
 #p opt=addgic freq td wb97xd/cc-pvdz nosymm int=ultrafine scrf=(solven
 t=CarbonTetraChloride)
 ----------------------------------------------------------------------
 1/18=20,19=15,26=6,38=1,145=903/1,3;
 2/9=110,12=2,15=1,17=6,18=5,40=1/2;
 3/5=16,11=9,25=1,30=1,70=2201,71=1,72=11,74=-58,75=-5/1,2,3,8;
 4//1;
 5/5=2,38=5,53=11/2;
 8/6=1,10=1/1;
 9/15=2,42=1,70=2/14;
 10/5=4,31=1/2;
 6/7=2,8=2,9=2,10=2/1;
 7/12=6,13=5,30=1/1,2,3,16;
 1/18=20,19=15,26=6,145=903/3(2);
 2/9=110,15=1/2;
 99//99;
 2/9=110,15=1/2;
 3/5=16,11=9,25=1,30=1,70=2205,71=1,72=11,74=-58,75=-5/1,2,3,8;
 4/5=5,16=3,69=1/1;
 5/5=2,38=5,53=11/2;
 8/6=1,10=1/1;
 9/15=2,42=1,49=4,70=2/14;
 10/5=4,31=1/2;
 7/12=6,13=5,30=1/1,2,3,16;
 1/18=20,19=15,26=6,145=903/3(-8);
 2/9=110,15=1/2;
 6/7=2,8=2,9=2,10=2/1;
 99/9=10/99;
 Leave Link    1 at Tue Jul 14 10:25:48 2020, MaxMem=  7784628224 cpu:               4.9 elap:               0.6
 (Enter /gpfs/loomis/apps/avx/software/Gaussian/16-C.01_AVX/g16/l101.exe)
 ------------------------------------------------
 NM 2D-scan of HBT TD-WB97XD pVDZ in CTC Relaxed.
 ------------------------------------------------
 Symbolic Z-matrix:
 Charge =  0 Multiplicity = 1
 C                     1.54811  -3.25037  -0.00002 
 C                     1.00291  -1.96481  -0.00002 
 C                     1.79334  -0.77741  -0.00003 
 C                     3.19553  -0.93057  -0.00003 
 C                     3.7393   -2.22042  -0.00002 
 C                     2.93716  -3.37487  -0.00002 
 H                     0.89401  -4.13005  -0.00001 
 H                     3.84774  -0.04934  -0.00003 
 H                     4.82842  -2.32946  -0.00002 
 H                     3.39939  -4.36629  -0.00001 
 N                     1.02627   0.37464  -0.00003 
 S                    -0.70125  -1.60021  -0.00003 
 C                    -1.32393   1.06984   0.00001 
 C                    -2.68012   0.73337   0.00002 
 C                    -0.89934   2.47861   0.00004 
 C                    -3.65536   1.7536    0.00003 
 H                    -2.99427  -0.31611   0.00002 
 C                    -1.92345   3.4734    0.00004 
 C                    -3.27994   3.10723   0.00004 
 H                    -4.71479   1.47948   0.00004 
 H                    -1.61263   4.52375   0.00006 
 H                    -4.05195   3.88166   0.00004 
 C                    -0.30623   0.0881   -0.00002 
 O                     0.3526    2.72448   0.00006 
 H                     1.03296   1.41537   0.00001 
 
 Initializing the GIC definitions file.
 Number of initial coordinates =   134
 Number of input entries/lines =    52
 Number of additional coordinates =     2
 Number of removed coordinates =     0
 Number of frozen coordinates =     2
 Number of final active and frozen coordinates =   136
 ITRead=  0  0  0  0  0  0  0  0  0  0  0  0  0  0  0  0  0  0  0  0
 ITRead=  0  0  0  0  0
 MicOpt= -1 -1 -1 -1 -1 -1 -1 -1 -1 -1 -1 -1 -1 -1 -1 -1 -1 -1 -1 -1
 MicOpt= -1 -1 -1 -1 -1
 NAtoms=     25 NQM=       25 NQMF=       0 NMMI=      0 NMMIF=      0
                NMic=       0 NMicF=      0.
                    Isotopes and Nuclear Properties:
 (Nuclear quadrupole moments (NQMom) in fm**2, nuclear magnetic moments (NMagM)
  in nuclear magnetons)

  Atom         1           2           3           4           5           6           7           8           9          10
 IAtWgt=          12          12          12          12          12          12           1           1           1           1
 AtmWgt=  12.0000000  12.0000000  12.0000000  12.0000000  12.0000000  12.0000000   1.0078250   1.0078250   1.0078250   1.0078250
 NucSpn=           0           0           0           0           0           0           1           1           1           1
 AtZEff=  -0.0000000  -0.0000000  -0.0000000  -0.0000000  -0.0000000  -0.0000000  -0.0000000  -0.0000000  -0.0000000  -0.0000000
 NQMom=    0.0000000   0.0000000   0.0000000   0.0000000   0.0000000   0.0000000   0.0000000   0.0000000   0.0000000   0.0000000
 NMagM=    0.0000000   0.0000000   0.0000000   0.0000000   0.0000000   0.0000000   2.7928460   2.7928460   2.7928460   2.7928460
 AtZNuc=   6.0000000   6.0000000   6.0000000   6.0000000   6.0000000   6.0000000   1.0000000   1.0000000   1.0000000   1.0000000

  Atom        11          12          13          14          15          16          17          18          19          20
 IAtWgt=          14          32          12          12          12          12           1          12          12           1
 AtmWgt=  14.0030740  31.9720718  12.0000000  12.0000000  12.0000000  12.0000000   1.0078250  12.0000000  12.0000000   1.0078250
 NucSpn=           2           0           0           0           0           0           1           0           0           1
 AtZEff=  -0.0000000  -0.0000000  -0.0000000  -0.0000000  -0.0000000  -0.0000000  -0.0000000  -0.0000000  -0.0000000  -0.0000000
 NQMom=    2.0440000   0.0000000   0.0000000   0.0000000   0.0000000   0.0000000   0.0000000   0.0000000   0.0000000   0.0000000
 NMagM=    0.4037610   0.0000000   0.0000000   0.0000000   0.0000000   0.0000000   2.7928460   0.0000000   0.0000000   2.7928460
 AtZNuc=   7.0000000  16.0000000   6.0000000   6.0000000   6.0000000   6.0000000   1.0000000   6.0000000   6.0000000   1.0000000

  Atom        21          22          23          24          25
 IAtWgt=           1           1          12          16           1
 AtmWgt=   1.0078250   1.0078250  12.0000000  15.9949146   1.0078250
 NucSpn=           1           1           0           0           1
 AtZEff=  -0.0000000  -0.0000000  -0.0000000  -0.0000000  -0.0000000
 NQMom=    0.0000000   0.0000000   0.0000000   0.0000000   0.0000000
 NMagM=    2.7928460   2.7928460   0.0000000   0.0000000   2.7928460
 AtZNuc=   1.0000000   1.0000000   6.0000000   8.0000000   1.0000000
 Leave Link  101 at Tue Jul 14 10:25:51 2020, MaxMem=  7784628224 cpu:              29.9 elap:               3.2
 (Enter /gpfs/loomis/apps/avx/software/Gaussian/16-C.01_AVX/g16/l103.exe)

 GradGradGradGradGradGradGradGradGradGradGradGradGradGradGradGradGradGrad
 Berny optimization.
 Initialization pass.
                           ----------------------------
                           !    Initial Parameters    !
                           ! (Angstroms and Degrees)  !
 --------------------------                            --------------------------
 ! Name  Definition              Value          Derivative Info.                !
 --------------------------------------------------------------------------------
 ! R1    R(1,2)                  1.3964         estimate D2E/DX2                !
 ! R2    R(1,6)                  1.3946         estimate D2E/DX2                !
 ! R3    R(1,7)                  1.0962         estimate D2E/DX2                !
 ! R4    R(2,3)                  1.4264         estimate D2E/DX2                !
 ! R5    R(2,12)                 1.7427         estimate D2E/DX2                !
 ! R6    R(3,4)                  1.4105         estimate D2E/DX2                !
 ! R7    R(3,11)                 1.384          estimate D2E/DX2                !
 ! R8    R(4,5)                  1.3998         estimate D2E/DX2                !
 ! R9    R(4,8)                  1.0963         estimate D2E/DX2                !
 ! R10   R(5,6)                  1.4058         estimate D2E/DX2                !
 ! R11   R(5,9)                  1.0946         estimate D2E/DX2                !
 ! R12   R(6,10)                 1.0939         estimate D2E/DX2                !
 ! R13   R(11,23)                1.363          estimate D2E/DX2                !
 ! R14   R(11,25)                1.0408         estimate D2E/DX2                !
 ! R15   R(12,23)                1.7339         estimate D2E/DX2                !
 ! R16   R(13,14)                1.3973         estimate D2E/DX2                !
 ! R17   R(13,15)                1.4714         estimate D2E/DX2                !
 ! R18   R(13,23)                1.4141         estimate D2E/DX2                !
 ! R19   R(14,16)                1.4114         estimate D2E/DX2                !
 ! R20   R(14,17)                1.0955         estimate D2E/DX2                !
 ! R21   R(15,18)                1.4277         estimate D2E/DX2                !
 ! R22   R(15,24)                1.2759         estimate D2E/DX2                !
 ! R23   R(16,19)                1.4047         estimate D2E/DX2                !
 ! R24   R(16,20)                1.0943         estimate D2E/DX2                !
 ! R25   R(18,19)                1.405          estimate D2E/DX2                !
 ! R26   R(18,21)                1.0954         estimate D2E/DX2                !
 ! R27   R(19,22)                1.0935         estimate D2E/DX2                !
 ! A1    A(2,1,6)              118.1032         estimate D2E/DX2                !
 ! A2    A(2,1,7)              120.3849         estimate D2E/DX2                !
 ! A3    A(6,1,7)              121.512          estimate D2E/DX2                !
 ! A4    A(1,2,3)              123.3673         estimate D2E/DX2                !
 ! A5    A(1,2,12)             125.0578         estimate D2E/DX2                !
 ! A6    A(3,2,12)             111.5748         estimate D2E/DX2                !
 ! A7    A(2,3,4)              117.4174         estimate D2E/DX2                !
 ! A8    A(2,3,11)             112.6922         estimate D2E/DX2                !
 ! A9    A(4,3,11)             129.8904         estimate D2E/DX2                !
 ! A10   A(3,4,5)              119.0929         estimate D2E/DX2                !
 ! A11   A(3,4,8)              120.2721         estimate D2E/DX2                !
 ! A12   A(5,4,8)              120.635          estimate D2E/DX2                !
 ! A13   A(4,5,6)              122.3481         estimate D2E/DX2                !
 ! A14   A(4,5,9)              118.5766         estimate D2E/DX2                !
 ! A15   A(6,5,9)              119.0753         estimate D2E/DX2                !
 ! A16   A(1,6,5)              119.6711         estimate D2E/DX2                !
 ! A17   A(1,6,10)             120.1179         estimate D2E/DX2                !
 ! A18   A(5,6,10)             120.211          estimate D2E/DX2                !
 ! A19   A(3,11,23)            111.5207         estimate D2E/DX2                !
 ! A20   A(3,11,25)            145.9754         estimate D2E/DX2                !
 ! A21   A(23,11,25)           102.504          estimate D2E/DX2                !
 ! A22   A(2,12,23)             88.9072         estimate D2E/DX2                !
 ! A23   A(14,13,15)           120.7062         estimate D2E/DX2                !
 ! A24   A(14,13,23)           122.0962         estimate D2E/DX2                !
 ! A25   A(15,13,23)           117.1975         estimate D2E/DX2                !
 ! A26   A(13,14,16)           119.7745         estimate D2E/DX2                !
 ! A27   A(13,14,17)           120.5984         estimate D2E/DX2                !
 ! A28   A(16,14,17)           119.6271         estimate D2E/DX2                !
 ! A29   A(13,15,18)           117.396          estimate D2E/DX2                !
 ! A30   A(13,15,24)           117.8831         estimate D2E/DX2                !
 ! A31   A(18,15,24)           124.7209         estimate D2E/DX2                !
 ! A32   A(14,16,19)           120.7903         estimate D2E/DX2                !
 ! A33   A(14,16,20)           119.2019         estimate D2E/DX2                !
 ! A34   A(19,16,20)           120.0079         estimate D2E/DX2                !
 ! A35   A(15,18,19)           120.7254         estimate D2E/DX2                !
 ! A36   A(15,18,21)           117.6839         estimate D2E/DX2                !
 ! A37   A(19,18,21)           121.5908         estimate D2E/DX2                !
 ! A38   A(16,19,18)           120.6077         estimate D2E/DX2                !
 ! A39   A(16,19,22)           119.5885         estimate D2E/DX2                !
 ! A40   A(18,19,22)           119.8038         estimate D2E/DX2                !
 ! A41   A(11,23,12)           115.305          estimate D2E/DX2                !
 ! A42   A(11,23,13)           123.8942         estimate D2E/DX2                !
 ! A43   A(12,23,13)           120.8008         estimate D2E/DX2                !
 ! D1    D(6,1,2,3)              0.0            estimate D2E/DX2                !
 ! D2    D(6,1,2,12)           180.0            estimate D2E/DX2                !
 ! D3    D(7,1,2,3)            179.9999         estimate D2E/DX2                !
 ! D4    D(7,1,2,12)            -0.0001         estimate D2E/DX2                !
 ! D5    D(2,1,6,5)             -0.0001         estimate D2E/DX2                !
 ! D6    D(2,1,6,10)           179.9999         estimate D2E/DX2                !
 ! D7    D(7,1,6,5)            179.9999         estimate D2E/DX2                !
 ! D8    D(7,1,6,10)             0.0            estimate D2E/DX2                !
 ! D9    D(1,2,3,4)              0.0002         estimate D2E/DX2                !
 ! D10   D(1,2,3,11)          -179.9999         estimate D2E/DX2                !
 ! D11   D(12,2,3,4)          -179.9998         estimate D2E/DX2                !
 ! D12   D(12,2,3,11)            0.0            estimate D2E/DX2                !
 ! D13   D(1,2,12,23)          179.9997         estimate D2E/DX2                !
 ! D14   D(3,2,12,23)           -0.0003         estimate D2E/DX2                !
 ! D15   D(2,3,4,5)             -0.0002         estimate D2E/DX2                !
 ! D16   D(2,3,4,8)            179.9998         estimate D2E/DX2                !
 ! D17   D(11,3,4,5)           180.0            estimate D2E/DX2                !
 ! D18   D(11,3,4,8)             0.0001         estimate D2E/DX2                !
 ! D19   D(2,3,11,23)            0.0004         estimate D2E/DX2                !
 ! D20   D(2,3,11,25)          179.9954         estimate D2E/DX2                !
 ! D21   D(4,3,11,23)         -179.9998         estimate D2E/DX2                !
 ! D22   D(4,3,11,25)           -0.0047         estimate D2E/DX2                !
 ! D23   D(3,4,5,6)              0.0001         estimate D2E/DX2                !
 ! D24   D(3,4,5,9)           -179.9999         estimate D2E/DX2                !
 ! D25   D(8,4,5,6)            180.0            estimate D2E/DX2                !
 ! D26   D(8,4,5,9)              0.0            estimate D2E/DX2                !
 ! D27   D(4,5,6,1)              0.0001         estimate D2E/DX2                !
 ! D28   D(4,5,6,10)          -179.9999         estimate D2E/DX2                !
 ! D29   D(9,5,6,1)           -179.9999         estimate D2E/DX2                !
 ! D30   D(9,5,6,10)             0.0            estimate D2E/DX2                !
 ! D31   D(3,11,23,12)          -0.0006         estimate D2E/DX2                !
 ! D32   D(3,11,23,13)         179.9983         estimate D2E/DX2                !
 ! D33   D(25,11,23,12)       -179.9978         estimate D2E/DX2                !
 ! D34   D(25,11,23,13)          0.0011         estimate D2E/DX2                !
 ! D35   D(2,12,23,11)           0.0006         estimate D2E/DX2                !
 ! D36   D(2,12,23,13)        -179.9984         estimate D2E/DX2                !
 ! D37   D(15,13,14,16)          0.0012         estimate D2E/DX2                !
 ! D38   D(15,13,14,17)       -179.9993         estimate D2E/DX2                !
 ! D39   D(23,13,14,16)       -179.9989         estimate D2E/DX2                !
 ! D40   D(23,13,14,17)          0.0006         estimate D2E/DX2                !
 ! D41   D(14,13,15,18)         -0.0014         estimate D2E/DX2                !
 ! D42   D(14,13,15,24)        179.9983         estimate D2E/DX2                !
 ! D43   D(23,13,15,18)        179.9987         estimate D2E/DX2                !
 ! D44   D(23,13,15,24)         -0.0016         estimate D2E/DX2                !
 ! D45   D(14,13,23,11)       -179.9999         estimate D2E/DX2                !
 ! D46   D(14,13,23,12)         -0.001          estimate D2E/DX2                !
 ! D47   D(15,13,23,11)          0.0            estimate D2E/DX2                !
 ! D48   D(15,13,23,12)        179.999          estimate D2E/DX2                !
 ! D49   D(13,14,16,19)         -0.0002         estimate D2E/DX2                !
 ! D50   D(13,14,16,20)        179.9997         estimate D2E/DX2                !
 ! D51   D(17,14,16,19)       -179.9998         estimate D2E/DX2                !
 ! D52   D(17,14,16,20)          0.0001         estimate D2E/DX2                !
 ! D53   D(13,15,18,19)          0.0007         estimate D2E/DX2                !
 ! D54   D(13,15,18,21)       -180.0            estimate D2E/DX2                !
 ! D55   D(24,15,18,19)       -179.999          estimate D2E/DX2                !
 ! D56   D(24,15,18,21)          0.0003         estimate D2E/DX2                !
 ! D57   D(14,16,19,18)         -0.0004         estimate D2E/DX2                !
 ! D58   D(14,16,19,22)        179.9998         estimate D2E/DX2                !
 ! D59   D(20,16,19,18)        179.9996         estimate D2E/DX2                !
 ! D60   D(20,16,19,22)         -0.0001         estimate D2E/DX2                !
 ! D61   D(15,18,19,16)          0.0002         estimate D2E/DX2                !
 ! D62   D(15,18,19,22)        179.9999         estimate D2E/DX2                !
 ! D63   D(21,18,19,16)       -179.9991         estimate D2E/DX2                !
 ! D64   D(21,18,19,22)          0.0006         estimate D2E/DX2                !
 ! Qtot  GIC-1                  20.0            Frozen                          !
 ! Ptot  GIC-2                 160.0            Frozen                          !
 --------------------------------------------------------------------------------
 NOTE: GIC-type coordinates are in arbitrary units.
 Trust Radius=3.00D-01 FncErr=5.00D-06 GrdErr=5.00D-06 EigMax=2.50D+02 EigMin=1.00D-04
 Number of steps in this run=    146 maximum allowed number of steps=    150.
 GradGradGradGradGradGradGradGradGradGradGradGradGradGradGradGradGradGrad

 Leave Link  103 at Tue Jul 14 10:25:51 2020, MaxMem=  7784628224 cpu:               0.1 elap:               0.0
 (Enter /gpfs/loomis/apps/avx/software/Gaussian/16-C.01_AVX/g16/l202.exe)
                          Input orientation:                          
 ---------------------------------------------------------------------
 Center     Atomic      Atomic             Coordinates (Angstroms)
 Number     Number       Type             X           Y           Z
 ---------------------------------------------------------------------
      1          6           0        1.548113   -3.250375   -0.000017
      2          6           0        1.002908   -1.964806   -0.000023
      3          6           0        1.793337   -0.777409   -0.000027
      4          6           0        3.195530   -0.930569   -0.000029
      5          6           0        3.739304   -2.220420   -0.000024
      6          6           0        2.937159   -3.374870   -0.000016
      7          1           0        0.894011   -4.130049   -0.000013
      8          1           0        3.847740   -0.049343   -0.000035
      9          1           0        4.828425   -2.329462   -0.000025
     10          1           0        3.399389   -4.366289   -0.000011
     11          7           0        1.026275    0.374636   -0.000030
     12         16           0       -0.701248   -1.600208   -0.000025
     13          6           0       -1.323930    1.069843    0.000011
     14          6           0       -2.680121    0.733365    0.000022
     15          6           0       -0.899343    2.478610    0.000036
     16          6           0       -3.655364    1.753595    0.000032
     17          1           0       -2.994268   -0.316114    0.000016
     18          6           0       -1.923446    3.473401    0.000040
     19          6           0       -3.279938    3.107227    0.000037
     20          1           0       -4.714788    1.479478    0.000036
     21          1           0       -1.612631    4.523748    0.000058
     22          1           0       -4.051954    3.881665    0.000041
     23          6           0       -0.306225    0.088096   -0.000022
     24          8           0        0.352597    2.724477    0.000057
     25          1           0        1.032957    1.415368    0.000012
 ---------------------------------------------------------------------
                    Distance matrix (angstroms):
                    1          2          3          4          5
     1  C    0.000000
     2  C    1.396401   0.000000
     3  C    2.485094   1.426426   0.000000
     4  C    2.845256   2.424302   1.410533   0.000000
     5  C    2.421182   2.748309   2.422616   1.399788   0.000000
     6  C    1.394614   2.393660   2.838156   2.457918   1.405770
     7  H    1.096210   2.167979   3.471165   3.941277   3.426715
     8  H    3.941432   3.429587   2.179599   1.096328   2.173783
     9  H    3.407128   3.842858   3.408904   2.150174   1.094566
    10  H    2.161594   3.392675   3.931852   3.441763   2.172624
    11  N    3.662379   2.339559   1.384049   2.531646   3.754310
    12  S    2.789745   1.742722   2.626776   3.953897   4.483655
    13  C    5.187765   3.824038   3.623492   4.942385   6.038391
    14  C    5.809315   4.565613   4.721680   6.106714   7.066389
    15  C    6.229872   4.833478   4.225185   5.328273   6.602873
    16  C    7.219134   5.960370   6.007856   7.357954   8.394874
    17  H    5.407690   4.323840   4.809777   6.220221   6.997669
    18  C    7.567092   6.175568   5.646580   6.752693   8.030338
    19  C    7.983056   6.638395   6.389720   7.631218   8.812127
    20  H    7.848276   6.674964   6.888341   8.269308   9.228267
    21  H    8.392097   6.995883   6.301023   7.271038   8.609705
    22  H    9.067896   7.728703   7.474918   8.699633   9.896421
    23  C    3.818894   2.434797   2.270960   3.646912   4.657848
    24  O    6.093284   4.734162   3.786679   4.630511   5.993479
    25  H    4.694096   3.380308   2.320872   3.190633   4.532468
                    6          7          8          9         10
     6  C    0.000000
     7  H    2.178245   0.000000
     8  H    3.447939   5.037527   0.000000
     9  H    2.160963   4.326861   2.482073   0.000000
    10  H    1.093878   2.516491   4.340166   2.488133   0.000000
    11  N    4.208358   4.506626   2.853143   4.665672   5.301702
    12  S    4.048139   2.990811   4.806087   5.577553   4.946355
    13  C    6.157301   5.653153   5.291384   7.028993   7.201477
    14  C    6.959269   6.035496   6.574618   8.109203   7.935169
    15  C    6.998712   6.847663   5.378229   7.478294   8.082805
    16  C    8.352396   7.437344   7.716681   9.415202   9.339300
    17  H    6.673665   5.446541   6.847207   8.077629   7.568537
    18  C    8.397874   8.108669   6.761384   8.902863   9.475933
    19  C    8.981641   8.354641   7.795366   9.762333  10.023315
    20  H    9.061843   7.932555   8.697941  10.275259  10.000643
    21  H    9.115304   9.009521   7.122417   9.404983  10.205543
    22  H   10.074969   9.415420   8.823718  10.836938  11.115361
    23  C    4.744647   4.385580   4.156238   5.675316   5.794231
    24  O    6.624349   6.875875   4.462074   6.750951   7.717636
    25  H    5.154839   5.547157   3.173071   5.331916   6.247204
                   11         12         13         14         15
    11  N    0.000000
    12  S    2.623803   0.000000
    13  C    2.450872   2.741697   0.000000
    14  C    3.723715   3.059657   1.397309   0.000000
    15  C    2.852141   4.083625   1.471359   2.493401   0.000000
    16  C    4.880499   4.469317   2.429630   1.411372   2.849789
    17  H    4.079448   2.628086   2.170462   1.095489   3.492734
    18  C    4.278223   5.218742   2.477198   2.842596   1.427724
    19  C    5.100051   5.367456   2.824341   2.448469   2.462192
    20  H    5.846407   5.058949   3.415512   2.167154   3.944095
    21  H    4.917210   6.191402   3.465950   3.937834   2.165957
    22  H    6.171520   6.424808   3.917711   3.434198   3.450727
    23  C    1.362961   1.733901   1.414055   2.460031   2.462996
    24  O    2.444503   4.451235   2.355538   3.627934   1.275855
    25  H    1.040753   3.478673   2.382080   3.775192   2.205509
                   16         17         18         19         20
    16  C    0.000000
    17  H    2.172728   0.000000
    18  C    2.440753   3.937904   0.000000
    19  C    1.404730   3.435240   1.405046   0.000000
    20  H    1.094312   2.486834   3.430353   2.169876   0.000000
    21  H    3.441876   5.033209   1.095370   2.187794   4.346373
    22  H    2.164709   4.328978   2.167309   1.093509   2.491957
    23  C    3.740404   2.718264   3.751759   4.237703   4.622918
    24  O    4.123878   4.521803   2.396092   3.652644   5.218085
    25  H    4.700506   4.383671   3.602196   4.632867   5.748103
                   21         22         23         24         25
    21  H    0.000000
    22  H    2.522413   0.000000
    23  C    4.624036   5.331196   0.000000
    24  O    2.664488   4.554026   2.717454   0.000000
    25  H    4.081809   5.651455   1.885487   1.475350   0.000000
 Symmetry turned off by external request.
 Stoichiometry    C13H9NOS
 Framework group  C1[X(C13H9NOS)]
 Deg. of freedom    69
 Full point group                 C1      NOp   1
 Rotational constants (GHZ):           1.4117684           0.2863503           0.2380637
 Leave Link  202 at Tue Jul 14 10:25:51 2020, MaxMem=  7784628224 cpu:               0.1 elap:               0.0
 (Enter /gpfs/loomis/apps/avx/software/Gaussian/16-C.01_AVX/g16/l301.exe)
 Standard basis: CC-pVDZ (5D, 7F)
 Ernie: Thresh=  0.10000D-02 Tol=  0.10000D-05 Strict=F.
 Ernie:  40 primitive shells out of 425 were deleted.
   273 basis functions,   629 primitive gaussians,   289 cartesian basis functions
    59 alpha electrons       59 beta electrons
       nuclear repulsion energy      1101.2915367400 Hartrees.
 IExCor= 4639 DFT=T Ex+Corr=wB97XD ExCW=0 ScaHFX=  1.000000
 ScaDFX=  1.000000  1.000000  1.000000  1.000000 ScalE2=  1.000000  1.000000
 IRadAn=      5 IRanWt=     -1 IRanGd=            0 ICorTp=0 IEmpDi=121
 HFx  wShort=  0.000000 wLong=  0.200000 cFull=  0.222036 cShort=  0.000000 cLong=  0.777964
 DFx  wShort=  0.000000 wLong=  0.200000 cFull=  0.000000 cShort=  0.000000 cLong=  1.000000
 NAtoms=   25 NActive=   25 NUniq=   25 SFac= 1.00D+00 NAtFMM=   60 NAOKFM=F Big=F
 Integral buffers will be    131072 words long.
 Raffenetti 1 integral format.
 Two-electron integral symmetry is turned off.
 R6Disp:  Grimme-D2 Dispersion energy=       -0.0138820266 Hartrees.
 Nuclear repulsion after empirical dispersion term =     1101.2776547134 Hartrees.
 ------------------------------------------------------------------------------
 Polarizable Continuum Model (PCM)
 =================================
 Model                : PCM.
 Atomic radii         : UFF (Universal Force Field).
 Polarization charges : Total charges.
 Charge compensation  : None.
 Solution method      : On-the-fly selection.
 Cavity type          : Scaled VdW (van der Waals Surface) (Alpha=1.100).
 Cavity algorithm     : GePol (No added spheres)
                        Default sphere list used, NSphG=   25.
                        Lebedev-Laikov grids with approx.  5.0 points / Ang**2.
                        Smoothing algorithm: York/Karplus (Gamma=1.0000).
                        Polarization charges: spherical gaussians, with
                                              point-specific exponents (IZeta= 3).
                        Self-potential: point-specific (ISelfS= 7).
                        Self-field    : sphere-specific E.n sum rule (ISelfD= 2).
 1st derivatives      : Analytical E(r).r(x)/FMM algorithm (CHGder, D1EAlg=3).
                        Cavity 1st derivative terms included.
 Solvent              : CarbonTetraChloride, Eps=   2.228000 Eps(inf)=   2.131892
 ------------------------------------------------------------------------------
 GePol: Number of generator spheres                  =      25
 GePol: Total number of spheres                      =      25
 GePol: Number of exposed spheres                    =      25 (100.00%)
 GePol: Number of points                             =    2196
 GePol: Average weight of points                     =       0.12
 GePol: Minimum weight of points                     =   0.23D-09
 GePol: Maximum weight of points                     =    0.20577
 GePol: Number of points with low weight             =     147
 GePol: Fraction of low-weight points (<1% of avg)   =       6.69%
 GePol: Cavity surface area                          =    271.285 Ang**2
 GePol: Cavity volume                                =    291.777 Ang**3
 Leave Link  301 at Tue Jul 14 10:25:51 2020, MaxMem=  7784628224 cpu:               0.8 elap:               0.1
 (Enter /gpfs/loomis/apps/avx/software/Gaussian/16-C.01_AVX/g16/l302.exe)
 NPDir=0 NMtPBC=     1 NCelOv=     1 NCel=       1 NClECP=     1 NCelD=      1
         NCelK=      1 NCelE2=     1 NClLst=     1 CellRange=     0.0.
 One-electron integrals computed using PRISM.
 NBasis=   273 RedAO= T EigKep=  3.18D-04  NBF=   273
 NBsUse=   273 1.00D-06 EigRej= -1.00D+00 NBFU=   273
 Precomputing XC quadrature grid using
 IXCGrd= 4 IRadAn=           5 IRanWt=          -1 IRanGd=           0 AccXCQ= 0.00D+00.
 Generated NRdTot=       0 NPtTot=           0 NUsed=           0 NTot=          32
 NSgBfM=   288   288   288   288   288 MxSgAt=    25 MxSgA2=    25.
 Leave Link  302 at Tue Jul 14 10:25:52 2020, MaxMem=  7784628224 cpu:               2.5 elap:               0.3
 (Enter /gpfs/loomis/apps/avx/software/Gaussian/16-C.01_AVX/g16/l303.exe)
 DipDrv:  MaxL=1.
 Leave Link  303 at Tue Jul 14 10:25:52 2020, MaxMem=  7784628224 cpu:               0.4 elap:               0.1
 (Enter /gpfs/loomis/apps/avx/software/Gaussian/16-C.01_AVX/g16/l308.exe)
 Leave Link  308 at Tue Jul 14 10:25:52 2020, MaxMem=  7784628224 cpu:               0.5 elap:               0.1
 (Enter /gpfs/loomis/apps/avx/software/Gaussian/16-C.01_AVX/g16/l401.exe)
 ExpMin= 1.22D-01 ExpMax= 1.11D+05 ExpMxC= 1.07D+03 IAcc=3 IRadAn=         5 AccDes= 0.00D+00
 Harris functional with IExCor= 4639 and IRadAn=       5 diagonalized for initial guess.
 HarFok:  IExCor= 4639 AccDes= 0.00D+00 IRadAn=         5 IDoV= 1 UseB2=F ITyADJ=14
 ICtDFT=  3500011 ScaDFX=  1.000000  1.000000  1.000000  1.000000
 FoFCou: FMM=F IPFlag=           0 FMFlag=      100000 FMFlg1=           0
         NFxFlg=           0 DoJE=T BraDBF=F KetDBF=T FulRan=T
         wScrn=  0.000000 ICntrl=       500 IOpCl=  0 I1Cent=   200000004 NGrid=           0
         NMat0=    1 NMatS0=      1 NMatT0=    0 NMatD0=    1 NMtDS0=    0 NMtDT0=    0
 Symmetry not used in FoFCou.
 Harris En= -994.450319015892    
 JPrj=0 DoOrth=F DoCkMO=F.
 Leave Link  401 at Tue Jul 14 10:25:53 2020, MaxMem=  7784628224 cpu:              13.4 elap:               1.4
 (Enter /gpfs/loomis/apps/avx/software/Gaussian/16-C.01_AVX/g16/l502.exe)
 Two-electron integral symmetry not used.
 Closed shell SCF:
 Using DIIS extrapolation, IDIIS=  1040.
 NGot=  7784628224 LenX=  7784455381 LenY=  7784371419
 Requested convergence on RMS density matrix=1.00D-08 within 128 cycles.
 Requested convergence on MAX density matrix=1.00D-06.
 Requested convergence on             energy=1.00D-06.
 No special actions if energy rises.
 Fock matrices will be formed incrementally for  20 cycles.

 Cycle   1  Pass 1  IDiag  1:
 FoFJK:  IHMeth= 1 ICntrl=       0 DoSepK=T KAlg= 0 I1Cent=           0 FoldK=F
 IRaf=         1 NMat=       1 IRICut=       1 DoRegI=T DoRafI=F ISym2E= 0 IDoP0=0 IntGTp=1.
 FoFCou: FMM=F IPFlag=           0 FMFlag=      100000 FMFlg1=           0
         NFxFlg=           0 DoJE=T BraDBF=F KetDBF=F FulRan=T
         wScrn=  0.000000 ICntrl=       500 IOpCl=  0 I1Cent=           0 NGrid=           0
         NMat0=    1 NMatS0=      1 NMatT0=    0 NMatD0=    1 NMtDS0=    0 NMtDT0=    0
 Symmetry not used in FoFCou.
 Inv3:  Mode=1 IEnd=    14467248.
 Iteration    1 A*A^-1 deviation from unit magnitude is 4.44D-15 for   2177.
 Iteration    1 A*A^-1 deviation from orthogonality  is 1.64D-15 for    843    474.
 Iteration    1 A^-1*A deviation from unit magnitude is 4.33D-15 for   2182.
 Iteration    1 A^-1*A deviation from orthogonality  is 1.64D-15 for    861    466.
 E= -1028.55728511063    
 DIIS: error= 3.44D-02 at cycle   1 NSaved=   1.
 NSaved= 1 IEnMin= 1 EnMin= -1028.55728511063     IErMin= 1 ErrMin= 3.44D-02
 ErrMax= 3.44D-02  0.00D+00 EMaxC= 1.00D-01 BMatC= 3.94D-01 BMatP= 3.94D-01
 IDIUse=3 WtCom= 6.56D-01 WtEn= 3.44D-01
 Coeff-Com:  0.100D+01
 Coeff-En:   0.100D+01
 Coeff:      0.100D+01
 Gap=     0.320 Goal=   None    Shift=    0.000
 GapD=    0.320 DampG=1.000 DampE=0.500 DampFc=0.5000 IDamp=-1.
 Damping current iteration by 5.00D-01
 RMSDP=3.57D-03 MaxDP=2.31D-01              OVMax= 1.86D-01

 Cycle   2  Pass 1  IDiag  1:
 RMSU=  1.78D-03    CP:  9.94D-01
 E= -1028.67562008684     Delta-E=       -0.118334976216 Rises=F Damp=T
 DIIS: error= 1.23D-02 at cycle   2 NSaved=   2.
 NSaved= 2 IEnMin= 2 EnMin= -1028.67562008684     IErMin= 2 ErrMin= 1.23D-02
 ErrMax= 1.23D-02  0.00D+00 EMaxC= 1.00D-01 BMatC= 5.87D-02 BMatP= 3.94D-01
 IDIUse=3 WtCom= 8.77D-01 WtEn= 1.23D-01
 Coeff-Com: -0.279D+00 0.128D+01
 Coeff-En:   0.000D+00 0.100D+01
 Coeff:     -0.245D+00 0.124D+01
 Gap=     0.290 Goal=   None    Shift=    0.000
 RMSDP=1.15D-03 MaxDP=2.55D-02 DE=-1.18D-01 OVMax= 1.31D-01

 Cycle   3  Pass 1  IDiag  1:
 RMSU=  1.11D-03    CP:  9.93D-01  1.17D+00
 E= -1028.78178652812     Delta-E=       -0.106166441277 Rises=F Damp=F
 DIIS: error= 6.87D-03 at cycle   3 NSaved=   3.
 NSaved= 3 IEnMin= 3 EnMin= -1028.78178652812     IErMin= 3 ErrMin= 6.87D-03
 ErrMax= 6.87D-03  0.00D+00 EMaxC= 1.00D-01 BMatC= 1.62D-02 BMatP= 5.87D-02
 IDIUse=3 WtCom= 9.31D-01 WtEn= 6.87D-02
 Coeff-Com: -0.206D+00 0.506D+00 0.701D+00
 Coeff-En:   0.000D+00 0.000D+00 0.100D+01
 Coeff:     -0.192D+00 0.471D+00 0.721D+00
 Gap=     0.245 Goal=   None    Shift=    0.000
 RMSDP=5.66D-04 MaxDP=2.40D-02 DE=-1.06D-01 OVMax= 4.20D-02

 Cycle   4  Pass 1  IDiag  1:
 RMSU=  4.48D-04    CP:  9.91D-01  1.33D+00  8.21D-01
 E= -1028.79711740653     Delta-E=       -0.015330878409 Rises=F Damp=F
 DIIS: error= 2.06D-03 at cycle   4 NSaved=   4.
 NSaved= 4 IEnMin= 4 EnMin= -1028.79711740653     IErMin= 4 ErrMin= 2.06D-03
 ErrMax= 2.06D-03  0.00D+00 EMaxC= 1.00D-01 BMatC= 2.05D-03 BMatP= 1.62D-02
 IDIUse=3 WtCom= 9.79D-01 WtEn= 2.06D-02
 Coeff-Com: -0.720D-01 0.143D+00 0.345D+00 0.584D+00
 Coeff-En:   0.000D+00 0.000D+00 0.000D+00 0.100D+01
 Coeff:     -0.705D-01 0.140D+00 0.338D+00 0.593D+00
 Gap=     0.245 Goal=   None    Shift=    0.000
 RMSDP=1.82D-04 MaxDP=1.06D-02 DE=-1.53D-02 OVMax= 1.36D-02

 Cycle   5  Pass 1  IDiag  1:
 RMSU=  1.10D-04    CP:  9.91D-01  1.34D+00  9.01D-01  7.50D-01
 E= -1028.79929894387     Delta-E=       -0.002181537345 Rises=F Damp=F
 DIIS: error= 4.63D-04 at cycle   5 NSaved=   5.
 NSaved= 5 IEnMin= 5 EnMin= -1028.79929894387     IErMin= 5 ErrMin= 4.63D-04
 ErrMax= 4.63D-04  0.00D+00 EMaxC= 1.00D-01 BMatC= 5.69D-05 BMatP= 2.05D-03
 IDIUse=3 WtCom= 9.95D-01 WtEn= 4.63D-03
 Coeff-Com: -0.138D-02-0.355D-02 0.324D-01 0.154D+00 0.818D+00
 Coeff-En:   0.000D+00 0.000D+00 0.000D+00 0.000D+00 0.100D+01
 Coeff:     -0.137D-02-0.354D-02 0.322D-01 0.153D+00 0.819D+00
 Gap=     0.246 Goal=   None    Shift=    0.000
 RMSDP=5.52D-05 MaxDP=1.79D-03 DE=-2.18D-03 OVMax= 5.28D-03

 Cycle   6  Pass 1  IDiag  1:
 RMSU=  3.53D-05    CP:  9.91D-01  1.34D+00  9.18D-01  8.30D-01  1.10D+00
 E= -1028.79942604985     Delta-E=       -0.000127105975 Rises=F Damp=F
 DIIS: error= 2.55D-04 at cycle   6 NSaved=   6.
 NSaved= 6 IEnMin= 6 EnMin= -1028.79942604985     IErMin= 6 ErrMin= 2.55D-04
 ErrMax= 2.55D-04  0.00D+00 EMaxC= 1.00D-01 BMatC= 1.06D-05 BMatP= 5.69D-05
 IDIUse=3 WtCom= 9.97D-01 WtEn= 2.55D-03
 Coeff-Com:  0.161D-01-0.331D-01-0.618D-01-0.731D-01 0.208D+00 0.944D+00
 Coeff-En:   0.000D+00 0.000D+00 0.000D+00 0.000D+00 0.000D+00 0.100D+01
 Coeff:      0.161D-01-0.330D-01-0.616D-01-0.730D-01 0.207D+00 0.944D+00
 Gap=     0.246 Goal=   None    Shift=    0.000
 RMSDP=3.48D-05 MaxDP=1.67D-03 DE=-1.27D-04 OVMax= 4.44D-03

 Cycle   7  Pass 1  IDiag  1:
 RMSU=  1.69D-05    CP:  9.91D-01  1.34D+00  9.28D-01  8.63D-01  1.29D+00
                    CP:  1.34D+00
 E= -1028.79946104537     Delta-E=       -0.000034995519 Rises=F Damp=F
 DIIS: error= 1.18D-04 at cycle   7 NSaved=   7.
 NSaved= 7 IEnMin= 7 EnMin= -1028.79946104537     IErMin= 7 ErrMin= 1.18D-04
 ErrMax= 1.18D-04  0.00D+00 EMaxC= 1.00D-01 BMatC= 2.26D-06 BMatP= 1.06D-05
 IDIUse=3 WtCom= 9.99D-01 WtEn= 1.18D-03
 Coeff-Com:  0.646D-02-0.123D-01-0.269D-01-0.479D-01-0.209D-01 0.388D+00
 Coeff-Com:  0.714D+00
 Coeff-En:   0.000D+00 0.000D+00 0.000D+00 0.000D+00 0.000D+00 0.000D+00
 Coeff-En:   0.100D+01
 Coeff:      0.645D-02-0.123D-01-0.268D-01-0.478D-01-0.209D-01 0.387D+00
 Coeff:      0.714D+00
 Gap=     0.247 Goal=   None    Shift=    0.000
 RMSDP=1.19D-05 MaxDP=5.08D-04 DE=-3.50D-05 OVMax= 1.38D-03

 Cycle   8  Pass 1  IDiag  1:
 RMSU=  7.25D-06    CP:  9.91D-01  1.34D+00  9.30D-01  8.68D-01  1.32D+00
                    CP:  1.54D+00  1.17D+00
 E= -1028.79946677627     Delta-E=       -0.000005730907 Rises=F Damp=F
 DIIS: error= 6.21D-05 at cycle   8 NSaved=   8.
 NSaved= 8 IEnMin= 8 EnMin= -1028.79946677627     IErMin= 8 ErrMin= 6.21D-05
 ErrMax= 6.21D-05  0.00D+00 EMaxC= 1.00D-01 BMatC= 3.37D-07 BMatP= 2.26D-06
 IDIUse=1 WtCom= 1.00D+00 WtEn= 0.00D+00
 Coeff-Com: -0.166D-02 0.357D-02 0.699D-02 0.399D-02-0.439D-01-0.109D+00
 Coeff-Com:  0.170D+00 0.970D+00
 Coeff:     -0.166D-02 0.357D-02 0.699D-02 0.399D-02-0.439D-01-0.109D+00
 Coeff:      0.170D+00 0.970D+00
 Gap=     0.247 Goal=   None    Shift=    0.000
 RMSDP=7.51D-06 MaxDP=2.06D-04 DE=-5.73D-06 OVMax= 1.29D-03

 Cycle   9  Pass 1  IDiag  1:
 RMSU=  2.85D-06    CP:  9.91D-01  1.34D+00  9.30D-01  8.68D-01  1.34D+00
                    CP:  1.66D+00  1.45D+00  1.25D+00
 E= -1028.79946843089     Delta-E=       -0.000001654620 Rises=F Damp=F
 DIIS: error= 2.12D-05 at cycle   9 NSaved=   9.
 NSaved= 9 IEnMin= 9 EnMin= -1028.79946843089     IErMin= 9 ErrMin= 2.12D-05
 ErrMax= 2.12D-05  0.00D+00 EMaxC= 1.00D-01 BMatC= 6.95D-08 BMatP= 3.37D-07
 IDIUse=1 WtCom= 1.00D+00 WtEn= 0.00D+00
 Coeff-Com: -0.117D-02 0.227D-02 0.532D-02 0.742D-02-0.778D-02-0.828D-01
 Coeff-Com: -0.858D-01 0.241D+00 0.922D+00
 Coeff:     -0.117D-02 0.227D-02 0.532D-02 0.742D-02-0.778D-02-0.828D-01
 Coeff:     -0.858D-01 0.241D+00 0.922D+00
 Gap=     0.247 Goal=   None    Shift=    0.000
 RMSDP=3.69D-06 MaxDP=9.36D-05 DE=-1.65D-06 OVMax= 5.91D-04

 Cycle  10  Pass 1  IDiag  1:
 RMSU=  1.34D-06    CP:  9.91D-01  1.34D+00  9.30D-01  8.69D-01  1.35D+00
                    CP:  1.71D+00  1.56D+00  1.51D+00  1.34D+00
 E= -1028.79946877013     Delta-E=       -0.000000339239 Rises=F Damp=F
 DIIS: error= 1.04D-05 at cycle  10 NSaved=  10.
 NSaved=10 IEnMin=10 EnMin= -1028.79946877013     IErMin=10 ErrMin= 1.04D-05
 ErrMax= 1.04D-05  0.00D+00 EMaxC= 1.00D-01 BMatC= 1.65D-08 BMatP= 6.95D-08
 IDIUse=1 WtCom= 1.00D+00 WtEn= 0.00D+00
 Coeff-Com:  0.942D-04-0.255D-03-0.861D-05 0.120D-02 0.759D-02-0.203D-02
 Coeff-Com: -0.749D-01-0.116D+00 0.341D+00 0.844D+00
 Coeff:      0.942D-04-0.255D-03-0.861D-05 0.120D-02 0.759D-02-0.203D-02
 Coeff:     -0.749D-01-0.116D+00 0.341D+00 0.844D+00
 Gap=     0.247 Goal=   None    Shift=    0.000
 RMSDP=1.62D-06 MaxDP=4.41D-05 DE=-3.39D-07 OVMax= 2.98D-04

 Cycle  11  Pass 1  IDiag  1:
 RMSU=  5.33D-07    CP:  9.91D-01  1.34D+00  9.30D-01  8.69D-01  1.35D+00
                    CP:  1.73D+00  1.60D+00  1.61D+00  1.66D+00  1.16D+00
 E= -1028.79946884026     Delta-E=       -0.000000070133 Rises=F Damp=F
 DIIS: error= 2.98D-06 at cycle  11 NSaved=  11.
 NSaved=11 IEnMin=11 EnMin= -1028.79946884026     IErMin=11 ErrMin= 2.98D-06
 ErrMax= 2.98D-06  0.00D+00 EMaxC= 1.00D-01 BMatC= 3.42D-09 BMatP= 1.65D-08
 IDIUse=1 WtCom= 1.00D+00 WtEn= 0.00D+00
 Coeff-Com:  0.281D-03-0.577D-03-0.104D-02-0.109D-02 0.471D-02 0.160D-01
 Coeff-Com: -0.136D-01-0.861D-01-0.661D-01 0.282D+00 0.866D+00
 Coeff:      0.281D-03-0.577D-03-0.104D-02-0.109D-02 0.471D-02 0.160D-01
 Coeff:     -0.136D-01-0.861D-01-0.661D-01 0.282D+00 0.866D+00
 Gap=     0.247 Goal=   None    Shift=    0.000
 RMSDP=7.48D-07 MaxDP=1.98D-05 DE=-7.01D-08 OVMax= 1.19D-04

 Cycle  12  Pass 1  IDiag  1:
 RMSU=  2.40D-07    CP:  9.91D-01  1.34D+00  9.30D-01  8.69D-01  1.35D+00
                    CP:  1.74D+00  1.61D+00  1.65D+00  1.80D+00  1.43D+00
                    CP:  1.15D+00
 E= -1028.79946885222     Delta-E=       -0.000000011957 Rises=F Damp=F
 DIIS: error= 1.66D-06 at cycle  12 NSaved=  12.
 NSaved=12 IEnMin=12 EnMin= -1028.79946885222     IErMin=12 ErrMin= 1.66D-06
 ErrMax= 1.66D-06  0.00D+00 EMaxC= 1.00D-01 BMatC= 6.29D-10 BMatP= 3.42D-09
 IDIUse=1 WtCom= 1.00D+00 WtEn= 0.00D+00
 Coeff-Com:  0.121D-03-0.235D-03-0.497D-03-0.829D-03 0.877D-03 0.817D-02
 Coeff-Com:  0.698D-02-0.142D-01-0.930D-01-0.314D-01 0.364D+00 0.760D+00
 Coeff:      0.121D-03-0.235D-03-0.497D-03-0.829D-03 0.877D-03 0.817D-02
 Coeff:      0.698D-02-0.142D-01-0.930D-01-0.314D-01 0.364D+00 0.760D+00
 Gap=     0.247 Goal=   None    Shift=    0.000
 RMSDP=2.41D-07 MaxDP=9.21D-06 DE=-1.20D-08 OVMax= 4.02D-05

 Cycle  13  Pass 1  IDiag  1:
 RMSU=  9.45D-08    CP:  9.91D-01  1.34D+00  9.30D-01  8.69D-01  1.35D+00
                    CP:  1.74D+00  1.61D+00  1.66D+00  1.85D+00  1.50D+00
                    CP:  1.35D+00  9.62D-01
 E= -1028.79946885389     Delta-E=       -0.000000001672 Rises=F Damp=F
 DIIS: error= 4.93D-07 at cycle  13 NSaved=  13.
 NSaved=13 IEnMin=13 EnMin= -1028.79946885389     IErMin=13 ErrMin= 4.93D-07
 ErrMax= 4.93D-07  0.00D+00 EMaxC= 1.00D-01 BMatC= 9.74D-11 BMatP= 6.29D-10
 IDIUse=1 WtCom= 1.00D+00 WtEn= 0.00D+00
 Coeff-Com: -0.449D-05 0.126D-04 0.943D-06-0.112D-03-0.330D-03 0.616D-03
 Coeff-Com:  0.360D-02 0.740D-02-0.236D-01-0.509D-01-0.271D-01 0.274D+00
 Coeff-Com:  0.816D+00
 Coeff:     -0.449D-05 0.126D-04 0.943D-06-0.112D-03-0.330D-03 0.616D-03
 Coeff:      0.360D-02 0.740D-02-0.236D-01-0.509D-01-0.271D-01 0.274D+00
 Coeff:      0.816D+00
 Gap=     0.247 Goal=   None    Shift=    0.000
 RMSDP=1.02D-07 MaxDP=2.69D-06 DE=-1.67D-09 OVMax= 1.32D-05

 Cycle  14  Pass 1  IDiag  1:
 RMSU=  3.69D-08    CP:  9.91D-01  1.34D+00  9.30D-01  8.69D-01  1.35D+00
                    CP:  1.74D+00  1.62D+00  1.66D+00  1.87D+00  1.54D+00
                    CP:  1.42D+00  1.13D+00  1.04D+00
 E= -1028.79946885408     Delta-E=       -0.000000000183 Rises=F Damp=F
 DIIS: error= 2.08D-07 at cycle  14 NSaved=  14.
 NSaved=14 IEnMin=14 EnMin= -1028.79946885408     IErMin=14 ErrMin= 2.08D-07
 ErrMax= 2.08D-07  0.00D+00 EMaxC= 1.00D-01 BMatC= 1.27D-11 BMatP= 9.74D-11
 IDIUse=1 WtCom= 1.00D+00 WtEn= 0.00D+00
 Coeff-Com: -0.139D-04 0.286D-04 0.520D-04 0.386D-04-0.217D-03-0.554D-03
 Coeff-Com:  0.634D-03 0.518D-02 0.955D-03-0.153D-01-0.540D-01 0.368D-01
 Coeff-Com:  0.349D+00 0.678D+00
 Coeff:     -0.139D-04 0.286D-04 0.520D-04 0.386D-04-0.217D-03-0.554D-03
 Coeff:      0.634D-03 0.518D-02 0.955D-03-0.153D-01-0.540D-01 0.368D-01
 Coeff:      0.349D+00 0.678D+00
 Gap=     0.247 Goal=   None    Shift=    0.000
 RMSDP=2.16D-08 MaxDP=5.47D-07 DE=-1.83D-10 OVMax= 2.29D-06

 Cycle  15  Pass 1  IDiag  1:
 RMSU=  1.46D-08    CP:  9.91D-01  1.34D+00  9.30D-01  8.69D-01  1.35D+00
                    CP:  1.74D+00  1.62D+00  1.66D+00  1.87D+00  1.54D+00
                    CP:  1.42D+00  1.16D+00  1.16D+00  9.65D-01
 E= -1028.79946885410     Delta-E=       -0.000000000024 Rises=F Damp=F
 DIIS: error= 7.50D-08 at cycle  15 NSaved=  15.
 NSaved=15 IEnMin=15 EnMin= -1028.79946885410     IErMin=15 ErrMin= 7.50D-08
 ErrMax= 7.50D-08  0.00D+00 EMaxC= 1.00D-01 BMatC= 1.47D-12 BMatP= 1.27D-11
 IDIUse=1 WtCom= 1.00D+00 WtEn= 0.00D+00
 Coeff-Com: -0.412D-05 0.769D-05 0.193D-04 0.398D-04-0.172D-04-0.356D-03
 Coeff-Com: -0.698D-03 0.108D-03 0.513D-02 0.703D-02-0.126D-01-0.482D-01
 Coeff-Com: -0.579D-01 0.197D+00 0.911D+00
 Coeff:     -0.412D-05 0.769D-05 0.193D-04 0.398D-04-0.172D-04-0.356D-03
 Coeff:     -0.698D-03 0.108D-03 0.513D-02 0.703D-02-0.126D-01-0.482D-01
 Coeff:     -0.579D-01 0.197D+00 0.911D+00
 Gap=     0.247 Goal=   None    Shift=    0.000
 RMSDP=1.18D-08 MaxDP=2.44D-07 DE=-2.41D-11 OVMax= 1.42D-06

 Cycle  16  Pass 1  IDiag  1:
 RMSU=  5.20D-09    CP:  9.91D-01  1.34D+00  9.30D-01  8.69D-01  1.35D+00
                    CP:  1.74D+00  1.62D+00  1.66D+00  1.87D+00  1.54D+00
                    CP:  1.43D+00  1.18D+00  1.22D+00  1.14D+00  1.14D+00
 E= -1028.79946885411     Delta-E=       -0.000000000011 Rises=F Damp=F
 DIIS: error= 2.69D-08 at cycle  16 NSaved=  16.
 NSaved=16 IEnMin=16 EnMin= -1028.79946885411     IErMin=16 ErrMin= 2.69D-08
 ErrMax= 2.69D-08  0.00D+00 EMaxC= 1.00D-01 BMatC= 1.57D-13 BMatP= 1.47D-12
 IDIUse=1 WtCom= 1.00D+00 WtEn= 0.00D+00
 Coeff-Com:  0.627D-08-0.205D-06 0.956D-06 0.780D-05 0.100D-04-0.555D-04
 Coeff-Com: -0.245D-03-0.364D-03 0.112D-02 0.312D-02 0.762D-03-0.175D-01
 Coeff-Com: -0.447D-01-0.221D-01 0.233D+00 0.847D+00
 Coeff:      0.627D-08-0.205D-06 0.956D-06 0.780D-05 0.100D-04-0.555D-04
 Coeff:     -0.245D-03-0.364D-03 0.112D-02 0.312D-02 0.762D-03-0.175D-01
 Coeff:     -0.447D-01-0.221D-01 0.233D+00 0.847D+00
 Gap=     0.247 Goal=   None    Shift=    0.000
 RMSDP=4.12D-09 MaxDP=1.14D-07 DE=-1.09D-11 OVMax= 5.12D-07

 Error on total polarization charges =  0.00845
 SCF Done:  E(RwB97XD) =  -1028.79946885     A.U. after   16 cycles
            NFock= 16  Conv=0.41D-08     -V/T= 2.0050
 KE= 1.023709998357D+03 PE=-4.614463760354D+03 EE= 1.460676638430D+03
 Leave Link  502 at Tue Jul 14 10:27:21 2020, MaxMem=  7784628224 cpu:             866.2 elap:              87.3
 (Enter /gpfs/loomis/apps/avx/software/Gaussian/16-C.01_AVX/g16/l801.exe)
 DoSCS=F DFT=T ScalE2(SS,OS)=  1.000000  1.000000
 ExpMin= 1.22D-01 ExpMax= 1.11D+05 ExpMxC= 1.07D+03 IAcc=3 IRadAn=         5 AccDes= 0.00D+00
 HarFok:  IExCor=  205 AccDes= 0.00D+00 IRadAn=         5 IDoV=-2 UseB2=F ITyADJ=14
 ICtDFT= 12500011 ScaDFX=  1.000000  1.000000  1.000000  1.000000
 Largest valence mixing into a core orbital is  9.42D-05
 Largest core mixing into a valence orbital is  3.18D-05
 Range of M.O.s used for correlation:    21   273
 NBasis=   273 NAE=    59 NBE=    59 NFC=    20 NFV=     0
 NROrb=    253 NOA=    39 NOB=    39 NVA=   214 NVB=   214

 **** Warning!!: The largest alpha MO coefficient is  0.11134714D+02

 Leave Link  801 at Tue Jul 14 10:27:21 2020, MaxMem=  7784628224 cpu:               0.9 elap:               0.1
 (Enter /gpfs/loomis/apps/avx/software/Gaussian/16-C.01_AVX/g16/l914.exe)
 RHF ground state
 Keep R1, R2, and R3 ints in memory in canonical form, NReq=4262515490.
 FoFCou: FMM=F IPFlag=           0 FMFlag=           0 FMFlg1=           0
         NFxFlg=           0 DoJE=F BraDBF=F KetDBF=F FulRan=T
         wScrn=  0.000000 ICntrl=       600 IOpCl=  0 I1Cent=           0 NGrid=           0
         NMat0=    1 NMatS0=  37401 NMatT0=    0 NMatD0=    1 NMtDS0=    0 NMtDT0=    0
 Symmetry not used in FoFCou.
 Two-electron integral symmetry not used.
 MDV=  7784628224 DFT=T DoStab=F Mixed=T DoRPA=T DoScal=F NonHer=T
 NEqPCM:  Using equilibrium solvation (IEInf=0, Eps=   2.2280, EpsInf=   2.1319)
 Making orbital integer symmetry assigments:
    12 initial guesses have been made.
 Convergence on wavefunction:    0.000001000000000
 Davidson Disk Diagonalization:  ConvIn= 1.00D-06 SkipCon=T Conv= 1.00D-06.
 Max sub-space:  2000 roots to seek:    12 dimension of matrix:        16692
 Iteration     1 Dimension    12 NMult     0 NNew     12
 CISAX will form    12 AO SS matrices at one time.
 NMat=    12 NSing=    12 JSym2X= 0.
 New state      2 was old state      4
 New state      3 was old state      2
 Excitation Energies [eV] at current iteration:
 Root      1 :     3.567380941580621
 Root      2 :     4.195773464059843
 Root      3 :     4.898245490338363
 Root      4 :     5.287957417122336
 Root      5 :     5.579007461137035
 Root      6 :     5.805599951845407
 Root      7 :     6.085045574114357
 Root      8 :     6.475721540560819
 Root      9 :     6.832853671826196
 Root     10 :     6.970986890722722
 Root     11 :     7.167587683567453
 Root     12 :     7.584889863342109
 Iteration     2 Dimension    18 NMult    12 NNew      6
 CISAX will form     6 AO SS matrices at one time.
 NMat=     6 NSing=     6 JSym2X= 0.
 Root      1 not converged, maximum delta is    0.045674828979039
 Root      2 not converged, maximum delta is    0.104154859709812
 Root      3 not converged, maximum delta is    0.058574303540926
 Excitation Energies [eV] at current iteration:
 Root      1 :     3.058517511156250   Change is   -0.508863430424370
 Root      2 :     3.991289676948350   Change is   -0.204483787111492
 Root      3 :     4.349615227692535   Change is   -0.548630262645827
 Iteration     3 Dimension    24 NMult    18 NNew      6
 CISAX will form     6 AO SS matrices at one time.
 NMat=     6 NSing=     6 JSym2X= 0.
 Root      1 not converged, maximum delta is    0.016884635971439
 Root      2 not converged, maximum delta is    0.032016672009872
 Root      3 not converged, maximum delta is    0.016070580608776
 Excitation Energies [eV] at current iteration:
 Root      1 :     3.027786412496794   Change is   -0.030731098659456
 Root      2 :     3.971638431290143   Change is   -0.019651245658207
 Root      3 :     4.320769142191846   Change is   -0.028846085500689
 Iteration     4 Dimension    30 NMult    24 NNew      6
 CISAX will form     6 AO SS matrices at one time.
 NMat=     6 NSing=     6 JSym2X= 0.
 Root      1 not converged, maximum delta is    0.008363444049201
 Root      2 not converged, maximum delta is    0.010931588649716
 Root      3 not converged, maximum delta is    0.018935691513704
 Excitation Energies [eV] at current iteration:
 Root      1 :     3.022397079257731   Change is   -0.005389333239063
 Root      2 :     3.969719243191339   Change is   -0.001919188098805
 Root      3 :     4.313461981358127   Change is   -0.007307160833719
 Iteration     5 Dimension    36 NMult    30 NNew      6
 CISAX will form     6 AO SS matrices at one time.
 NMat=     6 NSing=     6 JSym2X= 0.
 Root      1 not converged, maximum delta is    0.002317219668157
 Root      2 not converged, maximum delta is    0.001822356127764
 Root      3 not converged, maximum delta is    0.008915540148366
 Excitation Energies [eV] at current iteration:
 Root      1 :     3.021838711911678   Change is   -0.000558367346053
 Root      2 :     3.969572091212485   Change is   -0.000147151978854
 Root      3 :     4.312070949546549   Change is   -0.001391031811578
 Iteration     6 Dimension    42 NMult    36 NNew      6
 CISAX will form     6 AO SS matrices at one time.
 NMat=     6 NSing=     6 JSym2X= 0.
 Root      1 not converged, maximum delta is    0.000505633135107
 Root      2 not converged, maximum delta is    0.000302129539885
 Root      3 not converged, maximum delta is    0.003047916386555
 Excitation Energies [eV] at current iteration:
 Root      1 :     3.021786225866409   Change is   -0.000052486045268
 Root      2 :     3.969564128517535   Change is   -0.000007962694950
 Root      3 :     4.311843322659236   Change is   -0.000227626887313
 Iteration     7 Dimension    48 NMult    42 NNew      6
 CISAX will form     6 AO SS matrices at one time.
 NMat=     6 NSing=     6 JSym2X= 0.
 Root      1 not converged, maximum delta is    0.000116730025194
 Root      2 not converged, maximum delta is    0.000128448404432
 Root      3 not converged, maximum delta is    0.000547039349593
 Excitation Energies [eV] at current iteration:
 Root      1 :     3.021783267812915   Change is   -0.000002958053494
 Root      2 :     3.969563459052610   Change is   -0.000000669464925
 Root      3 :     4.311818443829174   Change is   -0.000024878830062
 Iteration     8 Dimension    54 NMult    48 NNew      6
 CISAX will form     6 AO SS matrices at one time.
 NMat=     6 NSing=     6 JSym2X= 0.
 Root      1 not converged, maximum delta is    0.000030098861444
 Root      2 not converged, maximum delta is    0.000022476580274
 Root      3 not converged, maximum delta is    0.000121725486988
 Excitation Energies [eV] at current iteration:
 Root      1 :     3.021783058934228   Change is   -0.000000208878687
 Root      2 :     3.969563416323692   Change is   -0.000000042728918
 Root      3 :     4.311816262362951   Change is   -0.000002181466223
 Iteration     9 Dimension    60 NMult    54 NNew      6
 CISAX will form     6 AO SS matrices at one time.
 NMat=     6 NSing=     6 JSym2X= 0.
 Root      1 not converged, maximum delta is    0.000012398814632
 Root      2 not converged, maximum delta is    0.000003833760574
 Root      3 not converged, maximum delta is    0.000047340592551
 Excitation Energies [eV] at current iteration:
 Root      1 :     3.021783042629256   Change is   -0.000000016304972
 Root      2 :     3.969563414223070   Change is   -0.000000002100623
 Root      3 :     4.311816043474296   Change is   -0.000000218888654
 Iteration    10 Dimension    66 NMult    60 NNew      6
 CISAX will form     6 AO SS matrices at one time.
 NMat=     6 NSing=     6 JSym2X= 0.
 Root      1 not converged, maximum delta is    0.000002882729606
 Root      2 not converged, maximum delta is    0.000002102773427
 Root      3 not converged, maximum delta is    0.000020148620140
 Excitation Energies [eV] at current iteration:
 Root      1 :     3.021783041026067   Change is   -0.000000001603189
 Root      2 :     3.969563414064331   Change is   -0.000000000158738
 Root      3 :     4.311816022864992   Change is   -0.000000020609305
 Iteration    11 Dimension    72 NMult    66 NNew      6
 CISAX will form     6 AO SS matrices at one time.
 NMat=     6 NSing=     6 JSym2X= 0.
 Root      1 has converged.
 Root      2 has converged.
 Root      3 not converged, maximum delta is    0.000010783752744
 Excitation Energies [eV] at current iteration:
 Root      1 :     3.021783040946656   Change is   -0.000000000079411
 Root      2 :     3.969563414041758   Change is   -0.000000000022573
 Root      3 :     4.311816020118529   Change is   -0.000000002746462
 Iteration    12 Dimension    74 NMult    72 NNew      2
 CISAX will form     2 AO SS matrices at one time.
 NMat=     2 NSing=     2 JSym2X= 0.
 Root      1 has converged.
 Root      2 has converged.
 Root      3 not converged, maximum delta is    0.000002258508199
 Excitation Energies [eV] at current iteration:
 Root      1 :     3.021783040946002   Change is   -0.000000000000653
 Root      2 :     3.969563414041737   Change is   -0.000000000000021
 Root      3 :     4.311816019887492   Change is   -0.000000000231037
 Iteration    13 Dimension    76 NMult    74 NNew      2
 CISAX will form     2 AO SS matrices at one time.
 NMat=     2 NSing=     2 JSym2X= 0.
 Root      1 has converged.
 Root      2 has converged.
 Root      3 has converged.
 Excitation Energies [eV] at current iteration:
 Root      1 :     3.021783040945975   Change is   -0.000000000000027
 Root      2 :     3.969563414041779   Change is    0.000000000000042
 Root      3 :     4.311816019870792   Change is   -0.000000000016701
 Convergence achieved on expansion vectors.
 ***********************************************************************
 Excited states from <AA,BB:AA,BB> singles matrix:
 ***********************************************************************
 
 1PDM for each excited state written to RWF  633
 Ground to excited state transition densities written to RWF  633
 Ground to excited state transition electric dipole moments (Au):
       state          X           Y           Z        Dip. S.      Osc.
         1         1.2019     -2.1440     -0.0000      6.0413      0.4473
         2         0.0000      0.0000      0.0039      0.0000      0.0000
         3        -1.5257      0.8880      0.0000      3.1163      0.3292
 Ground to excited state transition velocity dipole moments (Au):
       state          X           Y           Z        Dip. S.      Osc.
         1        -0.1296      0.2417      0.0000      0.0752      0.4515
         2        -0.0000     -0.0000      0.0005      0.0000      0.0000
         3         0.2372     -0.1319     -0.0000      0.0737      0.3099
 Ground to excited state transition magnetic dipole moments (Au):
       state          X           Y           Z
         1         0.0000      0.0000     -0.9880
         2         0.2552      0.0272      0.0000
         3        -0.0000      0.0000     -1.2665
 Ground to excited state transition velocity quadrupole moments (Au):
       state          XX          YY          ZZ          XY          XZ          YZ
         1         0.0599      0.6081     -0.0144     -0.2806     -0.0000      0.0000
         2         0.0000     -0.0000      0.0000      0.0000     -0.0125      0.0108
         3        -0.5021      0.6411      0.0042      0.0404      0.0000      0.0000
 <0|del|b> * <b|rxdel|0> + <0|del|b> * <b|delr+rdel|0>
 Rotatory Strengths (R) in cgs (10**-40 erg-esu-cm/Gauss)
       state          XX          YY          ZZ    R(velocity)    E-M Angle
         1         0.0035     -0.0161      0.0156      0.0010       90.00
         2        -0.0002     -0.0030     -0.0029     -0.0020       90.00
         3         0.0066      0.0077     -0.0047      0.0032       90.00
 1/2[<0|r|b>*<b|rxdel|0> + (<0|rxdel|b>*<b|r|0>)*]
 Rotatory Strengths (R) in cgs (10**-40 erg-esu-cm/Gauss)
       state          XX          YY          ZZ     R(length)
         1        -0.0059      0.0318     -0.0237      0.0007
         2        -0.0056     -0.0003     -0.0001     -0.0020
         3        -0.0011     -0.0011      0.0125      0.0034
  1/2[<0|del|b>*<b|r|0> + (<0|r|b>*<b|del|0>)*] (Au)
       state          X           Y           Z        Dip. S.   Osc.(frdel)
         1        -0.1557     -0.5182     -0.0000      0.6739      0.4493
         2        -0.0000     -0.0000      0.0000     -0.0000     -0.0000
         3        -0.3619     -0.1171     -0.0000      0.4790      0.3193

 Excitation energies and oscillator strengths:
 
 Excited state symmetry could not be determined.
 Excited State   1:      Singlet-?Sym    3.0218 eV  410.30 nm  f=0.4473  <S**2>=0.000
      59 -> 60         0.69591
 This state for optimization and/or second-order correction.
 Total Energy, E(TD-HF/TD-DFT) =  -1028.68842037    
 Copying the excited state density for this state as the 1-particle RhoCI density.
 
 Excited state symmetry could not be determined.
 Excited State   2:      Singlet-?Sym    3.9696 eV  312.34 nm  f=0.0000  <S**2>=0.000
      57 -> 60         0.68518
      57 -> 62         0.11195
      57 -> 64         0.11678
 
 Excited state symmetry could not be determined.
 Excited State   3:      Singlet-?Sym    4.3118 eV  287.55 nm  f=0.3292  <S**2>=0.000
      58 -> 60         0.68057
 SavETr:  write IOETrn=   770 NScale= 10 NData=  16 NLR=1 NState=    3 LETran=      64.
 The selected state is a singlet.
 CISGrd: IGrad=2 NXY=2 DFT=T
 CISAX will form     1 AO SS matrices at one time.
 NMat=     1 NSing=     1 JSym2X= 0.
 GePol: Maximum number of non-zero 1st derivatives   =     250
 Leave Link  914 at Tue Jul 14 10:30:25 2020, MaxMem=  7784628224 cpu:            1810.8 elap:             183.9
 (Enter /gpfs/loomis/apps/avx/software/Gaussian/16-C.01_AVX/g16/l1002.exe)
 Minotr:  Closed shell wavefunction.
          Computing CIS/TDA/TD derivatives.
          Using Z-Vector for PSCF gradient.
          Skipping F1 and S1 gradient terms here.
          IDoAtm=1111111111111111111111111
 NEqPCM:  Using equilibrium solvation (IEInf=0, Eps=   2.2280, EpsInf=   2.1319)
          Frozen-core window.
          Direct CPHF calculation.
          Differentiating once with respect to electric field.
                with respect to dipole field.
          Differentiating once with respect to nuclear coordinates.
          Requested convergence is 1.0D-10 RMS, and 1.0D-09 maximum.
          NewPWx=F KeepS1=T KeepF1=T KeepIn=T MapXYZ=F SortEE=F KeepMc=T.
 Keep R1 ints in memory in canonical form, NReq=1421545690.
 FoFCou: FMM=F IPFlag=           0 FMFlag=           0 FMFlg1=           0
         NFxFlg=           0 DoJE=F BraDBF=F KetDBF=F FulRan=T
         wScrn=  0.000000 ICntrl=       600 IOpCl=  0 I1Cent=           0 NGrid=           0
         NMat0=    1 NMatS0=  37401 NMatT0=    0 NMatD0=    1 NMtDS0=    0 NMtDT0=    0
 Symmetry not used in FoFCou.
 Two-electron integral symmetry not used.
          MDV=    7784628224 using IRadAn=       5.
          Solving linear equations separately, MaxMat=       0.
          There are     1 degrees of freedom in the 1st order CPHF.  IDoFFX=0 NUNeed=     1.
 LinEq1:  Iter=  0 NonCon=     1 RMS=6.37D-03 Max=4.43D-01 NDo=     1
 AX will form     1 AO Fock derivatives at one time.
 LinEq1:  Iter=  1 NonCon=     1 RMS=2.87D-03 Max=1.62D-01 NDo=     1
 LinEq1:  Iter=  2 NonCon=     1 RMS=1.67D-03 Max=4.93D-02 NDo=     1
 LinEq1:  Iter=  3 NonCon=     1 RMS=6.87D-04 Max=1.70D-02 NDo=     1
 LinEq1:  Iter=  4 NonCon=     1 RMS=3.88D-04 Max=1.30D-02 NDo=     1
 LinEq1:  Iter=  5 NonCon=     1 RMS=1.95D-04 Max=6.94D-03 NDo=     1
 LinEq1:  Iter=  6 NonCon=     1 RMS=8.19D-05 Max=2.96D-03 NDo=     1
 LinEq1:  Iter=  7 NonCon=     1 RMS=4.34D-05 Max=1.50D-03 NDo=     1
 LinEq1:  Iter=  8 NonCon=     1 RMS=1.63D-05 Max=4.84D-04 NDo=     1
 LinEq1:  Iter=  9 NonCon=     1 RMS=9.00D-06 Max=2.72D-04 NDo=     1
 LinEq1:  Iter= 10 NonCon=     1 RMS=3.38D-06 Max=9.80D-05 NDo=     1
 LinEq1:  Iter= 11 NonCon=     1 RMS=2.00D-06 Max=8.61D-05 NDo=     1
 LinEq1:  Iter= 12 NonCon=     1 RMS=1.01D-06 Max=3.46D-05 NDo=     1
 LinEq1:  Iter= 13 NonCon=     1 RMS=4.22D-07 Max=1.05D-05 NDo=     1
 LinEq1:  Iter= 14 NonCon=     1 RMS=1.70D-07 Max=5.53D-06 NDo=     1
 LinEq1:  Iter= 15 NonCon=     1 RMS=9.05D-08 Max=2.52D-06 NDo=     1
 LinEq1:  Iter= 16 NonCon=     1 RMS=3.64D-08 Max=1.28D-06 NDo=     1
 LinEq1:  Iter= 17 NonCon=     1 RMS=1.63D-08 Max=5.41D-07 NDo=     1
 LinEq1:  Iter= 18 NonCon=     1 RMS=6.67D-09 Max=1.57D-07 NDo=     1
 LinEq1:  Iter= 19 NonCon=     1 RMS=3.18D-09 Max=1.12D-07 NDo=     1
 LinEq1:  Iter= 20 NonCon=     1 RMS=1.48D-09 Max=3.74D-08 NDo=     1
 LinEq1:  Iter= 21 NonCon=     1 RMS=4.29D-10 Max=1.28D-08 NDo=     1
 LinEq1:  Iter= 22 NonCon=     1 RMS=1.80D-10 Max=5.08D-09 NDo=     1
 LinEq1:  Iter= 23 NonCon=     1 RMS=7.83D-11 Max=1.63D-09 NDo=     1
 LinEq1:  Iter= 24 NonCon=     0 RMS=2.43D-11 Max=6.66D-10 NDo=     1
 Linear equations converged to 1.000D-10 1.000D-09 after    24 iterations.
 End of Minotr F.D. properties file   721 does not exist.
 End of Minotr F.D. properties file   722 does not exist.
 End of Minotr F.D. properties file   788 does not exist.
 Leave Link 1002 at Tue Jul 14 10:32:03 2020, MaxMem=  7784628224 cpu:             736.8 elap:              98.4
 (Enter /gpfs/loomis/apps/avx/software/Gaussian/16-C.01_AVX/g16/l601.exe)
 Copying SCF densities to generalized density rwf, IOpCl= 0 IROHF=0.

 **********************************************************************

            Population analysis using the SCF Density.

 **********************************************************************

 Alpha  occ. eigenvalues --  -89.09986 -19.21896 -14.51333 -10.41110 -10.37811
 Alpha  occ. eigenvalues --  -10.36251 -10.36042 -10.33237 -10.33035 -10.32509
 Alpha  occ. eigenvalues --  -10.32368 -10.31836 -10.31339 -10.30792 -10.29670
 Alpha  occ. eigenvalues --  -10.29103  -8.12094  -6.06944  -6.06591  -6.06124
 Alpha  occ. eigenvalues --   -1.12899  -1.09543  -0.98016  -0.95738  -0.93195
 Alpha  occ. eigenvalues --   -0.89057  -0.86547  -0.83520  -0.81705  -0.76062
 Alpha  occ. eigenvalues --   -0.72577  -0.71863  -0.68325  -0.67850  -0.65042
 Alpha  occ. eigenvalues --   -0.60909  -0.59528  -0.57047  -0.55507  -0.55318
 Alpha  occ. eigenvalues --   -0.54727  -0.53893  -0.52953  -0.50380  -0.49526
 Alpha  occ. eigenvalues --   -0.48974  -0.48217  -0.46776  -0.45223  -0.45053
 Alpha  occ. eigenvalues --   -0.44159  -0.43288  -0.42196  -0.40431  -0.36676
 Alpha  occ. eigenvalues --   -0.33285  -0.32852  -0.31332  -0.26589
 Alpha virt. eigenvalues --   -0.01913   0.03864   0.05644   0.06793   0.08785
 Alpha virt. eigenvalues --    0.10554   0.14369   0.14869   0.16754   0.17536
 Alpha virt. eigenvalues --    0.18675   0.20313   0.21213   0.21248   0.22832
 Alpha virt. eigenvalues --    0.23456   0.24134   0.25274   0.28244   0.28298
 Alpha virt. eigenvalues --    0.31650   0.33625   0.35213   0.35471   0.36515
 Alpha virt. eigenvalues --    0.37973   0.38972   0.40328   0.41504   0.43251
 Alpha virt. eigenvalues --    0.47027   0.47575   0.50917   0.51143   0.51436
 Alpha virt. eigenvalues --    0.52460   0.52896   0.53257   0.54189   0.54761
 Alpha virt. eigenvalues --    0.56221   0.56344   0.56696   0.56729   0.57849
 Alpha virt. eigenvalues --    0.58018   0.58451   0.59061   0.59469   0.59867
 Alpha virt. eigenvalues --    0.61152   0.61181   0.61942   0.62779   0.63052
 Alpha virt. eigenvalues --    0.65060   0.66117   0.66909   0.67932   0.68714
 Alpha virt. eigenvalues --    0.70704   0.70827   0.71982   0.72764   0.72945
 Alpha virt. eigenvalues --    0.73733   0.74673   0.75462   0.75814   0.77929
 Alpha virt. eigenvalues --    0.78619   0.79457   0.80335   0.80844   0.82546
 Alpha virt. eigenvalues --    0.84166   0.87706   0.90215   0.91043   0.92984
 Alpha virt. eigenvalues --    0.94305   0.94423   0.95984   0.96576   0.97018
 Alpha virt. eigenvalues --    0.98323   0.98755   1.00347   1.00844   1.01382
 Alpha virt. eigenvalues --    1.02554   1.05377   1.05516   1.06336   1.07325
 Alpha virt. eigenvalues --    1.07949   1.09728   1.09966   1.10387   1.10834
 Alpha virt. eigenvalues --    1.12292   1.12942   1.14429   1.14597   1.15004
 Alpha virt. eigenvalues --    1.16397   1.19791   1.19983   1.22380   1.23587
 Alpha virt. eigenvalues --    1.25705   1.28394   1.32266   1.33069   1.34176
 Alpha virt. eigenvalues --    1.35967   1.37003   1.38826   1.40609   1.46781
 Alpha virt. eigenvalues --    1.48806   1.49791   1.53125   1.53994   1.54471
 Alpha virt. eigenvalues --    1.56574   1.57028   1.57121   1.58471   1.58830
 Alpha virt. eigenvalues --    1.60502   1.60694   1.65055   1.65359   1.67138
 Alpha virt. eigenvalues --    1.67506   1.69743   1.70054   1.70782   1.71348
 Alpha virt. eigenvalues --    1.71569   1.72190   1.73432   1.73587   1.75305
 Alpha virt. eigenvalues --    1.77589   1.79794   1.80258   1.80595   1.81648
 Alpha virt. eigenvalues --    1.82661   1.84259   1.84343   1.85154   1.85355
 Alpha virt. eigenvalues --    1.86994   1.88632   1.88730   1.91271   1.91610
 Alpha virt. eigenvalues --    1.92642   1.93883   1.94938   1.95461   1.96805
 Alpha virt. eigenvalues --    1.97782   1.99100   1.99765   2.02944   2.03775
 Alpha virt. eigenvalues --    2.06205   2.07473   2.09443   2.10223   2.14419
 Alpha virt. eigenvalues --    2.16614   2.16924   2.19082   2.21011   2.23385
 Alpha virt. eigenvalues --    2.26348   2.27076   2.31615   2.36935   2.39473
 Alpha virt. eigenvalues --    2.41789   2.42144   2.45973   2.47675   2.48112
 Alpha virt. eigenvalues --    2.50462   2.51012   2.51674   2.54023   2.61369
 Alpha virt. eigenvalues --    2.61566   2.70907   2.73932   2.74520   2.78407
 Alpha virt. eigenvalues --    2.80675   2.82561   2.85228   2.85793   2.89128
 Alpha virt. eigenvalues --    2.91243   3.01087   3.14533   3.23525   3.43004
 Alpha virt. eigenvalues --    3.47105   3.55363   3.59658   3.75165
          Condensed to atoms (all electrons):
               1          2          3          4          5          6
     1  C    4.734517   0.491555   0.005579  -0.051652  -0.014600   0.512721
     2  C    0.491555   5.304857   0.317557  -0.044928  -0.068918  -0.007738
     3  C    0.005579   0.317557   4.879713   0.504073  -0.002977  -0.063435
     4  C   -0.051652  -0.044928   0.504073   4.783874   0.518291  -0.011506
     5  C   -0.014600  -0.068918  -0.002977   0.518291   4.732197   0.497011
     6  C    0.512721  -0.007738  -0.063435  -0.011506   0.497011   4.735930
     7  H    0.403161  -0.038065   0.008758  -0.000640   0.007936  -0.039076
     8  H   -0.000564   0.010490  -0.031438   0.395962  -0.040356   0.007373
     9  H    0.008880  -0.000621   0.008343  -0.037962   0.404987  -0.044391
    10  H   -0.042429   0.009270  -0.000467   0.008204  -0.041892   0.407184
    11  N    0.004216  -0.039802   0.363234  -0.046177   0.002524   0.000169
    12  S   -0.071331   0.328451  -0.117188   0.005413   0.000259   0.004221
    13  C   -0.000226   0.001016   0.011009  -0.000423   0.000008   0.000003
    14  C   -0.000011   0.000150   0.000432   0.000007  -0.000000  -0.000000
    15  C    0.000004  -0.000301   0.000299   0.000037  -0.000000   0.000000
    16  C    0.000000  -0.000007   0.000004  -0.000000   0.000000  -0.000000
    17  H   -0.000013   0.000228  -0.000001   0.000001   0.000000   0.000000
    18  C    0.000000   0.000008  -0.000016  -0.000000  -0.000000  -0.000000
    19  C   -0.000000   0.000000   0.000001   0.000000  -0.000000   0.000000
    20  H   -0.000000  -0.000000  -0.000000  -0.000000  -0.000000  -0.000000
    21  H   -0.000000  -0.000000  -0.000000  -0.000000  -0.000000   0.000000
    22  H    0.000000  -0.000000  -0.000000  -0.000000   0.000000  -0.000000
    23  C    0.003593  -0.045801  -0.115297   0.001027   0.000267  -0.000234
    24  O    0.000002  -0.000148  -0.000446  -0.000004   0.000000  -0.000000
    25  H    0.000117   0.007747  -0.032986  -0.003071  -0.000066  -0.000005
               7          8          9         10         11         12
     1  C    0.403161  -0.000564   0.008880  -0.042429   0.004216  -0.071331
     2  C   -0.038065   0.010490  -0.000621   0.009270  -0.039802   0.328451
     3  C    0.008758  -0.031438   0.008343  -0.000467   0.363234  -0.117188
     4  C   -0.000640   0.395962  -0.037962   0.008204  -0.046177   0.005413
     5  C    0.007936  -0.040356   0.404987  -0.041892   0.002524   0.000259
     6  C   -0.039076   0.007373  -0.044391   0.407184   0.000169   0.004221
     7  H    0.648784   0.000028  -0.000150  -0.010835  -0.000081  -0.007847
     8  H    0.000028   0.640180  -0.012138  -0.000102  -0.003264  -0.000231
     9  H   -0.000150  -0.012138   0.656546  -0.011923  -0.000095   0.000019
    10  H   -0.010835  -0.000102  -0.011923   0.655039   0.000004  -0.000160
    11  N   -0.000081  -0.003264  -0.000095   0.000004   6.167198  -0.053309
    12  S   -0.007847  -0.000231   0.000019  -0.000160  -0.053309  15.454362
    13  C   -0.000001   0.000028  -0.000000  -0.000000  -0.028661  -0.066661
    14  C    0.000001   0.000000   0.000000  -0.000000   0.003519  -0.012746
    15  C   -0.000000  -0.000004   0.000000   0.000000  -0.007543   0.005273
    16  C    0.000000   0.000000  -0.000000  -0.000000  -0.000072   0.000399
    17  H    0.000001   0.000000   0.000000  -0.000000   0.000237   0.008738
    18  C    0.000000  -0.000000   0.000000  -0.000000  -0.000492  -0.000206
    19  C   -0.000000   0.000000  -0.000000  -0.000000   0.000031   0.000025
    20  H    0.000000  -0.000000   0.000000   0.000000   0.000001   0.000013
    21  H   -0.000000   0.000000  -0.000000   0.000000   0.000012   0.000005
    22  H    0.000000  -0.000000   0.000000  -0.000000  -0.000000  -0.000001
    23  C    0.000218  -0.000636   0.000006   0.000005   0.530536   0.318427
    24  O    0.000000  -0.000127   0.000000  -0.000000  -0.061101  -0.000143
    25  H    0.000004   0.000710  -0.000006  -0.000000   0.316310   0.004378
              13         14         15         16         17         18
     1  C   -0.000226  -0.000011   0.000004   0.000000  -0.000013   0.000000
     2  C    0.001016   0.000150  -0.000301  -0.000007   0.000228   0.000008
     3  C    0.011009   0.000432   0.000299   0.000004  -0.000001  -0.000016
     4  C   -0.000423   0.000007   0.000037  -0.000000   0.000001  -0.000000
     5  C    0.000008  -0.000000  -0.000000   0.000000   0.000000  -0.000000
     6  C    0.000003  -0.000000   0.000000  -0.000000   0.000000  -0.000000
     7  H   -0.000001   0.000001  -0.000000   0.000000   0.000001   0.000000
     8  H    0.000028   0.000000  -0.000004   0.000000   0.000000  -0.000000
     9  H   -0.000000   0.000000   0.000000  -0.000000   0.000000   0.000000
    10  H   -0.000000  -0.000000   0.000000  -0.000000  -0.000000  -0.000000
    11  N   -0.028661   0.003519  -0.007543  -0.000072   0.000237  -0.000492
    12  S   -0.066661  -0.012746   0.005273   0.000399   0.008738  -0.000206
    13  C    5.421398   0.431860   0.198600  -0.007641  -0.038132  -0.040202
    14  C    0.431860   4.866796   0.005844   0.538249   0.396972  -0.059043
    15  C    0.198600   0.005844   4.737774  -0.053851   0.005864   0.467079
    16  C   -0.007641   0.538249  -0.053851   4.755579  -0.030554  -0.019923
    17  H   -0.038132   0.396972   0.005864  -0.030554   0.665321  -0.000750
    18  C   -0.040202  -0.059043   0.467079  -0.019923  -0.000750   4.887800
    19  C   -0.053630  -0.019968  -0.005762   0.481808   0.007845   0.505810
    20  H    0.008957  -0.036063  -0.000158   0.400333  -0.011655   0.008048
    21  H    0.015081  -0.000662  -0.025103   0.007480   0.000049   0.373865
    22  H   -0.001662   0.009822   0.008583  -0.045465  -0.000191  -0.040160
    23  C    0.369218  -0.090412  -0.075369   0.006036  -0.022371   0.009522
    24  O   -0.097231   0.006347   0.621997  -0.000141  -0.000071  -0.062233
    25  H   -0.034487  -0.000845  -0.015758   0.000055  -0.000079   0.003469
              19         20         21         22         23         24
     1  C   -0.000000  -0.000000  -0.000000   0.000000   0.003593   0.000002
     2  C    0.000000  -0.000000  -0.000000  -0.000000  -0.045801  -0.000148
     3  C    0.000001  -0.000000  -0.000000  -0.000000  -0.115297  -0.000446
     4  C    0.000000  -0.000000  -0.000000  -0.000000   0.001027  -0.000004
     5  C   -0.000000  -0.000000  -0.000000   0.000000   0.000267   0.000000
     6  C    0.000000  -0.000000   0.000000  -0.000000  -0.000234  -0.000000
     7  H   -0.000000   0.000000  -0.000000   0.000000   0.000218   0.000000
     8  H    0.000000  -0.000000   0.000000  -0.000000  -0.000636  -0.000127
     9  H   -0.000000   0.000000  -0.000000   0.000000   0.000006   0.000000
    10  H   -0.000000   0.000000   0.000000  -0.000000   0.000005  -0.000000
    11  N    0.000031   0.000001   0.000012  -0.000000   0.530536  -0.061101
    12  S    0.000025   0.000013   0.000005  -0.000001   0.318427  -0.000143
    13  C   -0.053630   0.008957   0.015081  -0.001662   0.369218  -0.097231
    14  C   -0.019968  -0.036063  -0.000662   0.009822  -0.090412   0.006347
    15  C   -0.005762  -0.000158  -0.025103   0.008583  -0.075369   0.621997
    16  C    0.481808   0.400333   0.007480  -0.045465   0.006036  -0.000141
    17  H    0.007845  -0.011655   0.000049  -0.000191  -0.022371  -0.000071
    18  C    0.505810   0.008048   0.373865  -0.040160   0.009522  -0.062233
    19  C    4.740273  -0.046275  -0.046091   0.403423   0.000591   0.003795
    20  H   -0.046275   0.684086  -0.000144  -0.012236  -0.000396   0.000001
    21  H   -0.046091  -0.000144   0.675680  -0.012500  -0.000470   0.004441
    22  H    0.403423  -0.012236  -0.012500   0.671422   0.000001  -0.000066
    23  C    0.000591  -0.000396  -0.000470   0.000001   5.069385  -0.010527
    24  O    0.003795   0.000001   0.004441  -0.000066  -0.010527   7.873443
    25  H   -0.000347  -0.000001   0.000006   0.000006   0.014699   0.131700
              25
     1  C    0.000117
     2  C    0.007747
     3  C   -0.032986
     4  C   -0.003071
     5  C   -0.000066
     6  C   -0.000005
     7  H    0.000004
     8  H    0.000710
     9  H   -0.000006
    10  H   -0.000000
[...]
 58,0.02193336,-0.00000212,0.04174204,-0.21855483,0.00000221,0.02285499
 ,-0.00695309,-0.00000111,0.04551421,0.63115544,0.00000003,0.00000003,-
 0.00002135,0.00000021,0.00000010,0.00014636,0.00000029,-0.00000045,-0.
 00039228,-0.00000023,0.00000008,-0.00029559,0.00000001,-0.00000015,0.0
 0000171,0.00000003,0.00000008,0.00000191,0.,0.,-0.00002800,0.,0.,-0.00
 001925,0.,0.,0.00002573,0.,0.,0.00003164,-0.00000034,0.00000038,0.0025
 8710,-0.00000005,0.00000019,-0.00065961,0.,-0.00000076,0.00265641,0.00
 000262,0.00000060,-0.05170860,-0.00000120,-0.00000016,-0.00492105,-0.0
 0001480,-0.00001514,0.12532804,0.00024674,0.00000412,0.,-0.00065786,0.
 00029540,-0.00000013,0.00035079,-0.00019328,0.00000001,-0.00005331,0.0
 0012365,0.00000002,0.00006511,-0.00006890,0.,0.00000698,-0.00004095,0.
 ,-0.00001900,-0.00000767,0.,0.00003386,0.00000166,0.,0.00001148,-0.000
 00442,0.,0.00003432,-0.00001084,0.,0.00062646,0.00078175,-0.00000005,-
 0.00243790,0.00259485,0.00000013,-0.00342339,-0.02895190,0.00000052,-0
 .08144289,-0.07888547,0.00000293,-0.00466749,0.00283238,0.00000022,0.0
 1003060,0.02241884,-0.00000066,0.08481708,0.00013874,-0.00000116,0.,-0
 .00021021,0.00072037,0.00000007,0.00040960,-0.00009036,0.,0.00002286,0
 .00010181,0.00000001,0.00002700,0.00009103,0.,-0.00013212,-0.00006641,
 0.,-0.00002352,0.00001227,0.,0.00003575,-0.00000484,0.,0.00000065,0.00
 000207,0.,0.00001342,0.00000002,0.,0.00000063,0.00059698,-0.00000006,0
 .00158446,-0.00169920,0.,0.00084002,-0.00427717,0.00000020,-0.07737826
 ,-0.31770917,0.00000845,0.00002484,0.00247947,0.00000017,-0.00986567,-
 0.01712935,0.00000071,0.08042024,0.33861503,-0.00000006,0.,-0.00002341
 ,0.00000009,-0.00000008,-0.00061186,-0.00000013,0.,0.00049339,-0.00000
 003,-0.00000002,0.00013608,-0.00000001,-0.00000003,-0.00001670,0.00000
 003,0.00000002,0.00001901,0.,0.,0.00001768,0.,0.,0.00000969,0.,0.,-0.0
 0000458,0.,0.,-0.00000043,-0.00000016,-0.00000046,-0.00235833,0.000000
 04,-0.00000015,0.00191301,-0.00000018,0.00000095,0.00595079,0.00000373
 ,0.00000886,-0.03401885,0.00000003,0.00000021,0.00877421,-0.00000028,0
 .00000032,0.00350353,-0.00000314,-0.00000936,0.01986836,-0.00073836,-0
 .00007293,-0.00000023,-0.00576118,-0.00328598,-0.00000033,-0.00549281,
 0.01401413,0.00000092,0.00623482,-0.00168834,0.00000011,-0.00010582,0.
 00332023,0.00000010,-0.00005004,-0.00195218,-0.00000008,-0.00008706,0.
 00011060,0.00000002,0.00003221,-0.00005144,0.,0.00009011,0.00001881,0.
 ,0.00005800,-0.00005494,0.00000004,0.01287017,-0.00199241,-0.00000143,
 0.00018746,-0.00350038,0.00000040,0.02159657,0.01701314,-0.00000094,-0
 .03848145,0.02021618,0.00000075,-0.15348693,0.08743010,-0.00000625,-0.
 00329311,-0.08199860,0.00000328,-0.00061928,-0.00000537,0.00000002,0.6
 7991600,0.00049489,-0.00008528,0.00000004,-0.00028315,-0.00027593,0.,0
 .00056580,-0.00069238,-0.00000001,-0.00067330,0.00020691,-0.00000002,0
 .00012147,-0.00030338,0.,-0.00016985,0.00011070,0.,-0.00000802,0.00002
 071,0.,-0.00000539,0.00000190,0.,-0.00000618,-0.00000630,0.,0.00002301
 ,0.00000014,0.,0.00056240,0.00042441,0.00000026,0.00148558,-0.00144943
 ,-0.00000004,0.01774450,-0.02837500,0.00000126,0.00390178,-0.00082853,
 -0.00000027,0.09343129,-0.23190701,0.00000807,-0.03491791,-0.01148282,
 0.00000134,-0.00026079,0.00066105,-0.00000011,0.04674696,0.70983145,-0
 .00000003,-0.00000005,0.00015110,0.00000015,0.00000002,0.00043330,-0.0
 0000027,-0.00000037,0.00137633,-0.00000012,0.00000004,-0.00014583,-0.0
 0000002,-0.00000007,-0.00006942,0.00000001,0.00000002,-0.00010020,0.00
 000001,-0.00000002,0.00011816,0.,0.,0.00007032,0.,0.,0.00000690,0.,0.,
 -0.00005267,-0.00000036,-0.00000130,-0.00424405,-0.00000001,0.00000014
 ,0.00152869,-0.00000086,0.00000072,0.01251954,0.00000110,-0.00000060,-
 0.00461821,-0.00000622,0.00000755,-0.06590156,0.00000134,0.00000300,0.
 00649753,0.00000004,-0.00000007,-0.00167548,-0.00001544,-0.00003101,0.
 10789544,0.00046959,0.00091093,0.00000021,0.00749769,0.00344258,0.0000
 0051,0.00775959,-0.01658404,-0.00000061,-0.00777246,0.00213079,-0.0000
 0018,0.00008116,-0.00482853,-0.00000020,0.00114243,0.00255366,0.000000
 10,0.00004455,-0.00009248,0.00000001,0.00003182,0.00007845,0.00000003,
 -0.00006676,-0.00004047,0.00000001,-0.00001468,0.00004809,-0.00000004,
 -0.01444554,0.01057746,0.00000023,0.00020413,0.00226278,-0.00000027,-0
 .01355625,-0.01460250,0.00000081,0.05744467,0.00721741,-0.00000148,-0.
 05952370,0.01402758,0.00000320,-0.14065563,-0.00035395,0.00000131,-0.0
 0325666,0.00456962,-0.00000005,-0.32682139,-0.08164380,0.00000884,0.68
 682575,0.00000624,0.00115430,0.00000014,0.00403485,0.00152673,0.000000
 10,0.00423382,-0.00708047,-0.00000044,-0.00426556,0.00121384,-0.000000
 08,-0.00003410,-0.00316744,-0.00000012,0.00139681,0.00119456,0.0000000
 7,-0.00002644,-0.00004375,0.,0.00005412,0.00004178,0.,0.00001941,-0.00
 005871,0.,0.00003770,0.00001723,-0.00000001,-0.00224045,0.00821220,0.0
 0000122,-0.00182960,0.00113926,-0.00000005,-0.02859053,-0.01019670,0.0
 0000090,0.05931290,-0.05601686,0.00000063,-0.00730755,0.02455769,0.,-0
 .09235358,-0.30631136,0.00000963,0.00333295,-0.00074618,-0.00000003,-0
 .01866269,-0.13336052,0.00000462,-0.05543153,0.68751782,-0.00000004,-0
 .00000002,0.00014027,-0.00000029,-0.00000011,-0.00047122,-0.00000022,0
 .00000068,-0.00110776,0.00000032,-0.00000009,0.00007910,0.,0.00000018,
 0.00009210,-0.00000003,-0.00000008,0.00001433,0.,0.,-0.00005656,0.,0.,
 -0.00011581,0.,0.,0.00000145,0.,0.,0.00001306,0.00000050,-0.00000018,0
 .00152400,0.,-0.00000028,0.00053949,0.00000128,0.00000070,-0.00148479,
 -0.00000279,0.00000180,0.00863836,0.00000139,-0.00000214,0.00215906,0.
 00000467,0.00000832,-0.05929833,0.00000006,-0.00000005,0.00390253,0.00
 000665,0.00000599,-0.04948204,-0.00000917,-0.00002034,0.11399780,0.000
 05439,-0.00010814,0.,-0.00010244,0.00013013,0.,-0.00003404,-0.00008922
 ,0.,0.00002491,0.00002253,0.,0.00000660,0.00009597,0.,-0.00014208,0.00
 000301,0.,0.00000655,0.00000514,0.,-0.00000209,-0.00000484,0.,-0.00001
 052,0.00000793,0.,-0.00000917,0.00000532,0.,-0.00019815,0.00042667,0.,
 0.00007583,0.00000237,0.,-0.00038217,0.00364731,0.00000003,-0.01555383
 ,-0.00929659,0.00000062,0.00054137,0.00044679,-0.00000006,-0.32721883,
 -0.07463057,0.00000815,0.00073293,0.00011754,-0.00000006,0.00155705,-0
 .00115617,0.00000014,-0.00311207,0.00198539,0.00000010,0.34408235,0.00
 002013,-0.00001892,0.,-0.00009655,-0.00008374,0.,0.00000635,0.00024465
 ,0.00000003,0.00007495,-0.00006585,0.,0.00001472,0.00006760,0.,-0.0000
 3471,-0.00003507,0.,0.00000098,-0.00000086,0.,-0.00000128,-0.00000049,
 0.,0.00000134,-0.00000269,0.,0.00000076,-0.00000079,0.,0.00036451,-0.0
 0040944,-0.00000004,0.00003898,0.00002718,0.,0.00347869,-0.00351923,0.
 00000010,0.02154820,0.00902116,-0.00000054,0.00073142,-0.00076173,-0.0
 0000006,-0.07481650,-0.07989912,0.00000264,-0.00012995,0.00086735,-0.0
 0000008,-0.00040775,-0.00547203,0.00000038,-0.02927652,-0.00113155,0.0
 0000078,0.07946729,0.07914429,0.,0.,-0.00002077,0.,0.,0.00008152,-0.00
 000003,0.,0.00044753,0.,0.,0.00008253,0.,0.,-0.00005904,0.,0.,0.000009
 81,0.,0.,0.00001002,0.,0.,0.00003637,0.,0.,-0.00001989,0.,0.,-0.000004
 84,0.00000005,-0.00000004,-0.00004519,0.,0.00000003,-0.00024251,0.0000
 0016,0.00000023,0.00463438,-0.00000018,0.00000013,0.00561691,-0.000000
 13,-0.00000009,-0.00150144,0.00000775,0.00000254,-0.03573007,-0.000000
 05,-0.00000007,-0.00255079,0.00000007,0.00000036,0.00625818,0.00000110
 ,0.00000032,0.00621768,-0.00000886,-0.00000314,0.02202671,-0.00010315,
 0.00003354,0.,0.00010097,0.00005283,0.,-0.00011621,0.00007543,0.,0.000
 03723,-0.00000414,0.,-0.00001821,-0.00002022,0.,0.00006663,0.00000621,
 0.,0.00000097,-0.00000505,0.,-0.00000383,0.00000046,0.,0.00000216,-0.0
 0000094,0.,-0.00000340,-0.00000105,0.,0.00027469,-0.00031903,0.0000000
 1,-0.00030117,0.00016421,0.,-0.00396091,0.00288879,0.00000006,-0.00003
 782,0.00023591,0.00000002,0.00854782,0.02239681,-0.00000121,-0.0057052
 5,-0.00001581,0.00000028,0.00010757,-0.00008095,-0.00000002,-0.0777201
 8,-0.07742688,0.00000483,-0.00150707,-0.02864277,0.00000152,-0.0002795
 7,-0.00142675,0.00000001,0.07672288,0.00004967,0.00004494,-0.00000002,
 -0.00011874,-0.00010034,-0.00000001,0.00007399,0.00007145,0.,0.0000034
 5,-0.00000620,0.,0.00000360,-0.00002718,0.,0.00004063,-0.00002485,0.,-
 0.00000602,0.00000362,0.,0.00000673,0.00000243,0.,0.00000699,-0.000002
 97,0.,0.00000976,-0.00000340,0.,-0.00013336,0.00019252,0.00000003,0.00
 021952,-0.00022363,-0.00000005,0.00405511,-0.00173049,0.00000023,0.000
 16384,0.00037389,-0.00000006,-0.01128863,-0.01682366,0.00000110,-0.000
 85170,0.00122237,0.00000038,-0.00005424,-0.00009550,0.,-0.07541317,-0.
 32652210,0.00001731,0.00238812,-0.00178265,0.00000022,0.00005728,-0.00
 021762,-0.00000003,0.08253316,0.34267943,-0.00000002,0.00000005,-0.000
 31091,0.00000014,0.00000003,-0.00020401,0.00000013,-0.00000017,0.00009
 669,-0.00000009,0.00000003,0.00000249,0.,-0.00000007,-0.00004095,0.000
 00004,0.00000003,0.00006533,0.,0.,-0.00002536,0.,0.,0.00003693,0.,0.,-
 0.00000352,0.,0.,0.00005753,-0.00000005,0.00000038,0.00050279,-0.00000
 008,0.00000007,-0.00073865,-0.00000041,-0.00000008,0.00321562,0.000000
 31,-0.00000016,-0.00017185,0.00000092,0.00000128,0.00378913,0.00000022
 ,0.00000055,0.00587777,0.,0.00000002,-0.00000490,0.00000518,0.00001690
 ,-0.03178015,-0.00000041,0.00000054,0.00412224,0.,0.00000005,-0.000432
 85,-0.00000517,-0.00001875,0.02142349,0.00004648,-0.00004454,0.,-0.000
 04105,0.00010798,0.,0.00014850,-0.00006437,0.00000002,-0.00002720,0.00
 001087,0.,0.00001099,0.00003390,0.,-0.00007441,0.00000261,0.,0.0000013
 6,0.00000363,0.,0.00000329,-0.00000422,0.,-0.00000658,0.00000302,0.,-0
 .00000405,0.00000402,0.,0.00012039,0.00056485,-0.00000003,-0.00003580,
 0.00011665,0.00000003,-0.00019709,-0.00059363,0.00000004,0.00056326,-0
 .00216094,0.00000010,-0.00252708,-0.00405055,0.00000046,0.00872102,-0.
 00840196,0.00000019,0.00031353,-0.00034599,0.,-0.01519688,0.02366747,-
 0.00000087,-0.20444435,0.14521897,-0.00000255,0.00071269,0.00033331,-0
 .00000006,0.00105977,-0.00027026,-0.00000011,0.21306359,-0.00001307,0.
 00009643,0.,0.00023159,0.00011260,0.00000003,0.00025843,-0.00046771,0.
 ,-0.00024027,0.00007641,0.,-0.00000278,-0.00021000,0.,0.00012654,0.000
 07421,0.,-0.00000646,-0.00000479,0.,0.00000758,0.00000581,0.,0.0000060
 8,-0.00000480,0.,0.00000788,-0.00000316,0.,-0.00035515,0.00025745,-0.0
 0000005,-0.00012069,0.00004871,0.,-0.00080660,0.00017292,0.,-0.0025761
 2,-0.00445861,0.00000043,-0.00249306,-0.00035434,0.00000033,0.02366228
 ,-0.01470935,0.00000023,0.00109684,-0.00101468,-0.00000001,-0.00806875
 ,0.00906724,-0.00000022,0.14402185,-0.20063235,0.00000436,-0.00014635,
 0.00100674,-0.00000020,0.00031283,0.00065535,-0.00000018,-0.15468315,0
 .20956270,0.,-0.00000002,0.00000258,-0.00000009,-0.00000004,0.00007755
 ,-0.00000009,0.00000018,0.00010358,0.00000009,-0.00000003,0.00001492,0
 .,0.00000007,-0.00000219,-0.00000003,-0.00000003,-0.00000303,0.,0.,0.0
 0000471,0.,0.,0.00001608,0.,0.,-0.00000065,0.,0.,-0.00001165,0.0000001
 2,-0.00000015,-0.00016277,0.00000003,0.,-0.00014839,0.00000010,0.00000
 019,-0.00107918,-0.00000016,0.00000047,0.00567510,0.00000059,0.0000002
 3,0.00668909,-0.00000095,0.00000007,0.00278114,-0.00000004,0.00000008,
 0.00072068,0.00000024,-0.00000064,0.00358264,-0.00000222,0.00000487,-0
 .03289819,-0.00000009,-0.00000015,-0.00386512,-0.00000010,-0.00000026,
 -0.00358747,0.00000277,-0.00000471,0.02292545,-0.00334753,-0.00660910,
 -0.00000030,-0.00849201,0.02062871,0.00000016,-0.06639226,0.04358578,0
 .00000117,0.00814515,-0.00316375,0.00000014,-0.00087866,0.00580938,0.0
 0000019,-0.00556020,-0.00194617,-0.00000008,0.00031596,-0.00060286,-0.
 00000006,-0.00071729,-0.00009319,0.00000001,0.00010918,-0.00005358,0.,
 -0.00065364,-0.00005313,-0.00000004,-0.35546824,-0.05075385,-0.0000109
 3,-0.04976648,-0.05256700,-0.00000154,-0.19147233,0.09534136,-0.000000
 31,-0.04515183,0.03144182,0.00000050,0.03726003,0.01813796,-0.00000193
 ,-0.00300144,-0.01116983,0.00000024,0.00009337,0.00061584,0.00000042,-
 0.00458019,-0.00482049,0.00000146,0.00032372,0.00364561,-0.00000059,-0
 .00066005,0.00058451,0.00000006,0.00072852,-0.00102494,-0.00000011,-0.
 00000581,-0.00000313,0.00000005,0.71425798,-0.00009204,0.00083801,-0.0
 0000002,0.02842941,-0.02394176,-0.00000078,0.02605472,0.00702667,0.000
 00141,-0.00029778,-0.00698643,-0.00000053,-0.00063212,-0.00172941,-0.0
 0000020,0.00174070,-0.00062204,-0.00000004,0.00000357,-0.00053782,0.,-
 0.00047980,0.00018745,0.00000009,0.00030634,-0.00055225,0.00000002,-0.
 00016805,0.00003367,0.00000001,-0.03892231,-0.12153970,-0.00000464,-0.
 02022792,-0.15700791,-0.00000472,0.08097889,-0.19641509,-0.00000157,0.
 02073766,0.01397543,-0.00000020,0.02125060,-0.04864999,0.00000026,-0.0
 0542741,0.00098383,0.00000036,-0.00224720,-0.00011912,-0.00000025,-0.0
 1374387,-0.00290129,0.00000031,0.00775330,0.00089269,-0.00000029,-0.00
 085964,0.00105942,0.,0.00068910,-0.00043296,0.00000023,0.00001043,0.00
 033841,-0.00000013,-0.07742292,0.53393182,0.00000013,-0.00000012,0.001
 20030,0.00000107,-0.00000078,-0.00053100,0.00000007,0.00000046,0.00665
 743,-0.00000017,-0.00000043,0.00212445,0.00000004,0.00000003,0.0010708
 4,-0.00000021,-0.00000007,0.00086056,0.,-0.00000002,-0.00046339,0.,0.0
 0000003,-0.00058035,0.00000002,0.,-0.00048339,0.,0.,-0.00021342,-0.000
 00786,-0.00000517,-0.03175009,-0.00000084,-0.00000487,-0.01976189,0.00
 000030,-0.00000091,-0.03464888,0.00000172,-0.00000030,0.00893844,-0.00
 000158,-0.00000047,0.00410261,-0.00000026,0.00000070,0.00366406,-0.000
 00003,-0.00000012,-0.00243562,0.00000007,-0.00000008,-0.00004959,0.000
 00025,-0.00000052,-0.00073394,-0.00000002,0.,-0.00096198,0.,0.00000016
 ,0.00185623,-0.00000004,0.,-0.00018741,0.00001015,0.00001378,0.0617046
 4,-0.00007525,0.00130218,-0.00000006,-0.00081468,0.00151120,0.00000025
 ,0.00777441,0.00051852,0.00000014,-0.00002807,0.00004845,-0.00000002,-
 0.00013445,-0.00080168,-0.00000006,0.00135046,0.00006381,0.,-0.0001667
 8,0.00019899,0.00000002,0.00024045,-0.00000216,0.00000003,0.00002098,0
 .00003152,0.00000002,0.00006802,0.00001080,0.00000002,0.00092668,0.032
 58585,-0.00000162,-0.00024376,-0.00052915,0.00000012,-0.02896416,-0.04
 635614,0.00000533,0.00731280,-0.00471513,0.00000015,-0.43039676,-0.095
 67266,0.00003179,-0.01037001,-0.00450347,0.00000053,-0.00121922,-0.001
 07531,-0.00000004,-0.09137493,0.01301615,0.00000684,0.01284037,0.01426
 151,-0.00000081,-0.00017408,-0.00048325,0.00000010,0.00217634,-0.00048
 004,-0.00000059,-0.00243574,-0.00019202,-0.00000022,-0.01717354,0.0056
 1488,0.00000045,0.54658992,-0.00053573,-0.00032969,0.,0.00010385,-0.00
 278615,-0.00000029,-0.00814923,0.00144514,0.00000034,0.00103772,-0.000
 60502,0.00000001,0.00006530,0.00078588,0.00000004,-0.00008983,-0.00063
 214,-0.00000003,0.00007148,-0.00019864,-0.00000002,0.00008794,0.000064
 90,0.,0.00011006,-0.00008432,0.,0.00003072,-0.00005118,0.,0.01687254,-
 0.03249344,0.00000224,0.00015480,0.00008698,-0.00000007,-0.04427909,-0
 .02011179,0.00000513,-0.00254053,-0.00958980,0.00000014,-0.09866623,-0
 .12143884,0.00001351,0.00060756,-0.00506310,0.00000029,-0.00226171,-0.
 00056482,-0.00000028,0.02612449,0.02417631,-0.00000198,0.00508585,-0.0
 0006899,0.00000029,-0.00011553,0.00030814,-0.00000003,-0.00182417,0.00
 295717,-0.00000036,0.00133679,0.00051962,-0.00000009,0.00205181,0.0105
 0357,-0.00000042,0.11771703,0.15033213,0.00000022,0.,0.00025770,0.0000
 0019,0.00000074,-0.00022863,0.00000186,-0.00000093,-0.00056355,-0.0000
 0046,0.00000015,0.00011980,0.00000002,-0.00000022,0.00015965,-0.000000
 09,0.00000022,0.00003369,-0.00000001,0.00000004,-0.00010060,0.,-0.0000
 0001,-0.00016700,-0.00000003,0.00000002,-0.00001690,-0.00000001,0.0000
 0002,-0.00005719,-0.00000343,0.00000504,0.00927765,0.00000018,0.000000
 57,-0.00103116,0.00000419,0.00000439,0.01645318,-0.00000044,0.00000088
 ,0.00232500,0.00003402,0.00001491,-0.05819114,0.00000118,0.00000093,0.
 00016132,0.00000009,-0.00000002,-0.00206806,0.00000569,-0.00000240,0.0
 1583885,-0.00000198,-0.00000115,0.00418522,0.00000002,0.00000002,0.000
 05177,-0.00000020,-0.00000026,-0.00355479,-0.00000002,-0.00000003,-0.0
 0055545,0.00000013,-0.00000099,-0.00290650,-0.00004480,-0.00001714,0.0
 3172303,0.00087668,0.00008218,-0.00000006,-0.00420700,0.00205822,0.000
 00004,0.00856049,0.01262467,0.00000188,0.00130303,-0.00016882,-0.00000
 001,-0.00006634,0.00029989,-0.00000003,-0.00026734,-0.00015040,0.,-0.0
 0008171,0.00022494,0.,-0.00061746,-0.00032096,-0.00000011,-0.00000282,
 -0.00000086,0.,-0.00002555,-0.00004425,0.,-0.07735856,-0.04859454,-0.0
 0000642,-0.00394223,-0.00441747,-0.00000003,0.00180203,-0.00106509,0.0
 0000040,-0.00204359,0.00037308,-0.00000007,-0.01493878,0.00280514,0.,0
 .00142919,-0.00180344,0.00000009,0.00032617,0.00029617,-0.00000019,0.0
 0126724,-0.00038936,-0.00000055,0.00051109,0.00184453,0.,0.00008443,0.
 00000713,0.,-0.00006878,0.00002925,0.00000010,0.00023119,-0.00002427,0
 .,-0.00791240,-0.03304853,-0.00000325,0.00427102,-0.01299588,0.0000037
 1,0.09087001,0.00055809,0.00043686,-0.00000012,0.00297560,0.00546912,-
 0.00000012,0.01158685,-0.00882871,0.00000040,-0.00331756,0.00233775,0.
 00000006,-0.00041185,-0.00233749,-0.00000007,0.00041807,0.00134919,0.0
 0000008,-0.00005080,0.00023242,0.00000003,0.00025443,-0.00020664,0.,-0
 .00020088,0.00017894,0.,-0.00005018,0.00011787,0.,-0.06354341,-0.25031
 419,-0.00002581,0.00253220,0.00839178,0.00000004,-0.01033371,0.0057511
 9,-0.00000066,0.01076922,-0.00375239,0.00000029,0.02562547,0.01119443,
 -0.00000411,-0.00603565,0.00996222,-0.00000038,-0.00078535,-0.00062951
 ,0.00000049,-0.00409581,-0.00083883,0.00000159,-0.00421465,-0.00687057
 ,0.00000025,-0.00001359,-0.00012741,0.00000002,0.00037847,-0.00020962,
 -0.00000037,-0.00079489,-0.00013480,0.00000008,-0.01155884,-0.00833520
 ,-0.00000087,-0.03206988,0.00283807,-0.00000475,0.08237865,0.23432552,
 0.00000006,0.00000002,0.00083141,-0.00000029,0.00000007,0.00248857,-0.
 00000056,0.00000211,-0.00769325,0.00000046,-0.00000010,-0.00082709,-0.
 00000003,0.00000025,-0.00018602,-0.00000010,-0.00000012,-0.00011646,0.
 ,0.00000002,-0.00000878,-0.00000004,-0.00000002,-0.00009145,0.,0.,0.00
 007942,0.,0.,0.00002985,-0.00000774,-0.00003215,-0.02467737,0.00000018
 ,0.00000019,0.00241938,-0.00000031,0.00000057,-0.00288561,0.00000040,0
 .00000017,0.00008955,-0.00000136,-0.00000190,0.00076745,-0.00000004,0.
 00000016,-0.00019011,0.00000008,0.00000005,0.00046006,0.00000115,0.000
 00038,0.00184222,-0.00000003,-0.00000029,0.00002196,0.00000002,0.00000
 002,-0.00003893,-0.00000004,0.,-0.00019084,0.00000009,0.00000001,-0.00
 009201,0.00000121,-0.00000212,0.00352788,0.00000242,-0.00000124,-0.011
 14587,0.00000447,0.00003393,0.03558604\\-0.00135787,-0.00235415,-0.000
 00016,-0.00328062,-0.00460511,-0.00000036,-0.00595388,0.00033498,-0.00
 000144,0.00111762,-0.00167136,0.00000013,0.00000980,0.00091260,-0.0000
 0014,-0.00155185,-0.00151338,-0.00000023,-0.00000643,-0.00028596,0.000
 00014,-0.00009801,-0.00004474,0.00000011,-0.00000910,-0.00013365,0.000
 00003,-0.00011903,-0.00013583,0.00000012,0.00943493,-0.00543177,-0.000
 00650,-0.00163456,-0.00341017,0.00000139,0.00540442,-0.00298282,-0.000
 00382,-0.00448724,-0.00008358,-0.00000120,-0.00901830,-0.00162742,0.00
 001321,0.00166836,-0.00557786,0.00000089,-0.00005780,-0.00004680,0.000
 00022,0.00149248,-0.00031246,-0.00000409,0.00286325,-0.00007335,0.0000
 0005,0.00010925,-0.00013813,-0.00000014,0.00006076,0.00003262,0.000000
 17,0.00024024,0.00001241,-0.00000009,0.00572949,0.00383797,0.00000048,
 0.00458084,0.00758728,-0.00000916,-0.00513677,0.01771065,0.00001040\\\
 @
 The archive entry for this job was punched.


 JUST WHEN YOU THINK YOU'VE GOT THE WORLD ON A STRING,
 YOU FIND OUT IT'S YOUR LEASH.
 Job cpu time:       0 days  2 hours 51 minutes 56.4 seconds.
 Elapsed time:       0 days  0 hours 17 minutes 45.6 seconds.
 File lengths (MBytes):  RWF=   1396 Int=      0 D2E=      0 Chk=     48 Scr=      8
 Normal termination of Gaussian 16 at Tue Jul 14 11:15:55 2020.
