 Entering Gaussian System, Link 0=g16
 Initial command:
 /gpfs/loomis/apps/avx/software/Gaussian/16-C.01_AVX/g16/l1.exe "/home/fas/batista/pev4/scratch60/gauss-scratch/Gau-77411.inp" -scrdir="/home/fas/batista/pev4/scratch60/gauss-scratch/"
 Entering Link 1 = /gpfs/loomis/apps/avx/software/Gaussian/16-C.01_AVX/g16/l1.exe PID=     77412.
  
 Copyright (c) 1988-2019, Gaussian, Inc.  All Rights Reserved.
  
 This is part of the Gaussian(R) 16 program.  It is based on
 the Gaussian(R) 09 system (copyright 2009, Gaussian, Inc.),
 the Gaussian(R) 03 system (copyright 2003, Gaussian, Inc.),
 the Gaussian(R) 98 system (copyright 1998, Gaussian, Inc.),
 the Gaussian(R) 94 system (copyright 1995, Gaussian, Inc.),
 the Gaussian 92(TM) system (copyright 1992, Gaussian, Inc.),
 the Gaussian 90(TM) system (copyright 1990, Gaussian, Inc.),
 the Gaussian 88(TM) system (copyright 1988, Gaussian, Inc.),
 the Gaussian 86(TM) system (copyright 1986, Carnegie Mellon
 University), and the Gaussian 82(TM) system (copyright 1983,
 Carnegie Mellon University). Gaussian is a federally registered
 trademark of Gaussian, Inc.
  
 This software contains proprietary and confidential information,
 including trade secrets, belonging to Gaussian, Inc.
  
 This software is provided under written license and may be
 used, copied, transmitted, or stored only in accord with that
 written license.
  
 The following legend is applicable only to US Government
 contracts under FAR:
  
                    RESTRICTED RIGHTS LEGEND
  
 Use, reproduction and disclosure by the US Government is
 subject to restrictions as set forth in subparagraphs (a)
 and (c) of the Commercial Computer Software - Restricted
 Rights clause in FAR 52.227-19.
  
 Gaussian, Inc.
 340 Quinnipiac St., Bldg. 40, Wallingford CT 06492
  
  
 ---------------------------------------------------------------
 Warning -- This program may not be used in any manner that
 competes with the business of Gaussian, Inc. or will provide
 assistance to any competitor of Gaussian, Inc.  The licensee
 of this program is prohibited from giving any competitor of
 Gaussian, Inc. access to this program.  By using this program,
 the user acknowledges that Gaussian, Inc. is engaged in the
 business of creating and licensing software in the field of
 computational chemistry and represents and warrants to the
 licensee that it is not a competitor of Gaussian, Inc. and that
 it will not use this program in any manner prohibited above.
 ---------------------------------------------------------------
  

 Cite this work as:
 Gaussian 16, Revision C.01,
 M. J. Frisch, G. W. Trucks, H. B. Schlegel, G. E. Scuseria, 
 M. A. Robb, J. R. Cheeseman, G. Scalmani, V. Barone, 
 G. A. Petersson, H. Nakatsuji, X. Li, M. Caricato, A. V. Marenich, 
 J. Bloino, B. G. Janesko, R. Gomperts, B. Mennucci, H. P. Hratchian, 
 J. V. Ortiz, A. F. Izmaylov, J. L. Sonnenberg, D. Williams-Young, 
 F. Ding, F. Lipparini, F. Egidi, J. Goings, B. Peng, A. Petrone, 
 T. Henderson, D. Ranasinghe, V. G. Zakrzewski, J. Gao, N. Rega, 
 G. Zheng, W. Liang, M. Hada, M. Ehara, K. Toyota, R. Fukuda, 
 J. Hasegawa, M. Ishida, T. Nakajima, Y. Honda, O. Kitao, H. Nakai, 
 T. Vreven, K. Throssell, J. A. Montgomery, Jr., J. E. Peralta, 
 F. Ogliaro, M. J. Bearpark, J. J. Heyd, E. N. Brothers, K. N. Kudin, 
 V. N. Staroverov, T. A. Keith, R. Kobayashi, J. Normand, 
 K. Raghavachari, A. P. Rendell, J. C. Burant, S. S. Iyengar, 
 J. Tomasi, M. Cossi, J. M. Millam, M. Klene, C. Adamo, R. Cammi, 
 J. W. Ochterski, R. L. Martin, K. Morokuma, O. Farkas, 
 J. B. Foresman, and D. J. Fox, Gaussian, Inc., Wallingford CT, 2019.
 
 ******************************************
 Gaussian 16:  ES64L-G16RevC.01  3-Jul-2019
                13-Jul-2020 
 ******************************************
 %chk=config_1_5.chk
 %mem=58GB
 %nprocshared=10
 Will use up to   10 processors via shared memory.
 ----------------------------------------------------------------------
 #p opt=addgic freq td wb97xd/cc-pvdz nosymm int=ultrafine scrf=(solven
 t=CarbonTetraChloride)
 ----------------------------------------------------------------------
 1/18=20,19=15,26=6,38=1,145=903/1,3;
 2/9=110,12=2,15=1,17=6,18=5,40=1/2;
 3/5=16,11=9,25=1,30=1,70=2201,71=1,72=11,74=-58,75=-5/1,2,3,8;
 4//1;
 5/5=2,38=5,53=11/2;
 8/6=1,10=1/1;
 9/15=2,42=1,70=2/14;
 10/5=4,31=1/2;
 6/7=2,8=2,9=2,10=2/1;
 7/12=6,13=5,30=1/1,2,3,16;
 1/18=20,19=15,26=6,145=903/3(2);
 2/9=110,15=1/2;
 99//99;
 2/9=110,15=1/2;
 3/5=16,11=9,25=1,30=1,70=2205,71=1,72=11,74=-58,75=-5/1,2,3,8;
 4/5=5,16=3,69=1/1;
 5/5=2,38=5,53=11/2;
 8/6=1,10=1/1;
 9/15=2,42=1,49=4,70=2/14;
 10/5=4,31=1/2;
 7/12=6,13=5,30=1/1,2,3,16;
 1/18=20,19=15,26=6,145=903/3(-8);
 2/9=110,15=1/2;
 6/7=2,8=2,9=2,10=2/1;
 99/9=10/99;
 Leave Link    1 at Mon Jul 13 19:48:31 2020, MaxMem=  7784628224 cpu:               4.3 elap:               0.5
 (Enter /gpfs/loomis/apps/avx/software/Gaussian/16-C.01_AVX/g16/l101.exe)
 ------------------------------------------------
 NM 2D-scan of HBT TD-WB97XD pVDZ in CTC Relaxed.
 ------------------------------------------------
 Symbolic Z-matrix:
 Charge =  0 Multiplicity = 1
 C                     1.70337  -3.27516  -0.00002 
 C                     0.99138  -2.07958  -0.00002 
 C                     1.66996  -0.81779  -0.00002 
 C                     3.10021  -0.79393  -0.00002 
 C                     3.78606  -1.98753  -0.00002 
 C                     3.09938  -3.22483  -0.00002 
 H                     1.1857   -4.23621  -0.00002 
 H                     3.61111   0.17093  -0.00002 
 H                     4.87824  -1.98644  -0.00002 
 H                     3.66821  -4.15655  -0.00002 
 N                     0.90236   0.2464   -0.00002 
 S                    -0.74303  -1.79964  -0.00002 
 C                    -1.3832    1.00373   0. 
 C                    -2.80998   0.8602   -0.00001 
 C                    -0.89827   2.39822   0.00003 
 C                    -3.64024   1.96068   0.00002 
 H                    -3.23039  -0.146    -0.00003 
 C                    -1.76116   3.4963    0.00006 
 C                    -3.13344   3.29271   0.00006 
 H                    -4.7221    1.81048   0.00002 
 H                    -1.32339   4.49525   0.00008 
 H                    -3.81893   4.14075   0.00008 
 C                    -0.42807  -0.03065  -0.00001 
 O                     0.41183   2.63763   0.00003 
 H                     0.72502   2.16078   0.00003 
 
 Initializing the GIC definitions file.
 Number of initial coordinates =   131
 Number of input entries/lines =    52
 Number of additional coordinates =     2
 Number of removed coordinates =     0
 Number of frozen coordinates =     2
 Number of final active and frozen coordinates =   133
 ITRead=  0  0  0  0  0  0  0  0  0  0  0  0  0  0  0  0  0  0  0  0
 ITRead=  0  0  0  0  0
 MicOpt= -1 -1 -1 -1 -1 -1 -1 -1 -1 -1 -1 -1 -1 -1 -1 -1 -1 -1 -1 -1
 MicOpt= -1 -1 -1 -1 -1
 NAtoms=     25 NQM=       25 NQMF=       0 NMMI=      0 NMMIF=      0
                NMic=       0 NMicF=      0.
                    Isotopes and Nuclear Properties:
 (Nuclear quadrupole moments (NQMom) in fm**2, nuclear magnetic moments (NMagM)
  in nuclear magnetons)

  Atom         1           2           3           4           5           6           7           8           9          10
 IAtWgt=          12          12          12          12          12          12           1           1           1           1
 AtmWgt=  12.0000000  12.0000000  12.0000000  12.0000000  12.0000000  12.0000000   1.0078250   1.0078250   1.0078250   1.0078250
 NucSpn=           0           0           0           0           0           0           1           1           1           1
 AtZEff=  -0.0000000  -0.0000000  -0.0000000  -0.0000000  -0.0000000  -0.0000000  -0.0000000  -0.0000000  -0.0000000  -0.0000000
 NQMom=    0.0000000   0.0000000   0.0000000   0.0000000   0.0000000   0.0000000   0.0000000   0.0000000   0.0000000   0.0000000
 NMagM=    0.0000000   0.0000000   0.0000000   0.0000000   0.0000000   0.0000000   2.7928460   2.7928460   2.7928460   2.7928460
 AtZNuc=   6.0000000   6.0000000   6.0000000   6.0000000   6.0000000   6.0000000   1.0000000   1.0000000   1.0000000   1.0000000

  Atom        11          12          13          14          15          16          17          18          19          20
 IAtWgt=          14          32          12          12          12          12           1          12          12           1
 AtmWgt=  14.0030740  31.9720718  12.0000000  12.0000000  12.0000000  12.0000000   1.0078250  12.0000000  12.0000000   1.0078250
 NucSpn=           2           0           0           0           0           0           1           0           0           1
 AtZEff=  -0.0000000  -0.0000000  -0.0000000  -0.0000000  -0.0000000  -0.0000000  -0.0000000  -0.0000000  -0.0000000  -0.0000000
 NQMom=    2.0440000   0.0000000   0.0000000   0.0000000   0.0000000   0.0000000   0.0000000   0.0000000   0.0000000   0.0000000
 NMagM=    0.4037610   0.0000000   0.0000000   0.0000000   0.0000000   0.0000000   2.7928460   0.0000000   0.0000000   2.7928460
 AtZNuc=   7.0000000  16.0000000   6.0000000   6.0000000   6.0000000   6.0000000   1.0000000   6.0000000   6.0000000   1.0000000

  Atom        21          22          23          24          25
 IAtWgt=           1           1          12          16           1
 AtmWgt=   1.0078250   1.0078250  12.0000000  15.9949146   1.0078250
 NucSpn=           1           1           0           0           1
 AtZEff=  -0.0000000  -0.0000000  -0.0000000  -0.0000000  -0.0000000
 NQMom=    0.0000000   0.0000000   0.0000000   0.0000000   0.0000000
 NMagM=    2.7928460   2.7928460   0.0000000   0.0000000   2.7928460
 AtZNuc=   1.0000000   1.0000000   6.0000000   8.0000000   1.0000000
 Leave Link  101 at Mon Jul 13 19:48:34 2020, MaxMem=  7784628224 cpu:              31.7 elap:               3.2
 (Enter /gpfs/loomis/apps/avx/software/Gaussian/16-C.01_AVX/g16/l103.exe)

 GradGradGradGradGradGradGradGradGradGradGradGradGradGradGradGradGradGrad
 Berny optimization.
 Initialization pass.
                           ----------------------------
                           !    Initial Parameters    !
                           ! (Angstroms and Degrees)  !
 --------------------------                            --------------------------
 ! Name  Definition              Value          Derivative Info.                !
 --------------------------------------------------------------------------------
 ! R1    R(1,2)                  1.3915         estimate D2E/DX2                !
 ! R2    R(1,6)                  1.3969         estimate D2E/DX2                !
 ! R3    R(1,7)                  1.0916         estimate D2E/DX2                !
 ! R4    R(2,3)                  1.4327         estimate D2E/DX2                !
 ! R5    R(2,12)                 1.7569         estimate D2E/DX2                !
 ! R6    R(3,4)                  1.4305         estimate D2E/DX2                !
 ! R7    R(3,11)                 1.3121         estimate D2E/DX2                !
 ! R8    R(4,5)                  1.3766         estimate D2E/DX2                !
 ! R9    R(4,8)                  1.0918         estimate D2E/DX2                !
 ! R10   R(5,6)                  1.4151         estimate D2E/DX2                !
 ! R11   R(5,9)                  1.0922         estimate D2E/DX2                !
 ! R12   R(6,10)                 1.0916         estimate D2E/DX2                !
 ! R13   R(11,23)                1.359          estimate D2E/DX2                !
 ! R14   R(12,23)                1.7968         estimate D2E/DX2                !
 ! R15   R(13,14)                1.434          estimate D2E/DX2                !
 ! R16   R(13,15)                1.4764         estimate D2E/DX2                !
 ! R17   R(13,23)                1.4079         estimate D2E/DX2                !
 ! R18   R(14,16)                1.3785         estimate D2E/DX2                !
 ! R19   R(14,17)                1.0905         estimate D2E/DX2                !
 ! R20   R(15,18)                1.3965         estimate D2E/DX2                !
 ! R21   R(15,24)                1.3318         estimate D2E/DX2                !
 ! R22   R(16,19)                1.4252         estimate D2E/DX2                !
 ! R23   R(16,20)                1.0922         estimate D2E/DX2                !
 ! R24   R(18,19)                1.3873         estimate D2E/DX2                !
 ! R25   R(18,21)                1.0907         estimate D2E/DX2                !
 ! R26   R(19,22)                1.0904         estimate D2E/DX2                !
 ! R27   R(24,25)                0.5705         estimate D2E/DX2                !
 ! A1    A(2,1,6)              118.7097         estimate D2E/DX2                !
 ! A2    A(2,1,7)              120.9166         estimate D2E/DX2                !
 ! A3    A(6,1,7)              120.3737         estimate D2E/DX2                !
 ! A4    A(1,2,3)              120.955          estimate D2E/DX2                !
 ! A5    A(1,2,12)             129.9433         estimate D2E/DX2                !
 ! A6    A(3,2,12)             109.1017         estimate D2E/DX2                !
 ! A7    A(2,3,4)              119.2262         estimate D2E/DX2                !
 ! A8    A(2,3,11)             115.9265         estimate D2E/DX2                !
 ! A9    A(4,3,11)             124.8472         estimate D2E/DX2                !
 ! A10   A(3,4,5)              118.9263         estimate D2E/DX2                !
 ! A11   A(3,4,8)              118.8573         estimate D2E/DX2                !
 ! A12   A(5,4,8)              122.2164         estimate D2E/DX2                !
 ! A13   A(4,5,6)              121.0883         estimate D2E/DX2                !
 ! A14   A(4,5,9)              119.8249         estimate D2E/DX2                !
 ! A15   A(6,5,9)              119.0868         estimate D2E/DX2                !
 ! A16   A(1,6,5)              121.0944         estimate D2E/DX2                !
 ! A17   A(1,6,10)             119.3396         estimate D2E/DX2                !
 ! A18   A(5,6,10)             119.566          estimate D2E/DX2                !
 ! A19   A(3,11,23)            114.04           estimate D2E/DX2                !
 ! A20   A(2,12,23)             89.0735         estimate D2E/DX2                !
 ! A21   A(14,13,15)           114.9197         estimate D2E/DX2                !
 ! A22   A(14,13,23)           126.9743         estimate D2E/DX2                !
 ! A23   A(15,13,23)           118.106          estimate D2E/DX2                !
 ! A24   A(13,14,16)           121.2881         estimate D2E/DX2                !
 ! A25   A(13,14,17)           118.4208         estimate D2E/DX2                !
 ! A26   A(16,14,17)           120.2911         estimate D2E/DX2                !
 ! A27   A(13,15,18)           122.6639         estimate D2E/DX2                !
 ! A28   A(13,15,24)           119.5313         estimate D2E/DX2                !
 ! A29   A(18,15,24)           117.8048         estimate D2E/DX2                !
 ! A30   A(14,16,19)           122.1368         estimate D2E/DX2                !
 ! A31   A(14,16,20)           119.1283         estimate D2E/DX2                !
 ! A32   A(19,16,20)           118.7349         estimate D2E/DX2                !
 ! A33   A(15,18,19)           119.7222         estimate D2E/DX2                !
 ! A34   A(15,18,21)           118.1749         estimate D2E/DX2                !
 ! A35   A(19,18,21)           122.103          estimate D2E/DX2                !
 ! A36   A(16,19,18)           119.2693         estimate D2E/DX2                !
 ! A37   A(16,19,22)           120.2201         estimate D2E/DX2                !
 ! A38   A(18,19,22)           120.5106         estimate D2E/DX2                !
 ! A39   A(11,23,12)           111.8583         estimate D2E/DX2                !
 ! A40   A(11,23,13)           120.956          estimate D2E/DX2                !
 ! A41   A(12,23,13)           127.1857         estimate D2E/DX2                !
 ! A42   A(15,24,25)           112.9407         estimate D2E/DX2                !
 ! D1    D(6,1,2,3)              0.0001         estimate D2E/DX2                !
 ! D2    D(6,1,2,12)          -179.9999         estimate D2E/DX2                !
 ! D3    D(7,1,2,3)            180.0            estimate D2E/DX2                !
 ! D4    D(7,1,2,12)             0.0            estimate D2E/DX2                !
 ! D5    D(2,1,6,5)              0.0            estimate D2E/DX2                !
 ! D6    D(2,1,6,10)           180.0            estimate D2E/DX2                !
 ! D7    D(7,1,6,5)           -179.9999         estimate D2E/DX2                !
 ! D8    D(7,1,6,10)             0.0            estimate D2E/DX2                !
 ! D9    D(1,2,3,4)             -0.0001         estimate D2E/DX2                !
 ! D10   D(1,2,3,11)           179.9999         estimate D2E/DX2                !
 ! D11   D(12,2,3,4)           179.9999         estimate D2E/DX2                !
 ! D12   D(12,2,3,11)            0.0            estimate D2E/DX2                !
 ! D13   D(1,2,12,23)          179.9999         estimate D2E/DX2                !
 ! D14   D(3,2,12,23)           -0.0001         estimate D2E/DX2                !
 ! D15   D(2,3,4,5)              0.0            estimate D2E/DX2                !
 ! D16   D(2,3,4,8)           -180.0            estimate D2E/DX2                !
 ! D17   D(11,3,4,5)          -180.0            estimate D2E/DX2                !
 ! D18   D(11,3,4,8)             0.0            estimate D2E/DX2                !
 ! D19   D(2,3,11,23)            0.0002         estimate D2E/DX2                !
 ! D20   D(4,3,11,23)         -179.9998         estimate D2E/DX2                !
 ! D21   D(3,4,5,6)              0.0            estimate D2E/DX2                !
 ! D22   D(3,4,5,9)           -180.0            estimate D2E/DX2                !
 ! D23   D(8,4,5,6)           -180.0            estimate D2E/DX2                !
 ! D24   D(8,4,5,9)              0.0            estimate D2E/DX2                !
 ! D25   D(4,5,6,1)              0.0            estimate D2E/DX2                !
 ! D26   D(4,5,6,10)           180.0            estimate D2E/DX2                !
 ! D27   D(9,5,6,1)            180.0            estimate D2E/DX2                !
 ! D28   D(9,5,6,10)             0.0            estimate D2E/DX2                !
 ! D29   D(3,11,23,12)          -0.0003         estimate D2E/DX2                !
 ! D30   D(3,11,23,13)         179.9993         estimate D2E/DX2                !
 ! D31   D(2,12,23,11)           0.0002         estimate D2E/DX2                !
 ! D32   D(2,12,23,13)        -179.9994         estimate D2E/DX2                !
 ! D33   D(15,13,14,16)         -0.0004         estimate D2E/DX2                !
 ! D34   D(15,13,14,17)        179.9997         estimate D2E/DX2                !
 ! D35   D(23,13,14,16)        179.9995         estimate D2E/DX2                !
 ! D36   D(23,13,14,17)         -0.0004         estimate D2E/DX2                !
 ! D37   D(14,13,15,18)          0.0004         estimate D2E/DX2                !
 ! D38   D(14,13,15,24)       -179.9997         estimate D2E/DX2                !
 ! D39   D(23,13,15,18)       -179.9994         estimate D2E/DX2                !
 ! D40   D(23,13,15,24)          0.0004         estimate D2E/DX2                !
 ! D41   D(14,13,23,11)        179.9993         estimate D2E/DX2                !
 ! D42   D(14,13,23,12)         -0.0011         estimate D2E/DX2                !
 ! D43   D(15,13,23,11)         -0.0008         estimate D2E/DX2                !
 ! D44   D(15,13,23,12)        179.9987         estimate D2E/DX2                !
 ! D45   D(13,14,16,19)          0.0001         estimate D2E/DX2                !
 ! D46   D(13,14,16,20)       -179.9999         estimate D2E/DX2                !
 ! D47   D(17,14,16,19)        180.0            estimate D2E/DX2                !
 ! D48   D(17,14,16,20)          0.0            estimate D2E/DX2                !
 ! D49   D(13,15,18,19)         -0.0002         estimate D2E/DX2                !
 ! D50   D(13,15,18,21)        179.9998         estimate D2E/DX2                !
 ! D51   D(24,15,18,19)        180.0            estimate D2E/DX2                !
 ! D52   D(24,15,18,21)          0.0            estimate D2E/DX2                !
 ! D53   D(13,15,24,25)         -0.0004         estimate D2E/DX2                !
 ! D54   D(18,15,24,25)        179.9995         estimate D2E/DX2                !
 ! D55   D(14,16,19,18)          0.0002         estimate D2E/DX2                !
 ! D56   D(14,16,19,22)       -179.9998         estimate D2E/DX2                !
 ! D57   D(20,16,19,18)       -179.9998         estimate D2E/DX2                !
 ! D58   D(20,16,19,22)          0.0001         estimate D2E/DX2                !
 ! D59   D(15,18,19,16)         -0.0002         estimate D2E/DX2                !
 ! D60   D(15,18,19,22)        179.9999         estimate D2E/DX2                !
 ! D61   D(21,18,19,16)        179.9998         estimate D2E/DX2                !
 ! D62   D(21,18,19,22)         -0.0001         estimate D2E/DX2                !
 ! Qtot  GIC-1                 -50.0            Frozen                          !
 ! Ptot  GIC-2                 -60.0            Frozen                          !
 --------------------------------------------------------------------------------
 NOTE: GIC-type coordinates are in arbitrary units.
 Trust Radius=3.00D-01 FncErr=5.00D-06 GrdErr=5.00D-06 EigMax=2.50D+02 EigMin=1.00D-04
 Number of steps in this run=    143 maximum allowed number of steps=    150.
 GradGradGradGradGradGradGradGradGradGradGradGradGradGradGradGradGradGrad

 Leave Link  103 at Mon Jul 13 19:48:34 2020, MaxMem=  7784628224 cpu:               0.1 elap:               0.0
 (Enter /gpfs/loomis/apps/avx/software/Gaussian/16-C.01_AVX/g16/l202.exe)
                          Input orientation:                          
 ---------------------------------------------------------------------
 Center     Atomic      Atomic             Coordinates (Angstroms)
 Number     Number       Type             X           Y           Z
 ---------------------------------------------------------------------
      1          6           0        1.703367   -3.275156   -0.000023
      2          6           0        0.991385   -2.079583   -0.000021
      3          6           0        1.669957   -0.817786   -0.000021
      4          6           0        3.100212   -0.793928   -0.000021
      5          6           0        3.786064   -1.987529   -0.000022
      6          6           0        3.099381   -3.224826   -0.000023
      7          1           0        1.185701   -4.236207   -0.000023
      8          1           0        3.611111    0.170926   -0.000020
      9          1           0        4.878240   -1.986441   -0.000022
     10          1           0        3.668207   -4.156553   -0.000025
     11          7           0        0.902365    0.246395   -0.000020
     12         16           0       -0.743031   -1.799636   -0.000019
     13          6           0       -1.383203    1.003731    0.000001
     14          6           0       -2.809977    0.860200   -0.000005
     15          6           0       -0.898268    2.398220    0.000031
     16          6           0       -3.640236    1.960683    0.000023
     17          1           0       -3.230389   -0.145999   -0.000031
     18          6           0       -1.761157    3.496295    0.000060
     19          6           0       -3.133436    3.292706    0.000058
     20          1           0       -4.722101    1.810478    0.000019
     21          1           0       -1.323392    4.495246    0.000083
     22          1           0       -3.818926    4.140745    0.000083
     23          6           0       -0.428073   -0.030649   -0.000015
     24          8           0        0.411825    2.637629    0.000033
     25          1           0        0.725018    2.160780    0.000025
 ---------------------------------------------------------------------
                    Distance matrix (angstroms):
                    1          2          3          4          5
     1  C    0.000000
     2  C    1.391515   0.000000
     3  C    2.457597   1.432687   0.000000
     4  C    2.847397   2.469830   1.430454   0.000000
     5  C    2.448593   2.796195   2.417893   1.376618   0.000000
     6  C    1.396921   2.399006   2.799482   2.430898   1.415075
     7  H    1.091603   2.165361   3.452551   3.938863   3.437796
     8  H    3.938904   3.453658   2.178446   1.091769   2.165534
     9  H    3.426457   3.887971   3.414504   2.140905   1.092177
    10  H    2.153475   3.388093   3.891062   3.410258   2.172223
    11  N    3.611499   2.327681   1.312128   2.431626   3.647758
    12  S    2.856925   1.756864   2.605100   3.972652   4.532991
    13  C    5.275963   3.891721   3.555237   4.830381   5.972349
    14  C    6.121392   4.805484   4.783874   6.137302   7.184519
    15  C    6.241450   4.860196   4.115637   5.116410   6.416990
    16  C    7.481183   6.146191   5.993166   7.281588   8.410607
    17  H    5.842394   4.643503   4.946179   6.363672   7.254091
    18  C    7.606279   6.218272   5.512154   6.483743   7.800256
    19  C    8.156682   6.773155   6.322083   7.453787   8.704043
    20  H    8.194529   6.912054   6.911308   8.244484   9.317388
    21  H    8.339090   6.970407   6.098234   6.895190   8.254267
    22  H    9.246151   7.863306   7.396950   8.498557   9.766863
    23  C    3.881992   2.492587   2.240829   3.609902   4.646325
    24  O    6.052199   4.752681   3.677334   4.359244   5.725170
    25  H    5.523275   4.248721   3.124863   3.791022   5.155431
                    6          7          8          9         10
     6  C    0.000000
     7  H    2.164501   0.000000
     8  H    3.434094   5.030451   0.000000
     9  H    2.167473   4.323922   2.501969   0.000000
    10  H    1.091639   2.483783   4.327855   2.484666   0.000000
    11  N    4.108073   4.491548   2.709798   4.559950   5.199599
    12  S    4.098207   3.107553   4.779296   5.624375   5.001407
    13  C    6.162326   5.835771   5.063273   6.938790   7.221168
    14  C    7.183868   6.476018   6.457978   8.198296   8.193575
    15  C    6.899264   6.954031   5.029447   7.252124   7.988600
    16  C    8.503643   7.854369   7.468953   9.388516   9.530682
    17  H    7.038833   6.019273   6.848837   8.314872   7.979672
    18  C    8.294474   8.274996   6.318176   8.610575   9.383180
    19  C    9.018106   8.679832   7.431987   9.594600  10.087309
    20  H    9.302143   8.453669   8.492971  10.323911  10.295762
    21  H    8.897216   9.084813   6.561179   8.970648   9.988478
    22  H   10.105178   9.758054   8.424068  10.638756  11.175970
    23  C    4.758750   4.504552   4.044211   5.655271   5.813999
    24  O    6.449135   6.917262   4.039809   6.428910   7.534250
    25  H    5.885776   6.413554   3.505575   5.869302   6.969294
                   11         12         13         14         15
    11  N    0.000000
    12  S    2.625561   0.000000
    13  C    2.407774   2.875532   0.000000
    14  C    3.762744   3.368530   1.433976   0.000000
    15  C    2.805820   4.200725   1.476401   2.453597   0.000000
    16  C    4.855307   4.746977   2.451521   1.378547   2.776657
    17  H    4.151340   2.986882   2.175771   1.090497   3.451353
    18  C    4.201928   5.392909   2.521056   2.837080   1.396548
    19  C    5.056451   5.625476   2.881444   2.453917   2.407505
    20  H    5.837891   5.372701   3.434979   2.135239   3.868739
    21  H    4.796533   6.321579   3.492027   3.927276   2.139685
    22  H    6.120176   6.689489   3.971600   3.432194   3.400976
    23  C    1.358977   1.796806   1.407911   2.543045   2.473962
    24  O    2.441030   4.585086   2.427292   3.679574   1.331789
    25  H    1.922582   4.223750   2.404861   3.766657   1.640560
                   16         17         18         19         20
    16  C    0.000000
    17  H    2.146179   0.000000
    18  C    2.426735   3.927461   0.000000
    19  C    1.425177   3.440071   1.387299   0.000000
    20  H    1.092243   2.460286   3.407223   2.172753   0.000000
    21  H    3.433915   5.017748   1.090661   2.173100   4.331190
    22  H    2.187373   4.326957   2.156323   1.090444   2.499174
    23  C    3.779337   2.804689   3.770470   4.285286   4.672090
    24  O    4.108218   4.584137   2.336485   3.605275   5.200133
    25  H    4.369837   4.578917   2.822174   4.021060   5.458371
                   21         22         23         24         25
    21  H    0.000000
    22  H    2.520587   0.000000
    23  C    4.613602   5.375724   0.000000
    24  O    2.541992   4.489835   2.797345   0.000000
    25  H    3.105756   4.956581   2.476284   0.570504   0.000000
 Symmetry turned off by external request.
 Stoichiometry    C13H9NOS
 Framework group  C1[X(C13H9NOS)]
 Deg. of freedom    69
 Full point group                 C1      NOp   1
 Rotational constants (GHZ):           1.3522926           0.2857414           0.2358962
 Leave Link  202 at Mon Jul 13 19:48:34 2020, MaxMem=  7784628224 cpu:               0.1 elap:               0.0
 (Enter /gpfs/loomis/apps/avx/software/Gaussian/16-C.01_AVX/g16/l301.exe)
 Standard basis: CC-pVDZ (5D, 7F)
 Ernie: Thresh=  0.10000D-02 Tol=  0.10000D-05 Strict=F.
 Ernie:  40 primitive shells out of 425 were deleted.
   273 basis functions,   629 primitive gaussians,   289 cartesian basis functions
    59 alpha electrons       59 beta electrons
       nuclear repulsion energy      1098.0622297962 Hartrees.
 IExCor= 4639 DFT=T Ex+Corr=wB97XD ExCW=0 ScaHFX=  1.000000
 ScaDFX=  1.000000  1.000000  1.000000  1.000000 ScalE2=  1.000000  1.000000
 IRadAn=      5 IRanWt=     -1 IRanGd=            0 ICorTp=0 IEmpDi=121
 HFx  wShort=  0.000000 wLong=  0.200000 cFull=  0.222036 cShort=  0.000000 cLong=  0.777964
 DFx  wShort=  0.000000 wLong=  0.200000 cFull=  0.000000 cShort=  0.000000 cLong=  1.000000
 NAtoms=   25 NActive=   25 NUniq=   25 SFac= 1.00D+00 NAtFMM=   60 NAOKFM=F Big=F
 Integral buffers will be    131072 words long.
 Raffenetti 1 integral format.
 Two-electron integral symmetry is turned off.
 R6Disp:  Grimme-D2 Dispersion energy=       -0.0139913466 Hartrees.
 Nuclear repulsion after empirical dispersion term =     1098.0482384497 Hartrees.
 ------------------------------------------------------------------------------
 Polarizable Continuum Model (PCM)
 =================================
 Model                : PCM.
 Atomic radii         : UFF (Universal Force Field).
 Polarization charges : Total charges.
 Charge compensation  : None.
 Solution method      : On-the-fly selection.
 Cavity type          : Scaled VdW (van der Waals Surface) (Alpha=1.100).
 Cavity algorithm     : GePol (No added spheres)
                        Default sphere list used, NSphG=   25.
                        Lebedev-Laikov grids with approx.  5.0 points / Ang**2.
                        Smoothing algorithm: York/Karplus (Gamma=1.0000).
                        Polarization charges: spherical gaussians, with
                                              point-specific exponents (IZeta= 3).
                        Self-potential: point-specific (ISelfS= 7).
                        Self-field    : sphere-specific E.n sum rule (ISelfD= 2).
 1st derivatives      : Analytical E(r).r(x)/FMM algorithm (CHGder, D1EAlg=3).
                        Cavity 1st derivative terms included.
 Solvent              : CarbonTetraChloride, Eps=   2.228000 Eps(inf)=   2.131892
 ------------------------------------------------------------------------------
 GePol: Number of generator spheres                  =      25
 GePol: Total number of spheres                      =      25
 GePol: Number of exposed spheres                    =      25 (100.00%)
 GePol: Number of points                             =    2197
 GePol: Average weight of points                     =       0.13
 GePol: Minimum weight of points                     =   0.67D-10
 GePol: Maximum weight of points                     =    0.20577
 GePol: Number of points with low weight             =     151
 GePol: Fraction of low-weight points (<1% of avg)   =       6.87%
 GePol: Cavity surface area                          =    275.333 Ang**2
 GePol: Cavity volume                                =    294.024 Ang**3
 Leave Link  301 at Mon Jul 13 19:48:34 2020, MaxMem=  7784628224 cpu:               0.8 elap:               0.1
 (Enter /gpfs/loomis/apps/avx/software/Gaussian/16-C.01_AVX/g16/l302.exe)
 NPDir=0 NMtPBC=     1 NCelOv=     1 NCel=       1 NClECP=     1 NCelD=      1
         NCelK=      1 NCelE2=     1 NClLst=     1 CellRange=     0.0.
 One-electron integrals computed using PRISM.
 NBasis=   273 RedAO= T EigKep=  3.17D-04  NBF=   273
 NBsUse=   273 1.00D-06 EigRej= -1.00D+00 NBFU=   273
 Precomputing XC quadrature grid using
 IXCGrd= 4 IRadAn=           5 IRanWt=          -1 IRanGd=           0 AccXCQ= 0.00D+00.
 Generated NRdTot=       0 NPtTot=           0 NUsed=           0 NTot=          32
 NSgBfM=   288   288   288   288   288 MxSgAt=    25 MxSgA2=    25.
 Leave Link  302 at Mon Jul 13 19:48:34 2020, MaxMem=  7784628224 cpu:               2.5 elap:               0.3
 (Enter /gpfs/loomis/apps/avx/software/Gaussian/16-C.01_AVX/g16/l303.exe)
 DipDrv:  MaxL=1.
 Leave Link  303 at Mon Jul 13 19:48:34 2020, MaxMem=  7784628224 cpu:               0.4 elap:               0.1
 (Enter /gpfs/loomis/apps/avx/software/Gaussian/16-C.01_AVX/g16/l308.exe)
 Leave Link  308 at Mon Jul 13 19:48:34 2020, MaxMem=  7784628224 cpu:               0.5 elap:               0.1
 (Enter /gpfs/loomis/apps/avx/software/Gaussian/16-C.01_AVX/g16/l401.exe)
 ExpMin= 1.22D-01 ExpMax= 1.11D+05 ExpMxC= 1.07D+03 IAcc=3 IRadAn=         5 AccDes= 0.00D+00
 Harris functional with IExCor= 4639 and IRadAn=       5 diagonalized for initial guess.
 HarFok:  IExCor= 4639 AccDes= 0.00D+00 IRadAn=         5 IDoV= 1 UseB2=F ITyADJ=14
 ICtDFT=  3500011 ScaDFX=  1.000000  1.000000  1.000000  1.000000
 FoFCou: FMM=F IPFlag=           0 FMFlag=      100000 FMFlg1=           0
         NFxFlg=           0 DoJE=T BraDBF=F KetDBF=T FulRan=T
         wScrn=  0.000000 ICntrl=       500 IOpCl=  0 I1Cent=   200000004 NGrid=           0
         NMat0=    1 NMatS0=      1 NMatT0=    0 NMatD0=    1 NMtDS0=    0 NMtDT0=    0
 Symmetry not used in FoFCou.
 Harris En= -993.979309692642    
 JPrj=0 DoOrth=F DoCkMO=F.
 Leave Link  401 at Mon Jul 13 19:48:37 2020, MaxMem=  7784628224 cpu:              14.1 elap:               1.6
 (Enter /gpfs/loomis/apps/avx/software/Gaussian/16-C.01_AVX/g16/l502.exe)
 Two-electron integral symmetry not used.
 Closed shell SCF:
 Using DIIS extrapolation, IDIIS=  1040.
 NGot=  7784628224 LenX=  7784455381 LenY=  7784371419
 Requested convergence on RMS density matrix=1.00D-08 within 128 cycles.
 Requested convergence on MAX density matrix=1.00D-06.
 Requested convergence on             energy=1.00D-06.
 No special actions if energy rises.
 Fock matrices will be formed incrementally for  20 cycles.

 Cycle   1  Pass 1  IDiag  1:
 FoFJK:  IHMeth= 1 ICntrl=       0 DoSepK=T KAlg= 0 I1Cent=           0 FoldK=F
 IRaf=         1 NMat=       1 IRICut=       1 DoRegI=T DoRafI=F ISym2E= 0 IDoP0=0 IntGTp=1.
 FoFCou: FMM=F IPFlag=           0 FMFlag=      100000 FMFlg1=           0
         NFxFlg=           0 DoJE=T BraDBF=F KetDBF=F FulRan=T
         wScrn=  0.000000 ICntrl=       500 IOpCl=  0 I1Cent=           0 NGrid=           0
         NMat0=    1 NMatS0=      1 NMatT0=    0 NMatD0=    1 NMtDS0=    0 NMtDT0=    0
 Symmetry not used in FoFCou.
 Inv3:  Mode=1 IEnd=    14480427.
 Iteration    1 A*A^-1 deviation from unit magnitude is 4.66D-15 for   2178.
 Iteration    1 A*A^-1 deviation from orthogonality  is 2.65D-15 for   2154   1383.
 Iteration    1 A^-1*A deviation from unit magnitude is 4.66D-15 for   2178.
 Iteration    1 A^-1*A deviation from orthogonality  is 2.27D-15 for   2167   2026.
 E= -1028.12695826384    
 DIIS: error= 3.27D-02 at cycle   1 NSaved=   1.
 NSaved= 1 IEnMin= 1 EnMin= -1028.12695826384     IErMin= 1 ErrMin= 3.27D-02
 ErrMax= 3.27D-02  0.00D+00 EMaxC= 1.00D-01 BMatC= 3.92D-01 BMatP= 3.92D-01
 IDIUse=3 WtCom= 6.73D-01 WtEn= 3.27D-01
 Coeff-Com:  0.100D+01
 Coeff-En:   0.100D+01
 Coeff:      0.100D+01
 Gap=     0.368 Goal=   None    Shift=    0.000
 GapD=    0.368 DampG=1.000 DampE=0.500 DampFc=0.5000 IDamp=-1.
 Damping current iteration by 5.00D-01
 RMSDP=3.54D-03 MaxDP=2.30D-01              OVMax= 1.72D-01

 Cycle   2  Pass 1  IDiag  1:
 RMSU=  1.76D-03    CP:  9.93D-01
 E= -1028.24353622239     Delta-E=       -0.116577958552 Rises=F Damp=T
 DIIS: error= 1.07D-02 at cycle   2 NSaved=   2.
 NSaved= 2 IEnMin= 2 EnMin= -1028.24353622239     IErMin= 2 ErrMin= 1.07D-02
 ErrMax= 1.07D-02  0.00D+00 EMaxC= 1.00D-01 BMatC= 5.76D-02 BMatP= 3.92D-01
 IDIUse=3 WtCom= 8.93D-01 WtEn= 1.07D-01
 Coeff-Com: -0.292D+00 0.129D+01
 Coeff-En:   0.000D+00 0.100D+01
 Coeff:     -0.261D+00 0.126D+01
 Gap=     0.295 Goal=   None    Shift=    0.000
 RMSDP=1.18D-03 MaxDP=2.48D-02 DE=-1.17D-01 OVMax= 1.37D-01

 Cycle   3  Pass 1  IDiag  1:
 RMSU=  1.12D-03    CP:  9.89D-01  1.19D+00
 E= -1028.34626870096     Delta-E=       -0.102732478565 Rises=F Damp=F
 DIIS: error= 6.42D-03 at cycle   3 NSaved=   3.
 NSaved= 3 IEnMin= 3 EnMin= -1028.34626870096     IErMin= 3 ErrMin= 6.42D-03
 ErrMax= 6.42D-03  0.00D+00 EMaxC= 1.00D-01 BMatC= 1.41D-02 BMatP= 5.76D-02
 IDIUse=3 WtCom= 9.36D-01 WtEn= 6.42D-02
 Coeff-Com: -0.201D+00 0.488D+00 0.713D+00
 Coeff-En:   0.000D+00 0.000D+00 0.100D+01
 Coeff:     -0.188D+00 0.457D+00 0.732D+00
 Gap=     0.261 Goal=   None    Shift=    0.000
 RMSDP=5.22D-04 MaxDP=2.25D-02 DE=-1.03D-01 OVMax= 4.25D-02

 Cycle   4  Pass 1  IDiag  1:
 RMSU=  3.88D-04    CP:  9.88D-01  1.35D+00  8.27D-01
 E= -1028.35875693856     Delta-E=       -0.012488237605 Rises=F Damp=F
 DIIS: error= 2.69D-03 at cycle   4 NSaved=   4.
 NSaved= 4 IEnMin= 4 EnMin= -1028.35875693856     IErMin= 4 ErrMin= 2.69D-03
 ErrMax= 2.69D-03  0.00D+00 EMaxC= 1.00D-01 BMatC= 2.26D-03 BMatP= 1.41D-02
 IDIUse=3 WtCom= 9.73D-01 WtEn= 2.69D-02
 Coeff-Com: -0.799D-01 0.161D+00 0.374D+00 0.545D+00
 Coeff-En:   0.000D+00 0.000D+00 0.230D-01 0.977D+00
 Coeff:     -0.777D-01 0.157D+00 0.364D+00 0.557D+00
 Gap=     0.260 Goal=   None    Shift=    0.000
 RMSDP=1.78D-04 MaxDP=1.04D-02 DE=-1.25D-02 OVMax= 1.38D-02

 Cycle   5  Pass 1  IDiag  1:
 RMSU=  1.10D-04    CP:  9.87D-01  1.36D+00  9.08D-01  7.29D-01
 E= -1028.36101819147     Delta-E=       -0.002261252905 Rises=F Damp=F
 DIIS: error= 5.36D-04 at cycle   5 NSaved=   5.
 NSaved= 5 IEnMin= 5 EnMin= -1028.36101819147     IErMin= 5 ErrMin= 5.36D-04
 ErrMax= 5.36D-04  0.00D+00 EMaxC= 1.00D-01 BMatC= 8.60D-05 BMatP= 2.26D-03
 IDIUse=3 WtCom= 9.95D-01 WtEn= 5.36D-03
 Coeff-Com: -0.917D-02 0.125D-01 0.647D-01 0.202D+00 0.730D+00
 Coeff-En:   0.000D+00 0.000D+00 0.000D+00 0.000D+00 0.100D+01
 Coeff:     -0.912D-02 0.125D-01 0.643D-01 0.201D+00 0.732D+00
 Gap=     0.261 Goal=   None    Shift=    0.000
 RMSDP=4.98D-05 MaxDP=1.58D-03 DE=-2.26D-03 OVMax= 5.20D-03

 Cycle   6  Pass 1  IDiag  1:
 RMSU=  3.53D-05    CP:  9.87D-01  1.36D+00  9.20D-01  8.07D-01  1.03D+00
 E= -1028.36115168425     Delta-E=       -0.000133492789 Rises=F Damp=F
 DIIS: error= 1.76D-04 at cycle   6 NSaved=   6.
 NSaved= 6 IEnMin= 6 EnMin= -1028.36115168425     IErMin= 6 ErrMin= 1.76D-04
 ErrMax= 1.76D-04  0.00D+00 EMaxC= 1.00D-01 BMatC= 1.10D-05 BMatP= 8.60D-05
 IDIUse=3 WtCom= 9.98D-01 WtEn= 1.76D-03
 Coeff-Com:  0.140D-01-0.296D-01-0.544D-01-0.419D-01 0.207D+00 0.905D+00
 Coeff-En:   0.000D+00 0.000D+00 0.000D+00 0.000D+00 0.000D+00 0.100D+01
 Coeff:      0.140D-01-0.296D-01-0.543D-01-0.418D-01 0.207D+00 0.905D+00
 Gap=     0.261 Goal=   None    Shift=    0.000
 RMSDP=3.40D-05 MaxDP=1.60D-03 DE=-1.33D-04 OVMax= 3.10D-03

 Cycle   7  Pass 1  IDiag  1:
 RMSU=  1.82D-05    CP:  9.87D-01  1.36D+00  9.32D-01  8.47D-01  1.20D+00
                    CP:  1.19D+00
 E= -1028.36118382940     Delta-E=       -0.000032145144 Rises=F Damp=F
 DIIS: error= 1.28D-04 at cycle   7 NSaved=   7.
 NSaved= 7 IEnMin= 7 EnMin= -1028.36118382940     IErMin= 7 ErrMin= 1.28D-04
 ErrMax= 1.28D-04  0.00D+00 EMaxC= 1.00D-01 BMatC= 2.16D-06 BMatP= 1.10D-05
 IDIUse=3 WtCom= 9.99D-01 WtEn= 1.28D-03
 Coeff-Com:  0.675D-02-0.130D-01-0.298D-01-0.462D-01-0.390D-01 0.352D+00
 Coeff-Com:  0.769D+00
 Coeff-En:   0.000D+00 0.000D+00 0.000D+00 0.000D+00 0.000D+00 0.000D+00
 Coeff-En:   0.100D+01
 Coeff:      0.674D-02-0.130D-01-0.297D-01-0.461D-01-0.389D-01 0.352D+00
 Coeff:      0.769D+00
 Gap=     0.261 Goal=   None    Shift=    0.000
 RMSDP=1.19D-05 MaxDP=6.26D-04 DE=-3.21D-05 OVMax= 1.47D-03

 Cycle   8  Pass 1  IDiag  1:
 RMSU=  7.38D-06    CP:  9.87D-01  1.36D+00  9.34D-01  8.53D-01  1.24D+00
                    CP:  1.40D+00  1.09D+00
 E= -1028.36118905810     Delta-E=       -0.000005228704 Rises=F Damp=F
 DIIS: error= 3.66D-05 at cycle   8 NSaved=   8.
 NSaved= 8 IEnMin= 8 EnMin= -1028.36118905810     IErMin= 8 ErrMin= 3.66D-05
 ErrMax= 3.66D-05  0.00D+00 EMaxC= 1.00D-01 BMatC= 2.58D-07 BMatP= 2.16D-06
 IDIUse=1 WtCom= 1.00D+00 WtEn= 0.00D+00
 Coeff-Com: -0.492D-03 0.133D-02 0.979D-03-0.493D-02-0.401D-01-0.393D-01
 Coeff-Com:  0.225D+00 0.857D+00
 Coeff:     -0.492D-03 0.133D-02 0.979D-03-0.493D-02-0.401D-01-0.393D-01
 Coeff:      0.225D+00 0.857D+00
 Gap=     0.261 Goal=   None    Shift=    0.000
 RMSDP=4.79D-06 MaxDP=1.44D-04 DE=-5.23D-06 OVMax= 6.37D-04

 Cycle   9  Pass 1  IDiag  1:
 RMSU=  2.37D-06    CP:  9.87D-01  1.36D+00  9.35D-01  8.54D-01  1.25D+00
                    CP:  1.46D+00  1.27D+00  1.10D+00
 E= -1028.36118979101     Delta-E=       -0.000000732902 Rises=F Damp=F
 DIIS: error= 1.87D-05 at cycle   9 NSaved=   9.
 NSaved= 9 IEnMin= 9 EnMin= -1028.36118979101     IErMin= 9 ErrMin= 1.87D-05
 ErrMax= 1.87D-05  0.00D+00 EMaxC= 1.00D-01 BMatC= 4.96D-08 BMatP= 2.58D-07
 IDIUse=1 WtCom= 1.00D+00 WtEn= 0.00D+00
 Coeff-Com: -0.106D-02 0.213D-02 0.428D-02 0.484D-02-0.867D-02-0.634D-01
 Coeff-Com: -0.265D-01 0.312D+00 0.777D+00
 Coeff:     -0.106D-02 0.213D-02 0.428D-02 0.484D-02-0.867D-02-0.634D-01
 Coeff:     -0.265D-01 0.312D+00 0.777D+00
 Gap=     0.261 Goal=   None    Shift=    0.000
 RMSDP=1.98D-06 MaxDP=6.22D-05 DE=-7.33D-07 OVMax= 1.90D-04

 Cycle  10  Pass 1  IDiag  1:
 RMSU=  9.92D-07    CP:  9.87D-01  1.36D+00  9.34D-01  8.54D-01  1.25D+00
                    CP:  1.48D+00  1.31D+00  1.26D+00  1.06D+00
 E= -1028.36118991643     Delta-E=       -0.000000125421 Rises=F Damp=F
 DIIS: error= 7.00D-06 at cycle  10 NSaved=  10.
 NSaved=10 IEnMin=10 EnMin= -1028.36118991643     IErMin=10 ErrMin= 7.00D-06
 ErrMax= 7.00D-06  0.00D+00 EMaxC= 1.00D-01 BMatC= 7.75D-09 BMatP= 4.96D-08
 IDIUse=1 WtCom= 1.00D+00 WtEn= 0.00D+00
 Coeff-Com: -0.314D-03 0.589D-03 0.146D-02 0.280D-02 0.291D-02-0.201D-01
 Coeff-Com: -0.479D-01-0.185D-01 0.261D+00 0.818D+00
 Coeff:     -0.314D-03 0.589D-03 0.146D-02 0.280D-02 0.291D-02-0.201D-01
 Coeff:     -0.479D-01-0.185D-01 0.261D+00 0.818D+00
 Gap=     0.261 Goal=   None    Shift=    0.000
 RMSDP=9.03D-07 MaxDP=2.78D-05 DE=-1.25D-07 OVMax= 1.26D-04

 Cycle  11  Pass 1  IDiag  1:
 RMSU=  4.31D-07    CP:  9.87D-01  1.36D+00  9.34D-01  8.54D-01  1.25D+00
                    CP:  1.49D+00  1.34D+00  1.31D+00  1.25D+00  1.13D+00
 E= -1028.36118994253     Delta-E=       -0.000000026105 Rises=F Damp=F
 DIIS: error= 2.80D-06 at cycle  11 NSaved=  11.
 NSaved=11 IEnMin=11 EnMin= -1028.36118994253     IErMin=11 ErrMin= 2.80D-06
 ErrMax= 2.80D-06  0.00D+00 EMaxC= 1.00D-01 BMatC= 1.52D-09 BMatP= 7.75D-09
 IDIUse=1 WtCom= 1.00D+00 WtEn= 0.00D+00
 Coeff-Com:  0.115D-03-0.241D-03-0.392D-03-0.451D-05 0.233D-02 0.429D-02
 Coeff-Com: -0.857D-02-0.489D-01-0.598D-01 0.262D+00 0.849D+00
 Coeff:      0.115D-03-0.241D-03-0.392D-03-0.451D-05 0.233D-02 0.429D-02
 Coeff:     -0.857D-02-0.489D-01-0.598D-01 0.262D+00 0.849D+00
 Gap=     0.261 Goal=   None    Shift=    0.000
 RMSDP=3.87D-07 MaxDP=8.88D-06 DE=-2.61D-08 OVMax= 5.75D-05

 Cycle  12  Pass 1  IDiag  1:
 RMSU=  1.73D-07    CP:  9.87D-01  1.36D+00  9.34D-01  8.54D-01  1.25D+00
                    CP:  1.49D+00  1.34D+00  1.33D+00  1.32D+00  1.37D+00
                    CP:  1.13D+00
 E= -1028.36118994798     Delta-E=       -0.000000005445 Rises=F Damp=F
 DIIS: error= 1.15D-06 at cycle  12 NSaved=  12.
 NSaved=12 IEnMin=12 EnMin= -1028.36118994798     IErMin=12 ErrMin= 1.15D-06
 ErrMax= 1.15D-06  0.00D+00 EMaxC= 1.00D-01 BMatC= 2.95D-10 BMatP= 1.52D-09
 IDIUse=1 WtCom= 1.00D+00 WtEn= 0.00D+00
 Coeff-Com:  0.108D-03-0.212D-03-0.462D-03-0.596D-03 0.211D-03 0.584D-02
 Coeff-Com:  0.741D-02-0.109D-01-0.887D-01-0.981D-01 0.250D+00 0.936D+00
 Coeff:      0.108D-03-0.212D-03-0.462D-03-0.596D-03 0.211D-03 0.584D-02
 Coeff:      0.741D-02-0.109D-01-0.887D-01-0.981D-01 0.250D+00 0.936D+00
 Gap=     0.261 Goal=   None    Shift=    0.000
 RMSDP=2.21D-07 MaxDP=4.74D-06 DE=-5.45D-09 OVMax= 3.39D-05

 Cycle  13  Pass 1  IDiag  1:
 RMSU=  7.29D-08    CP:  9.87D-01  1.36D+00  9.34D-01  8.54D-01  1.25D+00
                    CP:  1.49D+00  1.34D+00  1.34D+00  1.36D+00  1.48D+00
                    CP:  1.42D+00  1.23D+00
 E= -1028.36118994936     Delta-E=       -0.000000001380 Rises=F Damp=F
 DIIS: error= 5.14D-07 at cycle  13 NSaved=  13.
 NSaved=13 IEnMin=13 EnMin= -1028.36118994936     IErMin=13 ErrMin= 5.14D-07
 ErrMax= 5.14D-07  0.00D+00 EMaxC= 1.00D-01 BMatC= 4.25D-11 BMatP= 2.95D-10
 IDIUse=1 WtCom= 1.00D+00 WtEn= 0.00D+00
 Coeff-Com:  0.981D-05-0.171D-04-0.593D-04-0.148D-03-0.235D-03 0.108D-02
 Coeff-Com:  0.351D-02 0.607D-02-0.166D-01-0.685D-01-0.838D-01 0.254D+00
 Coeff-Com:  0.905D+00
 Coeff:      0.981D-05-0.171D-04-0.593D-04-0.148D-03-0.235D-03 0.108D-02
 Coeff:      0.351D-02 0.607D-02-0.166D-01-0.685D-01-0.838D-01 0.254D+00
 Coeff:      0.905D+00
 Gap=     0.261 Goal=   None    Shift=    0.000
 RMSDP=7.70D-08 MaxDP=1.99D-06 DE=-1.38D-09 OVMax= 1.04D-05

 Cycle  14  Pass 1  IDiag  1:
 RMSU=  2.79D-08    CP:  9.87D-01  1.36D+00  9.34D-01  8.54D-01  1.25D+00
                    CP:  1.49D+00  1.34D+00  1.34D+00  1.37D+00  1.52D+00
                    CP:  1.50D+00  1.46D+00  1.20D+00
 E= -1028.36118994951     Delta-E=       -0.000000000156 Rises=F Damp=F
 DIIS: error= 1.39D-07 at cycle  14 NSaved=  14.
 NSaved=14 IEnMin=14 EnMin= -1028.36118994951     IErMin=14 ErrMin= 1.39D-07
 ErrMax= 1.39D-07  0.00D+00 EMaxC= 1.00D-01 BMatC= 7.40D-12 BMatP= 4.25D-11
 IDIUse=1 WtCom= 1.00D+00 WtEn= 0.00D+00
 Coeff-Com: -0.106D-04 0.218D-04 0.391D-04 0.243D-04-0.112D-03-0.379D-03
 Coeff-Com:  0.179D-03 0.371D-02 0.557D-02-0.925D-02-0.642D-01-0.274D-01
 Coeff-Com:  0.362D+00 0.729D+00
 Coeff:     -0.106D-04 0.218D-04 0.391D-04 0.243D-04-0.112D-03-0.379D-03
 Coeff:      0.179D-03 0.371D-02 0.557D-02-0.925D-02-0.642D-01-0.274D-01
 Coeff:      0.362D+00 0.729D+00
 Gap=     0.261 Goal=   None    Shift=    0.000
 RMSDP=1.83D-08 MaxDP=4.60D-07 DE=-1.56D-10 OVMax= 2.45D-06

 Cycle  15  Pass 1  IDiag  1:
 RMSU=  9.70D-09    CP:  9.87D-01  1.36D+00  9.34D-01  8.54D-01  1.25D+00
                    CP:  1.49D+00  1.34D+00  1.34D+00  1.37D+00  1.52D+00
                    CP:  1.52D+00  1.51D+00  1.34D+00  1.05D+00
 E= -1028.36118994953     Delta-E=       -0.000000000013 Rises=F Damp=F
 DIIS: error= 5.24D-08 at cycle  15 NSaved=  15.
 NSaved=15 IEnMin=15 EnMin= -1028.36118994953     IErMin=15 ErrMin= 5.24D-08
 ErrMax= 5.24D-08  0.00D+00 EMaxC= 1.00D-01 BMatC= 4.81D-13 BMatP= 7.40D-12
 IDIUse=1 WtCom= 1.00D+00 WtEn= 0.00D+00
 Coeff-Com: -0.307D-05 0.584D-05 0.152D-04 0.262D-04 0.657D-05-0.234D-03
 Coeff-Com: -0.475D-03-0.157D-03 0.305D-02 0.830D-02-0.807D-03-0.427D-01
 Coeff-Com: -0.583D-01 0.793D-01 0.101D+01
 Coeff:     -0.307D-05 0.584D-05 0.152D-04 0.262D-04 0.657D-05-0.234D-03
 Coeff:     -0.475D-03-0.157D-03 0.305D-02 0.830D-02-0.807D-03-0.427D-01
 Coeff:     -0.583D-01 0.793D-01 0.101D+01
 Gap=     0.261 Goal=   None    Shift=    0.000
 RMSDP=8.69D-09 MaxDP=2.12D-07 DE=-1.30D-11 OVMax= 9.32D-07

 Error on total polarization charges =  0.00795
 SCF Done:  E(RwB97XD) =  -1028.36118995     A.U. after   15 cycles
            NFock= 15  Conv=0.87D-08     -V/T= 2.0030
 KE= 1.025307358148D+03 PE=-4.608438510737D+03 EE= 1.456721724189D+03
 Leave Link  502 at Mon Jul 13 19:49:59 2020, MaxMem=  7784628224 cpu:             814.5 elap:              82.1
 (Enter /gpfs/loomis/apps/avx/software/Gaussian/16-C.01_AVX/g16/l801.exe)
 DoSCS=F DFT=T ScalE2(SS,OS)=  1.000000  1.000000
 ExpMin= 1.22D-01 ExpMax= 1.11D+05 ExpMxC= 1.07D+03 IAcc=3 IRadAn=         5 AccDes= 0.00D+00
 HarFok:  IExCor=  205 AccDes= 0.00D+00 IRadAn=         5 IDoV=-2 UseB2=F ITyADJ=14
 ICtDFT= 12500011 ScaDFX=  1.000000  1.000000  1.000000  1.000000
 Largest valence mixing into a core orbital is  9.56D-05
 Largest core mixing into a valence orbital is  3.17D-05
 Range of M.O.s used for correlation:    21   273
 NBasis=   273 NAE=    59 NBE=    59 NFC=    20 NFV=     0
 NROrb=    253 NOA=    39 NOB=    39 NVA=   214 NVB=   214

 **** Warning!!: The largest alpha MO coefficient is  0.11767267D+02

 Leave Link  801 at Mon Jul 13 19:49:59 2020, MaxMem=  7784628224 cpu:               1.4 elap:               0.2
 (Enter /gpfs/loomis/apps/avx/software/Gaussian/16-C.01_AVX/g16/l914.exe)
 RHF ground state
 Keep R1, R2, and R3 ints in memory in canonical form, NReq=4262515490.
 FoFCou: FMM=F IPFlag=           0 FMFlag=           0 FMFlg1=           0
         NFxFlg=           0 DoJE=F BraDBF=F KetDBF=F FulRan=T
         wScrn=  0.000000 ICntrl=       600 IOpCl=  0 I1Cent=           0 NGrid=           0
         NMat0=    1 NMatS0=  37401 NMatT0=    0 NMatD0=    1 NMtDS0=    0 NMtDT0=    0
 Symmetry not used in FoFCou.
 Two-electron integral symmetry not used.
 MDV=  7784628224 DFT=T DoStab=F Mixed=T DoRPA=T DoScal=F NonHer=T
 NEqPCM:  Using equilibrium solvation (IEInf=0, Eps=   2.2280, EpsInf=   2.1319)
 Making orbital integer symmetry assigments:
    12 initial guesses have been made.
 Convergence on wavefunction:    0.000001000000000
 Davidson Disk Diagonalization:  ConvIn= 1.00D-06 SkipCon=T Conv= 1.00D-06.
 Max sub-space:  2000 roots to seek:    12 dimension of matrix:        16692
 Iteration     1 Dimension    12 NMult     0 NNew     12
 CISAX will form    12 AO SS matrices at one time.
 NMat=    12 NSing=    12 JSym2X= 0.
 Excitation Energies [eV] at current iteration:
 Root      1 :     4.118366135331678
 Root      2 :     4.920435085948279
 Root      3 :     5.032424391480479
 Root      4 :     5.140969848951065
 Root      5 :     5.928423141104020
 Root      6 :     6.182488277356865
 Root      7 :     6.269247871290641
 Root      8 :     6.582565489925845
 Root      9 :     6.846245545695906
 Root     10 :     7.130412078137327
 Root     11 :     7.534572866231176
 Root     12 :     7.879166552719000
 Iteration     2 Dimension    18 NMult    12 NNew      6
 CISAX will form     6 AO SS matrices at one time.
 NMat=     6 NSing=     6 JSym2X= 0.
 Root      1 not converged, maximum delta is    0.049661735944435
 Root      2 not converged, maximum delta is    0.370027976618240
 Root      3 not converged, maximum delta is    0.343478964472613
 Excitation Energies [eV] at current iteration:
 Root      1 :     3.610699211804723   Change is   -0.507666923526955
 Root      2 :     4.520267075084040   Change is   -0.400168010864239
 Root      3 :     4.558304659980361   Change is   -0.474119731500118
 Iteration     3 Dimension    24 NMult    18 NNew      6
 CISAX will form     6 AO SS matrices at one time.
 NMat=     6 NSing=     6 JSym2X= 0.
 Root      1 not converged, maximum delta is    0.018638978453753
 Root      2 not converged, maximum delta is    0.068902279724597
 Root      3 not converged, maximum delta is    0.067069586648399
 Excitation Energies [eV] at current iteration:
 Root      1 :     3.578555238867393   Change is   -0.032143972937330
 Root      2 :     4.474920032322344   Change is   -0.045347042761696
 Root      3 :     4.509960739258124   Change is   -0.048343920722237
 Iteration     4 Dimension    30 NMult    24 NNew      6
 CISAX will form     6 AO SS matrices at one time.
 NMat=     6 NSing=     6 JSym2X= 0.
 Root      1 not converged, maximum delta is    0.006946287601712
 Root      2 not converged, maximum delta is    0.014271149517080
 Root      3 not converged, maximum delta is    0.014215725666050
 Excitation Energies [eV] at current iteration:
 Root      1 :     3.574915555964939   Change is   -0.003639682902454
 Root      2 :     4.470340289487099   Change is   -0.004579742835244
 Root      3 :     4.504237215122918   Change is   -0.005723524135206
 Iteration     5 Dimension    36 NMult    30 NNew      6
 CISAX will form     6 AO SS matrices at one time.
 NMat=     6 NSing=     6 JSym2X= 0.
 Root      1 not converged, maximum delta is    0.002241204993566
 Root      2 not converged, maximum delta is    0.002057008104988
 Root      3 not converged, maximum delta is    0.002022638553672
 Excitation Energies [eV] at current iteration:
 Root      1 :     3.574569835416285   Change is   -0.000345720548654
 Root      2 :     4.469741665089571   Change is   -0.000598624397529
 Root      3 :     4.503805545016890   Change is   -0.000431670106027
 Iteration     6 Dimension    42 NMult    36 NNew      6
 CISAX will form     6 AO SS matrices at one time.
 NMat=     6 NSing=     6 JSym2X= 0.
 Root      1 not converged, maximum delta is    0.000497525958029
 Root      2 not converged, maximum delta is    0.000569277578559
 Root      3 not converged, maximum delta is    0.000691959143218
 Excitation Energies [eV] at current iteration:
 Root      1 :     3.574540831797784   Change is   -0.000029003618501
 Root      2 :     4.469701199929625   Change is   -0.000040465159945
 Root      3 :     4.503762454371692   Change is   -0.000043090645198
 Iteration     7 Dimension    48 NMult    42 NNew      6
 CISAX will form     6 AO SS matrices at one time.
 NMat=     6 NSing=     6 JSym2X= 0.
 Root      1 not converged, maximum delta is    0.000082917756049
 Root      2 not converged, maximum delta is    0.000121983883487
 Root      3 not converged, maximum delta is    0.000181997605846
 Excitation Energies [eV] at current iteration:
 Root      1 :     3.574539332979289   Change is   -0.000001498818495
 Root      2 :     4.469698036868599   Change is   -0.000003163061026
 Root      3 :     4.503758161101483   Change is   -0.000004293270210
 Iteration     8 Dimension    54 NMult    48 NNew      6
 CISAX will form     6 AO SS matrices at one time.
 NMat=     6 NSing=     6 JSym2X= 0.
 Root      1 not converged, maximum delta is    0.000015733228364
 Root      2 not converged, maximum delta is    0.000055272472773
 Root      3 not converged, maximum delta is    0.000067956458966
 Excitation Energies [eV] at current iteration:
 Root      1 :     3.574539262919154   Change is   -0.000000070060134
 Root      2 :     4.469697749288744   Change is   -0.000000287579855
 Root      3 :     4.503757789948973   Change is   -0.000000371152509
 Iteration     9 Dimension    60 NMult    54 NNew      6
 CISAX will form     6 AO SS matrices at one time.
 NMat=     6 NSing=     6 JSym2X= 0.
 Root      1 not converged, maximum delta is    0.000004176870648
 Root      2 not converged, maximum delta is    0.000012338856094
 Root      3 not converged, maximum delta is    0.000020684273521
 Excitation Energies [eV] at current iteration:
 Root      1 :     3.574539258436025   Change is   -0.000000004483129
 Root      2 :     4.469697730483248   Change is   -0.000000018805496
 Root      3 :     4.503757749711341   Change is   -0.000000040237632
 Iteration    10 Dimension    66 NMult    60 NNew      6
 CISAX will form     6 AO SS matrices at one time.
 NMat=     6 NSing=     6 JSym2X= 0.
 Root      1 has converged.
 Root      2 not converged, maximum delta is    0.000002249285780
 Root      3 not converged, maximum delta is    0.000003345049955
 Excitation Energies [eV] at current iteration:
 Root      1 :     3.574539258229502   Change is   -0.000000000206523
 Root      2 :     4.469697729439178   Change is   -0.000000001044069
 Root      3 :     4.503757747927594   Change is   -0.000000001783747
 Iteration    11 Dimension    70 NMult    66 NNew      4
 CISAX will form     4 AO SS matrices at one time.
 NMat=     4 NSing=     4 JSym2X= 0.
 Root      1 has converged.
 Root      2 has converged.
 Root      3 not converged, maximum delta is    0.000001234905120
 Excitation Energies [eV] at current iteration:
 Root      1 :     3.574539258226283   Change is   -0.000000000003220
 Root      2 :     4.469697729381022   Change is   -0.000000000058156
 Root      3 :     4.503757747817108   Change is   -0.000000000110486
 Iteration    12 Dimension    72 NMult    70 NNew      2
 CISAX will form     2 AO SS matrices at one time.
 NMat=     2 NSing=     2 JSym2X= 0.
 Root      1 has converged.
 Root      2 has converged.
 Root      3 has converged.
 Excitation Energies [eV] at current iteration:
 Root      1 :     3.574539258226168   Change is   -0.000000000000115
 Root      2 :     4.469697729380544   Change is   -0.000000000000478
 Root      3 :     4.503757747811724   Change is   -0.000000000005384
 Convergence achieved on expansion vectors.
 ***********************************************************************
 Excited states from <AA,BB:AA,BB> singles matrix:
 ***********************************************************************
 
 1PDM for each excited state written to RWF  633
 Ground to excited state transition densities written to RWF  633
 Ground to excited state transition electric dipole moments (Au):
       state          X           Y           Z        Dip. S.      Osc.
         1         2.0940     -2.3645     -0.0000      9.9760      0.8736
         2        -1.1894     -0.1193     -0.0000      1.4290      0.1565
         3         0.4154     -0.2331      0.0000      0.2269      0.0250
 Ground to excited state transition velocity dipole moments (Au):
       state          X           Y           Z        Dip. S.      Osc.
         1        -0.2677      0.3063      0.0000      0.1655      0.8399
         2         0.1936      0.0231      0.0000      0.0380      0.1543
         3        -0.0662      0.0326     -0.0000      0.0054      0.0219
 Ground to excited state transition magnetic dipole moments (Au):
       state          X           Y           Z
         1         0.0000      0.0000     -0.3950
         2         0.0000      0.0000     -0.4136
         3         0.0000     -0.0000      1.0169
 Ground to excited state transition velocity quadrupole moments (Au):
       state          XX          YY          ZZ          XY          XZ          YZ
         1        -0.1088      0.3868     -0.0068     -0.1660     -0.0000      0.0000
         2         0.2690      0.3501     -0.0255     -0.3598     -0.0000      0.0000
         3         0.4941     -0.6217     -0.0085     -0.0515      0.0000     -0.0000
 <0|del|b> * <b|rxdel|0> + <0|del|b> * <b|delr+rdel|0>
 Rotatory Strengths (R) in cgs (10**-40 erg-esu-cm/Gauss)
       state          XX          YY          ZZ    R(velocity)    E-M Angle
         1         0.0184     -0.0160      0.0188      0.0071       90.00
         2        -0.0004      0.0041      0.0004      0.0014       90.00
         3        -0.0030     -0.0015     -0.0028     -0.0024       90.00
 1/2[<0|r|b>*<b|rxdel|0> + (<0|rxdel|b>*<b|r|0>)*]
 Rotatory Strengths (R) in cgs (10**-40 erg-esu-cm/Gauss)
       state          XX          YY          ZZ     R(length)
         1        -0.0097      0.0397     -0.0089      0.0071
         2         0.0046      0.0005     -0.0010      0.0014
         3        -0.0015     -0.0028     -0.0033     -0.0025
  1/2[<0|del|b>*<b|r|0> + (<0|r|b>*<b|del|0>)*] (Au)
       state          X           Y           Z        Dip. S.   Osc.(frdel)
         1        -0.5605     -0.7244     -0.0000      1.2849      0.8566
         2        -0.2303     -0.0028     -0.0000      0.2330      0.1554
         3        -0.0275     -0.0076     -0.0000      0.0351      0.0234

 Excitation energies and oscillator strengths:
 
 Excited state symmetry could not be determined.
 Excited State   1:      Singlet-?Sym    3.5745 eV  346.85 nm  f=0.8736  <S**2>=0.000
      59 -> 60         0.68889
 This state for optimization and/or second-order correction.
 Total Energy, E(TD-HF/TD-DFT) =  -1028.22982805    
 Copying the excited state density for this state as the 1-particle RhoCI density.
 
 Excited state symmetry could not be determined.
 Excited State   2:      Singlet-?Sym    4.4697 eV  277.39 nm  f=0.1565  <S**2>=0.000
      57 -> 60        -0.20988
      58 -> 60         0.60297
      59 -> 61        -0.12227
      59 -> 62         0.15474
 
 Excited state symmetry could not be determined.
 Excited State   3:      Singlet-?Sym    4.5038 eV  275.29 nm  f=0.0250  <S**2>=0.000
      57 -> 60         0.60432
      58 -> 60         0.19404
      58 -> 63        -0.14321
      59 -> 61        -0.20066
      59 -> 62        -0.11142
 SavETr:  write IOETrn=   770 NScale= 10 NData=  16 NLR=1 NState=    3 LETran=      64.
 The selected state is a singlet.
 CISGrd: IGrad=2 NXY=2 DFT=T
 CISAX will form     1 AO SS matrices at one time.
 NMat=     1 NSing=     1 JSym2X= 0.
 GePol: Maximum number of non-zero 1st derivatives   =     266
 Leave Link  914 at Mon Jul 13 19:52:44 2020, MaxMem=  7784628224 cpu:            1621.0 elap:             164.8
 (Enter /gpfs/loomis/apps/avx/software/Gaussian/16-C.01_AVX/g16/l1002.exe)
 Minotr:  Closed shell wavefunction.
          Computing CIS/TDA/TD derivatives.
          Using Z-Vector for PSCF gradient.
          Skipping F1 and S1 gradient terms here.
          IDoAtm=1111111111111111111111111
 NEqPCM:  Using equilibrium solvation (IEInf=0, Eps=   2.2280, EpsInf=   2.1319)
          Frozen-core window.
          Direct CPHF calculation.
          Differentiating once with respect to electric field.
                with respect to dipole field.
          Differentiating once with respect to nuclear coordinates.
          Requested convergence is 1.0D-10 RMS, and 1.0D-09 maximum.
          NewPWx=F KeepS1=T KeepF1=T KeepIn=T MapXYZ=F SortEE=F KeepMc=T.
 Keep R1 ints in memory in canonical form, NReq=1421552903.
 FoFCou: FMM=F IPFlag=           0 FMFlag=           0 FMFlg1=           0
         NFxFlg=           0 DoJE=F BraDBF=F KetDBF=F FulRan=T
         wScrn=  0.000000 ICntrl=       600 IOpCl=  0 I1Cent=           0 NGrid=           0
         NMat0=    1 NMatS0=  37401 NMatT0=    0 NMatD0=    1 NMtDS0=    0 NMtDT0=    0
 Symmetry not used in FoFCou.
 Two-electron integral symmetry not used.
          MDV=    7784628224 using IRadAn=       5.
          Solving linear equations separately, MaxMat=       0.
          There are     1 degrees of freedom in the 1st order CPHF.  IDoFFX=0 NUNeed=     1.
 LinEq1:  Iter=  0 NonCon=     1 RMS=3.05D-03 Max=1.45D-01 NDo=     1
 AX will form     1 AO Fock derivatives at one time.
 LinEq1:  Iter=  1 NonCon=     1 RMS=1.31D-03 Max=6.48D-02 NDo=     1
 LinEq1:  Iter=  2 NonCon=     1 RMS=7.32D-04 Max=2.52D-02 NDo=     1
 LinEq1:  Iter=  3 NonCon=     1 RMS=2.87D-04 Max=9.25D-03 NDo=     1
 LinEq1:  Iter=  4 NonCon=     1 RMS=1.51D-04 Max=6.57D-03 NDo=     1
 LinEq1:  Iter=  5 NonCon=     1 RMS=8.28D-05 Max=3.46D-03 NDo=     1
 LinEq1:  Iter=  6 NonCon=     1 RMS=3.70D-05 Max=1.30D-03 NDo=     1
 LinEq1:  Iter=  7 NonCon=     1 RMS=2.23D-05 Max=9.05D-04 NDo=     1
 LinEq1:  Iter=  8 NonCon=     1 RMS=7.81D-06 Max=2.64D-04 NDo=     1
 LinEq1:  Iter=  9 NonCon=     1 RMS=3.91D-06 Max=1.29D-04 NDo=     1
 LinEq1:  Iter= 10 NonCon=     1 RMS=1.38D-06 Max=5.49D-05 NDo=     1
 LinEq1:  Iter= 11 NonCon=     1 RMS=6.51D-07 Max=2.79D-05 NDo=     1
 LinEq1:  Iter= 12 NonCon=     1 RMS=3.01D-07 Max=9.98D-06 NDo=     1
 LinEq1:  Iter= 13 NonCon=     1 RMS=1.21D-07 Max=3.25D-06 NDo=     1
 LinEq1:  Iter= 14 NonCon=     1 RMS=6.44D-08 Max=2.02D-06 NDo=     1
 LinEq1:  Iter= 15 NonCon=     1 RMS=2.36D-08 Max=7.61D-07 NDo=     1
 LinEq1:  Iter= 16 NonCon=     1 RMS=1.06D-08 Max=2.61D-07 NDo=     1
 LinEq1:  Iter= 17 NonCon=     1 RMS=4.24D-09 Max=8.83D-08 NDo=     1
 LinEq1:  Iter= 18 NonCon=     1 RMS=1.47D-09 Max=3.86D-08 NDo=     1
 LinEq1:  Iter= 19 NonCon=     1 RMS=5.91D-10 Max=1.35D-08 NDo=     1
 LinEq1:  Iter= 20 NonCon=     1 RMS=3.11D-10 Max=1.03D-08 NDo=     1
 LinEq1:  Iter= 21 NonCon=     1 RMS=1.12D-10 Max=3.31D-09 NDo=     1
 LinEq1:  Iter= 22 NonCon=     0 RMS=4.14D-11 Max=7.03D-10 NDo=     1
 Linear equations converged to 1.000D-10 1.000D-09 after    22 iterations.
 End of Minotr F.D. properties file   721 does not exist.
 End of Minotr F.D. properties file   722 does not exist.
 End of Minotr F.D. properties file   788 does not exist.
 Leave Link 1002 at Mon Jul 13 19:54:16 2020, MaxMem=  7784628224 cpu:             682.0 elap:              91.7
 (Enter /gpfs/loomis/apps/avx/software/Gaussian/16-C.01_AVX/g16/l601.exe)
 Copying SCF densities to generalized density rwf, IOpCl= 0 IROHF=0.

 **********************************************************************

            Population analysis using the SCF Density.

 **********************************************************************

 Alpha  occ. eigenvalues --  -89.08747 -19.26952 -14.45618 -10.39164 -10.38880
 Alpha  occ. eigenvalues --  -10.34421 -10.34230 -10.33448 -10.32616 -10.32375
 Alpha  occ. eigenvalues --  -10.31956 -10.31276 -10.31156 -10.31094 -10.31060
 Alpha  occ. eigenvalues --  -10.31051  -8.10645  -6.05493  -6.05156  -6.04715
 Alpha  occ. eigenvalues --   -1.29927  -1.08015  -0.97561  -0.95552  -0.91344
 Alpha  occ. eigenvalues --   -0.88868  -0.87868  -0.84189  -0.82901  -0.77920
 Alpha  occ. eigenvalues --   -0.73741  -0.70290  -0.69572  -0.68584  -0.64961
 Alpha  occ. eigenvalues --   -0.60216  -0.59551  -0.58319  -0.56326  -0.54858
 Alpha  occ. eigenvalues --   -0.53916  -0.53626  -0.52568  -0.51161  -0.51046
 Alpha  occ. eigenvalues --   -0.49393  -0.48456  -0.46196  -0.45629  -0.45104
 Alpha  occ. eigenvalues --   -0.43589  -0.43330  -0.42105  -0.39567  -0.36849
 Alpha  occ. eigenvalues --   -0.36501  -0.32485  -0.31662  -0.28117
 Alpha virt. eigenvalues --   -0.01974   0.05477   0.06474   0.07136   0.07844
 Alpha virt. eigenvalues --    0.11577   0.13432   0.15212   0.16038   0.18114
 Alpha virt. eigenvalues --    0.18564   0.21311   0.21793   0.22303   0.22996
 Alpha virt. eigenvalues --    0.23361   0.23730   0.25198   0.27993   0.30799
 Alpha virt. eigenvalues --    0.32025   0.33607   0.35003   0.36185   0.36891
 Alpha virt. eigenvalues --    0.38000   0.38490   0.40736   0.43982   0.46359
 Alpha virt. eigenvalues --    0.46654   0.48756   0.50894   0.51278   0.51815
 Alpha virt. eigenvalues --    0.52391   0.53614   0.54670   0.54777   0.55813
 Alpha virt. eigenvalues --    0.56013   0.56348   0.57236   0.58135   0.58194
 Alpha virt. eigenvalues --    0.58781   0.59053   0.59686   0.59836   0.59923
 Alpha virt. eigenvalues --    0.60686   0.60984   0.62135   0.62664   0.64126
 Alpha virt. eigenvalues --    0.65366   0.66095   0.66482   0.68773   0.69039
 Alpha virt. eigenvalues --    0.70383   0.72085   0.72496   0.72974   0.73269
 Alpha virt. eigenvalues --    0.73991   0.75586   0.76155   0.77550   0.78837
 Alpha virt. eigenvalues --    0.79374   0.79649   0.81620   0.82517   0.82805
 Alpha virt. eigenvalues --    0.85260   0.88871   0.91797   0.93534   0.93980
 Alpha virt. eigenvalues --    0.94881   0.95078   0.96333   0.96798   0.98183
 Alpha virt. eigenvalues --    0.98715   0.99168   1.00549   1.01010   1.02404
 Alpha virt. eigenvalues --    1.03517   1.04862   1.06054   1.06433   1.07552
 Alpha virt. eigenvalues --    1.08101   1.09084   1.09865   1.10627   1.10693
 Alpha virt. eigenvalues --    1.11821   1.13275   1.13633   1.15686   1.16284
 Alpha virt. eigenvalues --    1.17142   1.18736   1.20398   1.22040   1.24030
 Alpha virt. eigenvalues --    1.25381   1.28932   1.33484   1.34599   1.35178
 Alpha virt. eigenvalues --    1.35448   1.36620   1.38583   1.42956   1.44185
 Alpha virt. eigenvalues --    1.48029   1.48803   1.52225   1.54468   1.54860
 Alpha virt. eigenvalues --    1.55427   1.56246   1.57290   1.57687   1.58168
 Alpha virt. eigenvalues --    1.59921   1.62811   1.64581   1.66370   1.66443
 Alpha virt. eigenvalues --    1.67913   1.68327   1.70222   1.70782   1.71788
 Alpha virt. eigenvalues --    1.71866   1.72655   1.72979   1.74737   1.75493
 Alpha virt. eigenvalues --    1.76947   1.77675   1.79994   1.81418   1.82504
 Alpha virt. eigenvalues --    1.83520   1.83679   1.84834   1.86169   1.86578
 Alpha virt. eigenvalues --    1.86932   1.88291   1.89662   1.90922   1.92300
 Alpha virt. eigenvalues --    1.93027   1.93040   1.94042   1.94494   1.95019
 Alpha virt. eigenvalues --    2.00640   2.00827   2.02384   2.03732   2.04606
 Alpha virt. eigenvalues --    2.07833   2.08646   2.10078   2.11051   2.12242
 Alpha virt. eigenvalues --    2.17851   2.18028   2.20787   2.24990   2.26395
 Alpha virt. eigenvalues --    2.27727   2.29237   2.36651   2.38741   2.42207
 Alpha virt. eigenvalues --    2.42208   2.45679   2.47470   2.47779   2.49012
 Alpha virt. eigenvalues --    2.50349   2.51183   2.54867   2.61770   2.62817
 Alpha virt. eigenvalues --    2.67299   2.72615   2.75029   2.79141   2.81582
 Alpha virt. eigenvalues --    2.82819   2.84441   2.89950   2.91787   2.97903
 Alpha virt. eigenvalues --    3.05762   3.11546   3.29052   3.46431   3.46967
 Alpha virt. eigenvalues --    3.57129   3.60596   3.78015   5.47865
          Condensed to atoms (all electrons):
               1          2          3          4          5          6
     1  C    4.766432   0.432810   0.015498  -0.054775  -0.012294   0.525411
     2  C    0.432810   5.350203   0.335382  -0.034214  -0.064597  -0.005776
     3  C    0.015498   0.335382   4.740416   0.485605  -0.005616  -0.065632
     4  C   -0.054775  -0.034214   0.485605   4.783197   0.526626  -0.013509
     5  C   -0.012294  -0.064597  -0.005616   0.526626   4.735634   0.484935
     6  C    0.525411  -0.005776  -0.065632  -0.013509   0.484935   4.752113
     7  H    0.400948  -0.038794   0.007998  -0.000442   0.008028  -0.038781
     8  H   -0.001215   0.012606  -0.030968   0.391252  -0.045312   0.008170
     9  H    0.008912  -0.000840   0.008821  -0.039854   0.405098  -0.045717
    10  H   -0.042018   0.009862  -0.000681   0.008777  -0.044100   0.405338
    11  N    0.009680  -0.067537   0.533089  -0.043535   0.003206  -0.000115
    12  S   -0.064691   0.348434  -0.097708   0.007423   0.000175   0.003471
    13  C   -0.000150   0.004332   0.006945  -0.000812   0.000009   0.000002
    14  C   -0.000007  -0.000046   0.000389   0.000007  -0.000000  -0.000000
    15  C    0.000006   0.000028  -0.001468  -0.000002  -0.000000  -0.000000
    16  C    0.000000  -0.000001   0.000004  -0.000000   0.000000   0.000000
    17  H   -0.000002   0.000045  -0.000012  -0.000000   0.000000  -0.000000
    18  C    0.000000   0.000006  -0.000037  -0.000000  -0.000000   0.000000
    19  C   -0.000000   0.000000   0.000003  -0.000000   0.000000   0.000000
    20  H   -0.000000  -0.000000  -0.000000   0.000000   0.000000  -0.000000
    21  H    0.000000  -0.000000   0.000000   0.000000  -0.000000  -0.000000
    22  H   -0.000000  -0.000000   0.000000  -0.000000   0.000000   0.000000
    23  C    0.005189  -0.059526  -0.135857   0.000286   0.000271  -0.000199
    24  O    0.000000  -0.000068  -0.000350   0.000027  -0.000000  -0.000000
    25  H   -0.000048   0.001268  -0.001582  -0.000665   0.000009   0.000007
               7          8          9         10         11         12
     1  C    0.400948  -0.001215   0.008912  -0.042018   0.009680  -0.064691
     2  C   -0.038794   0.012606  -0.000840   0.009862  -0.067537   0.348434
     3  C    0.007998  -0.030968   0.008821  -0.000681   0.533089  -0.097708
     4  C   -0.000442   0.391252  -0.039854   0.008777  -0.043535   0.007423
     5  C    0.008028  -0.045312   0.405098  -0.044100   0.003206   0.000175
     6  C   -0.038781   0.008170  -0.045717   0.405338  -0.000115   0.003471
     7  H    0.662709   0.000036  -0.000147  -0.012169  -0.000125  -0.006435
     8  H    0.000036   0.663446  -0.012568  -0.000125  -0.000389  -0.000078
     9  H   -0.000147  -0.012568   0.671287  -0.012313  -0.000110   0.000020
    10  H   -0.012169  -0.000125  -0.012313   0.667700  -0.000003  -0.000142
    11  N   -0.000125  -0.000389  -0.000110  -0.000003   6.400096  -0.083391
    12  S   -0.006435  -0.000078   0.000020  -0.000142  -0.083391  15.501360
    13  C    0.000006   0.000046  -0.000000  -0.000000  -0.019889  -0.061846
    14  C    0.000000   0.000001   0.000000  -0.000000   0.003512  -0.005218
    15  C   -0.000000  -0.000067   0.000000   0.000000  -0.024355   0.004906
    16  C   -0.000000  -0.000000  -0.000000   0.000000  -0.000094  -0.000104
    17  H    0.000001   0.000000  -0.000000  -0.000000   0.000176   0.006153
    18  C   -0.000000   0.000000  -0.000000  -0.000000  -0.000063  -0.000066
    19  C    0.000000   0.000000  -0.000000  -0.000000   0.000052   0.000013
    20  H   -0.000000  -0.000000   0.000000   0.000000   0.000001  -0.000002
    21  H   -0.000000  -0.000000   0.000000   0.000000  -0.000016   0.000002
    22  H    0.000000   0.000000  -0.000000  -0.000000   0.000000  -0.000000
    23  C    0.000029  -0.001082   0.000009   0.000002   0.560142   0.302008
    24  O   -0.000000  -0.000120   0.000000  -0.000000  -0.018406  -0.000070
    25  H    0.000000   0.001113  -0.000003   0.000000   0.050166   0.002080
              13         14         15         16         17         18
     1  C   -0.000150  -0.000007   0.000006   0.000000  -0.000002   0.000000
     2  C    0.004332  -0.000046   0.000028  -0.000001   0.000045   0.000006
     3  C    0.006945   0.000389  -0.001468   0.000004  -0.000012  -0.000037
     4  C   -0.000812   0.000007  -0.000002  -0.000000  -0.000000  -0.000000
     5  C    0.000009  -0.000000  -0.000000   0.000000   0.000000  -0.000000
     6  C    0.000002  -0.000000  -0.000000   0.000000  -0.000000   0.000000
     7  H    0.000006   0.000000  -0.000000  -0.000000   0.000001  -0.000000
     8  H    0.000046   0.000001  -0.000067  -0.000000   0.000000   0.000000
     9  H   -0.000000   0.000000   0.000000  -0.000000  -0.000000  -0.000000
    10  H   -0.000000  -0.000000   0.000000   0.000000  -0.000000  -0.000000
    11  N   -0.019889   0.003512  -0.024355  -0.000094   0.000176  -0.000063
    12  S   -0.061846  -0.005218   0.004906  -0.000104   0.006153  -0.000066
    13  C    5.360910   0.506553   0.250849  -0.012022  -0.037338  -0.097292
    14  C    0.506553   4.787381  -0.027032   0.529536   0.403376  -0.053450
    15  C    0.250849  -0.027032   4.956555  -0.066225   0.008643   0.477445
    16  C   -0.012022   0.529536  -0.066225   4.745261  -0.037722  -0.012494
    17  H   -0.037338   0.403376   0.008643  -0.037722   0.669753  -0.000811
    18  C   -0.097292  -0.053450   0.477445  -0.012494  -0.000811   4.858125
    19  C   -0.041065  -0.016574  -0.004406   0.484802   0.008463   0.490772
    20  H    0.008662  -0.035217  -0.000379   0.402280  -0.013068   0.008533
    21  H    0.010540  -0.000356  -0.024571   0.007072   0.000037   0.385476
    22  H   -0.000752   0.008713   0.009127  -0.042634  -0.000142  -0.041836
    23  C    0.289014  -0.087994  -0.064436   0.007882  -0.020640   0.007620
    24  O   -0.047196   0.003568   0.464123   0.000022  -0.000054  -0.065434
    25  H   -0.067404  -0.001575   0.021690  -0.000031   0.000048   0.016574
              19         20         21         22         23         24
     1  C   -0.000000  -0.000000   0.000000  -0.000000   0.005189   0.000000
     2  C    0.000000  -0.000000  -0.000000  -0.000000  -0.059526  -0.000068
     3  C    0.000003  -0.000000   0.000000   0.000000  -0.135857  -0.000350
     4  C   -0.000000   0.000000   0.000000  -0.000000   0.000286   0.000027
     5  C    0.000000   0.000000  -0.000000   0.000000   0.000271  -0.000000
     6  C    0.000000  -0.000000  -0.000000   0.000000  -0.000199  -0.000000
     7  H    0.000000  -0.000000  -0.000000   0.000000   0.000029  -0.000000
     8  H    0.000000  -0.000000  -0.000000   0.000000  -0.001082  -0.000120
     9  H   -0.000000   0.000000   0.000000  -0.000000   0.000009   0.000000
    10  H   -0.000000   0.000000   0.000000  -0.000000   0.000002  -0.000000
    11  N    0.000052   0.000001  -0.000016   0.000000   0.560142  -0.018406
    12  S    0.000013  -0.000002   0.000002  -0.000000   0.302008  -0.000070
    13  C   -0.041065   0.008662   0.010540  -0.000752   0.289014  -0.047196
    14  C   -0.016574  -0.035217  -0.000356   0.008713  -0.087994   0.003568
    15  C   -0.004406  -0.000379  -0.024571   0.009127  -0.064436   0.464123
    16  C    0.484802   0.402280   0.007072  -0.042634   0.007882   0.000022
    17  H    0.008463  -0.013068   0.000037  -0.000142  -0.020640  -0.000054
    18  C    0.490772   0.008533   0.385476  -0.041836   0.007620  -0.065434
    19  C    4.743308  -0.047054  -0.042882   0.407559   0.000353   0.002883
    20  H   -0.047054   0.671865  -0.000151  -0.011585  -0.000312   0.000003
    21  H   -0.042882  -0.000151   0.649390  -0.011640  -0.000390   0.001041
    22  H    0.407559  -0.011585  -0.011640   0.656961   0.000002  -0.000052
    23  C    0.000353  -0.000312  -0.000390   0.000002   5.138089  -0.006012
    24  O    0.002883   0.000003   0.001041  -0.000052  -0.006012   7.031845
    25  H   -0.000144  -0.000000   0.000401   0.000001   0.006923   0.403752
              25
     1  C   -0.000048
     2  C    0.001268
     3  C   -0.001582
     4  C   -0.000665
     5  C    0.000009
     6  C    0.000007
     7  H    0.000000
     8  H    0.001113
     9  H   -0.000003
    10  H    0.000000
    11  N    0.050166
    12  S    0.002080
    13  C   -0.067404
    14  C   -0.001575
    15  C    0.021690
    16  C   -0.000031
    17  H    0.000048
    18  C    0.016574
    19  C   -0.000144
    20  H   -0.000000
    21  H    0.000401
    22  H    0.000001
    23  C    0.006923
    24  O    0.403752
    25  H    0.812195
 Mulliken charges:
               1
     1  C    0.010314
     2  C   -0.223576
     3  C    0.205760
     4  C   -0.015392
     5  C    0.007928
     6  C   -0.009718
     7  H    0.017136
     8  H    0.015253
     9  H    0.017406
    10  H    0.019871
    11  N   -0.302091
    12  S    0.143705
    13  C   -0.052101
    14  C   -0.015569
    15  C    0.019566
    16  C   -0.005531
    17  H    0.013094
    18  C    0.026930
    19  C    0.013916
    20  H    0.016423
    21  H    0.026047
    22  H    0.026278
    23  C    0.058626
    24  O    0.230498
    25  H   -0.244774
 Sum of Mulliken charges =  -0.00000
 Mulliken charges with hydrogens summed into heavy atoms:
               1
     1  C    0.027450
     2  C   -0.223576
     3  C    0.205760
     4  C   -0.000139
     5  C    0.025334
     6  C    0.010153
    11  N   -0.302091
    12  S    0.143705
    13  C   -0.052101
    14  C   -0.002475
    15  C    0.019566
    16  C    0.010892
    18  C    0.052977
    19  C    0.040195
    23  C    0.058626
    24  O   -0.014277
 Electronic spatial extent (au):  <R**2>=           4357.6306
 Charge=             -0.0000 electrons
 Dipole moment (field-independent basis, Debye):
    X=             -1.0953    Y=             -1.0145    Z=              0.0000  Tot=              1.4930
 Quadrupole moment (field-independent basis, Debye-Ang):
   XX=            -82.5512   YY=            -86.3529   ZZ=           -104.0252
   XY=             -7.9290   XZ=             -0.0001   YZ=              0.0002
 Traceless Quadrupole moment (field-independent basis, Debye-Ang):
[...]
 58,0.00681557,0.00000008,0.00406348,-0.00056082,-0.00000002,-0.0001048
 9,0.00200518,0.,0.00005816,0.00007025,0.,-0.00002723,0.00006653,0.,0.0
 0000568,-0.00000302,0.,-0.00005780,0.00005221,0.,0.00001186,-0.0000279
 1,0.,0.00790781,-0.00475181,0.00000007,0.00039127,-0.00172217,-0.00000
 010,0.04986851,0.03033012,0.00000066,0.09231447,-0.27468410,-0.0000088
 1,0.00194506,-0.02782113,-0.00000138,-0.01507605,0.65465180,-0.0000001
 2,0.00000003,-0.00009029,-0.00000005,-0.00000016,-0.00015379,-0.000000
 31,0.00000042,-0.00012716,0.00000024,-0.00000004,-0.00005750,-0.000000
 01,0.00000011,-0.00006662,0.00000004,-0.00000002,0.00002841,0.,0.,-0.0
 0003761,0.,0.,-0.00003825,0.,0.,-0.00001455,0.,0.,0.00007765,0.0000004
 4,-0.00000024,0.00172210,0.,-0.00000014,0.00012321,0.00000162,0.000001
 11,0.00280704,0.00000550,-0.00001033,-0.05330327,0.00000012,-0.0000010
 2,-0.00327170,-0.00000379,0.00002418,0.13070119,0.00017035,-0.00001776
 ,0.,-0.00106768,-0.00030129,0.00000004,-0.00002076,0.00066693,0.,0.000
 43183,-0.00001867,0.,0.00007936,0.00040112,0.,-0.00017238,-0.00021301,
 0.,-0.00001119,0.00001287,0.,0.00001434,-0.00000901,0.,-0.00000535,0.0
 0000125,0.,0.00002512,-0.00000073,0.,0.00078852,0.00006417,0.00000001,
 -0.00003283,0.00089784,-0.00000008,-0.00637698,-0.02768237,-0.00000105
 ,-0.09926279,-0.10272323,-0.00000400,-0.00622246,0.00193594,0.,0.01055
 188,0.01930249,0.00000074,0.10186193,-0.00002649,-0.00008415,0.,-0.000
 33035,-0.00006940,-0.00000001,-0.00032541,0.00075049,-0.00000002,0.000
 46205,-0.00009779,0.,0.00002315,0.00048427,0.,-0.00024838,-0.00020461,
 0.,0.00000032,0.00001989,0.,-0.00000469,-0.00001385,0.,-0.00001539,0.0
 0000407,0.,-0.00001087,0.00000361,0.,0.00081180,-0.00011150,0.00000008
 ,-0.00031587,-0.00033915,0.00000007,0.00268219,-0.00010766,-0.00000007
 ,-0.10159977,-0.30083815,-0.00001045,-0.00003838,0.00136344,-0.0000001
 9,-0.01238635,-0.01833679,-0.00000080,0.10720306,0.31837235,0.00000007
 ,-0.00000004,-0.00005748,-0.00000008,0.00000009,-0.00026155,0.00000004
 ,-0.00000008,0.00016128,-0.00000002,0.,0.00007205,0.,0.00000001,0.0000
 0772,-0.00000006,0.,0.00002245,0.,0.,0.00001105,0.,0.,0.00003611,0.,0.
 ,0.00000498,0.,0.,-0.00002250,-0.00000007,0.00000003,-0.00107709,-0.00
 000004,0.00000010,0.00037139,0.00000070,-0.00000005,0.00221899,-0.0000
 0454,-0.00001034,-0.03131558,0.00000004,-0.00000016,0.00513738,-0.0000
 0038,-0.00000136,0.00324198,0.00000410,0.00001153,0.02117785,-0.002185
 49,0.00177468,-0.00000003,0.00277181,-0.00059634,0.,-0.00035087,0.0021
 8216,0.00000006,0.00044293,0.00016436,0.,-0.00035925,-0.00182567,0.,0.
 00322823,0.00042583,0.,-0.00011864,-0.00007037,0.,0.00018070,0.0001075
 3,0.,0.00017109,-0.00003587,0.,0.00010970,-0.00003500,0.00000001,0.005
 71093,0.00527899,-0.00000008,-0.00193343,-0.00104665,0.00000001,0.0190
 0669,0.02015142,0.00000103,-0.01627069,0.02445508,0.00000124,-0.177701
 16,0.08048459,0.00000526,-0.01291863,-0.06085780,-0.00000230,-0.000265
 43,0.00044382,-0.00000016,0.78261637,-0.00003561,-0.00047395,-0.000000
 02,-0.00369524,-0.00375522,-0.00000003,-0.00332807,0.00622042,-0.00000
 005,0.00341583,-0.00075588,0.,0.00033570,0.00336586,0.00000001,-0.0016
 7254,-0.00133928,0.,0.00001851,0.00011751,0.,-0.00012100,-0.00010971,0
 .,-0.00010617,0.00002486,0.,-0.00000870,0.00000169,0.,0.00751761,-0.00
 434547,0.00000020,0.00157856,-0.00387089,0.00000005,0.01981452,-0.0333
 2405,-0.00000218,-0.00406352,-0.00156897,0.00000028,0.13218196,-0.2741
 9980,-0.00001151,-0.03527984,-0.00516209,-0.00000016,-0.00041517,0.000
 30632,0.00000017,0.03915592,0.72326807,-0.00000002,-0.00000003,0.00052
 126,-0.00000019,-0.00000021,0.00048888,-0.00000019,0.00000028,0.000564
 37,0.00000017,-0.00000003,-0.00033767,0.00000002,0.00000017,0.00002813
 ,-0.00000007,-0.00000007,-0.00003099,0.,0.,-0.00000149,0.,0.,-0.000005
 75,0.,0.,0.00003085,0.,0.,-0.00011934,0.00000025,-0.00000037,-0.001677
 97,0.00000009,-0.00000008,-0.00015734,0.00000043,-0.00000131,0.0091609
 5,0.00000024,-0.00000042,-0.00113043,0.00000758,-0.00001116,-0.0668110
 0,-0.00000137,0.00000016,0.00608324,0.00000001,0.00000005,-0.00067020,
 -0.00001239,0.00002499,0.11179482,0.00277521,-0.00152783,0.00000005,-0
 .00075016,0.00284925,0.,0.00487059,-0.00830116,-0.00000005,-0.00394249
 ,0.00058816,0.,0.00049053,-0.00076503,0.,-0.00248696,0.00057635,0.,0.0
 0009900,0.00004694,0.,-0.00007567,-0.00005945,0.,-0.00013755,0.0000009
 5,0.,-0.00008308,0.00006176,0.,-0.01175051,0.00180543,-0.00000002,0.00
 269095,0.00207151,0.00000006,-0.01520280,-0.02276137,-0.00000087,0.042
 52881,-0.00949677,-0.00000077,-0.04602612,0.04269444,0.00000299,-0.143
 79522,-0.02751290,-0.00000082,-0.00215840,0.00431416,0.00000040,-0.398
 98191,-0.06628703,0.00000346,0.74879905,-0.00090155,-0.00030350,0.0000
 0002,-0.00516904,-0.00587331,0.,-0.00562049,0.01235483,-0.00000001,0.0
 0681813,-0.00156816,0.00000001,0.00010546,0.00592627,0.00000003,-0.001
 75281,-0.00305040,-0.00000002,0.00000801,0.00015969,0.,-0.00011815,-0.
 00018689,0.00000001,-0.00010065,0.00004270,0.,-0.00003979,0.00000845,-
 0.00000002,0.01362612,-0.00562720,-0.00000008,-0.00082940,-0.00424124,
 0.,-0.01136495,-0.00988621,-0.00000036,0.01894900,-0.05832942,-0.00000
 330,0.01209769,0.03506373,0.00000119,-0.08927550,-0.28381613,-0.000010
 50,0.00308755,-0.00169450,-0.00000022,-0.01641265,-0.12944603,-0.00000
 265,-0.04277073,0.67694594,-0.00000011,0.00000002,0.00009898,-0.000000
 29,-0.00000040,-0.00029524,-0.00000042,0.00000091,-0.00080642,0.000000
 48,-0.00000011,0.00007923,0.,0.00000036,0.00007642,-0.00000005,-0.0000
 0020,-0.00000995,0.,0.,-0.00001295,0.,0.,-0.00009326,0.,0.,-0.00000547
 ,0.,0.,0.00001271,0.00000108,-0.00000032,0.00119829,-0.00000013,-0.000
 00031,0.00028441,-0.00000022,0.00000017,-0.00435979,0.00000029,-0.0000
 0280,0.00826654,0.00000156,0.00000052,0.00223328,-0.00000333,-0.000010
 95,-0.06095368,0.00000019,-0.00000043,0.00676209,0.00000459,-0.0000021
 6,-0.04970802,-0.00001112,0.00002739,0.11752940,0.00003689,-0.00006855
 ,0.,-0.00010957,0.00004900,0.,-0.00000030,-0.00007066,0.,-0.00000037,0
 .00002413,0.,0.00002171,0.00008586,0.,-0.00013265,0.00000958,0.,0.0000
 0488,0.00001248,0.,-0.00000322,-0.00000812,0.,-0.00001534,0.00000424,0
 .,-0.00000819,0.00000548,0.,-0.00022552,0.00038741,-0.00000002,0.00006
 881,-0.00004012,0.,0.00035213,0.00314849,0.00000017,-0.01411486,-0.006
 72227,-0.00000024,0.00061631,0.00016191,0.,-0.33905989,-0.04553632,-0.
 00000063,0.00082655,0.00009995,-0.00000003,0.00137300,-0.00202888,-0.0
 0000012,-0.00633503,0.00208992,0.00000019,0.35711750,-0.00003514,0.000
 01516,0.,-0.00004711,-0.00012902,0.,-0.00002933,0.00023126,-0.00000003
 ,0.00010463,-0.00005650,0.,0.00001509,0.00006321,0.,0.00000392,-0.0000
 1685,0.,0.00000011,-0.00000027,0.,-0.00000089,-0.00000014,0.,0.0000012
 2,-0.00000280,0.,0.00000204,-0.00000099,0.,0.00053455,-0.00046249,0.00
 000008,0.00002763,-0.00003203,0.,0.00316182,-0.00375373,-0.00000051,0.
 02454895,0.00741213,-0.00000003,0.00037459,-0.00133310,-0.00000002,-0.
 04642739,-0.06615765,-0.00000129,0.00001344,0.00086934,0.00000024,-0.0
 0106595,-0.00559080,-0.00000050,-0.02965153,0.00034111,0.,0.04901233,0
 .06624042,-0.00000002,0.,-0.00005067,-0.00000002,-0.00000004,0.0000470
 4,-0.00000004,0.00000008,0.00057743,0.00000004,-0.00000001,0.00013395,
 0.,0.00000003,-0.00007764,0.,0.,0.00002191,0.,0.,0.00000229,0.,0.,0.00
 003926,0.,0.,-0.00002428,0.,0.,0.00000029,0.00000012,-0.00000008,-0.00
 120065,0.,-0.00000002,-0.00006934,0.00000025,-0.00000048,0.00789632,0.
 00000101,0.00000042,0.00581321,0.00000001,-0.00000012,-0.00091738,-0.0
 0000059,-0.00000157,-0.03786258,-0.00000002,0.00000023,-0.00474421,-0.
 00000005,-0.00000057,0.00469532,-0.00000130,-0.00000002,0.00473487,0.0
 0000065,0.00000179,0.02423519,-0.00007682,0.00003854,0.,0.00008436,0.0
 0009295,0.,-0.00000982,0.00005923,0.00000001,0.00000677,0.00000739,0.,
 -0.00002464,-0.00005868,0.,0.00009047,0.00001561,0.,-0.00000069,-0.000
 00394,0.,-0.00000389,0.00000306,0.,0.00000466,0.00000056,0.,-0.0000011
 1,-0.00000245,0.,0.00004143,-0.00000468,-0.00000002,-0.00026155,0.0000
 8636,-0.00000001,-0.00315136,0.00248154,0.00000028,-0.00003813,0.00028
 011,0.,0.00819918,0.01977952,0.00000067,-0.00564883,0.00066310,0.00000
 028,0.00011156,-0.00010109,-0.00000002,-0.10092135,-0.10732526,-0.0000
 0251,-0.00422208,-0.02839685,-0.00000098,-0.00039476,-0.00140594,-0.00
 000009,0.10361427,0.00013635,-0.00000056,0.00000002,-0.00002232,0.0000
 8248,0.,0.00021154,-0.00022359,-0.00000003,-0.00013514,0.00001308,0.,-
 0.00000837,-0.00009259,0.,0.00000552,-0.00001122,0.,-0.00000556,-0.000
 00458,0.,0.00001180,0.00000549,0.,0.00000974,-0.00000211,0.,0.00000724
 ,-0.00000107,0.,-0.00038117,0.00035881,0.00000002,0.00023969,-0.000034
 76,0.00000001,0.00374445,-0.00108330,-0.00000033,0.00045034,0.00021252
 ,0.00000004,-0.01282420,-0.01897645,-0.00000051,-0.00022248,0.00173446
 ,-0.00000018,-0.00005758,-0.00005661,0.00000003,-0.10253236,-0.3042409
 9,-0.00000869,0.00170467,0.00126626,-0.00000007,0.00009315,-0.00004048
 ,0.,0.11213643,0.31916841,0.00000005,-0.00000002,-0.00028574,0.0000000
 2,0.00000007,0.00003490,0.00000009,-0.00000018,0.00043885,-0.00000008,
 0.00000002,-0.00003846,0.,-0.00000004,-0.00004608,-0.00000002,0.000000
 02,0.00001644,0.,0.,0.00000149,0.,0.,0.00005204,0.,0.,0.00000354,0.,0.
 ,0.00004895,-0.00000026,0.00000005,-0.00050642,0.00000007,0.00000005,-
 0.00010656,0.00000018,-0.00000030,0.00436492,0.00000025,-0.00000012,-0
 .00075581,-0.00000080,-0.00000104,0.00439373,0.00000017,0.,0.00707003,
 0.,0.00000003,-0.00065930,-0.00000189,-0.00000833,-0.03409028,-0.00000
 032,0.00000023,0.00334873,0.,0.00000005,-0.00006114,0.00000273,0.00000
 937,0.02389651,-0.00002802,-0.00003243,0.,-0.00024307,-0.00019072,0.,-
 0.00019162,0.00047343,0.,0.00027427,-0.00006334,0.,0.00001628,0.000265
 38,0.,-0.00011867,-0.00009767,0.,0.00000131,0.00001125,0.,-0.00000233,
 -0.00001061,0.,-0.00001083,0.00000327,0.,-0.00000395,0.00000220,0.,0.0
 0062002,-0.00009786,0.,-0.00001150,-0.00009841,0.,0.00022458,-0.000469
 90,-0.00000003,-0.00093113,-0.00243092,-0.00000006,-0.00409028,-0.0026
 9637,0.00000007,0.01035405,-0.01108225,-0.00000060,0.00034066,-0.00052
 102,0.,-0.01215664,0.02567973,0.00000141,-0.17699029,0.14213423,0.0000
 0846,0.00064739,0.00045773,-0.00000002,0.00110249,-0.00022802,-0.00000
 010,0.18325960,0.00012007,0.00000549,0.,0.00018981,0.00032034,0.,0.000
 44097,-0.00072762,0.,-0.00040116,0.00008398,0.,-0.00000093,-0.00029847
 ,0.,0.00006732,0.00009573,0.,-0.00000211,-0.00001106,0.,0.00000678,0.0
 0000999,0.,0.00001005,-0.00000388,0.,0.00000506,-0.00000085,0.,-0.0008
 5456,0.00031786,0.,0.00000860,0.00026645,0.,-0.00140394,0.00006962,0.0
 0000007,-0.00280634,-0.00389518,-0.00000041,-0.00157518,0.00041142,-0.
 00000029,0.02075834,-0.01464322,-0.00000102,0.00093789,-0.00098448,-0.
 00000006,-0.00656331,0.00787124,0.00000025,0.14324574,-0.23045493,-0.0
 0001134,-0.00009462,0.00097830,0.00000019,0.00026902,0.00060050,0.0000
 0021,-0.15263474,0.23993227,0.00000001,0.,0.00000603,0.00000002,0.0000
 0004,0.00002630,0.00000005,-0.00000009,-0.00001885,-0.00000005,0.00000
 001,0.00001473,0.,-0.00000003,0.00000737,0.,0.00000002,-0.00000565,0.,
 0.,0.00001229,0.,0.,0.00002174,0.,0.,0.00000337,0.,0.,-0.00002049,-0.0
 0000009,0.00000005,0.00005935,0.,0.00000002,-0.00009751,-0.00000009,0.
 00000007,-0.00132350,-0.00000016,-0.00000045,0.00417067,0.00000016,-0.
 00000022,0.00749243,0.00000096,-0.00000066,0.00277994,0.00000006,-0.00
 000007,0.00060245,0.00000013,-0.00000017,0.00455991,0.00000832,-0.0000
 1125,-0.03318607,0.,0.00000018,-0.00275147,-0.00000010,0.00000017,-0.0
 0407721,-0.00000922,0.00001236,0.02222826,-0.01279987,-0.00101990,0.,0
 .00176197,0.00800713,-0.00000005,-0.10033605,0.04963386,-0.00000042,0.
 02042197,-0.00190265,-0.00000004,-0.00136813,0.00839475,0.00000004,-0.
 00003849,0.00150548,0.,0.00042715,-0.00052633,0.,-0.00039417,-0.000073
 19,-0.00000001,-0.00026571,0.00020417,0.,-0.00047918,-0.00015566,0.,-0
 .29366037,-0.04436525,-0.00000014,-0.05338394,-0.01727648,0.00000015,-
 0.17921887,0.13295239,0.00000052,-0.04735318,0.04228967,0.00000157,0.0
 0657036,-0.00396501,-0.00000023,0.00151272,-0.01648331,-0.00000081,-0.
 00011550,-0.00035650,0.00000002,-0.00339054,-0.01363479,-0.00000040,0.
 00688863,-0.00611763,-0.00000056,-0.00060302,0.00048768,0.,0.00062879,
 -0.00059176,0.00000014,-0.00042405,0.00082407,0.00000007,0.64656475,-0
 .01148874,0.00692803,0.00000006,0.04983955,-0.01775829,0.00000006,0.02
 643672,-0.01356055,-0.00000016,-0.00032786,-0.00474542,-0.00000009,-0.
 00052802,-0.00745455,0.,0.01110745,0.00418813,0.,0.00014572,-0.0010076
 3,0.,0.00008485,0.00061747,-0.00000002,0.00046896,-0.00046908,0.,-0.00
 002587,-0.00001733,0.,-0.05078763,-0.08709556,0.00000019,-0.01106172,-
 0.05971714,0.00000020,0.10342750,-0.23630732,-0.00000072,0.01888515,0.
 01034800,-0.00000013,0.03085615,-0.04217019,-0.00000054,-0.00627982,-0
 .00224248,-0.00000023,-0.00126384,0.00076763,0.00000009,-0.01580804,0.
 00683367,0.00000029,0.00885446,0.00680573,0.00000017,-0.00062155,0.001
 07573,0.00000012,0.00028185,-0.00056223,-0.00000006,0.00039285,-0.0000
 8261,0.00000001,-0.14044513,0.43601642,-0.00000016,0.00000007,0.002817
 47,0.00000003,-0.00000038,-0.00421105,-0.00000035,0.00000063,0.0038503
 0,0.00000025,-0.00000009,0.00642551,-0.00000001,0.00000016,0.00081263,
 0.00000006,-0.00000009,0.00080355,0.,0.,-0.00020884,0.,0.,-0.00099397,
 0.,0.,-0.00092602,0.,0.,-0.00036278,-0.00000024,-0.00000036,-0.0375921
 3,-0.00000002,0.00000044,-0.02169617,-0.00000006,-0.00000046,-0.039917
 35,0.00000023,0.00000039,0.00614576,0.00000010,-0.00000090,0.00531950,
 0.,-0.00000019,0.00193425,0.00000003,0.00000006,-0.00054548,-0.0000002
 3,-0.00000004,0.00008082,0.00000011,0.00000010,-0.00079730,0.00000002,
 0.00000003,-0.00035316,0.00000002,-0.00000008,0.00108094,0.,0.,0.00012
 492,0.00000019,0.00000062,0.07883840,0.00327119,0.00102396,0.00000012,
 0.00722663,0.01158531,0.,0.01567650,-0.01798148,-0.00000022,-0.0111906
 0,0.00200413,0.00000002,-0.00089385,-0.00954612,-0.00000002,0.00322565
 ,0.00311075,0.00000001,-0.00019111,-0.00020040,0.,0.00055671,0.0002971
 4,-0.00000003,0.00031044,-0.00005888,0.,0.00008812,0.00002776,-0.00000
 001,-0.01630069,0.02504871,0.,0.00039210,0.00838478,-0.00000006,-0.036
 08627,-0.01278529,0.00000061,0.02263833,-0.01035564,-0.00000086,-0.331
 79500,-0.09543430,0.00000721,-0.00869786,0.01037684,0.00000052,0.00019
 338,0.00020383,0.00000002,-0.08716390,0.01450618,0.00000386,0.00486984
 ,0.00979534,0.00000024,-0.00010927,-0.00005254,0.00000006,0.00095568,-
 0.00192968,-0.00000018,-0.00129589,-0.00051932,-0.00000008,0.01048029,
 -0.00843237,0.00000001,0.61058106,-0.00019286,-0.00059899,0.00000001,-
 0.00093858,-0.00262053,-0.00000002,-0.00724892,0.00077575,0.00000002,0
 .00103348,-0.00053742,0.00000002,0.00002346,0.00092365,0.,-0.00022339,
 -0.00074261,0.,0.00009847,-0.00017935,0.,0.00004491,0.00004671,0.,0.00
 013556,-0.00005506,0.,0.00004736,-0.00005681,0.,0.00644408,-0.02722184
 ,0.00000018,0.00059730,-0.00174611,-0.00000002,-0.03337428,-0.00299661
 ,0.00000082,0.00045184,-0.00823189,-0.00000024,-0.06021741,-0.13979068
 ,0.00000048,-0.00134311,0.00234932,0.00000013,-0.00185181,-0.00007086,
 -0.00000001,0.04524946,0.01565706,-0.00000137,-0.00145278,-0.00815727,
 -0.00000055,-0.00003128,0.00041743,0.00000003,0.00090997,0.00196531,0.
 ,0.00143517,0.00035191,0.00000003,0.00735955,0.00612122,0.00000002,-0.
 13446266,0.47993660,0.00000004,-0.00000005,0.00037082,-0.00000003,0.,-
 0.00029632,-0.00000004,-0.00000012,-0.00027818,-0.00000005,0.,0.000060
 96,0.00000003,0.00000003,0.00021127,-0.00000010,0.00000003,-0.00000009
 ,0.,0.,-0.00000982,-0.00000001,0.,-0.00017262,0.,0.,-0.00001407,0.,0.,
 -0.00010554,-0.00000007,0.00000003,0.00676153,0.00000005,-0.00000005,-
 0.00079624,0.00000028,-0.00000090,0.00994723,-0.00000044,0.00000004,0.
 00220015,0.00000699,0.00000220,-0.04404138,0.00000021,-0.00000029,-0.0
 0058424,-0.00000004,-0.00000001,-0.00055655,0.00000450,-0.00000065,0.0
 1076095,-0.00000021,-0.00000040,0.00396731,0.,0.00000002,-0.00011958,-
 0.00000023,0.00000015,-0.00333669,0.00000006,0.00000001,0.00013102,-0.
 00000034,0.00000028,-0.00203687,-0.00001357,0.00000340,0.02997007,-0.0
 0090411,-0.00019614,-0.00000003,-0.00210848,-0.00267549,0.00000003,-0.
 00348026,0.00644085,0.00000006,0.00344942,-0.00025898,-0.00000002,0.00
 003070,0.00248855,0.,-0.00073040,-0.00087613,0.,0.00003037,0.00006154,
 0.,-0.00045871,-0.00010886,0.00000001,-0.00006008,0.00002256,0.,-0.000
 02927,-0.00004662,0.,-0.00530285,-0.00366850,-0.00000005,-0.00087190,-
 0.00242903,0.00000002,0.00558488,0.00060246,-0.00000008,-0.00402277,0.
 00257852,0.00000019,-0.04646423,0.03409156,0.00000124,0.00093974,-0.00
 142773,-0.00000008,0.00031626,0.00003621,0.,-0.00089349,-0.00620269,-0
 .00000026,-0.00107431,0.00015874,0.00000015,0.00004683,-0.00002988,0.,
 -0.00008462,0.00018773,-0.00000004,-0.00034238,-0.00002751,0.00000001,
 -0.00142557,-0.00371063,0.00000003,-0.18674148,0.17750647,0.00000298,0
 .24459673,0.00294350,0.00016497,0.00000005,0.00298844,0.00863656,-0.00
 000002,0.01561397,-0.01197396,-0.00000016,-0.00689903,0.00190391,0.000
 00001,-0.00052545,-0.00487283,-0.00000002,0.00048176,0.00177372,0.0000
 0001,-0.00016492,0.00013043,0.,0.00039104,0.00005773,-0.00000002,-0.00
 005546,0.00006704,0.,-0.00005358,0.00009423,0.,-0.01075441,0.01423769,
 -0.00000008,0.00150585,0.00613561,0.,-0.01108093,-0.00136705,-0.000000
 03,0.00942114,-0.00393185,-0.00000034,0.01110708,0.01899585,-0.0000003
 0,-0.00186075,0.00351754,0.00000016,0.00002991,0.00006810,0.00000001,-
 0.01302382,0.00451645,0.00000071,0.00177275,0.00372049,0.00000009,0.00
 003844,-0.00006723,0.00000001,0.00019367,-0.00007682,0.00000002,-0.000
 20097,-0.00021282,-0.00000004,-0.00474518,-0.00651165,0.00000004,0.205
 39393,-0.31553894,-0.00000372,-0.20251700,0.28053282,0.00000003,0.,-0.
 00011098,0.00000012,0.00000014,0.00040273,0.00000011,-0.00000030,-0.00
 066088,-0.00000015,0.00000002,-0.00027182,0.,-0.00000013,-0.00010900,0
 .00000004,0.00000006,-0.00000247,0.,0.,-0.00001532,0.,0.,0.00017156,0.
 ,0.,0.00002939,0.,0.,0.00006277,-0.00000017,0.00000021,-0.00715519,-0.
 00000004,0.00000007,0.00063337,-0.00000044,0.00000027,-0.00345039,0.00
 000025,-0.00000012,0.00008734,0.00000140,-0.00000104,-0.00206258,-0.00
 000009,0.00000019,-0.00000779,0.,0.,0.00008219,0.00000032,0.00000016,0
 .00597100,0.00000011,-0.00000017,0.00163589,0.,0.,0.00003503,-0.000000
 01,0.00000008,-0.00078741,0.00000003,0.00000004,-0.00076003,0.00000029
 ,-0.00000016,0.00140707,0.00000235,-0.00000291,-0.01203314,-0.00000416
 ,0.00000361,0.01690864\\0.00195510,-0.00277070,-0.00000006,-0.00341117
 ,-0.00703800,0.00000005,-0.00831285,-0.00076269,-0.00000007,-0.0011727
 4,0.00147487,0.00000008,0.00105107,0.00584180,0.00000004,0.00212315,0.
 00187534,-0.00000014,0.00054491,-0.00048503,0.00000005,-0.00053396,0.0
 0036668,0.,0.00007123,0.00050567,0.,0.00038371,0.00024345,0.00000002,0
 .00625392,-0.00822301,0.00000008,-0.00411404,-0.01490229,0.00000033,0.
 00402061,-0.00416217,-0.00000030,-0.00722475,0.00277978,-0.00000036,-0
 .00892048,-0.00350343,-0.00000045,0.00198838,-0.00092422,-0.00000033,-
 0.00048658,0.00023892,-0.00000002,0.00492493,0.00015459,0.00000039,0.0
 0599933,0.00398983,0.00000041,0.00009891,0.00045051,0.,0.00062970,-0.0
 0003832,-0.00000004,0.00067350,0.00048417,0.00000002,0.00281673,0.0009
 3087,0.00000006,0.00624558,0.00501071,-0.00000027,-0.00560416,0.018462
 68,0.00000047\\\@
 The archive entry for this job was punched.


 MORNING PEOPLE ARE USUALLY ADMIRED AS EARLY BIRDS.
 RECALL BEN FRANKLIN'S APHORISM THAT THE EARLY BIRD GETS THE WORM.
 I IDENTIFY WITH THE WORM. --  CRAIG JAGGER, MINNEAPOLIS, KS.
 Job cpu time:       0 days  2 hours 47 minutes 40.8 seconds.
 Elapsed time:       0 days  0 hours 17 minutes 16.3 seconds.
 File lengths (MBytes):  RWF=   1380 Int=      0 D2E=      0 Chk=     48 Scr=      8
 Normal termination of Gaussian 16 at Mon Jul 13 20:46:35 2020.
