 Entering Gaussian System, Link 0=g16
 Initial command:
 /gpfs/loomis/apps/avx/software/Gaussian/16-C.01_AVX/g16/l1.exe "/home/fas/batista/pev4/scratch60/gauss-scratch/Gau-45347.inp" -scrdir="/home/fas/batista/pev4/scratch60/gauss-scratch/"
 Entering Link 1 = /gpfs/loomis/apps/avx/software/Gaussian/16-C.01_AVX/g16/l1.exe PID=     45348.
  
 Copyright (c) 1988-2019, Gaussian, Inc.  All Rights Reserved.
  
 This is part of the Gaussian(R) 16 program.  It is based on
 the Gaussian(R) 09 system (copyright 2009, Gaussian, Inc.),
 the Gaussian(R) 03 system (copyright 2003, Gaussian, Inc.),
 the Gaussian(R) 98 system (copyright 1998, Gaussian, Inc.),
 the Gaussian(R) 94 system (copyright 1995, Gaussian, Inc.),
 the Gaussian 92(TM) system (copyright 1992, Gaussian, Inc.),
 the Gaussian 90(TM) system (copyright 1990, Gaussian, Inc.),
 the Gaussian 88(TM) system (copyright 1988, Gaussian, Inc.),
 the Gaussian 86(TM) system (copyright 1986, Carnegie Mellon
 University), and the Gaussian 82(TM) system (copyright 1983,
 Carnegie Mellon University). Gaussian is a federally registered
 trademark of Gaussian, Inc.
  
 This software contains proprietary and confidential information,
 including trade secrets, belonging to Gaussian, Inc.
  
 This software is provided under written license and may be
 used, copied, transmitted, or stored only in accord with that
 written license.
  
 The following legend is applicable only to US Government
 contracts under FAR:
  
                    RESTRICTED RIGHTS LEGEND
  
 Use, reproduction and disclosure by the US Government is
 subject to restrictions as set forth in subparagraphs (a)
 and (c) of the Commercial Computer Software - Restricted
 Rights clause in FAR 52.227-19.
  
 Gaussian, Inc.
 340 Quinnipiac St., Bldg. 40, Wallingford CT 06492
  
  
 ---------------------------------------------------------------
 Warning -- This program may not be used in any manner that
 competes with the business of Gaussian, Inc. or will provide
 assistance to any competitor of Gaussian, Inc.  The licensee
 of this program is prohibited from giving any competitor of
 Gaussian, Inc. access to this program.  By using this program,
 the user acknowledges that Gaussian, Inc. is engaged in the
 business of creating and licensing software in the field of
 computational chemistry and represents and warrants to the
 licensee that it is not a competitor of Gaussian, Inc. and that
 it will not use this program in any manner prohibited above.
 ---------------------------------------------------------------
  

 Cite this work as:
 Gaussian 16, Revision C.01,
 M. J. Frisch, G. W. Trucks, H. B. Schlegel, G. E. Scuseria, 
 M. A. Robb, J. R. Cheeseman, G. Scalmani, V. Barone, 
 G. A. Petersson, H. Nakatsuji, X. Li, M. Caricato, A. V. Marenich, 
 J. Bloino, B. G. Janesko, R. Gomperts, B. Mennucci, H. P. Hratchian, 
 J. V. Ortiz, A. F. Izmaylov, J. L. Sonnenberg, D. Williams-Young, 
 F. Ding, F. Lipparini, F. Egidi, J. Goings, B. Peng, A. Petrone, 
 T. Henderson, D. Ranasinghe, V. G. Zakrzewski, J. Gao, N. Rega, 
 G. Zheng, W. Liang, M. Hada, M. Ehara, K. Toyota, R. Fukuda, 
 J. Hasegawa, M. Ishida, T. Nakajima, Y. Honda, O. Kitao, H. Nakai, 
 T. Vreven, K. Throssell, J. A. Montgomery, Jr., J. E. Peralta, 
 F. Ogliaro, M. J. Bearpark, J. J. Heyd, E. N. Brothers, K. N. Kudin, 
 V. N. Staroverov, T. A. Keith, R. Kobayashi, J. Normand, 
 K. Raghavachari, A. P. Rendell, J. C. Burant, S. S. Iyengar, 
 J. Tomasi, M. Cossi, J. M. Millam, M. Klene, C. Adamo, R. Cammi, 
 J. W. Ochterski, R. L. Martin, K. Morokuma, O. Farkas, 
 J. B. Foresman, and D. J. Fox, Gaussian, Inc., Wallingford CT, 2019.
 
 ******************************************
 Gaussian 16:  ES64L-G16RevC.01  3-Jul-2019
                13-Jul-2020 
 ******************************************
 %chk=config_4_6.chk
 %mem=58GB
 %nprocshared=10
 Will use up to   10 processors via shared memory.
 ----------------------------------------------------------------------
 #p opt=addgic freq td wb97xd/cc-pvdz nosymm int=ultrafine scrf=(solven
 t=CarbonTetraChloride)
 ----------------------------------------------------------------------
 1/18=20,19=15,26=6,38=1,145=903/1,3;
 2/9=110,12=2,15=1,17=6,18=5,40=1/2;
 3/5=16,11=9,25=1,30=1,70=2201,71=1,72=11,74=-58,75=-5/1,2,3,8;
 4//1;
 5/5=2,38=5,53=11/2;
 8/6=1,10=1/1;
 9/15=2,42=1,70=2/14;
 10/5=4,31=1/2;
 6/7=2,8=2,9=2,10=2/1;
 7/12=6,13=5,30=1/1,2,3,16;
 1/18=20,19=15,26=6,145=903/3(2);
 2/9=110,15=1/2;
 99//99;
 2/9=110,15=1/2;
 3/5=16,11=9,25=1,30=1,70=2205,71=1,72=11,74=-58,75=-5/1,2,3,8;
 4/5=5,16=3,69=1/1;
 5/5=2,38=5,53=11/2;
 8/6=1,10=1/1;
 9/15=2,42=1,49=4,70=2/14;
 10/5=4,31=1/2;
 7/12=6,13=5,30=1/1,2,3,16;
 1/18=20,19=15,26=6,145=903/3(-8);
 2/9=110,15=1/2;
 6/7=2,8=2,9=2,10=2/1;
 99/9=10/99;
 Leave Link    1 at Mon Jul 13 13:35:28 2020, MaxMem=  7784628224 cpu:               4.8 elap:               0.5
 (Enter /gpfs/loomis/apps/avx/software/Gaussian/16-C.01_AVX/g16/l101.exe)
 ------------------------------------------------
 NM 2D-scan of HBT TD-WB97XD pVDZ in CTC Relaxed.
 ------------------------------------------------
 Symbolic Z-matrix:
 Charge =  0 Multiplicity = 1
 C                     1.69011  -3.26988  -0.00002 
 C                     0.99665  -2.0629   -0.00002 
 C                     1.68899  -0.81425  -0.00002 
 C                     3.10813  -0.80512  -0.00002 
 C                     3.78155  -2.01103  -0.00002 
 C                     3.08557  -3.23747  -0.00002 
 H                     1.15715  -4.22186  -0.00002 
 H                     3.63529   0.15002  -0.00002 
 H                     4.8733   -2.018    -0.00002 
 H                     3.64347  -4.17518  -0.00002 
 N                     0.90431   0.26445  -0.00002 
 S                    -0.73824  -1.77876  -0.00002 
 C                    -1.38426   1.01381   0. 
 C                    -2.79174   0.84798  0. 
 C                    -0.88698   2.40796   0.00003 
 C                    -3.64387   1.94773   0.00002 
 H                    -3.20697  -0.16108  -0.00003 
 C                    -1.77868   3.49447   0.00006 
 C                    -3.15102   3.27495   0.00006 
 H                    -4.7227    1.78121   0.00002 
 H                    -1.3518    4.49806   0.00008 
 H                    -3.84449   4.11624   0.00008 
 C                    -0.42362  -0.02419  -0.00002 
 O                     0.40184   2.63893   0.00004 
 H                     0.83152   1.82982   0.00002 
 
 Initializing the GIC definitions file.
 Number of initial coordinates =   131
 Number of input entries/lines =    52
 Number of additional coordinates =     2
 Number of removed coordinates =     0
 Number of frozen coordinates =     2
 Number of final active and frozen coordinates =   133
 ITRead=  0  0  0  0  0  0  0  0  0  0  0  0  0  0  0  0  0  0  0  0
 ITRead=  0  0  0  0  0
 MicOpt= -1 -1 -1 -1 -1 -1 -1 -1 -1 -1 -1 -1 -1 -1 -1 -1 -1 -1 -1 -1
 MicOpt= -1 -1 -1 -1 -1
 NAtoms=     25 NQM=       25 NQMF=       0 NMMI=      0 NMMIF=      0
                NMic=       0 NMicF=      0.
                    Isotopes and Nuclear Properties:
 (Nuclear quadrupole moments (NQMom) in fm**2, nuclear magnetic moments (NMagM)
  in nuclear magnetons)

  Atom         1           2           3           4           5           6           7           8           9          10
 IAtWgt=          12          12          12          12          12          12           1           1           1           1
 AtmWgt=  12.0000000  12.0000000  12.0000000  12.0000000  12.0000000  12.0000000   1.0078250   1.0078250   1.0078250   1.0078250
 NucSpn=           0           0           0           0           0           0           1           1           1           1
 AtZEff=  -0.0000000  -0.0000000  -0.0000000  -0.0000000  -0.0000000  -0.0000000  -0.0000000  -0.0000000  -0.0000000  -0.0000000
 NQMom=    0.0000000   0.0000000   0.0000000   0.0000000   0.0000000   0.0000000   0.0000000   0.0000000   0.0000000   0.0000000
 NMagM=    0.0000000   0.0000000   0.0000000   0.0000000   0.0000000   0.0000000   2.7928460   2.7928460   2.7928460   2.7928460
 AtZNuc=   6.0000000   6.0000000   6.0000000   6.0000000   6.0000000   6.0000000   1.0000000   1.0000000   1.0000000   1.0000000

  Atom        11          12          13          14          15          16          17          18          19          20
 IAtWgt=          14          32          12          12          12          12           1          12          12           1
 AtmWgt=  14.0030740  31.9720718  12.0000000  12.0000000  12.0000000  12.0000000   1.0078250  12.0000000  12.0000000   1.0078250
 NucSpn=           2           0           0           0           0           0           1           0           0           1
 AtZEff=  -0.0000000  -0.0000000  -0.0000000  -0.0000000  -0.0000000  -0.0000000  -0.0000000  -0.0000000  -0.0000000  -0.0000000
 NQMom=    2.0440000   0.0000000   0.0000000   0.0000000   0.0000000   0.0000000   0.0000000   0.0000000   0.0000000   0.0000000
 NMagM=    0.4037610   0.0000000   0.0000000   0.0000000   0.0000000   0.0000000   2.7928460   0.0000000   0.0000000   2.7928460
 AtZNuc=   7.0000000  16.0000000   6.0000000   6.0000000   6.0000000   6.0000000   1.0000000   6.0000000   6.0000000   1.0000000

  Atom        21          22          23          24          25
 IAtWgt=           1           1          12          16           1
 AtmWgt=   1.0078250   1.0078250  12.0000000  15.9949146   1.0078250
 NucSpn=           1           1           0           0           1
 AtZEff=  -0.0000000  -0.0000000  -0.0000000  -0.0000000  -0.0000000
 NQMom=    0.0000000   0.0000000   0.0000000   0.0000000   0.0000000
 NMagM=    2.7928460   2.7928460   0.0000000   0.0000000   2.7928460
 AtZNuc=   1.0000000   1.0000000   6.0000000   8.0000000   1.0000000
 Leave Link  101 at Mon Jul 13 13:35:31 2020, MaxMem=  7784628224 cpu:              31.6 elap:               3.2
 (Enter /gpfs/loomis/apps/avx/software/Gaussian/16-C.01_AVX/g16/l103.exe)

 GradGradGradGradGradGradGradGradGradGradGradGradGradGradGradGradGradGrad
 Berny optimization.
 Initialization pass.
                           ----------------------------
                           !    Initial Parameters    !
                           ! (Angstroms and Degrees)  !
 --------------------------                            --------------------------
 ! Name  Definition              Value          Derivative Info.                !
 --------------------------------------------------------------------------------
 ! R1    R(1,2)                  1.392          estimate D2E/DX2                !
 ! R2    R(1,6)                  1.3958         estimate D2E/DX2                !
 ! R3    R(1,7)                  1.091          estimate D2E/DX2                !
 ! R4    R(2,3)                  1.4277         estimate D2E/DX2                !
 ! R5    R(2,12)                 1.758          estimate D2E/DX2                !
 ! R6    R(3,4)                  1.4192         estimate D2E/DX2                !
 ! R7    R(3,11)                 1.3339         estimate D2E/DX2                !
 ! R8    R(4,5)                  1.3812         estimate D2E/DX2                !
 ! R9    R(4,8)                  1.091          estimate D2E/DX2                !
 ! R10   R(5,6)                  1.4102         estimate D2E/DX2                !
 ! R11   R(5,9)                  1.0918         estimate D2E/DX2                !
 ! R12   R(6,10)                 1.0911         estimate D2E/DX2                !
 ! R13   R(11,23)                1.3589         estimate D2E/DX2                !
 ! R14   R(12,23)                1.7826         estimate D2E/DX2                !
 ! R15   R(13,14)                1.4172         estimate D2E/DX2                !
 ! R16   R(13,15)                1.4802         estimate D2E/DX2                !
 ! R17   R(13,23)                1.4143         estimate D2E/DX2                !
 ! R18   R(14,16)                1.3912         estimate D2E/DX2                !
 ! R19   R(14,17)                1.0912         estimate D2E/DX2                !
 ! R20   R(15,18)                1.4056         estimate D2E/DX2                !
 ! R21   R(15,24)                1.3094         estimate D2E/DX2                !
 ! R22   R(16,19)                1.4158         estimate D2E/DX2                !
 ! R23   R(16,20)                1.0916         estimate D2E/DX2                !
 ! R24   R(18,19)                1.3898         estimate D2E/DX2                !
 ! R25   R(18,21)                1.0906         estimate D2E/DX2                !
 ! R26   R(19,22)                1.0903         estimate D2E/DX2                !
 ! R27   R(24,25)                0.9161         estimate D2E/DX2                !
 ! A1    A(2,1,6)              118.5488         estimate D2E/DX2                !
 ! A2    A(2,1,7)              120.8791         estimate D2E/DX2                !
 ! A3    A(6,1,7)              120.5721         estimate D2E/DX2                !
 ! A4    A(1,2,3)              121.1135         estimate D2E/DX2                !
 ! A5    A(1,2,12)             129.1807         estimate D2E/DX2                !
 ! A6    A(3,2,12)             109.7058         estimate D2E/DX2                !
 ! A7    A(2,3,4)              119.376          estimate D2E/DX2                !
 ! A8    A(2,3,11)             114.9596         estimate D2E/DX2                !
 ! A9    A(4,3,11)             125.6644         estimate D2E/DX2                !
 ! A10   A(3,4,5)              118.8115         estimate D2E/DX2                !
 ! A11   A(3,4,8)              119.2637         estimate D2E/DX2                !
 ! A12   A(5,4,8)              121.9248         estimate D2E/DX2                !
 ! A13   A(4,5,6)              121.2455         estimate D2E/DX2                !
 ! A14   A(4,5,9)              119.5458         estimate D2E/DX2                !
 ! A15   A(6,5,9)              119.2087         estimate D2E/DX2                !
 ! A16   A(1,6,5)              120.9047         estimate D2E/DX2                !
 ! A17   A(1,6,10)             119.4203         estimate D2E/DX2                !
 ! A18   A(5,6,10)             119.675          estimate D2E/DX2                !
 ! A19   A(3,11,23)            113.7703         estimate D2E/DX2                !
 ! A20   A(2,12,23)             89.1354         estimate D2E/DX2                !
 ! A21   A(14,13,15)           116.3502         estimate D2E/DX2                !
 ! A22   A(14,13,23)           126.0639         estimate D2E/DX2                !
 ! A23   A(15,13,23)           117.5858         estimate D2E/DX2                !
 ! A24   A(13,14,16)           121.0502         estimate D2E/DX2                !
 ! A25   A(13,14,17)           119.0866         estimate D2E/DX2                !
 ! A26   A(16,14,17)           119.8633         estimate D2E/DX2                !
 ! A27   A(13,15,18)           120.9938         estimate D2E/DX2                !
 ! A28   A(13,15,24)           119.7912         estimate D2E/DX2                !
 ! A29   A(18,15,24)           119.2149         estimate D2E/DX2                !
 ! A30   A(14,16,19)           121.8583         estimate D2E/DX2                !
 ! A31   A(14,16,20)           118.9952         estimate D2E/DX2                !
 ! A32   A(19,16,20)           119.1465         estimate D2E/DX2                !
 ! A33   A(15,18,19)           120.2874         estimate D2E/DX2                !
 ! A34   A(15,18,21)           117.582          estimate D2E/DX2                !
 ! A35   A(19,18,21)           122.1306         estimate D2E/DX2                !
 ! A36   A(16,19,18)           119.4601         estimate D2E/DX2                !
 ! A37   A(16,19,22)           120.1289         estimate D2E/DX2                !
 ! A38   A(18,19,22)           120.4109         estimate D2E/DX2                !
 ! A39   A(11,23,12)           112.4289         estimate D2E/DX2                !
 ! A40   A(11,23,13)           120.5205         estimate D2E/DX2                !
 ! A41   A(12,23,13)           127.0506         estimate D2E/DX2                !
 ! A42   A(15,24,25)           107.8104         estimate D2E/DX2                !
 ! D1    D(6,1,2,3)              0.0            estimate D2E/DX2                !
 ! D2    D(6,1,2,12)          -179.9999         estimate D2E/DX2                !
 ! D3    D(7,1,2,3)            180.0            estimate D2E/DX2                !
 ! D4    D(7,1,2,12)             0.0            estimate D2E/DX2                !
 ! D5    D(2,1,6,5)              0.0            estimate D2E/DX2                !
 ! D6    D(2,1,6,10)           180.0            estimate D2E/DX2                !
 ! D7    D(7,1,6,5)           -180.0            estimate D2E/DX2                !
 ! D8    D(7,1,6,10)             0.0            estimate D2E/DX2                !
 ! D9    D(1,2,3,4)              0.0            estimate D2E/DX2                !
 ! D10   D(1,2,3,11)           180.0            estimate D2E/DX2                !
 ! D11   D(12,2,3,4)           180.0            estimate D2E/DX2                !
 ! D12   D(12,2,3,11)           -0.0001         estimate D2E/DX2                !
 ! D13   D(1,2,12,23)          179.9999         estimate D2E/DX2                !
 ! D14   D(3,2,12,23)           -0.0001         estimate D2E/DX2                !
 ! D15   D(2,3,4,5)              0.0            estimate D2E/DX2                !
 ! D16   D(2,3,4,8)           -180.0            estimate D2E/DX2                !
 ! D17   D(11,3,4,5)          -180.0            estimate D2E/DX2                !
 ! D18   D(11,3,4,8)             0.0            estimate D2E/DX2                !
 ! D19   D(2,3,11,23)            0.0002         estimate D2E/DX2                !
 ! D20   D(4,3,11,23)         -179.9998         estimate D2E/DX2                !
 ! D21   D(3,4,5,6)              0.0            estimate D2E/DX2                !
 ! D22   D(3,4,5,9)           -180.0            estimate D2E/DX2                !
 ! D23   D(8,4,5,6)           -180.0            estimate D2E/DX2                !
 ! D24   D(8,4,5,9)              0.0            estimate D2E/DX2                !
 ! D25   D(4,5,6,1)              0.0            estimate D2E/DX2                !
 ! D26   D(4,5,6,10)          -180.0            estimate D2E/DX2                !
 ! D27   D(9,5,6,1)            180.0            estimate D2E/DX2                !
 ! D28   D(9,5,6,10)             0.0            estimate D2E/DX2                !
 ! D29   D(3,11,23,12)          -0.0003         estimate D2E/DX2                !
 ! D30   D(3,11,23,13)         179.9992         estimate D2E/DX2                !
 ! D31   D(2,12,23,11)           0.0002         estimate D2E/DX2                !
 ! D32   D(2,12,23,13)        -179.9993         estimate D2E/DX2                !
 ! D33   D(15,13,14,16)         -0.0002         estimate D2E/DX2                !
 ! D34   D(15,13,14,17)        179.9998         estimate D2E/DX2                !
 ! D35   D(23,13,14,16)        179.9996         estimate D2E/DX2                !
 ! D36   D(23,13,14,17)         -0.0003         estimate D2E/DX2                !
 ! D37   D(14,13,15,18)          0.0003         estimate D2E/DX2                !
 ! D38   D(14,13,15,24)       -179.9999         estimate D2E/DX2                !
 ! D39   D(23,13,15,18)       -179.9996         estimate D2E/DX2                !
 ! D40   D(23,13,15,24)          0.0003         estimate D2E/DX2                !
 ! D41   D(14,13,23,11)        179.9994         estimate D2E/DX2                !
 ! D42   D(14,13,23,12)         -0.0011         estimate D2E/DX2                !
 ! D43   D(15,13,23,11)         -0.0007         estimate D2E/DX2                !
 ! D44   D(15,13,23,12)        179.9987         estimate D2E/DX2                !
 ! D45   D(13,14,16,19)          0.0            estimate D2E/DX2                !
 ! D46   D(13,14,16,20)       -179.9999         estimate D2E/DX2                !
 ! D47   D(17,14,16,19)        180.0            estimate D2E/DX2                !
 ! D48   D(17,14,16,20)          0.0            estimate D2E/DX2                !
 ! D49   D(13,15,18,19)         -0.0001         estimate D2E/DX2                !
 ! D50   D(13,15,18,21)        179.9999         estimate D2E/DX2                !
 ! D51   D(24,15,18,19)       -179.9999         estimate D2E/DX2                !
 ! D52   D(24,15,18,21)          0.0            estimate D2E/DX2                !
 ! D53   D(13,15,24,25)          0.0001         estimate D2E/DX2                !
 ! D54   D(18,15,24,25)        180.0            estimate D2E/DX2                !
 ! D55   D(14,16,19,18)          0.0002         estimate D2E/DX2                !
 ! D56   D(14,16,19,22)       -179.9999         estimate D2E/DX2                !
 ! D57   D(20,16,19,18)       -179.9999         estimate D2E/DX2                !
 ! D58   D(20,16,19,22)          0.0001         estimate D2E/DX2                !
 ! D59   D(15,18,19,16)         -0.0002         estimate D2E/DX2                !
 ! D60   D(15,18,19,22)        179.9999         estimate D2E/DX2                !
 ! D61   D(21,18,19,16)        179.9999         estimate D2E/DX2                !
 ! D62   D(21,18,19,22)          0.0            estimate D2E/DX2                !
 ! Qtot  GIC-1                 -20.0            Frozen                          !
 ! Ptot  GIC-2                 -40.0            Frozen                          !
 --------------------------------------------------------------------------------
 NOTE: GIC-type coordinates are in arbitrary units.
 Trust Radius=3.00D-01 FncErr=5.00D-06 GrdErr=5.00D-06 EigMax=2.50D+02 EigMin=1.00D-04
 Number of steps in this run=    143 maximum allowed number of steps=    150.
 GradGradGradGradGradGradGradGradGradGradGradGradGradGradGradGradGradGrad

 Leave Link  103 at Mon Jul 13 13:35:31 2020, MaxMem=  7784628224 cpu:               0.3 elap:               0.0
 (Enter /gpfs/loomis/apps/avx/software/Gaussian/16-C.01_AVX/g16/l202.exe)
                          Input orientation:                          
 ---------------------------------------------------------------------
 Center     Atomic      Atomic             Coordinates (Angstroms)
 Number     Number       Type             X           Y           Z
 ---------------------------------------------------------------------
      1          6           0        1.690106   -3.269876   -0.000023
      2          6           0        0.996647   -2.062904   -0.000021
      3          6           0        1.688990   -0.814254   -0.000021
      4          6           0        3.108131   -0.805120   -0.000021
      5          6           0        3.781549   -2.011032   -0.000022
      6          6           0        3.085567   -3.237466   -0.000023
      7          1           0        1.157152   -4.221860   -0.000022
      8          1           0        3.635286    0.150021   -0.000021
      9          1           0        4.873303   -2.017996   -0.000022
     10          1           0        3.643465   -4.175179   -0.000023
     11          7           0        0.904314    0.264445   -0.000020
     12         16           0       -0.738243   -1.778760   -0.000019
     13          6           0       -1.384259    1.013807    0.000002
     14          6           0       -2.791743    0.847980   -0.000003
     15          6           0       -0.886982    2.407956    0.000031
     16          6           0       -3.643868    1.947734    0.000024
     17          1           0       -3.206968   -0.161078   -0.000027
     18          6           0       -1.778678    3.494474    0.000058
     19          6           0       -3.151016    3.274954    0.000056
     20          1           0       -4.722704    1.781213    0.000020
     21          1           0       -1.351801    4.498061    0.000081
     22          1           0       -3.844491    4.116236    0.000079
     23          6           0       -0.423620   -0.024191   -0.000015
     24          8           0        0.401840    2.638935    0.000035
     25          1           0        0.831525    1.829822    0.000016
 ---------------------------------------------------------------------
                    Distance matrix (angstroms):
                    1          2          3          4          5
     1  C    0.000000
     2  C    1.392001   0.000000
     3  C    2.455622   1.427748   0.000000
     4  C    2.843557   2.457720   1.419170   0.000000
     5  C    2.441070   2.785385   2.410618   1.381201   0.000000
     6  C    1.395837   2.396494   2.796852   2.432451   1.410153
     7  H    1.091015   2.164914   3.448859   3.934519   3.431504
     8  H    3.934389   3.443755   2.172071   1.090956   2.165996
     9  H    3.420519   3.876916   3.404239   2.141706   1.091777
    10  H    2.152948   3.386348   3.887903   3.412313   2.168548
    11  N    3.620621   2.329180   1.333908   2.449649   3.668280
    12  S    2.849615   1.758005   2.611844   3.967690   4.525756
    13  C    5.272728   3.890356   3.575846   4.846655   5.986253
    14  C    6.086354   4.777567   4.779121   6.127092   7.168132
    15  C    6.235316   4.851459   4.125321   5.126869   6.428269
    16  C    7.461550   6.133482   6.005660   7.291618   8.414787
    17  H    5.800514   4.613819   4.939337   6.347856   7.229225
    18  C    7.601900   6.211834   5.530810   6.509025   7.824750
    19  C    8.140716   6.759869   6.336188   7.471541   8.717918
    20  H    8.163188   6.891170   6.917100   8.246884   9.311468
    21  H    8.342305   6.968606   6.121038   6.929266   8.289727
    22  H    9.229648   7.849738   7.411420   8.518139   9.782632
    23  C    3.873282   2.484655   2.255509   3.617059   4.650912
    24  O    6.047618   4.739313   3.685278   4.380129   5.748445
    25  H    5.171468   3.896227   2.779638   3.482220   4.843015
                    6          7          8          9         10
     6  C    0.000000
     7  H    2.165137   0.000000
     8  H    3.431801   5.025385   0.000000
     9  H    2.164049   4.320509   2.496594   0.000000
    10  H    1.091126   2.486752   4.325207   2.483131   0.000000
    11  N    4.125681   4.493425   2.733368   4.578473   5.216628
    12  S    4.092596   3.092129   4.779953   5.616644   4.994216
    13  C    6.168685   5.819879   5.093325   6.953339   7.225205
    14  C    7.157768   6.426278   6.464816   8.183322   8.163580
    15  C    6.903039   6.937792   5.054620   7.264293   7.991409
    16  C    8.495387   7.817524   7.497857   9.395170   9.518156
    17  H    7.004296   5.961166   6.849323   8.290895   7.939864
    18  C    8.305414   8.255962   6.363676   8.639224   9.392721
    19  C    9.017016   8.646533   7.471218   9.612753  10.083127
    20  H    9.282039   8.402952   8.515679  10.320725  10.269927
    21  H    8.917882   9.073692   6.616381   9.011711  10.008885
    22  H   10.104584   9.723182   8.466281  10.659678  11.172155
    23  C    4.758102   4.485451   4.062643   5.659740   5.811358
    24  O    6.460223   6.902247   4.080425   6.456082   7.545879
    25  H    5.546000   6.060437   3.268457   5.580473   6.630765
                   11         12         13         14         15
    11  N    0.000000
    12  S    2.621580   0.000000
    13  C    2.408134   2.866316   0.000000
    14  C    3.741838   3.334161   1.417219   0.000000
    15  C    2.793453   4.189358   1.480181   2.462040   0.000000
    16  C    4.849682   4.725401   2.445005   1.391250   2.795035
    17  H    4.133245   2.951525   2.168554   1.091151   3.461542
    18  C    4.198992   5.374895   2.511826   2.833766   1.405575
    19  C    5.050630   5.600134   2.869532   2.453421   2.424362
    20  H    5.827857   5.343159   3.425511   2.144653   3.886589
    21  H    4.797245   6.306738   3.484405   3.923841   2.141167
    22  H    6.114526   6.663314   3.959520   3.433624   3.415417
    23  C    1.358941   1.782555   1.414308   2.523626   2.475893
    24  O    2.427073   4.562435   2.414786   3.661487   1.309356
    25  H    1.567068   3.935230   2.361267   3.753943   1.813148
                   16         17         18         19         20
    16  C    0.000000
    17  H    2.153595   0.000000
    18  C    2.423084   3.924675   0.000000
    19  C    1.415773   3.436487   1.389784   0.000000
    20  H    1.091613   2.463727   3.406252   2.168286   0.000000
    21  H    3.428956   5.014900   1.090602   2.175584   4.329463
    22  H    2.177762   4.324563   2.157352   1.090258   2.494712
    23  C    3.776040   2.786712   3.770568   4.280542   4.662790
    24  O    4.104328   4.567666   2.342350   3.609335   5.195829
    25  H    4.476946   4.502567   3.095840   4.236630   5.554442
                   21         22         23         24         25
    21  H    0.000000
    22  H    2.521764   0.000000
    23  C    4.616523   5.370799   0.000000
    24  O    2.555701   4.495969   2.788122   0.000000
    25  H    3.447668   5.205075   2.238918   0.916129   0.000000
 Symmetry turned off by external request.
 Stoichiometry    C13H9NOS
 Framework group  C1[X(C13H9NOS)]
 Deg. of freedom    69
 Full point group                 C1      NOp   1
 Rotational constants (GHZ):           1.3645720           0.2858316           0.2363287
 Leave Link  202 at Mon Jul 13 13:35:31 2020, MaxMem=  7784628224 cpu:               0.2 elap:               0.0
 (Enter /gpfs/loomis/apps/avx/software/Gaussian/16-C.01_AVX/g16/l301.exe)
 Standard basis: CC-pVDZ (5D, 7F)
 Ernie: Thresh=  0.10000D-02 Tol=  0.10000D-05 Strict=F.
 Ernie:  40 primitive shells out of 425 were deleted.
   273 basis functions,   629 primitive gaussians,   289 cartesian basis functions
    59 alpha electrons       59 beta electrons
       nuclear repulsion energy      1097.1295956414 Hartrees.
 IExCor= 4639 DFT=T Ex+Corr=wB97XD ExCW=0 ScaHFX=  1.000000
 ScaDFX=  1.000000  1.000000  1.000000  1.000000 ScalE2=  1.000000  1.000000
 IRadAn=      5 IRanWt=     -1 IRanGd=            0 ICorTp=0 IEmpDi=121
 HFx  wShort=  0.000000 wLong=  0.200000 cFull=  0.222036 cShort=  0.000000 cLong=  0.777964
 DFx  wShort=  0.000000 wLong=  0.200000 cFull=  0.000000 cShort=  0.000000 cLong=  1.000000
 NAtoms=   25 NActive=   25 NUniq=   25 SFac= 1.00D+00 NAtFMM=   60 NAOKFM=F Big=F
 Integral buffers will be    131072 words long.
 Raffenetti 1 integral format.
 Two-electron integral symmetry is turned off.
 R6Disp:  Grimme-D2 Dispersion energy=       -0.0139755500 Hartrees.
 Nuclear repulsion after empirical dispersion term =     1097.1156200914 Hartrees.
 ------------------------------------------------------------------------------
 Polarizable Continuum Model (PCM)
 =================================
 Model                : PCM.
 Atomic radii         : UFF (Universal Force Field).
 Polarization charges : Total charges.
 Charge compensation  : None.
 Solution method      : On-the-fly selection.
 Cavity type          : Scaled VdW (van der Waals Surface) (Alpha=1.100).
 Cavity algorithm     : GePol (No added spheres)
                        Default sphere list used, NSphG=   25.
                        Lebedev-Laikov grids with approx.  5.0 points / Ang**2.
                        Smoothing algorithm: York/Karplus (Gamma=1.0000).
                        Polarization charges: spherical gaussians, with
                                              point-specific exponents (IZeta= 3).
                        Self-potential: point-specific (ISelfS= 7).
                        Self-field    : sphere-specific E.n sum rule (ISelfD= 2).
 1st derivatives      : Analytical E(r).r(x)/FMM algorithm (CHGder, D1EAlg=3).
                        Cavity 1st derivative terms included.
 Solvent              : CarbonTetraChloride, Eps=   2.228000 Eps(inf)=   2.131892
 ------------------------------------------------------------------------------
 GePol: Number of generator spheres                  =      25
 GePol: Total number of spheres                      =      25
 GePol: Number of exposed spheres                    =      25 (100.00%)
 GePol: Number of points                             =    2186
 GePol: Average weight of points                     =       0.13
 GePol: Minimum weight of points                     =   0.67D-10
 GePol: Maximum weight of points                     =    0.20577
 GePol: Number of points with low weight             =     149
 GePol: Fraction of low-weight points (<1% of avg)   =       6.82%
 GePol: Cavity surface area                          =    274.528 Ang**2
 GePol: Cavity volume                                =    293.719 Ang**3
 Leave Link  301 at Mon Jul 13 13:35:31 2020, MaxMem=  7784628224 cpu:               0.8 elap:               0.1
 (Enter /gpfs/loomis/apps/avx/software/Gaussian/16-C.01_AVX/g16/l302.exe)
 NPDir=0 NMtPBC=     1 NCelOv=     1 NCel=       1 NClECP=     1 NCelD=      1
         NCelK=      1 NCelE2=     1 NClLst=     1 CellRange=     0.0.
 One-electron integrals computed using PRISM.
 NBasis=   273 RedAO= T EigKep=  3.15D-04  NBF=   273
 NBsUse=   273 1.00D-06 EigRej= -1.00D+00 NBFU=   273
 Precomputing XC quadrature grid using
 IXCGrd= 4 IRadAn=           5 IRanWt=          -1 IRanGd=           0 AccXCQ= 0.00D+00.
 Generated NRdTot=       0 NPtTot=           0 NUsed=           0 NTot=          32
 NSgBfM=   288   288   288   288   288 MxSgAt=    25 MxSgA2=    25.
 Leave Link  302 at Mon Jul 13 13:35:32 2020, MaxMem=  7784628224 cpu:               2.5 elap:               0.3
 (Enter /gpfs/loomis/apps/avx/software/Gaussian/16-C.01_AVX/g16/l303.exe)
 DipDrv:  MaxL=1.
 Leave Link  303 at Mon Jul 13 13:35:32 2020, MaxMem=  7784628224 cpu:               0.6 elap:               0.1
 (Enter /gpfs/loomis/apps/avx/software/Gaussian/16-C.01_AVX/g16/l308.exe)
 Leave Link  308 at Mon Jul 13 13:35:32 2020, MaxMem=  7784628224 cpu:               0.8 elap:               0.1
 (Enter /gpfs/loomis/apps/avx/software/Gaussian/16-C.01_AVX/g16/l401.exe)
 ExpMin= 1.22D-01 ExpMax= 1.11D+05 ExpMxC= 1.07D+03 IAcc=3 IRadAn=         5 AccDes= 0.00D+00
 Harris functional with IExCor= 4639 and IRadAn=       5 diagonalized for initial guess.
 HarFok:  IExCor= 4639 AccDes= 0.00D+00 IRadAn=         5 IDoV= 1 UseB2=F ITyADJ=14
 ICtDFT=  3500011 ScaDFX=  1.000000  1.000000  1.000000  1.000000
 FoFCou: FMM=F IPFlag=           0 FMFlag=      100000 FMFlg1=           0
         NFxFlg=           0 DoJE=T BraDBF=F KetDBF=T FulRan=T
         wScrn=  0.000000 ICntrl=       500 IOpCl=  0 I1Cent=   200000004 NGrid=           0
         NMat0=    1 NMatS0=      1 NMatT0=    0 NMatD0=    1 NMtDS0=    0 NMtDT0=    0
 Symmetry not used in FoFCou.
 Harris En= -994.438865740045    
 JPrj=0 DoOrth=F DoCkMO=F.
 Leave Link  401 at Mon Jul 13 13:35:33 2020, MaxMem=  7784628224 cpu:              13.6 elap:               1.4
 (Enter /gpfs/loomis/apps/avx/software/Gaussian/16-C.01_AVX/g16/l502.exe)
 Two-electron integral symmetry not used.
 Closed shell SCF:
 Using DIIS extrapolation, IDIIS=  1040.
 NGot=  7784628224 LenX=  7784455381 LenY=  7784371419
 Requested convergence on RMS density matrix=1.00D-08 within 128 cycles.
 Requested convergence on MAX density matrix=1.00D-06.
 Requested convergence on             energy=1.00D-06.
 No special actions if energy rises.
 Fock matrices will be formed incrementally for  20 cycles.

 Cycle   1  Pass 1  IDiag  1:
 FoFJK:  IHMeth= 1 ICntrl=       0 DoSepK=T KAlg= 0 I1Cent=           0 FoldK=F
 IRaf=         1 NMat=       1 IRICut=       1 DoRegI=T DoRafI=F ISym2E= 0 IDoP0=0 IntGTp=1.
 FoFCou: FMM=F IPFlag=           0 FMFlag=      100000 FMFlg1=           0
         NFxFlg=           0 DoJE=T BraDBF=F KetDBF=F FulRan=T
         wScrn=  0.000000 ICntrl=       500 IOpCl=  0 I1Cent=           0 NGrid=           0
         NMat0=    1 NMatS0=      1 NMatT0=    0 NMatD0=    1 NMtDS0=    0 NMtDT0=    0
 Symmetry not used in FoFCou.
 Inv3:  Mode=1 IEnd=    14335788.
 Iteration    1 A*A^-1 deviation from unit magnitude is 4.22D-15 for   2173.
 Iteration    1 A*A^-1 deviation from orthogonality  is 1.50D-15 for   1631      5.
 Iteration    1 A^-1*A deviation from unit magnitude is 4.44D-15 for   2173.
 Iteration    1 A^-1*A deviation from orthogonality  is 1.84D-15 for   1868   1481.
 E= -1028.58493787524    
 DIIS: error= 2.64D-02 at cycle   1 NSaved=   1.
 NSaved= 1 IEnMin= 1 EnMin= -1028.58493787524     IErMin= 1 ErrMin= 2.64D-02
 ErrMax= 2.64D-02  0.00D+00 EMaxC= 1.00D-01 BMatC= 3.81D-01 BMatP= 3.81D-01
 IDIUse=3 WtCom= 7.36D-01 WtEn= 2.64D-01
 Coeff-Com:  0.100D+01
 Coeff-En:   0.100D+01
 Coeff:      0.100D+01
 Gap=     0.361 Goal=   None    Shift=    0.000
 GapD=    0.361 DampG=1.000 DampE=0.500 DampFc=0.5000 IDamp=-1.
 Damping current iteration by 5.00D-01
 RMSDP=3.45D-03 MaxDP=2.24D-01              OVMax= 1.75D-01

 Cycle   2  Pass 1  IDiag  1:
 RMSU=  1.72D-03    CP:  9.94D-01
 E= -1028.69833535926     Delta-E=       -0.113397484023 Rises=F Damp=T
 DIIS: error= 1.12D-02 at cycle   2 NSaved=   2.
 NSaved= 2 IEnMin= 2 EnMin= -1028.69833535926     IErMin= 2 ErrMin= 1.12D-02
 ErrMax= 1.12D-02  0.00D+00 EMaxC= 1.00D-01 BMatC= 5.71D-02 BMatP= 3.81D-01
 IDIUse=3 WtCom= 8.88D-01 WtEn= 1.12D-01
 Coeff-Com: -0.312D+00 0.131D+01
 Coeff-En:   0.000D+00 0.100D+01
 Coeff:     -0.277D+00 0.128D+01
 Gap=     0.304 Goal=   None    Shift=    0.000
 RMSDP=1.13D-03 MaxDP=2.16D-02 DE=-1.13D-01 OVMax= 1.06D-01

 Cycle   3  Pass 1  IDiag  1:
 RMSU=  1.07D-03    CP:  9.91D-01  1.21D+00
 E= -1028.79824870367     Delta-E=       -0.099913344409 Rises=F Damp=F
 DIIS: error= 5.66D-03 at cycle   3 NSaved=   3.
 NSaved= 3 IEnMin= 3 EnMin= -1028.79824870367     IErMin= 3 ErrMin= 5.66D-03
 ErrMax= 5.66D-03  0.00D+00 EMaxC= 1.00D-01 BMatC= 1.18D-02 BMatP= 5.71D-02
 IDIUse=3 WtCom= 9.43D-01 WtEn= 5.66D-02
 Coeff-Com: -0.202D+00 0.472D+00 0.730D+00
 Coeff-En:   0.000D+00 0.000D+00 0.100D+01
 Coeff:     -0.190D+00 0.445D+00 0.745D+00
 Gap=     0.264 Goal=   None    Shift=    0.000
 RMSDP=4.81D-04 MaxDP=1.63D-02 DE=-9.99D-02 OVMax= 3.78D-02

 Cycle   4  Pass 1  IDiag  1:
 RMSU=  3.61D-04    CP:  9.89D-01  1.37D+00  8.62D-01
 E= -1028.80980211542     Delta-E=       -0.011553411746 Rises=F Damp=F
 DIIS: error= 1.84D-03 at cycle   4 NSaved=   4.
 NSaved= 4 IEnMin= 4 EnMin= -1028.80980211542     IErMin= 4 ErrMin= 1.84D-03
 ErrMax= 1.84D-03  0.00D+00 EMaxC= 1.00D-01 BMatC= 1.42D-03 BMatP= 1.18D-02
 IDIUse=3 WtCom= 9.82D-01 WtEn= 1.84D-02
 Coeff-Com: -0.742D-01 0.147D+00 0.355D+00 0.572D+00
 Coeff-En:   0.000D+00 0.000D+00 0.000D+00 0.100D+01
 Coeff:     -0.729D-01 0.144D+00 0.349D+00 0.580D+00
 Gap=     0.262 Goal=   None    Shift=    0.000
 RMSDP=1.46D-04 MaxDP=7.82D-03 DE=-1.16D-02 OVMax= 1.04D-02

 Cycle   5  Pass 1  IDiag  1:
 RMSU=  9.92D-05    CP:  9.89D-01  1.38D+00  9.24D-01  7.69D-01
 E= -1028.81130139014     Delta-E=       -0.001499274719 Rises=F Damp=F
 DIIS: error= 4.05D-04 at cycle   5 NSaved=   5.
 NSaved= 5 IEnMin= 5 EnMin= -1028.81130139014     IErMin= 5 ErrMin= 4.05D-04
 ErrMax= 4.05D-04  0.00D+00 EMaxC= 1.00D-01 BMatC= 6.09D-05 BMatP= 1.42D-03
 IDIUse=3 WtCom= 9.96D-01 WtEn= 4.05D-03
 Coeff-Com: -0.449D-02 0.313D-02 0.505D-01 0.192D+00 0.759D+00
 Coeff-En:   0.000D+00 0.000D+00 0.000D+00 0.000D+00 0.100D+01
 Coeff:     -0.447D-02 0.312D-02 0.503D-01 0.191D+00 0.760D+00
 Gap=     0.263 Goal=   None    Shift=    0.000
 RMSDP=4.91D-05 MaxDP=1.63D-03 DE=-1.50D-03 OVMax= 4.40D-03

 Cycle   6  Pass 1  IDiag  1:
 RMSU=  3.43D-05    CP:  9.89D-01  1.38D+00  9.40D-01  8.49D-01  1.04D+00
 E= -1028.81140805448     Delta-E=       -0.000106664340 Rises=F Damp=F
 DIIS: error= 1.69D-04 at cycle   6 NSaved=   6.
 NSaved= 6 IEnMin= 6 EnMin= -1028.81140805448     IErMin= 6 ErrMin= 1.69D-04
 ErrMax= 1.69D-04  0.00D+00 EMaxC= 1.00D-01 BMatC= 1.00D-05 BMatP= 6.09D-05
 IDIUse=3 WtCom= 9.98D-01 WtEn= 1.69D-03
 Coeff-Com:  0.145D-01-0.304D-01-0.541D-01-0.432D-01 0.247D+00 0.866D+00
 Coeff-En:   0.000D+00 0.000D+00 0.000D+00 0.000D+00 0.000D+00 0.100D+01
 Coeff:      0.145D-01-0.303D-01-0.540D-01-0.431D-01 0.247D+00 0.866D+00
 Gap=     0.264 Goal=   None    Shift=    0.000
 RMSDP=2.95D-05 MaxDP=1.46D-03 DE=-1.07D-04 OVMax= 2.41D-03

 Cycle   7  Pass 1  IDiag  1:
 RMSU=  1.65D-05    CP:  9.89D-01  1.38D+00  9.52D-01  8.85D-01  1.20D+00
                    CP:  1.14D+00
 E= -1028.81143473824     Delta-E=       -0.000026683760 Rises=F Damp=F
 DIIS: error= 8.87D-05 at cycle   7 NSaved=   7.
 NSaved= 7 IEnMin= 7 EnMin= -1028.81143473824     IErMin= 7 ErrMin= 8.87D-05
 ErrMax= 8.87D-05  0.00D+00 EMaxC= 1.00D-01 BMatC= 2.20D-06 BMatP= 1.00D-05
 IDIUse=1 WtCom= 1.00D+00 WtEn= 0.00D+00
 Coeff-Com:  0.711D-02-0.137D-01-0.314D-01-0.480D-01-0.166D-01 0.374D+00
 Coeff-Com:  0.729D+00
 Coeff:      0.711D-02-0.137D-01-0.314D-01-0.480D-01-0.166D-01 0.374D+00
 Coeff:      0.729D+00
 Gap=     0.264 Goal=   None    Shift=    0.000
 RMSDP=1.06D-05 MaxDP=5.28D-04 DE=-2.67D-05 OVMax= 1.19D-03

 Cycle   8  Pass 1  IDiag  1:
 RMSU=  6.28D-06    CP:  9.89D-01  1.38D+00  9.54D-01  8.92D-01  1.24D+00
                    CP:  1.32D+00  1.09D+00
 E= -1028.81143910823     Delta-E=       -0.000004369998 Rises=F Damp=F
 DIIS: error= 2.65D-05 at cycle   8 NSaved=   8.
 NSaved= 8 IEnMin= 8 EnMin= -1028.81143910823     IErMin= 8 ErrMin= 2.65D-05
 ErrMax= 2.65D-05  0.00D+00 EMaxC= 1.00D-01 BMatC= 1.94D-07 BMatP= 2.20D-06
 IDIUse=1 WtCom= 1.00D+00 WtEn= 0.00D+00
 Coeff-Com: -0.108D-02 0.243D-02 0.297D-02-0.700D-03-0.384D-01-0.537D-01
 Coeff-Com:  0.173D+00 0.916D+00
 Coeff:     -0.108D-02 0.243D-02 0.297D-02-0.700D-03-0.384D-01-0.537D-01
 Coeff:      0.173D+00 0.916D+00
 Gap=     0.264 Goal=   None    Shift=    0.000
 RMSDP=4.32D-06 MaxDP=1.28D-04 DE=-4.37D-06 OVMax= 5.77D-04

 Cycle   9  Pass 1  IDiag  1:
 RMSU=  2.05D-06    CP:  9.89D-01  1.38D+00  9.54D-01  8.92D-01  1.25D+00
                    CP:  1.38D+00  1.27D+00  1.14D+00
 E= -1028.81143969371     Delta-E=       -0.000000585474 Rises=F Damp=F
 DIIS: error= 1.41D-05 at cycle   9 NSaved=   9.
 NSaved= 9 IEnMin= 9 EnMin= -1028.81143969371     IErMin= 9 ErrMin= 1.41D-05
 ErrMax= 1.41D-05  0.00D+00 EMaxC= 1.00D-01 BMatC= 4.03D-08 BMatP= 1.94D-07
 IDIUse=1 WtCom= 1.00D+00 WtEn= 0.00D+00
 Coeff-Com: -0.118D-02 0.238D-02 0.458D-02 0.567D-02-0.125D-01-0.667D-01
 Coeff-Com: -0.179D-01 0.337D+00 0.749D+00
 Coeff:     -0.118D-02 0.238D-02 0.458D-02 0.567D-02-0.125D-01-0.667D-01
 Coeff:     -0.179D-01 0.337D+00 0.749D+00
 Gap=     0.264 Goal=   None    Shift=    0.000
 RMSDP=1.64D-06 MaxDP=5.19D-05 DE=-5.85D-07 OVMax= 1.55D-04

 Cycle  10  Pass 1  IDiag  1:
 RMSU=  9.01D-07    CP:  9.89D-01  1.38D+00  9.54D-01  8.92D-01  1.25D+00
                    CP:  1.40D+00  1.32D+00  1.29D+00  1.10D+00
 E= -1028.81143979318     Delta-E=       -0.000000099468 Rises=F Damp=F
 DIIS: error= 7.82D-06 at cycle  10 NSaved=  10.
 NSaved=10 IEnMin=10 EnMin= -1028.81143979318     IErMin=10 ErrMin= 7.82D-06
 ErrMax= 7.82D-06  0.00D+00 EMaxC= 1.00D-01 BMatC= 7.39D-09 BMatP= 4.03D-08
 IDIUse=1 WtCom= 1.00D+00 WtEn= 0.00D+00
 Coeff-Com: -0.236D-03 0.434D-03 0.112D-02 0.245D-02 0.222D-02-0.194D-01
 Coeff-Com: -0.380D-01-0.388D-01 0.271D+00 0.819D+00
 Coeff:     -0.236D-03 0.434D-03 0.112D-02 0.245D-02 0.222D-02-0.194D-01
 Coeff:     -0.380D-01-0.388D-01 0.271D+00 0.819D+00
 Gap=     0.264 Goal=   None    Shift=    0.000
 RMSDP=8.88D-07 MaxDP=2.61D-05 DE=-9.95D-08 OVMax= 1.40D-04

 Cycle  11  Pass 1  IDiag  1:
 RMSU=  4.28D-07    CP:  9.89D-01  1.38D+00  9.54D-01  8.92D-01  1.25D+00
                    CP:  1.41D+00  1.35D+00  1.33D+00  1.33D+00  1.14D+00
 E= -1028.81143981962     Delta-E=       -0.000000026440 Rises=F Damp=F
 DIIS: error= 3.34D-06 at cycle  11 NSaved=  11.
 NSaved=11 IEnMin=11 EnMin= -1028.81143981962     IErMin=11 ErrMin= 3.34D-06
 ErrMax= 3.34D-06  0.00D+00 EMaxC= 1.00D-01 BMatC= 1.86D-09 BMatP= 7.39D-09
 IDIUse=1 WtCom= 1.00D+00 WtEn= 0.00D+00
 Coeff-Com:  0.143D-03-0.299D-03-0.491D-03-0.904D-04 0.320D-02 0.404D-02
 Coeff-Com: -0.683D-02-0.663D-01-0.651D-01 0.313D+00 0.819D+00
 Coeff:      0.143D-03-0.299D-03-0.491D-03-0.904D-04 0.320D-02 0.404D-02
 Coeff:     -0.683D-02-0.663D-01-0.651D-01 0.313D+00 0.819D+00
 Gap=     0.264 Goal=   None    Shift=    0.000
 RMSDP=3.93D-07 MaxDP=9.13D-06 DE=-2.64D-08 OVMax= 6.22D-05

 Cycle  12  Pass 1  IDiag  1:
 RMSU=  1.63D-07    CP:  9.89D-01  1.38D+00  9.54D-01  8.92D-01  1.25D+00
                    CP:  1.41D+00  1.35D+00  1.35D+00  1.43D+00  1.39D+00
                    CP:  1.15D+00
 E= -1028.81143982551     Delta-E=       -0.000000005894 Rises=F Damp=F
 DIIS: error= 1.15D-06 at cycle  12 NSaved=  12.
 NSaved=12 IEnMin=12 EnMin= -1028.81143982551     IErMin=12 ErrMin= 1.15D-06
 ErrMax= 1.15D-06  0.00D+00 EMaxC= 1.00D-01 BMatC= 2.76D-10 BMatP= 1.86D-09
 IDIUse=1 WtCom= 1.00D+00 WtEn= 0.00D+00
 Coeff-Com:  0.105D-03-0.206D-03-0.453D-03-0.637D-03 0.716D-03 0.577D-02
 Coeff-Com:  0.764D-02-0.104D-01-0.104D+00-0.909D-01 0.191D+00 0.100D+01
 Coeff:      0.105D-03-0.206D-03-0.453D-03-0.637D-03 0.716D-03 0.577D-02
 Coeff:      0.764D-02-0.104D-01-0.104D+00-0.909D-01 0.191D+00 0.100D+01
 Gap=     0.264 Goal=   None    Shift=    0.000
 RMSDP=2.43D-07 MaxDP=5.83D-06 DE=-5.89D-09 OVMax= 3.84D-05

 Cycle  13  Pass 1  IDiag  1:
 RMSU=  6.88D-08    CP:  9.89D-01  1.38D+00  9.54D-01  8.92D-01  1.25D+00
                    CP:  1.41D+00  1.35D+00  1.36D+00  1.49D+00  1.54D+00
                    CP:  1.43D+00  1.32D+00
 E= -1028.81143982697     Delta-E=       -0.000000001457 Rises=F Damp=F
 DIIS: error= 4.14D-07 at cycle  13 NSaved=  13.
 NSaved=13 IEnMin=13 EnMin= -1028.81143982697     IErMin=13 ErrMin= 4.14D-07
 ErrMax= 4.14D-07  0.00D+00 EMaxC= 1.00D-01 BMatC= 3.14D-11 BMatP= 2.76D-10
 IDIUse=1 WtCom= 1.00D+00 WtEn= 0.00D+00
 Coeff-Com: -0.456D-05 0.115D-04-0.377D-05-0.909D-04-0.198D-03 0.427D-03
 Coeff-Com:  0.266D-02 0.846D-02-0.122D-01-0.533D-01-0.998D-01 0.202D+00
 Coeff-Com:  0.952D+00
 Coeff:     -0.456D-05 0.115D-04-0.377D-05-0.909D-04-0.198D-03 0.427D-03
 Coeff:      0.266D-02 0.846D-02-0.122D-01-0.533D-01-0.998D-01 0.202D+00
 Coeff:      0.952D+00
 Gap=     0.264 Goal=   None    Shift=    0.000
 RMSDP=6.97D-08 MaxDP=1.55D-06 DE=-1.46D-09 OVMax= 1.03D-05

 Cycle  14  Pass 1  IDiag  1:
 RMSU=  2.48D-08    CP:  9.89D-01  1.38D+00  9.54D-01  8.92D-01  1.25D+00
                    CP:  1.41D+00  1.35D+00  1.37D+00  1.50D+00  1.58D+00
                    CP:  1.50D+00  1.52D+00  1.24D+00
 E= -1028.81143982709     Delta-E=       -0.000000000118 Rises=F Damp=F
 DIIS: error= 1.10D-07 at cycle  14 NSaved=  14.
 NSaved=14 IEnMin=14 EnMin= -1028.81143982709     IErMin=14 ErrMin= 1.10D-07
 ErrMax= 1.10D-07  0.00D+00 EMaxC= 1.00D-01 BMatC= 4.03D-12 BMatP= 3.14D-11
 IDIUse=1 WtCom= 1.00D+00 WtEn= 0.00D+00
 Coeff-Com: -0.109D-04 0.221D-04 0.403D-04 0.279D-04-0.121D-03-0.424D-03
 Coeff-Com:  0.936D-04 0.350D-02 0.492D-02-0.584D-02-0.496D-01-0.282D-01
 Coeff-Com:  0.302D+00 0.774D+00
 Coeff:     -0.109D-04 0.221D-04 0.403D-04 0.279D-04-0.121D-03-0.424D-03
 Coeff:      0.936D-04 0.350D-02 0.492D-02-0.584D-02-0.496D-01-0.282D-01
 Coeff:      0.302D+00 0.774D+00
 Gap=     0.264 Goal=   None    Shift=    0.000
 RMSDP=1.58D-08 MaxDP=3.81D-07 DE=-1.18D-10 OVMax= 2.17D-06

 Cycle  15  Pass 1  IDiag  1:
 RMSU=  8.54D-09    CP:  9.89D-01  1.38D+00  9.54D-01  8.92D-01  1.25D+00
                    CP:  1.41D+00  1.35D+00  1.37D+00  1.50D+00  1.58D+00
                    CP:  1.51D+00  1.57D+00  1.36D+00  1.11D+00
 E= -1028.81143982711     Delta-E=       -0.000000000020 Rises=F Damp=F
 DIIS: error= 4.93D-08 at cycle  15 NSaved=  15.
 NSaved=15 IEnMin=15 EnMin= -1028.81143982711     IErMin=15 ErrMin= 4.93D-08
 ErrMax= 4.93D-08  0.00D+00 EMaxC= 1.00D-01 BMatC= 5.56D-13 BMatP= 4.03D-12
 IDIUse=1 WtCom= 1.00D+00 WtEn= 0.00D+00
 Coeff-Com: -0.223D-05 0.407D-05 0.130D-04 0.249D-04-0.408D-05-0.226D-03
 Coeff-Com: -0.512D-03-0.415D-03 0.364D-02 0.872D-02 0.273D-02-0.481D-01
 Coeff-Com: -0.836D-01 0.205D+00 0.912D+00
 Coeff:     -0.223D-05 0.407D-05 0.130D-04 0.249D-04-0.408D-05-0.226D-03
 Coeff:     -0.512D-03-0.415D-03 0.364D-02 0.872D-02 0.273D-02-0.481D-01
 Coeff:     -0.836D-01 0.205D+00 0.912D+00
 Gap=     0.264 Goal=   None    Shift=    0.000
 RMSDP=7.89D-09 MaxDP=1.74D-07 DE=-2.02D-11 OVMax= 9.18D-07

 Error on total polarization charges =  0.00814
 SCF Done:  E(RwB97XD) =  -1028.81143983     A.U. after   15 cycles
            NFock= 15  Conv=0.79D-08     -V/T= 2.0048
 KE= 1.023913863099D+03 PE=-4.606531976231D+03 EE= 1.456691053214D+03
 Leave Link  502 at Mon Jul 13 13:36:57 2020, MaxMem=  7784628224 cpu:             826.1 elap:              83.4
 (Enter /gpfs/loomis/apps/avx/software/Gaussian/16-C.01_AVX/g16/l801.exe)
 DoSCS=F DFT=T ScalE2(SS,OS)=  1.000000  1.000000
 ExpMin= 1.22D-01 ExpMax= 1.11D+05 ExpMxC= 1.07D+03 IAcc=3 IRadAn=         5 AccDes= 0.00D+00
 HarFok:  IExCor=  205 AccDes= 0.00D+00 IRadAn=         5 IDoV=-2 UseB2=F ITyADJ=14
 ICtDFT= 12500011 ScaDFX=  1.000000  1.000000  1.000000  1.000000
 Largest valence mixing into a core orbital is  9.54D-05
 Largest core mixing into a valence orbital is  3.30D-05
 Range of M.O.s used for correlation:    21   273
 NBasis=   273 NAE=    59 NBE=    59 NFC=    20 NFV=     0
 NROrb=    253 NOA=    39 NOB=    39 NVA=   214 NVB=   214

 **** Warning!!: The largest alpha MO coefficient is  0.10250558D+02

 Leave Link  801 at Mon Jul 13 13:36:57 2020, MaxMem=  7784628224 cpu:               1.0 elap:               0.1
 (Enter /gpfs/loomis/apps/avx/software/Gaussian/16-C.01_AVX/g16/l914.exe)
 RHF ground state
 Keep R1, R2, and R3 ints in memory in canonical form, NReq=4262515490.
 FoFCou: FMM=F IPFlag=           0 FMFlag=           0 FMFlg1=           0
         NFxFlg=           0 DoJE=F BraDBF=F KetDBF=F FulRan=T
         wScrn=  0.000000 ICntrl=       600 IOpCl=  0 I1Cent=           0 NGrid=           0
         NMat0=    1 NMatS0=  37401 NMatT0=    0 NMatD0=    1 NMtDS0=    0 NMtDT0=    0
 Symmetry not used in FoFCou.
 Two-electron integral symmetry not used.
 MDV=  7784628224 DFT=T DoStab=F Mixed=T DoRPA=T DoScal=F NonHer=T
 NEqPCM:  Using equilibrium solvation (IEInf=0, Eps=   2.2280, EpsInf=   2.1319)
 Making orbital integer symmetry assigments:
    12 initial guesses have been made.
 Convergence on wavefunction:    0.000001000000000
 Davidson Disk Diagonalization:  ConvIn= 1.00D-06 SkipCon=T Conv= 1.00D-06.
 Max sub-space:  2000 roots to seek:    12 dimension of matrix:        16692
 Iteration     1 Dimension    12 NMult     0 NNew     12
 CISAX will form    12 AO SS matrices at one time.
 NMat=    12 NSing=    12 JSym2X= 0.
 New state      2 was old state      3
 New state      3 was old state      2
 Excitation Energies [eV] at current iteration:
 Root      1 :     4.065344271670010
 Root      2 :     5.000530359112519
 Root      3 :     5.050123355820729
 Root      4 :     5.260486053770758
 Root      5 :     5.980554188267820
 Root      6 :     6.190745033766371
 Root      7 :     6.324777742581968
 Root      8 :     6.558420318018412
 Root      9 :     6.929982961690340
 Root     10 :     7.212836276721095
 Root     11 :     7.471105349620726
 Root     12 :     7.579341948016096
 Iteration     2 Dimension    18 NMult    12 NNew      6
 CISAX will form     6 AO SS matrices at one time.
 NMat=     6 NSing=     6 JSym2X= 0.
 Root      1 not converged, maximum delta is    0.052422285037511
 Root      2 not converged, maximum delta is    0.219599559942070
 Root      3 not converged, maximum delta is    0.213645552952811
 Excitation Energies [eV] at current iteration:
 Root      1 :     3.574510736854606   Change is   -0.490833534815404
 Root      2 :     4.477973859000593   Change is   -0.522556500111926
 Root      3 :     4.652337715538843   Change is   -0.397785640281886
 Iteration     3 Dimension    24 NMult    18 NNew      6
 CISAX will form     6 AO SS matrices at one time.
 NMat=     6 NSing=     6 JSym2X= 0.
 Root      1 not converged, maximum delta is    0.024145347975097
 Root      2 not converged, maximum delta is    0.030871101043886
 Root      3 not converged, maximum delta is    0.029099048933008
 Excitation Energies [eV] at current iteration:
 Root      1 :     3.539137862860700   Change is   -0.035372873993906
 Root      2 :     4.434610011760402   Change is   -0.043363847240191
 Root      3 :     4.606986066992712   Change is   -0.045351648546131
 Iteration     4 Dimension    30 NMult    24 NNew      6
 CISAX will form     6 AO SS matrices at one time.
 NMat=     6 NSing=     6 JSym2X= 0.
 Root      1 not converged, maximum delta is    0.007212836161876
 Root      2 not converged, maximum delta is    0.008486712774398
 Root      3 not converged, maximum delta is    0.008387288921576
 Excitation Energies [eV] at current iteration:
 Root      1 :     3.535576033964049   Change is   -0.003561828896651
 Root      2 :     4.428515268809829   Change is   -0.006094742950572
 Root      3 :     4.601997100440535   Change is   -0.004988966552177
 Iteration     5 Dimension    36 NMult    30 NNew      6
 CISAX will form     6 AO SS matrices at one time.
 NMat=     6 NSing=     6 JSym2X= 0.
 Root      1 not converged, maximum delta is    0.002802107842901
 Root      2 not converged, maximum delta is    0.002810481469103
 Root      3 not converged, maximum delta is    0.003487609660883
 Excitation Energies [eV] at current iteration:
 Root      1 :     3.535191179509561   Change is   -0.000384854454488
 Root      2 :     4.427903258850924   Change is   -0.000612009958906
 Root      3 :     4.601344313725286   Change is   -0.000652786715249
 Iteration     6 Dimension    42 NMult    36 NNew      6
 CISAX will form     6 AO SS matrices at one time.
 NMat=     6 NSing=     6 JSym2X= 0.
 Root      1 not converged, maximum delta is    0.000567265863292
 Root      2 not converged, maximum delta is    0.000445292222150
 Root      3 not converged, maximum delta is    0.000945011650680
 Excitation Energies [eV] at current iteration:
 Root      1 :     3.535156810327698   Change is   -0.000034369181863
 Root      2 :     4.427864543301066   Change is   -0.000038715549858
 Root      3 :     4.601276593776203   Change is   -0.000067719949083
 Iteration     7 Dimension    48 NMult    42 NNew      6
 CISAX will form     6 AO SS matrices at one time.
 NMat=     6 NSing=     6 JSym2X= 0.
 Root      1 not converged, maximum delta is    0.000091653531928
 Root      2 not converged, maximum delta is    0.000197117148569
 Root      3 not converged, maximum delta is    0.000275207046328
 Excitation Energies [eV] at current iteration:
 Root      1 :     3.535154445021722   Change is   -0.000002365305976
 Root      2 :     4.427860654139418   Change is   -0.000003889161648
 Root      3 :     4.601271140326816   Change is   -0.000005453449386
 Iteration     8 Dimension    54 NMult    48 NNew      6
 CISAX will form     6 AO SS matrices at one time.
 NMat=     6 NSing=     6 JSym2X= 0.
 Root      1 not converged, maximum delta is    0.000023366415576
 Root      2 not converged, maximum delta is    0.000059200310682
 Root      3 not converged, maximum delta is    0.000076398607893
 Excitation Energies [eV] at current iteration:
 Root      1 :     3.535154317639449   Change is   -0.000000127382273
 Root      2 :     4.427860378378894   Change is   -0.000000275760524
 Root      3 :     4.601270664247187   Change is   -0.000000476079629
 Iteration     9 Dimension    60 NMult    54 NNew      6
 CISAX will form     6 AO SS matrices at one time.
 NMat=     6 NSing=     6 JSym2X= 0.
 Root      1 not converged, maximum delta is    0.000005230381533
 Root      2 not converged, maximum delta is    0.000018123553180
 Root      3 not converged, maximum delta is    0.000017754210276
 Excitation Energies [eV] at current iteration:
 Root      1 :     3.535154309699061   Change is   -0.000000007940388
 Root      2 :     4.427860355291629   Change is   -0.000000023087265
 Root      3 :     4.601270621581119   Change is   -0.000000042666068
 Iteration    10 Dimension    66 NMult    60 NNew      6
 CISAX will form     6 AO SS matrices at one time.
 NMat=     6 NSing=     6 JSym2X= 0.
 Root      1 not converged, maximum delta is    0.000001049312543
 Root      2 not converged, maximum delta is    0.000002288418665
 Root      3 not converged, maximum delta is    0.000004338162487
 Excitation Energies [eV] at current iteration:
 Root      1 :     3.535154309449496   Change is   -0.000000000249565
 Root      2 :     4.427860354346900   Change is   -0.000000000944729
 Root      3 :     4.601270619085935   Change is   -0.000000002495185
 Iteration    11 Dimension    72 NMult    66 NNew      6
 CISAX will form     6 AO SS matrices at one time.
 NMat=     6 NSing=     6 JSym2X= 0.
 Root      1 has converged.
 Root      2 has converged.
 Root      3 has converged.
 Excitation Energies [eV] at current iteration:
 Root      1 :     3.535154309439079   Change is   -0.000000000010417
 Root      2 :     4.427860354298016   Change is   -0.000000000048885
 Root      3 :     4.601270618985366   Change is   -0.000000000100569
 Convergence achieved on expansion vectors.
 ***********************************************************************
 Excited states from <AA,BB:AA,BB> singles matrix:
 ***********************************************************************
 
 1PDM for each excited state written to RWF  633
 Ground to excited state transition densities written to RWF  633
 Ground to excited state transition electric dipole moments (Au):
       state          X           Y           Z        Dip. S.      Osc.
         1        -1.7388      2.2611      0.0000      8.1361      0.7047
         2         1.4669     -0.4452      0.0000      2.3501      0.2549
         3        -0.5824     -0.1858      0.0000      0.3737      0.0421
 Ground to excited state transition velocity dipole moments (Au):
       state          X           Y           Z        Dip. S.      Osc.
         1         0.2190     -0.2914     -0.0000      0.1329      0.6818
         2        -0.2345      0.0641     -0.0000      0.0591      0.2421
         3         0.0983      0.0299     -0.0000      0.0106      0.0416
 Ground to excited state transition magnetic dipole moments (Au):
       state          X           Y           Z
         1        -0.0000     -0.0000      0.6601
         2         0.0000     -0.0000      1.1127
         3         0.0000     -0.0000      0.2677
 Ground to excited state transition velocity quadrupole moments (Au):
       state          XX          YY          ZZ          XY          XZ          YZ
         1         0.0981     -0.4953      0.0110      0.2084      0.0000     -0.0000
         2         0.2069     -0.6827      0.0100      0.1651      0.0000     -0.0000
         3         0.4792     -0.1604     -0.0243     -0.2734     -0.0000     -0.0000
 <0|del|b> * <b|rxdel|0> + <0|del|b> * <b|delr+rdel|0>
 Rotatory Strengths (R) in cgs (10**-40 erg-esu-cm/Gauss)
       state          XX          YY          ZZ    R(velocity)    E-M Angle
         1         0.0170     -0.0166      0.0204      0.0069       90.00
         2        -0.0032      0.0025     -0.0053     -0.0020       90.00
         3        -0.0003      0.0005      0.0010      0.0004       90.00
 1/2[<0|r|b>*<b|rxdel|0> + (<0|rxdel|b>*<b|r|0>)*]
 Rotatory Strengths (R) in cgs (10**-40 erg-esu-cm/Gauss)
       state          XX          YY          ZZ     R(length)
         1        -0.0082      0.0435     -0.0150      0.0068
         2        -0.0008     -0.0041     -0.0006     -0.0018
         3         0.0024     -0.0010     -0.0003      0.0004
  1/2[<0|del|b>*<b|r|0> + (<0|r|b>*<b|del|0>)*] (Au)
       state          X           Y           Z        Dip. S.   Osc.(frdel)
         1        -0.3808     -0.6589     -0.0000      1.0396      0.6931
         2        -0.3439     -0.0286     -0.0000      0.3725      0.2483
         3        -0.0572     -0.0056     -0.0000      0.0628      0.0419

 Excitation energies and oscillator strengths:
 
 Excited state symmetry could not be determined.
 Excited State   1:      Singlet-?Sym    3.5352 eV  350.72 nm  f=0.7047  <S**2>=0.000
      59 -> 60         0.68830
 This state for optimization and/or second-order correction.
 Total Energy, E(TD-HF/TD-DFT) =  -1028.68152530    
 Copying the excited state density for this state as the 1-particle RhoCI density.
 
 Excited state symmetry could not be determined.
 Excited State   2:      Singlet-?Sym    4.4279 eV  280.01 nm  f=0.2549  <S**2>=0.000
      57 -> 60         0.26712
      58 -> 60         0.60304
      59 -> 62        -0.17581
 
 Excited state symmetry could not be determined.
 Excited State   3:      Singlet-?Sym    4.6013 eV  269.46 nm  f=0.0421  <S**2>=0.000
      57 -> 60         0.56180
      57 -> 63         0.10262
      58 -> 60        -0.25583
      58 -> 61        -0.12168
      59 -> 61         0.23407
 SavETr:  write IOETrn=   770 NScale= 10 NData=  16 NLR=1 NState=    3 LETran=      64.
 The selected state is a singlet.
 CISGrd: IGrad=2 NXY=2 DFT=T
 CISAX will form     1 AO SS matrices at one time.
 NMat=     1 NSing=     1 JSym2X= 0.
 GePol: Maximum number of non-zero 1st derivatives   =     266
 Leave Link  914 at Mon Jul 13 13:39:38 2020, MaxMem=  7784628224 cpu:            1588.8 elap:             161.5
 (Enter /gpfs/loomis/apps/avx/software/Gaussian/16-C.01_AVX/g16/l1002.exe)
 Minotr:  Closed shell wavefunction.
          Computing CIS/TDA/TD derivatives.
          Using Z-Vector for PSCF gradient.
          Skipping F1 and S1 gradient terms here.
          IDoAtm=1111111111111111111111111
 NEqPCM:  Using equilibrium solvation (IEInf=0, Eps=   2.2280, EpsInf=   2.1319)
          Frozen-core window.
          Direct CPHF calculation.
          Differentiating once with respect to electric field.
                with respect to dipole field.
          Differentiating once with respect to nuclear coordinates.
          Requested convergence is 1.0D-10 RMS, and 1.0D-09 maximum.
          NewPWx=F KeepS1=T KeepF1=T KeepIn=T MapXYZ=F SortEE=F KeepMc=T.
 Keep R1 ints in memory in canonical form, NReq=1421451184.
 FoFCou: FMM=F IPFlag=           0 FMFlag=           0 FMFlg1=           0
         NFxFlg=           0 DoJE=F BraDBF=F KetDBF=F FulRan=T
         wScrn=  0.000000 ICntrl=       600 IOpCl=  0 I1Cent=           0 NGrid=           0
         NMat0=    1 NMatS0=  37401 NMatT0=    0 NMatD0=    1 NMtDS0=    0 NMtDT0=    0
 Symmetry not used in FoFCou.
 Two-electron integral symmetry not used.
          MDV=    7784628224 using IRadAn=       5.
          Solving linear equations separately, MaxMat=       0.
          There are     1 degrees of freedom in the 1st order CPHF.  IDoFFX=0 NUNeed=     1.
 LinEq1:  Iter=  0 NonCon=     1 RMS=3.93D-03 Max=1.99D-01 NDo=     1
 AX will form     1 AO Fock derivatives at one time.
 LinEq1:  Iter=  1 NonCon=     1 RMS=1.57D-03 Max=7.23D-02 NDo=     1
 LinEq1:  Iter=  2 NonCon=     1 RMS=8.98D-04 Max=3.83D-02 NDo=     1
 LinEq1:  Iter=  3 NonCon=     1 RMS=3.43D-04 Max=1.13D-02 NDo=     1
 LinEq1:  Iter=  4 NonCon=     1 RMS=1.84D-04 Max=8.76D-03 NDo=     1
 LinEq1:  Iter=  5 NonCon=     1 RMS=9.71D-05 Max=3.33D-03 NDo=     1
 LinEq1:  Iter=  6 NonCon=     1 RMS=4.05D-05 Max=1.33D-03 NDo=     1
 LinEq1:  Iter=  7 NonCon=     1 RMS=2.79D-05 Max=9.89D-04 NDo=     1
 LinEq1:  Iter=  8 NonCon=     1 RMS=1.02D-05 Max=3.02D-04 NDo=     1
 LinEq1:  Iter=  9 NonCon=     1 RMS=5.67D-06 Max=1.72D-04 NDo=     1
 LinEq1:  Iter= 10 NonCon=     1 RMS=2.07D-06 Max=7.12D-05 NDo=     1
 LinEq1:  Iter= 11 NonCon=     1 RMS=1.09D-06 Max=4.07D-05 NDo=     1
 LinEq1:  Iter= 12 NonCon=     1 RMS=5.37D-07 Max=1.40D-05 NDo=     1
 LinEq1:  Iter= 13 NonCon=     1 RMS=2.24D-07 Max=7.17D-06 NDo=     1
 LinEq1:  Iter= 14 NonCon=     1 RMS=9.26D-08 Max=3.30D-06 NDo=     1
 LinEq1:  Iter= 15 NonCon=     1 RMS=3.88D-08 Max=9.14D-07 NDo=     1
 LinEq1:  Iter= 16 NonCon=     1 RMS=1.50D-08 Max=4.30D-07 NDo=     1
 LinEq1:  Iter= 17 NonCon=     1 RMS=7.30D-09 Max=1.86D-07 NDo=     1
 LinEq1:  Iter= 18 NonCon=     1 RMS=2.74D-09 Max=1.06D-07 NDo=     1
 LinEq1:  Iter= 19 NonCon=     1 RMS=1.03D-09 Max=3.64D-08 NDo=     1
 LinEq1:  Iter= 20 NonCon=     1 RMS=6.17D-10 Max=1.55D-08 NDo=     1
 LinEq1:  Iter= 21 NonCon=     1 RMS=2.07D-10 Max=4.87D-09 NDo=     1
 LinEq1:  Iter= 22 NonCon=     1 RMS=9.12D-11 Max=2.09D-09 NDo=     1
 LinEq1:  Iter= 23 NonCon=     0 RMS=3.83D-11 Max=7.21D-10 NDo=     1
 Linear equations converged to 1.000D-10 1.000D-09 after    23 iterations.
 End of Minotr F.D. properties file   721 does not exist.
 End of Minotr F.D. properties file   722 does not exist.
 End of Minotr F.D. properties file   788 does not exist.
 Leave Link 1002 at Mon Jul 13 13:41:13 2020, MaxMem=  7784628224 cpu:             709.4 elap:              95.1
 (Enter /gpfs/loomis/apps/avx/software/Gaussian/16-C.01_AVX/g16/l601.exe)
 Copying SCF densities to generalized density rwf, IOpCl= 0 IROHF=0.

 **********************************************************************

            Population analysis using the SCF Density.

 **********************************************************************

 Alpha  occ. eigenvalues --  -89.09044 -19.27819 -14.46420 -10.39685 -10.38212
 Alpha  occ. eigenvalues --  -10.34806 -10.34711 -10.32723 -10.32328 -10.32184
 Alpha  occ. eigenvalues --  -10.32000 -10.31446 -10.31422 -10.31309 -10.30533
 Alpha  occ. eigenvalues --  -10.30446  -8.10974  -6.05827  -6.05482  -6.05034
 Alpha  occ. eigenvalues --   -1.19113  -1.08306  -0.96734  -0.95670  -0.91625
 Alpha  occ. eigenvalues --   -0.88831  -0.84988  -0.84566  -0.82589  -0.76248
 Alpha  occ. eigenvalues --   -0.71302  -0.70240  -0.69567  -0.68494  -0.64043
 Alpha  occ. eigenvalues --   -0.60389  -0.59086  -0.58580  -0.55950  -0.54552
 Alpha  occ. eigenvalues --   -0.53906  -0.53152  -0.52886  -0.51036  -0.50598
 Alpha  occ. eigenvalues --   -0.49363  -0.48013  -0.45900  -0.45623  -0.44798
 Alpha  occ. eigenvalues --   -0.43695  -0.43031  -0.42350  -0.39878  -0.36935
 Alpha  occ. eigenvalues --   -0.36468  -0.32184  -0.31422  -0.28110
 Alpha virt. eigenvalues --   -0.01721   0.05153   0.07002   0.07133   0.07574
 Alpha virt. eigenvalues --    0.11179   0.13660   0.15181   0.16123   0.18060
 Alpha virt. eigenvalues --    0.18631   0.21129   0.21847   0.22319   0.22804
 Alpha virt. eigenvalues --    0.23555   0.24024   0.24720   0.28417   0.30736
 Alpha virt. eigenvalues --    0.32168   0.33357   0.35222   0.36362   0.37053
 Alpha virt. eigenvalues --    0.37840   0.38571   0.40809   0.43847   0.45281
 Alpha virt. eigenvalues --    0.47250   0.48130   0.50579   0.51520   0.51754
 Alpha virt. eigenvalues --    0.52190   0.53487   0.54371   0.55126   0.55833
 Alpha virt. eigenvalues --    0.55920   0.56398   0.57332   0.57827   0.58097
 Alpha virt. eigenvalues --    0.58645   0.58924   0.59356   0.59866   0.60317
 Alpha virt. eigenvalues --    0.60386   0.60760   0.62202   0.62571   0.63491
 Alpha virt. eigenvalues --    0.64410   0.65841   0.66578   0.67975   0.69112
 Alpha virt. eigenvalues --    0.70387   0.70980   0.72303   0.72790   0.73073
 Alpha virt. eigenvalues --    0.73420   0.74317   0.75462   0.76218   0.77747
 Alpha virt. eigenvalues --    0.79019   0.79389   0.80066   0.82082   0.82363
 Alpha virt. eigenvalues --    0.83286   0.88853   0.90395   0.92257   0.93502
 Alpha virt. eigenvalues --    0.95024   0.95177   0.95866   0.96761   0.97062
 Alpha virt. eigenvalues --    0.98411   0.99088   1.00183   1.00465   1.01925
 Alpha virt. eigenvalues --    1.02674   1.04988   1.06187   1.07538   1.08316
 Alpha virt. eigenvalues --    1.08324   1.08693   1.09370   1.10868   1.11533
 Alpha virt. eigenvalues --    1.12279   1.12556   1.13154   1.15006   1.15648
 Alpha virt. eigenvalues --    1.16326   1.19148   1.20558   1.22190   1.23521
 Alpha virt. eigenvalues --    1.25471   1.28694   1.33374   1.34331   1.34844
 Alpha virt. eigenvalues --    1.35722   1.36057   1.38493   1.42487   1.45711
 Alpha virt. eigenvalues --    1.47692   1.48986   1.51054   1.53663   1.53961
 Alpha virt. eigenvalues --    1.54841   1.56139   1.56731   1.57180   1.57689
 Alpha virt. eigenvalues --    1.58786   1.59517   1.62221   1.66210   1.66433
 Alpha virt. eigenvalues --    1.68633   1.69020   1.70073   1.70368   1.71260
 Alpha virt. eigenvalues --    1.72341   1.72657   1.72661   1.73609   1.73943
 Alpha virt. eigenvalues --    1.76302   1.77232   1.80130   1.81090   1.82270
 Alpha virt. eigenvalues --    1.82484   1.83536   1.84976   1.85479   1.85553
 Alpha virt. eigenvalues --    1.86794   1.88373   1.88547   1.89792   1.92160
 Alpha virt. eigenvalues --    1.92388   1.93113   1.93615   1.94700   1.94975
 Alpha virt. eigenvalues --    2.00089   2.00580   2.02344   2.03833   2.04413
 Alpha virt. eigenvalues --    2.06621   2.08015   2.08662   2.11510   2.12367
 Alpha virt. eigenvalues --    2.14357   2.17603   2.20766   2.23772   2.24539
 Alpha virt. eigenvalues --    2.26562   2.28475   2.37171   2.38059   2.41055
 Alpha virt. eigenvalues --    2.41447   2.41595   2.46830   2.47355   2.47963
 Alpha virt. eigenvalues --    2.48019   2.50940   2.53316   2.55274   2.62477
 Alpha virt. eigenvalues --    2.63460   2.73091   2.73441   2.75153   2.80724
 Alpha virt. eigenvalues --    2.81876   2.84125   2.86570   2.90721   2.94655
 Alpha virt. eigenvalues --    3.02777   3.05667   3.11602   3.20479   3.33673
 Alpha virt. eigenvalues --    3.50068   3.56999   3.65692   4.04279
          Condensed to atoms (all electrons):
               1          2          3          4          5          6
     1  C    4.746202   0.458370   0.007910  -0.052617  -0.013144   0.525421
     2  C    0.458370   5.325641   0.342720  -0.040049  -0.064801  -0.009375
     3  C    0.007910   0.342720   4.745703   0.495873  -0.006227  -0.063950
     4  C   -0.052617  -0.040049   0.495873   4.775366   0.525522  -0.014501
     5  C   -0.013144  -0.064801  -0.006227   0.525522   4.732168   0.490075
     6  C    0.525421  -0.009375  -0.063950  -0.014501   0.490075   4.746192
     7  H    0.401496  -0.038762   0.008290  -0.000468   0.008102  -0.039189
     8  H   -0.000943   0.011941  -0.030003   0.392261  -0.044382   0.007914
     9  H    0.008822  -0.000652   0.008648  -0.039347   0.404910  -0.045358
    10  H   -0.042072   0.009697  -0.000589   0.008716  -0.043862   0.405779
    11  N    0.007990  -0.061170   0.483655  -0.039383   0.003079   0.000076
    12  S   -0.063998   0.344312  -0.104253   0.006802   0.000219   0.003525
    13  C   -0.000164   0.003657   0.008272  -0.000778   0.000010   0.000001
    14  C   -0.000006   0.000029   0.000230   0.000006  -0.000000  -0.000000
    15  C    0.000004  -0.000175  -0.000311   0.000047  -0.000000   0.000000
    16  C    0.000000  -0.000001   0.000005  -0.000000   0.000000   0.000000
    17  H   -0.000003   0.000056   0.000000  -0.000000   0.000000  -0.000000
    18  C    0.000000   0.000006  -0.000031  -0.000000  -0.000000   0.000000
    19  C   -0.000000   0.000000   0.000002  -0.000000   0.000000   0.000000
    20  H   -0.000000  -0.000000  -0.000000   0.000000   0.000000  -0.000000
    21  H   -0.000000  -0.000000   0.000001   0.000000   0.000000   0.000000
    22  H    0.000000  -0.000000  -0.000000  -0.000000   0.000000  -0.000000
    23  C    0.004411  -0.054655  -0.127783   0.000421   0.000229  -0.000167
    24  O    0.000001  -0.000017  -0.001969  -0.000084  -0.000001  -0.000000
    25  H   -0.000074   0.002600  -0.005634  -0.001063   0.000002   0.000012
               7          8          9         10         11         12
     1  C    0.401496  -0.000943   0.008822  -0.042072   0.007990  -0.063998
     2  C   -0.038762   0.011941  -0.000652   0.009697  -0.061170   0.344312
     3  C    0.008290  -0.030003   0.008648  -0.000589   0.483655  -0.104253
     4  C   -0.000468   0.392261  -0.039347   0.008716  -0.039383   0.006802
     5  C    0.008102  -0.044382   0.404910  -0.043862   0.003079   0.000219
     6  C   -0.039189   0.007914  -0.045358   0.405779   0.000076   0.003525
     7  H    0.661338   0.000035  -0.000148  -0.012063  -0.000125  -0.006665
     8  H    0.000035   0.659389  -0.012396  -0.000128  -0.001400  -0.000140
     9  H   -0.000148  -0.012396   0.668997  -0.012351  -0.000112   0.000021
    10  H   -0.012063  -0.000128  -0.012351   0.666401  -0.000001  -0.000144
    11  N   -0.000125  -0.001400  -0.000112  -0.000001   6.495929  -0.074746
    12  S   -0.006665  -0.000140   0.000021  -0.000144  -0.074746  15.479671
    13  C    0.000005   0.000048  -0.000000  -0.000000  -0.015610  -0.061554
    14  C    0.000000   0.000001   0.000000  -0.000000   0.003396  -0.005628
    15  C   -0.000000  -0.000037   0.000000   0.000000  -0.019675   0.004052
    16  C   -0.000000  -0.000000  -0.000000   0.000000  -0.000095  -0.000064
    17  H    0.000001   0.000000  -0.000000  -0.000000   0.000210   0.006354
    18  C   -0.000000  -0.000000  -0.000000  -0.000000  -0.000481  -0.000106
    19  C    0.000000   0.000000  -0.000000  -0.000000   0.000052   0.000020
    20  H   -0.000000  -0.000000   0.000000   0.000000   0.000001  -0.000000
    21  H   -0.000000   0.000000  -0.000000   0.000000   0.000014   0.000003
    22  H    0.000000  -0.000000  -0.000000  -0.000000  -0.000000  -0.000000
    23  C    0.000064  -0.000964   0.000008   0.000003   0.536529   0.313695
    24  O   -0.000000  -0.000203   0.000000  -0.000000  -0.063591  -0.000228
    25  H    0.000001   0.001420  -0.000005   0.000000   0.090163   0.002803
              13         14         15         16         17         18
     1  C   -0.000164  -0.000006   0.000004   0.000000  -0.000003   0.000000
     2  C    0.003657   0.000029  -0.000175  -0.000001   0.000056   0.000006
     3  C    0.008272   0.000230  -0.000311   0.000005   0.000000  -0.000031
     4  C   -0.000778   0.000006   0.000047  -0.000000  -0.000000  -0.000000
     5  C    0.000010  -0.000000  -0.000000   0.000000   0.000000  -0.000000
     6  C    0.000001  -0.000000   0.000000   0.000000  -0.000000   0.000000
     7  H    0.000005   0.000000  -0.000000  -0.000000   0.000001  -0.000000
     8  H    0.000048   0.000001  -0.000037  -0.000000   0.000000  -0.000000
     9  H   -0.000000   0.000000   0.000000  -0.000000  -0.000000  -0.000000
    10  H   -0.000000  -0.000000   0.000000   0.000000  -0.000000  -0.000000
    11  N   -0.015610   0.003396  -0.019675  -0.000095   0.000210  -0.000481
    12  S   -0.061554  -0.005628   0.004052  -0.000064   0.006354  -0.000106
    13  C    5.313191   0.492436   0.281832  -0.008447  -0.038272  -0.055176
    14  C    0.492436   4.790163  -0.006598   0.528403   0.401937  -0.053478
    15  C    0.281832  -0.006598   4.812601  -0.062723   0.007764   0.501858
    16  C   -0.008447   0.528403  -0.062723   4.747384  -0.035894  -0.017729
    17  H   -0.038272   0.401937   0.007764  -0.035894   0.671464  -0.000733
    18  C   -0.055176  -0.053478   0.501858  -0.017729  -0.000733   4.804038
    19  C   -0.048643  -0.017850  -0.009194   0.491755   0.008401   0.513824
    20  H    0.008765  -0.035670  -0.000268   0.401698  -0.012776   0.008411
    21  H    0.012170  -0.000433  -0.023543   0.007195   0.000042   0.380201
    22  H   -0.001032   0.009056   0.009066  -0.043595  -0.000152  -0.041880
    23  C    0.314059  -0.090701  -0.074183   0.007359  -0.020065   0.007179
    24  O   -0.085107   0.003673   0.519761   0.000018  -0.000056  -0.058642
    25  H   -0.034827  -0.000888  -0.014222  -0.000037   0.000018   0.006074
              19         20         21         22         23         24
     1  C   -0.000000  -0.000000  -0.000000   0.000000   0.004411   0.000001
     2  C    0.000000  -0.000000  -0.000000  -0.000000  -0.054655  -0.000017
     3  C    0.000002  -0.000000   0.000001  -0.000000  -0.127783  -0.001969
     4  C   -0.000000   0.000000   0.000000  -0.000000   0.000421  -0.000084
     5  C    0.000000   0.000000   0.000000   0.000000   0.000229  -0.000001
     6  C    0.000000  -0.000000   0.000000  -0.000000  -0.000167  -0.000000
     7  H    0.000000  -0.000000  -0.000000   0.000000   0.000064  -0.000000
     8  H    0.000000  -0.000000   0.000000  -0.000000  -0.000964  -0.000203
     9  H   -0.000000   0.000000  -0.000000  -0.000000   0.000008   0.000000
    10  H   -0.000000   0.000000   0.000000  -0.000000   0.000003  -0.000000
    11  N    0.000052   0.000001   0.000014  -0.000000   0.536529  -0.063591
    12  S    0.000020  -0.000000   0.000003  -0.000000   0.313695  -0.000228
    13  C   -0.048643   0.008765   0.012170  -0.001032   0.314059  -0.085107
    14  C   -0.017850  -0.035670  -0.000433   0.009056  -0.090701   0.003673
    15  C   -0.009194  -0.000268  -0.023543   0.009066  -0.074183   0.519761
    16  C    0.491755   0.401698   0.007195  -0.043595   0.007359   0.000018
    17  H    0.008401  -0.012776   0.000042  -0.000152  -0.020065  -0.000056
    18  C    0.513824   0.008411   0.380201  -0.041880   0.007179  -0.058642
    19  C    4.720658  -0.046900  -0.043969   0.406882   0.000520   0.002869
    20  H   -0.046900   0.677017  -0.000158  -0.011923  -0.000339   0.000003
    21  H   -0.043969  -0.000158   0.658536  -0.011922  -0.000419   0.002603
    22  H    0.406882  -0.011923  -0.011922   0.662344   0.000002  -0.000061
    23  C    0.000520  -0.000339  -0.000419   0.000002   5.106762   0.000247
    24  O    0.002869   0.000003   0.002603  -0.000061   0.000247   7.405364
    25  H   -0.000140  -0.000001   0.000080   0.000009   0.001460   0.385456
              25
     1  C   -0.000074
     2  C    0.002600
     3  C   -0.005634
     4  C   -0.001063
     5  C    0.000002
     6  C    0.000012
     7  H    0.000001
     8  H    0.001420
     9  H   -0.000005
    10  H    0.000000
    11  N    0.090163
    12  S    0.002803
    13  C   -0.034827
    14  C   -0.000888
    15  C   -0.014222
    16  C   -0.000037
    17  H    0.000018
    18  C    0.006074
    19  C   -0.000140
    20  H   -0.000001
    21  H    0.000080
    22  H    0.000009
    23  C    0.001460
    24  O    0.385456
    25  H    0.477902
 Mulliken charges:
               1
     1  C    0.012394
     2  C   -0.229371
     3  C    0.239442
     4  C   -0.016723
     5  C    0.008101
     6  C   -0.006455
     7  H    0.018087
     8  H    0.017588
     9  H    0.018964
    10  H    0.020613
    11  N   -0.344706
    12  S    0.156050
    13  C   -0.084837
    14  C   -0.018077
    15  C    0.073944
    16  C   -0.015231
    17  H    0.011705
    18  C    0.006665
    19  C    0.021715
    20  H    0.012141
    21  H    0.019600
    22  H    0.023207
    23  C    0.076329
    24  O   -0.110036
    25  H    0.088891
 Sum of Mulliken charges =  -0.00000
 Mulliken charges with hydrogens summed into heavy atoms:
               1
     1  C    0.030481
     2  C   -0.229371
     3  C    0.239442
     4  C    0.000865
     5  C    0.027065
     6  C    0.014158
    11  N   -0.344706
    12  S    0.156050
    13  C   -0.084837
    14  C   -0.006372
    15  C    0.073944
    16  C   -0.003090
    18  C    0.026265
    19  C    0.044922
    23  C    0.076329
    24  O   -0.021145
 Electronic spatial extent (au):  <R**2>=           4350.6756
 Charge=             -0.0000 electrons
 Dipole moment (field-independent basis, Debye):
    X=             -0.4373    Y=             -1.8642    Z=              0.0000  Tot=              1.9148
 Quadrupole moment (field-independent basis, Debye-Ang):
   XX=            -83.2651   YY=            -88.4590   ZZ=           -104.3061
   XY=             -7.1467   XZ=             -0.0001   YZ=              0.0002
 Traceless Quadrupole moment (field-independent basis, Debye-Ang):
   XX=              8.7450   YY=              3.5511   ZZ=            -12.2960
   XY=             -7.1467   XZ=             -0.0001   YZ=              0.0002
 Octapole moment (field-independent basis, Debye-Ang**2):
  XXX=              9.0307  YYY=            -13.6604  ZZZ=             -0.0000  XYY=             -6.8424
  XXY=              3.2850  XXZ=              0.0001  XZZ=              0.9718  YZZ=              3.0305
  YYZ=              0.0007  XYZ=             -0.0006
[...]
 ,0.00007371,-0.00002662,0.,0.00003245,0.00000380,0.,-0.00657480,0.0066
 1301,-0.00000001,-0.00114213,0.00171353,0.00000001,-0.04362140,0.02200
 485,0.00000042,-0.20739575,0.14367265,0.00000222,0.00670453,0.00272023
 ,-0.00000006,0.73965639,-0.00190072,-0.00078907,-0.00000003,-0.0070040
 9,-0.00570081,-0.00000005,-0.01154370,0.01708549,0.00000020,0.01037113
 ,-0.00202263,-0.00000006,0.00008807,0.00715100,0.00000009,-0.00176817,
 -0.00212038,-0.00000002,0.00000789,0.00020640,0.,-0.00008953,-0.000121
 21,0.,-0.00015171,0.00011379,0.,-0.00003201,-0.00004221,0.,0.01735555,
 -0.01332404,-0.00000013,0.00096548,-0.00499567,-0.00000006,0.05624153,
 0.02941140,0.00000034,0.06827767,-0.25810250,-0.00000321,-0.00383100,-
 0.01556883,-0.00000033,-0.00043098,0.63677346,-0.00000004,0.,-0.000069
 43,-0.00000010,-0.00000011,-0.00012597,-0.00000021,0.00000030,-0.00009
 562,0.00000018,-0.00000003,-0.00015624,0.,0.00000012,-0.00004787,-0.00
 000002,-0.00000004,0.00002466,0.,0.,-0.00003615,0.,0.,-0.00003053,0.,0
 .,-0.00000039,0.,0.,0.00006287,0.00000029,-0.00000022,0.00185987,0.,-0
 .00000008,0.00007155,0.00000066,0.00000054,0.00241627,0.00000126,-0.00
 000352,-0.05277121,-0.00000003,-0.00000017,-0.00384988,0.00000070,0.00
 000954,0.13135278,0.00019636,-0.00003186,0.,-0.00098507,-0.00006853,0.
 00000003,0.00010436,0.00041423,0.,0.00030026,0.00002509,0.,0.00008385,
 0.00028833,0.,-0.00014514,-0.00016994,0.,-0.00001296,0.00000718,0.,0.0
 0002149,-0.00000443,0.,-0.00000091,0.00000086,0.,0.00002708,-0.0000030
 3,0.,0.00066273,0.00019042,0.00000002,-0.00014661,0.00091351,-0.000000
 03,-0.00624639,-0.02861991,-0.00000048,-0.09967771,-0.10237204,-0.0000
 0196,-0.00570082,0.00261740,-0.00000005,0.01077960,0.01907639,0.000000
 34,0.10199780,-0.00001848,-0.00007171,0.,-0.00034583,0.00006615,0.,-0.
 00018046,0.00065268,0.,0.00035366,-0.00005789,0.,0.00002764,0.00036735
 ,0.,-0.00019260,-0.00016305,0.,-0.00000412,0.00001909,0.,0.00000123,-0
 .00001209,0.,-0.00000988,0.00000327,0.,-0.00000722,0.00000273,0.,0.000
 68006,0.00001745,0.00000003,-0.00044073,-0.00018462,-0.00000002,0.0024
 0182,-0.00036020,-0.00000003,-0.10177872,-0.30138787,-0.00000484,0.000
 37748,0.00151924,-0.00000010,-0.01227344,-0.01828127,-0.00000038,0.107
 61715,0.31845782,0.00000002,-0.00000001,-0.00004436,-0.00000002,0.0000
 0004,-0.00027195,0.00000002,-0.00000004,0.00011255,-0.00000001,0.,0.00
 009084,0.,0.,0.00000987,-0.00000002,0.,0.00001973,0.,0.,0.00000787,0.,
 0.,0.00002336,0.,0.,0.00000138,0.,0.,-0.00001448,-0.00000005,0.0000000
 2,-0.00112392,-0.00000002,-0.00000001,0.00036661,0.00000020,-0.0000001
 7,0.00281740,-0.00000209,-0.00000483,-0.03119726,-0.00000002,-0.000000
 05,0.00618965,-0.00000016,-0.00000042,0.00267976,0.00000206,0.00000536
 ,0.02090654,-0.00231550,0.00166379,0.,0.00076133,-0.00191536,-0.000000
 03,-0.00235195,0.00619148,0.00000007,0.00259200,-0.00023444,0.,-0.0003
 9918,-0.00035310,0.,0.00277828,-0.00019025,-0.00000002,-0.00013883,0.0
 0000872,0.,0.00014662,0.00005039,0.,0.00013760,-0.00001946,0.,0.000103
 13,-0.00004110,0.,0.00947947,0.00570773,-0.00000006,-0.00163639,-0.002
 18498,0.,0.01927920,0.02076870,0.00000039,-0.01638886,0.02358296,0.000
 00042,-0.17407169,0.07544511,0.00000151,-0.01456110,-0.05723056,-0.000
 00093,-0.00038416,0.00017251,-0.00000006,0.74781567,0.00001490,-0.0003
 5684,0.,-0.00321099,-0.00325258,-0.00000005,-0.00277612,0.00557761,0.0
 0000001,0.00267734,-0.00061535,-0.00000001,0.00036231,0.00262963,0.000
 00003,-0.00128761,-0.00114032,0.,0.00001183,0.00009576,0.,-0.00010519,
 -0.00007538,0.,-0.00006952,0.00001726,0.,0.00000410,-0.00000364,0.,0.0
 0753554,-0.00401345,0.00000011,0.00144056,-0.00385473,0.,0.02109804,-0
 .03677959,-0.00000090,-0.00552574,0.00076323,0.00000011,0.11748710,-0.
 26840496,-0.00000376,-0.03355743,-0.01034214,-0.00000028,-0.00035917,0
 .00044339,0.00000007,0.04001096,0.72037384,0.,-0.00000002,0.00027245,-
 0.00000003,-0.00000004,0.00081163,-0.00000005,0.,0.00144738,0.00000001
 ,0.,-0.00048242,0.,0.00000002,-0.00000507,-0.00000001,-0.00000001,-0.0
 0006253,0.,0.,0.00003222,0.,0.,0.00005277,0.,0.,0.00004815,0.,0.,-0.00
 009304,0.00000003,-0.00000005,-0.00415754,0.00000003,0.,-0.00000394,0.
 00000012,-0.00000059,0.01040054,0.00000015,-0.00000009,-0.00143563,0.0
 0000238,-0.00000385,-0.06638156,-0.00000063,-0.00000014,0.00550034,0.0
 0000001,0.00000003,-0.00070056,-0.00000182,0.00001006,0.11106461,0.003
 12119,-0.00108648,0.,0.00282061,0.00538124,0.00000007,0.00900742,-0.01
 519510,-0.00000016,-0.00784310,0.00142088,0.00000003,0.00039700,-0.003
 66698,-0.00000005,-0.00150418,0.00176955,0.00000003,0.00009865,-0.0000
 6119,0.,-0.00002028,0.00002417,0.,-0.00008105,-0.00002533,0.,-0.000065
 25,0.00007066,0.,-0.01885848,0.00648798,0.00000011,0.00227399,0.004127
 90,0.00000004,-0.01814930,-0.02324633,-0.00000034,0.05001061,-0.010184
 81,-0.00000013,-0.04064038,0.03398597,0.00000091,-0.14516347,-0.025312
 66,-0.00000058,-0.00214772,0.00453759,0.00000013,-0.38282850,-0.058479
 31,0.00000002,0.72594373,-0.00035620,-0.00017357,0.,-0.00325781,-0.003
 36930,-0.00000003,-0.00270955,0.00725718,0.00000006,0.00342927,-0.0008
 0366,-0.00000002,0.00017837,0.00310083,0.00000004,-0.00098033,-0.00184
 619,-0.00000002,0.00000256,0.00009633,0.,-0.00007337,-0.00011667,0.,-0
 .00004147,0.00001029,0.,-0.00001504,0.00001269,0.,0.00915991,-0.002192
 23,-0.00000004,-0.00084764,-0.00264709,-0.00000001,-0.01346761,-0.0131
 2075,-0.00000025,0.02117160,-0.05849694,-0.00000133,0.01882625,0.03072
 697,0.00000044,-0.09154630,-0.28834168,-0.00000461,0.00326509,-0.00139
 579,-0.00000007,-0.01870105,-0.12428875,-0.00000113,-0.04202046,0.6841
 0332,-0.00000002,0.,0.00014834,-0.00000009,-0.00000010,-0.00034398,-0.
 00000010,0.00000025,-0.00094219,0.00000011,-0.00000003,0.00009183,0.,0
 .00000008,0.00008645,-0.00000001,-0.00000005,-0.00000312,0.,0.,-0.0000
 2387,0.,0.,-0.00010569,0.,0.,-0.00000460,0.,0.,0.00000535,0.00000032,-
 0.00000007,0.00141909,-0.00000005,-0.00000009,0.00030549,-0.00000019,-
 0.00000011,-0.00362014,0.00000030,-0.00000119,0.00850934,0.00000055,0.
 00000034,0.00206228,-0.00000164,-0.00000459,-0.05992598,0.00000006,-0.
 00000015,0.00585652,0.00000046,-0.00000109,-0.04898833,-0.00000209,0.0
 0001107,0.11421600,0.00004799,-0.00007494,0.,-0.00010673,0.00006356,0.
 ,0.00000184,-0.00006434,0.,0.00000197,0.00002087,0.,0.00002020,0.00009
 304,0.,-0.00014025,0.00000182,0.,0.00000595,0.00001047,0.,-0.00000383,
 -0.00000732,0.,-0.00001423,0.00000531,0.,-0.00000844,0.00000515,0.,-0.
 00018960,0.00038773,0.,0.00005821,-0.00005284,0.,0.00033138,0.00321117
 ,0.00000005,-0.01385658,-0.00666024,-0.00000017,0.00059619,0.00014102,
 0.,-0.33984055,-0.04472336,-0.00000121,0.00080401,0.00007404,0.,0.0014
 1735,-0.00194780,-0.00000006,-0.00629897,0.00213329,0.00000004,0.35758
 080,-0.00002951,0.00001180,0.,-0.00007554,-0.00014539,0.,-0.00004518,0
 .00029144,0.,0.00012946,-0.00006573,0.,0.00001522,0.00008424,0.,-0.000
 00213,-0.00003417,0.,-0.00000025,0.00000014,0.,-0.00000061,-0.00000027
 ,0.,0.00000173,-0.00000278,0.,0.00000219,-0.00000150,0.,0.00056218,-0.
 00044574,0.00000003,0.00002392,-0.00003151,0.,0.00336031,-0.00390250,-
 0.00000019,0.02421739,0.00766077,0.00000007,0.00037535,-0.00126147,0.,
 -0.04533510,-0.06629074,-0.00000068,-0.00010342,0.00087481,0.00000009,
 -0.00107397,-0.00545866,-0.00000020,-0.02935642,0.00064059,-0.00000011
 ,0.04796958,0.06576574,0.,0.,-0.00004018,-0.00000002,-0.00000002,0.000
 03755,-0.00000002,0.00000004,0.00058257,0.00000003,0.,0.00013877,0.,0.
 00000002,-0.00007932,0.,0.,0.00001958,0.,0.,0.00000522,0.,0.,0.0000397
 3,0.,0.,-0.00002685,0.,0.,-0.00000021,0.00000005,-0.00000004,-0.001041
 86,0.,0.,-0.00007999,0.00000009,-0.00000020,0.00710184,0.00000033,0.00
 000014,0.00656599,0.,-0.00000003,-0.00105811,-0.00000120,-0.00000080,-
 0.03825340,0.,0.00000009,-0.00412265,-0.00000002,-0.00000024,0.0047263
 1,-0.00000056,0.,0.00573209,0.00000132,0.00000090,0.02347178,-0.000092
 28,0.00003316,0.,0.00009285,0.00008105,0.,-0.00006873,0.00005041,0.,0.
 00002333,0.00000636,0.,-0.00002587,-0.00004921,0.,0.00008940,0.0000151
 4,0.,0.00000016,-0.00000485,0.,-0.00000372,0.00000236,0.,0.00000426,-0
 .00000003,0.,-0.00000172,-0.00000215,0.,0.00012528,-0.00021120,0.,-0.0
 0027918,0.00011579,0.,-0.00344616,0.00279206,0.00000008,0.00016596,0.0
 0015940,0.,0.00891759,0.02007689,0.00000028,-0.00574211,0.00081518,0.0
 0000006,0.00011728,-0.00009755,0.,-0.09998851,-0.10524890,-0.00000131,
 -0.00405421,-0.02843525,-0.00000043,-0.00039613,-0.00140571,-0.0000000
 4,0.10085757,0.00011351,0.00001069,0.,-0.00006078,0.00003654,0.,0.0001
 9063,-0.00012997,-0.00000001,-0.00008968,0.00000662,0.,-0.00000529,-0.
 00006941,0.,0.00001192,-0.00001066,0.,-0.00000629,-0.00000109,0.,0.000
 01061,0.00000392,0.,0.00000815,-0.00000217,0.,0.00000782,-0.00000113,0
 .,-0.00039777,0.00047993,0.,0.00025741,-0.00007896,0.,0.00386750,-0.00
 116898,-0.00000011,0.00029080,0.00021739,0.00000002,-0.01312683,-0.018
 61408,-0.00000025,-0.00016864,0.00154349,-0.00000008,-0.00007467,-0.00
 005798,0.,-0.10186078,-0.30576800,-0.00000400,0.00186440,0.00123045,-0
 .00000002,0.00009459,-0.00004337,0.,0.11110225,0.32047495,0.00000002,0
 .,-0.00033485,0.,0.00000002,-0.00003276,0.00000003,-0.00000006,0.00041
 349,-0.00000003,0.,-0.00001239,0.,-0.00000001,-0.00005810,0.,0.,0.0000
 2827,0.,0.,-0.00000115,0.,0.,0.00005396,0.,0.,-0.00000140,0.,0.,0.0000
 6172,-0.00000010,0.00000002,-0.00032893,0.00000003,0.00000002,-0.00011
 469,0.00000005,-0.00000007,0.00415338,0.00000007,-0.00000004,-0.000636
 34,-0.00000029,-0.00000039,0.00381036,0.00000003,-0.00000002,0.0069140
 3,0.,0.00000001,-0.00062376,-0.00000111,-0.00000390,-0.03292051,-0.000
 00013,-0.00000002,0.00366432,0.,0.00000002,-0.00027373,0.00000144,0.00
 000428,0.02291024,-0.00000796,-0.00003702,0.,-0.00022828,-0.00012500,0
 .,-0.00011291,0.00040316,0.,0.00022127,-0.00005172,0.,0.00002004,0.000
 22576,0.,-0.00011467,-0.00008450,0.,0.00000135,0.00001053,0.,-0.000002
 25,-0.00000909,0.,-0.00000981,0.00000362,0.,-0.00000399,0.00000228,0.,
 0.00057603,0.00011846,0.,-0.00002157,-0.00006969,0.,0.00027026,-0.0005
 9538,-0.00000001,-0.00103268,-0.00241345,-0.00000004,-0.00390928,-0.00
 283991,-0.00000002,0.01038098,-0.01153088,-0.00000022,0.00035135,-0.00
 051330,0.,-0.01252862,0.02534303,0.00000051,-0.17680153,0.14293127,0.0
 0000293,0.00067032,0.00040119,0.,0.00111878,-0.00023421,-0.00000002,0.
 18330325,0.00011076,0.00003168,0.,0.00030350,0.00037001,0.,0.00054777,
 -0.00090855,0.,-0.00049764,0.00010978,0.,-0.00000901,-0.00037764,0.,0.
 00010620,0.00013356,0.,-0.00000370,-0.00001277,0.,0.00000941,0.0000111
 3,0.,0.00001075,-0.00000513,0.,0.00000585,-0.00000054,0.,-0.00105425,0
 .00046865,0.,-0.00001072,0.00031957,0.,-0.00153538,0.00020405,0.000000
 03,-0.00252136,-0.00394065,-0.00000017,-0.00169318,0.00011065,-0.00000
 012,0.02071569,-0.01505089,-0.00000035,0.00094258,-0.00097774,-0.00000
 003,-0.00652382,0.00790236,0.00000008,0.14301015,-0.23016941,-0.000004
 05,-0.00009044,0.00096671,0.00000008,0.00028331,0.00059533,0.00000008,
 -0.15248852,0.24018939,0.,0.,0.00002945,0.,0.00000001,0.00000363,0.000
 00002,-0.00000002,-0.00014441,-0.00000001,0.,0.00004304,0.,-0.00000001
 ,0.00000873,0.,0.,-0.00000440,0.,0.,0.00000830,0.,0.,0.00001307,0.,0.,
 -0.00000065,0.,0.,-0.00001932,-0.00000002,0.00000001,0.00036387,0.,0.,
 -0.00012333,-0.00000004,0.00000004,-0.00139849,-0.00000007,-0.00000018
 ,0.00408769,0.00000002,-0.00000012,0.00727354,0.00000042,-0.00000032,0
 .00258618,0.00000002,-0.00000003,0.00081427,-0.00000004,0.00000003,0.0
 0428498,0.00000287,-0.00000401,-0.03225213,0.00000001,0.00000007,-0.00
 285519,-0.00000002,0.00000007,-0.00401478,-0.00000315,0.00000443,0.021
 95367,-0.00968769,-0.00350417,-0.00000001,-0.00858830,0.00847908,0.,-0
 .09720891,0.05550460,0.00000059,0.02403372,-0.00405772,-0.00000012,-0.
 00099475,0.01387727,0.00000017,-0.00438490,-0.00237108,-0.00000001,0.0
 0038515,-0.00039602,0.,-0.00048262,-0.00022660,0.,-0.00026025,0.000234
 23,0.,-0.00057614,-0.00014368,0.,-0.29436452,-0.05645546,0.00000010,-0
 .05066975,-0.03201563,-0.00000007,-0.18695385,0.12745418,0.00000030,-0
 .05056511,0.04434015,0.00000050,0.01127172,0.00295288,-0.00000007,0.00
 216086,-0.02087886,-0.00000039,0.00002439,-0.00031138,0.00000002,-0.00
 545244,-0.01436474,-0.00000007,0.01000330,-0.00407351,-0.00000017,-0.0
 0064930,0.00048569,-0.00000001,0.00079072,-0.00072304,0.00000005,-0.00
 044631,0.00091809,0.00000001,0.65625206,-0.00650727,0.00528152,0.00000
 009,0.04564135,-0.01890198,-0.00000032,0.02659466,-0.01038764,-0.00000
 022,-0.00182061,-0.00491977,-0.00000012,-0.00107682,-0.00717018,-0.000
 00009,0.00839716,0.00270862,-0.00000002,0.00001176,-0.00090570,-0.0000
 0001,0.00002748,0.00044806,0.00000001,0.00050109,-0.00049414,0.,-0.000
 06160,-0.00000709,0.,-0.06103977,-0.09489225,-0.00000032,-0.01437473,-
 0.11028296,-0.00000051,0.10041499,-0.23004852,-0.00000094,0.02017697,0
 .00982131,-0.00000002,0.02990656,-0.04720402,-0.00000022,-0.00619980,-
 0.00031938,-0.00000011,-0.00130936,0.00074020,0.00000004,-0.01578595,0
 .00597670,0.,0.00760906,0.00634715,0.00000011,-0.00058836,0.00110098,0
 .00000006,0.00030552,-0.00059421,-0.00000003,0.00039065,-0.00011123,0.
 00000001,-0.11609877,0.49807183,-0.00000007,0.00000007,0.00213269,0.00
 000046,-0.00000032,-0.00276462,0.00000044,-0.00000017,0.00431678,0.000
 00002,-0.00000013,0.00537439,0.,-0.00000003,0.00094452,0.00000008,0.,0
 .00086923,0.,0.,-0.00033479,0.,0.00000001,-0.00085449,0.,0.,-0.0008052
 2,0.,0.,-0.00030878,-0.00000047,-0.00000045,-0.03828614,-0.00000010,-0
 .00000022,-0.02056691,0.00000054,-0.00000135,-0.04032766,0.00000002,0.
 00000013,0.00754534,0.00000008,-0.00000026,0.00592783,-0.00000009,0.,0
 .00225724,0.,0.00000004,-0.00093404,0.00000006,-0.00000003,0.00006792,
 -0.00000014,0.00000011,-0.00089695,0.,0.00000003,-0.00067744,0.0000000
 1,-0.00000004,0.00133678,0.,0.,0.00013160,-0.00000077,0.00000266,0.075
 88875,0.00288951,0.00143533,0.00000004,0.00687152,0.01169088,0.0000001
 5,0.01921473,-0.01721475,-0.00000028,-0.01042518,0.00213271,0.00000007
 ,-0.00101867,-0.00883166,-0.00000010,0.00310444,0.00314498,0.00000002,
 -0.00024689,-0.00004217,0.,0.00051460,0.00020103,0.,0.00018350,-0.0000
 1965,0.,0.00005573,0.00006134,0.,-0.01558219,0.04862901,0.00000039,0.0
 0063995,0.00883746,0.,-0.04782463,-0.01246176,0.00000021,0.02795010,-0
 .01337687,-0.00000025,-0.39139536,-0.08779471,0.00000189,-0.01112507,0
 .01705211,0.00000030,-0.00045776,-0.00020318,-0.00000002,-0.07197693,0
 .01621013,0.00000084,0.00061120,0.00442764,0.,-0.00009036,-0.00010169,
 0.00000003,0.00193354,-0.00133122,-0.00000004,-0.00152101,-0.00056507,
 -0.00000003,0.00715767,-0.00772768,0.00000001,0.56362946,-0.00134254,-
 0.00123033,-0.00000001,-0.00204871,-0.00702603,-0.00000007,-0.01669592
 ,0.00368391,0.00000017,0.00392893,-0.00129321,-0.00000003,0.00028184,0
 .00336983,0.00000004,-0.00091539,-0.00172919,-0.00000002,0.00021794,-0
 .00029869,0.,-0.00003269,0.00010433,0.,0.00014850,-0.00008679,0.,0.000
 05110,-0.00009520,0.,0.02408447,-0.06824207,-0.00000050,0.00058558,-0.
 00389639,-0.00000005,-0.03152506,-0.00573277,0.00000019,-0.00722603,-0
 .00591649,-0.00000008,-0.06181473,-0.12977301,0.00000008,0.00054693,-0
 .00344058,-0.00000005,-0.00192435,-0.00006796,-0.00000002,0.04925190,0
 .01504455,-0.00000036,0.00014870,-0.00779893,-0.00000022,-0.00001591,0
 .00043019,0.,-0.00086154,0.00244619,0.00000009,0.00167759,0.00055891,0
 .00000003,0.00803123,0.01038352,0.00000003,-0.02723764,0.40503895,0.00
 000003,-0.00000001,0.00040587,0.00000002,0.00000005,-0.00080131,0.0000
 0008,-0.00000010,-0.00047041,-0.00000006,0.,0.00035429,0.,-0.00000003,
 0.00018277,-0.00000002,0.00000002,0.00002191,0.,0.,-0.00002536,0.,0.,-
 0.00016992,0.,0.,-0.00004307,0.,0.,-0.00009993,-0.00000006,-0.00000014
 ,0.01368644,0.00000001,0.,-0.00088906,-0.00000006,-0.00000046,0.013974
 66,-0.00000012,0.,0.00194452,0.00000168,0.00000057,-0.04706490,0.00000
 008,-0.00000013,-0.00031652,-0.00000001,0.,-0.00116464,0.00000109,-0.0
 0000018,0.00999795,-0.00000005,-0.00000007,0.00388104,0.,0.,0.00003266
 ,-0.00000005,0.00000009,-0.00334743,0.00000002,0.,-0.00000977,-0.00000
 012,0.00000014,-0.00262959,-0.00000218,-0.00000044,0.04176086,-0.00102
 923,-0.00035632,-0.00000001,-0.00306132,-0.00357432,-0.00000002,-0.006
 10462,0.00970793,0.00000013,0.00414669,-0.00066922,-0.00000003,0.00018
 844,0.00290517,0.00000003,-0.00080956,-0.00106788,-0.00000001,0.000065
 88,0.00002406,0.,-0.00049104,-0.00013321,0.,-0.00001195,-0.00000574,0.
 ,-0.00001259,-0.00007017,0.,-0.01458475,-0.01562372,-0.00000023,-0.001
 74499,-0.00443769,-0.00000001,0.00659252,-0.00133176,0.00000001,-0.006
 64425,0.00331733,0.00000005,-0.04962765,0.03510867,0.00000014,0.001517
 82,-0.00382279,-0.00000007,0.00043469,0.00013374,0.,0.00051200,-0.0052
 6331,-0.00000012,0.00016873,0.00100034,0.00000005,0.00005874,-0.000014
 68,0.,-0.00013809,0.00025959,0.,-0.00017275,0.00002904,0.,-0.00079475,
 -0.00738654,-0.00000008,-0.08309190,0.06268580,-0.00000029,0.15463391,
 0.00436543,0.00069123,0.00000002,0.00464321,0.01407647,0.00000013,0.02
 862703,-0.01761962,-0.00000033,-0.01069449,0.00341968,0.00000009,-0.00
 098083,-0.00780761,-0.00000009,0.00103921,0.00298885,0.00000004,-0.000
 29692,0.00030615,0.,0.00038982,-0.00008575,0.,-0.00014425,0.00013704,0
 .,-0.00009311,0.00017006,0.,-0.02783027,0.02806503,0.00000064,0.002465
 64,0.01067657,0.00000003,-0.02195883,0.00397732,-0.00000003,0.02071863
 ,-0.00854031,-0.00000014,0.03800973,0.01684562,-0.00000024,-0.00439075
 ,0.01256898,0.00000021,-0.00031753,-0.00014603,0.,-0.01673944,0.005530
 06,0.00000029,-0.00180320,0.00123517,0.00000002,0.00001389,-0.00014357
 ,0.00000001,0.00047751,-0.00050548,-0.00000001,-0.00051486,-0.00041721
 ,-0.00000003,-0.00665674,-0.01464081,-0.00000006,0.06308542,-0.2044327
 5,0.00000066,-0.07141432,0.15365091,0.00000002,0.,0.00009027,0.0000000
 6,0.00000008,0.00095823,0.00000011,-0.00000016,-0.00181508,-0.00000008
 ,0.00000003,-0.00054278,0.,-0.00000006,-0.00011222,0.,0.00000003,-0.00
 002229,0.,0.,-0.00004043,0.,0.,0.00012335,0.,0.,0.00004820,0.,0.,0.000
 05997,-0.00000016,0.00000024,-0.01413742,0.,0.00000007,0.00091378,-0.0
 0000022,0.00000020,-0.00468055,0.00000018,-0.00000006,0.00015560,0.000
 00055,-0.00000028,-0.00010137,-0.00000006,0.00000015,-0.00004637,0.,0.
 ,0.00030129,0.00000009,0.00000004,0.00652388,0.,-0.00000010,0.00112885
 ,0.,0.,0.00005485,0.,0.00000002,-0.00064572,0.00000001,0.00000001,-0.0
 0077955,0.00000007,-0.00000019,0.00259357,-0.00000104,0.00000121,-0.02
 921106,0.00000045,-0.00000122,0.03918299\\0.00095318,-0.00051915,-0.00
 000003,-0.00050966,-0.00168137,0.00000006,-0.00193954,-0.00011039,-0.0
 0000006,-0.00059185,0.00082326,0.00000004,0.00035059,0.00196637,0.,0.0
 0108366,0.00095945,-0.00000005,0.00019531,-0.00011223,0.,-0.00015870,0
 .00014155,0.,0.00003372,0.00021763,0.,0.00016678,0.00012515,0.,0.00045
 746,-0.00208183,-0.00000030,-0.00112952,-0.00467468,0.00000015,0.00039
 323,-0.00092150,0.,-0.00174198,0.00100719,-0.00000024,-0.00138449,-0.0
 0085407,-0.00000018,0.00038311,0.00078102,-0.00000002,-0.00015786,0.00
 010046,-0.00000002,0.00154971,0.00009948,0.00000022,0.00157307,0.00141
 419,0.00000013,0.00000978,0.00018911,0.,0.00017641,-0.00000672,0.,0.00
 020037,0.00017918,0.,-0.00020451,-0.00044442,0.00000011,0.00129431,0.0
 0027747,-0.00000065,-0.00100262,0.00312483,0.00000080\\\@
 The archive entry for this job was punched.


 ALL OUR THINKING ABOUT NATURE MUST NECESSARILY MOVE IN CIRCLES OR SPIRALS;
 FOR WE CAN ONLY UNDERSTAND NATURE IF WE THINK ABOUT HER, AND WE CAN ONLY
 THINK BECAUSE OUR BRAIN IS BUILT IN ACCORDANCE WITH NATURE'S LAWS.

                                             -- TIMOTHY FERRIS, "GALAXIES"
 Job cpu time:       0 days  2 hours 51 minutes 24.0 seconds.
 Elapsed time:       0 days  0 hours 17 minutes 45.7 seconds.
 File lengths (MBytes):  RWF=   1380 Int=      0 D2E=      0 Chk=     48 Scr=      8
 Normal termination of Gaussian 16 at Mon Jul 13 14:28:45 2020.
