 Entering Gaussian System, Link 0=g16
 Initial command:
 /gpfs/loomis/apps/avx/software/Gaussian/16-C.01_AVX/g16/l1.exe "/home/fas/batista/pev4/scratch60/gauss-scratch/Gau-162399.inp" -scrdir="/home/fas/batista/pev4/scratch60/gauss-scratch/"
 Entering Link 1 = /gpfs/loomis/apps/avx/software/Gaussian/16-C.01_AVX/g16/l1.exe PID=    162400.
  
 Copyright (c) 1988-2019, Gaussian, Inc.  All Rights Reserved.
  
 This is part of the Gaussian(R) 16 program.  It is based on
 the Gaussian(R) 09 system (copyright 2009, Gaussian, Inc.),
 the Gaussian(R) 03 system (copyright 2003, Gaussian, Inc.),
 the Gaussian(R) 98 system (copyright 1998, Gaussian, Inc.),
 the Gaussian(R) 94 system (copyright 1995, Gaussian, Inc.),
 the Gaussian 92(TM) system (copyright 1992, Gaussian, Inc.),
 the Gaussian 90(TM) system (copyright 1990, Gaussian, Inc.),
 the Gaussian 88(TM) system (copyright 1988, Gaussian, Inc.),
 the Gaussian 86(TM) system (copyright 1986, Carnegie Mellon
 University), and the Gaussian 82(TM) system (copyright 1983,
 Carnegie Mellon University). Gaussian is a federally registered
 trademark of Gaussian, Inc.
  
 This software contains proprietary and confidential information,
 including trade secrets, belonging to Gaussian, Inc.
  
 This software is provided under written license and may be
 used, copied, transmitted, or stored only in accord with that
 written license.
  
 The following legend is applicable only to US Government
 contracts under FAR:
  
                    RESTRICTED RIGHTS LEGEND
  
 Use, reproduction and disclosure by the US Government is
 subject to restrictions as set forth in subparagraphs (a)
 and (c) of the Commercial Computer Software - Restricted
 Rights clause in FAR 52.227-19.
  
 Gaussian, Inc.
 340 Quinnipiac St., Bldg. 40, Wallingford CT 06492
  
  
 ---------------------------------------------------------------
 Warning -- This program may not be used in any manner that
 competes with the business of Gaussian, Inc. or will provide
 assistance to any competitor of Gaussian, Inc.  The licensee
 of this program is prohibited from giving any competitor of
 Gaussian, Inc. access to this program.  By using this program,
 the user acknowledges that Gaussian, Inc. is engaged in the
 business of creating and licensing software in the field of
 computational chemistry and represents and warrants to the
 licensee that it is not a competitor of Gaussian, Inc. and that
 it will not use this program in any manner prohibited above.
 ---------------------------------------------------------------
  

 Cite this work as:
 Gaussian 16, Revision C.01,
 M. J. Frisch, G. W. Trucks, H. B. Schlegel, G. E. Scuseria, 
 M. A. Robb, J. R. Cheeseman, G. Scalmani, V. Barone, 
 G. A. Petersson, H. Nakatsuji, X. Li, M. Caricato, A. V. Marenich, 
 J. Bloino, B. G. Janesko, R. Gomperts, B. Mennucci, H. P. Hratchian, 
 J. V. Ortiz, A. F. Izmaylov, J. L. Sonnenberg, D. Williams-Young, 
 F. Ding, F. Lipparini, F. Egidi, J. Goings, B. Peng, A. Petrone, 
 T. Henderson, D. Ranasinghe, V. G. Zakrzewski, J. Gao, N. Rega, 
 G. Zheng, W. Liang, M. Hada, M. Ehara, K. Toyota, R. Fukuda, 
 J. Hasegawa, M. Ishida, T. Nakajima, Y. Honda, O. Kitao, H. Nakai, 
 T. Vreven, K. Throssell, J. A. Montgomery, Jr., J. E. Peralta, 
 F. Ogliaro, M. J. Bearpark, J. J. Heyd, E. N. Brothers, K. N. Kudin, 
 V. N. Staroverov, T. A. Keith, R. Kobayashi, J. Normand, 
 K. Raghavachari, A. P. Rendell, J. C. Burant, S. S. Iyengar, 
 J. Tomasi, M. Cossi, J. M. Millam, M. Klene, C. Adamo, R. Cammi, 
 J. W. Ochterski, R. L. Martin, K. Morokuma, O. Farkas, 
 J. B. Foresman, and D. J. Fox, Gaussian, Inc., Wallingford CT, 2019.
 
 ******************************************
 Gaussian 16:  ES64L-G16RevC.01  3-Jul-2019
                13-Jul-2020 
 ******************************************
 %chk=config_8_2.chk
 %mem=58GB
 %nprocshared=10
 Will use up to   10 processors via shared memory.
 ----------------------------------------------------------------------
 #p opt=addgic freq td wb97xd/cc-pvdz nosymm int=ultrafine scrf=(solven
 t=CarbonTetraChloride)
 ----------------------------------------------------------------------
 1/18=20,19=15,26=6,38=1,145=903/1,3;
 2/9=110,12=2,15=1,17=6,18=5,40=1/2;
 3/5=16,11=9,25=1,30=1,70=2201,71=1,72=11,74=-58,75=-5/1,2,3,8;
 4//1;
 5/5=2,38=5,53=11/2;
 8/6=1,10=1/1;
 9/15=2,42=1,70=2/14;
 10/5=4,31=1/2;
 6/7=2,8=2,9=2,10=2/1;
 7/12=6,13=5,30=1/1,2,3,16;
 1/18=20,19=15,26=6,145=903/3(2);
 2/9=110,15=1/2;
 99//99;
 2/9=110,15=1/2;
 3/5=16,11=9,25=1,30=1,70=2205,71=1,72=11,74=-58,75=-5/1,2,3,8;
 4/5=5,16=3,69=1/1;
 5/5=2,38=5,53=11/2;
 8/6=1,10=1/1;
 9/15=2,42=1,49=4,70=2/14;
 10/5=4,31=1/2;
 7/12=6,13=5,30=1/1,2,3,16;
 1/18=20,19=15,26=6,145=903/3(-8);
 2/9=110,15=1/2;
 6/7=2,8=2,9=2,10=2/1;
 99/9=10/99;
 Leave Link    1 at Mon Jul 13 15:15:32 2020, MaxMem=  7784628224 cpu:               4.1 elap:               0.5
 (Enter /gpfs/loomis/apps/avx/software/Gaussian/16-C.01_AVX/g16/l101.exe)
 ------------------------------------------------
 NM 2D-scan of HBT TD-WB97XD pVDZ in CTC Relaxed.
 ------------------------------------------------
 Symbolic Z-matrix:
 Charge =  0 Multiplicity = 1
 C                     1.74893  -3.2705   -0.00002 
 C                     1.00413  -2.08735  -0.00002 
 C                     1.66577  -0.82932  -0.00002 
 C                     3.0714   -0.75203  -0.00002 
 C                     3.79782  -1.9328   -0.00002 
 C                     3.14714  -3.18013  -0.00003 
 H                     1.25759  -4.24746  -0.00003 
 H                     3.55661   0.22768  -0.00002 
 H                     4.89029  -1.89429  -0.00002 
 H                     3.74038  -4.09769  -0.00003 
 N                     0.83346   0.23551  -0.00002 
 S                    -0.75069  -1.84368  -0.00002 
 C                    -1.42366   1.00103  0. 
 C                    -2.82116   0.89219  -0.00001 
 C                    -0.85507   2.38545   0.00003 
 C                    -3.64462   2.03931   0.00002 
 H                    -3.28742  -0.09815  -0.00005 
 C                    -1.72733   3.50352   0.00006 
 C                    -3.10954   3.33993   0.00006 
 H                    -4.72888   1.90386   0.00001 
 H                    -1.25248   4.48832   0.00009 
 H                    -3.77188   4.2078    0.00009 
 C                    -0.48627  -0.07938  -0.00001 
 O                     0.41063   2.58911   0.00003 
 H                     0.93697   1.37204  0. 
 
 Initializing the GIC definitions file.
 Number of initial coordinates =   134
 Number of input entries/lines =    52
 Number of additional coordinates =     2
 Number of removed coordinates =     0
 Number of frozen coordinates =     2
 Number of final active and frozen coordinates =   136
 ITRead=  0  0  0  0  0  0  0  0  0  0  0  0  0  0  0  0  0  0  0  0
 ITRead=  0  0  0  0  0
 MicOpt= -1 -1 -1 -1 -1 -1 -1 -1 -1 -1 -1 -1 -1 -1 -1 -1 -1 -1 -1 -1
 MicOpt= -1 -1 -1 -1 -1
 NAtoms=     25 NQM=       25 NQMF=       0 NMMI=      0 NMMIF=      0
                NMic=       0 NMicF=      0.
                    Isotopes and Nuclear Properties:
 (Nuclear quadrupole moments (NQMom) in fm**2, nuclear magnetic moments (NMagM)
  in nuclear magnetons)

  Atom         1           2           3           4           5           6           7           8           9          10
 IAtWgt=          12          12          12          12          12          12           1           1           1           1
 AtmWgt=  12.0000000  12.0000000  12.0000000  12.0000000  12.0000000  12.0000000   1.0078250   1.0078250   1.0078250   1.0078250
 NucSpn=           0           0           0           0           0           0           1           1           1           1
 AtZEff=  -0.0000000  -0.0000000  -0.0000000  -0.0000000  -0.0000000  -0.0000000  -0.0000000  -0.0000000  -0.0000000  -0.0000000
 NQMom=    0.0000000   0.0000000   0.0000000   0.0000000   0.0000000   0.0000000   0.0000000   0.0000000   0.0000000   0.0000000
 NMagM=    0.0000000   0.0000000   0.0000000   0.0000000   0.0000000   0.0000000   2.7928460   2.7928460   2.7928460   2.7928460
 AtZNuc=   6.0000000   6.0000000   6.0000000   6.0000000   6.0000000   6.0000000   1.0000000   1.0000000   1.0000000   1.0000000

  Atom        11          12          13          14          15          16          17          18          19          20
 IAtWgt=          14          32          12          12          12          12           1          12          12           1
 AtmWgt=  14.0030740  31.9720718  12.0000000  12.0000000  12.0000000  12.0000000   1.0078250  12.0000000  12.0000000   1.0078250
 NucSpn=           2           0           0           0           0           0           1           0           0           1
 AtZEff=  -0.0000000  -0.0000000  -0.0000000  -0.0000000  -0.0000000  -0.0000000  -0.0000000  -0.0000000  -0.0000000  -0.0000000
 NQMom=    2.0440000   0.0000000   0.0000000   0.0000000   0.0000000   0.0000000   0.0000000   0.0000000   0.0000000   0.0000000
 NMagM=    0.4037610   0.0000000   0.0000000   0.0000000   0.0000000   0.0000000   2.7928460   0.0000000   0.0000000   2.7928460
 AtZNuc=   7.0000000  16.0000000   6.0000000   6.0000000   6.0000000   6.0000000   1.0000000   6.0000000   6.0000000   1.0000000

  Atom        21          22          23          24          25
 IAtWgt=           1           1          12          16           1
 AtmWgt=   1.0078250   1.0078250  12.0000000  15.9949146   1.0078250
 NucSpn=           1           1           0           0           1
 AtZEff=  -0.0000000  -0.0000000  -0.0000000  -0.0000000  -0.0000000
 NQMom=    0.0000000   0.0000000   0.0000000   0.0000000   0.0000000
 NMagM=    2.7928460   2.7928460   0.0000000   0.0000000   2.7928460
 AtZNuc=   1.0000000   1.0000000   6.0000000   8.0000000   1.0000000
 Leave Link  101 at Mon Jul 13 15:15:35 2020, MaxMem=  7784628224 cpu:              31.8 elap:               3.2
 (Enter /gpfs/loomis/apps/avx/software/Gaussian/16-C.01_AVX/g16/l103.exe)

 GradGradGradGradGradGradGradGradGradGradGradGradGradGradGradGradGradGrad
 Berny optimization.
 Initialization pass.
                           ----------------------------
                           !    Initial Parameters    !
                           ! (Angstroms and Degrees)  !
 --------------------------                            --------------------------
 ! Name  Definition              Value          Derivative Info.                !
 --------------------------------------------------------------------------------
 ! R1    R(1,2)                  1.3981         estimate D2E/DX2                !
 ! R2    R(1,6)                  1.4011         estimate D2E/DX2                !
 ! R3    R(1,7)                  1.0935         estimate D2E/DX2                !
 ! R4    R(2,3)                  1.4214         estimate D2E/DX2                !
 ! R5    R(2,12)                 1.7717         estimate D2E/DX2                !
 ! R6    R(3,4)                  1.4078         estimate D2E/DX2                !
 ! R7    R(3,11)                 1.3515         estimate D2E/DX2                !
 ! R8    R(4,5)                  1.3863         estimate D2E/DX2                !
 ! R9    R(4,8)                  1.0933         estimate D2E/DX2                !
 ! R10   R(5,6)                  1.4069         estimate D2E/DX2                !
 ! R11   R(5,9)                  1.0931         estimate D2E/DX2                !
 ! R12   R(6,10)                 1.0926         estimate D2E/DX2                !
 ! R13   R(11,23)                1.3568         estimate D2E/DX2                !
 ! R14   R(11,25)                1.1412         estimate D2E/DX2                !
 ! R15   R(12,23)                1.784          estimate D2E/DX2                !
 ! R16   R(13,14)                1.4017         estimate D2E/DX2                !
 ! R17   R(13,15)                1.4966         estimate D2E/DX2                !
 ! R18   R(13,23)                1.4304         estimate D2E/DX2                !
 ! R19   R(14,16)                1.4121         estimate D2E/DX2                !
 ! R20   R(14,17)                1.0946         estimate D2E/DX2                !
 ! R21   R(15,18)                1.4181         estimate D2E/DX2                !
 ! R22   R(15,24)                1.282          estimate D2E/DX2                !
 ! R23   R(16,19)                1.4064         estimate D2E/DX2                !
 ! R24   R(16,20)                1.0927         estimate D2E/DX2                !
 ! R25   R(18,19)                1.3919         estimate D2E/DX2                !
 ! R26   R(18,21)                1.0933         estimate D2E/DX2                !
 ! R27   R(19,22)                1.0917         estimate D2E/DX2                !
 ! A1    A(2,1,6)              118.4924         estimate D2E/DX2                !
 ! A2    A(2,1,7)              121.1108         estimate D2E/DX2                !
 ! A3    A(6,1,7)              120.3968         estimate D2E/DX2                !
 ! A4    A(1,2,3)              120.0681         estimate D2E/DX2                !
 ! A5    A(1,2,12)             130.0959         estimate D2E/DX2                !
 ! A6    A(3,2,12)             109.8361         estimate D2E/DX2                !
 ! A7    A(2,3,4)              120.8891         estimate D2E/DX2                !
 ! A8    A(2,3,11)             114.2461         estimate D2E/DX2                !
 ! A9    A(4,3,11)             124.8648         estimate D2E/DX2                !
 ! A10   A(3,4,5)              118.4525         estimate D2E/DX2                !
 ! A11   A(3,4,8)              119.495          estimate D2E/DX2                !
 ! A12   A(5,4,8)              122.0525         estimate D2E/DX2                !
 ! A13   A(4,5,6)              120.8509         estimate D2E/DX2                !
 ! A14   A(4,5,9)              119.5813         estimate D2E/DX2                !
 ! A15   A(6,5,9)              119.5678         estimate D2E/DX2                !
 ! A16   A(1,6,5)              121.2471         estimate D2E/DX2                !
 ! A17   A(1,6,10)             119.1862         estimate D2E/DX2                !
 ! A18   A(5,6,10)             119.5667         estimate D2E/DX2                !
 ! A19   A(3,11,23)            114.5923         estimate D2E/DX2                !
 ! A20   A(3,11,25)            136.7839         estimate D2E/DX2                !
 ! A21   A(23,11,25)           108.6238         estimate D2E/DX2                !
 ! A22   A(2,12,23)             89.3817         estimate D2E/DX2                !
 ! A23   A(14,13,15)           116.7814         estimate D2E/DX2                !
 ! A24   A(14,13,23)           126.4928         estimate D2E/DX2                !
 ! A25   A(15,13,23)           116.7258         estimate D2E/DX2                !
 ! A26   A(13,14,16)           121.2195         estimate D2E/DX2                !
 ! A27   A(13,14,17)           119.6643         estimate D2E/DX2                !
 ! A28   A(16,14,17)           119.1163         estimate D2E/DX2                !
 ! A29   A(13,15,18)           119.7121         estimate D2E/DX2                !
 ! A30   A(13,15,24)           121.4692         estimate D2E/DX2                !
 ! A31   A(18,15,24)           118.8188         estimate D2E/DX2                !
 ! A32   A(14,16,19)           121.9653         estimate D2E/DX2                !
 ! A33   A(14,16,20)           118.5518         estimate D2E/DX2                !
 ! A34   A(19,16,20)           119.4828         estimate D2E/DX2                !
 ! A35   A(15,18,19)           121.2101         estimate D2E/DX2                !
 ! A36   A(15,18,21)           116.298          estimate D2E/DX2                !
 ! A37   A(19,18,21)           122.4919         estimate D2E/DX2                !
 ! A38   A(16,19,18)           119.1117         estimate D2E/DX2                !
 ! A39   A(16,19,22)           120.2875         estimate D2E/DX2                !
 ! A40   A(18,19,22)           120.6009         estimate D2E/DX2                !
 ! A41   A(11,23,12)           111.9438         estimate D2E/DX2                !
 ! A42   A(11,23,13)           117.5257         estimate D2E/DX2                !
 ! A43   A(12,23,13)           130.5305         estimate D2E/DX2                !
 ! D1    D(6,1,2,3)              0.0            estimate D2E/DX2                !
 ! D2    D(6,1,2,12)          -179.9999         estimate D2E/DX2                !
 ! D3    D(7,1,2,3)            180.0            estimate D2E/DX2                !
 ! D4    D(7,1,2,12)             0.0            estimate D2E/DX2                !
 ! D5    D(2,1,6,5)              0.0            estimate D2E/DX2                !
 ! D6    D(2,1,6,10)           180.0            estimate D2E/DX2                !
 ! D7    D(7,1,6,5)           -179.9999         estimate D2E/DX2                !
 ! D8    D(7,1,6,10)             0.0001         estimate D2E/DX2                !
 ! D9    D(1,2,3,4)             -0.0001         estimate D2E/DX2                !
 ! D10   D(1,2,3,11)           179.9999         estimate D2E/DX2                !
 ! D11   D(12,2,3,4)           179.9999         estimate D2E/DX2                !
 ! D12   D(12,2,3,11)           -0.0001         estimate D2E/DX2                !
 ! D13   D(1,2,12,23)          180.0            estimate D2E/DX2                !
 ! D14   D(3,2,12,23)            0.0            estimate D2E/DX2                !
 ! D15   D(2,3,4,5)              0.0            estimate D2E/DX2                !
 ! D16   D(2,3,4,8)           -180.0            estimate D2E/DX2                !
 ! D17   D(11,3,4,5)          -179.9999         estimate D2E/DX2                !
 ! D18   D(11,3,4,8)             0.0            estimate D2E/DX2                !
 ! D19   D(2,3,11,23)            0.0002         estimate D2E/DX2                !
 ! D20   D(2,3,11,25)          179.9991         estimate D2E/DX2                !
 ! D21   D(4,3,11,23)         -179.9998         estimate D2E/DX2                !
 ! D22   D(4,3,11,25)           -0.0009         estimate D2E/DX2                !
 ! D23   D(3,4,5,6)              0.0            estimate D2E/DX2                !
 ! D24   D(3,4,5,9)           -180.0            estimate D2E/DX2                !
 ! D25   D(8,4,5,6)           -180.0            estimate D2E/DX2                !
 ! D26   D(8,4,5,9)              0.0            estimate D2E/DX2                !
 ! D27   D(4,5,6,1)              0.0            estimate D2E/DX2                !
 ! D28   D(4,5,6,10)           180.0            estimate D2E/DX2                !
 ! D29   D(9,5,6,1)            180.0            estimate D2E/DX2                !
 ! D30   D(9,5,6,10)             0.0            estimate D2E/DX2                !
 ! D31   D(3,11,23,12)          -0.0001         estimate D2E/DX2                !
 ! D32   D(3,11,23,13)         179.9996         estimate D2E/DX2                !
 ! D33   D(25,11,23,12)       -179.9993         estimate D2E/DX2                !
 ! D34   D(25,11,23,13)          0.0004         estimate D2E/DX2                !
 ! D35   D(2,12,23,11)           0.0001         estimate D2E/DX2                !
 ! D36   D(2,12,23,13)        -179.9996         estimate D2E/DX2                !
 ! D37   D(15,13,14,16)         -0.0008         estimate D2E/DX2                !
 ! D38   D(15,13,14,17)        179.9994         estimate D2E/DX2                !
 ! D39   D(23,13,14,16)        179.999          estimate D2E/DX2                !
 ! D40   D(23,13,14,17)         -0.0007         estimate D2E/DX2                !
 ! D41   D(14,13,15,18)          0.0009         estimate D2E/DX2                !
 ! D42   D(14,13,15,24)       -179.9991         estimate D2E/DX2                !
 ! D43   D(23,13,15,18)       -179.999          estimate D2E/DX2                !
 ! D44   D(23,13,15,24)          0.001          estimate D2E/DX2                !
 ! D45   D(14,13,23,11)        179.9991         estimate D2E/DX2                !
 ! D46   D(14,13,23,12)         -0.0012         estimate D2E/DX2                !
 ! D47   D(15,13,23,11)         -0.001          estimate D2E/DX2                !
 ! D48   D(15,13,23,12)        179.9987         estimate D2E/DX2                !
 ! D49   D(13,14,16,19)          0.0002         estimate D2E/DX2                !
 ! D50   D(13,14,16,20)       -179.9997         estimate D2E/DX2                !
 ! D51   D(17,14,16,19)        179.9999         estimate D2E/DX2                !
 ! D52   D(17,14,16,20)          0.0            estimate D2E/DX2                !
 ! D53   D(13,15,18,19)         -0.0003         estimate D2E/DX2                !
 ! D54   D(13,15,18,21)        179.9997         estimate D2E/DX2                !
 ! D55   D(24,15,18,19)        179.9997         estimate D2E/DX2                !
 ! D56   D(24,15,18,21)         -0.0003         estimate D2E/DX2                !
 ! D57   D(14,16,19,18)          0.0004         estimate D2E/DX2                !
 ! D58   D(14,16,19,22)       -179.9997         estimate D2E/DX2                !
 ! D59   D(20,16,19,18)       -179.9997         estimate D2E/DX2                !
 ! D60   D(20,16,19,22)          0.0002         estimate D2E/DX2                !
 ! D61   D(15,18,19,16)         -0.0003         estimate D2E/DX2                !
 ! D62   D(15,18,19,22)        179.9998         estimate D2E/DX2                !
 ! D63   D(21,18,19,16)        179.9996         estimate D2E/DX2                !
 ! D64   D(21,18,19,22)         -0.0002         estimate D2E/DX2                !
 ! Qtot  GIC-1                  20.0            Frozen                          !
 ! Ptot  GIC-2                -120.0            Frozen                          !
 --------------------------------------------------------------------------------
 NOTE: GIC-type coordinates are in arbitrary units.
 Trust Radius=3.00D-01 FncErr=5.00D-06 GrdErr=5.00D-06 EigMax=2.50D+02 EigMin=1.00D-04
 Number of steps in this run=    146 maximum allowed number of steps=    150.
 GradGradGradGradGradGradGradGradGradGradGradGradGradGradGradGradGradGrad

 Leave Link  103 at Mon Jul 13 15:15:36 2020, MaxMem=  7784628224 cpu:               0.1 elap:               0.0
 (Enter /gpfs/loomis/apps/avx/software/Gaussian/16-C.01_AVX/g16/l202.exe)
                          Input orientation:                          
 ---------------------------------------------------------------------
 Center     Atomic      Atomic             Coordinates (Angstroms)
 Number     Number       Type             X           Y           Z
 ---------------------------------------------------------------------
      1          6           0        1.748925   -3.270505   -0.000025
      2          6           0        1.004128   -2.087348   -0.000021
      3          6           0        1.665771   -0.829322   -0.000018
      4          6           0        3.071404   -0.752026   -0.000018
      5          6           0        3.797821   -1.932798   -0.000022
      6          6           0        3.147142   -3.180134   -0.000025
      7          1           0        1.257595   -4.247459   -0.000026
      8          1           0        3.556614    0.227680   -0.000015
      9          1           0        4.890287   -1.894290   -0.000022
     10          1           0        3.740378   -4.097691   -0.000028
     11          7           0        0.833460    0.235512   -0.000016
     12         16           0       -0.750695   -1.843675   -0.000017
     13          6           0       -1.423661    1.001026   -0.000001
     14          6           0       -2.821160    0.892193   -0.000013
     15          6           0       -0.855067    2.385449    0.000030
     16          6           0       -3.644616    2.039314    0.000021
     17          1           0       -3.287417   -0.098149   -0.000046
     18          6           0       -1.727328    3.503518    0.000065
     19          6           0       -3.109543    3.339934    0.000064
     20          1           0       -4.728876    1.903865    0.000014
     21          1           0       -1.252478    4.488316    0.000091
     22          1           0       -3.771882    4.207796    0.000094
     23          6           0       -0.486272   -0.079380   -0.000013
     24          8           0        0.410634    2.589106    0.000026
     25          1           0        0.936966    1.372038   -0.000001
 ---------------------------------------------------------------------
                    Distance matrix (angstroms):
                    1          2          3          4          5
     1  C    0.000000
     2  C    1.398063   0.000000
     3  C    2.442598   1.421408   0.000000
     4  C    2.844589   2.461039   1.407757   0.000000
     5  C    2.446923   2.797964   2.400687   1.386328   0.000000
     6  C    1.401134   2.405554   2.778629   2.429289   1.406851
     7  H    1.093547   2.174930   3.442421   3.938014   3.436627
     8  H    3.937643   3.445946   2.166228   1.093276   2.173901
     9  H    3.429595   3.890952   3.395831   2.147814   1.093145
    10  H    2.156414   3.395370   3.871205   3.411891   2.165655
    11  N    3.623566   2.329122   1.351523   2.446145   3.672739
    12  S    2.878184   1.771660   2.620728   3.974938   4.549389
    13  C    5.320834   3.928386   3.590928   4.824811   5.989257
    14  C    6.181725   4.848762   4.805846   6.117660   7.196630
    15  C    6.226603   4.843813   4.085263   5.026024   6.347962
    16  C    7.568649   6.216121   6.035667   7.272997   8.436085
    17  H    5.952191   4.730145   5.006863   6.392351   7.318916
    18  C    7.613916   6.222431   5.503329   6.413851   7.751181
    19  C    8.203817   6.810117   6.339268   7.412708   8.689844
    20  H    8.290718   6.985493   6.954266   8.240031   9.350109
    21  H    8.319118   6.952096   6.065761   6.793905   8.169225
    22  H    9.295391   7.901843   7.412195   8.451651   9.747169
    23  C    3.896073   2.500646   2.278969   3.620705   4.667827
    24  O    6.010496   4.713964   3.641568   4.271165   5.649836
    25  H    4.713012   3.460038   2.318867   3.011224   4.371091
                    6          7          8          9         10
     6  C    0.000000
     7  H    2.170154   0.000000
     8  H    3.432326   5.031139   0.000000
     9  H    2.166091   4.328263   2.506280   0.000000
    10  H    1.092630   2.487296   4.329273   2.485411   0.000000
    11  N    4.125502   4.502990   2.723166   4.581911   5.217933
    12  S    4.120589   3.132316   4.779479   5.641209   5.024969
    13  C    6.194702   5.893702   5.039961   6.946136   7.257011
    14  C    7.225266   6.561422   6.412299   8.199445   8.243344
    15  C    6.855172   6.961236   4.911100   7.164165   7.946648
    16  C    8.565664   7.972150   7.425613   9.397755   9.602133
    17  H    7.134576   6.154177   6.851782   8.372632   8.086175
    18  C    8.272343   8.305866   6.217006   8.539858   9.363450
    19  C    9.036448   8.754452   7.356886   9.560041  10.111364
    20  H    9.374364   8.583508   8.453339  10.341870  10.380122
    21  H    8.840916   9.089237   6.424982   8.858399   9.932176
    22  H   10.121977   9.838037   8.339556  10.595690  11.198891
    23  C    4.776648   4.518180   4.054530   5.674618   5.831928
    24  O    6.385343   6.888829   3.933640   6.337833   7.469969
    25  H    5.060350   5.628636   2.858691   5.128123   6.146304
                   11         12         13         14         15
    11  N    0.000000
    12  S    2.613918   0.000000
    13  C    2.383402   2.923219   0.000000
    14  C    3.713149   3.431006   1.401730   0.000000
    15  C    2.733743   4.230412   1.496638   2.468873   0.000000
    16  C    4.827718   4.842766   2.451669   1.412079   2.810941
    17  H    4.134362   3.079256   2.163740   1.094610   3.476289
    18  C    4.151807   5.435650   2.520849   2.831164   1.418069
    19  C    5.018437   5.695083   2.883174   2.464671   2.448204
    20  H    5.807149   5.465344   3.426304   2.159366   3.903629
    21  H    4.736822   6.351843   3.491489   3.923374   2.140090
    22  H    6.081794   6.763718   3.974609   3.449217   3.439297
    23  C    1.356779   1.784000   1.430376   2.528963   2.492266
    24  O    2.391273   4.582383   2.426240   3.650207   1.281981
    25  H    1.141229   3.631668   2.389605   3.788636   2.058734
                   16         17         18         19         20
    16  C    0.000000
    17  H    2.167104   0.000000
    18  C    2.412444   3.925033   0.000000
    19  C    1.406384   3.442682   1.391861   0.000000
    20  H    1.092688   2.466954   3.401202   2.164379   0.000000
    21  H    3.423439   5.017632   1.093302   2.183453   4.331827
    22  H    2.172214   4.333113   2.162454   1.091732   2.494782
    23  C    3.803157   2.801208   3.791752   4.309671   4.683263
    24  O    4.092349   4.571315   2.325303   3.599360   5.184990
    25  H    4.629919   4.472903   3.411990   4.499650   5.690747
                   21         22         23         24         25
    21  H    0.000000
    22  H    2.534973   0.000000
    23  C    4.631514   5.401400   0.000000
    24  O    2.524469   4.484819   2.815184   0.000000
    25  H    3.808524   5.496797   2.032786   1.326001   0.000000
 Symmetry turned off by external request.
 Stoichiometry    C13H9NOS
 Framework group  C1[X(C13H9NOS)]
 Deg. of freedom    69
 Full point group                 C1      NOp   1
 Rotational constants (GHZ):           1.3511871           0.2853430           0.2355910
 Leave Link  202 at Mon Jul 13 15:15:36 2020, MaxMem=  7784628224 cpu:               0.1 elap:               0.0
 (Enter /gpfs/loomis/apps/avx/software/Gaussian/16-C.01_AVX/g16/l301.exe)
 Standard basis: CC-pVDZ (5D, 7F)
 Ernie: Thresh=  0.10000D-02 Tol=  0.10000D-05 Strict=F.
 Ernie:  40 primitive shells out of 425 were deleted.
   273 basis functions,   629 primitive gaussians,   289 cartesian basis functions
    59 alpha electrons       59 beta electrons
       nuclear repulsion energy      1095.0663353581 Hartrees.
 IExCor= 4639 DFT=T Ex+Corr=wB97XD ExCW=0 ScaHFX=  1.000000
 ScaDFX=  1.000000  1.000000  1.000000  1.000000 ScalE2=  1.000000  1.000000
 IRadAn=      5 IRanWt=     -1 IRanGd=            0 ICorTp=0 IEmpDi=121
 HFx  wShort=  0.000000 wLong=  0.200000 cFull=  0.222036 cShort=  0.000000 cLong=  0.777964
 DFx  wShort=  0.000000 wLong=  0.200000 cFull=  0.000000 cShort=  0.000000 cLong=  1.000000
 NAtoms=   25 NActive=   25 NUniq=   25 SFac= 1.00D+00 NAtFMM=   60 NAOKFM=F Big=F
 Integral buffers will be    131072 words long.
 Raffenetti 1 integral format.
 Two-electron integral symmetry is turned off.
 R6Disp:  Grimme-D2 Dispersion energy=       -0.0140472088 Hartrees.
 Nuclear repulsion after empirical dispersion term =     1095.0522881493 Hartrees.
 ------------------------------------------------------------------------------
 Polarizable Continuum Model (PCM)
 =================================
 Model                : PCM.
 Atomic radii         : UFF (Universal Force Field).
 Polarization charges : Total charges.
 Charge compensation  : None.
 Solution method      : On-the-fly selection.
 Cavity type          : Scaled VdW (van der Waals Surface) (Alpha=1.100).
 Cavity algorithm     : GePol (No added spheres)
                        Default sphere list used, NSphG=   25.
                        Lebedev-Laikov grids with approx.  5.0 points / Ang**2.
                        Smoothing algorithm: York/Karplus (Gamma=1.0000).
                        Polarization charges: spherical gaussians, with
                                              point-specific exponents (IZeta= 3).
                        Self-potential: point-specific (ISelfS= 7).
                        Self-field    : sphere-specific E.n sum rule (ISelfD= 2).
 1st derivatives      : Analytical E(r).r(x)/FMM algorithm (CHGder, D1EAlg=3).
                        Cavity 1st derivative terms included.
 Solvent              : CarbonTetraChloride, Eps=   2.228000 Eps(inf)=   2.131892
 ------------------------------------------------------------------------------
 GePol: Number of generator spheres                  =      25
 GePol: Total number of spheres                      =      25
 GePol: Number of exposed spheres                    =      25 (100.00%)
 GePol: Number of points                             =    2198
 GePol: Average weight of points                     =       0.13
 GePol: Minimum weight of points                     =   0.16D-08
 GePol: Maximum weight of points                     =    0.20577
 GePol: Number of points with low weight             =     131
 GePol: Fraction of low-weight points (<1% of avg)   =       5.96%
 GePol: Cavity surface area                          =    275.759 Ang**2
 GePol: Cavity volume                                =    294.736 Ang**3
 Leave Link  301 at Mon Jul 13 15:15:36 2020, MaxMem=  7784628224 cpu:               0.8 elap:               0.1
 (Enter /gpfs/loomis/apps/avx/software/Gaussian/16-C.01_AVX/g16/l302.exe)
 NPDir=0 NMtPBC=     1 NCelOv=     1 NCel=       1 NClECP=     1 NCelD=      1
         NCelK=      1 NCelE2=     1 NClLst=     1 CellRange=     0.0.
 One-electron integrals computed using PRISM.
 NBasis=   273 RedAO= T EigKep=  3.13D-04  NBF=   273
 NBsUse=   273 1.00D-06 EigRej= -1.00D+00 NBFU=   273
 Precomputing XC quadrature grid using
 IXCGrd= 4 IRadAn=           5 IRanWt=          -1 IRanGd=           0 AccXCQ= 0.00D+00.
 Generated NRdTot=       0 NPtTot=           0 NUsed=           0 NTot=          32
 NSgBfM=   288   288   288   288   288 MxSgAt=    25 MxSgA2=    25.
 Leave Link  302 at Mon Jul 13 15:15:36 2020, MaxMem=  7784628224 cpu:               2.5 elap:               0.3
 (Enter /gpfs/loomis/apps/avx/software/Gaussian/16-C.01_AVX/g16/l303.exe)
 DipDrv:  MaxL=1.
 Leave Link  303 at Mon Jul 13 15:15:36 2020, MaxMem=  7784628224 cpu:               0.4 elap:               0.1
 (Enter /gpfs/loomis/apps/avx/software/Gaussian/16-C.01_AVX/g16/l308.exe)
 Leave Link  308 at Mon Jul 13 15:15:36 2020, MaxMem=  7784628224 cpu:               0.5 elap:               0.1
 (Enter /gpfs/loomis/apps/avx/software/Gaussian/16-C.01_AVX/g16/l401.exe)
 ExpMin= 1.22D-01 ExpMax= 1.11D+05 ExpMxC= 1.07D+03 IAcc=3 IRadAn=         5 AccDes= 0.00D+00
 Harris functional with IExCor= 4639 and IRadAn=       5 diagonalized for initial guess.
 HarFok:  IExCor= 4639 AccDes= 0.00D+00 IRadAn=         5 IDoV= 1 UseB2=F ITyADJ=14
 ICtDFT=  3500011 ScaDFX=  1.000000  1.000000  1.000000  1.000000
 FoFCou: FMM=F IPFlag=           0 FMFlag=      100000 FMFlg1=           0
         NFxFlg=           0 DoJE=T BraDBF=F KetDBF=T FulRan=T
         wScrn=  0.000000 ICntrl=       500 IOpCl=  0 I1Cent=   200000004 NGrid=           0
         NMat0=    1 NMatS0=      1 NMatT0=    0 NMatD0=    1 NMtDS0=    0 NMtDT0=    0
 Symmetry not used in FoFCou.
 Harris En= -994.462064690671    
 JPrj=0 DoOrth=F DoCkMO=F.
 Leave Link  401 at Mon Jul 13 15:15:37 2020, MaxMem=  7784628224 cpu:              13.5 elap:               1.4
 (Enter /gpfs/loomis/apps/avx/software/Gaussian/16-C.01_AVX/g16/l502.exe)
 Two-electron integral symmetry not used.
 Closed shell SCF:
 Using DIIS extrapolation, IDIIS=  1040.
 NGot=  7784628224 LenX=  7784455381 LenY=  7784371419
 Requested convergence on RMS density matrix=1.00D-08 within 128 cycles.
 Requested convergence on MAX density matrix=1.00D-06.
 Requested convergence on             energy=1.00D-06.
 No special actions if energy rises.
 Fock matrices will be formed incrementally for  20 cycles.

 Cycle   1  Pass 1  IDiag  1:
 FoFJK:  IHMeth= 1 ICntrl=       0 DoSepK=T KAlg= 0 I1Cent=           0 FoldK=F
 IRaf=         1 NMat=       1 IRICut=       1 DoRegI=T DoRafI=F ISym2E= 0 IDoP0=0 IntGTp=1.
 FoFCou: FMM=F IPFlag=           0 FMFlag=      100000 FMFlg1=           0
         NFxFlg=           0 DoJE=T BraDBF=F KetDBF=F FulRan=T
         wScrn=  0.000000 ICntrl=       500 IOpCl=  0 I1Cent=           0 NGrid=           0
         NMat0=    1 NMatS0=      1 NMatT0=    0 NMatD0=    1 NMtDS0=    0 NMtDT0=    0
 Symmetry not used in FoFCou.
 Inv3:  Mode=1 IEnd=    14493612.
 Iteration    1 A*A^-1 deviation from unit magnitude is 6.66D-15 for   2195.
 Iteration    1 A*A^-1 deviation from orthogonality  is 2.44D-15 for   1256    437.
 Iteration    1 A^-1*A deviation from unit magnitude is 6.00D-15 for   2195.
 Iteration    1 A^-1*A deviation from orthogonality  is 1.84D-15 for   1429    218.
 E= -1028.56097691722    
 DIIS: error= 3.94D-02 at cycle   1 NSaved=   1.
 NSaved= 1 IEnMin= 1 EnMin= -1028.56097691722     IErMin= 1 ErrMin= 3.94D-02
 ErrMax= 3.94D-02  0.00D+00 EMaxC= 1.00D-01 BMatC= 3.95D-01 BMatP= 3.95D-01
 IDIUse=3 WtCom= 6.06D-01 WtEn= 3.94D-01
 Coeff-Com:  0.100D+01
 Coeff-En:   0.100D+01
 Coeff:      0.100D+01
 Gap=     0.330 Goal=   None    Shift=    0.000
 GapD=    0.330 DampG=1.000 DampE=0.500 DampFc=0.5000 IDamp=-1.
 Damping current iteration by 5.00D-01
 RMSDP=3.58D-03 MaxDP=2.32D-01              OVMax= 1.85D-01

 Cycle   2  Pass 1  IDiag  1:
 RMSU=  1.78D-03    CP:  9.94D-01
 E= -1028.68182476699     Delta-E=       -0.120847849770 Rises=F Damp=T
 DIIS: error= 1.10D-02 at cycle   2 NSaved=   2.
 NSaved= 2 IEnMin= 2 EnMin= -1028.68182476699     IErMin= 2 ErrMin= 1.10D-02
 ErrMax= 1.10D-02  0.00D+00 EMaxC= 1.00D-01 BMatC= 5.82D-02 BMatP= 3.95D-01
 IDIUse=3 WtCom= 8.90D-01 WtEn= 1.10D-01
 Coeff-Com: -0.285D+00 0.128D+01
 Coeff-En:   0.000D+00 0.100D+01
 Coeff:     -0.253D+00 0.125D+01
 Gap=     0.294 Goal=   None    Shift=    0.000
 RMSDP=1.15D-03 MaxDP=2.50D-02 DE=-1.21D-01 OVMax= 1.23D-01

 Cycle   3  Pass 1  IDiag  1:
 RMSU=  1.11D-03    CP:  9.92D-01  1.18D+00
 E= -1028.78949688129     Delta-E=       -0.107672114291 Rises=F Damp=F
 DIIS: error= 7.03D-03 at cycle   3 NSaved=   3.
 NSaved= 3 IEnMin= 3 EnMin= -1028.78949688129     IErMin= 3 ErrMin= 7.03D-03
 ErrMax= 7.03D-03  0.00D+00 EMaxC= 1.00D-01 BMatC= 1.48D-02 BMatP= 5.82D-02
 IDIUse=3 WtCom= 9.30D-01 WtEn= 7.03D-02
 Coeff-Com: -0.203D+00 0.492D+00 0.711D+00
 Coeff-En:   0.000D+00 0.000D+00 0.100D+01
 Coeff:     -0.189D+00 0.458D+00 0.731D+00
 Gap=     0.248 Goal=   None    Shift=    0.000
 RMSDP=5.45D-04 MaxDP=1.82D-02 DE=-1.08D-01 OVMax= 4.07D-02

 Cycle   4  Pass 1  IDiag  1:
 RMSU=  4.31D-04    CP:  9.90D-01  1.34D+00  8.41D-01
 E= -1028.80368846219     Delta-E=       -0.014191580907 Rises=F Damp=F
 DIIS: error= 2.33D-03 at cycle   4 NSaved=   4.
 NSaved= 4 IEnMin= 4 EnMin= -1028.80368846219     IErMin= 4 ErrMin= 2.33D-03
 ErrMax= 2.33D-03  0.00D+00 EMaxC= 1.00D-01 BMatC= 1.88D-03 BMatP= 1.48D-02
 IDIUse=3 WtCom= 9.77D-01 WtEn= 2.33D-02
 Coeff-Com: -0.719D-01 0.143D+00 0.350D+00 0.579D+00
 Coeff-En:   0.000D+00 0.000D+00 0.000D+00 0.100D+01
 Coeff:     -0.703D-01 0.139D+00 0.342D+00 0.589D+00
 Gap=     0.247 Goal=   None    Shift=    0.000
 RMSDP=1.74D-04 MaxDP=1.02D-02 DE=-1.42D-02 OVMax= 1.16D-02

 Cycle   5  Pass 1  IDiag  1:
 RMSU=  1.10D-04    CP:  9.90D-01  1.35D+00  9.13D-01  7.52D-01
 E= -1028.80571946179     Delta-E=       -0.002030999600 Rises=F Damp=F
 DIIS: error= 4.90D-04 at cycle   5 NSaved=   5.
 NSaved= 5 IEnMin= 5 EnMin= -1028.80571946179     IErMin= 5 ErrMin= 4.90D-04
 ErrMax= 4.90D-04  0.00D+00 EMaxC= 1.00D-01 BMatC= 5.79D-05 BMatP= 1.88D-03
 IDIUse=3 WtCom= 9.95D-01 WtEn= 4.90D-03
 Coeff-Com: -0.183D-02-0.255D-02 0.342D-01 0.161D+00 0.809D+00
 Coeff-En:   0.000D+00 0.000D+00 0.000D+00 0.000D+00 0.100D+01
 Coeff:     -0.183D-02-0.253D-02 0.341D-01 0.161D+00 0.810D+00
 Gap=     0.248 Goal=   None    Shift=    0.000
 RMSDP=5.48D-05 MaxDP=1.70D-03 DE=-2.03D-03 OVMax= 5.68D-03

 Cycle   6  Pass 1  IDiag  1:
 RMSU=  3.53D-05    CP:  9.90D-01  1.35D+00  9.31D-01  8.34D-01  1.08D+00
 E= -1028.80584530511     Delta-E=       -0.000125843316 Rises=F Damp=F
 DIIS: error= 2.02D-04 at cycle   6 NSaved=   6.
 NSaved= 6 IEnMin= 6 EnMin= -1028.80584530511     IErMin= 6 ErrMin= 2.02D-04
 ErrMax= 2.02D-04  0.00D+00 EMaxC= 1.00D-01 BMatC= 1.12D-05 BMatP= 5.79D-05
 IDIUse=3 WtCom= 9.98D-01 WtEn= 2.02D-03
 Coeff-Com:  0.153D-01-0.317D-01-0.602D-01-0.628D-01 0.238D+00 0.902D+00
 Coeff-En:   0.000D+00 0.000D+00 0.000D+00 0.000D+00 0.000D+00 0.100D+01
 Coeff:      0.152D-01-0.316D-01-0.601D-01-0.627D-01 0.237D+00 0.902D+00
 Gap=     0.248 Goal=   None    Shift=    0.000
 RMSDP=3.26D-05 MaxDP=1.52D-03 DE=-1.26D-04 OVMax= 3.39D-03

 Cycle   7  Pass 1  IDiag  1:
 RMSU=  1.68D-05    CP:  9.90D-01  1.35D+00  9.42D-01  8.65D-01  1.25D+00
                    CP:  1.28D+00
 E= -1028.80587826372     Delta-E=       -0.000032958607 Rises=F Damp=F
 DIIS: error= 1.17D-04 at cycle   7 NSaved=   7.
 NSaved= 7 IEnMin= 7 EnMin= -1028.80587826372     IErMin= 7 ErrMin= 1.17D-04
 ErrMax= 1.17D-04  0.00D+00 EMaxC= 1.00D-01 BMatC= 2.42D-06 BMatP= 1.12D-05
 IDIUse=3 WtCom= 9.99D-01 WtEn= 1.17D-03
 Coeff-Com:  0.692D-02-0.132D-01-0.305D-01-0.508D-01-0.812D-02 0.388D+00
 Coeff-Com:  0.708D+00
 Coeff-En:   0.000D+00 0.000D+00 0.000D+00 0.000D+00 0.000D+00 0.000D+00
 Coeff-En:   0.100D+01
 Coeff:      0.691D-02-0.132D-01-0.305D-01-0.508D-01-0.811D-02 0.387D+00
 Coeff:      0.708D+00
 Gap=     0.249 Goal=   None    Shift=    0.000
 RMSDP=1.19D-05 MaxDP=4.75D-04 DE=-3.30D-05 OVMax= 1.60D-03

 Cycle   8  Pass 1  IDiag  1:
 RMSU=  6.96D-06    CP:  9.90D-01  1.35D+00  9.44D-01  8.71D-01  1.29D+00
                    CP:  1.48D+00  1.15D+00
 E= -1028.80588389426     Delta-E=       -0.000005630547 Rises=F Damp=F
 DIIS: error= 4.73D-05 at cycle   8 NSaved=   8.
 NSaved= 8 IEnMin= 8 EnMin= -1028.80588389426     IErMin= 8 ErrMin= 4.73D-05
 ErrMax= 4.73D-05  0.00D+00 EMaxC= 1.00D-01 BMatC= 4.26D-07 BMatP= 2.42D-06
 IDIUse=1 WtCom= 1.00D+00 WtEn= 0.00D+00
 Coeff-Com: -0.138D-02 0.307D-02 0.519D-02 0.114D-02-0.404D-01-0.916D-01
 Coeff-Com:  0.225D+00 0.899D+00
 Coeff:     -0.138D-02 0.307D-02 0.519D-02 0.114D-02-0.404D-01-0.916D-01
 Coeff:      0.225D+00 0.899D+00
 Gap=     0.249 Goal=   None    Shift=    0.000
 RMSDP=6.53D-06 MaxDP=1.66D-04 DE=-5.63D-06 OVMax= 9.80D-04

 Cycle   9  Pass 1  IDiag  1:
 RMSU=  2.85D-06    CP:  9.90D-01  1.35D+00  9.43D-01  8.71D-01  1.31D+00
                    CP:  1.58D+00  1.40D+00  1.22D+00
 E= -1028.80588527295     Delta-E=       -0.000001378689 Rises=F Damp=F
 DIIS: error= 2.46D-05 at cycle   9 NSaved=   9.
 NSaved= 9 IEnMin= 9 EnMin= -1028.80588527295     IErMin= 9 ErrMin= 2.46D-05
 ErrMax= 2.46D-05  0.00D+00 EMaxC= 1.00D-01 BMatC= 6.53D-08 BMatP= 4.26D-07
 IDIUse=1 WtCom= 1.00D+00 WtEn= 0.00D+00
 Coeff-Com: -0.124D-02 0.246D-02 0.550D-02 0.707D-02-0.940D-02-0.931D-01
 Coeff-Com: -0.267D-01 0.248D+00 0.867D+00
 Coeff:     -0.124D-02 0.246D-02 0.550D-02 0.707D-02-0.940D-02-0.931D-01
 Coeff:     -0.267D-01 0.248D+00 0.867D+00
 Gap=     0.249 Goal=   None    Shift=    0.000
 RMSDP=3.18D-06 MaxDP=9.19D-05 DE=-1.38D-06 OVMax= 5.61D-04

 Cycle  10  Pass 1  IDiag  1:
 RMSU=  1.41D-06    CP:  9.90D-01  1.35D+00  9.43D-01  8.71D-01  1.31D+00
                    CP:  1.62D+00  1.50D+00  1.42D+00  1.27D+00
 E= -1028.80588558306     Delta-E=       -0.000000310108 Rises=F Damp=F
 DIIS: error= 1.14D-05 at cycle  10 NSaved=  10.
 NSaved=10 IEnMin=10 EnMin= -1028.80588558306     IErMin=10 ErrMin= 1.14D-05
 ErrMax= 1.14D-05  0.00D+00 EMaxC= 1.00D-01 BMatC= 2.50D-08 BMatP= 6.53D-08
 IDIUse=1 WtCom= 1.00D+00 WtEn= 0.00D+00
 Coeff-Com: -0.158D-03 0.243D-03 0.105D-02 0.260D-02 0.608D-02-0.204D-01
 Coeff-Com: -0.557D-01-0.132D+00 0.385D+00 0.813D+00
 Coeff:     -0.158D-03 0.243D-03 0.105D-02 0.260D-02 0.608D-02-0.204D-01
 Coeff:     -0.557D-01-0.132D+00 0.385D+00 0.813D+00
 Gap=     0.249 Goal=   None    Shift=    0.000
 RMSDP=1.79D-06 MaxDP=4.08D-05 DE=-3.10D-07 OVMax= 2.87D-04

 Cycle  11  Pass 1  IDiag  1:
 RMSU=  6.41D-07    CP:  9.90D-01  1.35D+00  9.43D-01  8.71D-01  1.31D+00
                    CP:  1.64D+00  1.56D+00  1.52D+00  1.63D+00  1.14D+00
 E= -1028.80588566677     Delta-E=       -0.000000083708 Rises=F Damp=F
 DIIS: error= 5.33D-06 at cycle  11 NSaved=  11.
 NSaved=11 IEnMin=11 EnMin= -1028.80588566677     IErMin=11 ErrMin= 5.33D-06
 ErrMax= 5.33D-06  0.00D+00 EMaxC= 1.00D-01 BMatC= 3.27D-09 BMatP= 2.50D-08
 IDIUse=1 WtCom= 1.00D+00 WtEn= 0.00D+00
 Coeff-Com:  0.284D-03-0.586D-03-0.104D-02-0.960D-03 0.522D-02 0.127D-01
 Coeff-Com: -0.807D-02-0.103D+00-0.279D-01 0.230D+00 0.893D+00
 Coeff:      0.284D-03-0.586D-03-0.104D-02-0.960D-03 0.522D-02 0.127D-01
 Coeff:     -0.807D-02-0.103D+00-0.279D-01 0.230D+00 0.893D+00
 Gap=     0.249 Goal=   None    Shift=    0.000
 RMSDP=7.17D-07 MaxDP=2.11D-05 DE=-8.37D-08 OVMax= 1.37D-04

 Cycle  12  Pass 1  IDiag  1:
 RMSU=  2.42D-07    CP:  9.90D-01  1.35D+00  9.43D-01  8.72D-01  1.31D+00
                    CP:  1.64D+00  1.57D+00  1.55D+00  1.78D+00  1.39D+00
                    CP:  1.16D+00
 E= -1028.80588568118     Delta-E=       -0.000000014416 Rises=F Damp=F
 DIIS: error= 1.34D-06 at cycle  12 NSaved=  12.
 NSaved=12 IEnMin=12 EnMin= -1028.80588568118     IErMin=12 ErrMin= 1.34D-06
 ErrMax= 1.34D-06  0.00D+00 EMaxC= 1.00D-01 BMatC= 8.86D-10 BMatP= 3.27D-09
 IDIUse=1 WtCom= 1.00D+00 WtEn= 0.00D+00
 Coeff-Com:  0.142D-03-0.279D-03-0.603D-03-0.937D-03 0.123D-02 0.895D-02
 Coeff-Com:  0.820D-02-0.199D-01-0.866D-01-0.988D-01 0.353D+00 0.835D+00
 Coeff:      0.142D-03-0.279D-03-0.603D-03-0.937D-03 0.123D-02 0.895D-02
 Coeff:      0.820D-02-0.199D-01-0.866D-01-0.988D-01 0.353D+00 0.835D+00
 Gap=     0.249 Goal=   None    Shift=    0.000
 RMSDP=3.66D-07 MaxDP=8.36D-06 DE=-1.44D-08 OVMax= 5.74D-05

 Cycle  13  Pass 1  IDiag  1:
 RMSU=  9.52D-08    CP:  9.90D-01  1.35D+00  9.43D-01  8.72D-01  1.32D+00
                    CP:  1.64D+00  1.58D+00  1.57D+00  1.86D+00  1.49D+00
                    CP:  1.41D+00  1.11D+00
 E= -1028.80588568387     Delta-E=       -0.000000002688 Rises=F Damp=F
 DIIS: error= 5.36D-07 at cycle  13 NSaved=  13.
 NSaved=13 IEnMin=13 EnMin= -1028.80588568387     IErMin=13 ErrMin= 5.36D-07
 ErrMax= 5.36D-07  0.00D+00 EMaxC= 1.00D-01 BMatC= 6.16D-11 BMatP= 8.86D-10
 IDIUse=1 WtCom= 1.00D+00 WtEn= 0.00D+00
 Coeff-Com:  0.119D-05 0.107D-05-0.237D-04-0.144D-03-0.180D-03 0.846D-03
 Coeff-Com:  0.332D-02 0.691D-02-0.163D-01-0.594D-01-0.146D-01 0.222D+00
 Coeff-Com:  0.857D+00
 Coeff:      0.119D-05 0.107D-05-0.237D-04-0.144D-03-0.180D-03 0.846D-03
 Coeff:      0.332D-02 0.691D-02-0.163D-01-0.594D-01-0.146D-01 0.222D+00
 Coeff:      0.857D+00
 Gap=     0.249 Goal=   None    Shift=    0.000
 RMSDP=8.25D-08 MaxDP=2.32D-06 DE=-2.69D-09 OVMax= 1.18D-05

 Cycle  14  Pass 1  IDiag  1:
 RMSU=  3.91D-08    CP:  9.90D-01  1.35D+00  9.43D-01  8.72D-01  1.32D+00
                    CP:  1.64D+00  1.58D+00  1.57D+00  1.87D+00  1.51D+00
                    CP:  1.46D+00  1.24D+00  1.08D+00
 E= -1028.80588568404     Delta-E=       -0.000000000166 Rises=F Damp=F
 DIIS: error= 2.40D-07 at cycle  14 NSaved=  14.
 NSaved=14 IEnMin=14 EnMin= -1028.80588568404     IErMin=14 ErrMin= 2.40D-07
 ErrMax= 2.40D-07  0.00D+00 EMaxC= 1.00D-01 BMatC= 1.53D-11 BMatP= 6.16D-11
 IDIUse=1 WtCom= 1.00D+00 WtEn= 0.00D+00
 Coeff-Com: -0.145D-04 0.300D-04 0.542D-04 0.315D-04-0.201D-03-0.541D-03
 Coeff-Com:  0.692D-03 0.528D-02 0.232D-02-0.168D-01-0.442D-01 0.552D-02
 Coeff-Com:  0.403D+00 0.645D+00
 Coeff:     -0.145D-04 0.300D-04 0.542D-04 0.315D-04-0.201D-03-0.541D-03
 Coeff:      0.692D-03 0.528D-02 0.232D-02-0.168D-01-0.442D-01 0.552D-02
 Coeff:      0.403D+00 0.645D+00
 Gap=     0.249 Goal=   None    Shift=    0.000
 RMSDP=2.26D-08 MaxDP=5.95D-07 DE=-1.66D-10 OVMax= 1.92D-06

 Cycle  15  Pass 1  IDiag  1:
 RMSU=  1.44D-08    CP:  9.90D-01  1.35D+00  9.43D-01  8.72D-01  1.32D+00
                    CP:  1.64D+00  1.58D+00  1.57D+00  1.88D+00  1.52D+00
                    CP:  1.47D+00  1.27D+00  1.20D+00  9.18D-01
 E= -1028.80588568406     Delta-E=       -0.000000000025 Rises=F Damp=F
 DIIS: error= 6.60D-08 at cycle  15 NSaved=  15.
 NSaved=15 IEnMin=15 EnMin= -1028.80588568406     IErMin=15 ErrMin= 6.60D-08
 ErrMax= 6.60D-08  0.00D+00 EMaxC= 1.00D-01 BMatC= 1.04D-12 BMatP= 1.53D-11
 IDIUse=1 WtCom= 1.00D+00 WtEn= 0.00D+00
 Coeff-Com: -0.398D-05 0.752D-05 0.195D-04 0.337D-04-0.290D-04-0.342D-03
 Coeff-Com: -0.479D-03 0.533D-04 0.380D-02 0.680D-02-0.788D-02-0.412D-01
 Coeff-Com: -0.365D-01 0.146D+00 0.930D+00
 Coeff:     -0.398D-05 0.752D-05 0.195D-04 0.337D-04-0.290D-04-0.342D-03
 Coeff:     -0.479D-03 0.533D-04 0.380D-02 0.680D-02-0.788D-02-0.412D-01
 Coeff:     -0.365D-01 0.146D+00 0.930D+00
 Gap=     0.249 Goal=   None    Shift=    0.000
 RMSDP=9.86D-09 MaxDP=2.20D-07 DE=-2.50D-11 OVMax= 1.11D-06

 Error on total polarization charges =  0.00866
 SCF Done:  E(RwB97XD) =  -1028.80588568     A.U. after   15 cycles
            NFock= 15  Conv=0.99D-08     -V/T= 2.0051
 KE= 1.023595855484D+03 PE=-4.602017309281D+03 EE= 1.454563279964D+03
 Leave Link  502 at Mon Jul 13 15:17:00 2020, MaxMem=  7784628224 cpu:             819.8 elap:              82.7
 (Enter /gpfs/loomis/apps/avx/software/Gaussian/16-C.01_AVX/g16/l801.exe)
 DoSCS=F DFT=T ScalE2(SS,OS)=  1.000000  1.000000
 ExpMin= 1.22D-01 ExpMax= 1.11D+05 ExpMxC= 1.07D+03 IAcc=3 IRadAn=         5 AccDes= 0.00D+00
 HarFok:  IExCor=  205 AccDes= 0.00D+00 IRadAn=         5 IDoV=-2 UseB2=F ITyADJ=14
 ICtDFT= 12500011 ScaDFX=  1.000000  1.000000  1.000000  1.000000
 Largest valence mixing into a core orbital is  9.59D-05
 Largest core mixing into a valence orbital is  2.98D-05
 Range of M.O.s used for correlation:    21   273
 NBasis=   273 NAE=    59 NBE=    59 NFC=    20 NFV=     0
 NROrb=    253 NOA=    39 NOB=    39 NVA=   214 NVB=   214

 **** Warning!!: The largest alpha MO coefficient is  0.10087843D+02

 Leave Link  801 at Mon Jul 13 15:17:00 2020, MaxMem=  7784628224 cpu:               0.9 elap:               0.1
 (Enter /gpfs/loomis/apps/avx/software/Gaussian/16-C.01_AVX/g16/l914.exe)
 RHF ground state
 Keep R1, R2, and R3 ints in memory in canonical form, NReq=4262515490.
 FoFCou: FMM=F IPFlag=           0 FMFlag=           0 FMFlg1=           0
         NFxFlg=           0 DoJE=F BraDBF=F KetDBF=F FulRan=T
         wScrn=  0.000000 ICntrl=       600 IOpCl=  0 I1Cent=           0 NGrid=           0
         NMat0=    1 NMatS0=  37401 NMatT0=    0 NMatD0=    1 NMtDS0=    0 NMtDT0=    0
 Symmetry not used in FoFCou.
 Two-electron integral symmetry not used.
 MDV=  7784628224 DFT=T DoStab=F Mixed=T DoRPA=T DoScal=F NonHer=T
 NEqPCM:  Using equilibrium solvation (IEInf=0, Eps=   2.2280, EpsInf=   2.1319)
 Making orbital integer symmetry assigments:
    12 initial guesses have been made.
 Convergence on wavefunction:    0.000001000000000
 Davidson Disk Diagonalization:  ConvIn= 1.00D-06 SkipCon=T Conv= 1.00D-06.
 Max sub-space:  2000 roots to seek:    12 dimension of matrix:        16692
 Iteration     1 Dimension    12 NMult     0 NNew     12
 CISAX will form    12 AO SS matrices at one time.
 NMat=    12 NSing=    12 JSym2X= 0.
 New state      2 was old state      5
 New state      3 was old state      2
 Excitation Energies [eV] at current iteration:
 Root      1 :     3.645871198446485
 Root      2 :     4.439992298840490
 Root      3 :     4.899763520700243
 Root      4 :     5.180049826427608
 Root      5 :     5.580279473091314
 Root      6 :     5.927461538833283
 Root      7 :     6.208336151807520
 Root      8 :     6.324897108003693
 Root      9 :     6.669167130470138
 Root     10 :     6.884249972878503
 Root     11 :     7.129081514801917
 Root     12 :     7.436909746844592
 Iteration     2 Dimension    18 NMult    12 NNew      6
 CISAX will form     6 AO SS matrices at one time.
 NMat=     6 NSing=     6 JSym2X= 0.
 Root      1 not converged, maximum delta is    0.050129305186594
 Root      2 not converged, maximum delta is    0.091594411057645
 Root      3 not converged, maximum delta is    0.074140207380470
 Excitation Energies [eV] at current iteration:
 Root      1 :     3.145019994607439   Change is   -0.500851203839046
 Root      2 :     4.229121047093802   Change is   -0.210871251746689
 Root      3 :     4.386354691750035   Change is   -0.513408828950209
 Iteration     3 Dimension    24 NMult    18 NNew      6
 CISAX will form     6 AO SS matrices at one time.
 NMat=     6 NSing=     6 JSym2X= 0.
 Root      1 not converged, maximum delta is    0.022308049859749
 Root      2 not converged, maximum delta is    0.032174384117934
 Root      3 not converged, maximum delta is    0.019506643352302
 Excitation Energies [eV] at current iteration:
 Root      1 :     3.106382811427333   Change is   -0.038637183180105
 Root      2 :     4.209747938672818   Change is   -0.019373108420984
 Root      3 :     4.359185386858766   Change is   -0.027169304891268
 Iteration     4 Dimension    30 NMult    24 NNew      6
 CISAX will form     6 AO SS matrices at one time.
 NMat=     6 NSing=     6 JSym2X= 0.
 Root      1 not converged, maximum delta is    0.008118408170585
 Root      2 not converged, maximum delta is    0.010012318282809
 Root      3 not converged, maximum delta is    0.008998624624259
 Excitation Energies [eV] at current iteration:
 Root      1 :     3.100525966425652   Change is   -0.005856845001681
 Root      2 :     4.207989836716390   Change is   -0.001758101956428
 Root      3 :     4.354043389183612   Change is   -0.005141997675153
 Iteration     5 Dimension    36 NMult    30 NNew      6
 CISAX will form     6 AO SS matrices at one time.
 NMat=     6 NSing=     6 JSym2X= 0.
 Root      1 not converged, maximum delta is    0.002358830262725
 Root      2 not converged, maximum delta is    0.001934796545986
 Root      3 not converged, maximum delta is    0.002736996802018
 Excitation Energies [eV] at current iteration:
 Root      1 :     3.099871682880671   Change is   -0.000654283544981
 Root      2 :     4.207835258513505   Change is   -0.000154578202884
 Root      3 :     4.353518620380071   Change is   -0.000524768803542
 Iteration     6 Dimension    42 NMult    36 NNew      6
 CISAX will form     6 AO SS matrices at one time.
 NMat=     6 NSing=     6 JSym2X= 0.
 Root      1 not converged, maximum delta is    0.000310632960543
 Root      2 not converged, maximum delta is    0.000277360915068
 Root      3 not converged, maximum delta is    0.000974374040820
 Excitation Energies [eV] at current iteration:
 Root      1 :     3.099828109242604   Change is   -0.000043573638068
 Root      2 :     4.207825963500392   Change is   -0.000009295013113
 Root      3 :     4.353457399441824   Change is   -0.000061220938247
 Iteration     7 Dimension    48 NMult    42 NNew      6
 CISAX will form     6 AO SS matrices at one time.
 NMat=     6 NSing=     6 JSym2X= 0.
 Root      1 not converged, maximum delta is    0.000090742853602
 Root      2 not converged, maximum delta is    0.000092261176575
 Root      3 not converged, maximum delta is    0.000472950065841
 Excitation Energies [eV] at current iteration:
 Root      1 :     3.099825042630572   Change is   -0.000003066612031
 Root      2 :     4.207825377143886   Change is   -0.000000586356505
 Root      3 :     4.353448628572140   Change is   -0.000008770869684
 Iteration     8 Dimension    54 NMult    48 NNew      6
 CISAX will form     6 AO SS matrices at one time.
 NMat=     6 NSing=     6 JSym2X= 0.
 Root      1 not converged, maximum delta is    0.000028417626128
 Root      2 not converged, maximum delta is    0.000033433836752
 Root      3 not converged, maximum delta is    0.000171791394310
 Excitation Energies [eV] at current iteration:
 Root      1 :     3.099824856430271   Change is   -0.000000186200302
 Root      2 :     4.207825321830311   Change is   -0.000000055313575
 Root      3 :     4.353447744835492   Change is   -0.000000883736648
 Iteration     9 Dimension    60 NMult    54 NNew      6
 CISAX will form     6 AO SS matrices at one time.
 NMat=     6 NSing=     6 JSym2X= 0.
 Root      1 not converged, maximum delta is    0.000005666832187
 Root      2 not converged, maximum delta is    0.000009956796594
 Root      3 not converged, maximum delta is    0.000089559825677
 Excitation Energies [eV] at current iteration:
 Root      1 :     3.099824846378164   Change is   -0.000000010052107
 Root      2 :     4.207825317428218   Change is   -0.000000004402094
 Root      3 :     4.353447627616985   Change is   -0.000000117218507
 Iteration    10 Dimension    66 NMult    60 NNew      6
 CISAX will form     6 AO SS matrices at one time.
 NMat=     6 NSing=     6 JSym2X= 0.
 Root      1 not converged, maximum delta is    0.000001378889946
 Root      2 not converged, maximum delta is    0.000004922214401
 Root      3 not converged, maximum delta is    0.000040695165945
 Excitation Energies [eV] at current iteration:
 Root      1 :     3.099824845777246   Change is   -0.000000000600918
 Root      2 :     4.207825317000400   Change is   -0.000000000427818
 Root      3 :     4.353447605042872   Change is   -0.000000022574113
 Iteration    11 Dimension    72 NMult    66 NNew      6
 CISAX will form     6 AO SS matrices at one time.
 NMat=     6 NSing=     6 JSym2X= 0.
 Root      1 has converged.
 Root      2 not converged, maximum delta is    0.000001779499388
 Root      3 not converged, maximum delta is    0.000008632693380
 Excitation Energies [eV] at current iteration:
 Root      1 :     3.099824845737227   Change is   -0.000000000040019
 Root      2 :     4.207825316936476   Change is   -0.000000000063924
 Root      3 :     4.353447602362914   Change is   -0.000000002679958
 Iteration    12 Dimension    76 NMult    72 NNew      4
 CISAX will form     4 AO SS matrices at one time.
 NMat=     4 NSing=     4 JSym2X= 0.
 Root      1 has converged.
 Root      2 has converged.
 Root      3 not converged, maximum delta is    0.000001095663188
 Excitation Energies [eV] at current iteration:
 Root      1 :     3.099824845736140   Change is   -0.000000000001087
 Root      2 :     4.207825316928680   Change is   -0.000000000007795
 Root      3 :     4.353447602182579   Change is   -0.000000000180335
 Iteration    13 Dimension    78 NMult    76 NNew      2
 CISAX will form     2 AO SS matrices at one time.
 NMat=     2 NSing=     2 JSym2X= 0.
 Root      1 has converged.
 Root      2 has converged.
 Root      3 has converged.
 Excitation Energies [eV] at current iteration:
 Root      1 :     3.099824845736113   Change is   -0.000000000000026
 Root      2 :     4.207825316928641   Change is   -0.000000000000039
 Root      3 :     4.353447602170833   Change is   -0.000000000011746
 Convergence achieved on expansion vectors.
 ***********************************************************************
 Excited states from <AA,BB:AA,BB> singles matrix:
 ***********************************************************************
 
 1PDM for each excited state written to RWF  633
 Ground to excited state transition densities written to RWF  633
 Ground to excited state transition electric dipole moments (Au):
       state          X           Y           Z        Dip. S.      Osc.
         1         1.2085     -2.1478     -0.0000      6.0734      0.4612
         2        -0.0000      0.0000      0.0055      0.0000      0.0000
         3        -1.7539      0.9289      0.0000      3.9392      0.4201
 Ground to excited state transition velocity dipole moments (Au):
       state          X           Y           Z        Dip. S.      Osc.
         1        -0.1323      0.2454      0.0000      0.0777      0.4549
         2         0.0000     -0.0000     -0.0013      0.0000      0.0000
         3         0.2753     -0.1385     -0.0000      0.0950      0.3958
 Ground to excited state transition magnetic dipole moments (Au):
       state          X           Y           Z
         1         0.0000      0.0000     -1.1215
         2         0.1274      0.0256     -0.0000
         3        -0.0000      0.0000     -0.9882
 Ground to excited state transition velocity quadrupole moments (Au):
       state          XX          YY          ZZ          XY          XZ          YZ
         1        -0.0896      0.6000     -0.0128     -0.2261     -0.0000      0.0000
         2        -0.0000     -0.0000      0.0000      0.0000     -0.0116     -0.0011
         3        -0.3113      0.5152     -0.0027      0.0112     -0.0000      0.0000
 <0|del|b> * <b|rxdel|0> + <0|del|b> * <b|delr+rdel|0>
 Rotatory Strengths (R) in cgs (10**-40 erg-esu-cm/Gauss)
       state          XX          YY          ZZ    R(velocity)    E-M Angle
         1         0.0161     -0.0206      0.0226      0.0061       90.00
         2        -0.0005      0.0016      0.0014      0.0008       90.00
         3        -0.0040      0.0011     -0.0079     -0.0036       90.00
 1/2[<0|r|b>*<b|rxdel|0> + (<0|rxdel|b>*<b|r|0>)*]
 Rotatory Strengths (R) in cgs (10**-40 erg-esu-cm/Gauss)
       state          XX          YY          ZZ     R(length)
         1        -0.0089      0.0535     -0.0263      0.0061
         2         0.0031     -0.0007      0.0001      0.0008
         3        -0.0046     -0.0085      0.0025     -0.0035
  1/2[<0|del|b>*<b|r|0> + (<0|r|b>*<b|del|0>)*] (Au)
       state          X           Y           Z        Dip. S.   Osc.(frdel)
         1        -0.1599     -0.5271     -0.0000      0.6870      0.4580
         2        -0.0000     -0.0000     -0.0000      0.0000      0.0000
         3        -0.4829     -0.1286     -0.0000      0.6116      0.4077

 Excitation energies and oscillator strengths:
 
 Excited state symmetry could not be determined.
 Excited State   1:      Singlet-?Sym    3.0998 eV  399.97 nm  f=0.4612  <S**2>=0.000
      59 -> 60         0.69456
 This state for optimization and/or second-order correction.
 Total Energy, E(TD-HF/TD-DFT) =  -1028.69196922    
 Copying the excited state density for this state as the 1-particle RhoCI density.
 
 Excited state symmetry could not be determined.
 Excited State   2:      Singlet-?Sym    4.2078 eV  294.65 nm  f=0.0000  <S**2>=0.000
      56 -> 60         0.68632
      56 -> 62         0.10434
      56 -> 64        -0.11455
 
 Excited state symmetry could not be determined.
 Excited State   3:      Singlet-?Sym    4.3534 eV  284.80 nm  f=0.4201  <S**2>=0.000
      58 -> 60         0.67444
 SavETr:  write IOETrn=   770 NScale= 10 NData=  16 NLR=1 NState=    3 LETran=      64.
 The selected state is a singlet.
 CISGrd: IGrad=2 NXY=2 DFT=T
 CISAX will form     1 AO SS matrices at one time.
 NMat=     1 NSing=     1 JSym2X= 0.
 GePol: Maximum number of non-zero 1st derivatives   =     271
 Leave Link  914 at Mon Jul 13 15:20:00 2020, MaxMem=  7784628224 cpu:            1772.4 elap:             180.1
 (Enter /gpfs/loomis/apps/avx/software/Gaussian/16-C.01_AVX/g16/l1002.exe)
 Minotr:  Closed shell wavefunction.
          Computing CIS/TDA/TD derivatives.
          Using Z-Vector for PSCF gradient.
          Skipping F1 and S1 gradient terms here.
          IDoAtm=1111111111111111111111111
 NEqPCM:  Using equilibrium solvation (IEInf=0, Eps=   2.2280, EpsInf=   2.1319)
          Frozen-core window.
          Direct CPHF calculation.
          Differentiating once with respect to electric field.
                with respect to dipole field.
          Differentiating once with respect to nuclear coordinates.
          Requested convergence is 1.0D-10 RMS, and 1.0D-09 maximum.
          NewPWx=F KeepS1=T KeepF1=T KeepIn=T MapXYZ=F SortEE=F KeepMc=T.
 Keep R1 ints in memory in canonical form, NReq=1421563548.
 FoFCou: FMM=F IPFlag=           0 FMFlag=           0 FMFlg1=           0
         NFxFlg=           0 DoJE=F BraDBF=F KetDBF=F FulRan=T
         wScrn=  0.000000 ICntrl=       600 IOpCl=  0 I1Cent=           0 NGrid=           0
         NMat0=    1 NMatS0=  37401 NMatT0=    0 NMatD0=    1 NMtDS0=    0 NMtDT0=    0
 Symmetry not used in FoFCou.
 Two-electron integral symmetry not used.
          MDV=    7784628224 using IRadAn=       5.
          Solving linear equations separately, MaxMat=       0.
          There are     1 degrees of freedom in the 1st order CPHF.  IDoFFX=0 NUNeed=     1.
 LinEq1:  Iter=  0 NonCon=     1 RMS=6.06D-03 Max=3.94D-01 NDo=     1
 AX will form     1 AO Fock derivatives at one time.
 LinEq1:  Iter=  1 NonCon=     1 RMS=2.70D-03 Max=1.47D-01 NDo=     1
 LinEq1:  Iter=  2 NonCon=     1 RMS=1.65D-03 Max=5.32D-02 NDo=     1
 LinEq1:  Iter=  3 NonCon=     1 RMS=6.40D-04 Max=1.48D-02 NDo=     1
 LinEq1:  Iter=  4 NonCon=     1 RMS=3.65D-04 Max=1.07D-02 NDo=     1
 LinEq1:  Iter=  5 NonCon=     1 RMS=1.80D-04 Max=6.64D-03 NDo=     1
 LinEq1:  Iter=  6 NonCon=     1 RMS=7.67D-05 Max=2.67D-03 NDo=     1
 LinEq1:  Iter=  7 NonCon=     1 RMS=4.08D-05 Max=1.54D-03 NDo=     1
 LinEq1:  Iter=  8 NonCon=     1 RMS=1.56D-05 Max=3.48D-04 NDo=     1
 LinEq1:  Iter=  9 NonCon=     1 RMS=8.09D-06 Max=2.06D-04 NDo=     1
 LinEq1:  Iter= 10 NonCon=     1 RMS=3.10D-06 Max=7.67D-05 NDo=     1
 LinEq1:  Iter= 11 NonCon=     1 RMS=1.55D-06 Max=5.45D-05 NDo=     1
 LinEq1:  Iter= 12 NonCon=     1 RMS=6.99D-07 Max=1.65D-05 NDo=     1
 LinEq1:  Iter= 13 NonCon=     1 RMS=3.38D-07 Max=1.01D-05 NDo=     1
 LinEq1:  Iter= 14 NonCon=     1 RMS=1.14D-07 Max=3.51D-06 NDo=     1
 LinEq1:  Iter= 15 NonCon=     1 RMS=5.68D-08 Max=1.56D-06 NDo=     1
 LinEq1:  Iter= 16 NonCon=     1 RMS=2.44D-08 Max=6.73D-07 NDo=     1
 LinEq1:  Iter= 17 NonCon=     1 RMS=1.33D-08 Max=4.99D-07 NDo=     1
 LinEq1:  Iter= 18 NonCon=     1 RMS=5.95D-09 Max=1.52D-07 NDo=     1
 LinEq1:  Iter= 19 NonCon=     1 RMS=3.08D-09 Max=8.77D-08 NDo=     1
 LinEq1:  Iter= 20 NonCon=     1 RMS=1.53D-09 Max=3.65D-08 NDo=     1
 LinEq1:  Iter= 21 NonCon=     1 RMS=4.16D-10 Max=1.11D-08 NDo=     1
 LinEq1:  Iter= 22 NonCon=     1 RMS=1.83D-10 Max=5.08D-09 NDo=     1
 LinEq1:  Iter= 23 NonCon=     1 RMS=7.74D-11 Max=1.90D-09 NDo=     1
 LinEq1:  Iter= 24 NonCon=     0 RMS=2.15D-11 Max=4.63D-10 NDo=     1
 Linear equations converged to 1.000D-10 1.000D-09 after    24 iterations.
 End of Minotr F.D. properties file   721 does not exist.
 End of Minotr F.D. properties file   722 does not exist.
 End of Minotr F.D. properties file   788 does not exist.
 Leave Link 1002 at Mon Jul 13 15:21:42 2020, MaxMem=  7784628224 cpu:             741.5 elap:             101.3
 (Enter /gpfs/loomis/apps/avx/software/Gaussian/16-C.01_AVX/g16/l601.exe)
 Copying SCF densities to generalized density rwf, IOpCl= 0 IROHF=0.

 **********************************************************************

            Population analysis using the SCF Density.

 **********************************************************************

 Alpha  occ. eigenvalues --  -89.10398 -19.23122 -14.49998 -10.41473 -10.36789
 Alpha  occ. eigenvalues --  -10.36595 -10.36051 -10.33239 -10.32412 -10.32224
 Alpha  occ. eigenvalues --  -10.32170 -10.31899 -10.31833 -10.31213 -10.29639
 Alpha  occ. eigenvalues --  -10.28993  -8.12278  -6.07157  -6.06796  -6.06303
 Alpha  occ. eigenvalues --   -1.13223  -1.09930  -0.97558  -0.94963  -0.92668
 Alpha  occ. eigenvalues --   -0.88993  -0.85810  -0.83847  -0.81680  -0.75923
 Alpha  occ. eigenvalues --   -0.71848  -0.71115  -0.68623  -0.67997  -0.64109
 Alpha  occ. eigenvalues --   -0.60767  -0.59361  -0.57288  -0.55259  -0.55094
 Alpha  occ. eigenvalues --   -0.54427  -0.53415  -0.52706  -0.51081  -0.49785
 Alpha  occ. eigenvalues --   -0.49116  -0.47854  -0.46524  -0.45268  -0.45092
 Alpha  occ. eigenvalues --   -0.44076  -0.43063  -0.41854  -0.40649  -0.36635
 Alpha  occ. eigenvalues --   -0.33725  -0.33144  -0.31234  -0.26793
 Alpha virt. eigenvalues --   -0.01924   0.04098   0.06361   0.06376   0.08497
 Alpha virt. eigenvalues --    0.10421   0.12550   0.14769   0.16004   0.17596
 Alpha virt. eigenvalues --    0.18905   0.20490   0.21324   0.21662   0.22721
 Alpha virt. eigenvalues --    0.23414   0.23858   0.24791   0.28638   0.29814
 Alpha virt. eigenvalues --    0.31596   0.33007   0.35389   0.35800   0.36551
 Alpha virt. eigenvalues --    0.38280   0.38690   0.40300   0.42914   0.43448
 Alpha virt. eigenvalues --    0.46336   0.48222   0.49594   0.51356   0.51506
 Alpha virt. eigenvalues --    0.52437   0.53064   0.53554   0.54701   0.55050
 Alpha virt. eigenvalues --    0.55707   0.56094   0.56253   0.56930   0.57928
 Alpha virt. eigenvalues --    0.58173   0.58331   0.59078   0.59487   0.60013
 Alpha virt. eigenvalues --    0.60120   0.61167   0.61933   0.62104   0.62883
 Alpha virt. eigenvalues --    0.64899   0.65396   0.66978   0.67899   0.68734
 Alpha virt. eigenvalues --    0.69984   0.70543   0.71871   0.72233   0.72702
 Alpha virt. eigenvalues --    0.72844   0.74700   0.75120   0.76275   0.76697
 Alpha virt. eigenvalues --    0.79016   0.79320   0.79764   0.81818   0.82209
 Alpha virt. eigenvalues --    0.82660   0.87302   0.89004   0.90796   0.92384
 Alpha virt. eigenvalues --    0.93821   0.94876   0.95770   0.96408   0.96651
 Alpha virt. eigenvalues --    0.98507   0.98879   0.99727   1.00153   1.01142
 Alpha virt. eigenvalues --    1.02463   1.04819   1.05445   1.06758   1.07362
 Alpha virt. eigenvalues --    1.07766   1.08263   1.10222   1.10545   1.11591
 Alpha virt. eigenvalues --    1.11668   1.12409   1.13128   1.14802   1.15326
 Alpha virt. eigenvalues --    1.16286   1.18446   1.20119   1.23264   1.24238
 Alpha virt. eigenvalues --    1.26822   1.26975   1.32508   1.32872   1.34484
 Alpha virt. eigenvalues --    1.34995   1.35721   1.38489   1.40834   1.45705
 Alpha virt. eigenvalues --    1.49021   1.49609   1.52279   1.53397   1.55086
 Alpha virt. eigenvalues --    1.56322   1.56623   1.57342   1.58592   1.59457
 Alpha virt. eigenvalues --    1.59488   1.60761   1.64692   1.65967   1.67818
 Alpha virt. eigenvalues --    1.68507   1.68899   1.69844   1.70227   1.70717
 Alpha virt. eigenvalues --    1.71750   1.72223   1.73047   1.73573   1.74840
 Alpha virt. eigenvalues --    1.77610   1.79423   1.80174   1.80753   1.82592
 Alpha virt. eigenvalues --    1.82745   1.83067   1.84580   1.85145   1.85276
 Alpha virt. eigenvalues --    1.87073   1.88775   1.89948   1.91360   1.91562
 Alpha virt. eigenvalues --    1.92355   1.92445   1.94392   1.94472   1.96499
 Alpha virt. eigenvalues --    1.97747   1.99986   2.01135   2.03494   2.03993
 Alpha virt. eigenvalues --    2.04699   2.07077   2.08859   2.10267   2.11934
 Alpha virt. eigenvalues --    2.14904   2.15922   2.16907   2.20769   2.23669
 Alpha virt. eigenvalues --    2.26758   2.30742   2.32503   2.38192   2.39587
 Alpha virt. eigenvalues --    2.41313   2.41955   2.43994   2.46155   2.46508
 Alpha virt. eigenvalues --    2.48250   2.50127   2.52237   2.53051   2.61122
 Alpha virt. eigenvalues --    2.61547   2.69771   2.73089   2.74359   2.79624
 Alpha virt. eigenvalues --    2.81257   2.82907   2.84949   2.88849   2.89195
 Alpha virt. eigenvalues --    2.92251   3.01227   3.12095   3.24375   3.40880
 Alpha virt. eigenvalues --    3.48339   3.56030   3.57106   3.81805
          Condensed to atoms (all electrons):
               1          2          3          4          5          6
     1  C    4.728858   0.481786   0.002012  -0.048812  -0.013291   0.522962
     2  C    0.481786   5.335198   0.324985  -0.056723  -0.062196  -0.012727
     3  C    0.002012   0.324985   4.785839   0.517348  -0.006393  -0.062532
     4  C   -0.048812  -0.056723   0.517348   4.781993   0.522556  -0.018129
     5  C   -0.013291  -0.062196  -0.006393   0.522556   4.719884   0.496206
     6  C    0.522962  -0.012727  -0.062532  -0.018129   0.496206   4.741635
     7  H    0.404106  -0.041310   0.008364  -0.000468   0.007994  -0.037153
     8  H   -0.000634   0.010508  -0.024934   0.392746  -0.041340   0.007292
     9  H    0.008367  -0.000375   0.008167  -0.038693   0.405289  -0.043487
    10  H   -0.041808   0.009521  -0.000625   0.008761  -0.043273   0.406647
    11  N    0.004728  -0.046426   0.409916  -0.046854   0.002816   0.000359
    12  S   -0.059410   0.337168  -0.117500   0.004690   0.000239   0.003303
    13  C   -0.000154   0.002496   0.011368  -0.000731   0.000009  -0.000001
    14  C   -0.000002   0.000033   0.000117   0.000005  -0.000000  -0.000000
    15  C    0.000000  -0.000312   0.000971   0.000108   0.000000   0.000000
    16  C    0.000000  -0.000001   0.000004  -0.000000   0.000000   0.000000
    17  H   -0.000002   0.000037  -0.000002  -0.000000   0.000000  -0.000000
    18  C    0.000000   0.000007  -0.000037  -0.000000  -0.000000   0.000000
    19  C   -0.000000   0.000000   0.000001  -0.000000   0.000000   0.000000
    20  H   -0.000000  -0.000000  -0.000000   0.000000  -0.000000  -0.000000
    21  H   -0.000000   0.000000   0.000001  -0.000000   0.000000   0.000000
    22  H    0.000000  -0.000000  -0.000000  -0.000000  -0.000000  -0.000000
    23  C    0.003339  -0.049950  -0.109257   0.002920   0.000176  -0.000169
    24  O    0.000002  -0.000157  -0.001170  -0.000047  -0.000001  -0.000000
    25  H    0.000051   0.006414  -0.022176  -0.004471  -0.000066  -0.000000
               7          8          9         10         11         12
     1  C    0.404106  -0.000634   0.008367  -0.041808   0.004728  -0.059410
     2  C   -0.041310   0.010508  -0.000375   0.009521  -0.046426   0.337168
     3  C    0.008364  -0.024934   0.008167  -0.000625   0.409916  -0.117500
     4  C   -0.000468   0.392746  -0.038693   0.008761  -0.046854   0.004690
     5  C    0.007994  -0.041340   0.405289  -0.043273   0.002816   0.000239
     6  C   -0.037153   0.007292  -0.043487   0.406647   0.000359   0.003303
     7  H    0.649955   0.000029  -0.000132  -0.011907  -0.000108  -0.005958
     8  H    0.000029   0.640646  -0.011311  -0.000127  -0.003804  -0.000224
     9  H   -0.000132  -0.011311   0.658263  -0.012072  -0.000118   0.000022
    10  H   -0.011907  -0.000127  -0.012072   0.658860   0.000002  -0.000123
    11  N   -0.000108  -0.003804  -0.000118   0.000002   6.279951  -0.056702
    12  S   -0.005958  -0.000224   0.000022  -0.000123  -0.056702  15.433112
    13  C    0.000006   0.000064  -0.000000  -0.000000  -0.028905  -0.059320
    14  C    0.000000   0.000001   0.000000  -0.000000   0.002892  -0.004404
    15  C   -0.000000  -0.000009   0.000000   0.000000  -0.003440   0.003179
    16  C   -0.000000  -0.000000  -0.000000   0.000000  -0.000098  -0.000076
    17  H    0.000000   0.000000  -0.000000  -0.000000   0.000223   0.004915
    18  C   -0.000000  -0.000000  -0.000000  -0.000000  -0.000545  -0.000078
    19  C    0.000000   0.000000  -0.000000   0.000000   0.000062   0.000017
    20  H   -0.000000  -0.000000   0.000000   0.000000   0.000001  -0.000001
    21  H   -0.000000   0.000000  -0.000000   0.000000   0.000030   0.000003
    22  H    0.000000  -0.000000  -0.000000  -0.000000  -0.000000  -0.000000
    23  C    0.000080  -0.000700   0.000007   0.000003   0.527851   0.324070
    24  O   -0.000000  -0.000326   0.000000  -0.000000  -0.086429  -0.000369
    25  H    0.000003   0.001382  -0.000010  -0.000000   0.261116   0.002771
              13         14         15         16         17         18
     1  C   -0.000154  -0.000002   0.000000   0.000000  -0.000002   0.000000
     2  C    0.002496   0.000033  -0.000312  -0.000001   0.000037   0.000007
     3  C    0.011368   0.000117   0.000971   0.000004  -0.000002  -0.000037
     4  C   -0.000731   0.000005   0.000108  -0.000000  -0.000000  -0.000000
     5  C    0.000009  -0.000000   0.000000   0.000000   0.000000  -0.000000
     6  C   -0.000001  -0.000000   0.000000   0.000000  -0.000000   0.000000
     7  H    0.000006   0.000000  -0.000000  -0.000000   0.000000  -0.000000
     8  H    0.000064   0.000001  -0.000009  -0.000000   0.000000  -0.000000
     9  H   -0.000000   0.000000   0.000000  -0.000000  -0.000000  -0.000000
    10  H   -0.000000  -0.000000   0.000000   0.000000  -0.000000  -0.000000
    11  N   -0.028905   0.002892  -0.003440  -0.000098   0.000223  -0.000545
    12  S   -0.059320  -0.004404   0.003179  -0.000076   0.004915  -0.000078
    13  C    5.393715   0.452249   0.233889  -0.007681  -0.041228  -0.039621
    14  C    0.452249   4.818519   0.008887   0.532615   0.401537  -0.056896
    15  C    0.233889   0.008887   4.745105  -0.059749   0.007215   0.499353
    16  C   -0.007681   0.532615  -0.059749   4.775072  -0.035189  -0.020506
    17  H   -0.041228   0.401537   0.007215  -0.035189   0.681191  -0.000821
    18  C   -0.039621  -0.056896   0.499353  -0.020506  -0.000821   4.830278
    19  C   -0.048337  -0.016897  -0.013122   0.480127   0.008415   0.508876
    20  H    0.008935  -0.036329  -0.000241   0.400627  -0.012622   0.008305
    21  H    0.013945  -0.000639  -0.022185   0.007484   0.000047   0.374451
    22  H   -0.001260   0.009029   0.008960  -0.045668  -0.000168  -0.039712
    23  C    0.342351  -0.093953  -0.080725   0.007081  -0.018851   0.007695
    24  O   -0.080464   0.005172   0.573495  -0.000045  -0.000066  -0.063001
    25  H   -0.025469  -0.000402  -0.027190   0.000013  -0.000033   0.004193
              19         20         21         22         23         24
     1  C   -0.000000  -0.000000  -0.000000   0.000000   0.003339   0.000002
     2  C    0.000000  -0.000000   0.000000  -0.000000  -0.049950  -0.000157
     3  C    0.000001  -0.000000   0.000001  -0.000000  -0.109257  -0.001170
     4  C   -0.000000   0.000000  -0.000000  -0.000000   0.002920  -0.000047
     5  C    0.000000  -0.000000   0.000000  -0.000000   0.000176  -0.000001
     6  C    0.000000  -0.000000   0.000000  -0.000000  -0.000169  -0.000000
     7  H    0.000000  -0.000000  -0.000000   0.000000   0.000080  -0.000000
     8  H    0.000000  -0.000000   0.000000  -0.000000  -0.000700  -0.000326
     9  H   -0.000000   0.000000  -0.000000  -0.000000   0.000007   0.000000
    10  H    0.000000   0.000000   0.000000  -0.000000   0.000003  -0.000000
    11  N    0.000062   0.000001   0.000030  -0.000000   0.527851  -0.086429
    12  S    0.000017  -0.000001   0.000003  -0.000000   0.324070  -0.000369
    13  C   -0.048337   0.008935   0.013945  -0.001260   0.342351  -0.080464
    14  C   -0.016897  -0.036329  -0.000639   0.009029  -0.093953   0.005172
    15  C   -0.013122  -0.000241  -0.022185   0.008960  -0.080725   0.573495
    16  C    0.480127   0.400627   0.007484  -0.045668   0.007081  -0.000045
    17  H    0.008415  -0.012622   0.000047  -0.000168  -0.018851  -0.000066
    18  C    0.508876   0.008305   0.374451  -0.039712   0.007695  -0.063001
    19  C    4.737594  -0.047425  -0.046836   0.404084   0.000289   0.004198
    20  H   -0.047425   0.685217  -0.000176  -0.012183  -0.000332   0.000001
    21  H   -0.046836  -0.000176   0.672351  -0.012155  -0.000408   0.005378
    22  H    0.404084  -0.012183  -0.012155   0.671102   0.000008  -0.000087
    23  C    0.000289  -0.000332  -0.000408   0.000008   5.082054  -0.010592
    24  O    0.004198   0.000001   0.005378  -0.000087  -0.010592   7.848929
    25  H   -0.000386  -0.000001   0.000011   0.000010   0.001348   0.183349
              25
     1  C    0.000051
     2  C    0.006414
     3  C   -0.022176
     4  C   -0.004471
     5  C   -0.000066
     6  C   -0.000000
     7  H    0.000003
     8  H    0.001382
     9  H   -0.000010
    10  H   -0.000000
    11  N    0.261116
    12  S    0.002771
    13  C   -0.025469
    14  C   -0.000402
    15  C   -0.027190
    16  C    0.000013
    17  H   -0.000033
    18  C    0.004193
    19  C   -0.000386
    20  H   -0.000001
    21  H    0.000011
    22  H    0.000010
    23  C    0.001348
    24  O    0.183349
    25  H    0.427676
 Mulliken charges:
               1
     1  C    0.007901
     2  C   -0.237978
     3  C    0.275536
     4  C   -0.016200
     5  C    0.011391
     6  C   -0.004206
     7  H    0.026501
     8  H    0.030741
     9  H    0.026082
    10  H    0.026140
    11  N   -0.216519
    12  S    0.190676
    13  C   -0.125854
    14  C   -0.021533
    15  C    0.125812
    16  C   -0.034010
    17  H    0.005400
    18  C   -0.011938
    19  C    0.029337
    20  H    0.006222
    21  H    0.008698
    22  H    0.018041
    23  C    0.065663
    24  O   -0.377772
    25  H    0.191868
 Sum of Mulliken charges =  -0.00000
 Mulliken charges with hydrogens summed into heavy atoms:
               1
     1  C    0.034402
[...]
 3172,0.00000003,0.01166894,-0.00168302,0.00000024,-0.00039003,0.008665
 45,0.00000025,-0.00320946,-0.00325260,-0.00000012,-0.00000550,0.000234
 93,-0.00000001,-0.00007060,-0.00011604,-0.00000003,-0.00012770,0.00012
 116,-0.00000002,-0.00004587,-0.00005228,0.00000002,0.01257030,-0.01967
 064,-0.00000029,0.00305481,-0.00448777,-0.00000010,0.06176246,0.014752
 87,-0.00000114,0.02908453,-0.23660378,-0.00000329,0.01353314,-0.007250
 76,-0.00000052,0.03109899,0.60863351,-0.00000001,-0.00000003,-0.000042
 76,-0.00000016,-0.00000010,-0.00008326,-0.00000019,0.00000033,-0.00033
 573,0.00000019,-0.00000003,-0.00021186,0.,0.00000014,-0.00001627,-0.00
 000005,-0.00000005,0.00000915,0.,0.,-0.00002482,0.,0.,-0.00000873,0.,0
 .,0.00001550,0.,0.,0.00003254,0.00000019,-0.00000036,0.00236629,0.0000
 0005,-0.00000007,-0.00012016,0.00000093,0.00000028,0.00167577,0.000002
 16,-0.00000445,-0.05251586,-0.00000006,-0.00000015,-0.00477022,-0.0000
 0595,0.00000693,0.12835320,0.00018206,0.00004713,0.,-0.00055822,0.0001
 6145,0.,0.00036683,-0.00011014,0.,-0.00003916,0.00007042,0.,0.00005397
 ,-0.00001379,0.,-0.00000680,-0.00004459,0.,-0.00001400,-0.00000309,0.,
 0.00002641,0.00000411,0.,0.00000781,-0.00000176,0.,0.00002634,-0.00000
 235,0.,0.00043181,0.00074909,0.00000002,-0.00069557,0.00134344,0.00000
 008,-0.00777929,-0.02891182,-0.00000039,-0.10944298,-0.11056182,-0.000
 00099,-0.00471229,0.00320117,-0.00000002,0.01100070,0.01812432,0.00000
 017,0.11320658,-0.00001419,-0.00003940,0.,-0.00009342,0.00028583,-0.00
 000001,0.00011153,0.00011642,0.,0.00001442,0.00000900,0.,0.00000598,0.
 00006082,0.,-0.00006916,-0.00001281,0.,-0.00000315,0.00001304,0.,0.000
 00475,-0.00000598,0.,-0.00000567,0.00000074,0.,-0.00000838,0.00000315,
 0.,0.00013382,0.00050697,0.00000005,-0.00040902,-0.00010951,0.,0.00186
 655,0.00074502,-0.00000002,-0.10872970,-0.29029529,-0.00000279,0.00092
 553,0.00160315,-0.00000011,-0.01392347,-0.01811304,-0.00000016,0.11627
 468,0.30657817,0.00000002,0.,-0.00001324,0.00000006,0.00000005,-0.0002
 0825,0.00000002,-0.00000015,0.00035442,-0.00000008,0.,0.00005791,0.,-0
 .00000004,0.00000921,0.,0.00000002,0.00000785,0.,0.,0.00001220,0.,0.,0
 .00001389,0.,0.,0.00000037,0.,0.,-0.00000804,-0.00000020,-0.00000005,-
 0.00195047,0.00000005,-0.00000004,0.00060839,0.00000032,-0.00000010,0.
 00529860,-0.00000073,-0.00000260,-0.03421267,0.00000003,0.00000012,0.0
 0852335,-0.00000037,-0.00000033,0.00282762,0.00000091,0.00000312,0.021
 49759,-0.00161641,0.00044733,-0.00000012,-0.00430893,-0.00435761,-0.00
 000019,-0.00673423,0.01268155,0.00000044,0.00665940,-0.00095128,0.0000
 0009,-0.00039380,0.00340217,0.00000008,0.00062643,-0.00167591,-0.00000
 006,-0.00012084,0.00010098,0.,0.00007138,-0.00001511,0.00000001,0.0000
 7522,0.00002900,0.,0.00008802,-0.00005498,0.00000002,0.01433290,0.0017
 5117,-0.00000081,0.00042347,-0.00437454,0.00000009,0.02563475,0.013643
 73,-0.00000026,-0.03170740,0.02641903,0.00000106,-0.14059187,0.0758119
 2,0.00000039,-0.02055752,-0.07793252,-0.00000024,-0.00072560,0.0002995
 3,-0.00000003,0.73180038,0.00067673,-0.00005304,0.00000007,0.00017989,
 0.00009713,0.,0.00123923,-0.00175319,-0.00000009,-0.00140627,0.0002218
 9,-0.00000002,0.00020043,-0.00062678,0.,-0.00031288,0.00021832,0.,0.00
 000929,0.00000109,0.,-0.00002747,-0.00000331,-0.00000001,-0.00001797,-
 0.00001028,0.,0.00000771,0.00001326,-0.00000001,-0.00038275,-0.0000350
 6,0.00000037,0.00118641,-0.00063886,0.,0.01134522,-0.03297596,-0.00000
 062,0.00607028,-0.00517815,-0.00000024,0.09298289,-0.26123892,-0.00000
 110,-0.03470314,0.00173048,0.00000039,-0.00005910,0.00071933,0.0000000
 7,0.04761824,0.69665470,0.00000006,-0.00000010,0.00019097,0.00000004,0
 .00000004,0.00062423,-0.00000025,-0.00000047,0.00151343,-0.00000015,0.
 00000003,-0.00032689,0.,-0.00000006,-0.00001992,-0.00000004,0.00000001
 ,-0.00011112,0.00000001,-0.00000001,0.00010536,0.,0.,0.00007196,0.,0.,
 0.00003459,0.,0.,-0.00007107,-0.00000070,-0.00000114,-0.00647289,0.000
 00006,0.00000018,0.00179047,-0.00000076,-0.00000023,0.01114199,0.00000
 132,-0.00000069,-0.00328630,0.00000072,-0.00000150,-0.06696133,-0.0000
 0011,0.00000195,0.00610491,0.00000007,0.00000001,-0.00134020,-0.000014
 76,0.00000025,0.10734430,0.00185281,0.00034067,0.00000010,0.00687424,0
 .00611700,0.00000037,0.01148760,-0.01792271,-0.00000022,-0.00998182,0.
 00141598,-0.00000019,0.00057585,-0.00590775,-0.00000017,0.00039581,0.0
 0267830,0.00000009,0.00008227,-0.00012386,0.,0.00000992,0.00005565,0.0
 0000001,-0.00004384,-0.00005541,0.,-0.00004632,0.00007299,-0.00000002,
 -0.01759752,0.01203934,0.00000010,-0.00022467,0.00435160,0.00000005,-0
 .02059989,-0.01712904,0.00000045,0.06404798,-0.01350109,-0.00000088,-0
 .05011509,0.02513293,0.00000251,-0.15247351,-0.01574050,0.00000051,-0.
 00193565,0.00450624,0.00000008,-0.36211010,-0.04987811,0.00000577,0.69
 249148,-0.00002623,0.00083863,0.00000005,0.00229904,0.00109150,0.00000
 005,0.00333541,-0.00324211,-0.00000006,-0.00297224,0.00049344,-0.00000
 003,0.00012050,-0.00238605,-0.00000007,0.00112927,0.00066028,0.0000000
 3,-0.00001838,-0.00004566,0.,0.00002741,0.00000120,0.,0.00004937,-0.00
 004652,0.,0.00002567,0.00002560,0.,0.00068183,0.00732171,0.00000057,-0
 .00165054,0.00069820,0.00000009,-0.02626632,-0.00675641,0.00000020,0.0
 3822310,-0.06150070,-0.00000145,0.01237104,0.02102854,0.00000009,-0.10
 672170,-0.28640773,-0.00000233,0.00350116,-0.00181488,-0.00000011,0.00
 473475,-0.12075160,-0.00000015,-0.05492156,0.69599236,-0.00000007,0.00
 000004,0.00016677,-0.00000009,-0.00000011,-0.00032472,-0.00000010,0.00
 000042,-0.00116834,0.00000016,-0.00000002,0.00011564,0.,0.00000005,0.0
 0008541,0.00000005,-0.00000003,0.00001404,0.,0.,-0.00004927,0.,0.,-0.0
 0011097,0.,0.,-0.00000754,0.,0.,0.00000004,0.00000055,0.00000010,0.002
 17732,-0.00000008,-0.00000018,0.00004728,0.00000010,0.00000019,-0.0013
 9668,-0.00000041,-0.00000059,0.00772129,0.00000119,-0.00000079,0.00247
 547,-0.00000023,-0.00000324,-0.05852414,0.00000011,-0.00000021,0.00427
 242,0.00000605,0.00000105,-0.04774970,-0.00001018,0.00000740,0.1103992
 6,0.00006482,-0.00008642,0.,-0.00011790,0.00009027,0.,-0.00001549,-0.0
 0004812,0.,0.00001798,0.00001660,0.,0.00000624,0.00009388,0.,-0.000136
 30,-0.00000762,0.,0.00000405,0.00000923,0.,-0.00000037,-0.00000608,0.,
 -0.00001201,0.00000492,0.,-0.00000836,0.00000424,0.,-0.00012208,0.0004
 0763,0.,0.00004707,-0.00001298,0.,0.00062211,0.00300674,0.00000011,-0.
 01344650,-0.00588722,0.00000005,0.00064663,0.00025090,-0.00000002,-0.3
 4184668,-0.03715999,0.00000231,0.00076395,0.00009952,-0.00000003,0.001
 24101,-0.00225691,0.,-0.00701694,0.00255376,0.00000019,0.35976717,-0.0
 0000637,0.00000753,0.,-0.00005698,-0.00011179,0.,-0.00000836,0.0002408
 1,0.,0.00009443,-0.00005718,0.,0.00000914,0.00006119,0.,-0.00000246,-0
 .00003404,0.,-0.00000089,-0.00000096,0.,0.00000028,0.00000082,0.,0.000
 00357,-0.00000327,0.,0.00000275,-0.00000177,0.,0.00046794,-0.00039250,
 0.,0.00003120,0.00000533,0.,0.00307630,-0.00447480,-0.00000019,0.02488
 071,0.00663267,-0.00000022,0.00048062,-0.00097857,0.,-0.03729964,-0.06
 414913,-0.00000021,-0.00016418,0.00086621,0.00000005,-0.00149480,-0.00
 532860,-0.00000015,-0.02879934,0.00236715,0.00000024,0.03952681,0.0631
 1588,0.,0.,-0.00000964,-0.00000001,-0.00000001,0.00004546,-0.00000004,
 0.,0.00052672,0.00000001,0.,0.00008280,0.,0.00000001,-0.00006328,0.,0.
 ,0.00000876,0.,0.,0.00001029,0.,0.,0.00003504,0.,0.,-0.00001817,0.,0.,
 -0.00000565,0.00000006,-0.00000007,-0.00046658,0.00000002,0.,-0.000089
 22,0.00000018,-0.00000008,0.00503804,0.00000046,0.00000025,0.00624372,
 -0.00000006,-0.00000012,-0.00140058,0.00000218,-0.00000040,-0.03688577
 ,-0.00000003,0.00000007,-0.00289122,0.00000003,-0.00000019,0.00575593,
 -0.00000024,0.00000012,0.00691247,-0.00000258,0.00000030,0.02202220,-0
 .00008528,0.00002066,0.,0.00004469,0.00005190,0.,-0.00009509,0.0000856
 4,0.00000001,0.00004692,0.00000198,0.,-0.00002010,-0.00001997,0.,0.000
 06636,0.00000503,0.,0.00000113,-0.00000365,0.,-0.00000526,0.00000145,0
 .,0.00000321,0.00000012,0.,-0.00000187,-0.00000218,0.,0.00012682,-0.00
 033860,-0.00000001,-0.00025226,0.00005627,-0.00000002,-0.00294258,0.00
 273562,0.00000019,0.00015319,0.00019899,0.,0.00861742,0.01878445,-0.00
 000011,-0.00578722,0.00100611,0.00000031,0.00008893,-0.00011305,-0.000
 00002,-0.10849232,-0.11423029,0.00000181,-0.00496592,-0.02782474,0.000
 00016,-0.00044972,-0.00139309,-0.00000006,0.11037303,0.00006173,0.0000
 4233,0.,-0.00011398,-0.00008267,0.,0.00013295,0.00004920,0.,-0.0000104
 0,-0.00000804,0.,0.00000940,-0.00001896,0.,0.00002195,-0.00002029,0.,-
 0.00000689,0.00000289,0.,0.00000788,0.00000228,0.,0.00000588,-0.000001
 89,0.,0.00000924,-0.00000080,0.,-0.00026788,0.00058714,-0.00000001,0.0
 0027977,-0.00019368,0.,0.00400733,-0.00217287,-0.00000010,0.00025640,0
 .00029955,-0.00000001,-0.01449080,-0.01867705,0.00000037,0.00017357,0.
 00124910,0.00000006,-0.00008306,-0.00004558,0.,-0.11099696,-0.29608675
 ,0.00000242,0.00273135,0.00250886,-0.00000003,0.00011631,0.00000349,0.
 ,0.12051395,0.31040021,0.,0.00000001,-0.00035469,0.00000006,0.00000003
 ,-0.00014056,0.00000007,-0.00000009,0.00039780,-0.00000005,0.,0.000003
 08,0.,-0.00000002,-0.00006498,0.,0.,0.00004626,0.,0.,-0.00000691,0.,0.
 ,0.00005466,0.,0.,-0.00000454,0.,0.,0.00006648,-0.00000009,0.00000014,
 0.00007984,0.,0.00000005,-0.00047184,0.00000002,-0.00000001,0.00310591
 ,0.00000012,-0.00000014,-0.00032838,-0.00000011,-0.00000023,0.00401608
 ,0.00000025,0.00000012,0.00629779,0.,0.00000002,-0.00025361,0.00000223
 ,0.00000253,-0.03252670,-0.00000024,0.00000038,0.00462934,0.,0.0000000
 6,-0.00057131,-0.00000207,-0.00000279,0.02182349,0.00003636,-0.0000181
 3,0.,-0.00001271,0.00009567,0.,0.00019046,-0.00007796,0.,-0.00005413,0
 .00000587,0.,0.00001097,0.00000712,0.,-0.00004923,0.00000569,0.,-0.000
 00024,0.00000526,0.,0.00000439,-0.00000419,0.,-0.00000639,0.00000136,0
 .,-0.00000364,0.00000348,0.,0.00020577,0.00072501,0.,-0.00004657,0.000
 13373,0.,-0.00031275,-0.00056429,-0.00000002,-0.00043490,-0.00272343,0
 .00000002,-0.00325550,-0.00338661,0.00000019,0.01049161,-0.01211051,-0
 .00000026,0.00038313,-0.00054955,0.,-0.01207086,0.02691306,0.00000037,
 -0.16588164,0.14038642,0.00000328,0.00072321,0.00039022,-0.00000004,0.
 00109293,-0.00033397,-0.00000010,0.17136168,0.00001568,0.00006762,0.,0
 .00025861,0.00017700,0.00000002,0.00035015,-0.00055587,0.,-0.00031845,
 0.00004939,0.,0.00001076,-0.00025181,0.,0.00010893,0.00009191,0.,-0.00
 000185,-0.00000976,0.,0.00000322,0.00000765,0.,0.00000765,-0.00000378,
 0.,0.00000561,-0.00000131,0.,-0.00057556,0.00022309,-0.00000002,-0.000
 09181,0.00015372,0.,-0.00088999,0.00039967,0.00000005,-0.00292857,-0.0
 0349878,-0.00000007,-0.00206513,0.00038057,0.,0.01985688,-0.01572403,-
 0.00000042,0.00087750,-0.00105015,-0.00000005,-0.00499155,0.00668576,0
 .00000006,0.13947179,-0.24040806,-0.00000397,-0.00009355,0.00095978,0.
 00000005,0.00027674,0.00057292,0.00000002,-0.14966800,0.25125006,0.,0.
 ,0.00000435,0.,0.,0.00005234,0.,0.00000004,-0.00000280,0.00000002,0.,0
 .00002065,0.,0.00000001,0.00000324,0.,0.,0.00000026,0.,0.,0.00000105,0
 .,0.,0.00000835,0.,0.,-0.00000062,0.,0.,-0.00000953,0.00000004,0.00000
 002,0.00015684,0.,0.,-0.00021805,0.00000004,0.00000012,-0.00118143,-0.
 00000018,-0.00000004,0.00524732,0.00000032,-0.00000007,0.00700962,0.00
 000012,-0.00000035,0.00226492,0.00000002,0.,0.00081629,0.00000020,-0.0
 0000033,0.00372188,0.00000325,-0.00000367,-0.03239696,-0.00000003,0.00
 000006,-0.00356214,-0.00000012,-0.00000002,-0.00370445,-0.00000352,0.0
 0000434,0.02268868,-0.00209016,-0.00764387,-0.00000014,-0.01165566,0.0
 1795615,-0.00000015,-0.07654521,0.03900697,-0.00000015,0.01332607,-0.0
 0201968,0.00000035,-0.00168632,0.00905316,0.00000022,-0.00670729,-0.00
 324344,-0.00000012,0.00041275,-0.00045518,-0.00000003,-0.00056634,-0.0
 0019679,-0.00000003,-0.00000217,0.00006714,-0.00000001,-0.00062793,-0.
 00017497,-0.00000002,-0.35147418,-0.06548874,-0.00000547,-0.04577216,-
 0.03491195,-0.00000064,-0.17576122,0.09803155,0.00000020,-0.03496960,0
 .03668047,0.00000075,0.03265746,0.00823581,-0.00000136,-0.00345948,-0.
 01324826,-0.00000019,0.00029018,0.00020475,0.00000015,-0.00839824,-0.0
 0610317,0.00000139,0.00547007,0.00242632,-0.00000050,-0.00061493,0.000
 62401,0.00000006,0.00063227,-0.00105908,0.00000005,-0.00012228,0.00031
 798,-0.00000004,0.68332729,-0.00123027,0.00079909,-0.00000004,0.031266
 87,-0.01633781,-0.00000011,0.02241156,0.00540412,0.00000084,0.00064437
 ,-0.00608675,-0.00000039,-0.00074199,-0.00261876,-0.00000013,0.0026693
 5,-0.00028581,0.,0.00012582,-0.00064886,0.,-0.00036527,0.00015403,0.00
 000006,0.00042164,-0.00045500,0.00000003,-0.00019758,0.00000391,0.,-0.
 05371810,-0.11470414,-0.00000292,-0.00575024,-0.13029974,-0.00000204,0
 .07206861,-0.19854315,-0.00000212,0.02130542,0.00892314,0.00000019,0.0
 1841891,-0.05183532,-0.00000042,-0.00439681,0.00082951,0.00000002,-0.0
 0143402,0.00055832,0.00000002,-0.01517199,0.00170061,-0.00000017,0.009
 28420,0.00086726,-0.00000016,-0.00055125,0.00107753,0.00000003,0.00042
 540,-0.00051809,0.00000011,0.00016072,0.00025009,-0.00000002,-0.071795
 24,0.50438866,-0.00000004,-0.00000003,0.00117071,0.00000087,-0.0000003
 6,-0.00090528,-0.00000021,0.00000017,0.00594839,-0.00000008,-0.0000002
 4,0.00300433,0.,-0.00000010,0.00112922,0.,0.,0.00069260,0.,-0.00000002
 ,-0.00031893,0.,0.00000002,-0.00074612,0.00000002,0.,-0.00055017,0.,0.
 ,-0.00020918,-0.00000502,-0.00000317,-0.03412993,-0.00000022,-0.000001
 97,-0.01847882,0.00000039,-0.00000191,-0.03514109,0.00000105,0.0000000
 2,0.00744438,-0.00000069,-0.00000037,0.00433061,-0.00000019,0.00000052
 ,0.00378501,-0.00000001,0.00000005,-0.00220541,0.00000022,-0.00000020,
 -0.00044981,-0.00000020,-0.00000038,-0.00080012,0.,0.00000005,-0.00095
 605,0.00000003,0.00000001,0.00179286,0.,0.,-0.00006796,0.00000559,0.00
 000867,0.06441232,0.00035669,0.00127678,-0.00000002,0.00018989,0.00364
 523,0.00000025,0.01124616,-0.00216912,0.00000008,-0.00149298,-0.000005
 39,-0.00000005,-0.00015118,-0.00147741,-0.00000005,0.00124868,0.000534
 60,0.00000003,-0.00021545,0.00020102,0.,0.00034507,0.00003260,0.000000
 04,-0.00000753,0.00004402,0.00000001,0.00004300,0.00005106,0.00000001,
 0.00490420,0.05195122,0.00000023,0.00066221,0.00201276,-0.00000011,-0.
 03911999,-0.02773547,0.00000299,0.01235871,-0.00766175,0.00000004,-0.4
 4527515,-0.06802891,0.00002200,-0.01125948,0.00447642,0.00000031,-0.00
 134894,-0.00077101,-0.00000009,-0.08320713,0.02239909,0.00000556,0.008
 56992,0.00602673,-0.00000030,-0.00020035,-0.00036891,0.00000007,0.0019
 2212,-0.00112521,-0.00000013,-0.00239093,0.00010991,-0.00000015,-0.011
 46058,0.00214021,0.00000019,0.56417669,-0.00131536,-0.00092509,0.,0.00
 002175,-0.00640853,-0.00000040,-0.01771634,0.00087128,-0.00000008,0.00
 263737,-0.00086334,0.00000010,0.00006505,0.00199333,0.00000006,-0.0001
 9924,-0.00120303,-0.00000004,0.00024278,-0.00036931,0.,0.00004238,0.00
 012192,0.,0.00020107,-0.00011566,0.,0.00006646,-0.00009214,0.,0.026165
 05,-0.08715435,0.00000228,0.00019790,-0.00267370,-0.00000015,-0.032234
 59,-0.01196313,0.00000282,-0.00833444,-0.00662197,-0.00000020,-0.06777
 590,-0.10989979,0.00000592,0.00147284,-0.00776519,-0.00000003,-0.00183
 044,0.00010809,-0.00000018,0.04306274,0.01665305,-0.00000247,0.0046088
 5,-0.00079907,-0.00000013,0.00000121,0.00042301,0.00000002,-0.00094590
 ,0.00285559,0.00000009,0.00179975,0.00033747,0.,0.00772740,0.01254586,
 -0.00000006,0.06435419,0.18243610,0.00000027,0.00000010,0.00034563,0.0
 0000023,0.00000093,-0.00076603,0.00000251,-0.00000061,-0.00094470,-0.0
 0000062,0.00000011,0.00037059,0.00000001,-0.00000038,0.00020089,-0.000
 00004,0.00000023,0.00006388,-0.00000003,0.00000004,-0.00010421,-0.0000
 0001,0.,-0.00023482,-0.00000003,0.00000002,-0.00005236,-0.00000001,0.0
 0000002,-0.00008126,-0.00000261,0.00000818,0.01962159,0.00000006,0.000
 00070,-0.00185121,0.00000172,0.00000086,0.01463039,-0.00000017,0.00000
 037,0.00213384,0.00002360,0.00000755,-0.05630578,0.00000087,0.00000024
 ,0.00014672,-0.00000001,-0.00000002,-0.00185050,0.00000429,-0.00000218
 ,0.01704244,-0.00000111,-0.00000044,0.00342493,0.,0.,0.00020530,-0.000
 00005,0.00000003,-0.00353089,-0.00000002,0.,-0.00058278,-0.00000117,-0
 .00000004,-0.00263191,-0.00003120,-0.00000757,0.03366189,0.00049247,0.
 00015315,-0.00000003,-0.00384309,0.00044441,-0.00000003,0.00428911,0.0
 1415956,0.00000100,0.00199451,-0.00004946,0.00000002,-0.00003098,0.000
 66609,0.,-0.00027481,-0.00036172,-0.00000002,-0.00008182,0.00014410,0.
 ,-0.00092978,-0.00022952,0.,0.00003383,-0.00002788,0.,-0.00001224,-0.0
 0006945,0.,-0.06739383,-0.03211483,-0.00000281,-0.00331420,-0.00454382
 ,0.00000010,0.00222488,-0.00323201,0.00000028,-0.00322496,0.00145494,-
 0.00000006,-0.02437244,0.01537639,-0.00000105,0.00120024,-0.00300899,-
 0.00000002,0.00042980,0.00024247,-0.00000008,0.00008229,-0.00145040,-0
 .00000041,0.00113494,0.00250994,0.00000012,0.00008340,0.00000704,0.,-0
 .00007140,0.00016053,0.00000002,0.00014124,-0.00004694,0.00000004,-0.0
 0420235,-0.02599032,-0.00000168,-0.00989364,-0.02231459,0.00000352,0.1
 0553884,0.00227350,0.00081071,-0.00000007,0.00229147,0.01105811,0.0000
 0009,0.02702875,-0.01079943,0.00000047,-0.00616533,0.00275207,0.,-0.00
 044953,-0.00413198,-0.00000009,0.00021551,0.00208354,0.00000010,-0.000
 29130,0.00050379,0.,0.00054829,-0.00027198,0.,-0.00035997,0.00024219,0
 .,-0.00013934,0.00019094,0.,-0.04267843,-0.11093725,-0.00000601,0.0030
 9035,0.01201824,-0.00000018,-0.02028028,0.01432963,-0.00000047,0.01941
 792,-0.00930821,0.00000014,0.04606352,0.00967630,-0.00000353,-0.006274
 38,0.01900649,0.00000022,-0.00113427,-0.00068763,0.00000022,-0.0079849
 0,-0.00001512,0.00000218,-0.00882752,-0.00973595,-0.00000005,-0.000071
 86,-0.00022881,0.00000003,0.00070716,-0.00074690,-0.00000028,-0.001196
 70,-0.00010317,-0.00000007,-0.01399133,-0.01516870,-0.00000073,-0.0499
 1265,0.01850859,-0.00000812,0.05812132,0.07095455,-0.00000002,-0.00000
 002,0.00053668,-0.00000022,-0.00000012,0.00246978,-0.00000105,0.000001
 00,-0.00465790,0.00000032,-0.00000002,-0.00114854,0.,0.00000023,-0.000
 31290,-0.00000008,-0.00000008,-0.00006340,0.,0.,-0.00004968,0.00000005
 ,0.,0.00019367,0.,0.,0.00009163,0.,0.,0.00006280,-0.00000228,-0.000014
 87,-0.03181641,0.,-0.00000005,0.00203846,-0.00000008,0.00000066,-0.004
 46312,0.00000021,0.00000017,0.00016745,-0.00000093,-0.00000178,0.00218
 216,-0.00000011,0.00000007,-0.00033983,0.00000008,0.00000002,0.0006335
 1,0.00000125,0.00000027,0.00387345,0.00000013,-0.00000031,0.00008678,0
 .00000002,0.00000001,0.00003287,-0.00000005,0.00000006,-0.00035474,0.0
 0000009,0.,-0.00026906,0.00000127,-0.00000140,0.00388035,0.00000029,0.
 00000002,-0.02291164,0.00000106,0.00001615,0.05013763\\0.00124718,-0.0
 0192882,-0.00000013,-0.00241373,-0.00470887,0.00000020,-0.00563983,-0.
 00039950,-0.00000095,-0.00063677,0.00083882,0.00000015,0.00068179,0.00
 383834,-0.00000006,0.00124255,0.00109433,0.00000003,0.00037034,-0.0003
 0672,0.00000006,-0.00034359,0.00024233,0.00000011,0.00005935,0.0003373
 2,0.00000005,0.00026168,0.00017671,0.00000002,0.00440896,-0.00571006,-
 0.00000688,-0.00269832,-0.00982445,0.00000071,0.00288093,-0.00296721,-
 0.00000054,-0.00492600,0.00174899,-0.00000091,-0.00624595,-0.00223009,
 0.00000532,0.00138978,-0.00096894,0.00000005,-0.00030554,0.00014366,0.
 00000013,0.00326360,0.00010427,-0.00000136,0.00394102,0.00253048,0.000
 00052,0.00005481,0.00026190,-0.00000011,0.00036388,-0.00004306,0.,0.00
 041216,0.00027703,-0.00000010,0.00226181,0.00110567,0.00000029,0.00422
 900,0.00354512,-0.00000669,-0.00385909,0.01284277,0.00001009\\\@
 The archive entry for this job was punched.


 Sacred cows make the best hamburger.
                               -- Mark Twain
 Job cpu time:       0 days  2 hours 54 minutes  8.7 seconds.
 Elapsed time:       0 days  0 hours 18 minutes  0.4 seconds.
 File lengths (MBytes):  RWF=   1380 Int=      0 D2E=      0 Chk=     48 Scr=      8
 Normal termination of Gaussian 16 at Mon Jul 13 16:10:12 2020.
