 Entering Gaussian System, Link 0=g16
 Initial command:
 /gpfs/loomis/apps/avx/software/Gaussian/16-C.01_AVX/g16/l1.exe "/home/fas/batista/pev4/scratch60/gauss-scratch/Gau-18764.inp" -scrdir="/home/fas/batista/pev4/scratch60/gauss-scratch/"
 Entering Link 1 = /gpfs/loomis/apps/avx/software/Gaussian/16-C.01_AVX/g16/l1.exe PID=     18765.
  
 Copyright (c) 1988-2019, Gaussian, Inc.  All Rights Reserved.
  
 This is part of the Gaussian(R) 16 program.  It is based on
 the Gaussian(R) 09 system (copyright 2009, Gaussian, Inc.),
 the Gaussian(R) 03 system (copyright 2003, Gaussian, Inc.),
 the Gaussian(R) 98 system (copyright 1998, Gaussian, Inc.),
 the Gaussian(R) 94 system (copyright 1995, Gaussian, Inc.),
 the Gaussian 92(TM) system (copyright 1992, Gaussian, Inc.),
 the Gaussian 90(TM) system (copyright 1990, Gaussian, Inc.),
 the Gaussian 88(TM) system (copyright 1988, Gaussian, Inc.),
 the Gaussian 86(TM) system (copyright 1986, Carnegie Mellon
 University), and the Gaussian 82(TM) system (copyright 1983,
 Carnegie Mellon University). Gaussian is a federally registered
 trademark of Gaussian, Inc.
  
 This software contains proprietary and confidential information,
 including trade secrets, belonging to Gaussian, Inc.
  
 This software is provided under written license and may be
 used, copied, transmitted, or stored only in accord with that
 written license.
  
 The following legend is applicable only to US Government
 contracts under FAR:
  
                    RESTRICTED RIGHTS LEGEND
  
 Use, reproduction and disclosure by the US Government is
 subject to restrictions as set forth in subparagraphs (a)
 and (c) of the Commercial Computer Software - Restricted
 Rights clause in FAR 52.227-19.
  
 Gaussian, Inc.
 340 Quinnipiac St., Bldg. 40, Wallingford CT 06492
  
  
 ---------------------------------------------------------------
 Warning -- This program may not be used in any manner that
 competes with the business of Gaussian, Inc. or will provide
 assistance to any competitor of Gaussian, Inc.  The licensee
 of this program is prohibited from giving any competitor of
 Gaussian, Inc. access to this program.  By using this program,
 the user acknowledges that Gaussian, Inc. is engaged in the
 business of creating and licensing software in the field of
 computational chemistry and represents and warrants to the
 licensee that it is not a competitor of Gaussian, Inc. and that
 it will not use this program in any manner prohibited above.
 ---------------------------------------------------------------
  

 Cite this work as:
 Gaussian 16, Revision C.01,
 M. J. Frisch, G. W. Trucks, H. B. Schlegel, G. E. Scuseria, 
 M. A. Robb, J. R. Cheeseman, G. Scalmani, V. Barone, 
 G. A. Petersson, H. Nakatsuji, X. Li, M. Caricato, A. V. Marenich, 
 J. Bloino, B. G. Janesko, R. Gomperts, B. Mennucci, H. P. Hratchian, 
 J. V. Ortiz, A. F. Izmaylov, J. L. Sonnenberg, D. Williams-Young, 
 F. Ding, F. Lipparini, F. Egidi, J. Goings, B. Peng, A. Petrone, 
 T. Henderson, D. Ranasinghe, V. G. Zakrzewski, J. Gao, N. Rega, 
 G. Zheng, W. Liang, M. Hada, M. Ehara, K. Toyota, R. Fukuda, 
 J. Hasegawa, M. Ishida, T. Nakajima, Y. Honda, O. Kitao, H. Nakai, 
 T. Vreven, K. Throssell, J. A. Montgomery, Jr., J. E. Peralta, 
 F. Ogliaro, M. J. Bearpark, J. J. Heyd, E. N. Brothers, K. N. Kudin, 
 V. N. Staroverov, T. A. Keith, R. Kobayashi, J. Normand, 
 K. Raghavachari, A. P. Rendell, J. C. Burant, S. S. Iyengar, 
 J. Tomasi, M. Cossi, J. M. Millam, M. Klene, C. Adamo, R. Cammi, 
 J. W. Ochterski, R. L. Martin, K. Morokuma, O. Farkas, 
 J. B. Foresman, and D. J. Fox, Gaussian, Inc., Wallingford CT, 2019.
 
 ******************************************
 Gaussian 16:  ES64L-G16RevC.01  3-Jul-2019
                27-Oct-2020 
 ******************************************
 %chk=config_9_2.chk
 %mem=58GB
 %nprocshared=10
 Will use up to   10 processors via shared memory.
 ----------------------------------------------------------------------
 #p opt=addgic freq wb97xd/cc-pvdz nosymm int=ultrafine scrf=(solvent=C
 arbonTetraChloride)
 ----------------------------------------------------------------------
 1/18=20,19=15,26=6,38=1,145=903/1,3;
 2/9=110,12=2,15=1,17=6,18=5,40=1/2;
 3/5=16,11=2,25=1,30=1,70=2201,71=1,72=11,74=-58,75=-5/1,2,3;
 4//1;
 5/5=2,38=5,53=11/2;
 6/7=2,8=2,9=2,10=2,28=1/1;
 7/30=1/1,2,3,16;
 1/18=20,19=15,26=6,145=903/3(2);
 2/9=110,15=1/2;
 99//99;
 2/9=110,15=1/2;
 3/5=16,11=2,25=1,30=1,70=2205,71=1,72=11,74=-58,75=-5/1,2,3;
 4/5=5,16=3,69=1/1;
 5/5=2,38=5,53=11/2;
 7/30=1/1,2,3,16;
 1/18=20,19=15,26=6,145=903/3(-5);
 2/9=110,15=1/2;
 6/7=2,8=2,9=2,10=2,19=2,28=1/1;
 99/9=1/99;
 Leave Link    1 at Tue Oct 27 20:40:09 2020, MaxMem=  7784628224 cpu:               5.9 elap:               0.7
 (Enter /gpfs/loomis/apps/avx/software/Gaussian/16-C.01_AVX/g16/l101.exe)
 ------------------------------------------------
 NM 2D-scan of HBT TD-WB97XD pVDZ in CTC Relaxed.
 ------------------------------------------------
 Symbolic Z-matrix:
 Charge =  0 Multiplicity = 1
 C                     1.74929  -3.26922  -0.00002 
 C                     1.00591  -2.08471  -0.00002 
 C                     1.66908  -0.82938  -0.00002 
 C                     3.07109  -0.75151  -0.00002 
 C                     3.79771  -1.93378  -0.00002 
 C                     3.14754  -3.17971  -0.00003 
 H                     1.25674  -4.24547  -0.00003 
 H                     3.55774   0.22731  -0.00002 
 H                     4.89011  -1.89445  -0.00002 
 H                     3.74025  -4.0975   -0.00003 
 N                     0.82952   0.23822  -0.00002 
 S                    -0.75028  -1.84251  -0.00002 
 C                    -1.42639   1.00275  0. 
 C                    -2.81844   0.8919   -0.00001 
 C                    -0.85025   2.38648   0.00003 
 C                    -3.64557   2.0418    0.00002 
 H                    -3.28659  -0.09799  -0.00005 
 C                    -1.7285    3.50363   0.00006 
 C                    -3.11135   3.33956   0.00006 
 H                    -4.72941   1.90421   0.00001 
 H                    -1.25337   4.48841   0.00009 
 H                    -3.77374   4.20739   0.00009 
 C                    -0.48907  -0.08122  -0.00001 
 O                     0.40869   2.58632   0.00003 
 H                     0.97018   1.26069  0. 
 
 Initializing the GIC definitions file.
 Number of initial coordinates =   134
 Number of input entries/lines =    52
 Number of additional coordinates =     2
 Number of removed coordinates =     0
 Number of frozen coordinates =     2
 Number of final active and frozen coordinates =   136
 ITRead=  0  0  0  0  0  0  0  0  0  0  0  0  0  0  0  0  0  0  0  0
 ITRead=  0  0  0  0  0
 MicOpt= -1 -1 -1 -1 -1 -1 -1 -1 -1 -1 -1 -1 -1 -1 -1 -1 -1 -1 -1 -1
 MicOpt= -1 -1 -1 -1 -1
 NAtoms=     25 NQM=       25 NQMF=       0 NMMI=      0 NMMIF=      0
                NMic=       0 NMicF=      0.
                    Isotopes and Nuclear Properties:
 (Nuclear quadrupole moments (NQMom) in fm**2, nuclear magnetic moments (NMagM)
  in nuclear magnetons)

  Atom         1           2           3           4           5           6           7           8           9          10
 IAtWgt=          12          12          12          12          12          12           1           1           1           1
 AtmWgt=  12.0000000  12.0000000  12.0000000  12.0000000  12.0000000  12.0000000   1.0078250   1.0078250   1.0078250   1.0078250
 NucSpn=           0           0           0           0           0           0           1           1           1           1
 AtZEff=  -0.0000000  -0.0000000  -0.0000000  -0.0000000  -0.0000000  -0.0000000  -0.0000000  -0.0000000  -0.0000000  -0.0000000
 NQMom=    0.0000000   0.0000000   0.0000000   0.0000000   0.0000000   0.0000000   0.0000000   0.0000000   0.0000000   0.0000000
 NMagM=    0.0000000   0.0000000   0.0000000   0.0000000   0.0000000   0.0000000   2.7928460   2.7928460   2.7928460   2.7928460
 AtZNuc=   6.0000000   6.0000000   6.0000000   6.0000000   6.0000000   6.0000000   1.0000000   1.0000000   1.0000000   1.0000000

  Atom        11          12          13          14          15          16          17          18          19          20
 IAtWgt=          14          32          12          12          12          12           1          12          12           1
 AtmWgt=  14.0030740  31.9720718  12.0000000  12.0000000  12.0000000  12.0000000   1.0078250  12.0000000  12.0000000   1.0078250
 NucSpn=           2           0           0           0           0           0           1           0           0           1
 AtZEff=  -0.0000000  -0.0000000  -0.0000000  -0.0000000  -0.0000000  -0.0000000  -0.0000000  -0.0000000  -0.0000000  -0.0000000
 NQMom=    2.0440000   0.0000000   0.0000000   0.0000000   0.0000000   0.0000000   0.0000000   0.0000000   0.0000000   0.0000000
 NMagM=    0.4037610   0.0000000   0.0000000   0.0000000   0.0000000   0.0000000   2.7928460   0.0000000   0.0000000   2.7928460
 AtZNuc=   7.0000000  16.0000000   6.0000000   6.0000000   6.0000000   6.0000000   1.0000000   6.0000000   6.0000000   1.0000000

  Atom        21          22          23          24          25
 IAtWgt=           1           1          12          16           1
 AtmWgt=   1.0078250   1.0078250  12.0000000  15.9949146   1.0078250
 NucSpn=           1           1           0           0           1
 AtZEff=  -0.0000000  -0.0000000  -0.0000000  -0.0000000  -0.0000000
 NQMom=    0.0000000   0.0000000   0.0000000   0.0000000   0.0000000
 NMagM=    2.7928460   2.7928460   0.0000000   0.0000000   2.7928460
 AtZNuc=   1.0000000   1.0000000   6.0000000   8.0000000   1.0000000
 Leave Link  101 at Tue Oct 27 20:40:12 2020, MaxMem=  7784628224 cpu:              31.3 elap:               3.2
 (Enter /gpfs/loomis/apps/avx/software/Gaussian/16-C.01_AVX/g16/l103.exe)

 GradGradGradGradGradGradGradGradGradGradGradGradGradGradGradGradGradGrad
 Berny optimization.
 Initialization pass.
                           ----------------------------
                           !    Initial Parameters    !
                           ! (Angstroms and Degrees)  !
 --------------------------                            --------------------------
 ! Name  Definition              Value          Derivative Info.                !
 --------------------------------------------------------------------------------
 ! R1    R(1,2)                  1.3985         estimate D2E/DX2                !
 ! R2    R(1,6)                  1.4011         estimate D2E/DX2                !
 ! R3    R(1,7)                  1.0935         estimate D2E/DX2                !
 ! R4    R(2,3)                  1.4197         estimate D2E/DX2                !
 ! R5    R(2,12)                 1.7728         estimate D2E/DX2                !
 ! R6    R(3,4)                  1.4042         estimate D2E/DX2                !
 ! R7    R(3,11)                 1.3582         estimate D2E/DX2                !
 ! R8    R(4,5)                  1.3877         estimate D2E/DX2                !
 ! R9    R(4,8)                  1.0931         estimate D2E/DX2                !
 ! R10   R(5,6)                  1.4054         estimate D2E/DX2                !
 ! R11   R(5,9)                  1.0931         estimate D2E/DX2                !
 ! R12   R(6,10)                 1.0925         estimate D2E/DX2                !
 ! R13   R(11,23)                1.3567         estimate D2E/DX2                !
 ! R14   R(11,25)                1.0321         estimate D2E/DX2                !
 ! R15   R(12,23)                1.7806         estimate D2E/DX2                !
 ! R16   R(13,14)                1.3965         estimate D2E/DX2                !
 ! R17   R(13,15)                1.4989         estimate D2E/DX2                !
 ! R18   R(13,23)                1.433          estimate D2E/DX2                !
 ! R19   R(14,16)                1.4165         estimate D2E/DX2                !
 ! R20   R(14,17)                1.095          estimate D2E/DX2                !
 ! R21   R(15,18)                1.421          estimate D2E/DX2                !
 ! R22   R(15,24)                1.2747         estimate D2E/DX2                !
 ! R23   R(16,19)                1.4034         estimate D2E/DX2                !
 ! R24   R(16,20)                1.0925         estimate D2E/DX2                !
 ! R25   R(18,19)                1.3925         estimate D2E/DX2                !
 ! R26   R(18,21)                1.0934         estimate D2E/DX2                !
 ! R27   R(19,22)                1.0917         estimate D2E/DX2                !
 ! A1    A(2,1,6)              118.4484         estimate D2E/DX2                !
 ! A2    A(2,1,7)              121.1161         estimate D2E/DX2                !
 ! A3    A(6,1,7)              120.4355         estimate D2E/DX2                !
 ! A4    A(1,2,3)              120.0419         estimate D2E/DX2                !
 ! A5    A(1,2,12)             129.9634         estimate D2E/DX2                !
 ! A6    A(3,2,12)             109.9947         estimate D2E/DX2                !
 ! A7    A(2,3,4)              121.026          estimate D2E/DX2                !
 ! A8    A(2,3,11)             113.9718         estimate D2E/DX2                !
 ! A9    A(4,3,11)             125.0022         estimate D2E/DX2                !
 ! A10   A(3,4,5)              118.3953         estimate D2E/DX2                !
 ! A11   A(3,4,8)              119.6153         estimate D2E/DX2                !
 ! A12   A(5,4,8)              121.9894         estimate D2E/DX2                !
 ! A13   A(4,5,6)              120.8681         estimate D2E/DX2                !
 ! A14   A(4,5,9)              119.5123         estimate D2E/DX2                !
 ! A15   A(6,5,9)              119.6196         estimate D2E/DX2                !
 ! A16   A(1,6,5)              121.2203         estimate D2E/DX2                !
 ! A17   A(1,6,10)             119.1915         estimate D2E/DX2                !
 ! A18   A(5,6,10)             119.5883         estimate D2E/DX2                !
 ! A19   A(3,11,23)            114.5639         estimate D2E/DX2                !
 ! A20   A(3,11,25)            133.9853         estimate D2E/DX2                !
 ! A21   A(23,11,25)           111.4508         estimate D2E/DX2                !
 ! A22   A(2,12,23)             89.4165         estimate D2E/DX2                !
 ! A23   A(14,13,15)           117.1578         estimate D2E/DX2                !
 ! A24   A(14,13,23)           126.2977         estimate D2E/DX2                !
 ! A25   A(15,13,23)           116.5445         estimate D2E/DX2                !
 ! A26   A(13,14,16)           121.175          estimate D2E/DX2                !
 ! A27   A(13,14,17)           119.8637         estimate D2E/DX2                !
 ! A28   A(16,14,17)           118.9613         estimate D2E/DX2                !
 ! A29   A(13,15,18)           119.2222         estimate D2E/DX2                !
 ! A30   A(13,15,24)           121.6249         estimate D2E/DX2                !
 ! A31   A(18,15,24)           119.1529         estimate D2E/DX2                !
 ! A32   A(14,16,19)           121.8977         estimate D2E/DX2                !
 ! A33   A(14,16,20)           118.4931         estimate D2E/DX2                !
 ! A34   A(19,16,20)           119.6092         estimate D2E/DX2                !
 ! A35   A(15,18,19)           121.4063         estimate D2E/DX2                !
 ! A36   A(15,18,21)           116.0715         estimate D2E/DX2                !
 ! A37   A(19,18,21)           122.5222         estimate D2E/DX2                !
 ! A38   A(16,19,18)           119.1409         estimate D2E/DX2                !
 ! A39   A(16,19,22)           120.272          estimate D2E/DX2                !
 ! A40   A(18,19,22)           120.587          estimate D2E/DX2                !
 ! A41   A(11,23,12)           112.0532         estimate D2E/DX2                !
 ! A42   A(11,23,13)           117.2327         estimate D2E/DX2                !
 ! A43   A(12,23,13)           130.7141         estimate D2E/DX2                !
 ! D1    D(6,1,2,3)              0.0            estimate D2E/DX2                !
 ! D2    D(6,1,2,12)          -179.9999         estimate D2E/DX2                !
 ! D3    D(7,1,2,3)            179.9999         estimate D2E/DX2                !
 ! D4    D(7,1,2,12)             0.0            estimate D2E/DX2                !
 ! D5    D(2,1,6,5)              0.0            estimate D2E/DX2                !
 ! D6    D(2,1,6,10)           180.0            estimate D2E/DX2                !
 ! D7    D(7,1,6,5)           -179.9999         estimate D2E/DX2                !
 ! D8    D(7,1,6,10)             0.0001         estimate D2E/DX2                !
 ! D9    D(1,2,3,4)             -0.0001         estimate D2E/DX2                !
 ! D10   D(1,2,3,11)           179.9999         estimate D2E/DX2                !
 ! D11   D(12,2,3,4)           179.9999         estimate D2E/DX2                !
 ! D12   D(12,2,3,11)           -0.0001         estimate D2E/DX2                !
 ! D13   D(1,2,12,23)          180.0            estimate D2E/DX2                !
 ! D14   D(3,2,12,23)            0.0            estimate D2E/DX2                !
 ! D15   D(2,3,4,5)              0.0            estimate D2E/DX2                !
 ! D16   D(2,3,4,8)           -180.0            estimate D2E/DX2                !
 ! D17   D(11,3,4,5)          -179.9999         estimate D2E/DX2                !
 ! D18   D(11,3,4,8)             0.0            estimate D2E/DX2                !
 ! D19   D(2,3,11,23)            0.0002         estimate D2E/DX2                !
 ! D20   D(2,3,11,25)          179.9993         estimate D2E/DX2                !
 ! D21   D(4,3,11,23)         -179.9999         estimate D2E/DX2                !
 ! D22   D(4,3,11,25)           -0.0008         estimate D2E/DX2                !
 ! D23   D(3,4,5,6)              0.0            estimate D2E/DX2                !
 ! D24   D(3,4,5,9)           -180.0            estimate D2E/DX2                !
 ! D25   D(8,4,5,6)           -180.0            estimate D2E/DX2                !
 ! D26   D(8,4,5,9)              0.0            estimate D2E/DX2                !
 ! D27   D(4,5,6,1)              0.0            estimate D2E/DX2                !
 ! D28   D(4,5,6,10)           180.0            estimate D2E/DX2                !
 ! D29   D(9,5,6,1)            180.0            estimate D2E/DX2                !
 ! D30   D(9,5,6,10)             0.0            estimate D2E/DX2                !
 ! D31   D(3,11,23,12)          -0.0001         estimate D2E/DX2                !
 ! D32   D(3,11,23,13)         179.9996         estimate D2E/DX2                !
 ! D33   D(25,11,23,12)       -179.9994         estimate D2E/DX2                !
 ! D34   D(25,11,23,13)          0.0003         estimate D2E/DX2                !
 ! D35   D(2,12,23,11)           0.0001         estimate D2E/DX2                !
 ! D36   D(2,12,23,13)        -179.9996         estimate D2E/DX2                !
 ! D37   D(15,13,14,16)         -0.0009         estimate D2E/DX2                !
 ! D38   D(15,13,14,17)        179.9994         estimate D2E/DX2                !
 ! D39   D(23,13,14,16)        179.999          estimate D2E/DX2                !
 ! D40   D(23,13,14,17)         -0.0007         estimate D2E/DX2                !
 ! D41   D(14,13,15,18)          0.0009         estimate D2E/DX2                !
 ! D42   D(14,13,15,24)       -179.9991         estimate D2E/DX2                !
 ! D43   D(23,13,15,18)       -179.999          estimate D2E/DX2                !
 ! D44   D(23,13,15,24)          0.001          estimate D2E/DX2                !
 ! D45   D(14,13,23,11)        179.9991         estimate D2E/DX2                !
 ! D46   D(14,13,23,12)         -0.0012         estimate D2E/DX2                !
 ! D47   D(15,13,23,11)         -0.001          estimate D2E/DX2                !
 ! D48   D(15,13,23,12)        179.9987         estimate D2E/DX2                !
 ! D49   D(13,14,16,19)          0.0002         estimate D2E/DX2                !
 ! D50   D(13,14,16,20)       -179.9997         estimate D2E/DX2                !
 ! D51   D(17,14,16,19)        180.0            estimate D2E/DX2                !
 ! D52   D(17,14,16,20)          0.0            estimate D2E/DX2                !
 ! D53   D(13,15,18,19)         -0.0003         estimate D2E/DX2                !
 ! D54   D(13,15,18,21)        179.9997         estimate D2E/DX2                !
 ! D55   D(24,15,18,19)        179.9997         estimate D2E/DX2                !
 ! D56   D(24,15,18,21)         -0.0003         estimate D2E/DX2                !
 ! D57   D(14,16,19,18)          0.0004         estimate D2E/DX2                !
 ! D58   D(14,16,19,22)       -179.9997         estimate D2E/DX2                !
 ! D59   D(20,16,19,18)       -179.9997         estimate D2E/DX2                !
 ! D60   D(20,16,19,22)          0.0002         estimate D2E/DX2                !
 ! D61   D(15,18,19,16)         -0.0003         estimate D2E/DX2                !
 ! D62   D(15,18,19,22)        179.9998         estimate D2E/DX2                !
 ! D63   D(21,18,19,16)        179.9996         estimate D2E/DX2                !
 ! D64   D(21,18,19,22)         -0.0002         estimate D2E/DX2                !
 ! Qtot  GIC-1                  30.0            Frozen                          !
 ! Ptot  GIC-2                -120.0            Frozen                          !
 --------------------------------------------------------------------------------
 NOTE: GIC-type coordinates are in arbitrary units.
 Trust Radius=3.00D-01 FncErr=5.00D-06 GrdErr=5.00D-06 EigMax=2.50D+02 EigMin=1.00D-04
 Number of steps in this run=    146 maximum allowed number of steps=    150.
 GradGradGradGradGradGradGradGradGradGradGradGradGradGradGradGradGradGrad

 Leave Link  103 at Tue Oct 27 20:40:12 2020, MaxMem=  7784628224 cpu:               0.2 elap:               0.0
 (Enter /gpfs/loomis/apps/avx/software/Gaussian/16-C.01_AVX/g16/l202.exe)
                          Input orientation:                          
 ---------------------------------------------------------------------
 Center     Atomic      Atomic             Coordinates (Angstroms)
 Number     Number       Type             X           Y           Z
 ---------------------------------------------------------------------
      1          6           0        1.749286   -3.269224   -0.000025
      2          6           0        1.005911   -2.084707   -0.000021
      3          6           0        1.669078   -0.829381   -0.000018
      4          6           0        3.071088   -0.751505   -0.000018
      5          6           0        3.797709   -1.933784   -0.000022
      6          6           0        3.147537   -3.179711   -0.000025
      7          1           0        1.256735   -4.245472   -0.000026
      8          1           0        3.557741    0.227307   -0.000015
      9          1           0        4.890115   -1.894447   -0.000022
     10          1           0        3.740249   -4.097505   -0.000028
     11          7           0        0.829518    0.238216   -0.000016
     12         16           0       -0.750276   -1.842514   -0.000017
     13          6           0       -1.426388    1.002746   -0.000001
     14          6           0       -2.818440    0.891901   -0.000013
     15          6           0       -0.850251    2.386476    0.000030
     16          6           0       -3.645570    2.041800    0.000021
     17          1           0       -3.286589   -0.097986   -0.000046
     18          6           0       -1.728499    3.503628    0.000065
     19          6           0       -3.111345    3.339558    0.000064
     20          1           0       -4.729412    1.904215    0.000015
     21          1           0       -1.253373    4.488411    0.000091
     22          1           0       -3.773735    4.207391    0.000094
     23          6           0       -0.489074   -0.081215   -0.000013
     24          8           0        0.408688    2.586318    0.000026
     25          1           0        0.970183    1.260687   -0.000004
 ---------------------------------------------------------------------
                    Distance matrix (angstroms):
                    1          2          3          4          5
     1  C    0.000000
     2  C    1.398459   0.000000
     3  C    2.441161   1.419729   0.000000
     4  C    2.843601   2.458125   1.404172   0.000000
     5  C    2.445289   2.795874   2.398078   1.387718   0.000000
     6  C    1.401113   2.405326   2.776669   2.429409   1.405367
     7  H    1.093465   2.175275   3.440887   3.936963   3.435178
     8  H    3.936526   3.443435   2.164172   1.093117   2.174374
     9  H    3.428530   3.888860   3.392557   2.148296   1.093113
    10  H    2.156382   3.395285   3.869158   3.412255   2.164483
    11  N    3.626032   2.329610   1.358169   2.450343   3.678008
    12  S    2.878075   1.772809   2.622920   3.974056   4.548901
    13  C    5.323029   3.930451   3.597026   4.827493   5.992863
    14  C    6.178922   4.846221   4.806311   6.114517   7.194298
    15  C    6.224511   4.841158   4.085187   5.022333   6.345722
    16  C    7.570433   6.218066   6.040626   7.274342   8.438464
    17  H    5.951201   4.729971   5.009349   6.391177   7.318295
    18  C    7.613574   6.221453   5.506223   6.414218   7.752705
    19  C    8.203764   6.809879   6.342909   7.413453   8.691558
    20  H    8.290838   6.986088   6.957961   8.240185   9.351045
    21  H    8.318465   6.950556   6.067918   6.793945   8.170558
    22  H    9.295351   7.901615   7.415746   8.452352   9.748888
    23  C    3.895338   2.499792   2.284157   3.622712   4.669960
    24  O    6.007044   4.709049   3.640822   4.269595   5.649495
    25  H    4.596422   3.345584   2.203824   2.909075   4.266093
                    6          7          8          9         10
     6  C    0.000000
     7  H    2.170479   0.000000
     8  H    3.431623   5.029949   0.000000
     9  H    2.165290   4.327674   2.505407   0.000000
    10  H    1.092545   2.487918   4.328661   2.485086   0.000000
    11  N    4.129823   4.503996   2.728244   4.586578   5.222148
    12  S    4.120806   3.130863   4.779453   5.640630   5.024918
    13  C    6.197881   5.894314   5.044090   6.949240   7.259938
    14  C    7.222943   6.557412   6.410723   8.196679   8.240787
    15  C    6.853083   6.958601   4.908401   7.160873   7.944476
    16  C    8.567992   7.972603   7.428329   9.399572   9.604238
    17  H    7.134074   6.151702   6.852056   8.371724   8.085333
    18  C    8.273013   8.304226   6.219213   8.540800   9.363996
    19  C    9.037393   8.752874   7.359539   9.561285  10.112084
    20  H    9.375107   8.582110   8.455113  10.342395  10.380549
    21  H    8.841272   9.087428   6.426805   8.859081   9.932482
    22  H   10.122909   9.836490   8.342159  10.596921  11.199610
    23  C    4.777616   4.515406   4.058559   5.676573   5.832475
    24  O    6.383446   6.884224   3.934650   6.337227   7.468118
    25  H    4.945503   5.513610   2.786275   5.031971   6.031872
                   11         12         13         14         15
    11  N    0.000000
    12  S    2.612506   0.000000
    13  C    2.381936   2.924488   0.000000
    14  C    3.706063   3.428458   1.396458   0.000000
    15  C    2.727021   4.230172   1.498881   2.471340   0.000000
    16  C    4.824866   4.844649   2.450388   1.416479   2.816489
    17  H    4.129816   3.078354   2.161471   1.095007   3.479698
    18  C    4.148056   5.434901   2.519064   2.830033   1.421038
    19  C    5.014851   5.694604   2.880932   2.465120   2.453755
    20  H    5.803211   5.465483   3.423830   2.162544   3.909024
    21  H    4.733137   6.350883   3.489956   3.922285   2.140242
    22  H    6.078182   6.763332   3.972379   3.450372   3.444197
    23  C    1.356733   1.780562   1.433014   2.524460   2.493983
    24  O    2.385515   4.577963   2.423882   3.644914   1.274701
    25  H    1.032101   3.548215   2.410412   3.806529   2.140416
                   16         17         18         19         20
    16  C    0.000000
    17  H    2.169689   0.000000
    18  C    2.410830   3.924190   0.000000
    19  C    1.403414   3.442008   1.392545   0.000000
    20  H    1.092540   2.467903   3.400530   2.162949   0.000000
    21  H    3.421770   5.016872   1.093409   2.184474   4.331388
    22  H    2.169380   4.332849   2.162932   1.091740   2.493580
    23  C    3.804032   2.797565   3.793056   4.310220   4.682136
    24  O    4.090661   4.567336   2.325731   3.599723   5.183178
    25  H    4.681380   4.468344   3.509084   4.580456   5.735810
                   21         22         23         24         25
    21  H    0.000000
    22  H    2.535981   0.000000
    23  C    4.633102   5.401957   0.000000
    24  O    2.525946   4.485593   2.814553   0.000000
    25  H    3.919490   5.584606   1.982456   1.439644   0.000000
 Symmetry turned off by external request.
 Stoichiometry    C13H9NOS
 Framework group  C1[X(C13H9NOS)]
 Deg. of freedom    69
 Full point group                 C1      NOp   1
 Rotational constants (GHZ):           1.3533618           0.2853188           0.2356406
 Leave Link  202 at Tue Oct 27 20:40:12 2020, MaxMem=  7784628224 cpu:               0.3 elap:               0.1
 (Enter /gpfs/loomis/apps/avx/software/Gaussian/16-C.01_AVX/g16/l301.exe)
 Standard basis: CC-pVDZ (5D, 7F)
 Ernie: Thresh=  0.10000D-02 Tol=  0.10000D-05 Strict=F.
 Ernie:  40 primitive shells out of 425 were deleted.
   273 basis functions,   629 primitive gaussians,   289 cartesian basis functions
    59 alpha electrons       59 beta electrons
       nuclear repulsion energy      1095.4927257071 Hartrees.
 IExCor= 4639 DFT=T Ex+Corr=wB97XD ExCW=0 ScaHFX=  1.000000
 ScaDFX=  1.000000  1.000000  1.000000  1.000000 ScalE2=  1.000000  1.000000
 IRadAn=      5 IRanWt=     -1 IRanGd=            0 ICorTp=0 IEmpDi=121
 HFx  wShort=  0.000000 wLong=  0.200000 cFull=  0.222036 cShort=  0.000000 cLong=  0.777964
 DFx  wShort=  0.000000 wLong=  0.200000 cFull=  0.000000 cShort=  0.000000 cLong=  1.000000
 NAtoms=   25 NActive=   25 NUniq=   25 SFac= 1.00D+00 NAtFMM=   60 NAOKFM=F Big=F
 Integral buffers will be    131072 words long.
 Raffenetti 2 integral format.
 Two-electron integral symmetry is turned off.
 R6Disp:  Grimme-D2 Dispersion energy=       -0.0140727346 Hartrees.
 Nuclear repulsion after empirical dispersion term =     1095.4786529725 Hartrees.
 ------------------------------------------------------------------------------
 Polarizable Continuum Model (PCM)
 =================================
 Model                : PCM.
 Atomic radii         : UFF (Universal Force Field).
 Polarization charges : Total charges.
 Charge compensation  : None.
 Solution method      : On-the-fly selection.
 Cavity type          : Scaled VdW (van der Waals Surface) (Alpha=1.100).
 Cavity algorithm     : GePol (No added spheres)
                        Default sphere list used, NSphG=   25.
                        Lebedev-Laikov grids with approx.  5.0 points / Ang**2.
                        Smoothing algorithm: York/Karplus (Gamma=1.0000).
                        Polarization charges: spherical gaussians, with
                                              point-specific exponents (IZeta= 3).
                        Self-potential: point-specific (ISelfS= 7).
                        Self-field    : sphere-specific E.n sum rule (ISelfD= 2).
 1st derivatives      : Analytical E(r).r(x)/FMM algorithm (CHGder, D1EAlg=3).
                        Cavity 1st derivative terms included.
 Solvent              : CarbonTetraChloride, Eps=   2.228000 Eps(inf)=   2.131892
 ------------------------------------------------------------------------------
 GePol: Number of generator spheres                  =      25
 GePol: Total number of spheres                      =      25
 GePol: Number of exposed spheres                    =      25 (100.00%)
 GePol: Number of points                             =    2194
 GePol: Average weight of points                     =       0.13
 GePol: Minimum weight of points                     =   0.51D-08
 GePol: Maximum weight of points                     =    0.20577
 GePol: Number of points with low weight             =     127
 GePol: Fraction of low-weight points (<1% of avg)   =       5.79%
 GePol: Cavity surface area                          =    275.685 Ang**2
 GePol: Cavity volume                                =    294.660 Ang**3
 Leave Link  301 at Tue Oct 27 20:40:12 2020, MaxMem=  7784628224 cpu:               0.8 elap:               0.1
 (Enter /gpfs/loomis/apps/avx/software/Gaussian/16-C.01_AVX/g16/l302.exe)
 NPDir=0 NMtPBC=     1 NCelOv=     1 NCel=       1 NClECP=     1 NCelD=      1
         NCelK=      1 NCelE2=     1 NClLst=     1 CellRange=     0.0.
 One-electron integrals computed using PRISM.
 NBasis=   273 RedAO= T EigKep=  3.12D-04  NBF=   273
 NBsUse=   273 1.00D-06 EigRej= -1.00D+00 NBFU=   273
 Precomputing XC quadrature grid using
 IXCGrd= 4 IRadAn=           5 IRanWt=          -1 IRanGd=           0 AccXCQ= 0.00D+00.
 Generated NRdTot=       0 NPtTot=           0 NUsed=           0 NTot=          32
 NSgBfM=   288   288   288   288   288 MxSgAt=    25 MxSgA2=    25.
 Leave Link  302 at Tue Oct 27 20:40:13 2020, MaxMem=  7784628224 cpu:               2.6 elap:               0.3
 (Enter /gpfs/loomis/apps/avx/software/Gaussian/16-C.01_AVX/g16/l303.exe)
 DipDrv:  MaxL=1.
 Leave Link  303 at Tue Oct 27 20:40:13 2020, MaxMem=  7784628224 cpu:               0.5 elap:               0.1
 (Enter /gpfs/loomis/apps/avx/software/Gaussian/16-C.01_AVX/g16/l401.exe)
 ExpMin= 1.22D-01 ExpMax= 1.11D+05 ExpMxC= 1.07D+03 IAcc=3 IRadAn=         5 AccDes= 0.00D+00
 Harris functional with IExCor= 4639 and IRadAn=       5 diagonalized for initial guess.
 HarFok:  IExCor= 4639 AccDes= 0.00D+00 IRadAn=         5 IDoV= 1 UseB2=F ITyADJ=14
 ICtDFT=  3500011 ScaDFX=  1.000000  1.000000  1.000000  1.000000
 FoFCou: FMM=F IPFlag=           0 FMFlag=      100000 FMFlg1=           0
         NFxFlg=           0 DoJE=T BraDBF=F KetDBF=T FulRan=T
         wScrn=  0.000000 ICntrl=       500 IOpCl=  0 I1Cent=   200000004 NGrid=           0
         NMat0=    1 NMatS0=      1 NMatT0=    0 NMatD0=    1 NMtDS0=    0 NMtDT0=    0
 Symmetry not used in FoFCou.
 Harris En= -994.457395208010    
 JPrj=0 DoOrth=F DoCkMO=F.
 Leave Link  401 at Tue Oct 27 20:40:14 2020, MaxMem=  7784628224 cpu:              14.0 elap:               1.4
 (Enter /gpfs/loomis/apps/avx/software/Gaussian/16-C.01_AVX/g16/l502.exe)
 Two-electron integral symmetry not used.
 Closed shell SCF:
 Using DIIS extrapolation, IDIIS=  1040.
 NGot=  7784628224 LenX=  7784455381 LenY=  7784371419
 Requested convergence on RMS density matrix=1.00D-08 within 128 cycles.
 Requested convergence on MAX density matrix=1.00D-06.
 Requested convergence on             energy=1.00D-06.
 No special actions if energy rises.
 Fock matrices will be formed incrementally for  20 cycles.

 Cycle   1  Pass 1  IDiag  1:
 FoFJK:  IHMeth= 1 ICntrl=       0 DoSepK=T KAlg= 0 I1Cent=           0 FoldK=F
 IRaf=         1 NMat=       1 IRICut=       1 DoRegI=T DoRafI=F ISym2E= 0 IDoP0=0 IntGTp=1.
 FoFCou: FMM=F IPFlag=           0 FMFlag=      100000 FMFlg1=           0
         NFxFlg=           0 DoJE=T BraDBF=F KetDBF=F FulRan=T
         wScrn=  0.000000 ICntrl=       500 IOpCl=  0 I1Cent=           0 NGrid=           0
         NMat0=    1 NMatS0=      1 NMatT0=    0 NMatD0=    1 NMtDS0=    0 NMtDT0=    0
 Symmetry not used in FoFCou.
 Inv3:  Mode=1 IEnd=    14440908.
 Iteration    1 A*A^-1 deviation from unit magnitude is 3.55D-15 for   2190.
 Iteration    1 A*A^-1 deviation from orthogonality  is 2.24D-15 for   1283    415.
 Iteration    1 A^-1*A deviation from unit magnitude is 3.55D-15 for   2190.
 Iteration    1 A^-1*A deviation from orthogonality  is 1.73D-15 for   2107   1349.
 E= -1028.55336726966    
 DIIS: error= 4.05D-02 at cycle   1 NSaved=   1.
 NSaved= 1 IEnMin= 1 EnMin= -1028.55336726966     IErMin= 1 ErrMin= 4.05D-02
 ErrMax= 4.05D-02  0.00D+00 EMaxC= 1.00D-01 BMatC= 3.96D-01 BMatP= 3.96D-01
 IDIUse=3 WtCom= 5.95D-01 WtEn= 4.05D-01
 Coeff-Com:  0.100D+01
 Coeff-En:   0.100D+01
 Coeff:      0.100D+01
 Gap=     0.321 Goal=   None    Shift=    0.000
 GapD=    0.321 DampG=1.000 DampE=0.500 DampFc=0.5000 IDamp=-1.
 Damping current iteration by 5.00D-01
 RMSDP=3.62D-03 MaxDP=2.37D-01              OVMax= 1.90D-01

 Cycle   2  Pass 1  IDiag  1:
 RMSU=  1.81D-03    CP:  9.94D-01
 E= -1028.67511036218     Delta-E=       -0.121743092521 Rises=F Damp=T
 DIIS: error= 1.11D-02 at cycle   2 NSaved=   2.
 NSaved= 2 IEnMin= 2 EnMin= -1028.67511036218     IErMin= 2 ErrMin= 1.11D-02
 ErrMax= 1.11D-02  0.00D+00 EMaxC= 1.00D-01 BMatC= 5.85D-02 BMatP= 3.96D-01
 IDIUse=3 WtCom= 8.89D-01 WtEn= 1.11D-01
 Coeff-Com: -0.279D+00 0.128D+01
 Coeff-En:   0.000D+00 0.100D+01
 Coeff:     -0.248D+00 0.125D+01
 Gap=     0.288 Goal=   None    Shift=    0.000
 RMSDP=1.16D-03 MaxDP=2.55D-02 DE=-1.22D-01 OVMax= 1.32D-01

 Cycle   3  Pass 1  IDiag  1:
 RMSU=  1.12D-03    CP:  9.92D-01  1.17D+00
 E= -1028.78443924478     Delta-E=       -0.109328882598 Rises=F Damp=F
 DIIS: error= 7.39D-03 at cycle   3 NSaved=   3.
 NSaved= 3 IEnMin= 3 EnMin= -1028.78443924478     IErMin= 3 ErrMin= 7.39D-03
 ErrMax= 7.39D-03  0.00D+00 EMaxC= 1.00D-01 BMatC= 1.57D-02 BMatP= 5.85D-02
 IDIUse=3 WtCom= 9.26D-01 WtEn= 7.39D-02
 Coeff-Com: -0.204D+00 0.499D+00 0.705D+00
 Coeff-En:   0.000D+00 0.000D+00 0.100D+01
 Coeff:     -0.189D+00 0.462D+00 0.727D+00
 Gap=     0.241 Goal=   None    Shift=    0.000
 RMSDP=5.58D-04 MaxDP=1.91D-02 DE=-1.09D-01 OVMax= 4.41D-02

 Cycle   4  Pass 1  IDiag  1:
 RMSU=  4.42D-04    CP:  9.91D-01  1.33D+00  8.38D-01
 E= -1028.79965366647     Delta-E=       -0.015214421695 Rises=F Damp=F
 DIIS: error= 2.43D-03 at cycle   4 NSaved=   4.
 NSaved= 4 IEnMin= 4 EnMin= -1028.79965366647     IErMin= 4 ErrMin= 2.43D-03
 ErrMax= 2.43D-03  0.00D+00 EMaxC= 1.00D-01 BMatC= 1.98D-03 BMatP= 1.57D-02
 IDIUse=3 WtCom= 9.76D-01 WtEn= 2.43D-02
 Coeff-Com: -0.717D-01 0.142D+00 0.346D+00 0.583D+00
 Coeff-En:   0.000D+00 0.000D+00 0.000D+00 0.100D+01
 Coeff:     -0.700D-01 0.138D+00 0.338D+00 0.594D+00
 Gap=     0.242 Goal=   None    Shift=    0.000
 RMSDP=1.78D-04 MaxDP=1.03D-02 DE=-1.52D-02 OVMax= 1.35D-02

 Cycle   5  Pass 1  IDiag  1:
 RMSU=  1.12D-04    CP:  9.90D-01  1.34D+00  9.13D-01  7.58D-01
 E= -1028.80182661110     Delta-E=       -0.002172944633 Rises=F Damp=F
 DIIS: error= 5.02D-04 at cycle   5 NSaved=   5.
 NSaved= 5 IEnMin= 5 EnMin= -1028.80182661110     IErMin= 5 ErrMin= 5.02D-04
 ErrMax= 5.02D-04  0.00D+00 EMaxC= 1.00D-01 BMatC= 5.99D-05 BMatP= 1.98D-03
 IDIUse=3 WtCom= 9.95D-01 WtEn= 5.02D-03
 Coeff-Com: -0.770D-03-0.482D-02 0.279D-01 0.155D+00 0.823D+00
 Coeff-En:   0.000D+00 0.000D+00 0.000D+00 0.000D+00 0.100D+01
 Coeff:     -0.766D-03-0.480D-02 0.278D-01 0.154D+00 0.824D+00
 Gap=     0.243 Goal=   None    Shift=    0.000
 RMSDP=5.78D-05 MaxDP=1.76D-03 DE=-2.17D-03 OVMax= 6.26D-03

 Cycle   6  Pass 1  IDiag  1:
 RMSU=  3.68D-05    CP:  9.90D-01  1.34D+00  9.31D-01  8.43D-01  1.10D+00
 E= -1028.80196572839     Delta-E=       -0.000139117290 Rises=F Damp=F
 DIIS: error= 2.19D-04 at cycle   6 NSaved=   6.
 NSaved= 6 IEnMin= 6 EnMin= -1028.80196572839     IErMin= 6 ErrMin= 2.19D-04
 ErrMax= 2.19D-04  0.00D+00 EMaxC= 1.00D-01 BMatC= 1.16D-05 BMatP= 5.99D-05
 IDIUse=3 WtCom= 9.98D-01 WtEn= 2.19D-03
 Coeff-Com:  0.162D-01-0.333D-01-0.642D-01-0.733D-01 0.227D+00 0.928D+00
 Coeff-En:   0.000D+00 0.000D+00 0.000D+00 0.000D+00 0.000D+00 0.100D+01
 Coeff:      0.161D-01-0.332D-01-0.640D-01-0.732D-01 0.226D+00 0.928D+00
 Gap=     0.244 Goal=   None    Shift=    0.000
 RMSDP=3.60D-05 MaxDP=1.62D-03 DE=-1.39D-04 OVMax= 3.94D-03

 Cycle   7  Pass 1  IDiag  1:
 RMSU=  1.78D-05    CP:  9.90D-01  1.34D+00  9.42D-01  8.76D-01  1.29D+00
                    CP:  1.33D+00
 E= -1028.80200324104     Delta-E=       -0.000037512646 Rises=F Damp=F
 DIIS: error= 9.93D-05 at cycle   7 NSaved=   7.
 NSaved= 7 IEnMin= 7 EnMin= -1028.80200324104     IErMin= 7 ErrMin= 9.93D-05
 ErrMax= 9.93D-05  0.00D+00 EMaxC= 1.00D-01 BMatC= 2.34D-06 BMatP= 1.16D-05
 IDIUse=1 WtCom= 1.00D+00 WtEn= 0.00D+00
 Coeff-Com:  0.677D-02-0.128D-01-0.290D-01-0.512D-01-0.927D-02 0.376D+00
 Coeff-Com:  0.719D+00
 Coeff:      0.677D-02-0.128D-01-0.290D-01-0.512D-01-0.927D-02 0.376D+00
 Coeff:      0.719D+00
 Gap=     0.244 Goal=   None    Shift=    0.000
 RMSDP=1.23D-05 MaxDP=4.69D-04 DE=-3.75D-05 OVMax= 1.73D-03

 Cycle   8  Pass 1  IDiag  1:
 RMSU=  7.23D-06    CP:  9.90D-01  1.34D+00  9.44D-01  8.82D-01  1.33D+00
                    CP:  1.53D+00  1.16D+00
 E= -1028.80200918467     Delta-E=       -0.000005943626 Rises=F Damp=F
 DIIS: error= 4.76D-05 at cycle   8 NSaved=   8.
 NSaved= 8 IEnMin= 8 EnMin= -1028.80200918467     IErMin= 8 ErrMin= 4.76D-05
 ErrMax= 4.76D-05  0.00D+00 EMaxC= 1.00D-01 BMatC= 5.08D-07 BMatP= 2.34D-06
 IDIUse=1 WtCom= 1.00D+00 WtEn= 0.00D+00
 Coeff-Com: -0.161D-02 0.351D-02 0.673D-02 0.218D-02-0.422D-01-0.106D+00
 Coeff-Com:  0.242D+00 0.895D+00
 Coeff:     -0.161D-02 0.351D-02 0.673D-02 0.218D-02-0.422D-01-0.106D+00
 Coeff:      0.242D+00 0.895D+00
 Gap=     0.244 Goal=   None    Shift=    0.000
 RMSDP=7.44D-06 MaxDP=1.75D-04 DE=-5.94D-06 OVMax= 1.09D-03

 Cycle   9  Pass 1  IDiag  1:
 RMSU=  3.13D-06    CP:  9.90D-01  1.34D+00  9.44D-01  8.82D-01  1.34D+00
                    CP:  1.64D+00  1.44D+00  1.21D+00
 E= -1028.80201084645     Delta-E=       -0.000001661786 Rises=F Damp=F
 DIIS: error= 2.70D-05 at cycle   9 NSaved=   9.
 NSaved= 9 IEnMin= 9 EnMin= -1028.80201084645     IErMin= 9 ErrMin= 2.70D-05
 ErrMax= 2.70D-05  0.00D+00 EMaxC= 1.00D-01 BMatC= 7.60D-08 BMatP= 5.08D-07
 IDIUse=1 WtCom= 1.00D+00 WtEn= 0.00D+00
 Coeff-Com: -0.123D-02 0.243D-02 0.567D-02 0.707D-02-0.935D-02-0.952D-01
 Coeff-Com: -0.270D-01 0.246D+00 0.872D+00
 Coeff:     -0.123D-02 0.243D-02 0.567D-02 0.707D-02-0.935D-02-0.952D-01
 Coeff:     -0.270D-01 0.246D+00 0.872D+00
 Gap=     0.244 Goal=   None    Shift=    0.000
 RMSDP=3.58D-06 MaxDP=1.14D-04 DE=-1.66D-06 OVMax= 6.43D-04

 Cycle  10  Pass 1  IDiag  1:
 RMSU=  1.55D-06    CP:  9.90D-01  1.34D+00  9.44D-01  8.82D-01  1.35D+00
                    CP:  1.69D+00  1.54D+00  1.43D+00  1.25D+00
 E= -1028.80201121370     Delta-E=       -0.000000367251 Rises=F Damp=F
 DIIS: error= 1.35D-05 at cycle  10 NSaved=  10.
 NSaved=10 IEnMin=10 EnMin= -1028.80201121370     IErMin=10 ErrMin= 1.35D-05
 ErrMax= 1.35D-05  0.00D+00 EMaxC= 1.00D-01 BMatC= 3.29D-08 BMatP= 7.60D-08
 IDIUse=1 WtCom= 1.00D+00 WtEn= 0.00D+00
 Coeff-Com: -0.103D-03 0.127D-03 0.839D-03 0.235D-02 0.669D-02-0.179D-01
 Coeff-Com: -0.639D-01-0.139D+00 0.421D+00 0.790D+00
 Coeff:     -0.103D-03 0.127D-03 0.839D-03 0.235D-02 0.669D-02-0.179D-01
 Coeff:     -0.639D-01-0.139D+00 0.421D+00 0.790D+00
 Gap=     0.244 Goal=   None    Shift=    0.000
 RMSDP=2.01D-06 MaxDP=4.52D-05 DE=-3.67D-07 OVMax= 3.12D-04

 Cycle  11  Pass 1  IDiag  1:
 RMSU=  6.74D-07    CP:  9.90D-01  1.34D+00  9.44D-01  8.82D-01  1.35D+00
                    CP:  1.71D+00  1.60D+00  1.53D+00  1.62D+00  1.09D+00
 E= -1028.80201131181     Delta-E=       -0.000000098104 Rises=F Damp=F
 DIIS: error= 5.27D-06 at cycle  11 NSaved=  11.
 NSaved=11 IEnMin=11 EnMin= -1028.80201131181     IErMin=11 ErrMin= 5.27D-06
 ErrMax= 5.27D-06  0.00D+00 EMaxC= 1.00D-01 BMatC= 3.72D-09 BMatP= 3.29D-08
 IDIUse=1 WtCom= 1.00D+00 WtEn= 0.00D+00
 Coeff-Com:  0.300D-03-0.620D-03-0.110D-02-0.104D-02 0.556D-02 0.140D-01
 Coeff-Com: -0.131D-01-0.107D+00 0.284D-03 0.221D+00 0.882D+00
 Coeff:      0.300D-03-0.620D-03-0.110D-02-0.104D-02 0.556D-02 0.140D-01
 Coeff:     -0.131D-01-0.107D+00 0.284D-03 0.221D+00 0.882D+00
 Gap=     0.244 Goal=   None    Shift=    0.000
 RMSDP=7.51D-07 MaxDP=2.02D-05 DE=-9.81D-08 OVMax= 1.40D-04

 Cycle  12  Pass 1  IDiag  1:
 RMSU=  2.52D-07    CP:  9.90D-01  1.34D+00  9.44D-01  8.82D-01  1.36D+00
                    CP:  1.71D+00  1.61D+00  1.56D+00  1.76D+00  1.32D+00
                    CP:  1.16D+00
 E= -1028.80201132699     Delta-E=       -0.000000015186 Rises=F Damp=F
 DIIS: error= 1.35D-06 at cycle  12 NSaved=  12.
 NSaved=12 IEnMin=12 EnMin= -1028.80201132699     IErMin=12 ErrMin= 1.35D-06
 ErrMax= 1.35D-06  0.00D+00 EMaxC= 1.00D-01 BMatC= 9.48D-10 BMatP= 3.72D-09
 IDIUse=1 WtCom= 1.00D+00 WtEn= 0.00D+00
 Coeff-Com:  0.140D-03-0.274D-03-0.585D-03-0.933D-03 0.122D-02 0.890D-02
 Coeff-Com:  0.709D-02-0.203D-01-0.754D-01-0.943D-01 0.341D+00 0.833D+00
 Coeff:      0.140D-03-0.274D-03-0.585D-03-0.933D-03 0.122D-02 0.890D-02
 Coeff:      0.709D-02-0.203D-01-0.754D-01-0.943D-01 0.341D+00 0.833D+00
 Gap=     0.244 Goal=   None    Shift=    0.000
 RMSDP=3.70D-07 MaxDP=9.12D-06 DE=-1.52D-08 OVMax= 5.75D-05

 Cycle  13  Pass 1  IDiag  1:
 RMSU=  9.60D-08    CP:  9.90D-01  1.34D+00  9.44D-01  8.82D-01  1.36D+00
                    CP:  1.71D+00  1.62D+00  1.58D+00  1.84D+00  1.40D+00
                    CP:  1.40D+00  1.10D+00
 E= -1028.80201132976     Delta-E=       -0.000000002762 Rises=F Damp=F
 DIIS: error= 6.28D-07 at cycle  13 NSaved=  13.
 NSaved=13 IEnMin=13 EnMin= -1028.80201132976     IErMin=13 ErrMin= 6.28D-07
 ErrMax= 6.28D-07  0.00D+00 EMaxC= 1.00D-01 BMatC= 5.99D-11 BMatP= 9.48D-10
 IDIUse=1 WtCom= 1.00D+00 WtEn= 0.00D+00
 Coeff-Com: -0.667D-05 0.165D-04 0.146D-04-0.918D-04-0.242D-03 0.403D-03
 Coeff-Com:  0.307D-02 0.745D-02-0.130D-01-0.534D-01-0.303D-01 0.183D+00
 Coeff-Com:  0.903D+00
 Coeff:     -0.667D-05 0.165D-04 0.146D-04-0.918D-04-0.242D-03 0.403D-03
 Coeff:      0.307D-02 0.745D-02-0.130D-01-0.534D-01-0.303D-01 0.183D+00
 Coeff:      0.903D+00
 Gap=     0.244 Goal=   None    Shift=    0.000
 RMSDP=8.98D-08 MaxDP=2.38D-06 DE=-2.76D-09 OVMax= 1.26D-05

 Cycle  14  Pass 1  IDiag  1:
 RMSU=  3.79D-08    CP:  9.90D-01  1.34D+00  9.44D-01  8.82D-01  1.36D+00
                    CP:  1.71D+00  1.62D+00  1.58D+00  1.85D+00  1.42D+00
                    CP:  1.46D+00  1.24D+00  1.14D+00
 E= -1028.80201132995     Delta-E=       -0.000000000190 Rises=F Damp=F
 DIIS: error= 2.47D-07 at cycle  14 NSaved=  14.
 NSaved=14 IEnMin=14 EnMin= -1028.80201132995     IErMin=14 ErrMin= 2.47D-07
 ErrMax= 2.47D-07  0.00D+00 EMaxC= 1.00D-01 BMatC= 1.27D-11 BMatP= 5.99D-11
 IDIUse=1 WtCom= 1.00D+00 WtEn= 0.00D+00
 Coeff-Com: -0.150D-04 0.308D-04 0.586D-04 0.426D-04-0.205D-03-0.621D-03
 Coeff-Com:  0.670D-03 0.496D-02 0.223D-02-0.136D-01-0.432D-01-0.712D-02
 Coeff-Com:  0.395D+00 0.662D+00
 Coeff:     -0.150D-04 0.308D-04 0.586D-04 0.426D-04-0.205D-03-0.621D-03
 Coeff:      0.670D-03 0.496D-02 0.223D-02-0.136D-01-0.432D-01-0.712D-02
 Coeff:      0.395D+00 0.662D+00
 Gap=     0.244 Goal=   None    Shift=    0.000
 RMSDP=2.09D-08 MaxDP=5.02D-07 DE=-1.90D-10 OVMax= 1.68D-06

 Cycle  15  Pass 1  IDiag  1:
 RMSU=  1.43D-08    CP:  9.90D-01  1.34D+00  9.44D-01  8.82D-01  1.36D+00
                    CP:  1.71D+00  1.62D+00  1.58D+00  1.85D+00  1.42D+00
                    CP:  1.47D+00  1.27D+00  1.25D+00  9.73D-01
 E= -1028.80201132996     Delta-E=       -0.000000000015 Rises=F Damp=F
 DIIS: error= 7.09D-08 at cycle  15 NSaved=  15.
 NSaved=15 IEnMin=15 EnMin= -1028.80201132996     IErMin=15 ErrMin= 7.09D-08
 ErrMax= 7.09D-08  0.00D+00 EMaxC= 1.00D-01 BMatC= 1.17D-12 BMatP= 1.27D-11
 IDIUse=1 WtCom= 1.00D+00 WtEn= 0.00D+00
 Coeff-Com: -0.361D-05 0.674D-05 0.176D-04 0.344D-04-0.269D-04-0.333D-03
 Coeff-Com: -0.492D-03-0.855D-05 0.367D-02 0.716D-02-0.648D-02-0.440D-01
 Coeff-Com: -0.469D-01 0.169D+00 0.919D+00
 Coeff:     -0.361D-05 0.674D-05 0.176D-04 0.344D-04-0.269D-04-0.333D-03
 Coeff:     -0.492D-03-0.855D-05 0.367D-02 0.716D-02-0.648D-02-0.440D-01
 Coeff:     -0.469D-01 0.169D+00 0.919D+00
 Gap=     0.244 Goal=   None    Shift=    0.000
 RMSDP=1.08D-08 MaxDP=2.48D-07 DE=-1.50D-11 OVMax= 1.33D-06

 Cycle  16  Pass 1  IDiag  1:
 RMSU=  5.05D-09    CP:  9.90D-01  1.34D+00  9.44D-01  8.82D-01  1.36D+00
                    CP:  1.71D+00  1.62D+00  1.58D+00  1.85D+00  1.42D+00
                    CP:  1.47D+00  1.28D+00  1.31D+00  1.13D+00  1.12D+00
 E= -1028.80201132997     Delta-E=       -0.000000000005 Rises=F Damp=F
 DIIS: error= 2.63D-08 at cycle  16 NSaved=  16.
 NSaved=16 IEnMin=16 EnMin= -1028.80201132997     IErMin=16 ErrMin= 2.63D-08
 ErrMax= 2.63D-08  0.00D+00 EMaxC= 1.00D-01 BMatC= 1.92D-13 BMatP= 1.17D-12
 IDIUse=1 WtCom= 1.00D+00 WtEn= 0.00D+00
 Coeff-Com: -0.107D-06 0.189D-07 0.166D-05 0.883D-05 0.488D-05-0.622D-04
 Coeff-Com: -0.217D-03-0.344D-03 0.879D-03 0.325D-02 0.108D-02-0.151D-01
 Coeff-Com: -0.459D-01-0.278D-01 0.293D+00 0.791D+00
 Coeff:     -0.107D-06 0.189D-07 0.166D-05 0.883D-05 0.488D-05-0.622D-04
 Coeff:     -0.217D-03-0.344D-03 0.879D-03 0.325D-02 0.108D-02-0.151D-01
 Coeff:     -0.459D-01-0.278D-01 0.293D+00 0.791D+00
 Gap=     0.244 Goal=   None    Shift=    0.000
 RMSDP=3.86D-09 MaxDP=1.01D-07 DE=-4.55D-12 OVMax= 4.72D-07

 Error on total polarization charges =  0.00866
 SCF Done:  E(RwB97XD) =  -1028.80201133     A.U. after   16 cycles
            NFock= 16  Conv=0.39D-08     -V/T= 2.0050
 KE= 1.023687300143D+03 PE=-4.602850407550D+03 EE= 1.454882443104D+03
 Leave Link  502 at Tue Oct 27 20:41:43 2020, MaxMem=  7784628224 cpu:             881.0 elap:              88.8
 (Enter /gpfs/loomis/apps/avx/software/Gaussian/16-C.01_AVX/g16/l601.exe)
 Copying SCF densities to generalized density rwf, IOpCl= 0 IROHF=0.

 **********************************************************************

            Population analysis using the SCF Density.

 **********************************************************************

 Alpha  occ. eigenvalues --  -89.10675 -19.21882 -14.50709 -10.41790 -10.37027
 Alpha  occ. eigenvalues --  -10.36377 -10.36328 -10.33444 -10.32643 -10.32418
 Alpha  occ. eigenvalues --  -10.32334 -10.31745 -10.31590 -10.30997 -10.29465
 Alpha  occ. eigenvalues --  -10.28682  -8.12557  -6.07442  -6.07077  -6.06573
 Alpha  occ. eigenvalues --   -1.13221  -1.09751  -0.97945  -0.94962  -0.92985
 Alpha  occ. eigenvalues --   -0.89081  -0.86165  -0.83880  -0.81382  -0.76002
 Alpha  occ. eigenvalues --   -0.72669  -0.71613  -0.68897  -0.67800  -0.64760
 Alpha  occ. eigenvalues --   -0.60761  -0.59529  -0.56947  -0.55503  -0.55388
 Alpha  occ. eigenvalues --   -0.54686  -0.53476  -0.52982  -0.50960  -0.49463
 Alpha  occ. eigenvalues --   -0.48887  -0.48279  -0.46698  -0.45226  -0.45021
 Alpha  occ. eigenvalues --   -0.44244  -0.43006  -0.41968  -0.40450  -0.36704
 Alpha  occ. eigenvalues --   -0.33407  -0.32657  -0.31355  -0.26356
 Alpha virt. eigenvalues --   -0.01975   0.03857   0.06089   0.06122   0.08878
 Alpha virt. eigenvalues --    0.10372   0.12432   0.14665   0.16066   0.17498
 Alpha virt. eigenvalues --    0.18963   0.20339   0.21228   0.21414   0.22831
 Alpha virt. eigenvalues --    0.23481   0.23816   0.25052   0.28801   0.29765
 Alpha virt. eigenvalues --    0.31272   0.33158   0.35480   0.35805   0.36479
 Alpha virt. eigenvalues --    0.38424   0.38731   0.40139   0.42549   0.43893
 Alpha virt. eigenvalues --    0.46234   0.48427   0.49749   0.51217   0.51418
 Alpha virt. eigenvalues --    0.52529   0.52949   0.53353   0.54425   0.55398
 Alpha virt. eigenvalues --    0.55859   0.56164   0.56191   0.56704   0.57774
 Alpha virt. eigenvalues --    0.58013   0.58694   0.59203   0.59503   0.59813
 Alpha virt. eigenvalues --    0.60249   0.61373   0.61734   0.62146   0.62897
 Alpha virt. eigenvalues --    0.64718   0.65798   0.67067   0.68264   0.68651
 Alpha virt. eigenvalues --    0.69976   0.70555   0.71967   0.72079   0.72744
 Alpha virt. eigenvalues --    0.73425   0.74897   0.75141   0.76280   0.77035
 Alpha virt. eigenvalues --    0.79079   0.79254   0.80042   0.81871   0.82144
 Alpha virt. eigenvalues --    0.82693   0.87202   0.88867   0.90953   0.92230
 Alpha virt. eigenvalues --    0.93563   0.94673   0.95727   0.96349   0.96885
 Alpha virt. eigenvalues --    0.98524   0.99097   0.99749   1.00207   1.01040
 Alpha virt. eigenvalues --    1.02438   1.04803   1.05406   1.06398   1.07275
 Alpha virt. eigenvalues --    1.07745   1.08315   1.10258   1.10698   1.11415
 Alpha virt. eigenvalues --    1.11631   1.12473   1.13146   1.14641   1.15458
 Alpha virt. eigenvalues --    1.16612   1.18263   1.20138   1.23568   1.24257
 Alpha virt. eigenvalues --    1.26700   1.27158   1.32213   1.32560   1.34215
 Alpha virt. eigenvalues --    1.35000   1.35706   1.38525   1.40778   1.45358
 Alpha virt. eigenvalues --    1.49052   1.49462   1.53161   1.53669   1.54972
 Alpha virt. eigenvalues --    1.56377   1.56792   1.57399   1.58290   1.59639
 Alpha virt. eigenvalues --    1.59663   1.61338   1.64470   1.64879   1.67811
 Alpha virt. eigenvalues --    1.68157   1.69331   1.70004   1.70501   1.71867
 Alpha virt. eigenvalues --    1.72067   1.72355   1.72878   1.73673   1.74845
 Alpha virt. eigenvalues --    1.77789   1.79608   1.79808   1.81216   1.81851
 Alpha virt. eigenvalues --    1.82598   1.83539   1.84488   1.85211   1.85621
 Alpha virt. eigenvalues --    1.86826   1.89085   1.90753   1.91397   1.92079
 Alpha virt. eigenvalues --    1.92471   1.92714   1.94590   1.96309   1.97104
 Alpha virt. eigenvalues --    1.98356   2.00020   2.01326   2.04130   2.04207
 Alpha virt. eigenvalues --    2.05299   2.06847   2.08984   2.10009   2.11829
 Alpha virt. eigenvalues --    2.15146   2.17150   2.19164   2.21124   2.23605
 Alpha virt. eigenvalues --    2.26881   2.30258   2.33878   2.38196   2.39291
 Alpha virt. eigenvalues --    2.41193   2.41860   2.46295   2.47170   2.48566
 Alpha virt. eigenvalues --    2.48677   2.50549   2.52455   2.53556   2.61054
 Alpha virt. eigenvalues --    2.61851   2.69218   2.72951   2.74826   2.79606
 Alpha virt. eigenvalues --    2.81270   2.82394   2.85365   2.86749   2.88795
 Alpha virt. eigenvalues --    2.92255   3.00860   3.13872   3.28347   3.43354
 Alpha virt. eigenvalues --    3.49127   3.54784   3.56566   3.77408
          Condensed to atoms (all electrons):
               1          2          3          4          5          6
     1  C    4.728230   0.483408   0.002702  -0.048641  -0.013062   0.520795
     2  C    0.483408   5.350391   0.309684  -0.061681  -0.063007  -0.011856
     3  C    0.002702   0.309684   4.809409   0.522033  -0.005639  -0.063367
     4  C   -0.048641  -0.061681   0.522033   4.787982   0.521871  -0.018337
     5  C   -0.013062  -0.063007  -0.005639   0.521871   4.717167   0.497979
     6  C    0.520795  -0.011856  -0.063367  -0.018337   0.497979   4.740067
     7  H    0.404576  -0.041625   0.008485  -0.000469   0.007993  -0.036961
     8  H   -0.000601   0.010377  -0.024079   0.392851  -0.040717   0.007215
     9  H    0.008329  -0.000330   0.008088  -0.038572   0.405427  -0.043165
    10  H   -0.041882   0.009524  -0.000632   0.008771  -0.043109   0.406924
    11  N    0.004220  -0.041753   0.408385  -0.051570   0.002686   0.000398
    12  S   -0.059637   0.336254  -0.122109   0.004179   0.000235   0.003372
    13  C   -0.000164   0.001876   0.012796  -0.000635   0.000010  -0.000001
    14  C   -0.000002   0.000019   0.000167   0.000005  -0.000000  -0.000000
    15  C    0.000000  -0.000264   0.000854   0.000095  -0.000000   0.000000
    16  C    0.000000  -0.000001   0.000004   0.000000   0.000000   0.000000
    17  H   -0.000002   0.000040  -0.000004  -0.000000   0.000000  -0.000000
    18  C    0.000000   0.000008  -0.000044  -0.000000  -0.000000   0.000000
    19  C   -0.000000   0.000000   0.000002  -0.000000   0.000000   0.000000
    20  H   -0.000000  -0.000000  -0.000000   0.000000  -0.000000  -0.000000
    21  H   -0.000000   0.000000   0.000000  -0.000000   0.000000   0.000000
    22  H    0.000000  -0.000000  -0.000000  -0.000000  -0.000000  -0.000000
    23  C    0.003249  -0.049911  -0.105279   0.003666   0.000186  -0.000200
    24  O    0.000002  -0.000203  -0.000996   0.000007  -0.000001  -0.000000
    25  H    0.000114   0.008355  -0.026155  -0.007190  -0.000121  -0.000009
               7          8          9         10         11         12
     1  C    0.404576  -0.000601   0.008329  -0.041882   0.004220  -0.059637
     2  C   -0.041625   0.010377  -0.000330   0.009524  -0.041753   0.336254
     3  C    0.008485  -0.024079   0.008088  -0.000632   0.408385  -0.122109
     4  C   -0.000469   0.392851  -0.038572   0.008771  -0.051570   0.004179
     5  C    0.007993  -0.040717   0.405427  -0.043109   0.002686   0.000235
     6  C   -0.036961   0.007215  -0.043165   0.406924   0.000398   0.003372
     7  H    0.648036   0.000028  -0.000131  -0.011865  -0.000105  -0.005954
     8  H    0.000028   0.637310  -0.011182  -0.000125  -0.004592  -0.000236
     9  H   -0.000131  -0.011182   0.656191  -0.012049  -0.000115   0.000022
    10  H   -0.011865  -0.000125  -0.012049   0.657419   0.000003  -0.000121
    11  N   -0.000105  -0.004592  -0.000115   0.000003   6.117487  -0.051649
    12  S   -0.005954  -0.000236   0.000022  -0.000121  -0.051649  15.428311
    13  C    0.000006   0.000065  -0.000000  -0.000000  -0.031839  -0.059977
    14  C    0.000000   0.000001   0.000000  -0.000000   0.002956  -0.004446
    15  C   -0.000000  -0.000005   0.000000   0.000000  -0.001008   0.003249
    16  C   -0.000000  -0.000000  -0.000000   0.000000  -0.000096  -0.000068
    17  H    0.000000   0.000000  -0.000000  -0.000000   0.000230   0.004850
    18  C   -0.000000  -0.000000  -0.000000  -0.000000  -0.000541  -0.000074
    19  C    0.000000   0.000000  -0.000000   0.000000   0.000058   0.000016
    20  H   -0.000000  -0.000000   0.000000   0.000000   0.000001  -0.000001
    21  H   -0.000000   0.000000  -0.000000   0.000000   0.000024   0.000003
    22  H    0.000000  -0.000000  -0.000000  -0.000000  -0.000000  -0.000000
    23  C    0.000095  -0.000661   0.000007   0.000003   0.522223   0.321621
    24  O   -0.000000  -0.000311   0.000000  -0.000000  -0.073930  -0.000333
    25  H    0.000004   0.001309  -0.000013  -0.000000   0.317623   0.003209
              13         14         15         16         17         18
     1  C   -0.000164  -0.000002   0.000000   0.000000  -0.000002   0.000000
     2  C    0.001876   0.000019  -0.000264  -0.000001   0.000040   0.000008
     3  C    0.012796   0.000167   0.000854   0.000004  -0.000004  -0.000044
     4  C   -0.000635   0.000005   0.000095   0.000000  -0.000000  -0.000000
     5  C    0.000010  -0.000000  -0.000000   0.000000   0.000000  -0.000000
     6  C   -0.000001  -0.000000   0.000000   0.000000  -0.000000   0.000000
     7  H    0.000006   0.000000  -0.000000  -0.000000   0.000000  -0.000000
     8  H    0.000065   0.000001  -0.000005  -0.000000   0.000000  -0.000000
     9  H   -0.000000   0.000000   0.000000  -0.000000  -0.000000  -0.000000
    10  H   -0.000000  -0.000000   0.000000   0.000000  -0.000000  -0.000000
    11  N   -0.031839   0.002956  -0.001008  -0.000096   0.000230  -0.000541
    12  S   -0.059977  -0.004446   0.003249  -0.000068   0.004850  -0.000074
    13  C    5.432711   0.441403   0.212169  -0.006993  -0.041970  -0.039071
    14  C    0.441403   4.829135   0.011906   0.534674   0.401422  -0.058752
    15  C    0.212169   0.011906   4.737029  -0.058893   0.007048   0.491247
    16  C   -0.006993   0.534674  -0.058893   4.778856  -0.034865  -0.020163
    17  H   -0.041970   0.401422   0.007048  -0.034865   0.683475  -0.000877
    18  C   -0.039071  -0.058752   0.491247  -0.020163  -0.000877   4.849392
    19  C   -0.048425  -0.016691  -0.012973   0.475858   0.008450   0.504022
    20  H    0.009005  -0.036436  -0.000231   0.400410  -0.012570   0.008301
    21  H    0.014531  -0.000678  -0.022128   0.007567   0.000049   0.372914
    22  H   -0.001344   0.009096   0.008889  -0.046217  -0.000175  -0.039040
    23  C    0.344032  -0.095669  -0.079857   0.006988  -0.018947   0.008569
    24  O   -0.082522   0.005574   0.600485  -0.000085  -0.000068  -0.064767
    25  H   -0.031291  -0.000432  -0.021635   0.000037  -0.000048   0.004244
              19         20         21         22         23         24
     1  C   -0.000000  -0.000000  -0.000000   0.000000   0.003249   0.000002
     2  C    0.000000  -0.000000   0.000000  -0.000000  -0.049911  -0.000203
     3  C    0.000002  -0.000000   0.000000  -0.000000  -0.105279  -0.000996
     4  C   -0.000000   0.000000  -0.000000  -0.000000   0.003666   0.000007
     5  C    0.000000  -0.000000   0.000000  -0.000000   0.000186  -0.000001
     6  C    0.000000  -0.000000   0.000000  -0.000000  -0.000200  -0.000000
     7  H    0.000000  -0.000000  -0.000000   0.000000   0.000095  -0.000000
     8  H    0.000000  -0.000000   0.000000  -0.000000  -0.000661  -0.000311
     9  H   -0.000000   0.000000  -0.000000  -0.000000   0.000007   0.000000
    10  H    0.000000   0.000000   0.000000  -0.000000   0.000003  -0.000000
    11  N    0.000058   0.000001   0.000024  -0.000000   0.522223  -0.073930
    12  S    0.000016  -0.000001   0.000003  -0.000000   0.321621  -0.000333
    13  C   -0.048425   0.009005   0.014531  -0.001344   0.344032  -0.082522
    14  C   -0.016691  -0.036436  -0.000678   0.009096  -0.095669   0.005574
    15  C   -0.012973  -0.000231  -0.022128   0.008889  -0.079857   0.600485
    16  C    0.475858   0.400410   0.007567  -0.046217   0.006988  -0.000085
    17  H    0.008450  -0.012570   0.000049  -0.000175  -0.018947  -0.000068
    18  C    0.504022   0.008301   0.372914  -0.039040   0.008569  -0.064767
    19  C    4.746497  -0.047574  -0.047424   0.403290   0.000222   0.004637
    20  H   -0.047574   0.687065  -0.000178  -0.012285  -0.000336   0.000001
    21  H   -0.047424  -0.000178   0.676199  -0.012309  -0.000418   0.005938
    22  H    0.403290  -0.012285  -0.012309   0.673730   0.000010  -0.000091
    23  C    0.000222  -0.000336  -0.000418   0.000010   5.094528  -0.014126
    24  O    0.004637   0.000001   0.005938  -0.000091  -0.014126   7.880395
    25  H   -0.000425  -0.000001   0.000013   0.000009   0.005899   0.138666
              25
     1  C    0.000114
     2  C    0.008355
     3  C   -0.026155
     4  C   -0.007190
     5  C   -0.000121
     6  C   -0.000009
     7  H    0.000004
     8  H    0.001309
     9  H   -0.000013
    10  H   -0.000000
    11  N    0.317623
    12  S    0.003209
    13  C   -0.031291
    14  C   -0.000432
    15  C   -0.021635
    16  C    0.000037
    17  H   -0.000048
    18  C    0.004244
    19  C   -0.000425
    20  H   -0.000001
    21  H    0.000013
    22  H    0.000009
    23  C    0.005899
    24  O    0.138666
    25  H    0.474980
 Mulliken charges:
               1
     1  C    0.008368
     2  C   -0.239306
     3  C    0.265696
     4  C   -0.014363
     5  C    0.012104
     6  C   -0.002856
     7  H    0.027886
     8  H    0.033355
     9  H    0.027494
    10  H    0.027139
    11  N   -0.119098
    12  S    0.199285
    13  C   -0.124372
    14  C   -0.023253
    15  C    0.124024
    16  C   -0.037013
    17  H    0.003963
    18  C   -0.015369
    19  C    0.030460
    20  H    0.004827
    21  H    0.005896
    22  H    0.016437
    23  C    0.054107
    24  O   -0.398271
    25  H    0.132858
 Sum of Mulliken charges =  -0.00000
 Mulliken charges with hydrogens summed into heavy atoms:
               1
     1  C    0.036254
     2  C   -0.239306
     3  C    0.265696
     4  C    0.018992
     5  C    0.039597
     6  C    0.024283
    11  N    0.013760
    12  S    0.199285
    13  C   -0.124372
    14  C   -0.019290
    15  C    0.124024
    16  C   -0.032186
    18  C   -0.009472
    19  C    0.046898
    23  C    0.054107
    24  O   -0.398271
 Electronic spatial extent (au):  <R**2>=           4363.5320
 Charge=             -0.0000 electrons
 Dipole moment (field-independent basis, Debye):
    X=              1.2973    Y=             -4.8688    Z=             -0.0000  Tot=              5.0386
 Quadrupole moment (field-independent basis, Debye-Ang):
   XX=            -83.0122   YY=            -93.2263   ZZ=           -104.3366
   XY=             -6.7441   XZ=             -0.0001   YZ=              0.0002
 Traceless Quadrupole moment (field-independent basis, Debye-Ang):
   XX=             10.5128   YY=              0.2987   ZZ=            -10.8116
   XY=             -6.7441   XZ=             -0.0001   YZ=              0.0002
 Octapole moment (field-independent basis, Debye-Ang**2):
  XXX=             32.9847  YYY=            -47.6449  ZZZ=             -0.0001  XYY=              0.4577
  XXY=             -8.4623  XXZ=             -0.0001  XZZ=              2.0283  YZZ=              1.3634
  YYZ=              0.0005  XYZ=             -0.0006
 Hexadecapole moment (field-independent basis, Debye-Ang**3):
 XXXX=          -2615.3827 YYYY=          -2663.5390 ZZZZ=           -113.4929 XXXY=            812.5950
 XXXZ=              0.0096 YYYX=            767.4275 YYYZ=             -0.0112 ZZZX=              0.0128
 ZZZY=             -0.0189 XXYY=           -855.6961 XXZZ=           -574.5343 YYZZ=           -553.8778
 XXYZ=             -0.0027 YYXZ=             -0.0003 ZZXY=            357.8296
 N-N= 1.095478652973D+03 E-N=-4.602850409852D+03  KE= 1.023687300143D+03
 No NMR shielding tensors so no spin-rotation constants.
 Leave Link  601 at Tue Oct 27 20:41:44 2020, MaxMem=  7784628224 cpu:               2.5 elap:               0.3
 (Enter /gpfs/loomis/apps/avx/software/Gaussian/16-C.01_AVX/g16/l701.exe)
 ... and contract with generalized density number  0.
 Compute integral first derivatives.
 R6Disp: Adding Grimme-D2 dispersion energy 1st derivatives to the gradient.
 D1PCM: PCM CHGder 1st derivatives, ID1Alg=3 FixD1E=F DoIter=F DoCFld=F I1PDM=0.
 GePol: Maximum number of non-zero 1st derivatives   =     271
 Leave Link  701 at Tue Oct 27 20:41:46 2020, MaxMem=  7784628224 cpu:              23.5 elap:               2.6
 (Enter /gpfs/loomis/apps/avx/software/Gaussian/16-C.01_AVX/g16/l702.exe)
 L702 exits ... SP integral derivatives will be done elsewhere.
 Leave Link  702 at Tue Oct 27 20:41:46 2020, MaxMem=  7784628224 cpu:               0.3 elap:               0.1
 (Enter /gpfs/loomis/apps/avx/software/Gaussian/16-C.01_AVX/g16/l703.exe)
 Integral derivatives from FoFJK, PRISM(SPDF).
 Compute integral first derivatives, UseDBF=F ICtDFT=           0.
 Calling FoFJK, ICntrl=      2127 FMM=F ISym2X=0 I1Cent= 0 IOpClX= 0 NMat=1 NMatS=1 NMatT=0.
 FoFJK:  IHMeth= 1 ICntrl=    2127 DoSepK=T KAlg= 0 I1Cent=           0 FoldK=F
 IRaf=         1 NMat=       1 IRICut=       1 DoRegI=T DoRafI=F ISym2E= 0 IDoP0=0 IntGTp=1.
 FoFCou: FMM=F IPFlag=           0 FMFlag=      100000 FMFlg1=         800
         NFxFlg=           0 DoJE=F BraDBF=F KetDBF=F FulRan=T
         wScrn=  0.000000 ICntrl=      2527 IOpCl=  0 I1Cent=           0 NGrid=           0
         NMat0=    1 NMatS0=      1 NMatT0=    0 NMatD0=    1 NMtDS0=    0 NMtDT0=    0
 Symmetry not used in FoFCou.
 Leave Link  703 at Tue Oct 27 20:42:02 2020, MaxMem=  7784628224 cpu:             139.1 elap:              15.5
 (Enter /gpfs/loomis/apps/avx/software/Gaussian/16-C.01_AVX/g16/l716.exe)
 Dipole        = 5.10379533D-01-1.91551587D+00-1.91856345D-05
 -------------------------------------------------------------------
 Center     Atomic                   Forces (Hartrees/Bohr)
 Number     Number              X              Y              Z
 -------------------------------------------------------------------
      1        6           0.002293353    0.000815985    0.000000053
      2        6           0.007837112    0.010334509   -0.000000023
      3        6           0.015734753   -0.019402269   -0.000000048
      4        6          -0.005266842   -0.000471065   -0.000000032
      5        6          -0.000709883   -0.003322107   -0.000000039
      6        6          -0.005306948    0.001180397    0.000000042
      7        1           0.000639405    0.002077913   -0.000000047
      8        1          -0.000476546   -0.001980898   -0.000000004
      9        1          -0.001671831   -0.000260728   -0.000000005
     10        1          -0.001101255    0.000962298    0.000000008
     11        7          -0.040677571   -0.050549826   -0.000000361
     12       16           0.007352603    0.016524805   -0.000000056
     13        6           0.015046177    0.021160950    0.000000417
     14        6          -0.028084423    0.019969328    0.000001362
     15        6           0.011281061   -0.017204906   -0.000000715
     16        6           0.003151780   -0.033210795   -0.000001030
     17        1          -0.000318302    0.001181082    0.000000112
     18        6          -0.022138139    0.001940407    0.000000307
     19        6           0.024571558   -0.001515119   -0.000000292
     20        1           0.001083104   -0.000572843   -0.000000086
     21        1          -0.001457607   -0.001767554    0.000000002
     22        1           0.000114225   -0.000121629   -0.000000103
     23        6           0.011159006    0.012241428   -0.000000221
     24        8          -0.001760291    0.005413375    0.000000299
     25        1           0.008705501    0.036577263    0.000000458
 -------------------------------------------------------------------
 Cartesian Forces:  Max     0.050549826 RMS     0.012460441
 Leave Link  716 at Tue Oct 27 20:42:02 2020, MaxMem=  7784628224 cpu:               0.4 elap:               0.1
 (Enter /gpfs/loomis/apps/avx/software/Gaussian/16-C.01_AVX/g16/l103.exe)

 GradGradGradGradGradGradGradGradGradGradGradGradGradGradGradGradGradGrad
 Berny optimization.
 FormGI is forming the generalized inverse of G from B-inverse, IUseBI=4.
 Internal  Forces:  Max     0.030260476 RMS     0.006117915
 Search for a local minimum.
 Step number   1 out of a maximum of  146
 All quantities printed in internal units (Hartrees-Bohrs-Radians)
 RMS Force = .61634D-02 SwitMx=.10000D-02 MixMth= 1
 Mixed Optimization -- RFO/linear search
 Second derivative matrix not updated -- first step.
 ITU=  0
     Eigenvalues ---    0.01202   0.01405   0.01421   0.01595   0.01604
     Eigenvalues ---    0.01652   0.01745   0.01947   0.01962   0.02008
     Eigenvalues ---    0.02020   0.02038   0.02044   0.02063   0.02064
     Eigenvalues ---    0.02073   0.02092   0.02118   0.02122   0.02131
     Eigenvalues ---    0.02171   0.02252   0.16000   0.16000   0.16000
     Eigenvalues ---    0.16000   0.16000   0.16000   0.16000   0.16003
     Eigenvalues ---    0.17576   0.22002   0.22013   0.22535   0.22584
     Eigenvalues ---    0.24340   0.24467   0.24595   0.25000   0.25000
     Eigenvalues ---    0.26926   0.27938   0.31129   0.33494   0.34241
     Eigenvalues ---    0.34418   0.34422   0.34455   0.34455   0.34520
     Eigenvalues ---    0.34521   0.34613   0.38727   0.39782   0.40651
     Eigenvalues ---    0.41544   0.42642   0.43113   0.43443   0.44995
     Eigenvalues ---    0.45127   0.45407   0.46584   0.47113   0.49697
     Eigenvalues ---    0.52181   0.732031000.000001000.000001000.00000
     Eigenvalues --- 1000.000001000.000001000.000001000.000001000.00000
     Eigenvalues --- 1000.000001000.000001000.000001000.000001000.00000
     Eigenvalues --- 1000.000001000.000001000.000001000.000001000.00000
     Eigenvalues --- 1000.000001000.000001000.000001000.000001000.00000
     Eigenvalues --- 1000.000001000.000001000.000001000.000001000.00000
     Eigenvalues --- 1000.000001000.000001000.000001000.000001000.00000
     Eigenvalues --- 1000.000001000.000001000.000001000.000001000.00000
     Eigenvalues --- 1000.000001000.000001000.000001000.000001000.00000
     Eigenvalues --- 1000.000001000.000001000.000001000.000001000.00000
     Eigenvalues --- 1000.000001000.000001000.000001000.000001000.00000
     Eigenvalues --- 1000.000001000.000001000.000001000.000001000.00000
     Eigenvalues --- 1000.000001000.000001000.000001000.000001000.00000
     Eigenvalues --- 1000.000001000.000001000.000001000.000001000.00000
     Eigenvalues --- 1000.00000
 RFO step:  Lambda=-1.35097328D-02 EMin= 1.20157223D-02
 Linear search not attempted -- first point.
 Iteration  1 RMS(Cart)=  0.01877367 RMS(Int)=  0.00028786
 Iteration  2 RMS(Cart)=  0.00054759 RMS(Int)=  0.00009397
 Iteration  3 RMS(Cart)=  0.00000026 RMS(Int)=  0.00009398
 Iteration  1 RMS(Cart)=  0.00000007 RMS(Int)=  0.00000004
 ITry= 1 IFail=0 DXMaxC= 6.39D-02 DCOld= 1.00D+10 DXMaxT= 3.00D-01 DXLimC= 3.00D+00 Rises=F
 Variable       Old X    -DE/DX   Delta X   Delta X   Delta X     New X
                                 (Linear)    (Quad)   (Total)
    R1        2.64270  -0.00323   0.00000  -0.00579  -0.00575   2.63695
    R2        2.64772  -0.00530   0.00000  -0.01006  -0.01008   2.63764
    R3        2.06635  -0.00228   0.00000  -0.00616  -0.00616   2.06019
    R4        2.68290  -0.02126   0.00000  -0.04316  -0.04287   2.64003
    R5        3.35012   0.00252   0.00000   0.00834   0.00819   3.35831
    R6        2.65350  -0.00786   0.00000  -0.01803  -0.01800   2.63550
    R7        2.56657   0.00838   0.00000   0.01487   0.01502   2.58159
    R8        2.62241  -0.00269   0.00000  -0.00605  -0.00606   2.61635
    R9        2.06569  -0.00190   0.00000  -0.00530  -0.00531   2.06039
   R10        2.65576  -0.00449   0.00000  -0.00734  -0.00732   2.64844
   R11        2.06569  -0.00164   0.00000  -0.00455  -0.00454   2.06114
   R12        2.06461  -0.00145   0.00000  -0.00401  -0.00401   2.06060
   R13        2.56385  -0.02231   0.00000  -0.04418  -0.04424   2.51962
   R14        1.95039   0.02977   0.00000   0.08199   0.08247   2.03286
   R15        3.36477  -0.01032   0.00000  -0.02663  -0.02653   3.33824
   R16        2.63892   0.01421   0.00000   0.03280   0.03298   2.67190
   R17        2.83247  -0.01433   0.00000  -0.03665  -0.03650   2.79597
   R18        2.70800  -0.00167   0.00000  -0.00705  -0.00715   2.70085
   R19        2.67676  -0.03026   0.00000  -0.07123  -0.07128   2.60548
   R20        2.06926  -0.00102   0.00000  -0.00278  -0.00278   2.06648
   R21        2.68537   0.00442   0.00000   0.00658   0.00639   2.69176
   R22        2.40884  -0.00320   0.00000  -0.00131  -0.00113   2.40771
   R23        2.65207   0.00521   0.00000   0.01205   0.01208   2.66415
   R24        2.06460  -0.00099   0.00000  -0.00286  -0.00286   2.06174
   R25        2.63153  -0.01425   0.00000  -0.03257  -0.03275   2.59878
   R26        2.06624  -0.00216   0.00000  -0.00598  -0.00598   2.06026
   R27        2.06309  -0.00005   0.00000  -0.00025  -0.00026   2.06283
    A1        2.06732  -0.00041   0.00000  -0.00272  -0.00279   2.06453
    A2        2.11387  -0.00004   0.00000   0.00066   0.00070   2.11458
    A3        2.10200   0.00045   0.00000   0.00206   0.00209   2.10408
    A4        2.09513  -0.00037   0.00000  -0.00431  -0.00426   2.09086
    A5        2.26829   0.00446   0.00000   0.01855   0.01853   2.28682
    A6        1.91977  -0.00409   0.00000  -0.01425  -0.01427   1.90550
    A7        2.11230   0.00540   0.00000   0.01744   0.01738   2.12968
    A8        1.98918  -0.00653   0.00000  -0.01921  -0.01893   1.97026
    A9        2.18170   0.00114   0.00000   0.00177   0.00155   2.18325
   A10        2.06639  -0.00159   0.00000  -0.00605  -0.00596   2.06043
   A11        2.08768   0.00109   0.00000   0.00419   0.00414   2.09182
   A12        2.12912   0.00050   0.00000   0.00186   0.00182   2.13094
   A13        2.10955  -0.00251   0.00000  -0.00697  -0.00695   2.10260
   A14        2.08588   0.00118   0.00000   0.00285   0.00284   2.08872
   A15        2.08776   0.00133   0.00000   0.00412   0.00411   2.09187
   A16        2.11569  -0.00052   0.00000   0.00261   0.00258   2.11828
   A17        2.08028   0.00014   0.00000  -0.00187  -0.00185   2.07843
   A18        2.08721   0.00038   0.00000  -0.00075  -0.00073   2.08648
   A19        1.99952   0.01557   0.00000   0.04898   0.04891   2.04843
   A20        2.33848  -0.01465   0.00000  -0.04831  -0.04803   2.29045
   A21        1.94518  -0.00092   0.00000  -0.00067  -0.00088   1.94431
   A22        1.56061   0.00708   0.00000   0.02551   0.02516   1.58578
   A23        2.04479   0.00737   0.00000   0.02971   0.02981   2.07460
   A24        2.20431  -0.00478   0.00000  -0.02177  -0.02195   2.18236
   A25        2.03409  -0.00259   0.00000  -0.00793  -0.00786   2.02623
   A26        2.11490   0.00149   0.00000   0.00521   0.00534   2.12024
   A27        2.09202   0.00027   0.00000   0.00361   0.00354   2.09556
   A28        2.07627  -0.00176   0.00000  -0.00881  -0.00888   2.06738
   A29        2.08082  -0.01182   0.00000  -0.04059  -0.04059   2.04023
   A30        2.12276   0.00750   0.00000   0.03610   0.03631   2.15907
   A31        2.07961   0.00432   0.00000   0.00449   0.00428   2.08389
   A32        2.12752  -0.00730   0.00000  -0.03291  -0.03286   2.09466
   A33        2.06810   0.00324   0.00000   0.01411   0.01408   2.08218
   A34        2.08757   0.00405   0.00000   0.01880   0.01877   2.10635
   A35        2.11894   0.00230   0.00000   0.00700   0.00682   2.12576
   A36        2.02583  -0.00076   0.00000  -0.00165  -0.00156   2.02427
   A37        2.13841  -0.00154   0.00000  -0.00535  -0.00526   2.13316
   A38        2.07940   0.00794   0.00000   0.03158   0.03149   2.11089
   A39        2.09914  -0.00379   0.00000  -0.01403  -0.01397   2.08517
   A40        2.10464  -0.00415   0.00000  -0.01756  -0.01752   2.08712
   A41        1.95570  -0.01203   0.00000  -0.04104  -0.04088   1.91482
   A42        2.04610   0.00526   0.00000   0.01591   0.01587   2.06197
   A43        2.28139   0.00677   0.00000   0.02513   0.02501   2.30640
    D1        0.00000   0.00000   0.00000   0.00000   0.00000   0.00000
    D2       -3.14159  -0.00000   0.00000   0.00000   0.00000  -3.14159
    D3        3.14159   0.00000   0.00000   0.00000   0.00000  -3.14159
    D4       -0.00000   0.00000   0.00000   0.00000   0.00000   0.00000
    D5        0.00000   0.00000   0.00000   0.00000   0.00000   0.00000
    D6        3.14159   0.00000   0.00000   0.00000   0.00000  -3.14159
    D7       -3.14159  -0.00000   0.00000  -0.00000  -0.00000  -3.14159
    D8        0.00000  -0.00000   0.00000  -0.00000  -0.00000   0.00000
    D9       -0.00000  -0.00000   0.00000  -0.00000  -0.00000  -0.00000
   D10        3.14159  -0.00000   0.00000  -0.00000  -0.00000   3.14159
   D11        3.14159   0.00000   0.00000  -0.00000  -0.00000   3.14159
   D12       -0.00000  -0.00000   0.00000  -0.00000  -0.00000  -0.00001
   D13        3.14159   0.00000   0.00000   0.00000   0.00000  -3.14159
   D14        0.00000   0.00000   0.00000   0.00000   0.00000   0.00001
   D15        0.00000   0.00000   0.00000   0.00000   0.00000   0.00000
   D16       -3.14159  -0.00000   0.00000   0.00000   0.00000  -3.14159
   D17       -3.14159   0.00000   0.00000   0.00000   0.00000  -3.14159
   D18        0.00000   0.00000   0.00000   0.00000   0.00000   0.00000
   D19        0.00000   0.00000   0.00000  -0.00000  -0.00000   0.00000
   D20        3.14158   0.00000   0.00000   0.00000   0.00000   3.14158
   D21       -3.14159  -0.00000   0.00000  -0.00000  -0.00000  -3.14159
   D22       -0.00001   0.00000   0.00000   0.00000   0.00000  -0.00001
   D23        0.00000   0.00000   0.00000  -0.00000  -0.00000  -0.00000
   D24       -3.14159  -0.00000   0.00000  -0.00000  -0.00000   3.14159
   D25       -3.14159   0.00000   0.00000   0.00000   0.00000  -3.14159
   D26        0.00000   0.00000   0.00000   0.00000   0.00000   0.00000
   D27       -0.00000  -0.00000   0.00000  -0.00000  -0.00000  -0.00000
   D28        3.14159  -0.00000   0.00000  -0.00000  -0.00000   3.14159
   D29        3.14159   0.00000   0.00000  -0.00000  -0.00000   3.14159
   D30        0.00000   0.00000   0.00000   0.00000   0.00000   0.00000
   D31       -0.00000   0.00000   0.00000   0.00000   0.00000   0.00000
[...]
 .,0.,-0.00009334,0.,0.00000001,0.00014439,-0.00000002,0.,-0.00011842,0
 .,0.,0.00002483,0.,0.,-0.00011188,0.,0.,0.00003793,0.,0.,-0.00008023,-
 0.00000011,-0.00000011,0.00100217,-0.00000003,-0.00000008,0.00181388,0
 .00000048,-0.00000099,-0.07349515,-0.00000153,0.00000026,0.00031441,-0
 .00000117,0.00000803,0.19653087,0.00039121,-0.00042070,0.,-0.00078370,
 0.00085064,0.00000001,0.00023163,-0.00099305,-0.00000001,0.00019047,0.
 00019603,0.,-0.00004833,0.00045206,0.,-0.00057185,-0.00004495,0.,0.000
 00703,0.00003757,0.,0.00004081,-0.00002478,0.,-0.00005346,0.00003444,0
 .,-0.00002961,0.00002042,0.,-0.00501295,0.00030364,0.,0.00017491,0.001
 28367,-0.00000002,-0.04116150,0.02524761,0.00000037,-0.22229383,0.1622
 4803,0.00000305,0.00326019,0.01202886,0.00000033,0.76491860,-0.0014992
 0,0.00202942,0.00000002,0.00293952,-0.00154158,-0.00000003,0.00040933,
 0.00168698,0.,-0.00156802,0.00006105,0.00000002,0.00000469,-0.00232339
 ,-0.00000003,0.00254380,0.00030572,0.,-0.00008952,-0.00009430,0.,0.000
 04290,0.00006599,0.,0.00016906,-0.00008099,0.,0.00011727,-0.00004282,0
 .,0.01439681,0.00927483,0.00000013,-0.00306042,-0.00347205,0.00000004,
 0.06976398,0.00729899,-0.00000006,0.09666668,-0.29696356,-0.00000410,0
 .02731449,-0.05657779,-0.00000106,-0.02364984,0.66979211,-0.00000004,0
 .00000005,0.00002119,0.00000008,-0.00000004,0.00026491,0.00000002,0.00
 000003,-0.00061745,-0.00000004,0.,-0.00009190,0.,-0.00000006,0.0000518
 7,0.00000006,0.00000001,-0.00000673,0.,0.,-0.00000429,0.,0.,-0.0000070
 7,0.,0.,0.00001309,0.,0.,-0.00001621,0.00000029,0.00000021,0.00012470,
 -0.00000005,-0.00000008,-0.00059717,0.00000135,-0.00000003,0.00879460,
 0.00000190,-0.00000443,-0.06231236,0.00000073,-0.00000105,-0.00555181,
 0.00000028,0.00001269,0.12186564,0.00023699,0.00002355,0.,-0.00057813,
 0.00028598,0.00000002,0.00036565,-0.00018876,0.,0.00000895,0.00003858,
 0.,0.00004021,0.00006504,0.,-0.00008041,-0.00006611,0.,-0.00001233,-0.
 00000467,0.,0.00003319,0.00000359,0.,0.00000584,0.00000109,0.,0.000023
 76,-0.00000243,0.,0.00005467,0.00041645,0.,-0.00082166,0.00178349,-0.0
 0000005,-0.00722254,-0.02810247,-0.00000038,-0.10425330,-0.10427442,-0
 .00000200,-0.00490851,0.00308437,-0.00000006,0.01141571,0.01806906,0.0
 0000035,0.10644584,0.00003111,-0.00009526,0.,-0.00017299,0.00044307,0.
 ,0.00020732,-0.00015717,0.,0.00003227,0.00003894,0.,0.00000304,0.00009
 231,0.,-0.00012144,0.00001177,0.,-0.00000289,0.00001516,0.,0.00001375,
 -0.00000504,0.,-0.00001001,0.00000499,0.,-0.00000939,0.00000381,0.,-0.
 00091755,0.00010460,0.00000001,-0.00020878,0.00005978,0.,0.00099997,0.
 00068422,-0.00000005,-0.10109442,-0.29203539,-0.00000455,0.00066869,0.
 00205535,-0.00000010,-0.01460500,-0.01724771,-0.00000041,0.10979537,0.
 30914886,0.,0.,0.00000227,0.,0.,-0.00039106,0.,0.,0.00013467,0.,0.,0.0
 0006241,0.,0.,-0.00001353,0.,0.,0.00001723,0.,0.,-0.00000638,0.,0.,-0.
 00000938,0.,0.,-0.00000448,0.,0.,0.00001128,0.00000005,0.00000003,-0.0
 0023918,-0.00000006,0.,0.00089248,0.00000035,-0.00000007,0.00304565,-0
 .00000224,-0.00000442,-0.03750014,0.00000011,-0.00000022,0.00521895,-0
 .00000010,-0.00000068,0.00548914,0.00000204,0.00000511,0.02456683,-0.0
 0042072,0.00112656,0.00000001,0.00125968,-0.00042287,0.,0.00230512,0.0
 0039526,0.,-0.00102609,-0.00001837,0.,0.00005650,-0.00122186,-0.000000
 02,0.00121305,0.00017654,0.,-0.00008224,0.00001139,0.,0.00015612,0.000
 02203,0.,0.00006405,-0.00003169,0.,0.00006258,0.00000395,0.,0.00820076
 ,0.01321949,0.00000014,-0.00050978,-0.00101874,0.00000002,0.05079371,0
 .00458920,0.00000026,-0.05024861,0.02689904,0.00000054,-0.13909018,0.0
 4589387,0.00000236,-0.01289320,-0.07818983,-0.00000183,-0.00034787,0.0
 0058000,-0.00000017,0.76902612,0.00079899,-0.00070432,0.,-0.00164545,0
 .00005872,0.00000002,-0.00061379,-0.00035648,0.00000003,0.00075000,-0.
 00003083,0.,0.00003631,0.00100534,0.00000001,-0.00102433,-0.00022876,0
 .,0.00001652,0.00003434,0.,-0.00002975,-0.00001308,0.,-0.00004950,0.00
 003188,0.,-0.00001036,0.00000393,0.,-0.00519271,-0.00349794,-0.0000001
 3,0.00204911,0.00050145,0.,-0.00454256,-0.02482775,-0.00000115,0.01869
 869,-0.01206997,-0.00000017,0.08171402,-0.23797448,-0.00000560,-0.0360
 6246,0.02033934,0.00000037,0.00015313,0.00050751,0.00000008,0.07204897
 ,0.68317036,0.00000002,-0.00000002,-0.00016383,-0.00000005,0.,-0.00018
 267,-0.00000005,0.,-0.00087841,0.00000002,0.,0.00007357,0.,0.00000003,
 0.00001293,-0.00000003,0.,0.00004530,0.,0.,-0.00005258,0.,0.,-0.000038
 02,0.,0.,-0.00001601,0.,0.,0.00004407,-0.00000013,-0.00000020,0.002013
 64,0.00000007,0.00000004,-0.00076016,-0.00000017,-0.00000022,0.0087374
 4,0.00000068,-0.00000034,-0.00181492,0.00000334,-0.00000613,-0.0747708
 3,-0.00000098,0.00000049,0.00811049,0.,0.00000003,-0.00048658,-0.00000
 167,0.00001620,0.11974972,0.00103150,-0.00139777,-0.00000001,-0.002188
 14,0.00085360,0.00000001,-0.00088536,-0.00081291,0.,0.00123456,-0.0000
 1746,0.,-0.00002149,0.00169358,0.00000002,-0.00178388,-0.00026158,0.,0
 .00006250,0.00005914,0.,-0.00006072,-0.00004481,0.,-0.00011495,0.00006
 003,0.,-0.00007462,0.00002363,0.,-0.00942426,-0.00680447,-0.00000010,0
 .00212584,0.00187226,-0.00000002,-0.04098908,0.00044909,0.00000009,0.0
 5991258,-0.01268198,-0.00000034,-0.05152535,0.04774341,0.00000100,-0.1
 5631124,-0.03467236,-0.00000092,-0.00200162,0.00439698,0.00000015,-0.4
 1924707,-0.06823876,-0.00000009,0.75925974,0.00070421,-0.00096635,0.,-
 0.00129089,0.00069187,0.00000001,-0.00040770,-0.00114658,-0.00000001,0
 .00061868,0.00004774,0.,-0.00001352,0.00103117,0.00000001,-0.00118391,
 -0.00013638,0.,0.00004986,0.00002823,0.,-0.00004713,-0.00002549,0.,-0.
 00007587,0.00003862,0.,-0.00005057,0.00001484,0.,-0.00910333,-0.006428
 84,-0.00000005,0.00134945,0.00138559,-0.00000002,-0.03757414,-0.005635
 08,0.,0.03876301,-0.06060234,-0.00000163,0.00701447,0.05128368,0.00000
 120,-0.10446390,-0.27671550,-0.00000596,0.00308534,-0.00272418,-0.0000
 0009,-0.00278109,-0.13841563,-0.00000226,-0.03288906,0.68908542,0.0000
 0001,-0.00000002,-0.00000268,-0.00000003,0.00000001,0.00008282,0.,-0.0
 0000003,0.00034960,0.00000001,0.,-0.00000677,0.,0.00000002,-0.00002507
 ,-0.00000003,0.,0.00000065,0.,0.,0.00000845,0.,0.,0.00001912,0.,0.,-0.
 00000094,0.,0.,-0.00000853,-0.00000023,-0.00000019,-0.00045613,0.00000
 003,0.00000003,-0.00003711,-0.00000093,-0.00000009,-0.00414649,0.00000
 087,-0.00000142,0.00666468,0.00000063,0.00000124,-0.00059354,-0.000002
 72,-0.00000615,-0.06268161,0.00000006,-0.00000018,0.00813148,0.0000014
 2,-0.00000201,-0.05760677,-0.00000301,0.00001523,0.14385336,0.00002551
 ,-0.00007556,0.,-0.00005468,0.00012346,0.,0.00000204,-0.00012558,0.,0.
 00003405,0.00003264,0.,-0.00001093,0.00006223,0.,-0.00008068,0.0000064
 5,0.,0.00000312,0.00000810,0.,0.00000505,-0.00000512,0.,-0.00001048,0.
 00000587,0.,-0.00000899,0.00000475,0.,-0.00046078,0.00037717,0.,0.0000
 2359,0.00009043,0.,0.00043104,0.00343734,0.00000005,-0.01322058,-0.005
 94727,-0.00000013,0.00057583,-0.00002012,-0.00000001,-0.34397323,-0.03
 178975,-0.00000080,0.00078029,0.00013529,0.,0.00121458,-0.00227705,-0.
 00000007,-0.00756854,0.00300093,0.00000010,0.36245434,-0.00000649,0.00
 003403,0.,0.00003562,-0.00006419,0.,0.00008913,0.00008677,0.,-0.000014
 59,-0.00004189,0.,0.00001466,-0.00002328,0.,0.00003389,-0.00000291,0.,
 -0.00000103,-0.00000348,0.,0.00000100,0.00000212,0.,0.00000534,-0.0000
 0480,0.,0.00000395,-0.00000153,0.,0.00042532,-0.00020324,0.00000001,0.
 00000599,0.00003879,0.,0.00194391,-0.00381829,-0.00000023,0.02669178,0
 .00612964,0.00000011,0.00036686,-0.00148930,-0.00000002,-0.03277751,-0
 .06057121,-0.00000078,-0.00020790,0.00097057,0.00000013,-0.00097113,-0
 .00504983,-0.00000027,-0.02938472,0.00146752,0.00000005,0.03403317,0.0
 6061550,0.,0.,-0.00000503,0.,0.,-0.00005238,0.,0.,-0.00033377,0.,0.,-0
 .00002004,0.,0.,0.00003062,0.,0.,-0.00000506,0.,0.,-0.00000126,0.,0.,-
 0.00001230,0.,0.,0.00000660,0.,0.,0.00000618,0.00000002,0.,-0.00039468
 ,0.,0.,0.00010360,0.00000003,-0.00000021,0.00769943,0.00000053,0.00000
 010,0.00135199,0.00000002,-0.00000007,-0.00077160,-0.00000066,-0.00000
 078,-0.03097615,0.,0.00000011,-0.00521386,-0.00000007,-0.00000026,0.00
 501195,-0.00000069,0.00000008,0.00077164,0.00000085,0.00000090,0.02389
 837,-0.00006204,0.00001116,0.,0.00006215,0.00007460,0.,-0.00003924,0.0
 0001556,0.,-0.00001930,0.00000457,0.,-0.00000706,-0.00004030,0.,0.0000
 4189,0.00001587,0.,0.00000188,-0.00000385,0.,-0.00000730,0.00000148,0.
 ,0.00000234,-0.00000098,0.,-0.00000239,-0.00000196,0.,0.00028396,-0.00
 026213,0.,-0.00027587,0.00003291,0.,-0.00170105,0.00209333,0.00000011,
 -0.00117641,0.00057178,0.,0.00922330,0.01894383,0.00000048,-0.00491957
 ,0.00070334,0.00000009,0.00009642,-0.00011325,-0.00000001,-0.10323235,
 -0.10809107,-0.00000257,-0.00656973,-0.02895542,-0.00000078,-0.0005053
 2,-0.00137425,-0.00000003,0.10601576,0.00002782,0.00010114,0.,-0.00006
 192,-0.00016490,0.,0.00006961,0.00015369,0.,-0.00003635,-0.00002022,0.
 ,0.00001706,-0.00005406,0.,0.00006793,-0.00001907,0.,-0.00000746,0.000
 00030,0.,0.00000590,0.00000353,0.,0.00000971,-0.00000455,0.,0.00001281
 ,-0.00000215,0.,0.00014750,0.00058703,0.,0.00024822,-0.00032519,0.,0.0
 0381619,-0.00280169,-0.00000028,0.00122515,0.00023775,0.00000005,-0.01
 559120,-0.01838116,-0.00000041,-0.00009120,0.00222586,-0.00000024,-0.0
 0007390,-0.00005888,0.00000003,-0.10668186,-0.29866327,-0.00000733,0.0
 0240687,0.00114822,-0.00000002,0.00009191,-0.00004631,-0.00000002,0.11
 620530,0.31339934,0.,0.,0.00004357,0.,0.,0.00000767,0.,0.,-0.00007661,
 0.,0.,0.00000113,0.,0.,0.00000239,0.,0.,-0.00000400,0.,0.,0.00000252,0
 .,0.,0.00000068,0.,0.,0.00000307,0.,0.,-0.00000712,0.,0.00000003,0.000
 03605,0.00000001,-0.00000002,0.00003416,0.00000014,-0.00000024,0.00437
 072,0.00000012,0.00000001,-0.00077396,-0.00000068,-0.00000081,0.004616
 85,0.00000003,-0.00000011,0.00850766,0.,0.00000001,-0.00089907,-0.0000
 0255,-0.00000703,-0.03433870,0.00000005,0.00000003,0.00281639,0.,0.,0.
 00055222,0.00000280,0.00000780,0.02446660,0.00004196,-0.00006163,0.,-0
 .00006068,0.00012579,0.,0.00012293,-0.00012005,0.,0.00002672,0.0000093
 6,0.,-0.00000255,0.00006308,0.,-0.00007883,0.00000042,0.,0.00000139,0.
 00000618,0.,0.00000753,-0.00000361,0.,-0.00000901,0.00000429,0.,-0.000
 00629,0.00000401,0.,-0.00025999,0.00032333,0.,0.00002758,0.00026318,0.
 ,-0.00100045,0.00013815,0.,0.00033868,-0.00301740,-0.00000005,-0.00380
 374,-0.00318829,-0.00000011,0.01035930,-0.01101169,-0.00000033,0.00038
 583,-0.00060297,0.,-0.01247402,0.02743966,0.00000095,-0.15998123,0.134
 42537,0.00000398,0.00065000,0.00046538,0.,0.00098763,-0.00031614,-0.00
 000002,0.16586994,0.00000590,0.00003149,0.,-0.00004933,-0.00002367,0.,
 -0.00002269,0.00007002,0.,-0.00000171,-0.00000760,0.,0.00000732,-0.000
 01563,0.,0.00002500,-0.00000964,0.,-0.00000311,-0.00000325,0.,-0.00000
 153,0.00000302,0.,0.00000584,-0.00000198,0.,0.00000627,-0.00000313,0.,
 0.00017901,-0.00015125,0.,-0.00006119,-0.00002820,0.,-0.00063493,0.000
 52974,0.00000004,-0.00386185,-0.00426971,-0.00000028,-0.00211958,0.001
 04996,-0.00000025,0.02012361,-0.01556730,-0.00000060,0.00092536,-0.001
 15127,0.,-0.00486341,0.00588464,0.00000004,0.13535626,-0.24079687,-0.0
 0000603,-0.00017586,0.00101644,0.00000011,0.00013457,0.00079280,0.0000
 0017,-0.14536819,0.25212744,0.,0.,-0.00000019,-0.00000001,0.,-0.000028
 12,0.,0.,0.00015526,0.,0.,-0.00000464,0.,0.,-0.00000437,0.,0.,-0.00000
 602,0.,0.,0.00000677,0.,0.,0.00000470,0.,0.,0.00000123,0.,0.,0.0000016
 7,-0.00000003,-0.00000002,-0.00029456,0.,0.,0.00021949,-0.00000016,0.0
 0000005,-0.00108260,-0.00000006,-0.00000033,0.00534234,-0.00000008,-0.
 00000007,0.01056966,0.00000061,-0.00000037,0.00454500,0.00000004,-0.00
 000005,-0.00026551,0.00000023,-0.00000021,0.00643681,0.00000380,-0.000
 00606,-0.04211000,0.,0.00000010,-0.00285193,-0.00000004,0.00000021,-0.
 00550805,-0.00000446,0.00000672,0.02695903,-0.00606715,-0.00329647,-0.
 00000007,0.00211792,0.01776585,0.00000009,-0.07603407,0.04180132,0.000
 00014,0.01157734,-0.00249716,0.00000004,-0.00361883,0.00414688,0.00000
 003,-0.00005365,-0.00390491,-0.00000004,0.00028954,-0.00094155,-0.0000
 0002,-0.00052328,-0.00016023,0.,0.00043806,-0.00008253,0.,-0.00063027,
 -0.00018636,0.00000001,-0.39226457,-0.05261853,-0.00000099,-0.05739144
 ,-0.03471132,0.00000008,-0.15146139,0.06774483,0.00000033,-0.05088761,
 0.03738602,0.00000046,0.05087236,0.01605218,0.00000006,0.00101840,-0.0
 2663291,-0.00000060,0.00126580,0.00132540,-0.00000006,-0.01211479,0.00
 467792,0.00000019,0.01402763,0.01145105,0.00000028,-0.00018605,0.00090
 200,0.00000002,0.00006639,-0.00142239,-0.00000006,0.00060819,-0.000072
 41,0.00000005,0.71372056,0.00291663,-0.00364916,0.00000003,0.02316835,
 -0.02036445,-0.00000004,0.01088795,0.01500844,0.00000013,0.00923644,-0
 .00843676,-0.00000006,-0.00168978,0.00696934,0.00000007,-0.00470238,-0
 .00453123,-0.00000007,0.00032923,-0.00057903,0.,-0.00055684,-0.0000647
 5,0.,0.00014008,-0.00030860,0.,-0.00048149,0.00005160,0.,-0.07280896,-
 0.15530300,-0.00000090,0.00685053,-0.14185846,-0.00000045,0.06435088,-
 0.19741136,-0.00000050,0.02888901,0.00023503,-0.00000007,-0.00269811,-
 0.04086854,-0.00000042,-0.00869760,0.02212893,0.00000045,-0.00203790,-
 0.00033940,0.00000008,0.00627290,-0.01149545,-0.00000028,-0.01422991,-
 0.01083370,-0.00000026,-0.00098429,0.00074506,0.00000003,0.00131149,-0
 .00054646,-0.00000004,-0.00053827,0.00022531,-0.00000004,-0.03841385,0
 .53637867,0.,0.00000003,-0.00056342,0.00000019,-0.00000035,0.00257448,
 0.00000008,0.00000008,0.00330770,0.00000003,-0.00000005,0.00216604,0.,
 0.,0.00094492,0.00000001,-0.00000004,0.00088281,0.,0.,-0.00037648,0.,0
 .,-0.00039578,0.,0.,-0.00039454,0.,0.,0.00000579,-0.00000105,-0.000000
 68,-0.06333313,0.00000013,-0.00000027,-0.03605969,0.00000023,-0.000000
 63,-0.05515137,0.00000018,0.00000018,-0.00612795,-0.00000013,-0.000000
 28,0.00289485,-0.00000008,-0.00000004,0.00578931,0.,0.00000007,-0.0026
 5966,0.00000008,-0.00000012,0.00382023,-0.00000003,-0.00000007,-0.0008
 2580,0.,-0.00000003,0.00155310,0.,0.,-0.00028606,0.,0.00000002,-0.0007
 0440,0.00000048,0.00000215,0.14053101,-0.00130208,0.00322629,0.0000000
 2,0.00299808,0.00081800,-0.00000003,0.01064008,0.00029284,0.,-0.003173
 84,0.00013546,0.00000002,0.00015749,-0.00340835,-0.00000005,0.00326989
 ,0.00078319,0.,-0.00024962,0.00015846,0.,0.00047209,0.00003333,0.,0.00
 007600,-0.00004356,0.,0.00011227,0.00006679,0.,0.02957450,0.06126411,0
 .00000069,-0.00155007,-0.00219856,0.00000008,-0.01350160,-0.06218224,-
 0.00000078,-0.01525361,0.00572166,0.00000005,-0.46694409,-0.05736436,-
 0.00000174,-0.00420247,-0.02354659,-0.00000061,-0.00127788,-0.00044731
 ,-0.00000006,-0.08561467,0.02229761,0.00000068,0.02350954,0.01981315,0
 .00000038,-0.00018871,-0.00029912,0.,0.00179383,-0.00019995,0.00000013
 ,-0.00177606,0.00055407,0.00000011,-0.04567295,0.02784086,0.00000020,0
 .57671707,-0.00040909,-0.00126599,-0.00000001,0.00001421,-0.00383083,-
 0.00000001,-0.01368081,-0.00459238,-0.00000003,0.00050885,-0.00058568,
 0.,0.00049575,0.00098611,0.00000001,-0.00060125,-0.00030957,0.,0.00025
 442,-0.00035526,0.,0.00007417,0.00013576,0.,0.00016371,-0.00012754,0.,
 0.00009127,-0.00008832,0.,0.01433566,-0.08802662,-0.00000082,-0.000150
 01,-0.00387374,-0.00000004,-0.04955140,0.00206910,-0.00000038,0.012115
 88,-0.00999999,-0.00000024,-0.07788032,-0.11597165,-0.00000082,-0.0019
 2486,0.01199370,0.00000026,-0.00179768,-0.00025752,0.00000004,0.050612
 06,0.01320278,-0.00000012,-0.00680250,-0.01367351,-0.00000050,0.000009
 49,0.00060662,0.00000003,-0.00184688,0.00320266,0.00000021,0.00161650,
 0.00009151,-0.00000001,0.01588399,0.00087966,0.00000004,0.07808057,0.1
 8875551,-0.00000001,0.00000001,-0.00027987,0.00000004,-0.00000003,-0.0
 0028508,-0.00000006,-0.00000005,0.00213258,0.,0.,0.00009180,0.,0.,-0.0
 0008040,0.00000001,0.,0.00004152,0.,0.,0.00002629,0.,0.,0.00001701,0.,
 0.,-0.00001097,0.,0.,0.00000610,0.00000030,-0.00000049,0.00757380,0.,0
 .,-0.00041240,-0.00000054,-0.00000035,0.01635451,0.00000015,-0.0000001
 2,0.00546762,-0.00000251,-0.00000083,-0.06877206,-0.00000013,0.0000001
 5,-0.00067244,0.,0.,0.00013799,0.00000142,-0.00000006,0.01537465,-0.00
 000003,-0.00000046,0.00512031,0.,0.00000002,-0.00052973,-0.00000004,0.
 00000021,-0.00347612,0.00000004,0.00000004,-0.00113882,-0.00000008,0.0
 0000015,-0.00153431,0.00000154,0.00000227,0.04403123,0.00117460,0.0000
 5294,0.,-0.00427218,0.00274724,0.00000003,0.00846682,0.01598247,0.0000
 0018,0.00174073,0.00009259,0.,-0.00011023,0.00044600,0.,-0.00055442,-0
 .00019773,0.,-0.00014038,0.00021426,0.,-0.00108519,-0.00022188,0.,0.00
 000865,-0.00001296,0.,-0.00003378,-0.00006872,0.,-0.08004421,-0.053910
 07,-0.00000074,-0.00329968,-0.00311605,-0.00000003,-0.00256490,0.00543
 894,0.00000009,0.00198121,-0.00014383,0.,-0.02672976,0.01214152,0.0000
 0007,0.00024667,0.00256920,0.00000006,0.00034512,0.00011678,0.00000001
 ,0.00294933,-0.00290314,-0.00000014,-0.00241661,-0.00143899,-0.0000000
 4,0.00006953,0.00001875,0.,-0.00005790,0.00013039,0.,0.00002516,-0.000
 08742,0.,0.00090385,-0.03435495,-0.00000031,-0.00861320,-0.01961172,-0
 .00000010,0.11201079,-0.00057081,0.00267591,0.00000002,0.00362863,0.00
 591551,-0.00000004,0.01998843,-0.00445909,0.,-0.00319494,0.00236080,0.
 00000004,-0.00059832,-0.00325287,-0.00000004,0.00206868,0.00131137,0.0
 0000002,-0.00034103,0.00046842,0.,0.00041590,-0.00014450,0.,-0.0002718
 3,0.00022414,0.,-0.00007234,0.00015596,0.,-0.02989109,-0.16878871,-0.0
 0000112,0.00050539,0.00740095,0.00000004,0.01168441,-0.02808723,-0.000
 00017,-0.01421584,0.00156720,0.00000008,0.07281822,0.02056596,0.000000
 32,0.00092926,-0.01600473,-0.00000039,-0.00097418,-0.00006913,-0.00000
 005,-0.02565040,0.00858748,0.00000036,0.01332345,0.01187751,0.00000033
 ,-0.00001863,-0.00039282,-0.00000002,0.00057029,-0.00076440,-0.0000000
 3,-0.00065646,0.00020712,0.00000005,-0.05419684,0.01396830,-0.00000004
 ,-0.07139635,0.02103520,-0.00000045,0.07611639,0.12364168,0.,0.0000000
 3,0.00079748,0.00000001,0.00000003,0.00178712,0.00000024,0.00000008,-0
 .00381520,-0.00000003,0.00000004,-0.00073426,0.,-0.00000004,-0.0001624
 2,0.00000003,0.00000001,-0.00010468,0.,0.,0.00001932,0.00000001,0.,0.0
 0016940,0.,0.,0.00005192,0.,0.,0.00000537,-0.00000060,-0.00000164,-0.0
 2716922,0.00000003,0.00000009,0.00387205,0.00000003,-0.00000019,-0.003
 39852,-0.00000010,0.00000002,-0.00098550,0.00000053,0.00000031,0.00172
 275,-0.00000001,-0.00000013,-0.00004238,0.,0.,-0.00002151,-0.00000017,
 0.00000002,0.00167870,0.00000013,0.00000006,0.00068295,0.,0.,0.0001821
 2,0.,0.,-0.00009201,0.,0.,-0.00024274,-0.00000036,0.00000006,0.0039423
 7,-0.00000065,0.00000014,-0.01918321,0.00000091,0.00000110,0.04104010\
 \0.00156818,0.00112253,-0.00000015,0.00171336,0.00180806,-0.00000015,0
 .00246644,-0.00039386,0.00000017,-0.00110160,0.00162501,0.00000014,0.0
 0023909,0.00082784,0.,0.00171728,0.00163951,-0.00000009,0.00012400,0.0
 0009759,0.00000001,-0.00006145,0.00011491,0.,0.00002315,0.00021501,0.,
 0.00017633,0.00016132,0.00000002,-0.00583004,0.00223224,-0.00000005,0.
 00029091,-0.00110045,0.00000052,-0.00328631,0.00137058,0.00000146,0.00
 167386,0.00075437,-0.00000025,0.00495182,0.00028706,-0.00000458,-0.000
 81800,0.00407633,-0.00000018,-0.00004376,0.00010795,0.,0.00004767,0.00
 034183,0.00000156,-0.00065258,0.00115667,0.00000047,-0.00005952,0.0002
 8482,0.00000005,0.00012108,-0.00001764,0.00000003,-0.00001650,0.000115
 88,-0.00000016,-0.00384940,-0.00288156,-0.00000025,-0.00206909,-0.0047
 3581,0.00000121,0.00267510,-0.00921020,0.00000021\\\@
 The archive entry for this job was punched.


 EDUCATION IS NOT TRAINING BUT RATHER THE PROCESS THAT EQUIPS YOU TO
 ENTERTAIN YOURSELF, A FRIEND, OR AN IDEA.  -- WALLACE STERLING
 Job cpu time:       0 days  0 hours 59 minutes 59.7 seconds.
 Elapsed time:       0 days  0 hours  6 minutes 11.8 seconds.
 File lengths (MBytes):  RWF=    544 Int=      0 D2E=      0 Chk=     36 Scr=      8
 Normal termination of Gaussian 16 at Tue Oct 27 20:58:24 2020.
