 Entering Gaussian System, Link 0=g16
 Initial command:
 /gpfs/loomis/apps/avx/software/Gaussian/16-C.01_AVX/g16/l1.exe "/home/fas/batista/pev4/scratch60/gauss-scratch/Gau-164873.inp" -scrdir="/home/fas/batista/pev4/scratch60/gauss-scratch/"
 Entering Link 1 = /gpfs/loomis/apps/avx/software/Gaussian/16-C.01_AVX/g16/l1.exe PID=    164874.
  
 Copyright (c) 1988-2019, Gaussian, Inc.  All Rights Reserved.
  
 This is part of the Gaussian(R) 16 program.  It is based on
 the Gaussian(R) 09 system (copyright 2009, Gaussian, Inc.),
 the Gaussian(R) 03 system (copyright 2003, Gaussian, Inc.),
 the Gaussian(R) 98 system (copyright 1998, Gaussian, Inc.),
 the Gaussian(R) 94 system (copyright 1995, Gaussian, Inc.),
 the Gaussian 92(TM) system (copyright 1992, Gaussian, Inc.),
 the Gaussian 90(TM) system (copyright 1990, Gaussian, Inc.),
 the Gaussian 88(TM) system (copyright 1988, Gaussian, Inc.),
 the Gaussian 86(TM) system (copyright 1986, Carnegie Mellon
 University), and the Gaussian 82(TM) system (copyright 1983,
 Carnegie Mellon University). Gaussian is a federally registered
 trademark of Gaussian, Inc.
  
 This software contains proprietary and confidential information,
 including trade secrets, belonging to Gaussian, Inc.
  
 This software is provided under written license and may be
 used, copied, transmitted, or stored only in accord with that
 written license.
  
 The following legend is applicable only to US Government
 contracts under FAR:
  
                    RESTRICTED RIGHTS LEGEND
  
 Use, reproduction and disclosure by the US Government is
 subject to restrictions as set forth in subparagraphs (a)
 and (c) of the Commercial Computer Software - Restricted
 Rights clause in FAR 52.227-19.
  
 Gaussian, Inc.
 340 Quinnipiac St., Bldg. 40, Wallingford CT 06492
  
  
 ---------------------------------------------------------------
 Warning -- This program may not be used in any manner that
 competes with the business of Gaussian, Inc. or will provide
 assistance to any competitor of Gaussian, Inc.  The licensee
 of this program is prohibited from giving any competitor of
 Gaussian, Inc. access to this program.  By using this program,
 the user acknowledges that Gaussian, Inc. is engaged in the
 business of creating and licensing software in the field of
 computational chemistry and represents and warrants to the
 licensee that it is not a competitor of Gaussian, Inc. and that
 it will not use this program in any manner prohibited above.
 ---------------------------------------------------------------
  

 Cite this work as:
 Gaussian 16, Revision C.01,
 M. J. Frisch, G. W. Trucks, H. B. Schlegel, G. E. Scuseria, 
 M. A. Robb, J. R. Cheeseman, G. Scalmani, V. Barone, 
 G. A. Petersson, H. Nakatsuji, X. Li, M. Caricato, A. V. Marenich, 
 J. Bloino, B. G. Janesko, R. Gomperts, B. Mennucci, H. P. Hratchian, 
 J. V. Ortiz, A. F. Izmaylov, J. L. Sonnenberg, D. Williams-Young, 
 F. Ding, F. Lipparini, F. Egidi, J. Goings, B. Peng, A. Petrone, 
 T. Henderson, D. Ranasinghe, V. G. Zakrzewski, J. Gao, N. Rega, 
 G. Zheng, W. Liang, M. Hada, M. Ehara, K. Toyota, R. Fukuda, 
 J. Hasegawa, M. Ishida, T. Nakajima, Y. Honda, O. Kitao, H. Nakai, 
 T. Vreven, K. Throssell, J. A. Montgomery, Jr., J. E. Peralta, 
 F. Ogliaro, M. J. Bearpark, J. J. Heyd, E. N. Brothers, K. N. Kudin, 
 V. N. Staroverov, T. A. Keith, R. Kobayashi, J. Normand, 
 K. Raghavachari, A. P. Rendell, J. C. Burant, S. S. Iyengar, 
 J. Tomasi, M. Cossi, J. M. Millam, M. Klene, C. Adamo, R. Cammi, 
 J. W. Ochterski, R. L. Martin, K. Morokuma, O. Farkas, 
 J. B. Foresman, and D. J. Fox, Gaussian, Inc., Wallingford CT, 2019.
 
 ******************************************
 Gaussian 16:  ES64L-G16RevC.01  3-Jul-2019
                28-Oct-2020 
 ******************************************
 %chk=config_1_15.chk
 %mem=58GB
 %nprocshared=10
 Will use up to   10 processors via shared memory.
 ----------------------------------------------------------------------
 #p opt=addgic freq wb97xd/cc-pvdz nosymm int=ultrafine scrf=(solvent=C
 arbonTetraChloride)
 ----------------------------------------------------------------------
 1/18=20,19=15,26=6,38=1,145=903/1,3;
 2/9=110,12=2,15=1,17=6,18=5,40=1/2;
 3/5=16,11=2,25=1,30=1,70=2201,71=1,72=11,74=-58,75=-5/1,2,3;
 4//1;
 5/5=2,38=5,53=11/2;
 6/7=2,8=2,9=2,10=2,28=1/1;
 7/30=1/1,2,3,16;
 1/18=20,19=15,26=6,145=903/3(2);
 2/9=110,15=1/2;
 99//99;
 2/9=110,15=1/2;
 3/5=16,11=2,25=1,30=1,70=2205,71=1,72=11,74=-58,75=-5/1,2,3;
 4/5=5,16=3,69=1/1;
 5/5=2,38=5,53=11/2;
 7/30=1/1,2,3,16;
 1/18=20,19=15,26=6,145=903/3(-5);
 2/9=110,15=1/2;
 6/7=2,8=2,9=2,10=2,19=2,28=1/1;
 99/9=1/99;
 Leave Link    1 at Wed Oct 28 00:14:52 2020, MaxMem=  7784628224 cpu:               3.7 elap:               0.4
 (Enter /gpfs/loomis/apps/avx/software/Gaussian/16-C.01_AVX/g16/l101.exe)
 ------------------------------------------------
 NM 2D-scan of HBT TD-WB97XD pVDZ in CTC Relaxed.
 ------------------------------------------------
 Symbolic Z-matrix:
 Charge =  0 Multiplicity = 1
 C                     1.55993  -3.26078  -0.00002 
 C                     0.99051  -1.99205  -0.00002 
 C                     1.76108  -0.7807   -0.00003 
 C                     3.18887  -0.92146  -0.00003 
 C                     3.74427  -2.19297  -0.00002 
 C                     2.94939  -3.36392  -0.00002 
 H                     0.926    -4.15234  -0.00001 
 H                     3.81906  -0.02695  -0.00003 
 H                     4.83405  -2.29728  -0.00002 
 H                     3.42464  -4.34841  -0.00001 
 N                     1.04009   0.34577  -0.00003 
 S                    -0.70771  -1.62573  -0.00002 
 C                    -1.31197   1.05289   0.00001 
 C                    -2.70924   0.74675   0.00002 
 C                    -0.92989   2.46476   0.00003 
 C                    -3.64791   1.7566    0.00003 
 H                    -3.021    -0.30169   0.00001 
 C                    -1.90124   3.47478   0.00004 
 C                    -3.25515   3.12649   0.00004 
 H                    -4.71204   1.50734   0.00003 
 H                    -1.58064   4.52056   0.00006 
 H                    -4.01898   3.90779   0.00005 
 C                    -0.29947   0.08898  -0.00002 
 O                     0.37037   2.73432   0.00005 
 H                     0.79358   2.19173   0.00003 
 
 Initializing the GIC definitions file.
 Number of initial coordinates =   131
 Number of input entries/lines =    52
 Number of additional coordinates =     2
 Number of removed coordinates =     0
 Number of frozen coordinates =     2
 Number of final active and frozen coordinates =   133
 ITRead=  0  0  0  0  0  0  0  0  0  0  0  0  0  0  0  0  0  0  0  0
 ITRead=  0  0  0  0  0
 MicOpt= -1 -1 -1 -1 -1 -1 -1 -1 -1 -1 -1 -1 -1 -1 -1 -1 -1 -1 -1 -1
 MicOpt= -1 -1 -1 -1 -1
 NAtoms=     25 NQM=       25 NQMF=       0 NMMI=      0 NMMIF=      0
                NMic=       0 NMicF=      0.
                    Isotopes and Nuclear Properties:
 (Nuclear quadrupole moments (NQMom) in fm**2, nuclear magnetic moments (NMagM)
  in nuclear magnetons)

  Atom         1           2           3           4           5           6           7           8           9          10
 IAtWgt=          12          12          12          12          12          12           1           1           1           1
 AtmWgt=  12.0000000  12.0000000  12.0000000  12.0000000  12.0000000  12.0000000   1.0078250   1.0078250   1.0078250   1.0078250
 NucSpn=           0           0           0           0           0           0           1           1           1           1
 AtZEff=  -0.0000000  -0.0000000  -0.0000000  -0.0000000  -0.0000000  -0.0000000  -0.0000000  -0.0000000  -0.0000000  -0.0000000
 NQMom=    0.0000000   0.0000000   0.0000000   0.0000000   0.0000000   0.0000000   0.0000000   0.0000000   0.0000000   0.0000000
 NMagM=    0.0000000   0.0000000   0.0000000   0.0000000   0.0000000   0.0000000   2.7928460   2.7928460   2.7928460   2.7928460
 AtZNuc=   6.0000000   6.0000000   6.0000000   6.0000000   6.0000000   6.0000000   1.0000000   1.0000000   1.0000000   1.0000000

  Atom        11          12          13          14          15          16          17          18          19          20
 IAtWgt=          14          32          12          12          12          12           1          12          12           1
 AtmWgt=  14.0030740  31.9720718  12.0000000  12.0000000  12.0000000  12.0000000   1.0078250  12.0000000  12.0000000   1.0078250
 NucSpn=           2           0           0           0           0           0           1           0           0           1
 AtZEff=  -0.0000000  -0.0000000  -0.0000000  -0.0000000  -0.0000000  -0.0000000  -0.0000000  -0.0000000  -0.0000000  -0.0000000
 NQMom=    2.0440000   0.0000000   0.0000000   0.0000000   0.0000000   0.0000000   0.0000000   0.0000000   0.0000000   0.0000000
 NMagM=    0.4037610   0.0000000   0.0000000   0.0000000   0.0000000   0.0000000   2.7928460   0.0000000   0.0000000   2.7928460
 AtZNuc=   7.0000000  16.0000000   6.0000000   6.0000000   6.0000000   6.0000000   1.0000000   6.0000000   6.0000000   1.0000000

  Atom        21          22          23          24          25
 IAtWgt=           1           1          12          16           1
 AtmWgt=   1.0078250   1.0078250  12.0000000  15.9949146   1.0078250
 NucSpn=           1           1           0           0           1
 AtZEff=  -0.0000000  -0.0000000  -0.0000000  -0.0000000  -0.0000000
 NQMom=    0.0000000   0.0000000   0.0000000   0.0000000   0.0000000
 NMagM=    2.7928460   2.7928460   0.0000000   0.0000000   2.7928460
 AtZNuc=   1.0000000   1.0000000   6.0000000   8.0000000   1.0000000
 Leave Link  101 at Wed Oct 28 00:14:55 2020, MaxMem=  7784628224 cpu:              32.4 elap:               3.3
 (Enter /gpfs/loomis/apps/avx/software/Gaussian/16-C.01_AVX/g16/l103.exe)

 GradGradGradGradGradGradGradGradGradGradGradGradGradGradGradGradGradGrad
 Berny optimization.
 Initialization pass.
                           ----------------------------
                           !    Initial Parameters    !
                           ! (Angstroms and Degrees)  !
 --------------------------                            --------------------------
 ! Name  Definition              Value          Derivative Info.                !
 --------------------------------------------------------------------------------
 ! R1    R(1,2)                  1.3906         estimate D2E/DX2                !
 ! R2    R(1,6)                  1.3933         estimate D2E/DX2                !
 ! R3    R(1,7)                  1.094          estimate D2E/DX2                !
 ! R4    R(2,3)                  1.4357         estimate D2E/DX2                !
 ! R5    R(2,12)                 1.7373         estimate D2E/DX2                !
 ! R6    R(3,4)                  1.4347         estimate D2E/DX2                !
 ! R7    R(3,11)                 1.3374         estimate D2E/DX2                !
 ! R8    R(4,5)                  1.3875         estimate D2E/DX2                !
 ! R9    R(4,8)                  1.0942         estimate D2E/DX2                !
 ! R10   R(5,6)                  1.4153         estimate D2E/DX2                !
 ! R11   R(5,9)                  1.0948         estimate D2E/DX2                !
 ! R12   R(6,10)                 1.0932         estimate D2E/DX2                !
 ! R13   R(11,23)                1.364          estimate D2E/DX2                !
 ! R14   R(12,23)                1.7626         estimate D2E/DX2                !
 ! R15   R(13,14)                1.4304         estimate D2E/DX2                !
 ! R16   R(13,15)                1.4627         estimate D2E/DX2                !
 ! R17   R(13,23)                1.398          estimate D2E/DX2                !
 ! R18   R(14,16)                1.3787         estimate D2E/DX2                !
 ! R19   R(14,17)                1.0938         estimate D2E/DX2                !
 ! R20   R(15,18)                1.4013         estimate D2E/DX2                !
 ! R21   R(15,24)                1.3279         estimate D2E/DX2                !
 ! R22   R(16,19)                1.4251         estimate D2E/DX2                !
 ! R23   R(16,20)                1.0929         estimate D2E/DX2                !
 ! R24   R(18,19)                1.398          estimate D2E/DX2                !
 ! R25   R(18,21)                1.0938         estimate D2E/DX2                !
 ! R26   R(19,22)                1.0926         estimate D2E/DX2                !
 ! R27   R(24,25)                0.6881         estimate D2E/DX2                !
 ! A1    A(2,1,6)              118.4166         estimate D2E/DX2                !
 ! A2    A(2,1,7)              120.415          estimate D2E/DX2                !
 ! A3    A(6,1,7)              121.1685         estimate D2E/DX2                !
 ! A4    A(1,2,3)              123.3677         estimate D2E/DX2                !
 ! A5    A(1,2,12)             126.3437         estimate D2E/DX2                !
 ! A6    A(3,2,12)             110.2886         estimate D2E/DX2                !
 ! A7    A(2,3,4)              116.8312         estimate D2E/DX2                !
 ! A8    A(2,3,11)             114.9179         estimate D2E/DX2                !
 ! A9    A(4,3,11)             128.2509         estimate D2E/DX2                !
 ! A10   A(3,4,5)              119.2256         estimate D2E/DX2                !
 ! A11   A(3,4,8)              119.5347         estimate D2E/DX2                !
 ! A12   A(5,4,8)              121.2397         estimate D2E/DX2                !
 ! A13   A(4,5,6)              122.2348         estimate D2E/DX2                !
 ! A14   A(4,5,9)              119.0627         estimate D2E/DX2                !
 ! A15   A(6,5,9)              118.7025         estimate D2E/DX2                !
 ! A16   A(1,6,5)              119.9242         estimate D2E/DX2                !
 ! A17   A(1,6,10)             120.014          estimate D2E/DX2                !
 ! A18   A(5,6,10)             120.0618         estimate D2E/DX2                !
 ! A19   A(3,11,23)            111.7689         estimate D2E/DX2                !
 ! A20   A(2,12,23)             88.7808         estimate D2E/DX2                !
 ! A21   A(14,13,15)           117.5003         estimate D2E/DX2                !
 ! A22   A(14,13,23)           124.0503         estimate D2E/DX2                !
 ! A23   A(15,13,23)           118.4495         estimate D2E/DX2                !
 ! A24   A(13,14,16)           120.5503         estimate D2E/DX2                !
 ! A25   A(13,14,17)           118.9182         estimate D2E/DX2                !
 ! A26   A(16,14,17)           120.5315         estimate D2E/DX2                !
 ! A27   A(13,15,18)           120.9759         estimate D2E/DX2                !
 ! A28   A(13,15,24)           116.8545         estimate D2E/DX2                !
 ! A29   A(18,15,24)           122.1697         estimate D2E/DX2                !
 ! A30   A(14,16,19)           121.0934         estimate D2E/DX2                !
 ! A31   A(14,16,20)           119.7253         estimate D2E/DX2                !
 ! A32   A(19,16,20)           119.1813         estimate D2E/DX2                !
 ! A33   A(15,18,19)           119.4551         estimate D2E/DX2                !
 ! A34   A(15,18,21)           119.0745         estimate D2E/DX2                !
 ! A35   A(19,18,21)           121.4704         estimate D2E/DX2                !
 ! A36   A(16,19,18)           120.425          estimate D2E/DX2                !
 ! A37   A(16,19,22)           119.6497         estimate D2E/DX2                !
 ! A38   A(18,19,22)           119.9252         estimate D2E/DX2                !
 ! A39   A(11,23,12)           114.2438         estimate D2E/DX2                !
 ! A40   A(11,23,13)           125.5563         estimate D2E/DX2                !
 ! A41   A(12,23,13)           120.1999         estimate D2E/DX2                !
 ! A42   A(15,24,25)           116.2414         estimate D2E/DX2                !
 ! D1    D(6,1,2,3)              0.0            estimate D2E/DX2                !
 ! D2    D(6,1,2,12)           180.0            estimate D2E/DX2                !
 ! D3    D(7,1,2,3)            179.9999         estimate D2E/DX2                !
 ! D4    D(7,1,2,12)            -0.0001         estimate D2E/DX2                !
 ! D5    D(2,1,6,5)             -0.0001         estimate D2E/DX2                !
 ! D6    D(2,1,6,10)           179.9999         estimate D2E/DX2                !
 ! D7    D(7,1,6,5)            179.9999         estimate D2E/DX2                !
 ! D8    D(7,1,6,10)             0.0            estimate D2E/DX2                !
 ! D9    D(1,2,3,4)              0.0001         estimate D2E/DX2                !
 ! D10   D(1,2,3,11)          -180.0            estimate D2E/DX2                !
 ! D11   D(12,2,3,4)          -179.9998         estimate D2E/DX2                !
 ! D12   D(12,2,3,11)            0.0001         estimate D2E/DX2                !
 ! D13   D(1,2,12,23)          179.9997         estimate D2E/DX2                !
 ! D14   D(3,2,12,23)           -0.0003         estimate D2E/DX2                !
 ! D15   D(2,3,4,5)             -0.0001         estimate D2E/DX2                !
 ! D16   D(2,3,4,8)            179.9999         estimate D2E/DX2                !
 ! D17   D(11,3,4,5)           180.0            estimate D2E/DX2                !
 ! D18   D(11,3,4,8)             0.0            estimate D2E/DX2                !
 ! D19   D(2,3,11,23)            0.0004         estimate D2E/DX2                !
 ! D20   D(4,3,11,23)         -179.9997         estimate D2E/DX2                !
 ! D21   D(3,4,5,6)              0.0            estimate D2E/DX2                !
 ! D22   D(3,4,5,9)           -179.9999         estimate D2E/DX2                !
 ! D23   D(8,4,5,6)            180.0            estimate D2E/DX2                !
 ! D24   D(8,4,5,9)              0.0            estimate D2E/DX2                !
 ! D25   D(4,5,6,1)              0.0001         estimate D2E/DX2                !
 ! D26   D(4,5,6,10)          -179.9999         estimate D2E/DX2                !
 ! D27   D(9,5,6,1)           -179.9999         estimate D2E/DX2                !
 ! D28   D(9,5,6,10)             0.0            estimate D2E/DX2                !
 ! D29   D(3,11,23,12)          -0.0006         estimate D2E/DX2                !
 ! D30   D(3,11,23,13)         179.9984         estimate D2E/DX2                !
 ! D31   D(2,12,23,11)           0.0006         estimate D2E/DX2                !
 ! D32   D(2,12,23,13)        -179.9986         estimate D2E/DX2                !
 ! D33   D(15,13,14,16)          0.001          estimate D2E/DX2                !
 ! D34   D(15,13,14,17)       -179.9994         estimate D2E/DX2                !
 ! D35   D(23,13,14,16)       -179.9991         estimate D2E/DX2                !
 ! D36   D(23,13,14,17)          0.0005         estimate D2E/DX2                !
 ! D37   D(14,13,15,18)         -0.0012         estimate D2E/DX2                !
 ! D38   D(14,13,15,24)        179.9986         estimate D2E/DX2                !
 ! D39   D(23,13,15,18)        179.9989         estimate D2E/DX2                !
 ! D40   D(23,13,15,24)         -0.0014         estimate D2E/DX2                !
 ! D41   D(14,13,23,11)       -179.9999         estimate D2E/DX2                !
 ! D42   D(14,13,23,12)         -0.0009         estimate D2E/DX2                !
 ! D43   D(15,13,23,11)          0.0            estimate D2E/DX2                !
 ! D44   D(15,13,23,12)        179.999          estimate D2E/DX2                !
 ! D45   D(13,14,16,19)         -0.0003         estimate D2E/DX2                !
 ! D46   D(13,14,16,20)        179.9997         estimate D2E/DX2                !
 ! D47   D(17,14,16,19)       -179.9999         estimate D2E/DX2                !
 ! D48   D(17,14,16,20)          0.0001         estimate D2E/DX2                !
 ! D49   D(13,15,18,19)          0.0006         estimate D2E/DX2                !
 ! D50   D(13,15,18,21)       -179.9999         estimate D2E/DX2                !
 ! D51   D(24,15,18,19)       -179.9991         estimate D2E/DX2                !
 ! D52   D(24,15,18,21)          0.0003         estimate D2E/DX2                !
 ! D53   D(13,15,24,25)          0.0017         estimate D2E/DX2                !
 ! D54   D(18,15,24,25)       -179.9986         estimate D2E/DX2                !
 ! D55   D(14,16,19,18)         -0.0004         estimate D2E/DX2                !
 ! D56   D(14,16,19,22)        179.9999         estimate D2E/DX2                !
 ! D57   D(20,16,19,18)        179.9997         estimate D2E/DX2                !
 ! D58   D(20,16,19,22)         -0.0001         estimate D2E/DX2                !
 ! D59   D(15,18,19,16)          0.0002         estimate D2E/DX2                !
 ! D60   D(15,18,19,22)        179.9999         estimate D2E/DX2                !
 ! D61   D(21,18,19,16)       -179.9993         estimate D2E/DX2                !
 ! D62   D(21,18,19,22)          0.0005         estimate D2E/DX2                !
 ! Qtot  GIC-1                 -50.0            Frozen                          !
 ! Ptot  GIC-2                 140.0            Frozen                          !
 --------------------------------------------------------------------------------
 NOTE: GIC-type coordinates are in arbitrary units.
 Trust Radius=3.00D-01 FncErr=5.00D-06 GrdErr=5.00D-06 EigMax=2.50D+02 EigMin=1.00D-04
 Number of steps in this run=    143 maximum allowed number of steps=    150.
 GradGradGradGradGradGradGradGradGradGradGradGradGradGradGradGradGradGrad

 Leave Link  103 at Wed Oct 28 00:14:55 2020, MaxMem=  7784628224 cpu:               0.1 elap:               0.0
 (Enter /gpfs/loomis/apps/avx/software/Gaussian/16-C.01_AVX/g16/l202.exe)
                          Input orientation:                          
 ---------------------------------------------------------------------
 Center     Atomic      Atomic             Coordinates (Angstroms)
 Number     Number       Type             X           Y           Z
 ---------------------------------------------------------------------
      1          6           0        1.559929   -3.260777   -0.000018
      2          6           0        0.990513   -1.992053   -0.000022
      3          6           0        1.761076   -0.780705   -0.000027
      4          6           0        3.188874   -0.921459   -0.000029
      5          6           0        3.744266   -2.192973   -0.000024
      6          6           0        2.949393   -3.363923   -0.000017
      7          1           0        0.925998   -4.152343   -0.000014
      8          1           0        3.819058   -0.026948   -0.000034
      9          1           0        4.834053   -2.297278   -0.000024
     10          1           0        3.424643   -4.348408   -0.000012
     11          7           0        1.040090    0.345769   -0.000030
     12         16           0       -0.707712   -1.625730   -0.000025
     13          6           0       -1.311966    1.052887    0.000010
     14          6           0       -2.709235    0.746752    0.000020
     15          6           0       -0.929894    2.464763    0.000035
     16          6           0       -3.647913    1.756599    0.000031
     17          1           0       -3.020997   -0.301689    0.000012
     18          6           0       -1.901241    3.474783    0.000042
     19          6           0       -3.255147    3.126486    0.000039
     20          1           0       -4.712038    1.507344    0.000034
     21          1           0       -1.580644    4.520555    0.000060
     22          1           0       -4.018978    3.907794    0.000045
     23          6           0       -0.299469    0.088977   -0.000021
     24          8           0        0.370370    2.734323    0.000055
     25          1           0        0.793583    2.191730    0.000034
 ---------------------------------------------------------------------
                    Distance matrix (angstroms):
                    1          2          3          4          5
     1  C    0.000000
     2  C    1.390646   0.000000
     3  C    2.488216   1.435664   0.000000
     4  C    2.850591   2.445192   1.434719   0.000000
     5  C    2.431364   2.761073   2.434655   1.387519   0.000000
     6  C    1.393287   2.391493   2.843434   2.454177   1.415255
     7  H    1.093965   2.161253   3.473514   3.944518   3.432457
     8  H    3.944783   3.444170   2.191675   1.094204   2.167316
     9  H    3.412948   3.855640   3.426832   2.144643   1.094767
    10  H    2.158726   3.387831   3.936491   3.435050   2.179004
    11  N    3.643818   2.338348   1.337447   2.494622   3.709149
    12  S    2.795636   1.737286   2.609403   3.959720   4.487970
    13  C    5.182227   3.817468   3.578498   4.914834   6.008418
    14  C    5.855429   4.603171   4.724067   6.129487   7.091520
    15  C    6.243479   4.852955   4.215968   5.332049   6.598657
    16  C    7.231576   5.963840   5.974536   7.342591   8.381135
    17  H    5.453539   4.353107   4.806005   6.240722   7.024652
    18  C    7.572811   6.184540   5.614423   6.725787   7.999700
    19  C    7.998881   6.650193   6.358352   7.609945   8.791384
    20  H    7.878614   6.690656   6.865594   8.265803   9.230462
    21  H    8.391206   7.001779   6.266614   7.236285   8.568905
    22  H    9.083646   7.739715   7.442516   8.676106   9.873566
    23  C    3.831215   2.448415   2.236558   3.631737   4.643176
    24  O    6.111979   4.766887   3.780144   4.616135   5.971719
    25  H    5.506099   4.188415   3.125926   3.928023   5.285088
                    6          7          8          9         10
     6  C    0.000000
     7  H    2.171574   0.000000
     8  H    3.448437   5.038718   0.000000
     9  H    2.165565   4.325986   2.486888   0.000000
    10  H    1.093194   2.506326   4.339422   2.488688   0.000000
    11  N    4.172201   4.499559   2.803852   4.623836   5.265111
    12  S    4.049165   3.008784   4.800808   5.582306   4.948670
    13  C    6.137377   5.665942   5.243420   6.999797   7.183972
    14  C    6.994121   6.100496   6.573981   8.134329   7.974028
    15  C    7.001604   6.872440   5.362944   7.476639   8.085870
    16  C    8.351299   7.472366   7.677024   9.400940   9.343027
    17  H    6.709906   5.514192   6.845571   8.104578   7.610665
    18  C    8.384304   8.134269   6.707007   8.870224   9.464003
    19  C    8.978961   8.394244   7.745226   9.739219  10.024652
    20  H    9.078920   7.988712   8.667968  10.276333  10.024740
    21  H    9.093198   9.027869   7.059502   9.361153  10.183880
    22  H   10.071548   9.456141   8.770234  10.811063  11.116311
    23  C    4.741057   4.414812   4.120158   5.661030   5.793047
    24  O    6.621176   6.909045   4.417926   6.726179   7.713214
    25  H    5.959262   6.345455   3.751804   6.039586   7.049531
                   11         12         13         14         15
    11  N    0.000000
    12  S    2.634696   0.000000
    13  C    2.456050   2.745926   0.000000
    14  C    3.770706   3.103992   1.430413   0.000000
    15  C    2.893263   4.096523   1.462660   2.473382   0.000000
    16  C    4.895693   4.481621   2.439644   1.378734   2.808759
    17  H    4.112375   2.665403   2.180748   1.093811   3.467848
    18  C    4.294433   5.238296   2.492554   2.845173   1.401305
    19  C    5.116781   5.391937   2.841790   2.441548   2.417577
    20  H    5.868240   5.084366   3.430310   2.142364   3.901444
    21  H    4.929207   6.207965   3.478062   3.938948   2.156329
    22  H    6.187260   6.448594   3.934261   3.421639   3.409513
    23  C    1.363950   1.762635   1.397953   2.497928   2.458007
    24  O    2.480668   4.491362   2.378547   3.665298   1.327912
    25  H    1.862347   4.102060   2.393805   3.789156   1.744970
                   16         17         18         19         20
    16  C    0.000000
    17  H    2.151644   0.000000
    18  C    2.450107   3.938984   0.000000
    19  C    1.425081   3.436162   1.397989   0.000000
    20  H    1.092927   2.476332   3.430947   2.178107   0.000000
    21  H    3.451530   5.032758   1.093811   2.178851   4.345696
    22  H    2.182964   4.326166   2.161552   1.092648   2.498498
    23  C    3.740728   2.749425   3.745579   4.238219   4.634926
    24  O    4.135523   4.551784   2.389246   3.646666   5.228418
    25  H    4.462761   4.557210   2.984678   4.155236   5.547996
                   21         22         23         24         25
    21  H    0.000000
    22  H    2.514149   0.000000
    23  C    4.613058   5.330864   0.000000
    24  O    2.645200   4.543502   2.728836   0.000000
    25  H    3.325715   5.109366   2.369881   0.688125   0.000000
 Symmetry turned off by external request.
 Stoichiometry    C13H9NOS
 Framework group  C1[X(C13H9NOS)]
 Deg. of freedom    69
 Full point group                 C1      NOp   1
 Rotational constants (GHZ):           1.3918318           0.2864017           0.2375254
 Leave Link  202 at Wed Oct 28 00:14:56 2020, MaxMem=  7784628224 cpu:               0.1 elap:               0.0
 (Enter /gpfs/loomis/apps/avx/software/Gaussian/16-C.01_AVX/g16/l301.exe)
 Standard basis: CC-pVDZ (5D, 7F)
 Ernie: Thresh=  0.10000D-02 Tol=  0.10000D-05 Strict=F.
 Ernie:  40 primitive shells out of 425 were deleted.
   273 basis functions,   629 primitive gaussians,   289 cartesian basis functions
    59 alpha electrons       59 beta electrons
       nuclear repulsion energy      1100.6225247174 Hartrees.
 IExCor= 4639 DFT=T Ex+Corr=wB97XD ExCW=0 ScaHFX=  1.000000
 ScaDFX=  1.000000  1.000000  1.000000  1.000000 ScalE2=  1.000000  1.000000
 IRadAn=      5 IRanWt=     -1 IRanGd=            0 ICorTp=0 IEmpDi=121
 HFx  wShort=  0.000000 wLong=  0.200000 cFull=  0.222036 cShort=  0.000000 cLong=  0.777964
 DFx  wShort=  0.000000 wLong=  0.200000 cFull=  0.000000 cShort=  0.000000 cLong=  1.000000
 NAtoms=   25 NActive=   25 NUniq=   25 SFac= 1.00D+00 NAtFMM=   60 NAOKFM=F Big=F
 Integral buffers will be    131072 words long.
 Raffenetti 2 integral format.
 Two-electron integral symmetry is turned off.
 R6Disp:  Grimme-D2 Dispersion energy=       -0.0138408211 Hartrees.
 Nuclear repulsion after empirical dispersion term =     1100.6086838963 Hartrees.
 ------------------------------------------------------------------------------
 Polarizable Continuum Model (PCM)
 =================================
 Model                : PCM.
 Atomic radii         : UFF (Universal Force Field).
 Polarization charges : Total charges.
 Charge compensation  : None.
 Solution method      : On-the-fly selection.
 Cavity type          : Scaled VdW (van der Waals Surface) (Alpha=1.100).
 Cavity algorithm     : GePol (No added spheres)
                        Default sphere list used, NSphG=   25.
                        Lebedev-Laikov grids with approx.  5.0 points / Ang**2.
                        Smoothing algorithm: York/Karplus (Gamma=1.0000).
                        Polarization charges: spherical gaussians, with
                                              point-specific exponents (IZeta= 3).
                        Self-potential: point-specific (ISelfS= 7).
                        Self-field    : sphere-specific E.n sum rule (ISelfD= 2).
 1st derivatives      : Analytical E(r).r(x)/FMM algorithm (CHGder, D1EAlg=3).
                        Cavity 1st derivative terms included.
 Solvent              : CarbonTetraChloride, Eps=   2.228000 Eps(inf)=   2.131892
 ------------------------------------------------------------------------------
 GePol: Number of generator spheres                  =      25
 GePol: Total number of spheres                      =      25
 GePol: Number of exposed spheres                    =      25 (100.00%)
 GePol: Number of points                             =    2194
 GePol: Average weight of points                     =       0.12
 GePol: Minimum weight of points                     =   0.15D-10
 GePol: Maximum weight of points                     =    0.20577
 GePol: Number of points with low weight             =     144
 GePol: Fraction of low-weight points (<1% of avg)   =       6.56%
 GePol: Cavity surface area                          =    271.799 Ang**2
 GePol: Cavity volume                                =    291.956 Ang**3
 Leave Link  301 at Wed Oct 28 00:14:56 2020, MaxMem=  7784628224 cpu:               1.0 elap:               0.1
 (Enter /gpfs/loomis/apps/avx/software/Gaussian/16-C.01_AVX/g16/l302.exe)
 NPDir=0 NMtPBC=     1 NCelOv=     1 NCel=       1 NClECP=     1 NCelD=      1
         NCelK=      1 NCelE2=     1 NClLst=     1 CellRange=     0.0.
 One-electron integrals computed using PRISM.
 NBasis=   273 RedAO= T EigKep=  3.27D-04  NBF=   273
 NBsUse=   273 1.00D-06 EigRej= -1.00D+00 NBFU=   273
 Precomputing XC quadrature grid using
 IXCGrd= 4 IRadAn=           5 IRanWt=          -1 IRanGd=           0 AccXCQ= 0.00D+00.
 Generated NRdTot=       0 NPtTot=           0 NUsed=           0 NTot=          32
 NSgBfM=   288   288   288   288   288 MxSgAt=    25 MxSgA2=    25.
 Leave Link  302 at Wed Oct 28 00:14:56 2020, MaxMem=  7784628224 cpu:               2.5 elap:               0.3
 (Enter /gpfs/loomis/apps/avx/software/Gaussian/16-C.01_AVX/g16/l303.exe)
 DipDrv:  MaxL=1.
 Leave Link  303 at Wed Oct 28 00:14:56 2020, MaxMem=  7784628224 cpu:               0.4 elap:               0.1
 (Enter /gpfs/loomis/apps/avx/software/Gaussian/16-C.01_AVX/g16/l401.exe)
 ExpMin= 1.22D-01 ExpMax= 1.11D+05 ExpMxC= 1.07D+03 IAcc=3 IRadAn=         5 AccDes= 0.00D+00
 Harris functional with IExCor= 4639 and IRadAn=       5 diagonalized for initial guess.
 HarFok:  IExCor= 4639 AccDes= 0.00D+00 IRadAn=         5 IDoV= 1 UseB2=F ITyADJ=14
 ICtDFT=  3500011 ScaDFX=  1.000000  1.000000  1.000000  1.000000
 FoFCou: FMM=F IPFlag=           0 FMFlag=      100000 FMFlg1=           0
         NFxFlg=           0 DoJE=T BraDBF=F KetDBF=T FulRan=T
         wScrn=  0.000000 ICntrl=       500 IOpCl=  0 I1Cent=   200000004 NGrid=           0
         NMat0=    1 NMatS0=      1 NMatT0=    0 NMatD0=    1 NMtDS0=    0 NMtDT0=    0
 Symmetry not used in FoFCou.
 Harris En= -994.269653112058    
 JPrj=0 DoOrth=F DoCkMO=F.
 Leave Link  401 at Wed Oct 28 00:14:58 2020, MaxMem=  7784628224 cpu:              13.8 elap:               1.4
 (Enter /gpfs/loomis/apps/avx/software/Gaussian/16-C.01_AVX/g16/l502.exe)
 Two-electron integral symmetry not used.
 Closed shell SCF:
 Using DIIS extrapolation, IDIIS=  1040.
 NGot=  7784628224 LenX=  7784455381 LenY=  7784371419
 Requested convergence on RMS density matrix=1.00D-08 within 128 cycles.
 Requested convergence on MAX density matrix=1.00D-06.
 Requested convergence on             energy=1.00D-06.
 No special actions if energy rises.
 Fock matrices will be formed incrementally for  20 cycles.

 Cycle   1  Pass 1  IDiag  1:
 FoFJK:  IHMeth= 1 ICntrl=       0 DoSepK=T KAlg= 0 I1Cent=           0 FoldK=F
 IRaf=         1 NMat=       1 IRICut=       1 DoRegI=T DoRafI=F ISym2E= 0 IDoP0=0 IntGTp=1.
 FoFCou: FMM=F IPFlag=           0 FMFlag=      100000 FMFlg1=           0
         NFxFlg=           0 DoJE=T BraDBF=F KetDBF=F FulRan=T
         wScrn=  0.000000 ICntrl=       500 IOpCl=  0 I1Cent=           0 NGrid=           0
         NMat0=    1 NMatS0=      1 NMatT0=    0 NMatD0=    1 NMtDS0=    0 NMtDT0=    0
 Symmetry not used in FoFCou.
 Inv3:  Mode=1 IEnd=    14440908.
 Iteration    1 A*A^-1 deviation from unit magnitude is 4.44D-15 for   2178.
 Iteration    1 A*A^-1 deviation from orthogonality  is 1.89D-15 for    894     93.
 Iteration    1 A^-1*A deviation from unit magnitude is 4.44D-15 for   2170.
 Iteration    1 A^-1*A deviation from orthogonality  is 1.24D-15 for    780    478.
 E= -1028.44471962572    
 DIIS: error= 2.95D-02 at cycle   1 NSaved=   1.
 NSaved= 1 IEnMin= 1 EnMin= -1028.44471962572     IErMin= 1 ErrMin= 2.95D-02
 ErrMax= 2.95D-02  0.00D+00 EMaxC= 1.00D-01 BMatC= 3.69D-01 BMatP= 3.69D-01
 IDIUse=3 WtCom= 7.05D-01 WtEn= 2.95D-01
 Coeff-Com:  0.100D+01
 Coeff-En:   0.100D+01
 Coeff:      0.100D+01
 Gap=     0.356 Goal=   None    Shift=    0.000
 GapD=    0.356 DampG=1.000 DampE=0.500 DampFc=0.5000 IDamp=-1.
 Damping current iteration by 5.00D-01
 RMSDP=3.39D-03 MaxDP=2.24D-01              OVMax= 1.71D-01

 Cycle   2  Pass 1  IDiag  1:
 RMSU=  1.69D-03    CP:  9.94D-01
 E= -1028.55231598331     Delta-E=       -0.107596357593 Rises=F Damp=T
 DIIS: error= 1.18D-02 at cycle   2 NSaved=   2.
 NSaved= 2 IEnMin= 2 EnMin= -1028.55231598331     IErMin= 2 ErrMin= 1.18D-02
 ErrMax= 1.18D-02  0.00D+00 EMaxC= 1.00D-01 BMatC= 5.69D-02 BMatP= 3.69D-01
 IDIUse=3 WtCom= 8.82D-01 WtEn= 1.18D-01
 Coeff-Com: -0.345D+00 0.135D+01
 Coeff-En:   0.000D+00 0.100D+01
 Coeff:     -0.305D+00 0.130D+01
 Gap=     0.302 Goal=   None    Shift=    0.000
 RMSDP=1.12D-03 MaxDP=2.05D-02 DE=-1.08D-01 OVMax= 1.25D-01

 Cycle   3  Pass 1  IDiag  1:
 RMSU=  1.05D-03    CP:  9.90D-01  1.22D+00
 E= -1028.64535432104     Delta-E=       -0.093038337725 Rises=F Damp=F
 DIIS: error= 6.18D-03 at cycle   3 NSaved=   3.
 NSaved= 3 IEnMin= 3 EnMin= -1028.64535432104     IErMin= 3 ErrMin= 6.18D-03
 ErrMax= 6.18D-03  0.00D+00 EMaxC= 1.00D-01 BMatC= 1.10D-02 BMatP= 5.69D-02
 IDIUse=3 WtCom= 9.38D-01 WtEn= 6.18D-02
 Coeff-Com: -0.208D+00 0.484D+00 0.725D+00
 Coeff-En:   0.000D+00 0.000D+00 0.100D+01
 Coeff:     -0.196D+00 0.454D+00 0.742D+00
 Gap=     0.263 Goal=   None    Shift=    0.000
 RMSDP=4.90D-04 MaxDP=1.83D-02 DE=-9.30D-02 OVMax= 3.97D-02

 Cycle   4  Pass 1  IDiag  1:
 RMSU=  3.57D-04    CP:  9.89D-01  1.39D+00  8.50D-01
 E= -1028.65634671234     Delta-E=       -0.010992391306 Rises=F Damp=F
 DIIS: error= 2.14D-03 at cycle   4 NSaved=   4.
 NSaved= 4 IEnMin= 4 EnMin= -1028.65634671234     IErMin= 4 ErrMin= 2.14D-03
 ErrMax= 2.14D-03  0.00D+00 EMaxC= 1.00D-01 BMatC= 1.66D-03 BMatP= 1.10D-02
 IDIUse=3 WtCom= 9.79D-01 WtEn= 2.14D-02
 Coeff-Com: -0.808D-01 0.161D+00 0.373D+00 0.546D+00
 Coeff-En:   0.000D+00 0.000D+00 0.000D+00 0.100D+01
 Coeff:     -0.791D-01 0.158D+00 0.365D+00 0.556D+00
 Gap=     0.262 Goal=   None    Shift=    0.000
 RMSDP=1.54D-04 MaxDP=8.97D-03 DE=-1.10D-02 OVMax= 1.12D-02

 Cycle   5  Pass 1  IDiag  1:
 RMSU=  9.97D-05    CP:  9.89D-01  1.40D+00  9.19D-01  7.41D-01
 E= -1028.65809668348     Delta-E=       -0.001749971138 Rises=F Damp=F
 DIIS: error= 4.51D-04 at cycle   5 NSaved=   5.
 NSaved= 5 IEnMin= 5 EnMin= -1028.65809668348     IErMin= 5 ErrMin= 4.51D-04
 ErrMax= 4.51D-04  0.00D+00 EMaxC= 1.00D-01 BMatC= 6.78D-05 BMatP= 1.66D-03
 IDIUse=3 WtCom= 9.95D-01 WtEn= 4.51D-03
 Coeff-Com: -0.544D-02 0.517D-02 0.552D-01 0.193D+00 0.752D+00
 Coeff-En:   0.000D+00 0.000D+00 0.000D+00 0.000D+00 0.100D+01
 Coeff:     -0.542D-02 0.514D-02 0.549D-01 0.192D+00 0.753D+00
 Gap=     0.263 Goal=   None    Shift=    0.000
 RMSDP=4.86D-05 MaxDP=1.60D-03 DE=-1.75D-03 OVMax= 4.49D-03

 Cycle   6  Pass 1  IDiag  1:
 RMSU=  3.29D-05    CP:  9.88D-01  1.40D+00  9.35D-01  8.24D-01  1.04D+00
 E= -1028.65821001743     Delta-E=       -0.000113333947 Rises=F Damp=F
 DIIS: error= 1.53D-04 at cycle   6 NSaved=   6.
 NSaved= 6 IEnMin= 6 EnMin= -1028.65821001743     IErMin= 6 ErrMin= 1.53D-04
 ErrMax= 1.53D-04  0.00D+00 EMaxC= 1.00D-01 BMatC= 9.07D-06 BMatP= 6.78D-05
 IDIUse=3 WtCom= 9.98D-01 WtEn= 1.53D-03
 Coeff-Com:  0.155D-01-0.321D-01-0.566D-01-0.439D-01 0.209D+00 0.908D+00
 Coeff-En:   0.000D+00 0.000D+00 0.000D+00 0.000D+00 0.000D+00 0.100D+01
 Coeff:      0.155D-01-0.321D-01-0.565D-01-0.439D-01 0.209D+00 0.908D+00
 Gap=     0.263 Goal=   None    Shift=    0.000
 RMSDP=3.15D-05 MaxDP=1.55D-03 DE=-1.13D-04 OVMax= 3.01D-03

 Cycle   7  Pass 1  IDiag  1:
 RMSU=  1.70D-05    CP:  9.88D-01  1.40D+00  9.48D-01  8.65D-01  1.20D+00
                    CP:  1.19D+00
 E= -1028.65823675829     Delta-E=       -0.000026740867 Rises=F Damp=F
 DIIS: error= 1.10D-04 at cycle   7 NSaved=   7.
 NSaved= 7 IEnMin= 7 EnMin= -1028.65823675829     IErMin= 7 ErrMin= 1.10D-04
 ErrMax= 1.10D-04  0.00D+00 EMaxC= 1.00D-01 BMatC= 2.13D-06 BMatP= 9.07D-06
 IDIUse=3 WtCom= 9.99D-01 WtEn= 1.10D-03
 Coeff-Com:  0.732D-02-0.142D-01-0.314D-01-0.454D-01-0.241D-01 0.392D+00
 Coeff-Com:  0.716D+00
 Coeff-En:   0.000D+00 0.000D+00 0.000D+00 0.000D+00 0.000D+00 0.000D+00
 Coeff-En:   0.100D+01
 Coeff:      0.731D-02-0.142D-01-0.313D-01-0.453D-01-0.241D-01 0.391D+00
 Coeff:      0.716D+00
 Gap=     0.263 Goal=   None    Shift=    0.000
 RMSDP=1.06D-05 MaxDP=5.60D-04 DE=-2.67D-05 OVMax= 1.29D-03

 Cycle   8  Pass 1  IDiag  1:
 RMSU=  7.08D-06    CP:  9.88D-01  1.40D+00  9.49D-01  8.70D-01  1.24D+00
                    CP:  1.38D+00  1.04D+00
 E= -1028.65824118696     Delta-E=       -0.000004428670 Rises=F Damp=F
 DIIS: error= 3.47D-05 at cycle   8 NSaved=   8.
 NSaved= 8 IEnMin= 8 EnMin= -1028.65824118696     IErMin= 8 ErrMin= 3.47D-05
 ErrMax= 3.47D-05  0.00D+00 EMaxC= 1.00D-01 BMatC= 2.50D-07 BMatP= 2.13D-06
 IDIUse=1 WtCom= 1.00D+00 WtEn= 0.00D+00
 Coeff-Com: -0.893D-03 0.209D-02 0.190D-02-0.335D-02-0.412D-01-0.476D-01
 Coeff-Com:  0.219D+00 0.870D+00
 Coeff:     -0.893D-03 0.209D-02 0.190D-02-0.335D-02-0.412D-01-0.476D-01
 Coeff:      0.219D+00 0.870D+00
 Gap=     0.263 Goal=   None    Shift=    0.000
 RMSDP=4.67D-06 MaxDP=1.50D-04 DE=-4.43D-06 OVMax= 6.50D-04

 Cycle   9  Pass 1  IDiag  1:
 RMSU=  2.16D-06    CP:  9.88D-01  1.40D+00  9.49D-01  8.71D-01  1.25D+00
                    CP:  1.45D+00  1.22D+00  1.11D+00
 E= -1028.65824189135     Delta-E=       -0.000000704391 Rises=F Damp=F
 DIIS: error= 1.52D-05 at cycle   9 NSaved=   9.
 NSaved= 9 IEnMin= 9 EnMin= -1028.65824189135     IErMin= 9 ErrMin= 1.52D-05
 ErrMax= 1.52D-05  0.00D+00 EMaxC= 1.00D-01 BMatC= 4.53D-08 BMatP= 2.50D-07
 IDIUse=1 WtCom= 1.00D+00 WtEn= 0.00D+00
 Coeff-Com: -0.124D-02 0.250D-02 0.471D-02 0.514D-02-0.114D-01-0.706D-01
 Coeff-Com: -0.139D-01 0.322D+00 0.763D+00
 Coeff:     -0.124D-02 0.250D-02 0.471D-02 0.514D-02-0.114D-01-0.706D-01
 Coeff:     -0.139D-01 0.322D+00 0.763D+00
 Gap=     0.263 Goal=   None    Shift=    0.000
 RMSDP=1.82D-06 MaxDP=5.87D-05 DE=-7.04D-07 OVMax= 1.87D-04

 Cycle  10  Pass 1  IDiag  1:
 RMSU=  9.36D-07    CP:  9.88D-01  1.40D+00  9.49D-01  8.70D-01  1.25D+00
                    CP:  1.47D+00  1.27D+00  1.26D+00  1.09D+00
 E= -1028.65824200377     Delta-E=       -0.000000112419 Rises=F Damp=F
 DIIS: error= 6.53D-06 at cycle  10 NSaved=  10.
 NSaved=10 IEnMin=10 EnMin= -1028.65824200377     IErMin=10 ErrMin= 6.53D-06
 ErrMax= 6.53D-06  0.00D+00 EMaxC= 1.00D-01 BMatC= 6.48D-09 BMatP= 4.53D-08
 IDIUse=1 WtCom= 1.00D+00 WtEn= 0.00D+00
 Coeff-Com: -0.246D-03 0.454D-03 0.120D-02 0.239D-02 0.287D-02-0.193D-01
 Coeff-Com: -0.434D-01-0.346D-01 0.231D+00 0.860D+00
 Coeff:     -0.246D-03 0.454D-03 0.120D-02 0.239D-02 0.287D-02-0.193D-01
 Coeff:     -0.434D-01-0.346D-01 0.231D+00 0.860D+00
 Gap=     0.263 Goal=   None    Shift=    0.000
 RMSDP=9.25D-07 MaxDP=3.22D-05 DE=-1.12D-07 OVMax= 1.37D-04

 Cycle  11  Pass 1  IDiag  1:
 RMSU=  4.26D-07    CP:  9.88D-01  1.40D+00  9.49D-01  8.71D-01  1.25D+00
                    CP:  1.48D+00  1.29D+00  1.32D+00  1.30D+00  1.15D+00
 E= -1028.65824202923     Delta-E=       -0.000000025459 Rises=F Damp=F
 DIIS: error= 2.98D-06 at cycle  11 NSaved=  11.
 NSaved=11 IEnMin=11 EnMin= -1028.65824202923     IErMin=11 ErrMin= 2.98D-06
 ErrMax= 2.98D-06  0.00D+00 EMaxC= 1.00D-01 BMatC= 1.55D-09 BMatP= 6.48D-09
 IDIUse=1 WtCom= 1.00D+00 WtEn= 0.00D+00
 Coeff-Com:  0.145D-03-0.304D-03-0.465D-03-0.634D-04 0.290D-02 0.455D-02
 Coeff-Com: -0.958D-02-0.518D-01-0.655D-01 0.303D+00 0.817D+00
 Coeff:      0.145D-03-0.304D-03-0.465D-03-0.634D-04 0.290D-02 0.455D-02
 Coeff:     -0.958D-02-0.518D-01-0.655D-01 0.303D+00 0.817D+00
 Gap=     0.263 Goal=   None    Shift=    0.000
 RMSDP=3.59D-07 MaxDP=7.74D-06 DE=-2.55D-08 OVMax= 5.47D-05

 Cycle  12  Pass 1  IDiag  1:
 RMSU=  1.63D-07    CP:  9.88D-01  1.40D+00  9.49D-01  8.71D-01  1.26D+00
                    CP:  1.48D+00  1.30D+00  1.33D+00  1.38D+00  1.38D+00
                    CP:  1.11D+00
 E= -1028.65824203427     Delta-E=       -0.000000005034 Rises=F Damp=F
 DIIS: error= 9.30D-07 at cycle  12 NSaved=  12.
 NSaved=12 IEnMin=12 EnMin= -1028.65824203427     IErMin=12 ErrMin= 9.30D-07
 ErrMax= 9.30D-07  0.00D+00 EMaxC= 1.00D-01 BMatC= 2.75D-10 BMatP= 1.55D-09
 IDIUse=1 WtCom= 1.00D+00 WtEn= 0.00D+00
 Coeff-Com:  0.105D-03-0.207D-03-0.448D-03-0.572D-03 0.421D-03 0.607D-02
 Coeff-Com:  0.701D-02-0.735D-02-0.940D-01-0.105D+00 0.218D+00 0.975D+00
 Coeff:      0.105D-03-0.207D-03-0.448D-03-0.572D-03 0.421D-03 0.607D-02
 Coeff:      0.701D-02-0.735D-02-0.940D-01-0.105D+00 0.218D+00 0.975D+00
 Gap=     0.263 Goal=   None    Shift=    0.000
 RMSDP=2.27D-07 MaxDP=4.79D-06 DE=-5.03D-09 OVMax= 3.48D-05

 Cycle  13  Pass 1  IDiag  1:
 RMSU=  6.79D-08    CP:  9.88D-01  1.40D+00  9.49D-01  8.71D-01  1.26D+00
                    CP:  1.48D+00  1.30D+00  1.34D+00  1.42D+00  1.51D+00
                    CP:  1.40D+00  1.28D+00
 E= -1028.65824203559     Delta-E=       -0.000000001322 Rises=F Damp=F
 DIIS: error= 4.43D-07 at cycle  13 NSaved=  13.
 NSaved=13 IEnMin=13 EnMin= -1028.65824203559     IErMin=13 ErrMin= 4.43D-07
 ErrMax= 4.43D-07  0.00D+00 EMaxC= 1.00D-01 BMatC= 3.03D-11 BMatP= 2.75D-10
 IDIUse=1 WtCom= 1.00D+00 WtEn= 0.00D+00
 Coeff-Com:  0.467D-06 0.143D-05-0.284D-04-0.109D-03-0.243D-03 0.740D-03
 Coeff-Com:  0.294D-02 0.727D-02-0.124D-01-0.616D-01-0.875D-01 0.218D+00
 Coeff-Com:  0.933D+00
 Coeff:      0.467D-06 0.143D-05-0.284D-04-0.109D-03-0.243D-03 0.740D-03
 Coeff:      0.294D-02 0.727D-02-0.124D-01-0.616D-01-0.875D-01 0.218D+00
 Coeff:      0.933D+00
 Gap=     0.263 Goal=   None    Shift=    0.000
 RMSDP=6.67D-08 MaxDP=1.64D-06 DE=-1.32D-09 OVMax= 9.06D-06

 Cycle  14  Pass 1  IDiag  1:
 RMSU=  2.55D-08    CP:  9.88D-01  1.40D+00  9.49D-01  8.71D-01  1.26D+00
                    CP:  1.48D+00  1.30D+00  1.34D+00  1.43D+00  1.54D+00
                    CP:  1.47D+00  1.49D+00  1.20D+00
 E= -1028.65824203572     Delta-E=       -0.000000000132 Rises=F Damp=F
 DIIS: error= 1.16D-07 at cycle  14 NSaved=  14.
 NSaved=14 IEnMin=14 EnMin= -1028.65824203572     IErMin=14 ErrMin= 1.16D-07
 ErrMax= 1.16D-07  0.00D+00 EMaxC= 1.00D-01 BMatC= 4.42D-12 BMatP= 3.03D-11
 IDIUse=1 WtCom= 1.00D+00 WtEn= 0.00D+00
 Coeff-Com: -0.112D-04 0.227D-04 0.395D-04 0.251D-04-0.124D-03-0.402D-03
 Coeff-Com:  0.160D-03 0.317D-02 0.519D-02-0.780D-02-0.511D-01-0.285D-01
 Coeff-Com:  0.319D+00 0.761D+00
 Coeff:     -0.112D-04 0.227D-04 0.395D-04 0.251D-04-0.124D-03-0.402D-03
 Coeff:      0.160D-03 0.317D-02 0.519D-02-0.780D-02-0.511D-01-0.285D-01
 Coeff:      0.319D+00 0.761D+00
 Gap=     0.263 Goal=   None    Shift=    0.000
 RMSDP=1.59D-08 MaxDP=3.91D-07 DE=-1.32D-10 OVMax= 2.19D-06

 Cycle  15  Pass 1  IDiag  1:
 RMSU=  8.70D-09    CP:  9.88D-01  1.40D+00  9.49D-01  8.71D-01  1.26D+00
                    CP:  1.48D+00  1.30D+00  1.35D+00  1.43D+00  1.54D+00
                    CP:  1.48D+00  1.53D+00  1.33D+00  1.07D+00
 E= -1028.65824203571     Delta-E=        0.000000000010 Rises=F Damp=F
 DIIS: error= 4.86D-08 at cycle  15 NSaved=  15.
 NSaved=15 IEnMin=14 EnMin= -1028.65824203572     IErMin=15 ErrMin= 4.86D-08
 ErrMax= 4.86D-08  0.00D+00 EMaxC= 1.00D-01 BMatC= 4.99D-13 BMatP= 4.42D-12
 IDIUse=1 WtCom= 1.00D+00 WtEn= 0.00D+00
 Coeff-Com: -0.252D-05 0.465D-05 0.144D-04 0.252D-04 0.457D-05-0.243D-03
 Coeff-Com: -0.528D-03-0.452D-03 0.357D-02 0.904D-02 0.203D-02-0.472D-01
 Coeff-Com: -0.847D-01 0.156D+00 0.963D+00
 Coeff:     -0.252D-05 0.465D-05 0.144D-04 0.252D-04 0.457D-05-0.243D-03
 Coeff:     -0.528D-03-0.452D-03 0.357D-02 0.904D-02 0.203D-02-0.472D-01
 Coeff:     -0.847D-01 0.156D+00 0.963D+00
 Gap=     0.263 Goal=   None    Shift=    0.000
 RMSDP=8.03D-09 MaxDP=1.94D-07 DE= 9.55D-12 OVMax= 8.95D-07

 Error on total polarization charges =  0.00800
 SCF Done:  E(RwB97XD) =  -1028.65824204     A.U. after   15 cycles
            NFock= 15  Conv=0.80D-08     -V/T= 2.0040
 KE= 1.024550072299D+03 PE=-4.613617704654D+03 EE= 1.459800706423D+03
 Leave Link  502 at Wed Oct 28 00:16:21 2020, MaxMem=  7784628224 cpu:             825.8 elap:              83.3
 (Enter /gpfs/loomis/apps/avx/software/Gaussian/16-C.01_AVX/g16/l601.exe)
 Copying SCF densities to generalized density rwf, IOpCl= 0 IROHF=0.

 **********************************************************************

            Population analysis using the SCF Density.

 **********************************************************************

 Alpha  occ. eigenvalues --  -89.08358 -19.27244 -14.46147 -10.38905 -10.38898
 Alpha  occ. eigenvalues --  -10.34673 -10.34165 -10.32810 -10.32632 -10.32574
 Alpha  occ. eigenvalues --  -10.31817 -10.31436 -10.31413 -10.31249 -10.31168
 Alpha  occ. eigenvalues --  -10.31144  -8.10420  -6.05247  -6.04914  -6.04497
 Alpha  occ. eigenvalues --   -1.24954  -1.07713  -0.97386  -0.95518  -0.91822
 Alpha  occ. eigenvalues --   -0.88724  -0.87116  -0.84318  -0.82578  -0.77398
 Alpha  occ. eigenvalues --   -0.73491  -0.70325  -0.69874  -0.68264  -0.64956
 Alpha  occ. eigenvalues --   -0.60253  -0.59543  -0.58391  -0.56249  -0.54836
 Alpha  occ. eigenvalues --   -0.53911  -0.53676  -0.52601  -0.50965  -0.50521
 Alpha  occ. eigenvalues --   -0.49147  -0.48006  -0.46248  -0.45619  -0.45035
 Alpha  occ. eigenvalues --   -0.43686  -0.43272  -0.41961  -0.39583  -0.37088
 Alpha  occ. eigenvalues --   -0.36423  -0.32401  -0.31525  -0.28238
 Alpha virt. eigenvalues --   -0.01893   0.05404   0.06507   0.07024   0.08185
 Alpha virt. eigenvalues --    0.11398   0.14243   0.15377   0.17001   0.18026
 Alpha virt. eigenvalues --    0.18598   0.21409   0.21676   0.22317   0.22879
 Alpha virt. eigenvalues --    0.23808   0.23850   0.24545   0.28247   0.30599
 Alpha virt. eigenvalues --    0.32198   0.33543   0.34780   0.35906   0.37173
 Alpha virt. eigenvalues --    0.37995   0.38916   0.40723   0.43685   0.45558
 Alpha virt. eigenvalues --    0.46478   0.49226   0.50369   0.51399   0.51558
 Alpha virt. eigenvalues --    0.52674   0.53554   0.54528   0.55038   0.55931
 Alpha virt. eigenvalues --    0.56040   0.56283   0.57109   0.58047   0.58123
 Alpha virt. eigenvalues --    0.58746   0.59100   0.59452   0.59884   0.59997
 Alpha virt. eigenvalues --    0.60740   0.61037   0.62606   0.62667   0.63651
 Alpha virt. eigenvalues --    0.65614   0.66249   0.66539   0.68203   0.69235
 Alpha virt. eigenvalues --    0.71142   0.72071   0.72638   0.72794   0.73420
 Alpha virt. eigenvalues --    0.73918   0.75214   0.75996   0.77588   0.78863
 Alpha virt. eigenvalues --    0.79017   0.79466   0.81531   0.81762   0.82282
 Alpha virt. eigenvalues --    0.85211   0.90946   0.92054   0.93443   0.94536
 Alpha virt. eigenvalues --    0.95098   0.95234   0.96356   0.97179   0.97458
 Alpha virt. eigenvalues --    0.98368   0.98938   1.00691   1.01235   1.02512
 Alpha virt. eigenvalues --    1.03019   1.05726   1.06543   1.07047   1.07664
 Alpha virt. eigenvalues --    1.08697   1.08798   1.09567   1.10792   1.10819
 Alpha virt. eigenvalues --    1.11775   1.13022   1.14753   1.14878   1.15842
 Alpha virt. eigenvalues --    1.16729   1.19689   1.20214   1.21851   1.23135
 Alpha virt. eigenvalues --    1.24929   1.30108   1.32952   1.34728   1.35474
 Alpha virt. eigenvalues --    1.36603   1.36857   1.39000   1.41326   1.46281
 Alpha virt. eigenvalues --    1.48431   1.48867   1.51399   1.51744   1.54361
 Alpha virt. eigenvalues --    1.55555   1.56173   1.56625   1.57344   1.57751
 Alpha virt. eigenvalues --    1.59913   1.59937   1.61873   1.65886   1.66650
 Alpha virt. eigenvalues --    1.67312   1.68721   1.69535   1.70804   1.70889
 Alpha virt. eigenvalues --    1.72371   1.72481   1.72797   1.73819   1.75553
 Alpha virt. eigenvalues --    1.76110   1.77607   1.79667   1.81292   1.82184
 Alpha virt. eigenvalues --    1.83233   1.83436   1.84864   1.85152   1.85702
 Alpha virt. eigenvalues --    1.86391   1.88207   1.89097   1.90054   1.92272
 Alpha virt. eigenvalues --    1.92521   1.93074   1.93483   1.94559   1.96903
 Alpha virt. eigenvalues --    2.00429   2.00474   2.03176   2.03260   2.05163
 Alpha virt. eigenvalues --    2.07166   2.07896   2.09368   2.11340   2.12650
 Alpha virt. eigenvalues --    2.17515   2.18003   2.20142   2.24358   2.25976
 Alpha virt. eigenvalues --    2.26326   2.27376   2.36367   2.37952   2.42558
 Alpha virt. eigenvalues --    2.42662   2.43456   2.47074   2.47085   2.47333
 Alpha virt. eigenvalues --    2.49630   2.50249   2.54232   2.61148   2.63245
 Alpha virt. eigenvalues --    2.65009   2.71901   2.75259   2.78308   2.80316
 Alpha virt. eigenvalues --    2.81921   2.83958   2.89180   2.91147   2.97856
 Alpha virt. eigenvalues --    3.02249   3.07518   3.26000   3.30398   3.33538
 Alpha virt. eigenvalues --    3.51273   3.55993   3.75752   4.53205
          Condensed to atoms (all electrons):
               1          2          3          4          5          6
     1  C    4.769463   0.438241   0.018845  -0.056781  -0.013333   0.519839
     2  C    0.438241   5.338746   0.328459  -0.024547  -0.069524  -0.002930
     3  C    0.018845   0.328459   4.772186   0.475294  -0.001821  -0.065315
     4  C   -0.056781  -0.024547   0.475294   4.791239   0.525346  -0.010144
     5  C   -0.013333  -0.069524  -0.001821   0.525346   4.743054   0.485525
     6  C    0.519839  -0.002930  -0.065315  -0.010144   0.485525   4.750006
     7  H    0.399875  -0.036367   0.008195  -0.000530   0.007947  -0.040028
     8  H   -0.001209   0.012812  -0.036555   0.393777  -0.044350   0.008177
     9  H    0.009228  -0.000983   0.008840  -0.039399   0.404432  -0.046216
    10  H   -0.042457   0.009571  -0.000544   0.008349  -0.043068   0.405588
    11  N    0.009525  -0.068461   0.526431  -0.043652   0.003276  -0.000286
    12  S   -0.073522   0.344570  -0.099257   0.008067   0.000196   0.004027
    13  C   -0.000197   0.003705   0.006847  -0.000564   0.000009   0.000005
    14  C   -0.000017  -0.000033   0.000572   0.000008  -0.000000  -0.000000
    15  C    0.000011   0.000147  -0.002065  -0.000019  -0.000000  -0.000000
    16  C    0.000000  -0.000008   0.000008  -0.000000   0.000000  -0.000000
    17  H   -0.000008   0.000171  -0.000012   0.000000   0.000000   0.000000
    18  C    0.000000   0.000009  -0.000046  -0.000000  -0.000000  -0.000000
    19  C   -0.000000   0.000000   0.000003   0.000000   0.000000   0.000000
    20  H   -0.000000  -0.000000  -0.000000  -0.000000   0.000000  -0.000000
    21  H   -0.000000  -0.000000   0.000000   0.000000   0.000000   0.000000
    22  H   -0.000000  -0.000000   0.000000  -0.000000   0.000000  -0.000000
    23  C    0.005325  -0.058048  -0.132682  -0.001326   0.000340  -0.000229
    24  O    0.000001  -0.000048  -0.000959  -0.000010  -0.000000  -0.000000
    25  H   -0.000052   0.001387  -0.001280  -0.000286  -0.000010   0.000007
               7          8          9         10         11         12
     1  C    0.399875  -0.001209   0.009228  -0.042457   0.009525  -0.073522
     2  C   -0.036367   0.012812  -0.000983   0.009571  -0.068461   0.344570
     3  C    0.008195  -0.036555   0.008840  -0.000544   0.526431  -0.099257
     4  C   -0.000530   0.393777  -0.039399   0.008349  -0.043652   0.008067
     5  C    0.007947  -0.044350   0.404432  -0.043068   0.003276   0.000196
     6  C   -0.040028   0.008177  -0.046216   0.405588  -0.000286   0.004027
     7  H    0.663139   0.000035  -0.000162  -0.011348  -0.000101  -0.007665
     8  H    0.000035   0.664242  -0.013021  -0.000109  -0.000718  -0.000085
     9  H   -0.000162  -0.013021   0.670429  -0.012151  -0.000091   0.000019
    10  H   -0.011348  -0.000109  -0.012151   0.665888  -0.000001  -0.000172
    11  N   -0.000101  -0.000718  -0.000091  -0.000001   6.440196  -0.082100
    12  S   -0.007665  -0.000085   0.000019  -0.000172  -0.082100  15.518635
    13  C    0.000001   0.000030  -0.000000  -0.000000  -0.013987  -0.062830
    14  C    0.000001   0.000001   0.000000  -0.000000   0.003930  -0.012125
    15  C   -0.000000  -0.000031   0.000000   0.000000  -0.027549   0.006372
    16  C    0.000000   0.000000  -0.000000   0.000000  -0.000070   0.000268
    17  H    0.000002   0.000000  -0.000000  -0.000000   0.000201   0.009250
    18  C   -0.000000  -0.000000  -0.000000  -0.000000  -0.000527  -0.000172
    19  C    0.000000   0.000000  -0.000000  -0.000000   0.000034   0.000018
    20  H    0.000000  -0.000000   0.000000   0.000000   0.000001   0.000009
    21  H   -0.000000   0.000000  -0.000000   0.000000  -0.000003   0.000003
    22  H    0.000000  -0.000000  -0.000000  -0.000000   0.000000  -0.000000
    23  C    0.000105  -0.000978   0.000008   0.000004   0.552295   0.297511
    24  O   -0.000000  -0.000067   0.000000  -0.000000  -0.026886  -0.000063
    25  H    0.000000   0.000830  -0.000002   0.000000   0.053800   0.002477
              13         14         15         16         17         18
     1  C   -0.000197  -0.000017   0.000011   0.000000  -0.000008   0.000000
     2  C    0.003705  -0.000033   0.000147  -0.000008   0.000171   0.000009
     3  C    0.006847   0.000572  -0.002065   0.000008  -0.000012  -0.000046
     4  C   -0.000564   0.000008  -0.000019  -0.000000   0.000000  -0.000000
     5  C    0.000009  -0.000000  -0.000000   0.000000   0.000000  -0.000000
     6  C    0.000005  -0.000000  -0.000000  -0.000000   0.000000  -0.000000
     7  H    0.000001   0.000001  -0.000000   0.000000   0.000002  -0.000000
     8  H    0.000030   0.000001  -0.000031   0.000000   0.000000  -0.000000
     9  H   -0.000000   0.000000   0.000000  -0.000000  -0.000000  -0.000000
    10  H   -0.000000  -0.000000   0.000000   0.000000  -0.000000  -0.000000
    11  N   -0.013987   0.003930  -0.027549  -0.000070   0.000201  -0.000527
    12  S   -0.062830  -0.012125   0.006372   0.000268   0.009250  -0.000172
    13  C    5.359555   0.501804   0.244737  -0.014147  -0.034151  -0.092228
    14  C    0.501804   4.810050  -0.029504   0.533538   0.399208  -0.053744
    15  C    0.244737  -0.029504   4.936884  -0.060358   0.007338   0.466765
    16  C   -0.014147   0.533538  -0.060358   4.728884  -0.034463  -0.015329
    17  H   -0.034151   0.399208   0.007338  -0.034463   0.656402  -0.000665
    18  C   -0.092228  -0.053744   0.466765  -0.015329  -0.000665   4.856515
    19  C   -0.046984  -0.020916  -0.010414   0.491393   0.007990   0.512742
    20  H    0.008681  -0.034522  -0.000292   0.401975  -0.012253   0.008166
    21  H    0.011414  -0.000395  -0.024557   0.006885   0.000038   0.382317
    22  H   -0.001028   0.009303   0.009057  -0.042449  -0.000156  -0.042210
    23  C    0.310128  -0.084119  -0.066538   0.007141  -0.023005   0.008249
    24  O   -0.078823   0.003695   0.503250   0.000005  -0.000054  -0.055267
    25  H   -0.060366  -0.001608   0.017659   0.000022   0.000025   0.012298
              19         20         21         22         23         24
     1  C   -0.000000  -0.000000  -0.000000  -0.000000   0.005325   0.000001
     2  C    0.000000  -0.000000  -0.000000  -0.000000  -0.058048  -0.000048
     3  C    0.000003  -0.000000   0.000000   0.000000  -0.132682  -0.000959
     4  C    0.000000  -0.000000   0.000000  -0.000000  -0.001326  -0.000010
     5  C    0.000000   0.000000   0.000000   0.000000   0.000340  -0.000000
     6  C    0.000000  -0.000000   0.000000  -0.000000  -0.000229  -0.000000
     7  H    0.000000   0.000000  -0.000000   0.000000   0.000105  -0.000000
     8  H    0.000000  -0.000000   0.000000  -0.000000  -0.000978  -0.000067
     9  H   -0.000000   0.000000  -0.000000  -0.000000   0.000008   0.000000
    10  H   -0.000000   0.000000   0.000000  -0.000000   0.000004  -0.000000
    11  N    0.000034   0.000001  -0.000003   0.000000   0.552295  -0.026886
    12  S    0.000018   0.000009   0.000003  -0.000000   0.297511  -0.000063
    13  C   -0.046984   0.008681   0.011414  -0.001028   0.310128  -0.078823
    14  C   -0.020916  -0.034522  -0.000395   0.009303  -0.084119   0.003695
    15  C   -0.010414  -0.000292  -0.024557   0.009057  -0.066538   0.503250
    16  C    0.491393   0.401975   0.006885  -0.042449   0.007141   0.000005
    17  H    0.007990  -0.012253   0.000038  -0.000156  -0.023005  -0.000054
    18  C    0.512742   0.008166   0.382317  -0.042210   0.008249  -0.055267
    19  C    4.730366  -0.046107  -0.041839   0.406878   0.000909   0.002259
    20  H   -0.046107   0.669836  -0.000127  -0.011530  -0.000351   0.000003
    21  H   -0.041839  -0.000127   0.649007  -0.011781  -0.000409   0.001505
    22  H    0.406878  -0.011530  -0.011781   0.656072  -0.000009  -0.000045
    23  C    0.000909  -0.000351  -0.000409  -0.000009   5.109659  -0.002800
    24  O    0.002259   0.000003   0.001505  -0.000045  -0.002800   7.100326
    25  H   -0.000013  -0.000000   0.000276   0.000003   0.007713   0.439735
              25
     1  C   -0.000052
     2  C    0.001387
     3  C   -0.001280
     4  C   -0.000286
     5  C   -0.000010
     6  C    0.000007
     7  H    0.000000
     8  H    0.000830
     9  H   -0.000002
    10  H    0.000000
    11  N    0.053800
    12  S    0.002477
    13  C   -0.060366
    14  C   -0.001608
    15  C    0.017659
    16  C    0.000022
    17  H    0.000025
    18  C    0.012298
    19  C   -0.000013
    20  H   -0.000000
    21  H    0.000276
    22  H    0.000003
    23  C    0.007713
    24  O    0.439735
    25  H    0.654135
 Mulliken charges:
               1
     1  C    0.017224
     2  C   -0.216869
     3  C    0.194859
     4  C   -0.024822
     5  C    0.001983
     6  C   -0.008025
     7  H    0.016901
     8  H    0.017219
     9  H    0.019069
    10  H    0.020452
    11  N   -0.325258
    12  S    0.146569
    13  C   -0.041610
    14  C   -0.025127
    15  C    0.029106
    16  C   -0.003295
    17  H    0.024140
    18  C    0.013127
    19  C    0.013682
    20  H    0.016511
    21  H    0.027667
    22  H    0.027896
    23  C    0.071108
    24  O    0.114244
    25  H   -0.126751
 Sum of Mulliken charges =  -0.00000
 Mulliken charges with hydrogens summed into heavy atoms:
               1
     1  C    0.034126
     2  C   -0.216869
     3  C    0.194859
     4  C   -0.007603
     5  C    0.021052
     6  C    0.012427
    11  N   -0.325258
    12  S    0.146569
    13  C   -0.041610
    14  C   -0.000987
    15  C    0.029106
    16  C    0.013217
    18  C    0.040794
    19  C    0.041578
    23  C    0.071108
    24  O   -0.012507
 Electronic spatial extent (au):  <R**2>=           4331.5110
 Charge=             -0.0000 electrons
 Dipole moment (field-independent basis, Debye):
    X=             -1.3216    Y=             -1.2598    Z=              0.0000  Tot=              1.8259
 Quadrupole moment (field-independent basis, Debye-Ang):
   XX=            -82.7687   YY=            -87.0983   ZZ=           -104.1230
   XY=             -7.6448   XZ=             -0.0001   YZ=              0.0000
 Traceless Quadrupole moment (field-independent basis, Debye-Ang):
   XX=              8.5613   YY=              4.2317   ZZ=            -12.7930
   XY=             -7.6448   XZ=             -0.0001   YZ=              0.0000
 Octapole moment (field-independent basis, Debye-Ang**2):
  XXX=             -1.5166  YYY=             -5.7802  ZZZ=              0.0001  XYY=            -10.4661
  XXY=              8.2219  XXZ=              0.0003  XZZ=              0.6729  YZZ=              4.7314
  YYZ=              0.0003  XYZ=             -0.0005
 Hexadecapole moment (field-independent basis, Debye-Ang**3):
 XXXX=          -2585.6797 YYYY=          -2570.0530 ZZZZ=           -113.3314 XXXY=            800.0480
 XXXZ=              0.0098 YYYX=            765.0083 YYYZ=             -0.0138 ZZZX=              0.0140
 ZZZY=             -0.0172 XXYY=           -836.0862 XXZZ=           -570.8236 YYZZ=           -545.2027
 XXYZ=             -0.0039 YYXZ=              0.0022 ZZXY=            357.6822
 N-N= 1.100608683896D+03 E-N=-4.613617708315D+03  KE= 1.024550072299D+03
 No NMR shielding tensors so no spin-rotation constants.
 Leave Link  601 at Wed Oct 28 00:16:21 2020, MaxMem=  7784628224 cpu:               1.1 elap:               0.1
 (Enter /gpfs/loomis/apps/avx/software/Gaussian/16-C.01_AVX/g16/l701.exe)
 ... and contract with generalized density number  0.
 Compute integral first derivatives.
 R6Disp: Adding Grimme-D2 dispersion energy 1st derivatives to the gradient.
 D1PCM: PCM CHGder 1st derivatives, ID1Alg=3 FixD1E=F DoIter=F DoCFld=F I1PDM=0.
 GePol: Maximum number of non-zero 1st derivatives   =     255
 Leave Link  701 at Wed Oct 28 00:16:23 2020, MaxMem=  7784628224 cpu:              14.0 elap:               1.4
 (Enter /gpfs/loomis/apps/avx/software/Gaussian/16-C.01_AVX/g16/l702.exe)
 L702 exits ... SP integral derivatives will be done elsewhere.
 Leave Link  702 at Wed Oct 28 00:16:23 2020, MaxMem=  7784628224 cpu:               0.2 elap:               0.0
 (Enter /gpfs/loomis/apps/avx/software/Gaussian/16-C.01_AVX/g16/l703.exe)
 Integral derivatives from FoFJK, PRISM(SPDF).
 Compute integral first derivatives, UseDBF=F ICtDFT=           0.
 Calling FoFJK, ICntrl=      2127 FMM=F ISym2X=0 I1Cent= 0 IOpClX= 0 NMat=1 NMatS=1 NMatT=0.
 FoFJK:  IHMeth= 1 ICntrl=    2127 DoSepK=T KAlg= 0 I1Cent=           0 FoldK=F
 IRaf=         1 NMat=       1 IRICut=       1 DoRegI=T DoRafI=F ISym2E= 0 IDoP0=0 IntGTp=1.
 FoFCou: FMM=F IPFlag=           0 FMFlag=      100000 FMFlg1=         800
         NFxFlg=           0 DoJE=F BraDBF=F KetDBF=F FulRan=T
         wScrn=  0.000000 ICntrl=      2527 IOpCl=  0 I1Cent=           0 NGrid=           0
         NMat0=    1 NMatS0=      1 NMatT0=    0 NMatD0=    1 NMtDS0=    0 NMtDT0=    0
 Symmetry not used in FoFCou.
 Leave Link  703 at Wed Oct 28 00:16:36 2020, MaxMem=  7784628224 cpu:             137.4 elap:              13.8
 (Enter /gpfs/loomis/apps/avx/software/Gaussian/16-C.01_AVX/g16/l716.exe)
 Dipole        =-5.19970230D-01-4.95631023D-01 4.16681322D-06
 -------------------------------------------------------------------
 Center     Atomic                   Forces (Hartrees/Bohr)
 Number     Number              X              Y              Z
 -------------------------------------------------------------------
      1        6           0.007444564   -0.006697395   -0.000000036
      2        6           0.007414649    0.008499635   -0.000000228
      3        6           0.020494034   -0.049720610   -0.000000684
      4        6          -0.018931645    0.004614278    0.000000032
      5        6          -0.000456710   -0.003979075    0.000000107
      6        6          -0.002286120    0.007730320   -0.000000148
      7        1           0.001910009    0.001185359   -0.000000021
      8        1          -0.001742069   -0.001641791    0.000000019
      9        1          -0.002097156    0.000694626    0.000000004
     10        1          -0.000598506    0.001844196    0.000000005
     11        7          -0.059162523    0.014948287    0.000001036
     12       16           0.005883014    0.004895573    0.000000248
     13        6          -0.039770477    0.062206189    0.000000957
     14        6           0.023911243    0.003426951   -0.000001226
     15        6          -0.003196498   -0.045200883   -0.000000643
     16        6          -0.004150292    0.019382581    0.000000299
     17        1          -0.001283703    0.001743959   -0.000000040
     18        6          -0.002445267   -0.003263001    0.000000758
     19        6           0.006325097   -0.018257760   -0.000000009
     20        1           0.001554967    0.000403878    0.000000055
     21        1          -0.000159439   -0.002538321   -0.000000232
     22        1           0.001250415   -0.000845559   -0.000000017
     23        6           0.066084842   -0.027822745   -0.000000054
     24        8          -0.501935657    0.677770090    0.000024429
     25        1           0.495943226   -0.649378782   -0.000024613
 -------------------------------------------------------------------
 Cartesian Forces:  Max     0.677770090 RMS     0.136644285
 Leave Link  716 at Wed Oct 28 00:16:37 2020, MaxMem=  7784628224 cpu:               0.3 elap:               0.0
 (Enter /gpfs/loomis/apps/avx/software/Gaussian/16-C.01_AVX/g16/l103.exe)

 GradGradGradGradGradGradGradGradGradGradGradGradGradGradGradGradGradGrad
 Berny optimization.
 FormGI is forming the generalized inverse of G from B-inverse, IUseBI=4.
 Internal  Forces:  Max     0.782378531 RMS     0.070323112
 Search for a local minimum.
 Step number   1 out of a maximum of  143
 All quantities printed in internal units (Hartrees-Bohrs-Radians)
 RMS Force = .70858D-01 SwitMx=.10000D-02 MixMth= 1
 Mixed Optimization -- RFO/linear search
 Second derivative matrix not updated -- first step.
 ITU=  0
     Eigenvalues ---    0.01429   0.01498   0.01707   0.01735   0.01846
     Eigenvalues ---    0.01847   0.01863   0.01913   0.01914   0.01946
     Eigenvalues ---    0.01996   0.02026   0.02030   0.02057   0.02089
     Eigenvalues ---    0.02094   0.02116   0.02122   0.02153   0.02164
     Eigenvalues ---    0.02195   0.02645   0.16000   0.16000   0.16000
     Eigenvalues ---    0.16000   0.16000   0.16000   0.16000   0.16003
     Eigenvalues ---    0.16172   0.22000   0.22025   0.22529   0.22584
     Eigenvalues ---    0.24477   0.24549   0.25000   0.25000   0.25000
     Eigenvalues ---    0.28287   0.30923   0.33876   0.34267   0.34331
     Eigenvalues ---    0.34358   0.34376   0.34376   0.34446   0.34477
     Eigenvalues ---    0.34508   0.36553   0.38656   0.39252   0.40528
     Eigenvalues ---    0.42126   0.43217   0.44186   0.45245   0.45491
     Eigenvalues ---    0.46329   0.47481   0.48306   0.49714   0.54936
     Eigenvalues ---    0.59864   1.934651000.000001000.000001000.00000
     Eigenvalues --- 1000.000001000.000001000.000001000.000001000.00000
     Eigenvalues --- 1000.000001000.000001000.000001000.000001000.00000
     Eigenvalues --- 1000.000001000.000001000.000001000.000001000.00000
     Eigenvalues --- 1000.000001000.000001000.000001000.000001000.00000
     Eigenvalues --- 1000.000001000.000001000.000001000.000001000.00000
     Eigenvalues --- 1000.000001000.000001000.000001000.000001000.00000
     Eigenvalues --- 1000.000001000.000001000.000001000.000001000.00000
     Eigenvalues --- 1000.000001000.000001000.000001000.000001000.00000
     Eigenvalues --- 1000.000001000.000001000.000001000.000001000.00000
     Eigenvalues --- 1000.000001000.000001000.000001000.000001000.00000
     Eigenvalues --- 1000.000001000.000001000.000001000.000001000.00000
     Eigenvalues --- 1000.000001000.000001000.000001000.000001000.00000
     Eigenvalues --- 1000.000001000.000001000.00000
 RFO step:  Lambda=-3.02493660D-01 EMin= 1.42891727D-02
 Linear search not attempted -- first point.
 Maximum step size (   0.300) exceeded in Quadratic search.
    -- Step size scaled by   0.782
 Iteration  1 RMS(Cart)=  0.02236593 RMS(Int)=  0.00622048
 Iteration  2 RMS(Cart)=  0.00618422 RMS(Int)=  0.00009784
 Iteration  3 RMS(Cart)=  0.00006673 RMS(Int)=  0.00007926
 Iteration  4 RMS(Cart)=  0.00000004 RMS(Int)=  0.00007928
 Iteration  1 RMS(Cart)=  0.00000032 RMS(Int)=  0.00000007
 ITry= 1 IFail=0 DXMaxC= 1.66D-01 DCOld= 1.00D+10 DXMaxT= 3.00D-01 DXLimC= 3.00D+00 Rises=F
 Variable       Old X    -DE/DX   Delta X   Delta X   Delta X     New X
                                 (Linear)    (Quad)   (Total)
    R1        2.62794   0.01300   0.00000   0.00507   0.00502   2.63296
    R2        2.63293   0.00384   0.00000  -0.00452  -0.00459   2.62834
    R3        2.06729  -0.00193   0.00000  -0.00253  -0.00253   2.06476
    R4        2.71301  -0.01717   0.00000  -0.02213  -0.02211   2.69090
    R5        3.28299   0.01018   0.00000   0.00282   0.00275   3.28575
    R6        2.71123  -0.02892   0.00000  -0.02462  -0.02456   2.68667
    R7        2.52741   0.00976   0.00000   0.02514   0.02529   2.55270
    R8        2.62203  -0.01565   0.00000  -0.00466  -0.00459   2.61744
    R9        2.06775  -0.00235   0.00000  -0.00283  -0.00283   2.06492
   R10        2.67444  -0.00442   0.00000  -0.00771  -0.00774   2.66671
   R11        2.06881  -0.00207   0.00000  -0.00261  -0.00261   2.06620
   R12        2.06584  -0.00203   0.00000  -0.00234  -0.00234   2.06350
   R13        2.57749  -0.05833   0.00000  -0.04680  -0.04674   2.53075
   R14        3.33090   0.04252   0.00000   0.00664   0.00638   3.33727
   R15        2.70309  -0.00275   0.00000  -0.01727  -0.01735   2.68574
   R16        2.76403   0.03089   0.00000  -0.01976  -0.02005   2.74398
   R17        2.64175   0.07545   0.00000   0.05009   0.04993   2.69168
   R18        2.60543  -0.00042   0.00000   0.00186   0.00187   2.60730
   R19        2.06700  -0.00143   0.00000  -0.00160  -0.00160   2.06540
   R20        2.64808  -0.01900   0.00000  -0.00727  -0.00719   2.64089
   R21        2.50939   0.00999   0.00000  -0.00006  -0.00013   2.50926
   R22        2.69301  -0.02522   0.00000  -0.02633  -0.02632   2.66670
   R23        2.06533  -0.00191   0.00000  -0.00196  -0.00195   2.06338
   R24        2.64182  -0.02948   0.00000  -0.01333  -0.01322   2.62860
   R25        2.06700  -0.00227   0.00000  -0.00298  -0.00298   2.06402
   R26        2.06480  -0.00173   0.00000  -0.00178  -0.00177   2.06303
   R27        1.30037   0.78238   0.00000   0.27351   0.27371   1.57408
    A1        2.06676  -0.00727   0.00000  -0.00504  -0.00503   2.06173
    A2        2.10164   0.00587   0.00000   0.00414   0.00413   2.10577
    A3        2.11479   0.00139   0.00000   0.00089   0.00090   2.11568
    A4        2.15317  -0.01260   0.00000  -0.00330  -0.00323   2.14994
    A5        2.20511   0.03667   0.00000   0.01942   0.01925   2.22437
    A6        1.92490  -0.02408   0.00000  -0.01611  -0.01602   1.90888
    A7        2.03909   0.01798   0.00000   0.00940   0.00933   2.04842
    A8        2.00570   0.01865   0.00000   0.00652   0.00647   2.01216
    A9        2.23840  -0.03663   0.00000  -0.01592  -0.01580   2.22260
   A10        2.08088   0.00186   0.00000   0.00087   0.00089   2.08177
   A11        2.08627  -0.00260   0.00000  -0.00139  -0.00139   2.08488
   A12        2.11603   0.00074   0.00000   0.00052   0.00050   2.11653
   A13        2.13340  -0.00513   0.00000  -0.00403  -0.00401   2.12939
   A14        2.07804   0.00112   0.00000   0.00102   0.00102   2.07906
   A15        2.07175   0.00400   0.00000   0.00300   0.00299   2.07474
   A16        2.09307   0.00515   0.00000   0.00209   0.00205   2.09512
   A17        2.09464  -0.00145   0.00000  -0.00046  -0.00044   2.09420
   A18        2.09547  -0.00370   0.00000  -0.00163  -0.00160   2.09387
   A19        1.95073   0.01237   0.00000   0.00703   0.00701   1.95775
   A20        1.54952   0.00837   0.00000   0.01059   0.01052   1.56004
   A21        2.05077  -0.02739   0.00000  -0.00385  -0.00371   2.04705
   A22        2.16509  -0.03488   0.00000  -0.01976  -0.01966   2.14542
   A23        2.06733   0.06226   0.00000   0.02361   0.02338   2.09071
   A24        2.10400   0.01310   0.00000   0.00911   0.00907   2.11307
   A25        2.07551  -0.00382   0.00000  -0.00144  -0.00142   2.07409
   A26        2.10367  -0.00928   0.00000  -0.00767  -0.00765   2.09603
   A27        2.11143   0.00204   0.00000  -0.00415  -0.00419   2.10724
   A28        2.03950   0.09434   0.00000   0.04498   0.04460   2.08410
   A29        2.13226  -0.09638   0.00000  -0.04083  -0.04042   2.09185
   A30        2.11348  -0.00002   0.00000  -0.00794  -0.00797   2.10551
   A31        2.08960   0.00074   0.00000   0.00416   0.00417   2.09377
   A32        2.08011  -0.00072   0.00000   0.00378   0.00380   2.08391
   A33        2.08489   0.01198   0.00000   0.00697   0.00693   2.09181
   A34        2.07824  -0.00762   0.00000  -0.00462  -0.00459   2.07365
   A35        2.12006  -0.00436   0.00000  -0.00235  -0.00233   2.11772
   A36        2.10181   0.00029   0.00000  -0.00014  -0.00013   2.10169
   A37        2.08828   0.00157   0.00000   0.00072   0.00071   2.08899
   A38        2.09309  -0.00186   0.00000  -0.00058  -0.00058   2.09251
   A39        1.99393  -0.01532   0.00000  -0.00802  -0.00798   1.98595
   A40        2.19137  -0.00869   0.00000  -0.00676  -0.00669   2.18468
   A41        2.09788   0.02400   0.00000   0.01479   0.01467   2.11256
   A42        2.02880   0.00651   0.00000  -0.01841  -0.01855   2.01025
    D1       -0.00000   0.00000   0.00000   0.00000   0.00000  -0.00000
    D2        3.14159   0.00000   0.00000   0.00000   0.00000   3.14159
    D3        3.14159   0.00000   0.00000   0.00000   0.00000   3.14159
    D4       -0.00000   0.00000   0.00000   0.00000   0.00000  -0.00000
    D5       -0.00000   0.00000   0.00000   0.00000   0.00000  -0.00000
    D6        3.14159   0.00000   0.00000  -0.00000  -0.00000   3.14159
    D7        3.14159   0.00000   0.00000   0.00000   0.00000   3.14159
    D8       -0.00000  -0.00000   0.00000  -0.00000  -0.00000  -0.00000
    D9        0.00000  -0.00000   0.00000  -0.00000  -0.00000   0.00000
   D10       -3.14159  -0.00000   0.00000  -0.00000  -0.00000  -3.14159
   D11       -3.14159  -0.00000   0.00000  -0.00000  -0.00000  -3.14159
   D12        0.00000  -0.00000   0.00000  -0.00000  -0.00000   0.00000
   D13        3.14159   0.00000   0.00000   0.00000   0.00000   3.14159
   D14       -0.00001   0.00000   0.00000   0.00000   0.00000  -0.00001
   D15       -0.00000   0.00000   0.00000   0.00000   0.00000  -0.00000
   D16        3.14159   0.00000   0.00000   0.00000   0.00000   3.14159
   D17        3.14159   0.00000   0.00000  -0.00000  -0.00000   3.14159
   D18        0.00000   0.00000   0.00000  -0.00000  -0.00000   0.00000
   D19        0.00001  -0.00000   0.00000  -0.00000  -0.00000   0.00001
   D20       -3.14159  -0.00000   0.00000  -0.00000  -0.00000  -3.14159
   D21        0.00000  -0.00000   0.00000   0.00000   0.00000   0.00000
   D22       -3.14159  -0.00000   0.00000  -0.00000  -0.00000  -3.14159
   D23        3.14159   0.00000   0.00000   0.00000   0.00000   3.14159
   D24        0.00000  -0.00000   0.00000  -0.00000  -0.00000   0.00000
   D25        0.00000  -0.00000   0.00000  -0.00000  -0.00000   0.00000
   D26       -3.14159  -0.00000   0.00000  -0.00000  -0.00000  -3.14159
   D27       -3.14159  -0.00000   0.00000  -0.00000  -0.00000  -3.14159
   D28        0.00000   0.00000   0.00000   0.00000   0.00000   0.00000
   D29       -0.00001   0.00000   0.00000   0.00000   0.00000  -0.00001
   D30        3.14157   0.00000   0.00000   0.00000   0.00000   3.14157
   D31        0.00001  -0.00000   0.00000  -0.00000  -0.00000   0.00001
   D32       -3.14157  -0.00000   0.00000  -0.00000  -0.00000  -3.14157
   D33        0.00002  -0.00000   0.00000  -0.00000  -0.00000   0.00002
   D34       -3.14158  -0.00000   0.00000  -0.00000  -0.00000  -3.14158
   D35       -3.14158  -0.00000   0.00000  -0.00000  -0.00000  -3.14158
   D36        0.00001  -0.00000   0.00000  -0.00000  -0.00000   0.00001
   D37       -0.00002   0.00000   0.00000   0.00000   0.00000  -0.00002
   D38        3.14157   0.00000   0.00000   0.00000   0.00000   3.14157
   D39        3.14157   0.00000   0.00000   0.00000   0.00000   3.14157
   D40       -0.00002   0.00000   0.00000   0.00000   0.00000  -0.00002
   D41       -3.14159  -0.00000   0.00000  -0.00000  -0.00000  -3.14159
   D42       -0.00002  -0.00000   0.00000   0.00000   0.00000  -0.00002
   D43       -0.00000  -0.00000   0.00000  -0.00000  -0.00000  -0.00000
   D44        3.14157   0.00000   0.00000   0.00000   0.00000   3.14158
   D45       -0.00000  -0.00000   0.00000   0.00000   0.00000  -0.00000
   D46        3.14159   0.00000   0.00000   0.00000   0.00000   3.14159
   D47       -3.14159  -0.00000   0.00000  -0.00000  -0.00000  -3.14159
   D48        0.00000  -0.00000   0.00000  -0.00000  -0.00000   0.00000
[...]
 -0.00554840,0.00044005,0.,0.00193832,-0.00030070,-0.00000001,0.0001170
 3,0.00206023,0.00000001,-0.00201643,0.00005427,0.00000001,0.00016544,-
 0.00008586,0.,-0.00031478,0.00000969,0.,-0.00011202,0.00005575,0.,-0.0
 0014446,0.00000988,0.,-0.00285709,-0.01306867,-0.00000007,-0.00187011,
 0.00334900,0.00000003,-0.14648700,-0.05130136,-0.00000049,0.01521433,-
 0.04371279,-0.00000054,0.74546359,0.00073348,-0.00096061,0.,-0.0007205
 4,0.00040093,0.00000003,-0.00129404,-0.00139361,0.00000001,0.00052262,
 0.00010946,0.,-0.00009361,0.00080894,0.,-0.00105158,-0.00015925,0.,0.0
 0004176,-0.00000824,0.,-0.00005558,-0.00001704,0.,-0.00004624,0.000041
 82,0.,-0.00003587,0.00001084,0.,-0.00814904,-0.00447305,-0.00000002,0.
 00158367,0.00277375,-0.00000004,-0.00232320,-0.27879622,-0.00000230,-0
 .08895933,0.00947053,0.00000030,-0.00992367,0.69269089,0.,0.,0.0002851
 5,0.,0.00000001,0.00026004,0.00000001,-0.00000001,-0.00075745,0.,0.,-0
 .00011989,0.,0.,0.00006878,0.,0.,-0.00010515,0.,0.,0.00002166,0.,0.,-0
 .00002023,0.,0.,0.00002577,0.,0.,-0.00003090,-0.00000007,0.00000003,0.
 00010344,0.,0.00000002,0.00139753,0.00000026,-0.00000228,-0.07081322,-
 0.00000118,0.00000021,0.00159549,-0.00000238,0.00000602,0.17484189,0.0
 0015841,-0.00008908,0.,-0.00029654,0.00078500,0.,0.00042870,-0.0010316
 9,0.,-0.00009775,0.00029298,0.,0.00001613,0.00003665,0.,-0.00015227,0.
 00008156,0.,-0.00001089,0.00002375,0.,0.00004293,-0.00001961,0.,-0.000
 02656,0.00002391,0.,0.00000138,0.00001095,0.,-0.00333576,0.00192935,0.
 00000002,0.00000694,0.00052199,0.,-0.05006678,0.00743582,0.00000017,-0
 .25621449,0.16248881,0.00000232,-0.00260234,0.02328787,0.00000024,0.77
 097370,-0.00033813,0.00084894,0.,0.00088309,-0.00054173,0.,-0.00020881
 ,0.00113016,0.00000003,-0.00044486,0.00001831,0.,-0.00016312,-0.000783
 36,0.,0.00094517,-0.00019997,0.,-0.00005524,-0.00006305,0.,0.00003343,
 0.00004169,0.,0.00009390,-0.00004445,0.,0.00005953,-0.00003899,0.,0.00
 506032,0.00210917,0.,-0.00186331,-0.00120453,-0.00000002,0.06018187,0.
 04495745,0.00000035,0.08973035,-0.25031420,-0.00000242,0.03087791,-0.0
 7152256,-0.00000090,0.00678346,0.68538744,0.,0.00000001,0.00010889,0.0
 0000002,-0.00000001,0.00054095,0.,0.,-0.00065087,-0.00000001,0.,-0.000
 16395,0.,-0.00000002,0.00007151,0.00000002,0.,-0.00003055,0.,0.,0.0000
 0841,0.,0.,0.00001695,0.,0.,0.00001983,0.,0.,-0.00004236,0.00000005,0.
 00000003,0.00010383,-0.00000002,-0.00000003,-0.00095886,0.00000080,0.0
 0000045,0.00760203,0.00000150,-0.00000260,-0.06236912,0.00000035,-0.00
 000085,-0.00462121,-0.00000092,0.00000702,0.12808680,0.00031043,-0.000
 00561,0.,-0.00075819,0.00037132,0.00000002,0.00022253,0.00005554,0.,0.
 00005867,0.00001353,0.,0.00006461,0.00008144,0.,-0.00009638,-0.0000997
 2,0.,-0.00001615,-0.00001388,0.,0.00003749,0.00000393,0.,0.00001439,-0
 .00000226,0.,0.00003253,-0.00001320,0.,0.00054583,0.00038013,0.,-0.003
 54532,0.00345458,0.,-0.00272890,-0.02769392,-0.00000033,-0.08073213,-0
 .07543104,-0.00000088,-0.00538736,0.00069049,0.00000003,0.01024286,0.0
 2232927,0.00000026,0.08432480,0.00008237,0.00005482,0.,-0.00001489,0.0
 0064491,0.00000002,0.00040802,-0.00042875,0.,0.00000837,0.00013310,0.,
 0.00001787,0.00003970,0.,-0.00005554,-0.00002661,0.,-0.00001974,0.0000
 0083,0.,0.00004122,0.00000195,0.,0.00000066,0.00000250,0.,0.00001651,-
 0.00000098,0.,-0.00072684,0.00035276,0.,0.00270075,-0.00182572,-0.0000
 0003,0.00082709,-0.00369821,-0.00000008,-0.07371789,-0.32037143,-0.000
 00337,-0.00064076,0.00192577,-0.00000006,-0.01005568,-0.01630594,-0.00
 000023,0.07573759,0.34194002,0.,0.,-0.00002898,-0.00000001,0.00000001,
 -0.00080283,0.,0.,0.00013511,0.,0.,0.00010301,0.,0.,-0.00003387,0.,0.,
 0.00003984,0.,0.,-0.00002021,0.,0.,-0.00002750,0.,0.,-0.00000459,0.,0.
 ,0.00002978,0.00000001,0.,0.00010900,0.,0.,0.00154705,0.00000006,-0.00
 000004,0.00286425,-0.00000091,-0.00000336,-0.03749353,0.00000001,-0.00
 000005,0.00595142,-0.00000011,-0.00000031,0.00509809,0.00000088,0.0000
 0376,0.02452569,0.00017677,0.00029105,0.,0.00025425,0.00003374,0.,0.00
 102897,-0.00000991,0.,-0.00032433,-0.00007737,0.,-0.00004731,-0.000309
 72,0.,0.00026536,-0.00010767,0.,-0.00003548,0.00000257,0.,0.00007552,0
 .00000216,0.,0.00003607,-0.00001782,0.,0.00002666,-0.00000577,0.,0.001
 31197,0.00350470,0.00000002,-0.00006842,0.00010254,-0.00000002,0.05465
 675,0.04232078,0.00000045,-0.06701068,0.02187081,0.00000039,-0.2007836
 7,0.06258838,0.00000113,0.00473489,-0.08972939,-0.00000106,-0.00088282
 ,0.00042610,-0.00000001,0.74380556,0.00040850,-0.00027050,0.,-0.000957
 21,-0.00014093,0.,-0.00017384,0.00014097,0.,0.00039323,-0.00004546,0.,
 0.00011118,0.00045891,0.,-0.00044434,-0.00007363,0.,-0.00000351,0.0000
 2693,0.,0.00001162,-0.00001050,0.,-0.00002030,0.00001611,0.,0.00001252
 ,0.00000232,0.,-0.00064877,-0.00026987,0.,0.00147167,-0.00039211,0.,0.
 00424516,-0.03558643,-0.00000053,0.01795261,-0.00833856,-0.00000011,0.
 13329971,-0.24491758,-0.00000247,-0.03824712,0.00841000,0.00000005,0.0
 0021703,0.00059707,0.00000003,0.04564702,0.73917830,0.,0.,-0.00017460,
 -0.00000003,0.,-0.00006016,-0.00000001,0.,-0.00058496,0.00000001,0.,-0
 .00000053,0.,0.00000001,0.00002015,-0.00000001,0.,0.00002329,0.,0.,-0.
 00002092,0.,0.,-0.00001352,0.,0.,-0.00000370,0.,0.,0.00003392,-0.00000
 002,-0.00000003,0.00092415,0.00000003,-0.00000001,-0.00018435,-0.00000
 003,-0.00000050,0.00798039,0.00000033,-0.00000012,-0.00346892,0.000001
 86,-0.00000236,-0.07083367,-0.00000043,0.00000016,0.00802401,0.,0.0000
 0002,-0.00097505,-0.00000108,0.00000708,0.12576502,0.00028841,-0.00062
 857,0.,-0.00104176,0.00033913,0.,-0.00046509,-0.00001023,0.,0.00062462
 ,-0.00003333,0.,0.00011053,0.00076654,0.,-0.00077399,0.00004778,0.,0.0
 0003497,0.00004662,0.,-0.00003002,-0.00003546,0.,-0.00006883,0.0000387
 7,0.,-0.00003763,0.00002587,0.,-0.00217486,-0.00139886,0.,0.00121817,0
 .00031606,0.00000001,-0.03705931,-0.02482145,-0.00000024,0.06144059,0.
 00317118,-0.00000007,-0.05767600,0.05497176,0.00000080,-0.14479157,-0.
 01807634,-0.00000014,-0.00290280,0.00420518,0.00000008,-0.36884503,-0.
 09961519,-0.00000055,0.74291767,0.00005358,-0.00017484,0.,-0.00013878,
 0.00022084,0.,0.00027443,-0.00096917,-0.00000001,-0.00007908,0.0001586
 2,0.,0.00005922,0.00007328,0.,-0.00018171,0.00013056,0.,0.00001473,0.0
 0001111,0.,-0.00000968,-0.00000728,0.,-0.00003000,0.00001576,0.,-0.000
 00831,0.00000946,0.,-0.00347595,-0.00067571,0.,0.00067952,0.00017686,0
 .00000001,-0.04045129,-0.03067716,-0.00000029,0.06032845,-0.05494580,-
 0.00000087,-0.00142428,0.06828781,0.00000079,-0.09236753,-0.32278801,-
 0.00000317,0.00342310,-0.00150772,-0.00000010,-0.02725412,-0.14980012,
 -0.00000093,-0.03149048,0.71425448,0.,0.,0.00001776,0.,0.,-0.00002344,
 0.,-0.00000002,0.00019363,0.,0.,0.00001333,0.,0.,-0.00001577,0.,0.,0.0
 0000373,0.,0.,-0.00000096,0.,0.,0.00001123,0.,0.,-0.00000207,0.,0.,-0.
 00000794,-0.00000004,0.,-0.00015302,0.,0.,0.00004382,-0.00000043,-0.00
 000026,-0.00400434,0.00000063,-0.00000076,0.00722838,0.00000013,0.0000
 0068,0.00024979,-0.00000104,-0.00000328,-0.06436359,0.00000006,-0.0000
 0012,0.00750210,0.00000021,-0.00000085,-0.05905407,-0.00000144,0.00000
 711,0.14281390,0.00001160,-0.00007413,0.,-0.00005744,0.00013259,0.,-0.
 00005418,-0.00005309,0.,0.00005759,0.00003093,0.,-0.00000739,0.0000693
 8,0.,-0.00007999,0.00001387,0.,0.00000434,0.00000908,0.,0.00000069,-0.
 00000707,0.,-0.00001094,0.00000796,0.,-0.00000908,0.00000645,0.,-0.000
 40274,0.00035223,0.,0.00004779,0.00003898,0.,-0.00047900,0.00384725,0.
 00000006,-0.01550233,-0.00920139,-0.00000009,0.00046808,0.00041350,0.,
 -0.32934949,-0.07259768,-0.00000046,0.00075252,0.00007992,0.,0.0015694
 4,-0.00135376,-0.00000001,-0.00348803,0.00215528,0.00000004,0.34656522
 ,0.00000129,0.00001375,0.,0.00001918,-0.00006438,0.,0.00006044,0.00005
 733,0.,-0.00000458,-0.00004092,0.,0.00000957,-0.00000481,0.,0.00001141
 ,-0.00000684,0.,0.00000083,-0.00000352,0.,-0.00000041,0.00000128,0.,0.
 00000268,-0.00000386,0.,0.00000183,-0.00000083,0.,0.00033799,-0.000284
 94,0.,0.00001251,0.00003770,0.,0.00271695,-0.00286535,-0.00000013,0.02
 308878,0.00890148,0.00000006,0.00064902,-0.00150488,-0.00000001,-0.073
 42237,-0.07729814,-0.00000045,-0.00009542,0.00091543,0.00000006,-0.000
 43634,-0.00534981,-0.00000015,-0.02988303,-0.00215281,0.,0.07747305,0.
 07771953,0.,0.,0.00000073,0.,0.,-0.00000627,0.,0.,-0.00017778,0.,0.,-0
 .00000561,0.,0.,0.00001598,0.,0.,-0.00000600,0.,0.,0.00000201,0.,0.,-0
 .00000582,0.,0.,0.00000181,0.,0.,0.00000391,0.,0.,-0.00012922,0.,0.,0.
 00002755,0.00000005,-0.00000012,0.00740200,0.00000029,0.00000010,0.001
 83417,0.,-0.00000002,-0.00065479,-0.00000046,-0.00000045,-0.03391589,0
 .,0.00000006,-0.00458561,0.00000002,-0.00000015,0.00635702,-0.00000038
 ,-0.00000006,0.00181565,0.00000048,0.00000056,0.02518371,-0.00004324,-
 0.00001501,0.,0.00003144,0.00010365,0.,-0.00004091,-0.00000271,0.,-0.0
 0000007,0.00000706,0.,-0.00000955,-0.00000643,0.,0.00000494,0.00001289
 ,0.,0.00000267,-0.00000208,0.,-0.00000648,0.00000037,0.,-0.00000102,0.
 00000067,0.,-0.00000484,-0.00000003,0.,0.00012170,-0.00018117,0.,-0.00
 024197,0.00011903,0.,-0.00286004,0.00261121,0.00000005,-0.00133865,0.0
 0042984,0.,0.00893095,0.02194027,0.00000025,-0.00516791,-0.00048890,0.
 00000002,0.00010013,-0.00007344,0.,-0.07986002,-0.07866632,-0.00000078
 ,-0.00225810,-0.02930841,-0.00000032,-0.00028340,-0.00141542,-0.000000
 02,0.07953608,0.00002579,0.00007949,0.,-0.00001844,-0.00012222,0.,0.00
 009155,0.00003269,0.,-0.00004823,-0.00001068,0.,0.00000738,-0.00005675
 ,0.,0.00006052,-0.00002133,0.,-0.00000586,-0.00000201,0.,0.00000715,0.
 00000483,0.,0.00000922,-0.00000480,0.,0.00001036,-0.00000426,0.,0.0001
 3669,0.00024730,0.,0.00016294,-0.00020304,0.,0.00379062,-0.00160654,-0
 .00000009,0.00084305,0.00053713,0.00000002,-0.01127792,-0.01704408,-0.
 00000022,-0.00102275,0.00190208,-0.00000006,-0.00003778,-0.00008208,0.
 ,-0.07648694,-0.32617255,-0.00000313,0.00161331,-0.00219486,-0.0000000
 6,0.00006809,-0.00019657,0.,0.08421762,0.34272787,0.,0.,0.00000948,0.,
 0.,-0.00002602,0.,0.,-0.00001070,0.,0.,-0.00000109,0.,0.,-0.00000371,0
 .,0.,0.00000333,0.,0.,0.00000110,0.,0.,0.00000385,0.,0.,0.00000202,0.,
 0.,-0.00000105,0.,0.,-0.00002371,0.,0.,-0.00006642,0.00000005,-0.00000
 011,0.00528688,0.00000004,0.00000001,-0.00089285,-0.00000018,-0.000000
 25,0.00484042,0.,-0.00000004,0.00757398,0.,0.,-0.00066660,-0.00000069,
 -0.00000312,-0.03517444,0.,-0.00000001,0.00258821,0.,0.,0.00039917,0.0
 0000082,0.00000341,0.02479901,0.00001043,-0.00003071,0.,-0.00001793,0.
 00008520,0.,0.00006611,-0.00005458,0.,0.00001760,0.00000980,0.,0.00000
 092,0.00003144,0.,-0.00003764,0.00000901,0.,0.00000140,0.00000423,0.,0
 .00000382,-0.00000436,0.,-0.00000630,0.00000335,0.,-0.00000388,0.00000
 390,0.,-0.00013280,0.00015545,0.,0.00000095,0.00012453,0.,-0.00066541,
 -0.00068868,0.,0.00109847,-0.00228402,-0.00000002,-0.00359530,-0.00304
 033,0.,0.00900832,-0.00782682,-0.00000010,0.00031848,-0.00040929,0.,-0
 .01472352,0.02382863,0.00000031,-0.19935095,0.14290170,0.00000199,0.00
 063059,0.00036557,0.,0.00105047,-0.00014421,-0.00000001,0.20779680,0.0
 0002767,0.00001765,0.,-0.00007034,0.00003677,0.,0.00002932,0.00001487,
 0.,-0.00000322,-0.00000046,0.,0.00000959,-0.00000431,0.,0.00000510,-0.
 00001376,0.,-0.00000447,-0.00000293,0.,0.00000428,0.00000293,0.,0.0000
 0493,-0.00000188,0.,0.00000631,-0.00000363,0.,0.00011062,-0.00004993,0
 .,-0.00005318,0.00001876,0.,-0.00098425,0.00002577,0.00000001,-0.00278
 076,-0.00506180,-0.00000014,-0.00268222,0.00054716,-0.00000009,0.02340
 037,-0.01372549,-0.00000025,0.00112333,-0.00098185,-0.00000001,-0.0079
 6771,0.00857749,0.00000006,0.14365532,-0.20630440,-0.00000225,-0.00017
 652,0.00105883,0.00000006,0.00022853,0.00070588,0.00000006,-0.15380480
 ,0.21460583,0.,0.,-0.00001785,0.,0.,-0.00008665,0.,0.,0.00008618,0.,0.
 ,0.00001524,0.,0.,-0.00000705,0.,0.,0.00000171,0.,0.,0.00000111,0.,0.,
 -0.00000533,0.,0.,-0.00000063,0.,0.,0.00000794,0.,0.,-0.00008815,0.,0.
 ,0.00019321,-0.00000001,0.,-0.00103650,-0.00000004,-0.00000014,0.00665
 542,0.,-0.00000009,0.00876773,0.00000028,-0.00000024,0.00443318,0.0000
 0001,-0.00000001,-0.00018634,-0.00000005,0.00000002,0.00468595,0.00000
 200,-0.00000222,-0.04064791,0.,0.00000006,-0.00366339,-0.00000001,0.00
 000006,-0.00467729,-0.00000216,0.00000253,0.02682794,-0.00353459,-0.00
 670778,-0.00000003,-0.00327310,0.01583189,0.00000009,-0.09287853,0.052
 63452,0.00000070,0.01656746,-0.00529920,-0.00000009,-0.00285935,0.0111
 9903,0.00000008,-0.00619616,-0.00544553,0.,0.00040124,-0.00107889,-0.0
 0000001,-0.00053042,-0.00004162,0.,0.00020725,0.00006206,0.,-0.0007704
 6,-0.00002933,0.,-0.45687071,-0.05404926,0.00000131,-0.04702368,-0.024
 66189,-0.00000006,-0.15643139,0.07095993,0.00000084,-0.04168964,0.0280
 6798,0.00000037,0.02645268,0.01400900,0.00000002,-0.00024190,-0.012643
 28,-0.00000015,0.00031522,0.00137463,0.,-0.00221460,-0.00195378,0.,0.0
 0317098,0.00380778,0.00000005,-0.00039191,0.00077662,0.00000001,0.0004
 6678,-0.00109684,-0.00000001,0.00023486,0.00000659,0.,0.78115628,0.001
 58869,-0.00208165,0.,0.02974068,-0.02976432,-0.00000030,0.02101399,0.0
 0269608,-0.00000010,0.00697297,-0.00953140,-0.00000010,-0.00130438,0.0
 0553622,0.00000003,-0.00317327,-0.00415023,-0.00000001,0.00016537,-0.0
 0084630,0.,-0.00043315,0.00017711,0.,0.00024540,-0.00041261,0.,-0.0003
 8988,0.00008151,0.,-0.07007894,-0.11917012,-0.00000010,-0.00233951,-0.
 11932100,-0.00000039,0.06979930,-0.18656955,-0.00000131,0.01386260,0.0
 1106012,0.00000010,0.01593552,-0.03344674,-0.00000033,-0.00781472,0.00
 923780,0.00000006,-0.00235960,-0.00077710,0.00000003,-0.00000826,-0.00
 658691,-0.00000015,-0.00594194,-0.00512185,-0.00000004,-0.00120565,0.0
 0082278,0.,0.00111269,-0.00034638,-0.00000001,-0.00028074,0.00008588,0
 .00000001,-0.06962179,0.48329323,0.00000003,0.00000002,0.00036791,0.00
 000019,-0.00000029,0.00458234,0.00000058,-0.00000026,0.00423077,-0.000
 00003,-0.00000004,0.00314529,0.00000001,-0.00000003,0.00055512,0.00000
 002,0.,0.00086413,0.,0.,-0.00044568,0.,0.,-0.00031756,0.,0.,-0.0004859
 6,0.,0.,-0.00005105,0.00000116,-0.00000013,-0.06298364,0.00000003,-0.0
 0000029,-0.03881256,0.00000078,-0.00000118,-0.05318468,0.00000018,0.00
 000009,-0.00196929,0.00000015,-0.00000047,0.00278048,-0.00000005,0.,0.
 00658774,-0.00000002,0.00000003,-0.00335293,0.,-0.00000011,0.00501764,
 -0.00000004,-0.00000004,-0.00100213,0.,0.,0.00086444,0.00000001,0.,0.0
 0003655,0.,0.00000001,-0.00080437,-0.00000306,0.00000254,0.13610610,-0
 .00028909,0.00175604,0.,0.00146953,0.00061614,-0.00000001,0.00689391,-
 0.00107833,-0.00000002,-0.00172560,0.00022325,0.00000001,-0.00010742,-
 0.00177849,0.,0.00171643,0.00016129,0.,-0.00013841,0.00010352,0.,0.000
 25970,-0.00002182,0.,0.00005072,-0.00003331,0.,0.00006267,0.00002687,0
 .,0.00589200,0.01797669,0.00000013,-0.00056630,0.00006295,0.,-0.011814
 98,-0.02797926,-0.00000014,-0.00736374,0.00352982,0.00000010,-0.320581
 19,-0.09742342,0.00000007,-0.00398544,-0.01380473,-0.00000015,-0.00077
 891,-0.00045964,-0.00000001,-0.07187624,-0.00065377,0.00000045,0.01295
 735,0.01188619,0.00000013,-0.00005302,-0.00026522,0.,0.00205351,-0.001
 02172,-0.00000002,-0.00151616,0.00009610,-0.00000001,-0.01923672,0.012
 19126,0.00000014,0.59066069,-0.00046757,-0.00010152,0.,0.00039844,-0.0
 0171589,-0.00000001,-0.00549888,-0.00061397,0.00000001,-0.00025881,-0.
 00024044,0.,0.00027099,-0.00010562,0.,0.00018227,-0.00003023,0.,0.0000
 7220,-0.00016699,0.,0.00003160,0.00009554,0.,0.00009792,-0.00008113,0.
 ,0.00006038,-0.00005365,0.,0.01018489,-0.01914284,-0.00000023,-0.00084
 236,-0.00218779,0.,-0.04529339,-0.01292709,-0.00000010,0.00766618,-0.0
 0690959,-0.00000016,-0.05912000,-0.14266025,-0.00000100,-0.00278262,0.
 00519321,0.00000008,-0.00172199,-0.00040118,-0.00000001,0.03648648,0.0
 1953988,0.00000004,-0.00071255,-0.00948686,-0.00000016,-0.00008398,0.0
 0039506,0.00000001,-0.00085895,0.00189555,0.00000006,0.00146261,0.0004
 3092,0.,0.00190320,0.00571735,0.00000006,-0.10567407,0.47462546,0.,0.,
 -0.00009434,0.,-0.00000003,-0.00003194,-0.00000010,0.,0.00081346,0.,0.
 ,0.00009964,0.,0.,-0.00003253,0.,0.,0.00003466,0.,0.,-0.00001133,0.,0.
 ,-0.00002107,0.,0.,-0.00001530,0.,0.,-0.00000506,0.00000011,-0.0000003
 2,0.00298343,0.,-0.00000002,-0.00043549,-0.00000045,-0.00000019,0.0113
 3628,0.00000015,-0.00000015,0.00667117,0.00000089,-0.00000062,-0.05221
 484,-0.00000003,0.00000014,-0.00103012,-0.00000001,0.,0.00032508,0.000
 00081,0.00000017,0.00921926,-0.00000004,-0.00000023,0.00489381,0.,0.00
 000002,-0.00069065,-0.00000002,0.00000007,-0.00342667,0.00000003,0.,-0
 .00016467,0.00000012,0.00000002,-0.00325119,-0.00000528,0.00000727,0.0
 3831948,0.00003796,-0.00041417,0.,-0.00070325,0.00006609,0.,-0.0014409
 3,0.00184781,0.00000001,0.00063192,0.00006130,0.,-0.00004407,0.0003173
 5,0.,-0.00034797,-0.00002992,0.,0.00003102,-0.00001913,0.,-0.00030522,
 0.00002716,0.,0.00000458,0.00000253,0.,-0.00001610,-0.00003467,0.,-0.0
 0964875,-0.00226552,0.00000001,-0.00087670,-0.00128096,0.,0.00149633,0
 .00306761,0.,0.00012134,0.00096140,0.,-0.04731547,0.03233365,0.0000008
 2,0.00072543,0.00126230,0.00000001,0.00048847,0.00024743,0.,-0.0012701
 0,-0.00486100,-0.00000005,-0.00179932,0.00063563,0.00000002,0.00006107
 ,-0.00000492,0.,-0.00018247,0.00011639,0.,-0.00018935,-0.00018056,0.,0
 .00517041,-0.00767664,-0.00000005,-0.18198329,0.16449800,0.00000383,0.
 23735445,0.00032030,0.00074332,0.,0.00060585,0.00273392,0.,0.00954499,
 -0.00225156,-0.00000006,-0.00070897,0.00082146,0.,-0.00038830,-0.00068
 419,0.,0.00044955,0.00030451,0.,-0.00013445,0.00025943,0.,0.00018221,-
 0.00015454,0.,-0.00013797,0.00011401,0.,-0.00005927,0.00008901,0.,-0.0
 0184772,0.00603802,0.00000007,0.00102361,0.00366609,0.,-0.00022371,-0.
 00545818,-0.00000003,-0.00291794,-0.00012678,0.00000001,0.00760809,0.0
 1983623,0.00000029,-0.00024930,-0.00440585,-0.00000005,-0.00040685,-0.
 00020128,0.,-0.01086535,0.00100699,0.00000003,0.00344992,0.00346781,0.
 ,0.00005467,-0.00014550,0.,0.00023505,-0.00006468,0.,-0.00041690,0.000
 02171,0.,-0.01800402,-0.00058191,0.00000009,0.20156365,-0.31106793,-0.
 00000611,-0.18867716,0.28603987,0.,0.,0.00016781,0.,0.00000002,0.00022
 969,0.00000009,-0.00000002,-0.00067784,-0.00000001,0.,-0.00019347,0.,0
 .,-0.00000136,0.,0.,-0.00003779,0.,0.,0.00002314,0.,0.,0.00007583,0.,0
 .,0.00001823,0.,0.,-0.00000350,0.00000001,0.00000013,-0.00687770,0.000
 00001,0.00000002,0.00071729,-0.00000003,-0.00000004,-0.00169897,-0.000
 00003,-0.00000002,-0.00027022,0.00000021,0.00000002,-0.00101825,0.,-0.
 00000005,-0.00012968,-0.00000001,0.,-0.00005237,-0.00000012,0.,0.00249
 807,0.00000003,0.00000002,0.00189990,0.,0.,-0.00006712,0.,0.,-0.000573
 47,0.,0.,-0.00028948,-0.00000017,0.00000005,0.00152254,0.00000462,-0.0
 0000588,-0.01327111,-0.00000461,0.00000573,0.01800981\\-0.00007323,-0.
 00066447,0.00000001,-0.00089885,-0.00130975,-0.00000004,-0.00166055,0.
 00005280,-0.00000003,0.00009742,-0.00019002,0.00000002,0.00008777,0.00
 060231,0.,-0.00014609,-0.00013264,0.,0.00004146,-0.00008689,0.,-0.0000
 5949,0.00002451,0.,0.00000108,0.00001550,0.,0.00001499,-0.00000577,0.,
 0.00212148,-0.00159653,0.00000018,-0.00058226,-0.00181438,0.00000008,0
 .00132505,-0.00078445,-0.00000006,-0.00143590,0.00022774,-0.00000011,-
 0.00234066,-0.00065535,0.00000034,0.00046245,-0.00114814,-0.00000003,-
 0.00004849,0.00000393,0.00000001,0.00057702,0.,-0.00000001,0.00099724,
 0.00031176,0.00000001,0.00002944,-0.00000134,0.00000001,0.00006412,-0.
 00000604,-0.00000002,0.00009366,0.00003760,-0.00000001,0.00134030,0.00
 082001,-0.00000015,0.00138425,0.00174673,-0.00000004,-0.00139222,0.004
 55287,-0.00000014\\\@
 The archive entry for this job was punched.


 FESTINA LENTE!
     - IMPERATOR AUGUSTUS 
 Job cpu time:       0 days  0 hours 58 minutes 59.3 seconds.
 Elapsed time:       0 days  0 hours  5 minutes 56.2 seconds.
 File lengths (MBytes):  RWF=    544 Int=      0 D2E=      0 Chk=     40 Scr=      8
 Normal termination of Gaussian 16 at Wed Oct 28 00:32:03 2020.
