 Entering Gaussian System, Link 0=g16
 Initial command:
 /gpfs/loomis/apps/avx/software/Gaussian/16-C.01_AVX/g16/l1.exe "/home/fas/batista/pev4/scratch60/gauss-scratch/Gau-121565.inp" -scrdir="/home/fas/batista/pev4/scratch60/gauss-scratch/"
 Entering Link 1 = /gpfs/loomis/apps/avx/software/Gaussian/16-C.01_AVX/g16/l1.exe PID=    121566.
  
 Copyright (c) 1988-2019, Gaussian, Inc.  All Rights Reserved.
  
 This is part of the Gaussian(R) 16 program.  It is based on
 the Gaussian(R) 09 system (copyright 2009, Gaussian, Inc.),
 the Gaussian(R) 03 system (copyright 2003, Gaussian, Inc.),
 the Gaussian(R) 98 system (copyright 1998, Gaussian, Inc.),
 the Gaussian(R) 94 system (copyright 1995, Gaussian, Inc.),
 the Gaussian 92(TM) system (copyright 1992, Gaussian, Inc.),
 the Gaussian 90(TM) system (copyright 1990, Gaussian, Inc.),
 the Gaussian 88(TM) system (copyright 1988, Gaussian, Inc.),
 the Gaussian 86(TM) system (copyright 1986, Carnegie Mellon
 University), and the Gaussian 82(TM) system (copyright 1983,
 Carnegie Mellon University). Gaussian is a federally registered
 trademark of Gaussian, Inc.
  
 This software contains proprietary and confidential information,
 including trade secrets, belonging to Gaussian, Inc.
  
 This software is provided under written license and may be
 used, copied, transmitted, or stored only in accord with that
 written license.
  
 The following legend is applicable only to US Government
 contracts under FAR:
  
                    RESTRICTED RIGHTS LEGEND
  
 Use, reproduction and disclosure by the US Government is
 subject to restrictions as set forth in subparagraphs (a)
 and (c) of the Commercial Computer Software - Restricted
 Rights clause in FAR 52.227-19.
  
 Gaussian, Inc.
 340 Quinnipiac St., Bldg. 40, Wallingford CT 06492
  
  
 ---------------------------------------------------------------
 Warning -- This program may not be used in any manner that
 competes with the business of Gaussian, Inc. or will provide
 assistance to any competitor of Gaussian, Inc.  The licensee
 of this program is prohibited from giving any competitor of
 Gaussian, Inc. access to this program.  By using this program,
 the user acknowledges that Gaussian, Inc. is engaged in the
 business of creating and licensing software in the field of
 computational chemistry and represents and warrants to the
 licensee that it is not a competitor of Gaussian, Inc. and that
 it will not use this program in any manner prohibited above.
 ---------------------------------------------------------------
  

 Cite this work as:
 Gaussian 16, Revision C.01,
 M. J. Frisch, G. W. Trucks, H. B. Schlegel, G. E. Scuseria, 
 M. A. Robb, J. R. Cheeseman, G. Scalmani, V. Barone, 
 G. A. Petersson, H. Nakatsuji, X. Li, M. Caricato, A. V. Marenich, 
 J. Bloino, B. G. Janesko, R. Gomperts, B. Mennucci, H. P. Hratchian, 
 J. V. Ortiz, A. F. Izmaylov, J. L. Sonnenberg, D. Williams-Young, 
 F. Ding, F. Lipparini, F. Egidi, J. Goings, B. Peng, A. Petrone, 
 T. Henderson, D. Ranasinghe, V. G. Zakrzewski, J. Gao, N. Rega, 
 G. Zheng, W. Liang, M. Hada, M. Ehara, K. Toyota, R. Fukuda, 
 J. Hasegawa, M. Ishida, T. Nakajima, Y. Honda, O. Kitao, H. Nakai, 
 T. Vreven, K. Throssell, J. A. Montgomery, Jr., J. E. Peralta, 
 F. Ogliaro, M. J. Bearpark, J. J. Heyd, E. N. Brothers, K. N. Kudin, 
 V. N. Staroverov, T. A. Keith, R. Kobayashi, J. Normand, 
 K. Raghavachari, A. P. Rendell, J. C. Burant, S. S. Iyengar, 
 J. Tomasi, M. Cossi, J. M. Millam, M. Klene, C. Adamo, R. Cammi, 
 J. W. Ochterski, R. L. Martin, K. Morokuma, O. Farkas, 
 J. B. Foresman, and D. J. Fox, Gaussian, Inc., Wallingford CT, 2019.
 
 ******************************************
 Gaussian 16:  ES64L-G16RevC.01  3-Jul-2019
                27-Oct-2020 
 ******************************************
 %chk=config_3_9.chk
 %mem=58GB
 %nprocshared=10
 Will use up to   10 processors via shared memory.
 ----------------------------------------------------------------------
 #p opt=addgic freq wb97xd/cc-pvdz nosymm int=ultrafine scrf=(solvent=C
 arbonTetraChloride)
 ----------------------------------------------------------------------
 1/18=20,19=15,26=6,38=1,145=903/1,3;
 2/9=110,12=2,15=1,17=6,18=5,40=1/2;
 3/5=16,11=2,25=1,30=1,70=2201,71=1,72=11,74=-58,75=-5/1,2,3;
 4//1;
 5/5=2,38=5,53=11/2;
 6/7=2,8=2,9=2,10=2,28=1/1;
 7/30=1/1,2,3,16;
 1/18=20,19=15,26=6,145=903/3(2);
 2/9=110,15=1/2;
 99//99;
 2/9=110,15=1/2;
 3/5=16,11=2,25=1,30=1,70=2205,71=1,72=11,74=-58,75=-5/1,2,3;
 4/5=5,16=3,69=1/1;
 5/5=2,38=5,53=11/2;
 7/30=1/1,2,3,16;
 1/18=20,19=15,26=6,145=903/3(-5);
 2/9=110,15=1/2;
 6/7=2,8=2,9=2,10=2,19=2,28=1/1;
 99/9=1/99;
 Leave Link    1 at Tue Oct 27 23:03:51 2020, MaxMem=  7784628224 cpu:               2.6 elap:               0.4
 (Enter /gpfs/loomis/apps/avx/software/Gaussian/16-C.01_AVX/g16/l101.exe)
 ------------------------------------------------
 NM 2D-scan of HBT TD-WB97XD pVDZ in CTC Relaxed.
 ------------------------------------------------
 Symbolic Z-matrix:
 Charge =  0 Multiplicity = 1
 C                     1.64671  -3.26684  -0.00002 
 C                     0.9946   -2.03929  -0.00002 
 C                     1.71302  -0.80307  -0.00002 
 C                     3.13505  -0.8439   -0.00002 
 C                     3.76912  -2.07168  -0.00002 
 C                     3.04018  -3.27962  -0.00002 
 H                     1.0801   -4.19869  -0.00002 
 H                     3.69654   0.09103  -0.00003 
 H                     4.86022  -2.11109  -0.00002 
 H                     3.57052  -4.23292  -0.00002 
 N                     0.94957   0.29155  -0.00002 
 S                    -0.72807  -1.72775  -0.00002 
 C                    -1.36016   1.02683   0. 
 C                    -2.76424   0.81424   0. 
 C                    -0.90129   2.42689   0.00003 
 C                    -3.64522   1.88402   0.00003 
 H                    -3.14498  -0.20795  -0.00001 
 C                    -1.81953   3.48791   0.00005 
 C                    -3.18573   3.22546   0.00005 
 H                    -4.71915   1.68992   0.00002 
 H                    -1.42808   4.50556   0.00007 
 H                    -3.90265   4.04676   0.00007 
 C                    -0.38224   0.01353  -0.00002 
 O                     0.39135   2.67073   0.00004 
 H                     0.81888   1.95046   0.00002 
 
 Initializing the GIC definitions file.
 Number of initial coordinates =   131
 Number of input entries/lines =    52
 Number of additional coordinates =     2
 Number of removed coordinates =     0
 Number of frozen coordinates =     2
 Number of final active and frozen coordinates =   133
 ITRead=  0  0  0  0  0  0  0  0  0  0  0  0  0  0  0  0  0  0  0  0
 ITRead=  0  0  0  0  0
 MicOpt= -1 -1 -1 -1 -1 -1 -1 -1 -1 -1 -1 -1 -1 -1 -1 -1 -1 -1 -1 -1
 MicOpt= -1 -1 -1 -1 -1
 NAtoms=     25 NQM=       25 NQMF=       0 NMMI=      0 NMMIF=      0
                NMic=       0 NMicF=      0.
                    Isotopes and Nuclear Properties:
 (Nuclear quadrupole moments (NQMom) in fm**2, nuclear magnetic moments (NMagM)
  in nuclear magnetons)

  Atom         1           2           3           4           5           6           7           8           9          10
 IAtWgt=          12          12          12          12          12          12           1           1           1           1
 AtmWgt=  12.0000000  12.0000000  12.0000000  12.0000000  12.0000000  12.0000000   1.0078250   1.0078250   1.0078250   1.0078250
 NucSpn=           0           0           0           0           0           0           1           1           1           1
 AtZEff=  -0.0000000  -0.0000000  -0.0000000  -0.0000000  -0.0000000  -0.0000000  -0.0000000  -0.0000000  -0.0000000  -0.0000000
 NQMom=    0.0000000   0.0000000   0.0000000   0.0000000   0.0000000   0.0000000   0.0000000   0.0000000   0.0000000   0.0000000
 NMagM=    0.0000000   0.0000000   0.0000000   0.0000000   0.0000000   0.0000000   2.7928460   2.7928460   2.7928460   2.7928460
 AtZNuc=   6.0000000   6.0000000   6.0000000   6.0000000   6.0000000   6.0000000   1.0000000   1.0000000   1.0000000   1.0000000

  Atom        11          12          13          14          15          16          17          18          19          20
 IAtWgt=          14          32          12          12          12          12           1          12          12           1
 AtmWgt=  14.0030740  31.9720718  12.0000000  12.0000000  12.0000000  12.0000000   1.0078250  12.0000000  12.0000000   1.0078250
 NucSpn=           2           0           0           0           0           0           1           0           0           1
 AtZEff=  -0.0000000  -0.0000000  -0.0000000  -0.0000000  -0.0000000  -0.0000000  -0.0000000  -0.0000000  -0.0000000  -0.0000000
 NQMom=    2.0440000   0.0000000   0.0000000   0.0000000   0.0000000   0.0000000   0.0000000   0.0000000   0.0000000   0.0000000
 NMagM=    0.4037610   0.0000000   0.0000000   0.0000000   0.0000000   0.0000000   2.7928460   0.0000000   0.0000000   2.7928460
 AtZNuc=   7.0000000  16.0000000   6.0000000   6.0000000   6.0000000   6.0000000   1.0000000   6.0000000   6.0000000   1.0000000

  Atom        21          22          23          24          25
 IAtWgt=           1           1          12          16           1
 AtmWgt=   1.0078250   1.0078250  12.0000000  15.9949146   1.0078250
 NucSpn=           1           1           0           0           1
 AtZEff=  -0.0000000  -0.0000000  -0.0000000  -0.0000000  -0.0000000
 NQMom=    0.0000000   0.0000000   0.0000000   0.0000000   0.0000000
 NMagM=    2.7928460   2.7928460   0.0000000   0.0000000   2.7928460
 AtZNuc=   1.0000000   1.0000000   6.0000000   8.0000000   1.0000000
 Leave Link  101 at Tue Oct 27 23:03:57 2020, MaxMem=  7784628224 cpu:              39.7 elap:               6.2
 (Enter /gpfs/loomis/apps/avx/software/Gaussian/16-C.01_AVX/g16/l103.exe)

 GradGradGradGradGradGradGradGradGradGradGradGradGradGradGradGradGradGrad
 Berny optimization.
 Initialization pass.
                           ----------------------------
                           !    Initial Parameters    !
                           ! (Angstroms and Degrees)  !
 --------------------------                            --------------------------
 ! Name  Definition              Value          Derivative Info.                !
 --------------------------------------------------------------------------------
 ! R1    R(1,2)                  1.39           estimate D2E/DX2                !
 ! R2    R(1,6)                  1.3935         estimate D2E/DX2                !
 ! R3    R(1,7)                  1.0906         estimate D2E/DX2                !
 ! R4    R(2,3)                  1.4298         estimate D2E/DX2                !
 ! R5    R(2,12)                 1.7506         estimate D2E/DX2                !
 ! R6    R(3,4)                  1.4226         estimate D2E/DX2                !
 ! R7    R(3,11)                 1.3346         estimate D2E/DX2                !
 ! R8    R(4,5)                  1.3818         estimate D2E/DX2                !
 ! R9    R(4,8)                  1.0906         estimate D2E/DX2                !
 ! R10   R(5,6)                  1.4108         estimate D2E/DX2                !
 ! R11   R(5,9)                  1.0918         estimate D2E/DX2                !
 ! R12   R(6,10)                 1.0909         estimate D2E/DX2                !
 ! R13   R(11,23)                1.3605         estimate D2E/DX2                !
 ! R14   R(12,23)                1.7753         estimate D2E/DX2                !
 ! R15   R(13,14)                1.4201         estimate D2E/DX2                !
 ! R16   R(13,15)                1.4733         estimate D2E/DX2                !
 ! R17   R(13,23)                1.4082         estimate D2E/DX2                !
 ! R18   R(14,16)                1.3858         estimate D2E/DX2                !
 ! R19   R(14,17)                1.0908         estimate D2E/DX2                !
 ! R20   R(15,18)                1.4032         estimate D2E/DX2                !
 ! R21   R(15,24)                1.3154         estimate D2E/DX2                !
 ! R22   R(16,19)                1.418          estimate D2E/DX2                !
 ! R23   R(16,20)                1.0913         estimate D2E/DX2                !
 ! R24   R(18,19)                1.3912         estimate D2E/DX2                !
 ! R25   R(18,21)                1.0903         estimate D2E/DX2                !
 ! R26   R(19,22)                1.0902         estimate D2E/DX2                !
 ! R27   R(24,25)                0.8376         estimate D2E/DX2                !
 ! A1    A(2,1,6)              118.5037         estimate D2E/DX2                !
 ! A2    A(2,1,7)              120.7196         estimate D2E/DX2                !
 ! A3    A(6,1,7)              120.7766         estimate D2E/DX2                !
 ! A4    A(1,2,3)              121.8589         estimate D2E/DX2                !
 ! A5    A(1,2,12)             128.2294         estimate D2E/DX2                !
 ! A6    A(3,2,12)             109.9118         estimate D2E/DX2                !
 ! A7    A(2,3,4)              118.5181         estimate D2E/DX2                !
 ! A8    A(2,3,11)             114.9435         estimate D2E/DX2                !
 ! A9    A(4,3,11)             126.5385         estimate D2E/DX2                !
 ! A10   A(3,4,5)              118.9583         estimate D2E/DX2                !
 ! A11   A(3,4,8)              119.3435         estimate D2E/DX2                !
 ! A12   A(5,4,8)              121.6982         estimate D2E/DX2                !
 ! A13   A(4,5,6)              121.5769         estimate D2E/DX2                !
 ! A14   A(4,5,9)              119.3824         estimate D2E/DX2                !
 ! A15   A(6,5,9)              119.0407         estimate D2E/DX2                !
 ! A16   A(1,6,5)              120.5841         estimate D2E/DX2                !
 ! A17   A(1,6,10)             119.6137         estimate D2E/DX2                !
 ! A18   A(5,6,10)             119.8022         estimate D2E/DX2                !
 ! A19   A(3,11,23)            113.1024         estimate D2E/DX2                !
 ! A20   A(2,12,23)             89.0178         estimate D2E/DX2                !
 ! A21   A(14,13,15)           116.7567         estimate D2E/DX2                !
 ! A22   A(14,13,23)           125.3722         estimate D2E/DX2                !
 ! A23   A(15,13,23)           117.871          estimate D2E/DX2                !
 ! A24   A(13,14,16)           120.8618         estimate D2E/DX2                !
 ! A25   A(13,14,17)           119.039          estimate D2E/DX2                !
 ! A26   A(16,14,17)           120.0992         estimate D2E/DX2                !
 ! A27   A(13,15,18)           120.979          estimate D2E/DX2                !
 ! A28   A(13,15,24)           118.8294         estimate D2E/DX2                !
 ! A29   A(18,15,24)           120.1916         estimate D2E/DX2                !
 ! A30   A(14,16,19)           121.6202         estimate D2E/DX2                !
 ! A31   A(14,16,20)           119.2269         estimate D2E/DX2                !
 ! A32   A(19,16,20)           119.1529         estimate D2E/DX2                !
 ! A33   A(15,18,19)           120.0001         estimate D2E/DX2                !
 ! A34   A(15,18,21)           118.086          estimate D2E/DX2                !
 ! A35   A(19,18,21)           121.9139         estimate D2E/DX2                !
 ! A36   A(16,19,18)           119.7821         estimate D2E/DX2                !
 ! A37   A(16,19,22)           119.9733         estimate D2E/DX2                !
 ! A38   A(18,19,22)           120.2445         estimate D2E/DX2                !
 ! A39   A(11,23,12)           113.0246         estimate D2E/DX2                !
 ! A40   A(11,23,13)           122.1907         estimate D2E/DX2                !
 ! A41   A(12,23,13)           124.7847         estimate D2E/DX2                !
 ! A42   A(15,24,25)           110.0093         estimate D2E/DX2                !
 ! D1    D(6,1,2,3)              0.0            estimate D2E/DX2                !
 ! D2    D(6,1,2,12)          -180.0            estimate D2E/DX2                !
 ! D3    D(7,1,2,3)            180.0            estimate D2E/DX2                !
 ! D4    D(7,1,2,12)             0.0            estimate D2E/DX2                !
 ! D5    D(2,1,6,5)             -0.0001         estimate D2E/DX2                !
 ! D6    D(2,1,6,10)           180.0            estimate D2E/DX2                !
 ! D7    D(7,1,6,5)           -180.0            estimate D2E/DX2                !
 ! D8    D(7,1,6,10)             0.0            estimate D2E/DX2                !
 ! D9    D(1,2,3,4)              0.0            estimate D2E/DX2                !
 ! D10   D(1,2,3,11)           180.0            estimate D2E/DX2                !
 ! D11   D(12,2,3,4)          -180.0            estimate D2E/DX2                !
 ! D12   D(12,2,3,11)            0.0            estimate D2E/DX2                !
 ! D13   D(1,2,12,23)          179.9998         estimate D2E/DX2                !
 ! D14   D(3,2,12,23)           -0.0002         estimate D2E/DX2                !
 ! D15   D(2,3,4,5)              0.0            estimate D2E/DX2                !
 ! D16   D(2,3,4,8)            180.0            estimate D2E/DX2                !
 ! D17   D(11,3,4,5)          -180.0            estimate D2E/DX2                !
 ! D18   D(11,3,4,8)             0.0            estimate D2E/DX2                !
 ! D19   D(2,3,11,23)            0.0003         estimate D2E/DX2                !
 ! D20   D(4,3,11,23)         -179.9998         estimate D2E/DX2                !
 ! D21   D(3,4,5,6)              0.0            estimate D2E/DX2                !
 ! D22   D(3,4,5,9)           -180.0            estimate D2E/DX2                !
 ! D23   D(8,4,5,6)            180.0            estimate D2E/DX2                !
 ! D24   D(8,4,5,9)              0.0            estimate D2E/DX2                !
 ! D25   D(4,5,6,1)              0.0            estimate D2E/DX2                !
 ! D26   D(4,5,6,10)          -180.0            estimate D2E/DX2                !
 ! D27   D(9,5,6,1)           -180.0            estimate D2E/DX2                !
 ! D28   D(9,5,6,10)             0.0            estimate D2E/DX2                !
 ! D29   D(3,11,23,12)          -0.0004         estimate D2E/DX2                !
 ! D30   D(3,11,23,13)         179.999          estimate D2E/DX2                !
 ! D31   D(2,12,23,11)           0.0003         estimate D2E/DX2                !
 ! D32   D(2,12,23,13)        -179.999          estimate D2E/DX2                !
 ! D33   D(15,13,14,16)          0.0002         estimate D2E/DX2                !
 ! D34   D(15,13,14,17)       -179.9999         estimate D2E/DX2                !
 ! D35   D(23,13,14,16)       -179.9999         estimate D2E/DX2                !
 ! D36   D(23,13,14,17)         -0.0001         estimate D2E/DX2                !
 ! D37   D(14,13,15,18)         -0.0002         estimate D2E/DX2                !
 ! D38   D(14,13,15,24)        179.9996         estimate D2E/DX2                !
 ! D39   D(23,13,15,18)        179.9999         estimate D2E/DX2                !
 ! D40   D(23,13,15,24)         -0.0003         estimate D2E/DX2                !
 ! D41   D(14,13,23,11)        179.9996         estimate D2E/DX2                !
 ! D42   D(14,13,23,12)         -0.0011         estimate D2E/DX2                !
 ! D43   D(15,13,23,11)         -0.0005         estimate D2E/DX2                !
 ! D44   D(15,13,23,12)        179.9988         estimate D2E/DX2                !
 ! D45   D(13,14,16,19)         -0.0001         estimate D2E/DX2                !
 ! D46   D(13,14,16,20)        179.9999         estimate D2E/DX2                !
 ! D47   D(17,14,16,19)       -180.0            estimate D2E/DX2                !
 ! D48   D(17,14,16,20)          0.0            estimate D2E/DX2                !
 ! D49   D(13,15,18,19)          0.0002         estimate D2E/DX2                !
 ! D50   D(13,15,18,21)        179.9999         estimate D2E/DX2                !
 ! D51   D(24,15,18,19)       -179.9997         estimate D2E/DX2                !
 ! D52   D(24,15,18,21)          0.0001         estimate D2E/DX2                !
 ! D53   D(13,15,24,25)          0.0005         estimate D2E/DX2                !
 ! D54   D(18,15,24,25)       -179.9996         estimate D2E/DX2                !
 ! D55   D(14,16,19,18)          0.0            estimate D2E/DX2                !
 ! D56   D(14,16,19,22)       -180.0            estimate D2E/DX2                !
 ! D57   D(20,16,19,18)        180.0            estimate D2E/DX2                !
 ! D58   D(20,16,19,22)          0.0            estimate D2E/DX2                !
 ! D59   D(15,18,19,16)          0.0            estimate D2E/DX2                !
 ! D60   D(15,18,19,22)        179.9999         estimate D2E/DX2                !
 ! D61   D(21,18,19,16)       -179.9998         estimate D2E/DX2                !
 ! D62   D(21,18,19,22)          0.0001         estimate D2E/DX2                !
 ! Qtot  GIC-1                 -30.0            Frozen                          !
 ! Ptot  GIC-2                  20.0            Frozen                          !
 --------------------------------------------------------------------------------
 NOTE: GIC-type coordinates are in arbitrary units.
 Trust Radius=3.00D-01 FncErr=5.00D-06 GrdErr=5.00D-06 EigMax=2.50D+02 EigMin=1.00D-04
 Number of steps in this run=    143 maximum allowed number of steps=    150.
 GradGradGradGradGradGradGradGradGradGradGradGradGradGradGradGradGradGrad

 Leave Link  103 at Tue Oct 27 23:03:57 2020, MaxMem=  7784628224 cpu:               0.2 elap:               0.0
 (Enter /gpfs/loomis/apps/avx/software/Gaussian/16-C.01_AVX/g16/l202.exe)
                          Input orientation:                          
 ---------------------------------------------------------------------
 Center     Atomic      Atomic             Coordinates (Angstroms)
 Number     Number       Type             X           Y           Z
 ---------------------------------------------------------------------
      1          6           0        1.646714   -3.266843   -0.000021
      2          6           0        0.994602   -2.039287   -0.000022
      3          6           0        1.713019   -0.803071   -0.000023
      4          6           0        3.135045   -0.843899   -0.000024
      5          6           0        3.769121   -2.071679   -0.000023
      6          6           0        3.040176   -3.279619   -0.000021
      7          1           0        1.080101   -4.198688   -0.000019
      8          1           0        3.696543    0.091031   -0.000025
      9          1           0        4.860220   -2.111090   -0.000023
     10          1           0        3.570525   -4.232922   -0.000020
     11          7           0        0.949573    0.291553   -0.000024
     12         16           0       -0.728066   -1.727750   -0.000021
     13          6           0       -1.360162    1.026834    0.000005
     14          6           0       -2.764240    0.814237    0.000005
     15          6           0       -0.901286    2.426892    0.000033
     16          6           0       -3.645216    1.884022    0.000026
     17          1           0       -3.144978   -0.207948   -0.000014
     18          6           0       -1.819532    3.487910    0.000053
     19          6           0       -3.185726    3.225464    0.000050
     20          1           0       -4.719149    1.689924    0.000025
     21          1           0       -1.428082    4.505559    0.000074
     22          1           0       -3.902653    4.046755    0.000068
     23          6           0       -0.382236    0.013532   -0.000017
     24          8           0        0.391350    2.670731    0.000042
     25          1           0        0.818878    1.950458    0.000022
 ---------------------------------------------------------------------
                    Distance matrix (angstroms):
                    1          2          3          4          5
     1  C    0.000000
     2  C    1.390016   0.000000
     3  C    2.464664   1.429808   0.000000
     4  C    2.843552   2.451621   1.422612   0.000000
     5  C    2.435781   2.774708   2.415972   1.381845   0.000000
     6  C    1.393521   2.392236   2.809739   2.437566   1.410843
     7  H    1.090589   2.161093   3.454099   3.934133   3.428556
     8  H    3.934097   3.440747   2.175727   1.090585   2.163927
     9  H    3.415023   3.866284   3.408194   2.140561   1.091810
    10  H    2.152756   3.383402   3.900539   3.416887   2.170348
    11  N    3.626043   2.331275   1.334561   2.462832   3.678956
    12  S    2.829909   1.750612   2.610350   3.962931   4.510319
    13  C    5.241847   3.866007   3.576729   4.868935   5.992522
    14  C    6.009304   4.719269   4.760414   6.127886   7.142361
    15  C    6.237862   4.851922   4.155388   5.195195   6.484585
    16  C    7.384845   6.076205   5.994260   7.308454   8.403569
    17  H    5.684817   4.526580   4.894314   6.312141   7.160884
    18  C    7.592203   6.202359   5.558007   6.581217   7.883025
    19  C    8.093364   6.722556   6.342460   7.517438   8.742404
    20  H    8.068070   6.823047   6.898392   8.252795   9.284416
    21  H    8.358505   6.978855   6.168312   7.031276   8.382779
    22  H    9.180642   7.811723   7.420012   8.570163   9.812816
    23  C    3.857136   2.471791   2.248763   3.620284   4.645629
    24  O    6.068832   4.748493   3.716734   4.458755   5.822353
    25  H    5.282570   3.993613   2.895067   3.629472   4.988138
                    6          7          8          9         10
     6  C    0.000000
     7  H    2.164852   0.000000
     8  H    3.433962   5.024685   0.000000
     9  H    2.162873   4.318260   2.490679   0.000000
    10  H    1.090897   2.490659   4.325789   2.483039   0.000000
    11  N    4.138102   4.492138   2.754280   4.589756   5.228792
    12  S    4.075284   3.061862   4.783841   5.601418   4.975316
    13  C    6.156988   5.767231   5.142567   6.967045   7.209487
    14  C    7.102880   6.317308   6.501135   8.166391   8.099572
    15  C    6.935372   6.915505   5.157158   7.334046   8.021858
    16  C    8.447346   7.702466   7.557530   9.396987   9.459594
    17  H    6.905888   5.811823   6.848051   8.228313   7.829329
    18  C    8.331639   8.215331   6.478108   8.715956   9.416154
    19  C    9.004330   8.562436   7.562428   9.654847  10.063521
    20  H    9.214308   8.264807   8.566232  10.305921  10.188169
    21  H    8.976320   9.058416   6.763863   9.128132  10.067131
    22  H   10.093494   9.634063   8.567120  10.710135  11.153539
    23  C    4.749499   4.458837   4.079516   5.656621   5.801438
    24  O    6.513290   6.903861   4.192751   6.544969   7.600499
    25  H    5.682241   6.154692   3.426139   5.729627   6.767995
                   11         12         13         14         15
    11  N    0.000000
    12  S    2.625273   0.000000
    13  C    2.423945   2.826177   0.000000
    14  C    3.750414   3.256947   1.420083   0.000000
    15  C    2.825836   4.158252   1.473340   2.463992   0.000000
    16  C    4.862925   4.642700   2.440542   1.385842   2.797116
    17  H    4.124906   2.855041   2.170313   1.090791   3.460713
    18  C    4.229023   5.328641   2.503581   2.835666   1.403188
    19  C    5.070358   5.529415   2.857738   2.447788   2.419997
    20  H    5.838651   5.254449   3.423812   2.142077   3.888342
    21  H    4.838501   6.272493   3.479388   3.925707   2.144381
    22  H    6.135604   6.589606   3.947681   3.427120   3.410595
    23  C    1.360519   1.775292   1.408232   2.512981   2.468546
    24  O    2.443788   4.538692   2.402122   3.661191   1.315433
    25  H    1.664045   3.990270   2.366705   3.758954   1.784924
                   16         17         18         19         20
    16  C    0.000000
    17  H    2.150948   0.000000
    18  C    2.430139   3.926344   0.000000
    19  C    1.417956   3.433655   1.391174   0.000000
    20  H    1.091332   2.465752   3.411822   2.170085   0.000000
    21  H    3.433386   5.016461   1.090341   2.174386   4.331158
    22  H    2.178001   4.321640   2.156780   1.090184   2.494258
    23  C    3.761087   2.771605   3.759937   4.263340   4.649635
    24  O    4.112515   4.559869   2.357071   3.619835   5.203766
    25  H    4.464588   4.513410   3.053681   4.202677   5.544152
                   21         22         23         24         25
    21  H    0.000000
    22  H    2.516744   0.000000
    23  C    4.612169   5.353524   0.000000
    24  O    2.583975   4.509091   2.767516   0.000000
    25  H    3.402553   5.165976   2.279114   0.837600   0.000000
 Symmetry turned off by external request.
 Stoichiometry    C13H9NOS
 Framework group  C1[X(C13H9NOS)]
 Deg. of freedom    69
 Full point group                 C1      NOp   1
 Rotational constants (GHZ):           1.3762398           0.2860872           0.2368515
 Leave Link  202 at Tue Oct 27 23:03:58 2020, MaxMem=  7784628224 cpu:               0.2 elap:               0.1
 (Enter /gpfs/loomis/apps/avx/software/Gaussian/16-C.01_AVX/g16/l301.exe)
 Standard basis: CC-pVDZ (5D, 7F)
 Ernie: Thresh=  0.10000D-02 Tol=  0.10000D-05 Strict=F.
 Ernie:  40 primitive shells out of 425 were deleted.
   273 basis functions,   629 primitive gaussians,   289 cartesian basis functions
    59 alpha electrons       59 beta electrons
       nuclear repulsion energy      1098.6562563964 Hartrees.
 IExCor= 4639 DFT=T Ex+Corr=wB97XD ExCW=0 ScaHFX=  1.000000
 ScaDFX=  1.000000  1.000000  1.000000  1.000000 ScalE2=  1.000000  1.000000
 IRadAn=      5 IRanWt=     -1 IRanGd=            0 ICorTp=0 IEmpDi=121
 HFx  wShort=  0.000000 wLong=  0.200000 cFull=  0.222036 cShort=  0.000000 cLong=  0.777964
 DFx  wShort=  0.000000 wLong=  0.200000 cFull=  0.000000 cShort=  0.000000 cLong=  1.000000
 NAtoms=   25 NActive=   25 NUniq=   25 SFac= 1.00D+00 NAtFMM=   60 NAOKFM=F Big=F
 Integral buffers will be    131072 words long.
 Raffenetti 2 integral format.
 Two-electron integral symmetry is turned off.
 R6Disp:  Grimme-D2 Dispersion energy=       -0.0139328057 Hartrees.
 Nuclear repulsion after empirical dispersion term =     1098.6423235907 Hartrees.
 ------------------------------------------------------------------------------
 Polarizable Continuum Model (PCM)
 =================================
 Model                : PCM.
 Atomic radii         : UFF (Universal Force Field).
 Polarization charges : Total charges.
 Charge compensation  : None.
 Solution method      : On-the-fly selection.
 Cavity type          : Scaled VdW (van der Waals Surface) (Alpha=1.100).
 Cavity algorithm     : GePol (No added spheres)
                        Default sphere list used, NSphG=   25.
                        Lebedev-Laikov grids with approx.  5.0 points / Ang**2.
                        Smoothing algorithm: York/Karplus (Gamma=1.0000).
                        Polarization charges: spherical gaussians, with
                                              point-specific exponents (IZeta= 3).
                        Self-potential: point-specific (ISelfS= 7).
                        Self-field    : sphere-specific E.n sum rule (ISelfD= 2).
 1st derivatives      : Analytical E(r).r(x)/FMM algorithm (CHGder, D1EAlg=3).
                        Cavity 1st derivative terms included.
 Solvent              : CarbonTetraChloride, Eps=   2.228000 Eps(inf)=   2.131892
 ------------------------------------------------------------------------------
 GePol: Number of generator spheres                  =      25
 GePol: Total number of spheres                      =      25
 GePol: Number of exposed spheres                    =      25 (100.00%)
 GePol: Number of points                             =    2174
 GePol: Average weight of points                     =       0.13
 GePol: Minimum weight of points                     =   0.41D-10
 GePol: Maximum weight of points                     =    0.20577
 GePol: Number of points with low weight             =     117
 GePol: Fraction of low-weight points (<1% of avg)   =       5.38%
 GePol: Cavity surface area                          =    273.515 Ang**2
 GePol: Cavity volume                                =    292.891 Ang**3
 Leave Link  301 at Tue Oct 27 23:03:58 2020, MaxMem=  7784628224 cpu:               0.6 elap:               0.1
 (Enter /gpfs/loomis/apps/avx/software/Gaussian/16-C.01_AVX/g16/l302.exe)
 NPDir=0 NMtPBC=     1 NCelOv=     1 NCel=       1 NClECP=     1 NCelD=      1
         NCelK=      1 NCelE2=     1 NClLst=     1 CellRange=     0.0.
 One-electron integrals computed using PRISM.
 NBasis=   273 RedAO= T EigKep=  3.16D-04  NBF=   273
 NBsUse=   273 1.00D-06 EigRej= -1.00D+00 NBFU=   273
 Precomputing XC quadrature grid using
 IXCGrd= 4 IRadAn=           5 IRanWt=          -1 IRanGd=           0 AccXCQ= 0.00D+00.
 Generated NRdTot=       0 NPtTot=           0 NUsed=           0 NTot=          32
 NSgBfM=   288   288   288   288   288 MxSgAt=    25 MxSgA2=    25.
 Leave Link  302 at Tue Oct 27 23:03:59 2020, MaxMem=  7784628224 cpu:               6.7 elap:               1.1
 (Enter /gpfs/loomis/apps/avx/software/Gaussian/16-C.01_AVX/g16/l303.exe)
 DipDrv:  MaxL=1.
 Leave Link  303 at Tue Oct 27 23:04:00 2020, MaxMem=  7784628224 cpu:               1.1 elap:               0.2
 (Enter /gpfs/loomis/apps/avx/software/Gaussian/16-C.01_AVX/g16/l401.exe)
 ExpMin= 1.22D-01 ExpMax= 1.11D+05 ExpMxC= 1.07D+03 IAcc=3 IRadAn=         5 AccDes= 0.00D+00
 Harris functional with IExCor= 4639 and IRadAn=       5 diagonalized for initial guess.
 HarFok:  IExCor= 4639 AccDes= 0.00D+00 IRadAn=         5 IDoV= 1 UseB2=F ITyADJ=14
 ICtDFT=  3500011 ScaDFX=  1.000000  1.000000  1.000000  1.000000
 FoFCou: FMM=F IPFlag=           0 FMFlag=      100000 FMFlg1=           0
         NFxFlg=           0 DoJE=T BraDBF=F KetDBF=T FulRan=T
         wScrn=  0.000000 ICntrl=       500 IOpCl=  0 I1Cent=   200000004 NGrid=           0
         NMat0=    1 NMatS0=      1 NMatT0=    0 NMatD0=    1 NMtDS0=    0 NMtDT0=    0
 Symmetry not used in FoFCou.
 Harris En= -994.410421580353    
 JPrj=0 DoOrth=F DoCkMO=F.
 Leave Link  401 at Tue Oct 27 23:04:02 2020, MaxMem=  7784628224 cpu:              16.0 elap:               2.7
 (Enter /gpfs/loomis/apps/avx/software/Gaussian/16-C.01_AVX/g16/l502.exe)
 Two-electron integral symmetry not used.
 Closed shell SCF:
 Using DIIS extrapolation, IDIIS=  1040.
 NGot=  7784628224 LenX=  7784455381 LenY=  7784371419
 Requested convergence on RMS density matrix=1.00D-08 within 128 cycles.
 Requested convergence on MAX density matrix=1.00D-06.
 Requested convergence on             energy=1.00D-06.
 No special actions if energy rises.
 Fock matrices will be formed incrementally for  20 cycles.

 Cycle   1  Pass 1  IDiag  1:
 FoFJK:  IHMeth= 1 ICntrl=       0 DoSepK=T KAlg= 0 I1Cent=           0 FoldK=F
 IRaf=         1 NMat=       1 IRICut=       1 DoRegI=T DoRafI=F ISym2E= 0 IDoP0=0 IntGTp=1.
 FoFCou: FMM=F IPFlag=           0 FMFlag=      100000 FMFlg1=           0
         NFxFlg=           0 DoJE=T BraDBF=F KetDBF=F FulRan=T
         wScrn=  0.000000 ICntrl=       500 IOpCl=  0 I1Cent=           0 NGrid=           0
         NMat0=    1 NMatS0=      1 NMatT0=    0 NMatD0=    1 NMtDS0=    0 NMtDT0=    0
 Symmetry not used in FoFCou.
 Inv3:  Mode=1 IEnd=    14178828.
 Iteration    1 A*A^-1 deviation from unit magnitude is 3.33D-15 for   2160.
 Iteration    1 A*A^-1 deviation from orthogonality  is 2.72D-15 for   2131   1387.
 Iteration    1 A^-1*A deviation from unit magnitude is 3.33D-15 for   2160.
 Iteration    1 A^-1*A deviation from orthogonality  is 1.40D-15 for   1119    622.
 E= -1028.57121126306    
 DIIS: error= 2.63D-02 at cycle   1 NSaved=   1.
 NSaved= 1 IEnMin= 1 EnMin= -1028.57121126306     IErMin= 1 ErrMin= 2.63D-02
 ErrMax= 2.63D-02  0.00D+00 EMaxC= 1.00D-01 BMatC= 3.75D-01 BMatP= 3.75D-01
 IDIUse=3 WtCom= 7.37D-01 WtEn= 2.63D-01
 Coeff-Com:  0.100D+01
 Coeff-En:   0.100D+01
 Coeff:      0.100D+01
 Gap=     0.362 Goal=   None    Shift=    0.000
 GapD=    0.362 DampG=1.000 DampE=0.500 DampFc=0.5000 IDamp=-1.
 Damping current iteration by 5.00D-01
 RMSDP=3.42D-03 MaxDP=2.24D-01              OVMax= 1.76D-01

 Cycle   2  Pass 1  IDiag  1:
 RMSU=  1.71D-03    CP:  9.94D-01
 E= -1028.68204585852     Delta-E=       -0.110834595453 Rises=F Damp=T
 DIIS: error= 1.14D-02 at cycle   2 NSaved=   2.
 NSaved= 2 IEnMin= 2 EnMin= -1028.68204585852     IErMin= 2 ErrMin= 1.14D-02
 ErrMax= 1.14D-02  0.00D+00 EMaxC= 1.00D-01 BMatC= 5.69D-02 BMatP= 3.75D-01
 IDIUse=3 WtCom= 8.86D-01 WtEn= 1.14D-01
 Coeff-Com: -0.326D+00 0.133D+01
 Coeff-En:   0.000D+00 0.100D+01
 Coeff:     -0.288D+00 0.129D+01
 Gap=     0.305 Goal=   None    Shift=    0.000
 RMSDP=1.12D-03 MaxDP=2.11D-02 DE=-1.11D-01 OVMax= 1.17D-01

 Cycle   3  Pass 1  IDiag  1:
 RMSU=  1.06D-03    CP:  9.91D-01  1.21D+00
 E= -1028.77906663522     Delta-E=       -0.097020776705 Rises=F Damp=F
 DIIS: error= 5.91D-03 at cycle   3 NSaved=   3.
 NSaved= 3 IEnMin= 3 EnMin= -1028.77906663522     IErMin= 3 ErrMin= 5.91D-03
 ErrMax= 5.91D-03  0.00D+00 EMaxC= 1.00D-01 BMatC= 1.13D-02 BMatP= 5.69D-02
 IDIUse=3 WtCom= 9.41D-01 WtEn= 5.91D-02
 Coeff-Com: -0.204D+00 0.474D+00 0.730D+00
 Coeff-En:   0.000D+00 0.000D+00 0.100D+01
 Coeff:     -0.192D+00 0.446D+00 0.746D+00
 Gap=     0.265 Goal=   None    Shift=    0.000
 RMSDP=4.82D-04 MaxDP=1.73D-02 DE=-9.70D-02 OVMax= 3.85D-02

 Cycle   4  Pass 1  IDiag  1:
 RMSU=  3.57D-04    CP:  9.89D-01  1.38D+00  8.59D-01
 E= -1028.79033901384     Delta-E=       -0.011272378616 Rises=F Damp=F
 DIIS: error= 1.98D-03 at cycle   4 NSaved=   4.
 NSaved= 4 IEnMin= 4 EnMin= -1028.79033901384     IErMin= 4 ErrMin= 1.98D-03
 ErrMax= 1.98D-03  0.00D+00 EMaxC= 1.00D-01 BMatC= 1.47D-03 BMatP= 1.13D-02
 IDIUse=3 WtCom= 9.80D-01 WtEn= 1.98D-02
 Coeff-Com: -0.768D-01 0.153D+00 0.363D+00 0.562D+00
 Coeff-En:   0.000D+00 0.000D+00 0.000D+00 0.100D+01
 Coeff:     -0.753D-01 0.150D+00 0.355D+00 0.570D+00
 Gap=     0.263 Goal=   None    Shift=    0.000
 RMSDP=1.48D-04 MaxDP=8.41D-03 DE=-1.13D-02 OVMax= 1.09D-02

 Cycle   5  Pass 1  IDiag  1:
 RMSU=  9.94D-05    CP:  9.89D-01  1.39D+00  9.23D-01  7.59D-01
 E= -1028.79190722930     Delta-E=       -0.001568215463 Rises=F Damp=F
 DIIS: error= 4.28D-04 at cycle   5 NSaved=   5.
 NSaved= 5 IEnMin= 5 EnMin= -1028.79190722930     IErMin= 5 ErrMin= 4.28D-04
 ErrMax= 4.28D-04  0.00D+00 EMaxC= 1.00D-01 BMatC= 6.56D-05 BMatP= 1.47D-03
 IDIUse=3 WtCom= 9.96D-01 WtEn= 4.28D-03
 Coeff-Com: -0.550D-02 0.520D-02 0.554D-01 0.199D+00 0.746D+00
 Coeff-En:   0.000D+00 0.000D+00 0.000D+00 0.000D+00 0.100D+01
 Coeff:     -0.548D-02 0.518D-02 0.552D-01 0.198D+00 0.747D+00
 Gap=     0.264 Goal=   None    Shift=    0.000
 RMSDP=4.91D-05 MaxDP=1.63D-03 DE=-1.57D-03 OVMax= 4.22D-03

 Cycle   6  Pass 1  IDiag  1:
 RMSU=  3.41D-05    CP:  9.89D-01  1.39D+00  9.39D-01  8.42D-01  1.03D+00
 E= -1028.79201765449     Delta-E=       -0.000110425188 Rises=F Damp=F
 DIIS: error= 1.49D-04 at cycle   6 NSaved=   6.
 NSaved= 6 IEnMin= 6 EnMin= -1028.79201765449     IErMin= 6 ErrMin= 1.49D-04
 ErrMax= 1.49D-04  0.00D+00 EMaxC= 1.00D-01 BMatC= 9.82D-06 BMatP= 6.56D-05
 IDIUse=3 WtCom= 9.99D-01 WtEn= 1.49D-03
 Coeff-Com:  0.151D-01-0.315D-01-0.558D-01-0.431D-01 0.233D+00 0.883D+00
 Coeff-En:   0.000D+00 0.000D+00 0.000D+00 0.000D+00 0.000D+00 0.100D+01
 Coeff:      0.151D-01-0.314D-01-0.557D-01-0.430D-01 0.232D+00 0.883D+00
 Gap=     0.264 Goal=   None    Shift=    0.000
 RMSDP=3.04D-05 MaxDP=1.51D-03 DE=-1.10D-04 OVMax= 2.63D-03

 Cycle   7  Pass 1  IDiag  1:
 RMSU=  1.65D-05    CP:  9.89D-01  1.39D+00  9.52D-01  8.80D-01  1.19D+00
                    CP:  1.16D+00
 E= -1028.79204467794     Delta-E=       -0.000027023453 Rises=F Damp=F
 DIIS: error= 9.38D-05 at cycle   7 NSaved=   7.
 NSaved= 7 IEnMin= 7 EnMin= -1028.79204467794     IErMin= 7 ErrMin= 9.38D-05
 ErrMax= 9.38D-05  0.00D+00 EMaxC= 1.00D-01 BMatC= 2.05D-06 BMatP= 9.82D-06
 IDIUse=1 WtCom= 1.00D+00 WtEn= 0.00D+00
 Coeff-Com:  0.715D-02-0.138D-01-0.313D-01-0.466D-01-0.190D-01 0.368D+00
 Coeff-Com:  0.735D+00
 Coeff:      0.715D-02-0.138D-01-0.313D-01-0.466D-01-0.190D-01 0.368D+00
 Coeff:      0.735D+00
 Gap=     0.265 Goal=   None    Shift=    0.000
 RMSDP=1.05D-05 MaxDP=5.43D-04 DE=-2.70D-05 OVMax= 1.23D-03

 Cycle   8  Pass 1  IDiag  1:
 RMSU=  6.51D-06    CP:  9.89D-01  1.39D+00  9.54D-01  8.87D-01  1.23D+00
                    CP:  1.34D+00  1.09D+00
 E= -1028.79204890068     Delta-E=       -0.000004222736 Rises=F Damp=F
 DIIS: error= 3.16D-05 at cycle   8 NSaved=   8.
 NSaved= 8 IEnMin= 8 EnMin= -1028.79204890068     IErMin= 8 ErrMin= 3.16D-05
 ErrMax= 3.16D-05  0.00D+00 EMaxC= 1.00D-01 BMatC= 2.10D-07 BMatP= 2.05D-06
 IDIUse=1 WtCom= 1.00D+00 WtEn= 0.00D+00
 Coeff-Com: -0.952D-03 0.219D-02 0.231D-02-0.210D-02-0.381D-01-0.494D-01
 Coeff-Com:  0.195D+00 0.891D+00
 Coeff:     -0.952D-03 0.219D-02 0.231D-02-0.210D-02-0.381D-01-0.494D-01
 Coeff:      0.195D+00 0.891D+00
 Gap=     0.265 Goal=   None    Shift=    0.000
 RMSDP=4.36D-06 MaxDP=1.30D-04 DE=-4.22D-06 OVMax= 5.89D-04

 Cycle   9  Pass 1  IDiag  1:
 RMSU=  2.10D-06    CP:  9.89D-01  1.39D+00  9.53D-01  8.88D-01  1.24D+00
                    CP:  1.40D+00  1.27D+00  1.11D+00
 E= -1028.79204949818     Delta-E=       -0.000000597508 Rises=F Damp=F
 DIIS: error= 1.53D-05 at cycle   9 NSaved=   9.
 NSaved= 9 IEnMin= 9 EnMin= -1028.79204949818     IErMin= 9 ErrMin= 1.53D-05
 ErrMax= 1.53D-05  0.00D+00 EMaxC= 1.00D-01 BMatC= 4.95D-08 BMatP= 2.10D-07
 IDIUse=1 WtCom= 1.00D+00 WtEn= 0.00D+00
 Coeff-Com: -0.127D-02 0.257D-02 0.482D-02 0.545D-02-0.133D-01-0.699D-01
 Coeff-Com: -0.897D-02 0.370D+00 0.710D+00
 Coeff:     -0.127D-02 0.257D-02 0.482D-02 0.545D-02-0.133D-01-0.699D-01
 Coeff:     -0.897D-02 0.370D+00 0.710D+00
 Gap=     0.265 Goal=   None    Shift=    0.000
 RMSDP=1.66D-06 MaxDP=5.28D-05 DE=-5.98D-07 OVMax= 1.45D-04

 Cycle  10  Pass 1  IDiag  1:
 RMSU=  9.22D-07    CP:  9.89D-01  1.39D+00  9.53D-01  8.87D-01  1.24D+00
                    CP:  1.41D+00  1.31D+00  1.26D+00  1.06D+00
 E= -1028.79204960380     Delta-E=       -0.000000105618 Rises=F Damp=F
 DIIS: error= 6.81D-06 at cycle  10 NSaved=  10.
 NSaved=10 IEnMin=10 EnMin= -1028.79204960380     IErMin=10 ErrMin= 6.81D-06
 ErrMax= 6.81D-06  0.00D+00 EMaxC= 1.00D-01 BMatC= 6.97D-09 BMatP= 4.95D-08
 IDIUse=1 WtCom= 1.00D+00 WtEn= 0.00D+00
 Coeff-Com: -0.246D-03 0.454D-03 0.116D-02 0.244D-02 0.237D-02-0.195D-01
 Coeff-Com: -0.398D-01-0.347D-01 0.230D+00 0.858D+00
 Coeff:     -0.246D-03 0.454D-03 0.116D-02 0.244D-02 0.237D-02-0.195D-01
 Coeff:     -0.398D-01-0.347D-01 0.230D+00 0.858D+00
 Gap=     0.265 Goal=   None    Shift=    0.000
 RMSDP=9.22D-07 MaxDP=2.98D-05 DE=-1.06D-07 OVMax= 1.37D-04

 Cycle  11  Pass 1  IDiag  1:
 RMSU=  4.21D-07    CP:  9.89D-01  1.39D+00  9.53D-01  8.87D-01  1.24D+00
                    CP:  1.42D+00  1.34D+00  1.32D+00  1.28D+00  1.16D+00
 E= -1028.79204963059     Delta-E=       -0.000000026791 Rises=F Damp=F
 DIIS: error= 3.16D-06 at cycle  11 NSaved=  11.
 NSaved=11 IEnMin=11 EnMin= -1028.79204963059     IErMin=11 ErrMin= 3.16D-06
 ErrMax= 3.16D-06  0.00D+00 EMaxC= 1.00D-01 BMatC= 1.55D-09 BMatP= 6.97D-09
 IDIUse=1 WtCom= 1.00D+00 WtEn= 0.00D+00
 Coeff-Com:  0.144D-03-0.301D-03-0.488D-03-0.823D-04 0.303D-02 0.411D-02
 Coeff-Com: -0.748D-02-0.601D-01-0.676D-01 0.282D+00 0.846D+00
 Coeff:      0.144D-03-0.301D-03-0.488D-03-0.823D-04 0.303D-02 0.411D-02
 Coeff:     -0.748D-02-0.601D-01-0.676D-01 0.282D+00 0.846D+00
 Gap=     0.265 Goal=   None    Shift=    0.000
 RMSDP=3.77D-07 MaxDP=8.38D-06 DE=-2.68D-08 OVMax= 5.92D-05

 Cycle  12  Pass 1  IDiag  1:
 RMSU=  1.60D-07    CP:  9.89D-01  1.39D+00  9.53D-01  8.87D-01  1.24D+00
                    CP:  1.42D+00  1.35D+00  1.34D+00  1.37D+00  1.41D+00
                    CP:  1.16D+00
 E= -1028.79204963592     Delta-E=       -0.000000005333 Rises=F Damp=F
 DIIS: error= 9.53D-07 at cycle  12 NSaved=  12.
 NSaved=12 IEnMin=12 EnMin= -1028.79204963592     IErMin=12 ErrMin= 9.53D-07
 ErrMax= 9.53D-07  0.00D+00 EMaxC= 1.00D-01 BMatC= 2.64D-10 BMatP= 1.55D-09
 IDIUse=1 WtCom= 1.00D+00 WtEn= 0.00D+00
 Coeff-Com:  0.101D-03-0.197D-03-0.433D-03-0.587D-03 0.590D-03 0.560D-02
 Coeff-Com:  0.714D-02-0.892D-02-0.907D-01-0.109D+00 0.204D+00 0.993D+00
 Coeff:      0.101D-03-0.197D-03-0.433D-03-0.587D-03 0.590D-03 0.560D-02
 Coeff:      0.714D-02-0.892D-02-0.907D-01-0.109D+00 0.204D+00 0.993D+00
 Gap=     0.265 Goal=   None    Shift=    0.000
 RMSDP=2.30D-07 MaxDP=5.30D-06 DE=-5.33D-09 OVMax= 3.55D-05

 Cycle  13  Pass 1  IDiag  1:
 RMSU=  6.78D-08    CP:  9.89D-01  1.39D+00  9.53D-01  8.87D-01  1.24D+00
                    CP:  1.42D+00  1.35D+00  1.35D+00  1.41D+00  1.55D+00
                    CP:  1.45D+00  1.30D+00
 E= -1028.79204963726     Delta-E=       -0.000000001333 Rises=F Damp=F
 DIIS: error= 3.75D-07 at cycle  13 NSaved=  13.
 NSaved=13 IEnMin=13 EnMin= -1028.79204963726     IErMin=13 ErrMin= 3.75D-07
 ErrMax= 3.75D-07  0.00D+00 EMaxC= 1.00D-01 BMatC= 3.21D-11 BMatP= 2.64D-10
 IDIUse=1 WtCom= 1.00D+00 WtEn= 0.00D+00
 Coeff-Com:  0.291D-06 0.191D-05-0.251D-04-0.116D-03-0.197D-03 0.683D-03
 Coeff-Com:  0.293D-02 0.803D-02-0.129D-01-0.594D-01-0.915D-01 0.238D+00
 Coeff-Com:  0.915D+00
 Coeff:      0.291D-06 0.191D-05-0.251D-04-0.116D-03-0.197D-03 0.683D-03
 Coeff:      0.293D-02 0.803D-02-0.129D-01-0.594D-01-0.915D-01 0.238D+00
 Coeff:      0.915D+00
 Gap=     0.265 Goal=   None    Shift=    0.000
 RMSDP=6.58D-08 MaxDP=1.44D-06 DE=-1.33D-09 OVMax= 9.03D-06

 Cycle  14  Pass 1  IDiag  1:
 RMSU=  2.71D-08    CP:  9.89D-01  1.39D+00  9.53D-01  8.87D-01  1.24D+00
                    CP:  1.42D+00  1.35D+00  1.35D+00  1.42D+00  1.58D+00
                    CP:  1.52D+00  1.51D+00  1.19D+00
 E= -1028.79204963737     Delta-E=       -0.000000000112 Rises=F Damp=F
 DIIS: error= 1.27D-07 at cycle  14 NSaved=  14.
 NSaved=14 IEnMin=14 EnMin= -1028.79204963737     IErMin=14 ErrMin= 1.27D-07
 ErrMax= 1.27D-07  0.00D+00 EMaxC= 1.00D-01 BMatC= 5.56D-12 BMatP= 3.21D-11
 IDIUse=1 WtCom= 1.00D+00 WtEn= 0.00D+00
 Coeff-Com: -0.114D-04 0.232D-04 0.404D-04 0.221D-04-0.131D-03-0.380D-03
 Coeff-Com:  0.253D-03 0.385D-02 0.405D-02-0.841D-02-0.558D-01-0.182D-01
 Coeff-Com:  0.353D+00 0.722D+00
 Coeff:     -0.114D-04 0.232D-04 0.404D-04 0.221D-04-0.131D-03-0.380D-03
 Coeff:      0.253D-03 0.385D-02 0.405D-02-0.841D-02-0.558D-01-0.182D-01
 Coeff:      0.353D+00 0.722D+00
 Gap=     0.265 Goal=   None    Shift=    0.000
 RMSDP=1.69D-08 MaxDP=3.74D-07 DE=-1.12D-10 OVMax= 2.36D-06

 Cycle  15  Pass 1  IDiag  1:
 RMSU=  9.47D-09    CP:  9.89D-01  1.39D+00  9.53D-01  8.87D-01  1.24D+00
                    CP:  1.42D+00  1.35D+00  1.35D+00  1.42D+00  1.58D+00
                    CP:  1.54D+00  1.55D+00  1.32D+00  1.02D+00
 E= -1028.79204963739     Delta-E=       -0.000000000023 Rises=F Damp=F
 DIIS: error= 3.91D-08 at cycle  15 NSaved=  15.
 NSaved=15 IEnMin=15 EnMin= -1028.79204963739     IErMin=15 ErrMin= 3.91D-08
 ErrMax= 3.91D-08  0.00D+00 EMaxC= 1.00D-01 BMatC= 6.30D-13 BMatP= 5.56D-12
 IDIUse=1 WtCom= 1.00D+00 WtEn= 0.00D+00
 Coeff-Com: -0.284D-05 0.530D-05 0.153D-04 0.262D-04-0.689D-05-0.251D-03
 Coeff-Com: -0.517D-03-0.260D-03 0.355D-02 0.917D-02 0.190D-03-0.521D-01
 Coeff-Com: -0.678D-01 0.181D+00 0.927D+00
 Coeff:     -0.284D-05 0.530D-05 0.153D-04 0.262D-04-0.689D-05-0.251D-03
 Coeff:     -0.517D-03-0.260D-03 0.355D-02 0.917D-02 0.190D-03-0.521D-01
 Coeff:     -0.678D-01 0.181D+00 0.927D+00
 Gap=     0.265 Goal=   None    Shift=    0.000
 RMSDP=8.32D-09 MaxDP=1.76D-07 DE=-2.30D-11 OVMax= 9.28D-07

 Error on total polarization charges =  0.00825
 SCF Done:  E(RwB97XD) =  -1028.79204964     A.U. after   15 cycles
            NFock= 15  Conv=0.83D-08     -V/T= 2.0046
 KE= 1.024108774467D+03 PE=-4.609674119097D+03 EE= 1.458130971401D+03
 Leave Link  502 at Tue Oct 27 23:05:35 2020, MaxMem=  7784628224 cpu:             854.8 elap:              92.4
 (Enter /gpfs/loomis/apps/avx/software/Gaussian/16-C.01_AVX/g16/l601.exe)
 Copying SCF densities to generalized density rwf, IOpCl= 0 IROHF=0.

 **********************************************************************

            Population analysis using the SCF Density.

 **********************************************************************

 Alpha  occ. eigenvalues --  -89.08769 -19.27909 -14.46188 -10.39349 -10.38415
 Alpha  occ. eigenvalues --  -10.34664 -10.34464 -10.32734 -10.32392 -10.32162
 Alpha  occ. eigenvalues --  -10.31981 -10.31355 -10.31297 -10.31189 -10.30750
 Alpha  occ. eigenvalues --  -10.30713  -8.10744  -6.05587  -6.05247  -6.04810
 Alpha  occ. eigenvalues --   -1.20862  -1.08041  -0.96897  -0.95712  -0.91649
 Alpha  occ. eigenvalues --   -0.88819  -0.85543  -0.84530  -0.82605  -0.76521
 Alpha  occ. eigenvalues --   -0.71950  -0.70271  -0.69760  -0.68474  -0.64426
 Alpha  occ. eigenvalues --   -0.60328  -0.59277  -0.58533  -0.56097  -0.54666
 Alpha  occ. eigenvalues --   -0.53880  -0.53385  -0.52806  -0.50881  -0.50790
 Alpha  occ. eigenvalues --   -0.49270  -0.48113  -0.45941  -0.45671  -0.44872
 Alpha  occ. eigenvalues --   -0.43678  -0.43182  -0.42207  -0.39748  -0.37059
 Alpha  occ. eigenvalues --   -0.36459  -0.32113  -0.31570  -0.28193
 Alpha virt. eigenvalues --   -0.01735   0.05308   0.06835   0.07132   0.07812
 Alpha virt. eigenvalues --    0.11316   0.14017   0.15266   0.16384   0.18118
 Alpha virt. eigenvalues --    0.18600   0.21266   0.21842   0.22339   0.22934
 Alpha virt. eigenvalues --    0.23712   0.23984   0.24744   0.28362   0.30776
 Alpha virt. eigenvalues --    0.32269   0.33531   0.35138   0.36350   0.37155
 Alpha virt. eigenvalues --    0.37960   0.38621   0.40860   0.43859   0.45490
 Alpha virt. eigenvalues --    0.46991   0.48585   0.50973   0.51358   0.51714
 Alpha virt. eigenvalues --    0.52295   0.53520   0.54452   0.55132   0.55920
 Alpha virt. eigenvalues --    0.55980   0.56425   0.57427   0.57932   0.58221
 Alpha virt. eigenvalues --    0.58759   0.58982   0.59477   0.59924   0.60186
 Alpha virt. eigenvalues --    0.60601   0.60863   0.62351   0.62672   0.63752
 Alpha virt. eigenvalues --    0.64812   0.66052   0.66522   0.68121   0.69174
 Alpha virt. eigenvalues --    0.70648   0.71576   0.72495   0.72889   0.73243
 Alpha virt. eigenvalues --    0.73925   0.74678   0.75692   0.76159   0.78336
 Alpha virt. eigenvalues --    0.79190   0.79253   0.80310   0.82109   0.82198
 Alpha virt. eigenvalues --    0.83818   0.89649   0.90930   0.92773   0.93885
 Alpha virt. eigenvalues --    0.95163   0.95192   0.95944   0.96990   0.97254
 Alpha virt. eigenvalues --    0.98371   0.99236   1.00281   1.00776   1.02140
 Alpha virt. eigenvalues --    1.02694   1.05238   1.06414   1.07519   1.08434
 Alpha virt. eigenvalues --    1.08669   1.08888   1.09010   1.11008   1.11350
 Alpha virt. eigenvalues --    1.12403   1.12983   1.13123   1.15076   1.15752
 Alpha virt. eigenvalues --    1.16539   1.19435   1.20462   1.22067   1.23213
 Alpha virt. eigenvalues --    1.25274   1.29252   1.33378   1.34852   1.35142
 Alpha virt. eigenvalues --    1.35898   1.36282   1.38557   1.42818   1.45187
 Alpha virt. eigenvalues --    1.47978   1.48991   1.51144   1.52303   1.53789
 Alpha virt. eigenvalues --    1.55185   1.56205   1.56785   1.57225   1.57481
 Alpha virt. eigenvalues --    1.58564   1.59787   1.62027   1.66147   1.66749
 Alpha virt. eigenvalues --    1.68529   1.69056   1.70307   1.70320   1.71181
 Alpha virt. eigenvalues --    1.72660   1.72660   1.72755   1.73706   1.74391
 Alpha virt. eigenvalues --    1.76083   1.77293   1.80041   1.81308   1.82458
 Alpha virt. eigenvalues --    1.82728   1.83578   1.85078   1.85497   1.85716
 Alpha virt. eigenvalues --    1.86843   1.88406   1.88701   1.89905   1.92285
 Alpha virt. eigenvalues --    1.92529   1.93163   1.93759   1.94845   1.95516
 Alpha virt. eigenvalues --    2.00404   2.00711   2.02782   2.03768   2.05077
 Alpha virt. eigenvalues --    2.06994   2.08113   2.08866   2.11663   2.12261
 Alpha virt. eigenvalues --    2.15491   2.17912   2.20728   2.24698   2.25157
 Alpha virt. eigenvalues --    2.26524   2.28099   2.37227   2.38373   2.41927
 Alpha virt. eigenvalues --    2.42132   2.42194   2.47062   2.47569   2.47973
 Alpha virt. eigenvalues --    2.49375   2.51045   2.53720   2.57871   2.62924
 Alpha virt. eigenvalues --    2.64062   2.72861   2.75079   2.75933   2.80824
 Alpha virt. eigenvalues --    2.82054   2.84376   2.87844   2.91168   2.95780
 Alpha virt. eigenvalues --    3.01495   3.07115   3.18132   3.19791   3.32052
 Alpha virt. eigenvalues --    3.50905   3.57355   3.68855   4.13173
          Condensed to atoms (all electrons):
               1          2          3          4          5          6
     1  C    4.751774   0.451717   0.011580  -0.054173  -0.013129   0.524120
     2  C    0.451717   5.330439   0.337911  -0.034878  -0.066696  -0.007077
     3  C    0.011580   0.337911   4.753223   0.489907  -0.004780  -0.064863
     4  C   -0.054173  -0.034878   0.489907   4.777348   0.526054  -0.012796
     5  C   -0.013129  -0.066696  -0.004780   0.526054   4.734739   0.488973
     6  C    0.524120  -0.007077  -0.064863  -0.012796   0.488973   4.746284
     7  H    0.400846  -0.037812   0.008330  -0.000487   0.008111  -0.039752
     8  H   -0.001043   0.012393  -0.032228   0.392573  -0.044640   0.008078
     9  H    0.009018  -0.000760   0.008772  -0.039406   0.404800  -0.045852
    10  H   -0.042274   0.009719  -0.000568   0.008640  -0.043750   0.405745
    11  N    0.008677  -0.063672   0.501000  -0.040659   0.003132  -0.000043
    12  S   -0.067303   0.344692  -0.102186   0.007298   0.000221   0.003704
    13  C   -0.000179   0.003702   0.007791  -0.000707   0.000010   0.000002
    14  C   -0.000009   0.000020   0.000347   0.000007  -0.000000  -0.000000
    15  C    0.000006  -0.000081  -0.000948   0.000018  -0.000000   0.000000
    16  C    0.000000  -0.000003   0.000005  -0.000000   0.000000   0.000000
    17  H   -0.000004   0.000083  -0.000001  -0.000000   0.000000   0.000000
    18  C    0.000000   0.000007  -0.000034  -0.000000  -0.000000   0.000000
    19  C   -0.000000   0.000000   0.000002   0.000000   0.000000   0.000000
    20  H   -0.000000  -0.000000  -0.000000   0.000000   0.000000  -0.000000
    21  H   -0.000000  -0.000000   0.000001   0.000000   0.000000  -0.000000
    22  H   -0.000000  -0.000000  -0.000000  -0.000000   0.000000  -0.000000
    23  C    0.004763  -0.055745  -0.130787  -0.000302   0.000270  -0.000188
    24  O    0.000001  -0.000018  -0.001782  -0.000058  -0.000000  -0.000000
    25  H   -0.000071   0.002116  -0.003584  -0.000697  -0.000002   0.000010
               7          8          9         10         11         12
     1  C    0.400846  -0.001043   0.009018  -0.042274   0.008677  -0.067303
     2  C   -0.037812   0.012393  -0.000760   0.009719  -0.063672   0.344692
     3  C    0.008330  -0.032228   0.008772  -0.000568   0.501000  -0.102186
     4  C   -0.000487   0.392573  -0.039406   0.008640  -0.040659   0.007298
     5  C    0.008111  -0.044640   0.404800  -0.043750   0.003132   0.000221
     6  C   -0.039752   0.008078  -0.045852   0.405745  -0.000043   0.003704
     7  H    0.663445   0.000036  -0.000155  -0.011942  -0.000119  -0.007078
     8  H    0.000036   0.662771  -0.012752  -0.000123  -0.001079  -0.000120
     9  H   -0.000155  -0.012752   0.670712  -0.012389  -0.000106   0.000021
    10  H   -0.011942  -0.000123  -0.012389   0.667336  -0.000001  -0.000155
    11  N   -0.000119  -0.001079  -0.000106  -0.000001   6.481098  -0.077513
    12  S   -0.007078  -0.000120   0.000021  -0.000155  -0.077513  15.492441
    13  C    0.000004   0.000041  -0.000000  -0.000000  -0.013527  -0.062371
    14  C    0.000001   0.000001   0.000000  -0.000000   0.003637  -0.007342
    15  C   -0.000000  -0.000037   0.000000   0.000000  -0.023406   0.004772
    16  C    0.000000  -0.000000  -0.000000   0.000000  -0.000089  -0.000005
    17  H    0.000001   0.000000  -0.000000  -0.000000   0.000210   0.007407
    18  C   -0.000000  -0.000000  -0.000000  -0.000000  -0.000507  -0.000128
    19  C    0.000000   0.000000  -0.000000  -0.000000   0.000046   0.000021
    20  H    0.000000  -0.000000   0.000000   0.000000   0.000001   0.000001
    21  H   -0.000000   0.000000  -0.000000   0.000000   0.000007   0.000003
    22  H    0.000000  -0.000000  -0.000000  -0.000000  -0.000000  -0.000000
    23  C    0.000078  -0.001005   0.000008   0.000004   0.539235   0.308759
    24  O   -0.000000  -0.000147   0.000000  -0.000000  -0.050432  -0.000169
    25  H    0.000001   0.001245  -0.000003   0.000000   0.073969   0.002779
              13         14         15         16         17         18
     1  C   -0.000179  -0.000009   0.000006   0.000000  -0.000004   0.000000
     2  C    0.003702   0.000020  -0.000081  -0.000003   0.000083   0.000007
     3  C    0.007791   0.000347  -0.000948   0.000005  -0.000001  -0.000034
     4  C   -0.000707   0.000007   0.000018  -0.000000  -0.000000  -0.000000
     5  C    0.000010  -0.000000  -0.000000   0.000000   0.000000  -0.000000
     6  C    0.000002  -0.000000   0.000000   0.000000   0.000000   0.000000
     7  H    0.000004   0.000001  -0.000000   0.000000   0.000001  -0.000000
     8  H    0.000041   0.000001  -0.000037  -0.000000   0.000000  -0.000000
     9  H   -0.000000   0.000000   0.000000  -0.000000  -0.000000  -0.000000
    10  H   -0.000000  -0.000000   0.000000   0.000000  -0.000000  -0.000000
    11  N   -0.013527   0.003637  -0.023406  -0.000089   0.000210  -0.000507
    12  S   -0.062371  -0.007342   0.004772  -0.000005   0.007407  -0.000128
    13  C    5.319283   0.497427   0.273265  -0.009498  -0.037067  -0.064016
    14  C    0.497427   4.792624  -0.013051   0.530181   0.401032  -0.053517
    15  C    0.273265  -0.013051   4.845559  -0.062308   0.007715   0.494382
    16  C   -0.009498   0.530181  -0.062308   4.738778  -0.035432  -0.016803
    17  H   -0.037067   0.401032   0.007715  -0.035432   0.667522  -0.000709
    18  C   -0.064016  -0.053517   0.494382  -0.016803  -0.000709   4.811730
    19  C   -0.048745  -0.018742  -0.008899   0.492680   0.008324   0.514280
    20  H    0.008762  -0.035321  -0.000265   0.401859  -0.012687   0.008379
    21  H    0.012017  -0.000407  -0.023842   0.007124   0.000041   0.380916
    22  H   -0.001029   0.009178   0.009093  -0.043267  -0.000154  -0.042145
    23  C    0.311847  -0.089294  -0.071197   0.007302  -0.020994   0.007520
    24  O   -0.086578   0.003594   0.516945   0.000014  -0.000056  -0.056998
    25  H   -0.042456  -0.001102  -0.003990  -0.000025   0.000022   0.007344
              19         20         21         22         23         24
     1  C   -0.000000  -0.000000  -0.000000  -0.000000   0.004763   0.000001
     2  C    0.000000  -0.000000  -0.000000  -0.000000  -0.055745  -0.000018
     3  C    0.000002  -0.000000   0.000001  -0.000000  -0.130787  -0.001782
     4  C    0.000000   0.000000   0.000000  -0.000000  -0.000302  -0.000058
     5  C    0.000000   0.000000   0.000000   0.000000   0.000270  -0.000000
     6  C    0.000000  -0.000000  -0.000000  -0.000000  -0.000188  -0.000000
     7  H    0.000000   0.000000  -0.000000   0.000000   0.000078  -0.000000
     8  H    0.000000  -0.000000   0.000000  -0.000000  -0.001005  -0.000147
     9  H   -0.000000   0.000000  -0.000000  -0.000000   0.000008   0.000000
    10  H   -0.000000   0.000000   0.000000  -0.000000   0.000004  -0.000000
    11  N    0.000046   0.000001   0.000007  -0.000000   0.539235  -0.050432
    12  S    0.000021   0.000001   0.000003  -0.000000   0.308759  -0.000169
    13  C   -0.048745   0.008762   0.012017  -0.001029   0.311847  -0.086578
    14  C   -0.018742  -0.035321  -0.000407   0.009178  -0.089294   0.003594
    15  C   -0.008899  -0.000265  -0.023842   0.009093  -0.071197   0.516945
    16  C    0.492680   0.401859   0.007124  -0.043267   0.007302   0.000014
    17  H    0.008324  -0.012687   0.000041  -0.000154  -0.020994  -0.000056
    18  C    0.514280   0.008379   0.380916  -0.042145   0.007520  -0.056998
    19  C    4.721363  -0.046748  -0.043379   0.407076   0.000653   0.002638
    20  H   -0.046748   0.675269  -0.000149  -0.011874  -0.000350   0.000003
    21  H   -0.043379  -0.000149   0.656132  -0.011967  -0.000422   0.002126
    22  H    0.407076  -0.011874  -0.011967   0.660876  -0.000001  -0.000055
    23  C    0.000653  -0.000350  -0.000422  -0.000001   5.111814   0.000360
    24  O    0.002638   0.000003   0.002126  -0.000055   0.000360   7.289949
    25  H   -0.000088  -0.000001   0.000127   0.000007   0.003711   0.415205
              25
     1  C   -0.000071
     2  C    0.002116
     3  C   -0.003584
     4  C   -0.000697
     5  C   -0.000002
     6  C    0.000010
     7  H    0.000001
     8  H    0.001245
     9  H   -0.000003
    10  H    0.000000
    11  N    0.073969
    12  S    0.002779
    13  C   -0.042456
    14  C   -0.001102
    15  C   -0.003990
    16  C   -0.000025
    17  H    0.000022
    18  C    0.007344
    19  C   -0.000088
    20  H   -0.000001
    21  H    0.000127
    22  H    0.000007
    23  C    0.003711
    24  O    0.415205
    25  H    0.524986
 Mulliken charges:
               1
     1  C    0.015684
     2  C   -0.226056
     3  C    0.222894
     4  C   -0.017680
     5  C    0.006689
     6  C   -0.006345
     7  H    0.016492
     8  H    0.016035
     9  H    0.018091
    10  H    0.019759
    11  N   -0.339857
    12  S    0.152253
    13  C   -0.067978
    14  C   -0.019267
    15  C    0.056268
    16  C   -0.010514
    17  H    0.014745
    18  C    0.010299
    19  C    0.019517
    20  H    0.013120
    21  H    0.021673
    22  H    0.024262
    23  C    0.073960
    24  O   -0.034542
    25  H    0.020497
 Sum of Mulliken charges =  -0.00000
 Mulliken charges with hydrogens summed into heavy atoms:
               1
     1  C    0.032176
     2  C   -0.226056
     3  C    0.222894
     4  C   -0.001645
     5  C    0.024781
     6  C    0.013414
    11  N   -0.339857
    12  S    0.152253
    13  C   -0.067978
    14  C   -0.004521
    15  C    0.056268
    16  C    0.002606
    18  C    0.031971
    19  C    0.043780
    23  C    0.073960
    24  O   -0.014045
 Electronic spatial extent (au):  <R**2>=           4341.9566
 Charge=             -0.0000 electrons
 Dipole moment (field-independent basis, Debye):
    X=             -0.7541    Y=             -1.5900    Z=              0.0000  Tot=              1.7598
 Quadrupole moment (field-independent basis, Debye-Ang):
   XX=            -83.1501   YY=            -87.9168   ZZ=           -104.2133
   XY=             -7.3061   XZ=             -0.0001   YZ=              0.0001
 Traceless Quadrupole moment (field-independent basis, Debye-Ang):
   XX=              8.6100   YY=              3.8433   ZZ=            -12.4532
   XY=             -7.3061   XZ=             -0.0001   YZ=              0.0001
 Octapole moment (field-independent basis, Debye-Ang**2):
  XXX=              5.1094  YYY=            -10.3984  ZZZ=              0.0000  XYY=             -8.1563
  XXY=              5.1589  XXZ=              0.0002  XZZ=              0.8585  YZZ=              3.5844
  YYZ=              0.0006  XYZ=             -0.0006
 Hexadecapole moment (field-independent basis, Debye-Ang**3):
 XXXX=          -2598.5695 YYYY=          -2590.0130 ZZZZ=           -113.3873 XXXY=            803.8872
 XXXZ=              0.0097 YYYX=            764.8560 YYYZ=             -0.0122 ZZZX=              0.0134
 ZZZY=             -0.0179 XXYY=           -843.3886 XXZZ=           -570.9574 YYZZ=           -548.1975
 XXYZ=             -0.0033 YYXZ=              0.0010 ZZXY=            356.8689
 N-N= 1.098642323591D+03 E-N=-4.609674123378D+03  KE= 1.024108774467D+03
 No NMR shielding tensors so no spin-rotation constants.
 Leave Link  601 at Tue Oct 27 23:05:35 2020, MaxMem=  7784628224 cpu:               2.8 elap:               0.5
 (Enter /gpfs/loomis/apps/avx/software/Gaussian/16-C.01_AVX/g16/l701.exe)
 ... and contract with generalized density number  0.
 Compute integral first derivatives.
 R6Disp: Adding Grimme-D2 dispersion energy 1st derivatives to the gradient.
 D1PCM: PCM CHGder 1st derivatives, ID1Alg=3 FixD1E=F DoIter=F DoCFld=F I1PDM=0.
 GePol: Maximum number of non-zero 1st derivatives   =     258
 Leave Link  701 at Tue Oct 27 23:05:38 2020, MaxMem=  7784628224 cpu:              16.8 elap:               2.8
 (Enter /gpfs/loomis/apps/avx/software/Gaussian/16-C.01_AVX/g16/l702.exe)
 L702 exits ... SP integral derivatives will be done elsewhere.
 Leave Link  702 at Tue Oct 27 23:05:38 2020, MaxMem=  7784628224 cpu:               0.2 elap:               0.1
 (Enter /gpfs/loomis/apps/avx/software/Gaussian/16-C.01_AVX/g16/l703.exe)
 Integral derivatives from FoFJK, PRISM(SPDF).
 Compute integral first derivatives, UseDBF=F ICtDFT=           0.
 Calling FoFJK, ICntrl=      2127 FMM=F ISym2X=0 I1Cent= 0 IOpClX= 0 NMat=1 NMatS=1 NMatT=0.
 FoFJK:  IHMeth= 1 ICntrl=    2127 DoSepK=T KAlg= 0 I1Cent=           0 FoldK=F
 IRaf=         1 NMat=       1 IRICut=       1 DoRegI=T DoRafI=F ISym2E= 0 IDoP0=0 IntGTp=1.
 FoFCou: FMM=F IPFlag=           0 FMFlag=      100000 FMFlg1=         800
         NFxFlg=           0 DoJE=F BraDBF=F KetDBF=F FulRan=T
         wScrn=  0.000000 ICntrl=      2527 IOpCl=  0 I1Cent=           0 NGrid=           0
         NMat0=    1 NMatS0=      1 NMatT0=    0 NMatD0=    1 NMtDS0=    0 NMtDT0=    0
 Symmetry not used in FoFCou.
 Leave Link  703 at Tue Oct 27 23:05:56 2020, MaxMem=  7784628224 cpu:             133.9 elap:              17.8
 (Enter /gpfs/loomis/apps/avx/software/Gaussian/16-C.01_AVX/g16/l716.exe)
 Dipole        =-2.96668640D-01-6.25565223D-01 2.24897137D-06
 -------------------------------------------------------------------
 Center     Atomic                   Forces (Hartrees/Bohr)
 Number     Number              X              Y              Z
 -------------------------------------------------------------------
      1        6           0.005508732   -0.005946916   -0.000000006
      2        6           0.004730891    0.011140077   -0.000000141
      3        6           0.017505631   -0.042069899   -0.000000447
      4        6          -0.015471601    0.003134977   -0.000000016
      5        6           0.000590856   -0.005947440    0.000000046
      6        6          -0.002897223    0.004713109   -0.000000059
      7        1           0.000357963   -0.000478503   -0.000000026
      8        1          -0.000167599    0.000139320   -0.000000002
      9        1          -0.000271758    0.000123115    0.000000003
     10        1          -0.000106218    0.000160946    0.000000012
     11        7          -0.057538053    0.010563182    0.000000601
     12       16           0.004967762    0.009458250    0.000000211
     13        6          -0.026426999    0.057424499    0.000000786
     14        6           0.014942368    0.004712882   -0.000000213
     15        6          -0.017241307   -0.037106240   -0.000000627
     16        6          -0.003261785    0.009809242    0.000000250
     17        1          -0.001401770   -0.000830911   -0.000000024
     18        6          -0.001967724   -0.004431670    0.000000221
     19        6           0.005197722   -0.017717530   -0.000000380
     20        1           0.000334532   -0.000051600    0.000000022
     21        1           0.000116566    0.000003457   -0.000000068
     22        1          -0.000165235    0.000229934   -0.000000041
     23        6           0.061937830   -0.022448108   -0.000000323
     24        8          -0.104053451    0.209010017    0.000005321
     25        1           0.114779871   -0.183594192   -0.000005099
 -------------------------------------------------------------------
 Cartesian Forces:  Max     0.209010017 RMS     0.039709685
 Leave Link  716 at Tue Oct 27 23:05:56 2020, MaxMem=  7784628224 cpu:               0.2 elap:               0.1
 (Enter /gpfs/loomis/apps/avx/software/Gaussian/16-C.01_AVX/g16/l103.exe)

 GradGradGradGradGradGradGradGradGradGradGradGradGradGradGradGradGradGrad
 Berny optimization.
 FormGI is forming the generalized inverse of G from B-inverse, IUseBI=4.
 Internal  Forces:  Max     0.215398224 RMS     0.020596625
 Search for a local minimum.
 Step number   1 out of a maximum of  143
 All quantities printed in internal units (Hartrees-Bohrs-Radians)
 RMS Force = .20753D-01 SwitMx=.10000D-02 MixMth= 1
 Mixed Optimization -- RFO/linear search
 Second derivative matrix not updated -- first step.
 ITU=  0
     Eigenvalues ---    0.01380   0.01449   0.01676   0.01706   0.01788
     Eigenvalues ---    0.01834   0.01945   0.01967   0.01980   0.02004
     Eigenvalues ---    0.02004   0.02045   0.02050   0.02085   0.02091
     Eigenvalues ---    0.02130   0.02131   0.02151   0.02164   0.02197
     Eigenvalues ---    0.02199   0.02810   0.16000   0.16000   0.16000
     Eigenvalues ---    0.16000   0.16000   0.16000   0.16000   0.16003
     Eigenvalues ---    0.16118   0.22000   0.22028   0.22525   0.22585
     Eigenvalues ---    0.24472   0.24553   0.25000   0.25000   0.25000
     Eigenvalues ---    0.27426   0.29769   0.32958   0.34604   0.34659
     Eigenvalues ---    0.34709   0.34721   0.34745   0.34745   0.34773
     Eigenvalues ---    0.34791   0.37134   0.39594   0.40444   0.41296
     Eigenvalues ---    0.42791   0.43378   0.43892   0.44689   0.46143
     Eigenvalues ---    0.46458   0.47243   0.48181   0.50255   0.55528
     Eigenvalues ---    0.62938   0.890551000.000001000.000001000.00000
     Eigenvalues --- 1000.000001000.000001000.000001000.000001000.00000
     Eigenvalues --- 1000.000001000.000001000.000001000.000001000.00000
     Eigenvalues --- 1000.000001000.000001000.000001000.000001000.00000
     Eigenvalues --- 1000.000001000.000001000.000001000.000001000.00000
     Eigenvalues --- 1000.000001000.000001000.000001000.000001000.00000
     Eigenvalues --- 1000.000001000.000001000.000001000.000001000.00000
     Eigenvalues --- 1000.000001000.000001000.000001000.000001000.00000
     Eigenvalues --- 1000.000001000.000001000.000001000.000001000.00000
     Eigenvalues --- 1000.000001000.000001000.000001000.000001000.00000
     Eigenvalues --- 1000.000001000.000001000.000001000.000001000.00000
     Eigenvalues --- 1000.000001000.000001000.000001000.000001000.00000
     Eigenvalues --- 1000.000001000.000001000.000001000.000001000.00000
     Eigenvalues --- 1000.000001000.000001000.00000
 RFO step:  Lambda=-6.58407160D-02 EMin= 1.38023876D-02
 Linear search not attempted -- first point.
 Iteration  1 RMS(Cart)=  0.02941912 RMS(Int)=  0.00219965
 Iteration  2 RMS(Cart)=  0.00253587 RMS(Int)=  0.00022467
 Iteration  3 RMS(Cart)=  0.00001701 RMS(Int)=  0.00022931
 Iteration  4 RMS(Cart)=  0.00000002 RMS(Int)=  0.00022935
 Iteration  1 RMS(Cart)=  0.00000198 RMS(Int)=  0.00000048
 Iteration  2 RMS(Cart)=  0.00000000 RMS(Int)=  0.00000045
 ITry= 1 IFail=0 DXMaxC= 2.14D-01 DCOld= 1.00D+10 DXMaxT= 3.00D-01 DXLimC= 3.00D+00 Rises=F
 Variable       Old X    -DE/DX   Delta X   Delta X   Delta X     New X
                                 (Linear)    (Quad)   (Total)
    R1        2.62675   0.00742   0.00000   0.00986   0.00972   2.63647
    R2        2.63337  -0.00100   0.00000  -0.00571  -0.00588   2.62749
    R3        2.06092   0.00017   0.00000   0.00025   0.00025   2.06117
    R4        2.70195  -0.01858   0.00000  -0.03889  -0.03886   2.66308
    R5        3.30818   0.00221   0.00000   0.00189   0.00175   3.30992
    R6        2.68835  -0.01618   0.00000  -0.03053  -0.03040   2.65795
    R7        2.52195   0.02324   0.00000   0.04372   0.04408   2.56604
    R8        2.61131  -0.00115   0.00000   0.00281   0.00299   2.61430
    R9        2.06091   0.00009   0.00000   0.00018   0.00018   2.06109
   R10        2.66611  -0.00398   0.00000  -0.00918  -0.00925   2.65685
   R11        2.06322  -0.00024   0.00000  -0.00067  -0.00067   2.06255
   R12        2.06150  -0.00024   0.00000  -0.00055  -0.00055   2.06095
   R13        2.57101  -0.04940   0.00000  -0.08033  -0.08018   2.49082
   R14        3.35481   0.00576   0.00000  -0.01405  -0.01475   3.34007
   R15        2.68357  -0.00695   0.00000  -0.02159  -0.02180   2.66177
   R16        2.78421  -0.01187   0.00000  -0.05791  -0.05870   2.72551
   R17        2.66117   0.04208   0.00000   0.06828   0.06781   2.72898
   R18        2.61886  -0.00195   0.00000  -0.00277  -0.00273   2.61613
   R19        2.06130   0.00120   0.00000   0.00292   0.00292   2.06422
   R20        2.65164  -0.00650   0.00000  -0.00674  -0.00655   2.64509
   R21        2.48581   0.01580   0.00000   0.01919   0.01900   2.50481
   R22        2.67955  -0.01825   0.00000  -0.03648  -0.03647   2.64308
   R23        2.06232  -0.00037   0.00000  -0.00073  -0.00073   2.06159
   R24        2.62894  -0.00934   0.00000  -0.00919  -0.00893   2.62001
   R25        2.06045   0.00012   0.00000   0.00013   0.00013   2.06057
   R26        2.06015   0.00032   0.00000   0.00089   0.00089   2.06104
   R27        1.58283   0.21540   0.00000   0.22586   0.22645   1.80929
    A1        2.06828  -0.00377   0.00000  -0.00732  -0.00727   2.06101
    A2        2.10695   0.00276   0.00000   0.00605   0.00600   2.11296
    A3        2.10795   0.00101   0.00000   0.00127   0.00127   2.10922
    A4        2.12684  -0.00225   0.00000  -0.00050  -0.00033   2.12651
    A5        2.23802   0.01444   0.00000   0.02388   0.02344   2.26147
    A6        1.91832  -0.01219   0.00000  -0.02338  -0.02311   1.89521
    A7        2.06853   0.00769   0.00000   0.01234   0.01216   2.08069
    A8        2.00614   0.00297   0.00000   0.00207   0.00191   2.00805
    A9        2.20851  -0.01066   0.00000  -0.01442  -0.01406   2.19445
   A10        2.07621   0.00056   0.00000   0.00033   0.00035   2.07656
   A11        2.08294  -0.00081   0.00000  -0.00124  -0.00123   2.08171
   A12        2.12403   0.00025   0.00000   0.00091   0.00088   2.12492
   A13        2.12192  -0.00296   0.00000  -0.00657  -0.00652   2.11539
   A14        2.08362   0.00103   0.00000   0.00228   0.00227   2.08589
   A15        2.07765   0.00193   0.00000   0.00429   0.00425   2.08190
   A16        2.10459   0.00072   0.00000   0.00172   0.00162   2.10621
   A17        2.08765  -0.00005   0.00000  -0.00040  -0.00037   2.08729
   A18        2.09094  -0.00067   0.00000  -0.00132  -0.00126   2.08969
   A19        1.97401   0.00665   0.00000   0.01253   0.01243   1.98644
   A20        1.55365   0.00590   0.00000   0.01684   0.01675   1.57040
   A21        2.03779  -0.00221   0.00000   0.01324   0.01369   2.05148
   A22        2.18816  -0.01491   0.00000  -0.02927  -0.02894   2.15921
   A23        2.05724   0.01713   0.00000   0.01602   0.01525   2.07249
   A24        2.10944   0.00594   0.00000   0.01433   0.01426   2.12370
   A25        2.07762  -0.00164   0.00000  -0.00230  -0.00228   2.07534
   A26        2.09613  -0.00430   0.00000  -0.01203  -0.01198   2.08415
   A27        2.11148  -0.00455   0.00000  -0.02028  -0.02041   2.09107
   A28        2.07396   0.03460   0.00000   0.06001   0.05898   2.13294
   A29        2.09774  -0.03005   0.00000  -0.03973  -0.03857   2.05917
   A30        2.12267  -0.00627   0.00000  -0.02669  -0.02676   2.09591
   A31        2.08090   0.00334   0.00000   0.01352   0.01354   2.09445
   A32        2.07961   0.00293   0.00000   0.01317   0.01322   2.09283
   A33        2.09440   0.00535   0.00000   0.01248   0.01232   2.10672
   A34        2.06099  -0.00306   0.00000  -0.00687  -0.00677   2.05422
   A35        2.12780  -0.00229   0.00000  -0.00561  -0.00554   2.12225
   A36        2.09059   0.00174   0.00000   0.00691   0.00690   2.09749
   A37        2.09393  -0.00050   0.00000  -0.00337  -0.00338   2.09055
   A38        2.09866  -0.00124   0.00000  -0.00354  -0.00351   2.09515
   A39        1.97265  -0.00334   0.00000  -0.00806  -0.00798   1.96467
   A40        2.13263  -0.00532   0.00000  -0.01232  -0.01221   2.12042
   A41        2.17790   0.00865   0.00000   0.02038   0.02018   2.19809
   A42        1.92002   0.00820   0.00000   0.01993   0.01959   1.93961
    D1        0.00000   0.00000   0.00000   0.00000   0.00000   0.00000
    D2       -3.14159   0.00000   0.00000   0.00000   0.00000  -3.14159
    D3        3.14159   0.00000   0.00000   0.00000   0.00000   3.14159
    D4       -0.00000   0.00000   0.00000   0.00000   0.00000   0.00000
    D5       -0.00000   0.00000   0.00000   0.00000   0.00000  -0.00000
    D6        3.14159   0.00000   0.00000  -0.00000  -0.00000   3.14159
    D7       -3.14159   0.00000   0.00000   0.00000   0.00000  -3.14159
    D8        0.00000  -0.00000   0.00000  -0.00000  -0.00000   0.00000
    D9        0.00000  -0.00000   0.00000  -0.00000  -0.00000  -0.00000
   D10        3.14159  -0.00000   0.00000  -0.00000  -0.00000   3.14159
   D11       -3.14159  -0.00000   0.00000  -0.00000  -0.00000   3.14159
   D12       -0.00000  -0.00000   0.00000  -0.00000  -0.00000  -0.00000
   D13        3.14159   0.00000   0.00000   0.00000   0.00000   3.14159
   D14       -0.00000   0.00000   0.00000   0.00000   0.00000  -0.00000
   D15       -0.00000   0.00000   0.00000   0.00000   0.00000  -0.00000
   D16        3.14159   0.00000   0.00000   0.00000   0.00000   3.14159
   D17       -3.14159   0.00000   0.00000   0.00000   0.00000  -3.14159
   D18        0.00000   0.00000   0.00000   0.00000   0.00000   0.00000
   D19        0.00000  -0.00000   0.00000  -0.00000  -0.00000   0.00000
   D20       -3.14159  -0.00000   0.00000  -0.00000  -0.00000  -3.14159
   D21        0.00000  -0.00000   0.00000   0.00000   0.00000   0.00000
   D22       -3.14159  -0.00000   0.00000  -0.00000  -0.00000  -3.14159
   D23        3.14159   0.00000   0.00000   0.00000   0.00000  -3.14159
   D24        0.00000   0.00000   0.00000   0.00000   0.00000   0.00000
   D25        0.00000  -0.00000   0.00000  -0.00000  -0.00000   0.00000
   D26       -3.14159  -0.00000   0.00000  -0.00000  -0.00000  -3.14159
   D27       -3.14159  -0.00000   0.00000  -0.00000  -0.00000  -3.14159
   D28        0.00000   0.00000   0.00000   0.00000   0.00000   0.00000
   D29       -0.00001   0.00000   0.00000   0.00000   0.00000  -0.00000
   D30        3.14157   0.00000   0.00000   0.00001   0.00001   3.14158
   D31        0.00001  -0.00000   0.00000  -0.00000  -0.00000   0.00000
   D32       -3.14158  -0.00000   0.00000  -0.00001  -0.00001  -3.14158
   D33        0.00000  -0.00000   0.00000  -0.00000  -0.00000   0.00000
   D34       -3.14159  -0.00000   0.00000  -0.00000  -0.00000  -3.14159
   D35       -3.14159  -0.00000   0.00000  -0.00000  -0.00000   3.14159
   D36       -0.00000  -0.00000   0.00000  -0.00000  -0.00000  -0.00000
   D37       -0.00000   0.00000   0.00000   0.00000   0.00000  -0.00000
   D38        3.14159   0.00000   0.00000   0.00000   0.00000   3.14159
   D39        3.14159   0.00000   0.00000   0.00000   0.00000  -3.14159
   D40       -0.00001   0.00000   0.00000   0.00000   0.00000  -0.00000
   D41        3.14159  -0.00000   0.00000  -0.00000  -0.00000   3.14159
   D42       -0.00002   0.00000   0.00000   0.00000   0.00000  -0.00002
   D43       -0.00001  -0.00000   0.00000  -0.00000  -0.00000  -0.00001
   D44        3.14157   0.00000   0.00000   0.00000   0.00000   3.14157
   D45       -0.00000   0.00000   0.00000   0.00000   0.00000  -0.00000
   D46        3.14159   0.00000   0.00000   0.00000   0.00000   3.14159
   D47       -3.14159  -0.00000   0.00000  -0.00000  -0.00000   3.14159
   D48        0.00000  -0.00000   0.00000  -0.00000  -0.00000   0.00000
   D49        0.00000  -0.00000   0.00000  -0.00000  -0.00000   0.00000
   D50        3.14159  -0.00000   0.00000  -0.00000  -0.00000   3.14159
[...]
 86,0.,-0.00325920,0.00177097,0.,-0.00005937,0.00058793,0.00000005,-0.0
 4567700,0.01410681,-0.00000131,-0.23496410,0.15759860,-0.00000576,0.00
 055682,0.01821532,0.00000049,0.76667214,-0.00053642,0.00099079,-0.0000
 0003,0.00126337,-0.00079313,0.00000002,-0.00015287,0.00114824,0.000000
 23,-0.00058935,-0.00001997,0.00000003,-0.00013805,-0.00097844,-0.00000
 001,0.00116539,-0.00011445,-0.00000002,-0.00005380,-0.00006198,0.,0.00
 002953,0.00004391,0.,0.00010364,-0.00004622,0.,0.00006592,-0.00003446,
 0.,0.00599154,0.00310259,0.00000045,-0.00174840,-0.00134104,-0.0000001
 2,0.06645395,0.03857487,0.00000135,0.08510358,-0.26327433,0.00000344,0
 .02710342,-0.07352068,0.00000154,0.00432122,0.67998725,-0.00000002,0.0
 0000002,0.00007163,0.00000006,0.00000001,0.00039167,-0.00000001,-0.000
 00008,-0.00069279,-0.00000004,0.00000002,-0.00013882,0.,-0.00000003,0.
 00006980,0.00000003,0.00000002,-0.00002045,0.,0.,0.00000306,0.,0.,0.00
 000622,0.,0.,0.00001727,0.,0.,-0.00003070,-0.00000028,0.00000009,0.000
 15361,-0.00000002,0.,-0.00072961,-0.00000132,0.00000045,0.00764721,-0.
 00000609,0.00000585,-0.06285234,0.,0.00000082,-0.00462650,0.00001757,-
 0.00000480,0.12779597,0.00029217,0.00004927,0.,-0.00069981,0.00026792,
 0.00000007,0.00028399,-0.00006739,0.,0.00002687,0.00003524,0.,0.000050
 85,0.00005930,0.,-0.00006616,-0.00009761,0.,-0.00001622,-0.00001148,0.
 ,0.00003806,0.00000658,0.,0.00001296,-0.00000144,0.,0.00003449,-0.0000
 0831,0.,0.00033732,0.00044193,0.00000003,-0.00133366,0.00184199,-0.000
 00008,-0.00448569,-0.02818444,-0.00000014,-0.09029530,-0.08988858,-0.0
 0000140,-0.00539869,0.00116872,-0.00000036,0.01095008,0.02026178,0.000
 00016,0.09203761,0.00001081,-0.00002019,0.,-0.00006078,0.00050995,0.00
 000002,0.00027220,-0.00019480,0.,0.00000770,0.00006694,0.,0.00001245,0
 .00004492,0.,-0.00006302,0.00001006,0.,-0.00000931,0.00000943,0.,0.000
 02132,-0.00000113,0.,-0.00000374,0.00000257,0.,-0.00000011,0.00000172,
 0.,-0.00061414,0.00023495,0.00000006,0.00031778,-0.00055391,-0.0000000
 2,0.00088649,-0.00182929,-0.00000007,-0.08792482,-0.30894355,-0.000002
 86,-0.00014017,0.00196894,0.00000002,-0.01191507,-0.01665620,-0.000000
 40,0.09400219,0.32782932,0.00000002,-0.00000001,-0.00001536,-0.0000000
 7,0.,-0.00061285,0.00000002,0.00000003,0.00014565,0.00000002,0.,0.0000
 9119,0.,0.00000002,-0.00002748,-0.00000002,0.,0.00003090,0.,0.,-0.0000
 1501,0.,0.,-0.00002013,0.,0.,-0.00000593,0.,0.,0.00002193,0.00000010,0
 .00000001,0.00001722,-0.00000004,0.00000003,0.00094540,-0.00000031,-0.
 00000089,0.00304552,-0.00000126,-0.00000351,-0.03755907,-0.00000019,0.
 00000010,0.00607824,0.00000005,0.00000105,0.00487947,0.00000189,0.0000
 0315,0.02501303,0.00010166,0.00042617,-0.00000004,0.00042985,-0.000038
 47,-0.00000002,0.00135251,-0.00009379,0.00000013,-0.00045878,-0.000072
 06,0.00000003,-0.00002564,-0.00044466,0.,0.00039976,-0.00005874,0.,-0.
 00004316,0.00000721,0.,0.00009410,0.00000800,0.,0.00003766,-0.00001737
 ,0.,0.00003272,-0.00000137,0.,0.00197650,0.00533106,0.00000110,0.00014
 188,0.00001960,-0.00000010,0.05696183,0.03420061,0.00000063,-0.0636310
 7,0.02558033,-0.00000171,-0.18619549,0.05982862,-0.00000467,-0.0039096
 1,-0.08878416,0.00000007,-0.00083084,0.00051827,0.00000016,0.75230817,
 0.00042834,-0.00031144,0.00000002,-0.00103331,-0.00017263,0.,-0.000345
 79,0.00011679,-0.00000010,0.00045181,-0.00001653,-0.00000002,0.0000915
 8,0.00052984,0.,-0.00050884,-0.00008988,0.00000001,-0.00000048,0.00002
 589,0.,0.00000150,-0.00000995,0.,-0.00002601,0.00001781,0.,0.00000819,
 0.00000266,0.,-0.00105284,-0.00088990,-0.00000021,0.00146693,-0.000262
 88,0.,-0.00156648,-0.03636134,0.00000002,0.02129069,-0.01113683,0.0000
 0075,0.12736997,-0.25740521,0.00000573,-0.03782352,0.01668740,-0.00000
 095,0.00029007,0.00054118,-0.00000015,0.04639129,0.73052428,-0.0000000
 3,0.00000007,-0.00017746,0.00000010,-0.00000008,-0.00007210,0.,0.00000
 014,-0.00059609,-0.00000003,0.,0.00001469,-0.00000001,-0.00000006,0.00
 001547,0.00000007,0.,0.00002342,0.,0.,-0.00002308,0.00000001,0.,-0.000
 01561,0.,0.,-0.00000696,0.,0.,0.00003673,-0.00000003,-0.00000004,0.001
 11430,0.00000002,0.00000011,-0.00018509,0.00000126,0.00000069,0.007880
 91,-0.00000154,0.00000093,-0.00342480,-0.00000390,0.00000395,-0.070852
 16,-0.00000048,-0.00000243,0.00810566,0.00000001,0.,-0.00094896,0.0000
 2325,0.00000108,0.12493852,0.00039129,-0.00071939,0.00000003,-0.001232
 34,0.00040586,0.00000001,-0.00057348,-0.00007715,-0.00000016,0.0007110
 5,0.00000884,-0.00000003,0.00008391,0.00088301,0.,-0.00090496,0.000002
 76,0.00000002,0.00003625,0.00004623,0.,-0.00003546,-0.00003703,0.,-0.0
 0007688,0.00003951,0.,-0.00004350,0.00002280,0.,-0.00296553,-0.0022971
 2,-0.00000041,0.00118559,0.00042272,0.00000006,-0.04098210,-0.02250059
 ,-0.00000079,0.06469424,-0.00481435,0.00000163,-0.05414205,0.06113231,
 -0.00000235,-0.15194171,-0.02860067,-0.00000177,-0.00238224,0.00426411
 ,-0.00000052,-0.37863126,-0.08522008,-0.00000940,0.73962115,0.00013496
 ,-0.00026063,0.00000002,-0.00028801,0.00027483,0.,0.00015178,-0.000838
 17,-0.00000005,0.00000646,0.00012061,0.,0.00004775,0.00017877,0.,-0.00
 029082,0.00008251,0.,0.00001754,0.00000982,0.,-0.00001558,-0.00000842,
 0.,-0.00003159,0.00001556,0.,-0.00001335,0.00000805,0.,-0.00380237,-0.
 00147515,-0.00000037,0.00055400,0.00031043,0.00000007,-0.04006441,-0.0
 2517610,-0.00000045,0.05240889,-0.05796514,0.00000164,0.00585058,0.063
 94627,0.00000026,-0.10287603,-0.31386715,0.00000001,0.00343695,-0.0019
 9419,0.00000002,-0.01332231,-0.14252390,-0.00000109,-0.03204398,0.7151
 4903,0.00000002,-0.00000003,0.00001472,-0.00000005,0.00000003,0.000001
 16,0.,-0.00000001,0.00020718,0.00000003,0.,0.00000879,0.,0.00000004,-0
 .00001645,-0.00000004,0.,0.00000301,0.,0.,0.00000048,0.,0.,0.00000992,
 0.,0.,-0.00000140,0.,0.,-0.00000751,-0.00000005,-0.00000002,-0.0002059
 0,0.00000003,-0.00000001,0.00002312,-0.00000103,-0.00000066,-0.0039885
 9,0.00000168,0.00000019,0.00700329,-0.00000193,0.00000199,0.00009172,-
 0.00000138,0.00000236,-0.06398632,-0.00000029,0.00000013,0.00749388,-0
 .00000834,-0.00000271,-0.05884409,0.00001628,-0.00000514,0.14275454,0.
 00001610,-0.00007273,0.,-0.00006306,0.00012600,0.,-0.00004213,-0.00005
 635,0.,0.00005135,0.00003228,0.,-0.00000805,0.00006633,0.,-0.00007898,
 0.00001201,0.,0.00000368,0.00000891,0.,0.00000164,-0.00000654,0.,-0.00
 001131,0.00000709,0.,-0.00000938,0.00000577,0.,-0.00041802,0.00033481,
 0.00000002,0.00003820,0.00004935,0.,-0.00009873,0.00370906,-0.00000024
 ,-0.01454331,-0.00764173,-0.00000039,0.00051868,0.00026237,0.00000004,
 -0.33782173,-0.05511105,-0.00000831,0.00075657,0.00006726,0.00000015,0
 .00144821,-0.00182504,-0.00000014,-0.00539566,0.00232718,-0.00000025,0
 .35571093,-0.00000041,0.00002110,0.,0.00002601,-0.00006376,0.,0.000074
 54,0.00005432,-0.00000001,-0.00000885,-0.00004077,0.,0.00001099,-0.000
 01152,0.,0.00001962,-0.00000673,0.,0.00000019,-0.00000393,0.,0.0000005
 4,0.00000195,0.,0.00000409,-0.00000429,0.,0.00000284,-0.00000140,0.,0.
 00038707,-0.00026299,0.,0.00000537,0.00003686,0.,0.00251879,-0.0033310
 1,0.00000013,0.02470722,0.00781509,0.00000063,0.00051860,-0.00154465,0
 .00000003,-0.05583156,-0.06871143,-0.00000121,-0.00024551,0.00091802,-
 0.00000003,-0.00083287,-0.00520423,0.00000009,-0.02982367,-0.00043778,
 -0.00000082,0.05890740,0.06880401,0.,0.,-0.00000089,0.,0.,-0.00001367,
 -0.00000001,0.,-0.00019137,0.,0.,-0.00000696,0.,0.,0.00001619,0.,0.,-0
 .00000524,0.,0.,0.00000118,0.,0.,-0.00000530,0.,0.,0.00000246,0.,0.,0.
 00000409,0.,0.00000005,-0.00013158,0.,0.,0.00002788,-0.00000020,-0.000
 00001,0.00732901,-0.00000056,-0.00000034,0.00170668,0.00000010,0.00000
 004,-0.00070792,-0.00000841,-0.00000139,-0.03355417,0.00000014,0.00000
 003,-0.00459910,-0.00000040,0.00000015,0.00631844,0.00000032,0.0000003
 2,0.00173052,0.00000904,0.00000126,0.02507866,-0.00004291,-0.00000848,
 0.,0.00002800,0.00009157,0.,-0.00003419,0.00000152,0.,-0.00000509,0.00
 000659,0.,-0.00000962,-0.00001610,0.,0.00001408,0.00001178,0.,0.000002
 22,-0.00000244,0.,-0.00000772,0.00000098,0.,0.00000037,0.00000025,0.,-
 0.00000365,-0.00000122,0.,0.00013672,-0.00021670,-0.00000006,-0.000241
 02,0.00006769,0.00000001,-0.00236849,0.00253110,-0.00000027,-0.0012540
 2,0.00053067,-0.00000002,0.00946090,0.02031327,0.00000015,-0.00522548,
 -0.00001266,-0.00000043,0.00009378,-0.00008809,0.00000003,-0.09105488,
 -0.09418797,-0.00000237,-0.00405689,-0.02918389,-0.00000036,-0.0003781
 3,-0.00140369,0.00000003,0.09173782,0.00002546,0.00008472,0.,-0.000017
 46,-0.00013377,0.,0.00009062,0.00005240,0.,-0.00004479,-0.00001531,0.,
 0.00000950,-0.00005387,0.,0.00006096,-0.00002190,0.,-0.00000636,-0.000
 00158,0.,0.00000748,0.00000475,0.,0.00000951,-0.00000442,0.,0.00001122
 ,-0.00000337,0.,0.00012399,0.00035773,0.00000004,0.00019444,-0.0002047
 9,0.,0.00381873,-0.00200184,0.00000009,0.00097140,0.00041582,0.0000000
 3,-0.01300729,-0.01772555,-0.00000055,-0.00056934,0.00201108,-0.000000
 08,-0.00005500,-0.00007121,0.,-0.09198159,-0.31400676,-0.00000429,0.00
 176079,-0.00039326,0.00000008,0.00007908,-0.00011367,0.,0.10081999,0.3
 2968290,0.,0.,0.00001383,0.,0.00000001,-0.00002195,0.,0.,-0.00002212,0
 .,0.,0.00000005,0.,0.,-0.00000375,0.,0.,0.00000223,0.,0.,0.00000147,0.
 ,0.,0.00000412,0.,0.,0.00000232,0.,0.,-0.00000179,0.00000004,0.,0.0000
 0130,-0.00000002,0.00000001,-0.00005427,-0.00000013,0.00000032,0.00530
 645,-0.00000042,0.00000009,-0.00087869,0.00000057,0.,0.00484114,-0.000
 00028,-0.00000035,0.00759234,0.00000002,0.,-0.00071401,-0.00000330,-0.
 00000427,-0.03499040,0.00000032,-0.00000066,0.00251690,-0.00000002,-0.
 00000004,0.00042932,0.00000261,0.00000478,0.02470452,0.00001486,-0.000
 03151,0.,-0.00002789,0.00008926,0.,0.00007868,-0.00005529,0.,0.0000156
 0,0.00000976,0.,0.00000054,0.00003222,0.,-0.00003987,0.00000764,0.,0.0
 0000101,0.00000429,0.,0.00000474,-0.00000371,0.,-0.00000646,0.00000318
 ,0.,-0.00000423,0.00000348,0.,-0.00011732,0.00018872,0.00000004,0.0000
 0014,0.00014161,0.,-0.00078903,-0.00061217,0.,0.00077547,-0.00266133,-
 0.00000009,-0.00396360,-0.00279330,-0.00000041,0.00986214,-0.00933752,
 0.00000026,0.00035624,-0.00049388,0.00000001,-0.01355291,0.02539035,-0
 .00000052,-0.18058633,0.14062483,-0.00000431,0.00064271,0.00041920,0.0
 0000007,0.00109194,-0.00020529,0.00000020,0.18764685,0.00002053,0.0000
 2009,0.,-0.00006059,0.00001002,0.,0.00001395,0.00002430,0.,-0.00000370
 ,-0.00000382,0.,0.00000763,-0.00000634,0.,0.00000949,-0.00001264,0.,-0
 .00000364,-0.00000271,0.,0.00000226,0.00000307,0.,0.00000508,-0.000001
 79,0.,0.00000609,-0.00000314,0.,0.00011732,-0.00007785,0.,-0.00004176,
 0.00000874,0.,-0.00092296,0.00015076,-0.00000004,-0.00315600,-0.004649
 49,-0.00000002,-0.00239560,0.00091118,-0.00000007,0.02187139,-0.014645
 81,0.00000069,0.00102457,-0.00102110,0.00000004,-0.00649176,0.00746859
 ,-0.00000014,0.14140601,-0.22394141,0.00000467,-0.00015874,0.00102946,
 -0.00000003,0.00022786,0.00066685,0.,-0.15155942,0.23356477,0.,-0.0000
 0001,-0.00001222,-0.00000002,0.,-0.00005861,0.,-0.00000001,0.00010152,
 0.,0.,0.00000969,0.,0.,-0.00000616,-0.00000001,0.,-0.00000039,0.,0.,0.
 00000215,0.,0.,-0.00000217,0.,0.,-0.00000027,0.,0.,0.00000580,0.,0.000
 00005,-0.00013832,0.,0.,0.00015847,-0.00000004,-0.00000007,-0.00103154
 ,0.00000007,-0.00000001,0.00662014,-0.00000051,0.,0.00884307,-0.000000
 06,0.00000022,0.00440560,0.,0.,-0.00016382,-0.00000054,0.00000054,0.00
 479109,-0.00000432,0.00000437,-0.04066535,0.00000014,-0.00000003,-0.00
 366724,0.00000021,0.00000003,-0.00468524,0.00000488,-0.00000508,0.0267
 8961,-0.00315361,-0.00685122,0.00000003,-0.00354661,0.01649192,0.00000
 040,-0.09322655,0.04750100,0.00000380,0.01668161,-0.00390512,-0.000000
 33,-0.00343642,0.01069903,-0.00000010,-0.00564624,-0.00563706,0.000000
 25,0.00044498,-0.00102036,0.,-0.00047561,-0.00011237,0.00000004,0.0002
 0642,0.00008888,-0.00000002,-0.00075701,-0.00008059,0.00000004,-0.4509
 8737,-0.06203737,0.00001754,-0.04824299,-0.02325510,-0.00000047,-0.150
 63829,0.06942160,-0.00000088,-0.03921891,0.02952486,-0.00000004,0.0304
 7800,0.01279552,0.00000141,-0.00085873,-0.01360532,0.00000011,0.000671
 32,0.00116237,-0.00000006,-0.00346796,-0.00133561,0.00000005,0.0042414
 5,0.00424429,0.00000010,-0.00030666,0.00080755,-0.00000008,0.00038025,
 -0.00117121,0.,0.00024574,0.00000008,-0.00000001,0.76832878,0.00190528
 ,-0.00253730,-0.00000029,0.02944643,-0.02759572,-0.00000098,0.01719327
 ,0.00500553,-0.00000110,0.00802179,-0.00899578,-0.00000026,-0.00159852
 ,0.00598697,0.,-0.00347576,-0.00447583,0.00000019,0.00026354,-0.000860
 15,0.,-0.00044662,0.00015399,0.00000002,0.00024820,-0.00036422,0.,-0.0
 0041898,0.00005384,0.00000005,-0.07897450,-0.12541921,0.00000244,0.001
 29000,-0.12254090,-0.00000055,0.06468075,-0.18672722,-0.00000058,0.015
 38102,0.00864742,-0.00000011,0.01333627,-0.03575545,-0.00000071,-0.007
 05133,0.01094674,-0.00000036,-0.00211767,-0.00038754,0.00000009,0.0002
 6823,-0.00700211,-0.00000018,-0.00693753,-0.00522529,-0.00000017,-0.00
 112044,0.00081881,-0.00000003,0.00114207,-0.00042426,0.00000011,-0.000
 28931,0.00012309,0.,-0.05501250,0.49086870,0.00000004,0.00000023,0.000
 10420,0.00000060,0.00000009,0.00454139,0.00000277,-0.00000170,0.004592
 79,-0.00000064,0.00000019,0.00318637,0.00000010,-0.00000047,0.00052444
 ,0.00000030,0.00000022,0.00082747,-0.00000001,0.00000001,-0.00039614,0
 .,0.,-0.00029634,-0.00000002,-0.00000001,-0.00049093,0.00000001,0.,-0.
 00002198,0.00001556,0.00000296,-0.06381659,-0.00000038,0.00000002,-0.0
 3858492,0.00000105,-0.00000263,-0.05326505,0.00000005,0.00000066,-0.00
 265784,-0.00000012,0.00000022,0.00299775,-0.00000046,0.,0.00665972,0.0
 0000007,-0.00000003,-0.00333873,0.,0.00000007,0.00478765,-0.00000003,-
 0.00000020,-0.00099635,-0.00000006,0.00000006,0.00095091,0.00000002,0.
 00000002,-0.00001092,0.00000002,0.,-0.00080215,-0.00001853,0.00000118,
 0.13667252,-0.00037017,0.00193531,-0.00000010,0.00171586,0.00098523,-0
 .00000002,0.00821012,-0.00097191,0.00000022,-0.00191142,0.00012864,0.0
 0000013,-0.00007040,-0.00190586,0.,0.00183197,0.00025606,-0.00000004,-
 0.00016273,0.00013044,0.,0.00032008,-0.00001403,0.,0.00003486,-0.00002
 081,0.,0.00005662,0.00004977,0.,0.00957200,0.02771565,0.00000385,-0.00
 031856,0.00048056,-0.00000012,-0.01469934,-0.03122304,-0.00000288,-0.0
 0785116,0.00387540,-0.00000044,-0.33932493,-0.08480600,-0.00001747,-0.
 00501496,-0.01472118,0.00000001,-0.00095552,-0.00044575,0.,-0.07245493
 ,0.00648664,-0.00000601,0.01501969,0.01163411,0.00000008,-0.00007513,-
 0.00026769,-0.00000005,0.00195307,-0.00111620,0.00000040,-0.00146460,0
 .00024427,0.00000013,-0.02330498,0.01436679,0.00000061,0.56345362,-0.0
 0056762,-0.00045707,0.00000015,0.00036721,-0.00245697,0.,-0.00848588,-
 0.00160657,-0.00000094,-0.00012476,-0.00038069,0.,0.00038028,0.0001411
 2,0.,-0.00001062,-0.00006191,-0.00000001,0.00013326,-0.00023179,0.,0.0
 0001846,0.00012713,-0.00000004,0.00012779,-0.00009969,0.,0.00007661,-0
 .00006724,0.,0.01327014,-0.03743889,-0.00000418,-0.00096319,-0.0032261
 5,0.00000008,-0.04451610,-0.00787914,-0.00000253,0.00803038,-0.0076207
 2,0.00000003,-0.05447438,-0.13402896,-0.00000055,-0.00195597,0.0068832
 7,-0.00000011,-0.00160640,-0.00023422,0.00000005,0.04392193,0.01660050
 ,0.00000177,-0.00272286,-0.01049165,-0.00000017,-0.00004413,0.00045503
 ,0.00000001,-0.00104898,0.00220829,0.00000004,0.00165158,0.00029885,0.
 ,0.00586347,0.00476418,0.00000006,-0.08267690,0.47233654,-0.00000006,0
 .00000006,-0.00012380,0.00000014,0.00000001,-0.00010223,0.00000035,-0.
 00000059,0.00099167,-0.00000019,0.00000003,0.00012402,0.00000003,-0.00
 000015,-0.00003747,0.00000011,0.00000006,0.00004068,0.,0.,-0.00000925,
 0.,0.,-0.00002222,0.,0.,-0.00001478,0.,0.,-0.00000488,0.00000179,-0.00
 000015,0.00516577,-0.00000022,-0.00000047,-0.00056867,-0.00000082,-0.0
 0000161,0.01200877,-0.00000131,0.00000014,0.00654569,-0.00002199,-0.00
 000477,-0.05414251,0.00000004,-0.00000128,-0.00102146,-0.00000012,-0.0
 0000002,0.00030243,-0.00000561,0.00000014,0.00958292,0.00000082,0.0000
 0108,0.00496924,0.,-0.00000004,-0.00065656,0.00000041,-0.00000011,-0.0
 0347871,-0.00000014,0.,-0.00020266,-0.00000194,0.00000180,-0.00304198,
 0.00004583,-0.00002271,0.04188561,0.00012770,-0.00043217,-0.00000001,-
 0.00103197,0.00014777,0.00000002,-0.00117764,0.00291379,0.00000033,0.0
 0078202,0.00014793,-0.00000009,-0.00007206,0.00032974,-0.00000003,-0.0
 0037401,-0.00006409,0.00000001,0.00002380,-0.00000785,0.,-0.00042820,-
 0.00001787,0.00000006,0.00001515,-0.00000549,0.,-0.00001433,-0.0000484
 8,0.,-0.01496843,-0.00471511,-0.00000202,-0.00114258,-0.00171626,0.000
 00027,0.00085150,0.00336061,0.00000049,0.00046360,0.00092514,0.0000000
 2,-0.04878309,0.03500436,-0.00000613,0.00075693,0.00152810,0.00000003,
 0.00052182,0.00021591,0.00000002,-0.00102831,-0.00474139,-0.00000033,-
 0.00203422,0.00049300,-0.00000018,0.00006218,0.00000425,0.00000001,-0.
 00021700,0.00019136,0.,-0.00018444,-0.00016235,0.00000005,0.00558939,-
 0.01010048,-0.00000095,-0.13418904,0.12535670,-0.00001712,0.19645126,0
 .00033215,0.00109726,-0.00000018,0.00093590,0.00363122,-0.00000019,0.0
 1295965,-0.00258585,0.00000073,-0.00102488,0.00109294,0.00000015,-0.00
 050590,-0.00102211,0.00000002,0.00064789,0.00043635,0.,-0.00019564,0.0
 0032511,-0.00000001,0.00025088,-0.00017083,0.,-0.00019079,0.00014959,0
 .,-0.00008509,0.00011356,0.,-0.00133036,0.00826024,0.00000637,0.001326
 97,0.00519901,-0.00000064,0.00059746,-0.00840824,-0.00000006,-0.004368
 53,0.00001205,0.00000005,0.02417678,0.02018145,0.00000089,-0.00060108,
 -0.00631085,0.00000004,-0.00060268,-0.00023065,-0.00000002,-0.01436216
 ,0.00287866,-0.00000050,0.00539945,0.00450238,0.00000026,0.00004186,-0
 .00021651,-0.00000005,0.00042490,-0.00030895,-0.00000004,-0.00052339,0
 .00008634,0.,-0.02457674,0.00094170,-0.00000095,0.14988049,-0.29753322
 ,0.00002858,-0.14860715,0.26787935,0.00000013,0.00000017,0.00021315,-0
 .00000012,0.00000060,0.00035978,0.00000147,0.00000057,-0.00075137,-0.0
 0000002,0.00000007,-0.00028425,-0.00000008,-0.00000001,-0.00000571,0.0
 0000002,0.,-0.00004800,-0.00000004,0.00000006,0.00002378,0.00000011,-0
 .00000006,0.00011323,-0.00000002,0.00000002,0.00002152,-0.00000001,0.0
 0000002,-0.00000207,-0.00000196,0.00000041,-0.00993929,0.00000045,0.00
 000094,0.00107906,0.00000039,-0.00000048,-0.00202210,-0.00000008,0.000
 00023,-0.00030073,0.00000009,0.00000370,-0.00014937,-0.00000015,-0.000
 00025,-0.00014606,0.00000003,0.,-0.00004441,-0.00000066,-0.00000010,0.
 00252701,0.00000028,0.00000015,0.00188349,0.00000002,-0.00000002,-0.00
 005535,0.00000003,-0.00000003,-0.00055414,0.,-0.00000001,-0.00029098,-
 0.00000130,-0.00000058,0.00187472,-0.00002413,0.00002905,-0.01818962,0
 .00002554,-0.00003443,0.02468771\\0.00085332,-0.00023478,0.00000044,-0
 .00008909,-0.00080359,0.00000149,-0.00100922,-0.00005765,-0.00000051,-
 0.00047573,0.00068468,-0.00000029,0.00023460,0.00133471,0.00000005,0.0
 0077411,0.00073412,0.,0.00012425,-0.00005847,-0.00000013,-0.00010929,0
 .00009330,0.00000007,0.00001344,0.00014850,0.,0.00012635,0.00008734,-0
 .00000013,-0.00041314,-0.00084142,-0.00000579,-0.00060878,-0.00293284,
 -0.00000195,-0.00031114,-0.00032007,-0.00000015,-0.00078140,0.00062227
 ,0.00000170,-0.00027341,-0.00037293,-0.00000431,0.00014350,0.00107063,
 -0.00000007,-0.00011078,0.00009587,-0.00000025,0.00098749,0.00005964,0
 .00000005,0.00082979,0.00094874,0.00000016,0.00000859,0.00013012,-0.00
 000024,0.00011462,0.00000134,0.00000011,0.00014214,0.00013589,0.000000
 24,-0.00045494,-0.00083626,0.00000460,0.00060972,-0.00050265,-0.000001
 53,-0.00032501,0.00081349,0.00000643\\\@
 The archive entry for this job was punched.


 Money is a good servant but a bad master.
                        -- French Proverb
 Job cpu time:       0 days  1 hours  0 minutes 19.1 seconds.
 Elapsed time:       0 days  0 hours  6 minutes 37.9 seconds.
 File lengths (MBytes):  RWF=    544 Int=      0 D2E=      0 Chk=     36 Scr=      8
 Normal termination of Gaussian 16 at Tue Oct 27 23:20:17 2020.
