 Entering Gaussian System, Link 0=g16
 Initial command:
 /gpfs/loomis/apps/avx/software/Gaussian/16-C.01_AVX/g16/l1.exe "/home/fas/batista/pev4/scratch60/gauss-scratch/Gau-136343.inp" -scrdir="/home/fas/batista/pev4/scratch60/gauss-scratch/"
 Entering Link 1 = /gpfs/loomis/apps/avx/software/Gaussian/16-C.01_AVX/g16/l1.exe PID=    136344.
  
 Copyright (c) 1988-2019, Gaussian, Inc.  All Rights Reserved.
  
 This is part of the Gaussian(R) 16 program.  It is based on
 the Gaussian(R) 09 system (copyright 2009, Gaussian, Inc.),
 the Gaussian(R) 03 system (copyright 2003, Gaussian, Inc.),
 the Gaussian(R) 98 system (copyright 1998, Gaussian, Inc.),
 the Gaussian(R) 94 system (copyright 1995, Gaussian, Inc.),
 the Gaussian 92(TM) system (copyright 1992, Gaussian, Inc.),
 the Gaussian 90(TM) system (copyright 1990, Gaussian, Inc.),
 the Gaussian 88(TM) system (copyright 1988, Gaussian, Inc.),
 the Gaussian 86(TM) system (copyright 1986, Carnegie Mellon
 University), and the Gaussian 82(TM) system (copyright 1983,
 Carnegie Mellon University). Gaussian is a federally registered
 trademark of Gaussian, Inc.
  
 This software contains proprietary and confidential information,
 including trade secrets, belonging to Gaussian, Inc.
  
 This software is provided under written license and may be
 used, copied, transmitted, or stored only in accord with that
 written license.
  
 The following legend is applicable only to US Government
 contracts under FAR:
  
                    RESTRICTED RIGHTS LEGEND
  
 Use, reproduction and disclosure by the US Government is
 subject to restrictions as set forth in subparagraphs (a)
 and (c) of the Commercial Computer Software - Restricted
 Rights clause in FAR 52.227-19.
  
 Gaussian, Inc.
 340 Quinnipiac St., Bldg. 40, Wallingford CT 06492
  
  
 ---------------------------------------------------------------
 Warning -- This program may not be used in any manner that
 competes with the business of Gaussian, Inc. or will provide
 assistance to any competitor of Gaussian, Inc.  The licensee
 of this program is prohibited from giving any competitor of
 Gaussian, Inc. access to this program.  By using this program,
 the user acknowledges that Gaussian, Inc. is engaged in the
 business of creating and licensing software in the field of
 computational chemistry and represents and warrants to the
 licensee that it is not a competitor of Gaussian, Inc. and that
 it will not use this program in any manner prohibited above.
 ---------------------------------------------------------------
  

 Cite this work as:
 Gaussian 16, Revision C.01,
 M. J. Frisch, G. W. Trucks, H. B. Schlegel, G. E. Scuseria, 
 M. A. Robb, J. R. Cheeseman, G. Scalmani, V. Barone, 
 G. A. Petersson, H. Nakatsuji, X. Li, M. Caricato, A. V. Marenich, 
 J. Bloino, B. G. Janesko, R. Gomperts, B. Mennucci, H. P. Hratchian, 
 J. V. Ortiz, A. F. Izmaylov, J. L. Sonnenberg, D. Williams-Young, 
 F. Ding, F. Lipparini, F. Egidi, J. Goings, B. Peng, A. Petrone, 
 T. Henderson, D. Ranasinghe, V. G. Zakrzewski, J. Gao, N. Rega, 
 G. Zheng, W. Liang, M. Hada, M. Ehara, K. Toyota, R. Fukuda, 
 J. Hasegawa, M. Ishida, T. Nakajima, Y. Honda, O. Kitao, H. Nakai, 
 T. Vreven, K. Throssell, J. A. Montgomery, Jr., J. E. Peralta, 
 F. Ogliaro, M. J. Bearpark, J. J. Heyd, E. N. Brothers, K. N. Kudin, 
 V. N. Staroverov, T. A. Keith, R. Kobayashi, J. Normand, 
 K. Raghavachari, A. P. Rendell, J. C. Burant, S. S. Iyengar, 
 J. Tomasi, M. Cossi, J. M. Millam, M. Klene, C. Adamo, R. Cammi, 
 J. W. Ochterski, R. L. Martin, K. Morokuma, O. Farkas, 
 J. B. Foresman, and D. J. Fox, Gaussian, Inc., Wallingford CT, 2019.
 
 ******************************************
 Gaussian 16:  ES64L-G16RevC.01  3-Jul-2019
                27-Oct-2020 
 ******************************************
 %chk=config_1_4.chk
 %mem=58GB
 %nprocshared=10
 Will use up to   10 processors via shared memory.
 ----------------------------------------------------------------------
 #p opt=addgic freq wb97xd/cc-pvdz nosymm int=ultrafine scrf=(solvent=C
 arbonTetraChloride)
 ----------------------------------------------------------------------
 1/18=20,19=15,26=6,38=1,145=903/1,3;
 2/9=110,12=2,15=1,17=6,18=5,40=1/2;
 3/5=16,11=2,25=1,30=1,70=2201,71=1,72=11,74=-58,75=-5/1,2,3;
 4//1;
 5/5=2,38=5,53=11/2;
 6/7=2,8=2,9=2,10=2,28=1/1;
 7/30=1/1,2,3,16;
 1/18=20,19=15,26=6,145=903/3(2);
 2/9=110,15=1/2;
 99//99;
 2/9=110,15=1/2;
 3/5=16,11=2,25=1,30=1,70=2205,71=1,72=11,74=-58,75=-5/1,2,3;
 4/5=5,16=3,69=1/1;
 5/5=2,38=5,53=11/2;
 7/30=1/1,2,3,16;
 1/18=20,19=15,26=6,145=903/3(-5);
 2/9=110,15=1/2;
 6/7=2,8=2,9=2,10=2,19=2,28=1/1;
 99/9=1/99;
 Leave Link    1 at Tue Oct 27 21:13:43 2020, MaxMem=  7784628224 cpu:               3.5 elap:               0.4
 (Enter /gpfs/loomis/apps/avx/software/Gaussian/16-C.01_AVX/g16/l101.exe)
 ------------------------------------------------
 NM 2D-scan of HBT TD-WB97XD pVDZ in CTC Relaxed.
 ------------------------------------------------
 Symbolic Z-matrix:
 Charge =  0 Multiplicity = 1
 C                     1.71771  -3.27659  -0.00002 
 C                     0.99147  -2.08834  -0.00002 
 C                     1.66085  -0.82149  -0.00002 
 C                     3.09135  -0.78117  -0.00002 
 C                     3.79024  -1.96698  -0.00002 
 C                     3.11438  -3.21092  -0.00002 
 H                     1.21167  -4.24459  -0.00002 
 H                     3.59032   0.19071  -0.00002 
 H                     4.88266  -1.95536  -0.00002 
 H                     3.69256  -4.13737  -0.00003 
 N                     0.88859   0.23646  -0.00002 
 S                    -0.74656  -1.81703  -0.00002 
 C                    -1.39033   0.99882   0. 
 C                    -2.82005   0.87154  -0.00001 
 C                    -0.89511   2.39157   0.00003 
 C                    -3.63947   1.98109   0.00002 
 H                    -3.25133  -0.13043  -0.00004 
 C                    -1.74715   3.49845   0.00006 
 C                    -3.12127   3.30933   0.00006 
 H                    -4.72311   1.84079   0.00002 
 H                    -1.29767   4.49272   0.00009 
 H                    -3.79892   4.16404   0.00009 
 C                    -0.44093  -0.04261  -0.00001 
 O                     0.41597   2.62796   0.00003 
 H                     0.71816   2.15769   0.00002 
 
 Initializing the GIC definitions file.
 Number of initial coordinates =   131
 Number of input entries/lines =    52
 Number of additional coordinates =     2
 Number of removed coordinates =     0
 Number of frozen coordinates =     2
 Number of final active and frozen coordinates =   133
 ITRead=  0  0  0  0  0  0  0  0  0  0  0  0  0  0  0  0  0  0  0  0
 ITRead=  0  0  0  0  0
 MicOpt= -1 -1 -1 -1 -1 -1 -1 -1 -1 -1 -1 -1 -1 -1 -1 -1 -1 -1 -1 -1
 MicOpt= -1 -1 -1 -1 -1
 NAtoms=     25 NQM=       25 NQMF=       0 NMMI=      0 NMMIF=      0
                NMic=       0 NMicF=      0.
                    Isotopes and Nuclear Properties:
 (Nuclear quadrupole moments (NQMom) in fm**2, nuclear magnetic moments (NMagM)
  in nuclear magnetons)

  Atom         1           2           3           4           5           6           7           8           9          10
 IAtWgt=          12          12          12          12          12          12           1           1           1           1
 AtmWgt=  12.0000000  12.0000000  12.0000000  12.0000000  12.0000000  12.0000000   1.0078250   1.0078250   1.0078250   1.0078250
 NucSpn=           0           0           0           0           0           0           1           1           1           1
 AtZEff=  -0.0000000  -0.0000000  -0.0000000  -0.0000000  -0.0000000  -0.0000000  -0.0000000  -0.0000000  -0.0000000  -0.0000000
 NQMom=    0.0000000   0.0000000   0.0000000   0.0000000   0.0000000   0.0000000   0.0000000   0.0000000   0.0000000   0.0000000
 NMagM=    0.0000000   0.0000000   0.0000000   0.0000000   0.0000000   0.0000000   2.7928460   2.7928460   2.7928460   2.7928460
 AtZNuc=   6.0000000   6.0000000   6.0000000   6.0000000   6.0000000   6.0000000   1.0000000   1.0000000   1.0000000   1.0000000

  Atom        11          12          13          14          15          16          17          18          19          20
 IAtWgt=          14          32          12          12          12          12           1          12          12           1
 AtmWgt=  14.0030740  31.9720718  12.0000000  12.0000000  12.0000000  12.0000000   1.0078250  12.0000000  12.0000000   1.0078250
 NucSpn=           2           0           0           0           0           0           1           0           0           1
 AtZEff=  -0.0000000  -0.0000000  -0.0000000  -0.0000000  -0.0000000  -0.0000000  -0.0000000  -0.0000000  -0.0000000  -0.0000000
 NQMom=    2.0440000   0.0000000   0.0000000   0.0000000   0.0000000   0.0000000   0.0000000   0.0000000   0.0000000   0.0000000
 NMagM=    0.4037610   0.0000000   0.0000000   0.0000000   0.0000000   0.0000000   2.7928460   0.0000000   0.0000000   2.7928460
 AtZNuc=   7.0000000  16.0000000   6.0000000   6.0000000   6.0000000   6.0000000   1.0000000   6.0000000   6.0000000   1.0000000

  Atom        21          22          23          24          25
 IAtWgt=           1           1          12          16           1
 AtmWgt=   1.0078250   1.0078250  12.0000000  15.9949146   1.0078250
 NucSpn=           1           1           0           0           1
 AtZEff=  -0.0000000  -0.0000000  -0.0000000  -0.0000000  -0.0000000
 NQMom=    0.0000000   0.0000000   0.0000000   0.0000000   0.0000000
 NMagM=    2.7928460   2.7928460   0.0000000   0.0000000   2.7928460
 AtZNuc=   1.0000000   1.0000000   6.0000000   8.0000000   1.0000000
 Leave Link  101 at Tue Oct 27 21:13:46 2020, MaxMem=  7784628224 cpu:              32.3 elap:               3.3
 (Enter /gpfs/loomis/apps/avx/software/Gaussian/16-C.01_AVX/g16/l103.exe)

 GradGradGradGradGradGradGradGradGradGradGradGradGradGradGradGradGradGrad
 Berny optimization.
 Initialization pass.
                           ----------------------------
                           !    Initial Parameters    !
                           ! (Angstroms and Degrees)  !
 --------------------------                            --------------------------
 ! Name  Definition              Value          Derivative Info.                !
 --------------------------------------------------------------------------------
 ! R1    R(1,2)                  1.3926         estimate D2E/DX2                !
 ! R2    R(1,6)                  1.3982         estimate D2E/DX2                !
 ! R3    R(1,7)                  1.0923         estimate D2E/DX2                !
 ! R4    R(2,3)                  1.4328         estimate D2E/DX2                !
 ! R5    R(2,12)                 1.7591         estimate D2E/DX2                !
 ! R6    R(3,4)                  1.4311         estimate D2E/DX2                !
 ! R7    R(3,11)                 1.3098         estimate D2E/DX2                !
 ! R8    R(4,5)                  1.3764         estimate D2E/DX2                !
 ! R9    R(4,8)                  1.0925         estimate D2E/DX2                !
 ! R10   R(5,6)                  1.4157         estimate D2E/DX2                !
 ! R11   R(5,9)                  1.0925         estimate D2E/DX2                !
 ! R12   R(6,10)                 1.0921         estimate D2E/DX2                !
 ! R13   R(11,23)                1.3585         estimate D2E/DX2                !
 ! R14   R(12,23)                1.8005         estimate D2E/DX2                !
 ! R15   R(13,14)                1.4354         estimate D2E/DX2                !
 ! R16   R(13,15)                1.4782         estimate D2E/DX2                !
 ! R17   R(13,23)                1.4092         estimate D2E/DX2                !
 ! R18   R(14,16)                1.3793         estimate D2E/DX2                !
 ! R19   R(14,17)                1.0909         estimate D2E/DX2                !
 ! R20   R(15,18)                1.3968         estimate D2E/DX2                !
 ! R21   R(15,24)                1.3322         estimate D2E/DX2                !
 ! R22   R(16,19)                1.4257         estimate D2E/DX2                !
 ! R23   R(16,20)                1.0927         estimate D2E/DX2                !
 ! R24   R(18,19)                1.3871         estimate D2E/DX2                !
 ! R25   R(18,21)                1.0911         estimate D2E/DX2                !
 ! R26   R(19,22)                1.0908         estimate D2E/DX2                !
 ! R27   R(24,25)                0.559          estimate D2E/DX2                !
 ! A1    A(2,1,6)              118.7401         estimate D2E/DX2                !
 ! A2    A(2,1,7)              120.9685         estimate D2E/DX2                !
 ! A3    A(6,1,7)              120.2914         estimate D2E/DX2                !
 ! A4    A(1,2,3)              120.7166         estimate D2E/DX2                !
 ! A5    A(1,2,12)             130.3047         estimate D2E/DX2                !
 ! A6    A(3,2,12)             108.9787         estimate D2E/DX2                !
 ! A7    A(2,3,4)              119.4655         estimate D2E/DX2                !
 ! A8    A(2,3,11)             116.0213         estimate D2E/DX2                !
 ! A9    A(4,3,11)             124.5132         estimate D2E/DX2                !
 ! A10   A(3,4,5)              118.9            estimate D2E/DX2                !
 ! A11   A(3,4,8)              118.7906         estimate D2E/DX2                !
 ! A12   A(5,4,8)              122.3094         estimate D2E/DX2                !
 ! A13   A(4,5,6)              120.9691         estimate D2E/DX2                !
 ! A14   A(4,5,9)              119.9046         estimate D2E/DX2                !
 ! A15   A(6,5,9)              119.1263         estimate D2E/DX2                !
 ! A16   A(1,6,5)              121.2088         estimate D2E/DX2                !
 ! A17   A(1,6,10)             119.2753         estimate D2E/DX2                !
 ! A18   A(5,6,10)             119.5159         estimate D2E/DX2                !
 ! A19   A(3,11,23)            114.2733         estimate D2E/DX2                !
 ! A20   A(2,12,23)             89.0995         estimate D2E/DX2                !
 ! A21   A(14,13,15)           114.6608         estimate D2E/DX2                !
 ! A22   A(14,13,23)           127.2662         estimate D2E/DX2                !
 ! A23   A(15,13,23)           118.073          estimate D2E/DX2                !
 ! A24   A(13,14,16)           121.3595         estimate D2E/DX2                !
 ! A25   A(13,14,17)           118.3753         estimate D2E/DX2                !
 ! A26   A(16,14,17)           120.2653         estimate D2E/DX2                !
 ! A27   A(13,15,18)           122.8381         estimate D2E/DX2                !
 ! A28   A(13,15,24)           119.7948         estimate D2E/DX2                !
 ! A29   A(18,15,24)           117.367          estimate D2E/DX2                !
 ! A30   A(14,16,19)           122.2407         estimate D2E/DX2                !
 ! A31   A(14,16,20)           119.0692         estimate D2E/DX2                !
 ! A32   A(19,16,20)           118.6901         estimate D2E/DX2                !
 ! A33   A(15,18,19)           119.7516         estimate D2E/DX2                !
 ! A34   A(15,18,21)           118.0856         estimate D2E/DX2                !
 ! A35   A(19,18,21)           122.1628         estimate D2E/DX2                !
 ! A36   A(16,19,18)           119.1493         estimate D2E/DX2                !
 ! A37   A(16,19,22)           120.2781         estimate D2E/DX2                !
 ! A38   A(18,19,22)           120.5726         estimate D2E/DX2                !
 ! A39   A(11,23,12)           111.6272         estimate D2E/DX2                !
 ! A40   A(11,23,13)           120.4988         estimate D2E/DX2                !
 ! A41   A(12,23,13)           127.874          estimate D2E/DX2                !
 ! A42   A(15,24,25)           112.5032         estimate D2E/DX2                !
 ! D1    D(6,1,2,3)              0.0001         estimate D2E/DX2                !
 ! D2    D(6,1,2,12)          -179.9999         estimate D2E/DX2                !
 ! D3    D(7,1,2,3)            180.0            estimate D2E/DX2                !
 ! D4    D(7,1,2,12)             0.0            estimate D2E/DX2                !
 ! D5    D(2,1,6,5)              0.0            estimate D2E/DX2                !
 ! D6    D(2,1,6,10)           180.0            estimate D2E/DX2                !
 ! D7    D(7,1,6,5)           -179.9999         estimate D2E/DX2                !
 ! D8    D(7,1,6,10)             0.0            estimate D2E/DX2                !
 ! D9    D(1,2,3,4)             -0.0001         estimate D2E/DX2                !
 ! D10   D(1,2,3,11)           179.9999         estimate D2E/DX2                !
 ! D11   D(12,2,3,4)           179.9999         estimate D2E/DX2                !
 ! D12   D(12,2,3,11)           -0.0001         estimate D2E/DX2                !
 ! D13   D(1,2,12,23)          179.9999         estimate D2E/DX2                !
 ! D14   D(3,2,12,23)           -0.0001         estimate D2E/DX2                !
 ! D15   D(2,3,4,5)              0.0001         estimate D2E/DX2                !
 ! D16   D(2,3,4,8)           -179.9999         estimate D2E/DX2                !
 ! D17   D(11,3,4,5)          -180.0            estimate D2E/DX2                !
 ! D18   D(11,3,4,8)             0.0            estimate D2E/DX2                !
 ! D19   D(2,3,11,23)            0.0002         estimate D2E/DX2                !
 ! D20   D(4,3,11,23)         -179.9998         estimate D2E/DX2                !
 ! D21   D(3,4,5,6)              0.0            estimate D2E/DX2                !
 ! D22   D(3,4,5,9)            180.0            estimate D2E/DX2                !
 ! D23   D(8,4,5,6)           -180.0            estimate D2E/DX2                !
 ! D24   D(8,4,5,9)              0.0            estimate D2E/DX2                !
 ! D25   D(4,5,6,1)              0.0            estimate D2E/DX2                !
 ! D26   D(4,5,6,10)           180.0            estimate D2E/DX2                !
 ! D27   D(9,5,6,1)            180.0            estimate D2E/DX2                !
 ! D28   D(9,5,6,10)             0.0            estimate D2E/DX2                !
 ! D29   D(3,11,23,12)          -0.0002         estimate D2E/DX2                !
 ! D30   D(3,11,23,13)         179.9994         estimate D2E/DX2                !
 ! D31   D(2,12,23,11)           0.0002         estimate D2E/DX2                !
 ! D32   D(2,12,23,13)        -179.9995         estimate D2E/DX2                !
 ! D33   D(15,13,14,16)         -0.0005         estimate D2E/DX2                !
 ! D34   D(15,13,14,17)        179.9996         estimate D2E/DX2                !
 ! D35   D(23,13,14,16)        179.9993         estimate D2E/DX2                !
 ! D36   D(23,13,14,17)         -0.0005         estimate D2E/DX2                !
 ! D37   D(14,13,15,18)          0.0006         estimate D2E/DX2                !
 ! D38   D(14,13,15,24)       -179.9995         estimate D2E/DX2                !
 ! D39   D(23,13,15,18)       -179.9992         estimate D2E/DX2                !
 ! D40   D(23,13,15,24)          0.0006         estimate D2E/DX2                !
 ! D41   D(14,13,23,11)        179.9993         estimate D2E/DX2                !
 ! D42   D(14,13,23,12)         -0.0011         estimate D2E/DX2                !
 ! D43   D(15,13,23,11)         -0.0009         estimate D2E/DX2                !
 ! D44   D(15,13,23,12)        179.9987         estimate D2E/DX2                !
 ! D45   D(13,14,16,19)          0.0001         estimate D2E/DX2                !
 ! D46   D(13,14,16,20)       -179.9999         estimate D2E/DX2                !
 ! D47   D(17,14,16,19)        179.9999         estimate D2E/DX2                !
 ! D48   D(17,14,16,20)          0.0            estimate D2E/DX2                !
 ! D49   D(13,15,18,19)         -0.0003         estimate D2E/DX2                !
 ! D50   D(13,15,18,21)        179.9998         estimate D2E/DX2                !
 ! D51   D(24,15,18,19)        179.9999         estimate D2E/DX2                !
 ! D52   D(24,15,18,21)         -0.0001         estimate D2E/DX2                !
 ! D53   D(13,15,24,25)         -0.0006         estimate D2E/DX2                !
 ! D54   D(18,15,24,25)        179.9993         estimate D2E/DX2                !
 ! D55   D(14,16,19,18)          0.0003         estimate D2E/DX2                !
 ! D56   D(14,16,19,22)       -179.9998         estimate D2E/DX2                !
 ! D57   D(20,16,19,18)       -179.9998         estimate D2E/DX2                !
 ! D58   D(20,16,19,22)          0.0002         estimate D2E/DX2                !
 ! D59   D(15,18,19,16)         -0.0002         estimate D2E/DX2                !
 ! D60   D(15,18,19,22)        179.9999         estimate D2E/DX2                !
 ! D61   D(21,18,19,16)        179.9997         estimate D2E/DX2                !
 ! D62   D(21,18,19,22)         -0.0002         estimate D2E/DX2                !
 ! Qtot  GIC-1                 -50.0            Frozen                          !
 ! Ptot  GIC-2                 -80.0            Frozen                          !
 --------------------------------------------------------------------------------
 NOTE: GIC-type coordinates are in arbitrary units.
 Trust Radius=3.00D-01 FncErr=5.00D-06 GrdErr=5.00D-06 EigMax=2.50D+02 EigMin=1.00D-04
 Number of steps in this run=    143 maximum allowed number of steps=    150.
 GradGradGradGradGradGradGradGradGradGradGradGradGradGradGradGradGradGrad

 Leave Link  103 at Tue Oct 27 21:13:46 2020, MaxMem=  7784628224 cpu:               0.1 elap:               0.0
 (Enter /gpfs/loomis/apps/avx/software/Gaussian/16-C.01_AVX/g16/l202.exe)
                          Input orientation:                          
 ---------------------------------------------------------------------
 Center     Atomic      Atomic             Coordinates (Angstroms)
 Number     Number       Type             X           Y           Z
 ---------------------------------------------------------------------
      1          6           0        1.717710   -3.276594   -0.000024
      2          6           0        0.991472   -2.088336   -0.000021
      3          6           0        1.660845   -0.821494   -0.000020
      4          6           0        3.091346   -0.781175   -0.000020
      5          6           0        3.790244   -1.966985   -0.000022
      6          6           0        3.114380   -3.210917   -0.000024
      7          1           0        1.211671   -4.244594   -0.000024
      8          1           0        3.590316    0.190713   -0.000018
      9          1           0        4.882659   -1.955357   -0.000022
     10          1           0        3.692563   -4.137367   -0.000026
     11          7           0        0.888592    0.236458   -0.000019
     12         16           0       -0.746563   -1.817026   -0.000018
     13          6           0       -1.390326    0.998816    0.000000
     14          6           0       -2.820052    0.871545   -0.000008
     15          6           0       -0.895106    2.391565    0.000030
     16          6           0       -3.639468    1.981092    0.000022
     17          1           0       -3.251328   -0.130430   -0.000036
     18          6           0       -1.747149    3.498447    0.000062
     19          6           0       -3.121265    3.309328    0.000060
     20          1           0       -4.723107    1.840791    0.000017
     21          1           0       -1.297667    4.492716    0.000086
     22          1           0       -3.798921    4.164040    0.000087
     23          6           0       -0.440934   -0.042612   -0.000014
     24          8           0        0.415971    2.627960    0.000031
     25          1           0        0.718162    2.157685    0.000024
 ---------------------------------------------------------------------
                    Distance matrix (angstroms):
                    1          2          3          4          5
     1  C    0.000000
     2  C    1.392616   0.000000
     3  C    2.455758   1.432812   0.000000
     4  C    2.848507   2.473487   1.431068   0.000000
     5  C    2.451626   2.801401   2.417951   1.376446   0.000000
     6  C    1.398213   2.401442   2.796802   2.429851   1.415683
     7  H    1.092291   2.167472   3.452444   3.940615   3.440427
     8  H    3.940669   3.456596   2.178858   1.092492   2.166940
     9  H    3.429660   3.893459   3.415513   2.141847   1.092478
    10  H    2.154292   3.390342   3.888816   3.409617   2.172579
    11  N    3.609566   2.327069   1.309823   2.426458   3.643452
    12  S    2.864085   1.759084   2.605130   3.975240   4.539284
    13  C    5.285737   3.899163   3.552911   4.822214   5.969445
    14  C    6.148035   4.825827   4.790075   6.138086   7.193973
    15  C    6.241381   4.860935   4.105683   5.094907   6.399176
    16  C    7.506172   6.164888   5.995649   7.275573   8.413556
    17  H    5.881300   4.672767   4.960546   6.375969   7.277133
    18  C    7.609627   6.221911   5.502391   6.459581   7.780337
    19  C    8.172518   6.785969   6.319198   7.438330   8.695311
    20  H    8.226285   6.935017   6.916835   8.242596   9.326108
    21  H    8.333947   6.967812   6.082238   6.861294   8.222808
    22  H    9.262627   7.876552   7.393551   8.481211   9.756274
    23  C    3.888237   2.497354   2.241458   3.608667   4.648234
    24  O    6.046344   4.751279   3.667212   4.333570   5.700810
    25  H    5.525440   4.254809   3.124766   3.777420   5.143014
                    6          7          8          9         10
     6  C    0.000000
     7  H    2.165361   0.000000
     8  H    3.434763   5.032882   0.000000
     9  H    2.168696   4.326287   2.505148   0.000000
    10  H    1.092065   2.483208   4.329287   2.485457   0.000000
    11  N    4.103477   4.492683   2.702111   4.555944   5.195440
    12  S    4.104852   3.118936   4.779073   5.630922   5.008974
    13  C    6.165568   5.853523   5.045774   6.933793   7.226073
    14  C    7.203053   6.513805   6.446421   8.205067   8.216042
    15  C    6.889396   6.962551   4.996275   7.230374   7.979578
    16  C    8.518885   7.892573   7.448170   9.387347   9.549566
    17  H    7.071891   6.069984   6.849178   8.336193   8.017055
    18  C    8.285530   8.289106   6.279302   8.584773   9.375292
    19  C    9.022021   8.708390   7.400749   9.580173  10.093637
    20  H    9.324481   8.500206   8.475599  10.328673  10.322881
    21  H    8.877618   9.090509   6.511498   8.931634   9.968988
    22  H   10.108596   9.788318   8.389765  10.621528  11.181936
    23  C    4.762186   4.515280   4.037997   5.656787   5.818317
    24  O    6.432254   6.918463   4.002080   6.399852   7.517027
    25  H    5.879094   6.421272   3.481128   5.853218   6.962381
                   11         12         13         14         15
    11  N    0.000000
    12  S    2.624982   0.000000
    13  C    2.403052   2.888494   0.000000
    14  C    3.762629   3.395257   1.435379   0.000000
    15  C    2.797511   4.211212   1.478173   2.452729   0.000000
    16  C    4.852533   4.774369   2.454283   1.379325   2.774890
    17  H    4.156146   3.019678   2.176815   1.090850   3.451412
    18  C    4.193769   5.408828   2.524970   2.837558   1.396841
    19  C    5.051879   5.649665   2.886973   2.456321   2.407919
    20  H    5.836528   5.403011   3.437492   2.135664   3.867422
    21  H    4.784920   6.333763   3.495128   3.928172   2.139366
    22  H    6.115447   6.714912   3.977433   3.434925   3.402031
    23  C    1.358499   1.800544   1.409226   2.548702   2.476184
    24  O    2.437756   4.594495   2.432451   3.681961   1.332218
    25  H    1.928772   4.236007   2.405972   3.764719   1.630132
                   16         17         18         19         20
    16  C    0.000000
    17  H    2.146900   0.000000
    18  C    2.425539   3.928270   0.000000
    19  C    1.425743   3.442216   1.387070   0.000000
    20  H    1.092684   2.460050   3.406487   2.173131   0.000000
    21  H    3.433990   5.018991   1.091148   2.173918   4.332014
    22  H    2.188765   4.329242   2.157032   1.090757   2.500322
    23  C    3.784970   2.811766   3.774293   4.291815   4.678057
    24  O    4.106705   4.588878   2.331702   3.602264   5.199015
    25  H    4.361206   4.581738   2.806313   4.008426   5.450489
                   21         22         23         24         25
    21  H    0.000000
    22  H    2.522756   0.000000
    23  C    4.615537   5.382564   0.000000
    24  O    2.532562   4.486074   2.804681   0.000000
    25  H    3.084790   4.942620   2.486928   0.558997   0.000000
 Symmetry turned off by external request.
 Stoichiometry    C13H9NOS
 Framework group  C1[X(C13H9NOS)]
 Deg. of freedom    69
 Full point group                 C1      NOp   1
 Rotational constants (GHZ):           1.3469062           0.2856370           0.2356607
 Leave Link  202 at Tue Oct 27 21:13:46 2020, MaxMem=  7784628224 cpu:               0.1 elap:               0.0
 (Enter /gpfs/loomis/apps/avx/software/Gaussian/16-C.01_AVX/g16/l301.exe)
 Standard basis: CC-pVDZ (5D, 7F)
 Ernie: Thresh=  0.10000D-02 Tol=  0.10000D-05 Strict=F.
 Ernie:  40 primitive shells out of 425 were deleted.
   273 basis functions,   629 primitive gaussians,   289 cartesian basis functions
    59 alpha electrons       59 beta electrons
       nuclear repulsion energy      1097.5625119508 Hartrees.
 IExCor= 4639 DFT=T Ex+Corr=wB97XD ExCW=0 ScaHFX=  1.000000
 ScaDFX=  1.000000  1.000000  1.000000  1.000000 ScalE2=  1.000000  1.000000
 IRadAn=      5 IRanWt=     -1 IRanGd=            0 ICorTp=0 IEmpDi=121
 HFx  wShort=  0.000000 wLong=  0.200000 cFull=  0.222036 cShort=  0.000000 cLong=  0.777964
 DFx  wShort=  0.000000 wLong=  0.200000 cFull=  0.000000 cShort=  0.000000 cLong=  1.000000
 NAtoms=   25 NActive=   25 NUniq=   25 SFac= 1.00D+00 NAtFMM=   60 NAOKFM=F Big=F
 Integral buffers will be    131072 words long.
 Raffenetti 2 integral format.
 Two-electron integral symmetry is turned off.
 R6Disp:  Grimme-D2 Dispersion energy=       -0.0140027570 Hartrees.
 Nuclear repulsion after empirical dispersion term =     1097.5485091938 Hartrees.
 ------------------------------------------------------------------------------
 Polarizable Continuum Model (PCM)
 =================================
 Model                : PCM.
 Atomic radii         : UFF (Universal Force Field).
 Polarization charges : Total charges.
 Charge compensation  : None.
 Solution method      : On-the-fly selection.
 Cavity type          : Scaled VdW (van der Waals Surface) (Alpha=1.100).
 Cavity algorithm     : GePol (No added spheres)
                        Default sphere list used, NSphG=   25.
                        Lebedev-Laikov grids with approx.  5.0 points / Ang**2.
                        Smoothing algorithm: York/Karplus (Gamma=1.0000).
                        Polarization charges: spherical gaussians, with
                                              point-specific exponents (IZeta= 3).
                        Self-potential: point-specific (ISelfS= 7).
                        Self-field    : sphere-specific E.n sum rule (ISelfD= 2).
 1st derivatives      : Analytical E(r).r(x)/FMM algorithm (CHGder, D1EAlg=3).
                        Cavity 1st derivative terms included.
 Solvent              : CarbonTetraChloride, Eps=   2.228000 Eps(inf)=   2.131892
 ------------------------------------------------------------------------------
 GePol: Number of generator spheres                  =      25
 GePol: Total number of spheres                      =      25
 GePol: Number of exposed spheres                    =      25 (100.00%)
 GePol: Number of points                             =    2189
 GePol: Average weight of points                     =       0.13
 GePol: Minimum weight of points                     =   0.23D-08
 GePol: Maximum weight of points                     =    0.20577
 GePol: Number of points with low weight             =     128
 GePol: Fraction of low-weight points (<1% of avg)   =       5.85%
 GePol: Cavity surface area                          =    275.652 Ang**2
 GePol: Cavity volume                                =    294.243 Ang**3
 Leave Link  301 at Tue Oct 27 21:13:46 2020, MaxMem=  7784628224 cpu:               0.8 elap:               0.1
 (Enter /gpfs/loomis/apps/avx/software/Gaussian/16-C.01_AVX/g16/l302.exe)
 NPDir=0 NMtPBC=     1 NCelOv=     1 NCel=       1 NClECP=     1 NCelD=      1
         NCelK=      1 NCelE2=     1 NClLst=     1 CellRange=     0.0.
 One-electron integrals computed using PRISM.
 NBasis=   273 RedAO= T EigKep=  3.16D-04  NBF=   273
 NBsUse=   273 1.00D-06 EigRej= -1.00D+00 NBFU=   273
 Precomputing XC quadrature grid using
 IXCGrd= 4 IRadAn=           5 IRanWt=          -1 IRanGd=           0 AccXCQ= 0.00D+00.
 Generated NRdTot=       0 NPtTot=           0 NUsed=           0 NTot=          32
 NSgBfM=   288   288   288   288   288 MxSgAt=    25 MxSgA2=    25.
 Leave Link  302 at Tue Oct 27 21:13:47 2020, MaxMem=  7784628224 cpu:               2.5 elap:               0.3
 (Enter /gpfs/loomis/apps/avx/software/Gaussian/16-C.01_AVX/g16/l303.exe)
 DipDrv:  MaxL=1.
 Leave Link  303 at Tue Oct 27 21:13:47 2020, MaxMem=  7784628224 cpu:               0.6 elap:               0.1
 (Enter /gpfs/loomis/apps/avx/software/Gaussian/16-C.01_AVX/g16/l401.exe)
 ExpMin= 1.22D-01 ExpMax= 1.11D+05 ExpMxC= 1.07D+03 IAcc=3 IRadAn=         5 AccDes= 0.00D+00
 Harris functional with IExCor= 4639 and IRadAn=       5 diagonalized for initial guess.
 HarFok:  IExCor= 4639 AccDes= 0.00D+00 IRadAn=         5 IDoV= 1 UseB2=F ITyADJ=14
 ICtDFT=  3500011 ScaDFX=  1.000000  1.000000  1.000000  1.000000
 FoFCou: FMM=F IPFlag=           0 FMFlag=      100000 FMFlg1=           0
         NFxFlg=           0 DoJE=T BraDBF=F KetDBF=T FulRan=T
         wScrn=  0.000000 ICntrl=       500 IOpCl=  0 I1Cent=   200000004 NGrid=           0
         NMat0=    1 NMatS0=      1 NMatT0=    0 NMatD0=    1 NMtDS0=    0 NMtDT0=    0
 Symmetry not used in FoFCou.
 Harris En= -993.935592102891    
 JPrj=0 DoOrth=F DoCkMO=F.
 Leave Link  401 at Tue Oct 27 21:13:48 2020, MaxMem=  7784628224 cpu:              13.9 elap:               1.4
 (Enter /gpfs/loomis/apps/avx/software/Gaussian/16-C.01_AVX/g16/l502.exe)
 Two-electron integral symmetry not used.
 Closed shell SCF:
 Using DIIS extrapolation, IDIIS=  1040.
 NGot=  7784628224 LenX=  7784455381 LenY=  7784371419
 Requested convergence on RMS density matrix=1.00D-08 within 128 cycles.
 Requested convergence on MAX density matrix=1.00D-06.
 Requested convergence on             energy=1.00D-06.
 No special actions if energy rises.
 Fock matrices will be formed incrementally for  20 cycles.

 Cycle   1  Pass 1  IDiag  1:
 FoFJK:  IHMeth= 1 ICntrl=       0 DoSepK=T KAlg= 0 I1Cent=           0 FoldK=F
 IRaf=         1 NMat=       1 IRICut=       1 DoRegI=T DoRafI=F ISym2E= 0 IDoP0=0 IntGTp=1.
 FoFCou: FMM=F IPFlag=           0 FMFlag=      100000 FMFlg1=           0
         NFxFlg=           0 DoJE=T BraDBF=F KetDBF=F FulRan=T
         wScrn=  0.000000 ICntrl=       500 IOpCl=  0 I1Cent=           0 NGrid=           0
         NMat0=    1 NMatS0=      1 NMatT0=    0 NMatD0=    1 NMtDS0=    0 NMtDT0=    0
 Symmetry not used in FoFCou.
 Inv3:  Mode=1 IEnd=    14375163.
 Iteration    1 A*A^-1 deviation from unit magnitude is 4.33D-15 for   2158.
 Iteration    1 A*A^-1 deviation from orthogonality  is 2.33D-15 for   1807    365.
 Iteration    1 A^-1*A deviation from unit magnitude is 4.11D-15 for   2158.
 Iteration    1 A^-1*A deviation from orthogonality  is 2.11D-15 for   2179   2080.
 E= -1028.07740059533    
 DIIS: error= 3.29D-02 at cycle   1 NSaved=   1.
 NSaved= 1 IEnMin= 1 EnMin= -1028.07740059533     IErMin= 1 ErrMin= 3.29D-02
 ErrMax= 3.29D-02  0.00D+00 EMaxC= 1.00D-01 BMatC= 3.96D-01 BMatP= 3.96D-01
 IDIUse=3 WtCom= 6.71D-01 WtEn= 3.29D-01
 Coeff-Com:  0.100D+01
 Coeff-En:   0.100D+01
 Coeff:      0.100D+01
 Gap=     0.369 Goal=   None    Shift=    0.000
 GapD=    0.369 DampG=1.000 DampE=0.500 DampFc=0.5000 IDamp=-1.
 Damping current iteration by 5.00D-01
 RMSDP=3.56D-03 MaxDP=2.31D-01              OVMax= 1.71D-01

 Cycle   2  Pass 1  IDiag  1:
 RMSU=  1.77D-03    CP:  9.93D-01
 E= -1028.19528048363     Delta-E=       -0.117879888299 Rises=F Damp=T
 DIIS: error= 1.00D-02 at cycle   2 NSaved=   2.
 NSaved= 2 IEnMin= 2 EnMin= -1028.19528048363     IErMin= 2 ErrMin= 1.00D-02
 ErrMax= 1.00D-02  0.00D+00 EMaxC= 1.00D-01 BMatC= 5.77D-02 BMatP= 3.96D-01
 IDIUse=3 WtCom= 9.00D-01 WtEn= 1.00D-01
 Coeff-Com: -0.285D+00 0.128D+01
 Coeff-En:   0.000D+00 0.100D+01
 Coeff:     -0.256D+00 0.126D+01
 Gap=     0.294 Goal=   None    Shift=    0.000
 RMSDP=1.18D-03 MaxDP=2.59D-02 DE=-1.18D-01 OVMax= 1.38D-01

 Cycle   3  Pass 1  IDiag  1:
 RMSU=  1.13D-03    CP:  9.89D-01  1.18D+00
 E= -1028.29943723575     Delta-E=       -0.104156752121 Rises=F Damp=F
 DIIS: error= 6.43D-03 at cycle   3 NSaved=   3.
 NSaved= 3 IEnMin= 3 EnMin= -1028.29943723575     IErMin= 3 ErrMin= 6.43D-03
 ErrMax= 6.43D-03  0.00D+00 EMaxC= 1.00D-01 BMatC= 1.46D-02 BMatP= 5.77D-02
 IDIUse=3 WtCom= 9.36D-01 WtEn= 6.43D-02
 Coeff-Com: -0.201D+00 0.489D+00 0.712D+00
 Coeff-En:   0.000D+00 0.000D+00 0.100D+01
 Coeff:     -0.188D+00 0.457D+00 0.730D+00
 Gap=     0.260 Goal=   None    Shift=    0.000
 RMSDP=5.26D-04 MaxDP=2.28D-02 DE=-1.04D-01 OVMax= 4.29D-02

 Cycle   4  Pass 1  IDiag  1:
 RMSU=  3.91D-04    CP:  9.88D-01  1.35D+00  8.24D-01
 E= -1028.31221294628     Delta-E=       -0.012775710526 Rises=F Damp=F
 DIIS: error= 2.74D-03 at cycle   4 NSaved=   4.
 NSaved= 4 IEnMin= 4 EnMin= -1028.31221294628     IErMin= 4 ErrMin= 2.74D-03
 ErrMax= 2.74D-03  0.00D+00 EMaxC= 1.00D-01 BMatC= 2.32D-03 BMatP= 1.46D-02
 IDIUse=3 WtCom= 9.73D-01 WtEn= 2.74D-02
 Coeff-Com: -0.799D-01 0.161D+00 0.373D+00 0.546D+00
 Coeff-En:   0.000D+00 0.000D+00 0.240D-01 0.976D+00
 Coeff:     -0.777D-01 0.157D+00 0.363D+00 0.557D+00
 Gap=     0.259 Goal=   None    Shift=    0.000
 RMSDP=1.80D-04 MaxDP=1.05D-02 DE=-1.28D-02 OVMax= 1.40D-02

 Cycle   5  Pass 1  IDiag  1:
 RMSU=  1.11D-04    CP:  9.87D-01  1.35D+00  9.06D-01  7.29D-01
 E= -1028.31452329604     Delta-E=       -0.002310349763 Rises=F Damp=F
 DIIS: error= 5.45D-04 at cycle   5 NSaved=   5.
 NSaved= 5 IEnMin= 5 EnMin= -1028.31452329604     IErMin= 5 ErrMin= 5.45D-04
 ErrMax= 5.45D-04  0.00D+00 EMaxC= 1.00D-01 BMatC= 8.87D-05 BMatP= 2.32D-03
 IDIUse=3 WtCom= 9.95D-01 WtEn= 5.45D-03
 Coeff-Com: -0.966D-02 0.135D-01 0.657D-01 0.203D+00 0.727D+00
 Coeff-En:   0.000D+00 0.000D+00 0.000D+00 0.000D+00 0.100D+01
 Coeff:     -0.961D-02 0.134D-01 0.654D-01 0.202D+00 0.728D+00
 Gap=     0.260 Goal=   None    Shift=    0.000
 RMSDP=5.00D-05 MaxDP=1.56D-03 DE=-2.31D-03 OVMax= 5.26D-03

 Cycle   6  Pass 1  IDiag  1:
 RMSU=  3.56D-05    CP:  9.87D-01  1.36D+00  9.17D-01  8.06D-01  1.03D+00
 E= -1028.31465964273     Delta-E=       -0.000136346688 Rises=F Damp=F
 DIIS: error= 1.80D-04 at cycle   6 NSaved=   6.
 NSaved= 6 IEnMin= 6 EnMin= -1028.31465964273     IErMin= 6 ErrMin= 1.80D-04
 ErrMax= 1.80D-04  0.00D+00 EMaxC= 1.00D-01 BMatC= 1.12D-05 BMatP= 8.87D-05
 IDIUse=3 WtCom= 9.98D-01 WtEn= 1.80D-03
 Coeff-Com:  0.139D-01-0.293D-01-0.541D-01-0.417D-01 0.206D+00 0.906D+00
 Coeff-En:   0.000D+00 0.000D+00 0.000D+00 0.000D+00 0.000D+00 0.100D+01
 Coeff:      0.138D-01-0.293D-01-0.540D-01-0.416D-01 0.205D+00 0.906D+00
 Gap=     0.261 Goal=   None    Shift=    0.000
 RMSDP=3.43D-05 MaxDP=1.60D-03 DE=-1.36D-04 OVMax= 3.10D-03

 Cycle   7  Pass 1  IDiag  1:
 RMSU=  1.83D-05    CP:  9.87D-01  1.36D+00  9.30D-01  8.46D-01  1.20D+00
                    CP:  1.19D+00
 E= -1028.31469243688     Delta-E=       -0.000032794146 Rises=F Damp=F
 DIIS: error= 1.29D-04 at cycle   7 NSaved=   7.
 NSaved= 7 IEnMin= 7 EnMin= -1028.31469243688     IErMin= 7 ErrMin= 1.29D-04
 ErrMax= 1.29D-04  0.00D+00 EMaxC= 1.00D-01 BMatC= 2.15D-06 BMatP= 1.12D-05
 IDIUse=3 WtCom= 9.99D-01 WtEn= 1.29D-03
 Coeff-Com:  0.668D-02-0.128D-01-0.294D-01-0.462D-01-0.408D-01 0.347D+00
 Coeff-Com:  0.776D+00
 Coeff-En:   0.000D+00 0.000D+00 0.000D+00 0.000D+00 0.000D+00 0.000D+00
 Coeff-En:   0.100D+01
 Coeff:      0.667D-02-0.128D-01-0.294D-01-0.461D-01-0.407D-01 0.346D+00
 Coeff:      0.776D+00
 Gap=     0.261 Goal=   None    Shift=    0.000
 RMSDP=1.21D-05 MaxDP=6.31D-04 DE=-3.28D-05 OVMax= 1.48D-03

 Cycle   8  Pass 1  IDiag  1:
 RMSU=  7.39D-06    CP:  9.87D-01  1.36D+00  9.32D-01  8.52D-01  1.24D+00
                    CP:  1.40D+00  1.10D+00
 E= -1028.31469774148     Delta-E=       -0.000005304609 Rises=F Damp=F
 DIIS: error= 3.67D-05 at cycle   8 NSaved=   8.
 NSaved= 8 IEnMin= 8 EnMin= -1028.31469774148     IErMin= 8 ErrMin= 3.67D-05
 ErrMax= 3.67D-05  0.00D+00 EMaxC= 1.00D-01 BMatC= 2.60D-07 BMatP= 2.15D-06
 IDIUse=1 WtCom= 1.00D+00 WtEn= 0.00D+00
 Coeff-Com: -0.444D-03 0.124D-02 0.882D-03-0.514D-02-0.402D-01-0.385D-01
 Coeff-Com:  0.227D+00 0.855D+00
 Coeff:     -0.444D-03 0.124D-02 0.882D-03-0.514D-02-0.402D-01-0.385D-01
 Coeff:      0.227D+00 0.855D+00
 Gap=     0.261 Goal=   None    Shift=    0.000
 RMSDP=4.80D-06 MaxDP=1.44D-04 DE=-5.30D-06 OVMax= 6.36D-04

 Cycle   9  Pass 1  IDiag  1:
 RMSU=  2.40D-06    CP:  9.87D-01  1.36D+00  9.32D-01  8.53D-01  1.25D+00
                    CP:  1.46D+00  1.28D+00  1.09D+00
 E= -1028.31469847828     Delta-E=       -0.000000736792 Rises=F Damp=F
 DIIS: error= 1.91D-05 at cycle   9 NSaved=   9.
 NSaved= 9 IEnMin= 9 EnMin= -1028.31469847828     IErMin= 9 ErrMin= 1.91D-05
 ErrMax= 1.91D-05  0.00D+00 EMaxC= 1.00D-01 BMatC= 5.05D-08 BMatP= 2.60D-07
 IDIUse=1 WtCom= 1.00D+00 WtEn= 0.00D+00
 Coeff-Com: -0.104D-02 0.209D-02 0.423D-02 0.480D-02-0.846D-02-0.627D-01
 Coeff-Com: -0.275D-01 0.311D+00 0.777D+00
 Coeff:     -0.104D-02 0.209D-02 0.423D-02 0.480D-02-0.846D-02-0.627D-01
 Coeff:     -0.275D-01 0.311D+00 0.777D+00
 Gap=     0.261 Goal=   None    Shift=    0.000
 RMSDP=2.00D-06 MaxDP=6.28D-05 DE=-7.37D-07 OVMax= 1.89D-04

 Cycle  10  Pass 1  IDiag  1:
 RMSU=  9.96D-07    CP:  9.87D-01  1.36D+00  9.32D-01  8.53D-01  1.25D+00
                    CP:  1.48D+00  1.32D+00  1.26D+00  1.06D+00
 E= -1028.31469860561     Delta-E=       -0.000000127331 Rises=F Damp=F
 DIIS: error= 6.98D-06 at cycle  10 NSaved=  10.
 NSaved=10 IEnMin=10 EnMin= -1028.31469860561     IErMin=10 ErrMin= 6.98D-06
 ErrMax= 6.98D-06  0.00D+00 EMaxC= 1.00D-01 BMatC= 7.87D-09 BMatP= 5.05D-08
 IDIUse=1 WtCom= 1.00D+00 WtEn= 0.00D+00
 Coeff-Com: -0.319D-03 0.599D-03 0.148D-02 0.284D-02 0.295D-02-0.200D-01
 Coeff-Com: -0.484D-01-0.172D-01 0.263D+00 0.815D+00
 Coeff:     -0.319D-03 0.599D-03 0.148D-02 0.284D-02 0.295D-02-0.200D-01
 Coeff:     -0.484D-01-0.172D-01 0.263D+00 0.815D+00
 Gap=     0.261 Goal=   None    Shift=    0.000
 RMSDP=9.02D-07 MaxDP=2.74D-05 DE=-1.27D-07 OVMax= 1.25D-04

 Cycle  11  Pass 1  IDiag  1:
 RMSU=  4.31D-07    CP:  9.87D-01  1.36D+00  9.32D-01  8.53D-01  1.25D+00
                    CP:  1.49D+00  1.34D+00  1.31D+00  1.25D+00  1.13D+00
 E= -1028.31469863186     Delta-E=       -0.000000026249 Rises=F Damp=F
 DIIS: error= 2.79D-06 at cycle  11 NSaved=  11.
 NSaved=11 IEnMin=11 EnMin= -1028.31469863186     IErMin=11 ErrMin= 2.79D-06
 ErrMax= 2.79D-06  0.00D+00 EMaxC= 1.00D-01 BMatC= 1.51D-09 BMatP= 7.87D-09
 IDIUse=1 WtCom= 1.00D+00 WtEn= 0.00D+00
 Coeff-Com:  0.111D-03-0.234D-03-0.382D-03 0.558D-05 0.227D-02 0.424D-02
 Coeff-Com: -0.841D-02-0.486D-01-0.591D-01 0.257D+00 0.853D+00
 Coeff:      0.111D-03-0.234D-03-0.382D-03 0.558D-05 0.227D-02 0.424D-02
 Coeff:     -0.841D-02-0.486D-01-0.591D-01 0.257D+00 0.853D+00
 Gap=     0.261 Goal=   None    Shift=    0.000
 RMSDP=3.90D-07 MaxDP=9.10D-06 DE=-2.62D-08 OVMax= 5.78D-05

 Cycle  12  Pass 1  IDiag  1:
 RMSU=  1.75D-07    CP:  9.87D-01  1.36D+00  9.32D-01  8.53D-01  1.25D+00
                    CP:  1.49D+00  1.35D+00  1.33D+00  1.32D+00  1.38D+00
                    CP:  1.13D+00
 E= -1028.31469863733     Delta-E=       -0.000000005475 Rises=F Damp=F
 DIIS: error= 1.18D-06 at cycle  12 NSaved=  12.
 NSaved=12 IEnMin=12 EnMin= -1028.31469863733     IErMin=12 ErrMin= 1.18D-06
 ErrMax= 1.18D-06  0.00D+00 EMaxC= 1.00D-01 BMatC= 3.01D-10 BMatP= 1.51D-09
 IDIUse=1 WtCom= 1.00D+00 WtEn= 0.00D+00
 Coeff-Com:  0.108D-03-0.213D-03-0.463D-03-0.599D-03 0.186D-03 0.582D-02
 Coeff-Com:  0.748D-02-0.114D-01-0.881D-01-0.980D-01 0.258D+00 0.928D+00
 Coeff:      0.108D-03-0.213D-03-0.463D-03-0.599D-03 0.186D-03 0.582D-02
 Coeff:      0.748D-02-0.114D-01-0.881D-01-0.980D-01 0.258D+00 0.928D+00
 Gap=     0.261 Goal=   None    Shift=    0.000
 RMSDP=2.21D-07 MaxDP=4.74D-06 DE=-5.47D-09 OVMax= 3.39D-05

 Cycle  13  Pass 1  IDiag  1:
 RMSU=  7.41D-08    CP:  9.87D-01  1.36D+00  9.32D-01  8.53D-01  1.25D+00
                    CP:  1.49D+00  1.35D+00  1.34D+00  1.36D+00  1.48D+00
                    CP:  1.43D+00  1.22D+00
 E= -1028.31469863873     Delta-E=       -0.000000001402 Rises=F Damp=F
 DIIS: error= 5.21D-07 at cycle  13 NSaved=  13.
 NSaved=13 IEnMin=13 EnMin= -1028.31469863873     IErMin=13 ErrMin= 5.21D-07
 ErrMax= 5.21D-07  0.00D+00 EMaxC= 1.00D-01 BMatC= 4.48D-11 BMatP= 3.01D-10
 IDIUse=1 WtCom= 1.00D+00 WtEn= 0.00D+00
 Coeff-Com:  0.110D-04-0.195D-04-0.629D-04-0.154D-03-0.240D-03 0.112D-02
 Coeff-Com:  0.360D-02 0.595D-02-0.170D-01-0.698D-01-0.832D-01 0.260D+00
 Coeff-Com:  0.900D+00
 Coeff:      0.110D-04-0.195D-04-0.629D-04-0.154D-03-0.240D-03 0.112D-02
 Coeff:      0.360D-02 0.595D-02-0.170D-01-0.698D-01-0.832D-01 0.260D+00
 Coeff:      0.900D+00
 Gap=     0.261 Goal=   None    Shift=    0.000
 RMSDP=7.87D-08 MaxDP=2.03D-06 DE=-1.40D-09 OVMax= 1.06D-05

 Cycle  14  Pass 1  IDiag  1:
 RMSU=  2.85D-08    CP:  9.87D-01  1.36D+00  9.32D-01  8.53D-01  1.25D+00
                    CP:  1.49D+00  1.35D+00  1.34D+00  1.36D+00  1.52D+00
                    CP:  1.51D+00  1.45D+00  1.19D+00
 E= -1028.31469863889     Delta-E=       -0.000000000162 Rises=F Damp=F
 DIIS: error= 1.42D-07 at cycle  14 NSaved=  14.
 NSaved=14 IEnMin=14 EnMin= -1028.31469863889     IErMin=14 ErrMin= 1.42D-07
 ErrMax= 1.42D-07  0.00D+00 EMaxC= 1.00D-01 BMatC= 7.66D-12 BMatP= 4.48D-11
 IDIUse=1 WtCom= 1.00D+00 WtEn= 0.00D+00
 Coeff-Com: -0.106D-04 0.217D-04 0.392D-04 0.245D-04-0.110D-03-0.381D-03
 Coeff-Com:  0.170D-03 0.376D-02 0.566D-02-0.918D-02-0.659D-01-0.278D-01
 Coeff-Com:  0.360D+00 0.733D+00
 Coeff:     -0.106D-04 0.217D-04 0.392D-04 0.245D-04-0.110D-03-0.381D-03
 Coeff:      0.170D-03 0.376D-02 0.566D-02-0.918D-02-0.659D-01-0.278D-01
 Coeff:      0.360D+00 0.733D+00
 Gap=     0.261 Goal=   None    Shift=    0.000
 RMSDP=1.89D-08 MaxDP=4.69D-07 DE=-1.62D-10 OVMax= 2.57D-06

 Cycle  15  Pass 1  IDiag  1:
 RMSU=  9.87D-09    CP:  9.87D-01  1.36D+00  9.32D-01  8.53D-01  1.25D+00
                    CP:  1.49D+00  1.35D+00  1.34D+00  1.37D+00  1.53D+00
                    CP:  1.52D+00  1.50D+00  1.34D+00  1.05D+00
 E= -1028.31469863891     Delta-E=       -0.000000000014 Rises=F Damp=F
 DIIS: error= 5.29D-08 at cycle  15 NSaved=  15.
 NSaved=15 IEnMin=15 EnMin= -1028.31469863891     IErMin=15 ErrMin= 5.29D-08
 ErrMax= 5.29D-08  0.00D+00 EMaxC= 1.00D-01 BMatC= 4.86D-13 BMatP= 7.66D-12
 IDIUse=1 WtCom= 1.00D+00 WtEn= 0.00D+00
 Coeff-Com: -0.311D-05 0.593D-05 0.151D-04 0.263D-04 0.777D-05-0.234D-03
 Coeff-Com: -0.473D-03-0.133D-03 0.299D-02 0.834D-02-0.115D-02-0.421D-01
 Coeff-Com: -0.563D-01 0.749D-01 0.101D+01
 Coeff:     -0.311D-05 0.593D-05 0.151D-04 0.263D-04 0.777D-05-0.234D-03
 Coeff:     -0.473D-03-0.133D-03 0.299D-02 0.834D-02-0.115D-02-0.421D-01
 Coeff:     -0.563D-01 0.749D-01 0.101D+01
 Gap=     0.261 Goal=   None    Shift=    0.000
 RMSDP=8.77D-09 MaxDP=2.13D-07 DE=-1.36D-11 OVMax= 9.35D-07

 Error on total polarization charges =  0.00801
 SCF Done:  E(RwB97XD) =  -1028.31469864     A.U. after   15 cycles
            NFock= 15  Conv=0.88D-08     -V/T= 2.0029
 KE= 1.025368878176D+03 PE=-4.607386758559D+03 EE= 1.456154672551D+03
 Leave Link  502 at Tue Oct 27 21:15:11 2020, MaxMem=  7784628224 cpu:             824.1 elap:              83.1
 (Enter /gpfs/loomis/apps/avx/software/Gaussian/16-C.01_AVX/g16/l601.exe)
 Copying SCF densities to generalized density rwf, IOpCl= 0 IROHF=0.

 **********************************************************************

            Population analysis using the SCF Density.

 **********************************************************************

 Alpha  occ. eigenvalues --  -89.08790 -19.27028 -14.45581 -10.39201 -10.38894
 Alpha  occ. eigenvalues --  -10.34467 -10.34211 -10.33536 -10.32642 -10.32378
 Alpha  occ. eigenvalues --  -10.32005 -10.31310 -10.31166 -10.31089 -10.31077
 Alpha  occ. eigenvalues --  -10.31068  -8.10672  -6.05522  -6.05185  -6.04741
 Alpha  occ. eigenvalues --   -1.30475  -1.08045  -0.97548  -0.95524  -0.91289
 Alpha  occ. eigenvalues --   -0.88865  -0.87914  -0.84155  -0.82914  -0.77943
 Alpha  occ. eigenvalues --   -0.73743  -0.70274  -0.69536  -0.68583  -0.64942
 Alpha  occ. eigenvalues --   -0.60197  -0.59545  -0.58295  -0.56327  -0.54849
 Alpha  occ. eigenvalues --   -0.53912  -0.53612  -0.52543  -0.51172  -0.51080
 Alpha  occ. eigenvalues --   -0.49434  -0.48474  -0.46188  -0.45625  -0.45098
 Alpha  occ. eigenvalues --   -0.43582  -0.43319  -0.42111  -0.39559  -0.36831
 Alpha  occ. eigenvalues --   -0.36498  -0.32484  -0.31671  -0.28101
 Alpha virt. eigenvalues --   -0.01995   0.05460   0.06457   0.07126   0.07808
 Alpha virt. eigenvalues --    0.11579   0.13283   0.15180   0.15967   0.18102
 Alpha virt. eigenvalues --    0.18556   0.21282   0.21779   0.22277   0.22965
 Alpha virt. eigenvalues --    0.23280   0.23690   0.25248   0.27927   0.30778
 Alpha virt. eigenvalues --    0.31973   0.33585   0.35007   0.36168   0.36824
 Alpha virt. eigenvalues --    0.37971   0.38452   0.40723   0.43986   0.46413
 Alpha virt. eigenvalues --    0.46643   0.48684   0.50886   0.51247   0.51835
 Alpha virt. eigenvalues --    0.52350   0.53625   0.54685   0.54736   0.55808
 Alpha virt. eigenvalues --    0.55983   0.56322   0.57223   0.58144   0.58149
 Alpha virt. eigenvalues --    0.58752   0.59034   0.59628   0.59807   0.59922
 Alpha virt. eigenvalues --    0.60724   0.60983   0.62089   0.62595   0.64142
 Alpha virt. eigenvalues --    0.65308   0.66056   0.66487   0.68811   0.69009
 Alpha virt. eigenvalues --    0.70310   0.72037   0.72460   0.72948   0.73241
 Alpha virt. eigenvalues --    0.73982   0.75598   0.76158   0.77376   0.78818
 Alpha virt. eigenvalues --    0.79412   0.79617   0.81623   0.82577   0.82744
 Alpha virt. eigenvalues --    0.85460   0.88643   0.91649   0.93519   0.93857
 Alpha virt. eigenvalues --    0.94819   0.95043   0.96251   0.96748   0.98171
 Alpha virt. eigenvalues --    0.98730   0.99122   1.00542   1.00951   1.02372
 Alpha virt. eigenvalues --    1.03517   1.04778   1.05951   1.06314   1.07538
 Alpha virt. eigenvalues --    1.07991   1.09085   1.09774   1.10525   1.10662
 Alpha virt. eigenvalues --    1.11797   1.13255   1.13534   1.15665   1.16500
 Alpha virt. eigenvalues --    1.17148   1.18563   1.20495   1.22005   1.23979
 Alpha virt. eigenvalues --    1.25465   1.28777   1.33444   1.34437   1.35049
 Alpha virt. eigenvalues --    1.35418   1.36621   1.38564   1.42769   1.44197
 Alpha virt. eigenvalues --    1.47984   1.48755   1.52289   1.54662   1.54824
 Alpha virt. eigenvalues --    1.55370   1.56222   1.57301   1.57757   1.58145
 Alpha virt. eigenvalues --    1.59787   1.62999   1.65035   1.66317   1.66396
 Alpha virt. eigenvalues --    1.67828   1.68223   1.70243   1.70732   1.71672
 Alpha virt. eigenvalues --    1.71888   1.72649   1.72951   1.74944   1.75331
 Alpha virt. eigenvalues --    1.77055   1.77726   1.79990   1.81333   1.82482
 Alpha virt. eigenvalues --    1.83469   1.83694   1.84748   1.86072   1.86720
 Alpha virt. eigenvalues --    1.86950   1.88233   1.89665   1.90994   1.92193
 Alpha virt. eigenvalues --    1.93008   1.93045   1.93996   1.94280   1.94982
 Alpha virt. eigenvalues --    2.00636   2.00768   2.02264   2.03706   2.04414
 Alpha virt. eigenvalues --    2.07739   2.08529   2.09999   2.10962   2.12158
 Alpha virt. eigenvalues --    2.17914   2.17944   2.20754   2.24953   2.26312
 Alpha virt. eigenvalues --    2.27727   2.29583   2.36489   2.38688   2.42017
 Alpha virt. eigenvalues --    2.42102   2.45852   2.47362   2.47691   2.49140
 Alpha virt. eigenvalues --    2.50274   2.51072   2.54839   2.61658   2.62635
 Alpha virt. eigenvalues --    2.67459   2.72569   2.74797   2.79002   2.81506
 Alpha virt. eigenvalues --    2.82693   2.84355   2.89765   2.91678   2.97918
 Alpha virt. eigenvalues --    3.05873   3.11793   3.29177   3.47168   3.48277
 Alpha virt. eigenvalues --    3.56891   3.61732   3.78086   5.62814
          Condensed to atoms (all electrons):
               1          2          3          4          5          6
     1  C    4.767697   0.432244   0.014903  -0.054353  -0.012407   0.525802
     2  C    0.432244   5.350381   0.336865  -0.035242  -0.063710  -0.006390
     3  C    0.014903   0.336865   4.737040   0.486104  -0.006277  -0.065258
     4  C   -0.054353  -0.035242   0.486104   4.784265   0.526412  -0.014052
     5  C   -0.012407  -0.063710  -0.006277   0.526412   4.735828   0.484667
     6  C    0.525802  -0.006390  -0.065258  -0.014052   0.484667   4.753051
     7  H    0.401032  -0.039040   0.007919  -0.000432   0.007995  -0.038510
     8  H   -0.001206   0.012485  -0.030453   0.391083  -0.045261   0.008128
     9  H    0.008846  -0.000829   0.008783  -0.039878   0.405143  -0.045564
    10  H   -0.041931   0.009850  -0.000697   0.008788  -0.044109   0.405270
    11  N    0.009636  -0.067341   0.533617  -0.043468   0.003185  -0.000095
    12  S   -0.063648   0.348491  -0.097397   0.007326   0.000172   0.003403
    13  C   -0.000144   0.004409   0.006838  -0.000841   0.000009   0.000001
    14  C   -0.000006  -0.000045   0.000362   0.000007  -0.000000  -0.000000
    15  C    0.000006   0.000003  -0.001328   0.000006   0.000000  -0.000000
    16  C    0.000000  -0.000001   0.000004  -0.000000   0.000000   0.000000
    17  H   -0.000001   0.000038  -0.000012  -0.000001   0.000000  -0.000000
    18  C    0.000000   0.000006  -0.000035   0.000000  -0.000000   0.000000
    19  C   -0.000000   0.000000   0.000003  -0.000000   0.000000   0.000000
    20  H   -0.000000  -0.000000  -0.000000   0.000000   0.000000  -0.000000
    21  H    0.000000  -0.000000   0.000000   0.000000  -0.000000  -0.000000
    22  H   -0.000000  -0.000000   0.000000  -0.000000   0.000000   0.000000
    23  C    0.005152  -0.059652  -0.136046   0.000504   0.000258  -0.000194
    24  O    0.000000  -0.000069  -0.000292   0.000032  -0.000000  -0.000000
    25  H   -0.000048   0.001247  -0.001612  -0.000706   0.000011   0.000007
               7          8          9         10         11         12
     1  C    0.401032  -0.001206   0.008846  -0.041931   0.009636  -0.063648
     2  C   -0.039040   0.012485  -0.000829   0.009850  -0.067341   0.348491
     3  C    0.007919  -0.030453   0.008783  -0.000697   0.533617  -0.097397
     4  C   -0.000432   0.391083  -0.039878   0.008788  -0.043468   0.007326
     5  C    0.007995  -0.045261   0.405143  -0.044109   0.003185   0.000172
     6  C   -0.038510   0.008128  -0.045564   0.405270  -0.000095   0.003403
     7  H    0.661875   0.000036  -0.000145  -0.012175  -0.000127  -0.006269
     8  H    0.000036   0.662508  -0.012446  -0.000126  -0.000349  -0.000078
     9  H   -0.000145  -0.012446   0.670758  -0.012268  -0.000111   0.000020
    10  H   -0.012175  -0.000126  -0.012268   0.667293  -0.000003  -0.000138
    11  N   -0.000127  -0.000349  -0.000111  -0.000003   6.396442  -0.083397
    12  S   -0.006269  -0.000078   0.000020  -0.000138  -0.083397  15.499646
    13  C    0.000006   0.000049  -0.000000  -0.000000  -0.021198  -0.061463
    14  C    0.000000   0.000001   0.000000  -0.000000   0.003452  -0.004688
    15  C   -0.000000  -0.000072   0.000000   0.000000  -0.023657   0.004752
    16  C   -0.000000  -0.000000  -0.000000   0.000000  -0.000095  -0.000115
    17  H    0.000001   0.000000  -0.000000  -0.000000   0.000172   0.005805
    18  C   -0.000000   0.000001  -0.000000  -0.000000   0.000017  -0.000058
    19  C    0.000000   0.000000  -0.000000  -0.000000   0.000053   0.000012
    20  H   -0.000000  -0.000000   0.000000   0.000000   0.000001  -0.000002
    21  H   -0.000000  -0.000000   0.000000   0.000000  -0.000018   0.000002
    22  H    0.000000   0.000000  -0.000000  -0.000000   0.000000  -0.000000
    23  C    0.000022  -0.001083   0.000009   0.000002   0.560890   0.302169
    24  O   -0.000000  -0.000125   0.000000  -0.000000  -0.017487  -0.000068
    25  H    0.000000   0.001132  -0.000003   0.000000   0.049977   0.002037
              13         14         15         16         17         18
     1  C   -0.000144  -0.000006   0.000006   0.000000  -0.000001   0.000000
     2  C    0.004409  -0.000045   0.000003  -0.000001   0.000038   0.000006
     3  C    0.006838   0.000362  -0.001328   0.000004  -0.000012  -0.000035
     4  C   -0.000841   0.000007   0.000006  -0.000000  -0.000001   0.000000
     5  C    0.000009  -0.000000   0.000000   0.000000   0.000000  -0.000000
     6  C    0.000001  -0.000000  -0.000000   0.000000  -0.000000   0.000000
     7  H    0.000006   0.000000  -0.000000  -0.000000   0.000001  -0.000000
     8  H    0.000049   0.000001  -0.000072  -0.000000   0.000000   0.000001
     9  H   -0.000000   0.000000   0.000000  -0.000000  -0.000000  -0.000000
    10  H   -0.000000  -0.000000   0.000000   0.000000  -0.000000  -0.000000
    11  N   -0.021198   0.003452  -0.023657  -0.000095   0.000172   0.000017
    12  S   -0.061463  -0.004688   0.004752  -0.000115   0.005805  -0.000058
    13  C    5.357707   0.505961   0.254611  -0.011981  -0.037537  -0.096522
    14  C    0.505961   4.786569  -0.026242   0.528742   0.403855  -0.053221
    15  C    0.254611  -0.026242   4.954020  -0.066524   0.008697   0.478787
    16  C   -0.011981   0.528742  -0.066524   4.747915  -0.038004  -0.012386
    17  H   -0.037537   0.403855   0.008697  -0.038004   0.670029  -0.000824
    18  C   -0.096522  -0.053221   0.478787  -0.012386  -0.000824   4.859058
    19  C   -0.040417  -0.016162  -0.003799   0.483872   0.008468   0.487366
    20  H    0.008633  -0.035288  -0.000393   0.402285  -0.013088   0.008543
    21  H    0.010396  -0.000357  -0.024621   0.007069   0.000036   0.385929
    22  H   -0.000730   0.008628   0.009098  -0.042572  -0.000139  -0.041750
    23  C    0.287609  -0.088007  -0.064949   0.007927  -0.020383   0.007523
    24  O   -0.043952   0.003554   0.459075   0.000020  -0.000053  -0.066247
    25  H   -0.067441  -0.001555   0.021982  -0.000038   0.000050   0.016716
              19         20         21         22         23         24
     1  C   -0.000000  -0.000000   0.000000  -0.000000   0.005152   0.000000
     2  C    0.000000  -0.000000  -0.000000  -0.000000  -0.059652  -0.000069
     3  C    0.000003  -0.000000   0.000000   0.000000  -0.136046  -0.000292
     4  C   -0.000000   0.000000   0.000000  -0.000000   0.000504   0.000032
     5  C    0.000000   0.000000  -0.000000   0.000000   0.000258  -0.000000
     6  C    0.000000  -0.000000  -0.000000   0.000000  -0.000194  -0.000000
     7  H    0.000000  -0.000000  -0.000000   0.000000   0.000022  -0.000000
     8  H    0.000000  -0.000000  -0.000000   0.000000  -0.001083  -0.000125
     9  H   -0.000000   0.000000   0.000000  -0.000000   0.000009   0.000000
    10  H   -0.000000   0.000000   0.000000  -0.000000   0.000002  -0.000000
    11  N    0.000053   0.000001  -0.000018   0.000000   0.560890  -0.017487
    12  S    0.000012  -0.000002   0.000002  -0.000000   0.302169  -0.000068
    13  C   -0.040417   0.008633   0.010396  -0.000730   0.287609  -0.043952
    14  C   -0.016162  -0.035288  -0.000357   0.008628  -0.088007   0.003554
    15  C   -0.003799  -0.000393  -0.024621   0.009098  -0.064949   0.459075
    16  C    0.483872   0.402285   0.007069  -0.042572   0.007927   0.000020
    17  H    0.008468  -0.013088   0.000036  -0.000139  -0.020383  -0.000053
    18  C    0.487366   0.008543   0.385929  -0.041750   0.007523  -0.066247
    19  C    4.746345  -0.047050  -0.042954   0.407568   0.000292   0.002989
    20  H   -0.047050   0.671555  -0.000153  -0.011538  -0.000305   0.000003
    21  H   -0.042954  -0.000153   0.648865  -0.011559  -0.000386   0.000947
    22  H    0.407568  -0.011538  -0.011559   0.656557   0.000003  -0.000053
    23  C    0.000292  -0.000305  -0.000386   0.000003   5.140567  -0.006258
    24  O    0.002989   0.000003   0.000947  -0.000053  -0.006258   7.032634
    25  H   -0.000176  -0.000000   0.000403   0.000001   0.006579   0.394925
              25
     1  C   -0.000048
     2  C    0.001247
     3  C   -0.001612
     4  C   -0.000706
     5  C    0.000011
     6  C    0.000007
     7  H    0.000000
     8  H    0.001132
     9  H   -0.000003
    10  H    0.000000
    11  N    0.049977
    12  S    0.002037
    13  C   -0.067441
    14  C   -0.001555
    15  C    0.021982
    16  C   -0.000038
    17  H    0.000050
    18  C    0.016716
    19  C   -0.000176
    20  H   -0.000000
    21  H    0.000403
    22  H    0.000001
    23  C    0.006579
    24  O    0.394925
    25  H    0.831701
 Mulliken charges:
               1
     1  C    0.008428
     2  C   -0.223702
     3  C    0.206971
     4  C   -0.015554
     5  C    0.008083
     6  C   -0.010266
     7  H    0.017812
     8  H    0.015777
     9  H    0.017683
    10  H    0.020246
    11  N   -0.300095
    12  S    0.143486
    13  C   -0.054003
    14  C   -0.015561
    15  C    0.020550
    16  C   -0.006118
    17  H    0.012891
    18  C    0.027099
    19  C    0.013591
    20  H    0.016798
    21  H    0.026401
    22  H    0.026487
    23  C    0.057759
    24  O    0.240426
    25  H   -0.255190
 Sum of Mulliken charges =  -0.00000
 Mulliken charges with hydrogens summed into heavy atoms:
               1
     1  C    0.026240
     2  C   -0.223702
     3  C    0.206971
     4  C    0.000223
     5  C    0.025766
     6  C    0.009980
    11  N   -0.300095
    12  S    0.143486
    13  C   -0.054003
    14  C   -0.002670
    15  C    0.020550
    16  C    0.010680
    18  C    0.053501
    19  C    0.040077
    23  C    0.057759
    24  O   -0.014764
 Electronic spatial extent (au):  <R**2>=           4361.5938
 Charge=             -0.0000 electrons
 Dipole moment (field-independent basis, Debye):
    X=             -1.0726    Y=             -0.9944    Z=              0.0000  Tot=              1.4626
 Quadrupole moment (field-independent basis, Debye-Ang):
   XX=            -82.5164   YY=            -86.2898   ZZ=           -104.0449
   XY=             -7.9490   XZ=             -0.0001   YZ=              0.0003
 Traceless Quadrupole moment (field-independent basis, Debye-Ang):
   XX=              8.4339   YY=              4.6606   ZZ=            -13.0945
   XY=             -7.9490   XZ=             -0.0001   YZ=              0.0003
 Octapole moment (field-independent basis, Debye-Ang**2):
  XXX=              2.4217  YYY=              0.3099  ZZZ=              0.0000  XYY=             -9.6874
  XXY=              7.2969  XXZ=              0.0001  XZZ=              0.7226  YZZ=              3.9177
  YYZ=              0.0010  XYZ=             -0.0007
 Hexadecapole moment (field-independent basis, Debye-Ang**3):
 XXXX=          -2594.1073 YYYY=          -2581.2773 ZZZZ=           -113.3958 XXXY=            797.8924
 XXXZ=              0.0096 YYYX=            755.8484 YYYZ=             -0.0103 ZZZX=              0.0130
 ZZZY=             -0.0185 XXYY=           -843.9724 XXZZ=           -571.3230 YYZZ=           -551.6965
 XXYZ=             -0.0027 YYXZ=             -0.0002 ZZXY=            355.9867
 N-N= 1.097548509194D+03 E-N=-4.607386761073D+03  KE= 1.025368878176D+03
 No NMR shielding tensors so no spin-rotation constants.
 Leave Link  601 at Tue Oct 27 21:15:11 2020, MaxMem=  7784628224 cpu:               1.2 elap:               0.2
 (Enter /gpfs/loomis/apps/avx/software/Gaussian/16-C.01_AVX/g16/l701.exe)
 ... and contract with generalized density number  0.
 Compute integral first derivatives.
 R6Disp: Adding Grimme-D2 dispersion energy 1st derivatives to the gradient.
 D1PCM: PCM CHGder 1st derivatives, ID1Alg=3 FixD1E=F DoIter=F DoCFld=F I1PDM=0.
 GePol: Maximum number of non-zero 1st derivatives   =     271
 Leave Link  701 at Tue Oct 27 21:15:13 2020, MaxMem=  7784628224 cpu:              15.7 elap:               1.9
 (Enter /gpfs/loomis/apps/avx/software/Gaussian/16-C.01_AVX/g16/l702.exe)
 L702 exits ... SP integral derivatives will be done elsewhere.
 Leave Link  702 at Tue Oct 27 21:15:13 2020, MaxMem=  7784628224 cpu:               0.2 elap:               0.0
 (Enter /gpfs/loomis/apps/avx/software/Gaussian/16-C.01_AVX/g16/l703.exe)
 Integral derivatives from FoFJK, PRISM(SPDF).
 Compute integral first derivatives, UseDBF=F ICtDFT=           0.
 Calling FoFJK, ICntrl=      2127 FMM=F ISym2X=0 I1Cent= 0 IOpClX= 0 NMat=1 NMatS=1 NMatT=0.
 FoFJK:  IHMeth= 1 ICntrl=    2127 DoSepK=T KAlg= 0 I1Cent=           0 FoldK=F
 IRaf=         1 NMat=       1 IRICut=       1 DoRegI=T DoRafI=F ISym2E= 0 IDoP0=0 IntGTp=1.
 FoFCou: FMM=F IPFlag=           0 FMFlag=      100000 FMFlg1=         800
         NFxFlg=           0 DoJE=F BraDBF=F KetDBF=F FulRan=T
         wScrn=  0.000000 ICntrl=      2527 IOpCl=  0 I1Cent=           0 NGrid=           0
         NMat0=    1 NMatS0=      1 NMatT0=    0 NMatD0=    1 NMtDS0=    0 NMtDT0=    0
 Symmetry not used in FoFCou.
 Leave Link  703 at Tue Oct 27 21:15:27 2020, MaxMem=  7784628224 cpu:             136.6 elap:              13.7
 (Enter /gpfs/loomis/apps/avx/software/Gaussian/16-C.01_AVX/g16/l716.exe)
 Dipole        =-4.21985030D-01-3.91223167D-01 8.35214299D-06
 -------------------------------------------------------------------
 Center     Atomic                   Forces (Hartrees/Bohr)
 Number     Number              X              Y              Z
 -------------------------------------------------------------------
      1        6           0.006948189   -0.006825076    0.000000025
      2        6           0.004314488    0.016019411   -0.000000094
      3        6           0.035305410   -0.054060567   -0.000000208
      4        6          -0.019738009    0.002301419   -0.000000093
      5        6          -0.000206200   -0.010346814   -0.000000011
      6        6          -0.005360306    0.004707010    0.000000006
      7        1           0.000654180    0.000673304   -0.000000032
      8        1          -0.000726691   -0.001209745   -0.000000010
      9        1          -0.000799814   -0.000010762    0.000000001
     10        1          -0.000730188    0.000590182    0.000000013
     11        7          -0.074094666    0.035048430    0.000000608
     12       16           0.005877219    0.015262199    0.000000139
     13        6          -0.034974905    0.067452455    0.000001085
     14        6           0.029202921   -0.003598294    0.000000412
     15        6          -0.002506682   -0.034965538   -0.000000706
     16        6          -0.005617189    0.019673325    0.000000538
     17        1          -0.001587661   -0.000618223    0.000000042
     18        6          -0.004170116   -0.004231368   -0.000000291
     19        6          -0.000744180   -0.023533330   -0.000000799
     20        1           0.001114456   -0.000208660   -0.000000005
     21        1          -0.000008879   -0.000942033    0.000000038
     22        1          -0.000131782   -0.000622461   -0.000000087
     23        6           0.069210941   -0.028972320   -0.000000844
     24        8          -1.177957650    1.831601463    0.000026884
     25        1           1.176727111   -1.823184006   -0.000026613
 -------------------------------------------------------------------
 Cartesian Forces:  Max     1.831601463 RMS     0.355483296
 Leave Link  716 at Tue Oct 27 21:15:27 2020, MaxMem=  7784628224 cpu:               0.3 elap:               0.0
 (Enter /gpfs/loomis/apps/avx/software/Gaussian/16-C.01_AVX/g16/l103.exe)

 GradGradGradGradGradGradGradGradGradGradGradGradGradGradGradGradGradGrad
 Berny optimization.
 FormGI is forming the generalized inverse of G from B-inverse, IUseBI=4.
 Internal  Forces:  Max     2.034456354 RMS     0.182424625
 Search for a local minimum.
 Step number   1 out of a maximum of  143
 All quantities printed in internal units (Hartrees-Bohrs-Radians)
 RMS Force = .18381D+00 SwitMx=.10000D-02 MixMth= 1
 Mixed Optimization -- RFO/linear search
 Second derivative matrix not updated -- first step.
 ITU=  0
     Eigenvalues ---    0.01246   0.01373   0.01577   0.01637   0.01721
     Eigenvalues ---    0.01758   0.01908   0.01932   0.01965   0.01967
     Eigenvalues ---    0.01974   0.01987   0.02026   0.02075   0.02092
     Eigenvalues ---    0.02103   0.02150   0.02179   0.02202   0.02205
     Eigenvalues ---    0.02273   0.02588   0.16000   0.16000   0.16000
     Eigenvalues ---    0.16000   0.16000   0.16000   0.16000   0.16003
     Eigenvalues ---    0.16074   0.22000   0.22029   0.22518   0.22579
     Eigenvalues ---    0.24472   0.24554   0.25000   0.25000   0.25000
     Eigenvalues ---    0.25829   0.29061   0.32496   0.34504   0.34526
     Eigenvalues ---    0.34528   0.34549   0.34575   0.34680   0.34715
     Eigenvalues ---    0.34725   0.36734   0.38429   0.39231   0.40380
     Eigenvalues ---    0.42162   0.42941   0.44108   0.44295   0.45901
     Eigenvalues ---    0.46781   0.48327   0.48828   0.50719   0.58832
     Eigenvalues ---    0.60860   4.668711000.000001000.000001000.00000
     Eigenvalues --- 1000.000001000.000001000.000001000.000001000.00000
     Eigenvalues --- 1000.000001000.000001000.000001000.000001000.00000
     Eigenvalues --- 1000.000001000.000001000.000001000.000001000.00000
     Eigenvalues --- 1000.000001000.000001000.000001000.000001000.00000
     Eigenvalues --- 1000.000001000.000001000.000001000.000001000.00000
     Eigenvalues --- 1000.000001000.000001000.000001000.000001000.00000
     Eigenvalues --- 1000.000001000.000001000.000001000.000001000.00000
     Eigenvalues --- 1000.000001000.000001000.000001000.000001000.00000
     Eigenvalues --- 1000.000001000.000001000.000001000.000001000.00000
     Eigenvalues --- 1000.000001000.000001000.000001000.000001000.00000
     Eigenvalues --- 1000.000001000.000001000.000001000.000001000.00000
     Eigenvalues --- 1000.000001000.000001000.000001000.000001000.00000
     Eigenvalues --- 1000.000001000.000001000.00000
 RFO step:  Lambda=-8.13279282D-01 EMin= 1.24615830D-02
 Linear search not attempted -- first point.
 Maximum step size (   0.300) exceeded in Quadratic search.
    -- Step size scaled by   0.767
 Iteration  1 RMS(Cart)=  0.02034686 RMS(Int)=  0.00714557
 Iteration  2 RMS(Cart)=  0.00717700 RMS(Int)=  0.00018132
 Iteration  3 RMS(Cart)=  0.00011067 RMS(Int)=  0.00014610
 Iteration  4 RMS(Cart)=  0.00000013 RMS(Int)=  0.00014613
 Iteration  1 RMS(Cart)=  0.00000037 RMS(Int)=  0.00000008
 ITry= 1 IFail=0 DXMaxC= 1.83D-01 DCOld= 1.00D+10 DXMaxT= 3.00D-01 DXLimC= 3.00D+00 Rises=F
 Variable       Old X    -DE/DX   Delta X   Delta X   Delta X     New X
                                 (Linear)    (Quad)   (Total)
    R1        2.63166   0.04012   0.00000   0.00773   0.00763   2.63929
    R2        2.64224   0.03025   0.00000   0.00049   0.00037   2.64261
    R3        2.06413   0.00025   0.00000  -0.00047  -0.00048   2.06365
    R4        2.70762  -0.00394   0.00000  -0.00942  -0.00945   2.69817
    R5        3.32419   0.03114   0.00000   0.00325   0.00315   3.32733
    R6        2.70433  -0.04235   0.00000  -0.01521  -0.01514   2.68919
    R7        2.47521  -0.02735   0.00000   0.01647   0.01670   2.49190
    R8        2.60111  -0.03786   0.00000  -0.00332  -0.00320   2.59791
    R9        2.06451  -0.00076   0.00000  -0.00080  -0.00081   2.06370
   R10        2.67525   0.00681   0.00000  -0.00246  -0.00251   2.67274
   R11        2.06448  -0.00008   0.00000  -0.00041  -0.00041   2.06407
   R12        2.06370  -0.00097   0.00000  -0.00062  -0.00062   2.06309
   R13        2.56719  -0.09245   0.00000  -0.03388  -0.03376   2.53343
   R14        3.40253   0.13285   0.00000   0.01551   0.01508   3.41761
   R15        2.71247   0.03552   0.00000  -0.00483  -0.00500   2.70748
   R16        2.79334   0.14249   0.00000   0.00153   0.00100   2.79434
   R17        2.66305   0.14395   0.00000   0.03421   0.03387   2.69692
   R18        2.60655   0.00186   0.00000   0.00215   0.00215   2.60870
   R19        2.06141   0.00115   0.00000   0.00075   0.00075   2.06216
   R20        2.63965  -0.04669   0.00000  -0.00750  -0.00737   2.63228
   R21        2.51753   0.03418   0.00000   0.00386   0.00374   2.52126
   R22        2.69426  -0.02255   0.00000  -0.01411  -0.01411   2.68016
   R23        2.06487  -0.00197   0.00000  -0.00084  -0.00084   2.06403
   R24        2.62118  -0.06705   0.00000  -0.00975  -0.00956   2.61163
   R25        2.06197   0.00035   0.00000  -0.00037  -0.00037   2.06160
   R26        2.06123  -0.00080   0.00000  -0.00029  -0.00029   2.06095
   R27        1.05635   2.03446   0.00000   0.28468   0.28509   1.34144
    A1        2.07241  -0.01463   0.00000  -0.00368  -0.00365   2.06876
    A2        2.11130   0.01265   0.00000   0.00301   0.00298   2.11428
    A3        2.09948   0.00198   0.00000   0.00067   0.00067   2.10015
    A4        2.10690  -0.03943   0.00000  -0.00477  -0.00464   2.10226
    A5        2.27425   0.08943   0.00000   0.01579   0.01553   2.28977
    A6        1.90204  -0.05000   0.00000  -0.01102  -0.01089   1.89115
    A7        2.08507   0.04568   0.00000   0.00813   0.00800   2.09307
    A8        2.02495   0.05523   0.00000   0.00802   0.00787   2.03282
    A9        2.17316  -0.10092   0.00000  -0.01615  -0.01587   2.15729
   A10        2.07520   0.00508   0.00000   0.00093   0.00093   2.07612
   A11        2.07329  -0.00712   0.00000  -0.00141  -0.00139   2.07189
   A12        2.13470   0.00204   0.00000   0.00048   0.00047   2.13517
   A13        2.11131  -0.01276   0.00000  -0.00284  -0.00281   2.10850
   A14        2.09273   0.00277   0.00000   0.00067   0.00066   2.09339
   A15        2.07915   0.00999   0.00000   0.00218   0.00215   2.08130
   A16        2.11549   0.01606   0.00000   0.00223   0.00217   2.11766
   A17        2.08175  -0.00494   0.00000  -0.00064  -0.00062   2.08113
   A18        2.08595  -0.01112   0.00000  -0.00159  -0.00155   2.08439
   A19        1.99444   0.02400   0.00000   0.00154   0.00148   1.99592
   A20        1.55508   0.00348   0.00000   0.00357   0.00356   1.55863
   A21        2.00121  -0.08698   0.00000  -0.00730  -0.00701   1.99419
   A22        2.22121  -0.08402   0.00000  -0.01611  -0.01587   2.20534
   A23        2.06076   0.17100   0.00000   0.02341   0.02289   2.08365
   A24        2.11812   0.02759   0.00000   0.00546   0.00538   2.12350
   A25        2.06604  -0.00891   0.00000  -0.00102  -0.00099   2.06505
   A26        2.09902  -0.01868   0.00000  -0.00444  -0.00439   2.09464
   A27        2.14393   0.02094   0.00000  -0.00060  -0.00068   2.14325
   A28        2.09081   0.23520   0.00000   0.04079   0.04009   2.13090
   A29        2.04844  -0.25613   0.00000  -0.04019  -0.03941   2.00903
   A30        2.13350   0.01522   0.00000  -0.00272  -0.00279   2.13071
   A31        2.07815  -0.00521   0.00000   0.00170   0.00172   2.07987
   A32        2.07153  -0.01001   0.00000   0.00102   0.00107   2.07260
   A33        2.09006   0.02564   0.00000   0.00493   0.00486   2.09492
   A34        2.06098  -0.01694   0.00000  -0.00351  -0.00346   2.05752
   A35        2.13214  -0.00870   0.00000  -0.00143  -0.00140   2.13074
   A36        2.07955  -0.00240   0.00000   0.00022   0.00024   2.07979
   A37        2.09925   0.00609   0.00000   0.00051   0.00049   2.09974
   A38        2.10439  -0.00369   0.00000  -0.00074  -0.00073   2.10366
   A39        1.94826  -0.03271   0.00000  -0.00212  -0.00202   1.94625
   A40        2.10310  -0.01597   0.00000  -0.00697  -0.00694   2.09616
   A41        2.23182   0.04868   0.00000   0.00909   0.00895   2.24077
   A42        1.96355   0.04508   0.00000   0.00973   0.00954   1.97309
    D1        0.00000   0.00000   0.00000   0.00000   0.00000   0.00000
    D2       -3.14159  -0.00000   0.00000   0.00000   0.00000  -3.14159
    D3        3.14159   0.00000   0.00000   0.00000   0.00000   3.14159
    D4       -0.00000   0.00000   0.00000   0.00000   0.00000  -0.00000
    D5       -0.00000   0.00000   0.00000   0.00000   0.00000   0.00000
    D6        3.14159   0.00000   0.00000   0.00000   0.00000   3.14159
    D7       -3.14159   0.00000   0.00000   0.00000   0.00000  -3.14159
    D8        0.00000  -0.00000   0.00000  -0.00000  -0.00000   0.00000
    D9       -0.00000  -0.00000   0.00000  -0.00000  -0.00000  -0.00000
   D10        3.14159  -0.00000   0.00000  -0.00000  -0.00000   3.14159
   D11        3.14159  -0.00000   0.00000  -0.00000  -0.00000   3.14159
   D12       -0.00000  -0.00000   0.00000  -0.00000  -0.00000  -0.00000
   D13        3.14159   0.00000   0.00000   0.00000   0.00000   3.14159
   D14       -0.00000   0.00000   0.00000   0.00000   0.00000  -0.00000
   D15        0.00000   0.00000   0.00000   0.00000   0.00000   0.00000
   D16       -3.14159   0.00000   0.00000   0.00000   0.00000  -3.14159
   D17       -3.14159   0.00000   0.00000   0.00000   0.00000  -3.14159
   D18        0.00000   0.00000   0.00000   0.00000   0.00000   0.00000
   D19        0.00000  -0.00000   0.00000  -0.00000  -0.00000   0.00000
   D20       -3.14159  -0.00000   0.00000  -0.00000  -0.00000  -3.14159
   D21       -0.00000  -0.00000   0.00000  -0.00000  -0.00000  -0.00000
   D22        3.14159  -0.00000   0.00000  -0.00000  -0.00000   3.14159
   D23       -3.14159   0.00000   0.00000   0.00000   0.00000  -3.14159
   D24        0.00000   0.00000   0.00000   0.00000   0.00000   0.00000
   D25       -0.00000  -0.00000   0.00000  -0.00000  -0.00000  -0.00000
   D26        3.14159  -0.00000   0.00000  -0.00000  -0.00000   3.14159
   D27        3.14159  -0.00000   0.00000  -0.00000  -0.00000   3.14159
   D28       -0.00000   0.00000   0.00000   0.00000   0.00000  -0.00000
   D29       -0.00000   0.00000   0.00000   0.00000   0.00000  -0.00000
   D30        3.14158   0.00000   0.00000   0.00000   0.00000   3.14158
   D31        0.00000  -0.00000   0.00000  -0.00000  -0.00000   0.00000
   D32       -3.14158  -0.00000   0.00000  -0.00000  -0.00000  -3.14158
   D33       -0.00001  -0.00000   0.00000  -0.00000  -0.00000  -0.00001
   D34        3.14159  -0.00000   0.00000  -0.00000  -0.00000   3.14159
   D35        3.14158  -0.00000   0.00000  -0.00000  -0.00000   3.14158
   D36       -0.00001  -0.00000   0.00000  -0.00000  -0.00000  -0.00001
   D37        0.00001   0.00000   0.00000   0.00000   0.00000   0.00001
   D38       -3.14158   0.00000   0.00000   0.00000   0.00000  -3.14158
   D39       -3.14158   0.00000   0.00000   0.00000   0.00000  -3.14158
   D40        0.00001   0.00000   0.00000   0.00000   0.00000   0.00001
   D41        3.14158  -0.00000   0.00000  -0.00000  -0.00000   3.14158
   D42       -0.00002  -0.00000   0.00000  -0.00000  -0.00000  -0.00002
   D43       -0.00002  -0.00000   0.00000  -0.00000  -0.00000  -0.00002
   D44        3.14157  -0.00000   0.00000  -0.00000  -0.00000   3.14157
   D45        0.00000  -0.00000   0.00000  -0.00000  -0.00000   0.00000
   D46       -3.14159   0.00000   0.00000   0.00000   0.00000  -3.14159
   D47        3.14159  -0.00000   0.00000  -0.00000  -0.00000   3.14159
   D48       -0.00000  -0.00000   0.00000  -0.00000  -0.00000  -0.00000
[...]
 2828,-0.00007605,0.,0.00001143,0.00003714,0.,0.00009806,-0.00003195,0.
 ,0.00005418,-0.00002910,0.,0.00540820,0.00120663,-0.00000055,-0.001262
 79,-0.00080402,-0.00000017,0.06803282,0.03771861,0.00000123,0.08361469
 ,-0.27360130,-0.00001492,0.02485751,-0.07514502,-0.00000529,0.00010791
 ,0.68094180,-0.00000003,0.00000006,0.00004571,0.00000008,-0.00000003,0
 .00026659,-0.00000011,0.00000008,-0.00069847,0.,-0.00000002,-0.0001124
 4,-0.00000002,-0.00000004,0.00007166,0.00000007,-0.00000003,-0.0000119
 2,0.,0.,0.00000079,0.,0.,-0.00000337,0.,0.,0.00001389,0.,0.,-0.0000225
 9,0.00000040,0.00000011,0.00008632,-0.00000019,-0.00000009,-0.00048437
 ,0.00000584,0.00000176,0.00684502,0.00000713,-0.00001596,-0.06274410,0
 .00000179,-0.00000513,-0.00415923,-0.00000784,0.00003827,0.12883740,0.
 00024087,0.00007098,0.00000001,-0.00060956,0.00014350,-0.00000020,0.00
 028347,-0.00004671,0.00000003,0.00000196,0.00001981,0.00000001,0.00004
 801,0.00004173,0.,-0.00004576,-0.00007673,0.00000002,-0.00001119,-0.00
 000955,0.,0.00003058,0.00000783,0.,0.00001041,-0.00000078,0.,0.0000290
 4,-0.00000407,0.,0.00020961,0.00037344,0.00000002,-0.00041063,0.001366
 51,0.00000022,-0.00591999,-0.02774576,-0.00000174,-0.09863421,-0.09984
 111,-0.00000571,-0.00558851,0.00097465,0.00000016,0.01093045,0.0192469
 5,0.00000124,0.10070845,-0.00002680,-0.00004159,0.,0.00001105,0.000359
 85,0.,0.00015921,-0.00015634,0.,-0.00000676,0.00003613,0.,0.00000714,0
 .00003229,0.,-0.00005087,0.00002808,0.,-0.00000286,0.00000989,0.,0.000
 01007,-0.00000031,0.,-0.00000608,0.00000133,0.,-0.00000700,0.00000228,
 0.,-0.00051084,0.00020739,0.00000003,-0.00021153,-0.00001150,-0.000000
 14,0.00138426,-0.00038638,-0.00000031,-0.09757656,-0.30000342,-0.00001
 631,0.00001128,0.00180020,-0.00000017,-0.01306481,-0.01727098,-0.00000
 144,0.10467501,0.31767927,-0.00000003,0.,-0.00001040,0.00000006,-0.000
 00004,-0.00047234,0.00000004,0.00000001,0.00008979,-0.00000001,0.,0.00
 007965,0.,0.,-0.00002659,0.,0.00000002,0.00002489,0.,0.,-0.00001150,0.
 ,0.,-0.00001315,0.,0.,-0.00000607,0.,0.,0.00001797,-0.00000002,-0.0000
 0003,0.00009463,0.,-0.00000009,0.00085151,0.00000022,0.00000037,0.0031
 0378,-0.00000567,-0.00001631,-0.03733610,0.00000025,-0.00000050,0.0056
 8713,-0.00000091,-0.00000185,0.00474983,0.00000579,0.00001843,0.024958
 18,0.00014888,0.00029297,-0.00000004,0.00028962,-0.00013797,-0.0000000
 7,0.00076782,-0.00015242,0.00000019,-0.00030808,-0.00017580,0.,0.00000
 776,-0.00025087,0.00000002,0.00024260,-0.00010573,0.00000003,-0.000026
 63,-0.00001182,0.,0.00010171,0.00001117,0.,0.00003773,-0.00001540,0.,0
 .00003081,0.00000058,0.,0.00181176,0.00248506,0.00000026,0.00046176,0.
 00007380,0.00000005,0.05726730,0.03323988,0.00000144,-0.06167584,0.028
 19741,0.00000276,-0.17915510,0.06369922,0.00000639,-0.00897066,-0.0886
 6046,-0.00000614,-0.00083856,0.00067678,-0.00000008,0.79880300,0.00030
 119,-0.00021952,0.00000008,-0.00083966,-0.00023188,-0.00000008,-0.0003
 0405,0.00006519,-0.00000013,0.00035067,0.00006394,0.,0.00008074,0.0004
 1772,-0.00000003,-0.00040454,-0.00004243,-0.00000002,-0.00000200,0.000
 02192,0.,0.00000440,-0.00000976,0.,-0.00002757,0.00001383,0.,0.0000087
 1,0.00000400,0.,-0.00095725,-0.00057488,0.00000015,0.00118512,-0.00018
 331,0.00000010,-0.00696270,-0.03693014,-0.00000323,0.02422946,-0.01420
 348,-0.00000096,0.13664094,-0.26450568,-0.00001649,-0.03833115,0.02179
 819,0.00000151,0.00037723,0.00052760,0.00000010,0.04471834,0.72476763,
 -0.00000002,0.00000001,-0.00024018,0.00000006,-0.00000007,-0.00000942,
 -0.00000002,0.00000002,-0.00026606,0.,0.00000002,0.00000065,0.00000001
 ,-0.00000002,0.00001242,0.00000003,0.00000002,0.00001844,0.,0.,-0.0000
 1075,0.,0.,-0.00000785,0.,0.,-0.00000658,0.,0.,0.00003954,-0.00000030,
 -0.00000010,0.00051510,-0.00000003,-0.00000005,-0.00000217,-0.00000116
 ,-0.00000374,0.00690713,0.00000283,-0.00000111,-0.00358297,0.00001248,
 -0.00001577,-0.07083788,-0.00000289,0.00000227,0.00851589,0.00000002,0
 .00000009,-0.00108639,-0.00000314,0.00004679,0.12309020,0.00027935,-0.
 00054532,0.00000007,-0.00104703,0.00033888,-0.00000006,-0.00027747,-0.
 00014386,-0.00000025,0.00049728,0.00013645,0.00000001,0.00006687,0.000
 65367,-0.00000004,-0.00070935,0.00006768,-0.00000005,0.00001851,0.0000
 5712,0.,-0.00002252,-0.00003455,0.,-0.00007486,0.00002936,0.,-0.000036
 33,0.00001969,0.,-0.00257193,-0.00086080,0.00000032,0.00085147,0.00017
 304,0.00000012,-0.04221810,-0.02442100,-0.00000111,0.06602703,-0.01052
 760,-0.00000159,-0.05198523,0.06542823,0.00000521,-0.15561506,-0.03162
 772,-0.00000078,-0.00200491,0.00417689,0.00000041,-0.40529865,-0.07699
 298,-0.00000151,0.76021523,0.00008298,-0.00015646,0.00000001,-0.000144
 33,0.00026387,-0.00000003,0.00039342,-0.00082808,-0.00000009,-0.000138
 01,0.00014023,0.,0.00004140,0.00002837,0.,-0.00016326,0.00010440,-0.00
 000002,0.00000742,0.00001362,0.,-0.00001361,-0.00000405,0.,-0.00002467
 ,0.00000906,0.,-0.00000882,0.00000540,0.,-0.00330393,-0.00016360,0.000
 00010,0.00025624,0.00018779,0.00000004,-0.03892672,-0.02363547,-0.0000
 0072,0.04710576,-0.05943620,-0.00000545,0.00835487,0.06087734,0.000004
 72,-0.10547680,-0.30743743,-0.00001606,0.00343510,-0.00230065,-0.00000
 065,-0.00495568,-0.13928406,-0.00000681,-0.03446445,0.71442236,0.,-0.0
 0000001,0.00001954,0.,0.00000003,-0.00001559,0.00000003,-0.00000006,0.
 00017750,-0.00000001,0.,0.00001007,0.,0.,-0.00001434,-0.00000001,0.,0.
 00000311,0.,0.,-0.00000055,0.,0.,0.00000651,0.,0.,-0.00000110,0.,0.,-0
 .00000696,-0.00000017,0.00000002,-0.00010234,0.,0.,0.00001914,-0.00000
 252,-0.00000133,-0.00366427,0.00000274,-0.00000450,0.00677981,0.000001
 41,0.00000402,0.00067712,-0.00000614,-0.00001715,-0.06430334,0.0000004
 0,-0.00000072,0.00753313,0.00000452,-0.00000556,-0.05804259,-0.0000117
 6,0.00004341,0.14105115,0.00001705,-0.00006534,0.,-0.00006906,0.000116
 82,0.,-0.00002904,-0.00004773,0.,0.00003935,0.00003548,0.,-0.00000708,
 0.00005777,0.,-0.00007187,0.00001425,0.,0.00000157,0.00001103,0.,0.000
 00419,-0.00000633,0.,-0.00001161,0.00000557,0.,-0.00000889,0.00000539,
 0.,-0.00041307,0.00034293,0.00000004,0.00002435,0.00005829,0.,0.000213
 70,0.00350164,0.00000031,-0.01409026,-0.00677016,-0.00000020,0.0005784
 1,0.00023048,0.,-0.34059381,-0.04590553,0.00000083,0.00077923,0.000095
 67,-0.00000007,0.00129702,-0.00220632,-0.00000010,-0.00644345,0.002446
 66,0.00000029,0.35888417,-0.00000226,0.00002084,0.,0.00002874,-0.00006
 174,0.,0.00006577,0.00004630,0.,-0.00000367,-0.00004107,0.,0.00001081,
 -0.00000960,0.,0.00001977,-0.00000795,0.,0.00000060,-0.00000470,0.,-0.
 00000009,0.00000247,0.,0.00000490,-0.00000403,0.,0.00000320,-0.0000015
 3,0.,0.00042968,-0.00031444,0.,0.00000962,0.00001692,0.,0.00235105,-0.
 00348217,-0.00000076,0.02564044,0.00690816,-0.00000006,0.00043764,-0.0
 0159166,-0.00000007,-0.04668145,-0.06531998,-0.00000149,-0.00011273,0.
 00093460,0.00000039,-0.00117749,-0.00530652,-0.00000082,-0.02980157,0.
 00053361,0.00000035,0.04917026,0.06560575,0.,0.,-0.00000133,0.,-0.0000
 0001,-0.00000555,0.,0.00000001,-0.00017975,0.,0.,-0.00000467,0.,0.,0.0
 0001360,0.,0.,-0.00000533,0.,0.,0.00000117,0.,0.,-0.00000349,0.,0.,0.0
 0000176,0.,0.,0.00000425,0.00000002,-0.00000002,-0.00012561,0.,0.,0.00
 000868,0.00000024,-0.00000082,0.00730441,0.00000205,0.00000031,0.00186
 771,0.00000001,-0.00000005,-0.00067732,0.00000085,-0.00000150,-0.03392
 781,-0.00000010,0.00000039,-0.00471605,-0.00000014,-0.00000080,0.00636
 443,-0.00000189,-0.00000004,0.00195313,-0.00000100,0.00000213,0.025178
 20,-0.00002806,-0.00000535,0.,-0.00000179,0.00009122,0.,0.00000745,0.0
 0002811,0.,-0.00000085,0.00000679,0.,-0.00001010,-0.00001520,0.,0.0000
 1156,0.00000915,0.,0.00000109,-0.00000006,0.,-0.00000860,0.00000059,0.
 ,-0.00000016,0.00000098,0.,-0.00000323,-0.00000138,0.,0.00006558,-0.00
 004703,-0.00000004,-0.00020428,0.00001916,0.,-0.00200497,0.00210374,0.
 00000024,-0.00109208,0.00061498,0.00000004,0.00859386,0.01891591,0.000
 00144,-0.00528832,0.00031457,0.00000017,0.00008331,-0.00009952,-0.0000
 0002,-0.10150103,-0.10759809,-0.00000779,-0.00516553,-0.02869414,-0.00
 000222,-0.00041844,-0.00139138,-0.00000007,0.10502615,0.00002120,0.000
 07492,0.,0.00000221,-0.00012751,0.,0.00007120,0.00002441,0.00000002,-0
 .00003653,-0.00002151,0.,0.00001064,-0.00003969,0.,0.00004998,-0.00002
 362,0.,-0.00000494,-0.00000443,0.,0.00000820,0.00000513,0.,0.00000913,
 -0.00000348,0.,0.00001050,-0.00000227,0.,0.00014456,0.00028254,0.00000
 002,0.00020007,-0.00014681,0.,0.00371894,-0.00199023,-0.00000060,0.000
 99914,0.00038228,0.00000009,-0.01375134,-0.01850086,-0.00000165,-0.000
 26420,0.00198866,-0.00000049,-0.00005374,-0.00005738,0.00000005,-0.103
 50708,-0.30347533,-0.00002037,0.00197441,0.00116653,-0.00000011,0.0001
 0223,-0.00004176,-0.00000004,0.11327557,0.31834631,0.,0.,0.00000970,0.
 ,0.,-0.00002199,0.00000001,0.,-0.00002516,0.,0.,-0.00000111,0.,0.,-0.0
 0000435,0.,0.,0.00000177,0.,0.,0.00000177,0.,0.,0.00000463,0.,0.,0.000
 00248,0.,0.,-0.00000077,0.00000002,0.00000002,-0.00001643,0.00000002,-
 0.00000002,-0.00005396,0.00000050,-0.00000041,0.00487159,-0.00000011,0
 .00000017,-0.00093137,-0.00000099,-0.00000260,0.00495137,0.00000016,-0
 .00000059,0.00757288,-0.00000001,0.00000004,-0.00059419,-0.00000800,-0
 .00001998,-0.03558031,0.00000050,0.00000027,0.00288988,0.00000002,-0.0
 0000002,0.00039435,0.00000816,0.00002239,0.02503778,0.00001170,-0.0000
 2743,0.,-0.00002865,0.00007320,0.,0.00006294,-0.00004988,0.,0.00000804
 ,0.00000813,0.,0.00000197,0.00002636,0.,-0.00003396,0.00000895,0.,0.00
 000048,0.00000487,0.,0.00000630,-0.00000328,0.,-0.00000604,0.00000213,
 0.,-0.00000378,0.00000312,0.,-0.00008439,0.00011038,0.00000004,-0.0000
 0892,0.00012358,0.00000001,-0.00087716,-0.00059003,-0.00000005,0.00050
 391,-0.00286153,-0.00000007,-0.00394220,-0.00250116,-0.00000008,0.0103
 2521,-0.01018161,-0.00000085,0.00037147,-0.00054441,-0.00000003,-0.012
 47415,0.02674742,0.00000245,-0.17028966,0.13836045,0.00001266,0.000649
 54,0.00047347,-0.00000006,0.00107639,-0.00024210,-0.00000008,0.1763213
 5,0.00001474,0.00002212,0.,-0.00004499,-0.00000816,-0.00000001,0.00000
 620,0.00002355,0.,-0.00000402,-0.00000589,0.,0.00000673,-0.00000823,0.
 ,0.00001237,-0.00001184,0.,-0.00000222,-0.00000419,0.,-0.00000003,0.00
 000343,0.,0.00000522,-0.00000136,0.,0.00000577,-0.00000291,0.,0.000117
 74,-0.00007815,0.,-0.00002753,0.00001028,0.,-0.00083055,0.00014150,0.0
 0000009,-0.00333664,-0.00424147,-0.00000079,-0.00212075,0.00113001,-0.
 00000060,0.02080663,-0.01455722,-0.00000175,0.00095011,-0.00102887,-0.
 00000006,-0.00559796,0.00676488,0.00000026,0.13964711,-0.23494785,-0.0
 0001724,-0.00013608,0.00102018,0.00000036,0.00020469,0.00064636,0.0000
 0041,-0.14982321,0.24468925,0.,0.,0.00000083,-0.00000001,0.,-0.0000375
 7,0.00000001,0.,0.00005601,0.,0.,0.00000915,0.,0.,-0.00000673,0.,0.,-0
 .00000142,0.,0.,0.00000121,0.,0.,-0.00000028,0.,0.,-0.00000016,0.,0.,0
 .00000376,0.00000002,0.,-0.00003993,0.00000003,0.,0.00009591,-0.000000
 20,0.00000008,-0.00093865,-0.00000002,-0.00000083,0.00665990,-0.000000
 12,-0.00000042,0.00894295,0.00000151,-0.00000089,0.00408535,0.00000007
 ,-0.00000004,-0.00012142,-0.00000015,-0.00000035,0.00488405,0.00001273
 ,-0.00001751,-0.04071078,-0.00000006,0.00000032,-0.00361909,-0.0000000
 5,0.00000044,-0.00462813,-0.00001392,0.00001918,0.02680872,-0.00175477
 ,-0.00787988,-0.00000015,-0.00338813,0.01467111,0.00000024,-0.09789071
 ,0.04488007,0.00000049,0.01774579,-0.00237276,0.00000005,-0.00404946,0
 .01160595,-0.00000102,-0.00621008,-0.00616567,0.00000023,0.00062607,-0
 .00094554,0.00000026,-0.00055437,-0.00007885,-0.00000008,0.00014309,0.
 00015454,0.00000002,-0.00076153,-0.00014654,0.00000013,-0.48158649,-0.
 06695597,0.00001021,-0.04533698,-0.00816790,-0.00000134,-0.13493721,0.
 06074731,0.00000432,-0.03307445,0.02886179,0.00000245,0.02575708,0.011
 21572,0.00000051,-0.00155118,-0.01079359,-0.00000063,0.00063539,0.0010
 0870,0.00000007,-0.00169981,-0.00202896,-0.00000002,0.00241500,0.00288
 818,0.00000014,-0.00028916,0.00080061,0.00000009,0.00026451,-0.0010702
 8,-0.00000009,0.00021056,-0.00000870,0.,0.78000765,0.00145670,-0.00307
 371,-0.00000111,0.02955886,-0.02295444,0.00000038,0.01794759,0.0009337
 7,-0.00000034,0.00833439,-0.00795490,0.00000028,-0.00182947,0.00599292
 ,-0.00000047,-0.00350017,-0.00446369,0.00000049,0.00045018,-0.00084928
 ,0.00000016,-0.00045019,0.00027716,-0.00000003,0.00025864,-0.00031379,
 0.00000006,-0.00044638,0.00001800,0.00000019,-0.08052467,-0.11564365,0
 .00000295,0.01279145,-0.07008041,0.00000092,0.05511922,-0.17821281,-0.
 00000804,0.01380045,0.00770641,0.00000017,0.01338558,-0.03421179,-0.00
 000252,-0.00599607,0.00957135,0.00000059,-0.00183680,-0.00011804,0.000
 00014,-0.00109948,-0.00574983,-0.00000078,-0.00569773,-0.00399975,-0.0
 0000016,-0.00107598,0.00080454,0.00000003,0.00103448,-0.00045469,-0.00
 000003,-0.00023123,0.00015289,0.00000002,-0.05714216,0.41562273,0.0000
 0101,-0.00000112,-0.00043410,-0.00000207,0.00000399,0.00420421,-0.0000
 0170,0.00000138,0.00610679,0.00000113,-0.00000043,0.00331459,0.0000000
 5,0.00000124,0.00023402,-0.00000128,-0.00000022,0.00069299,0.00000009,
 -0.00000002,-0.00023414,0.,-0.00000005,-0.00013191,-0.00000003,-0.0000
 0003,-0.00048974,-0.00000007,0.,0.00008608,0.00001223,-0.00000024,-0.0
 6171249,-0.00000041,-0.00000211,-0.03862283,0.00000327,-0.00000650,-0.
 05248067,0.00000172,-0.00000012,-0.00261390,0.00000017,-0.00000250,0.0
 0199241,-0.00000013,0.00000067,0.00661256,-0.00000007,0.00000025,-0.00
 320032,0.00000010,-0.00000094,0.00501627,-0.00000064,-0.00000033,-0.00
 094831,-0.00000004,-0.00000005,0.00085744,0.00000009,-0.00000003,0.000
 08135,-0.00000003,0.00000008,-0.00090925,-0.00001432,0.00000628,0.1345
 2871,-0.00031651,0.00151968,-0.00000018,0.00146920,0.00024345,0.000000
 10,0.00511261,-0.00068546,0.00000072,-0.00149216,-0.00036504,0.0000000
 4,0.00005367,-0.00138381,0.00000011,0.00146355,0.00005626,0.00000008,-
 0.00011161,0.00003966,-0.00000002,0.00032839,0.00001481,0.,0.00007468,
 -0.00004189,-0.00000001,0.00006665,0.00003854,-0.00000002,0.00879473,0
 .01267567,0.00000076,-0.00019598,-0.00012266,-0.00000048,-0.00784827,-
 0.02395707,-0.00000253,-0.00853467,0.00534929,0.00000046,-0.30126476,-
 0.08608891,-0.00000796,-0.00491473,-0.01490965,-0.00000102,-0.00072494
 ,-0.00025284,-0.00000003,-0.08619644,0.00665659,-0.00000034,0.01487810
 ,0.01183424,0.00000052,-0.00009941,-0.00026043,0.,0.00079082,-0.001815
 97,-0.00000011,-0.00151932,0.00031362,0.00000015,-0.01688397,0.0119156
 5,0.00000157,0.62023354,-0.00036414,-0.00004713,0.00000009,0.00018209,
 -0.00144596,0.00000006,-0.00450609,-0.00060037,-0.00000061,-0.00026620
 ,-0.00033125,-0.00000002,0.00027936,-0.00012852,0.00000003,0.00022369,
 -0.00001689,0.,0.00007826,-0.00013763,0.00000002,0.00002919,0.00004137
 ,-0.00000003,0.00010385,-0.00006859,0.,0.00006649,-0.00003934,0.,0.005
 96622,-0.01738495,-0.00000216,-0.00082553,-0.00269939,0.00000007,-0.03
 823109,-0.00747713,-0.00000151,0.00615571,-0.00712816,-0.00000110,-0.0
 4868241,-0.13577552,-0.00000429,-0.00213723,0.00481118,0.00000043,-0.0
 0165377,-0.00014252,0.00000002,0.04197014,0.01458869,-0.00000012,-0.00
 086268,-0.00845820,-0.00000110,-0.00001870,0.00041655,0.00000008,0.000
 99844,0.00191611,0.00000033,0.00144345,0.00021531,-0.00000002,0.001647
 27,0.00563754,0.00000061,-0.16723779,0.49159980,-0.00000004,-0.0000000
 3,-0.00005976,0.00000006,-0.00000012,-0.00006266,-0.00000035,-0.000000
 30,0.00035915,-0.00000006,-0.00000001,0.00013860,0.00000003,-0.0000000
 4,-0.00003251,0.00000002,0.00000001,0.00003037,0.,-0.00000002,-0.00001
 375,-0.00000001,0.00000001,-0.00004910,0.,0.,-0.00001758,0.,0.,-0.0000
 0137,0.00000090,-0.00000175,0.00351514,-0.00000012,-0.00000037,-0.0005
 2047,-0.00000264,-0.00000087,0.00869802,0.00000048,-0.00000092,0.00625
 576,-0.00000900,-0.00000620,-0.05111803,-0.00000012,0.00000040,-0.0010
 9537,-0.00000012,-0.00000008,0.00046351,0.00000265,-0.00000016,0.01142
 022,-0.00000023,-0.00000090,0.00457249,-0.00000002,0.00000006,-0.00057
 706,0.00000003,0.00000022,-0.00318351,0.00000005,0.00000003,-0.0001930
 7,-0.00000003,0.00000084,-0.00262863,0.00000863,0.00001413,0.02868033,
 0.00009902,-0.00026958,0.00000003,-0.00045590,0.00048645,-0.00000008,0
 .00037729,0.00142455,0.00000006,0.00061273,0.00048527,-0.00000007,-0.0
 0020565,0.00010432,-0.00000003,-0.00023477,-0.00000481,0.,-0.00000595,
 0.00002076,0.,-0.00043383,0.00001760,-0.00000003,-0.00001177,0.0000179
 9,0.,-0.00002760,-0.00004067,0.,-0.00896881,0.00171922,0.00000014,-0.0
 0048626,-0.00018936,0.00000009,0.00221856,0.00197933,0.00000041,0.0002
 2007,0.00083793,0.00000008,-0.04170913,0.03416305,0.00000019,0.0007354
 7,0.00101881,0.00000007,0.00042602,0.00014482,0.00000002,-0.00312283,-
 0.00464553,-0.00000056,-0.00148878,0.00110771,0.00000011,0.00005658,-0
 .00001546,0.,-0.00019329,0.00014820,0.,-0.00028161,-0.00015824,0.00000
 002,0.00216315,-0.00622287,-0.00000065,-0.22316320,0.20564149,-0.00000
 014,0.27388046,0.00015063,0.00056847,-0.00000013,0.00070541,0.00204384
 ,-0.00000001,0.00709745,-0.00235093,0.00000062,-0.00072381,0.00053668,
 0.00000008,-0.00027742,-0.00047843,0.00000003,0.00030583,0.00023806,0.
 ,-0.00012317,0.00018779,-0.00000003,0.00038706,-0.00003597,0.00000005,
 -0.00013014,0.00008683,-0.00000002,-0.00005917,0.00007526,0.,0.0038264
 3,0.00296640,0.00000221,0.00101088,0.00333325,-0.00000049,0.00038941,-
 0.00478386,-0.00000031,-0.00273624,0.00044866,0.00000015,0.00331176,0.
 01813452,0.00000067,-0.00050489,-0.00402411,-0.00000026,-0.00030109,-0
 .00010092,-0.00000001,-0.00951716,0.00168321,0.00000026,0.00327774,0.0
 0289925,0.00000009,0.00003773,-0.00012276,-0.00000001,0.00023377,0.000
 05629,0.00000003,-0.00032964,0.00007638,0.00000001,-0.01472445,0.00136
 348,0.00000018,0.24646405,-0.33734500,-0.00000392,-0.23777099,0.314543
 60,0.00000005,0.00000011,0.00010628,-0.00000005,0.00000037,0.00020310,
 0.00000096,0.00000025,-0.00005747,-0.00000004,0.00000003,-0.00024907,-
 0.00000006,-0.00000002,-0.00001922,0.00000002,0.,-0.00002408,-0.000000
 02,0.00000003,0.00001456,0.00000001,0.00000004,0.00016732,-0.00000002,
 0.00000001,0.00001963,0.,0.,-0.00000069,-0.00000008,0.00000097,-0.0065
 4983,0.00000023,0.00000051,0.00068224,0.00000014,-0.00000050,-0.001536
 96,-0.00000026,0.00000019,-0.00007795,0.00000094,0.00000236,-0.0019045
 1,-0.00000013,-0.00000041,-0.00014087,0.,0.,-0.00005947,-0.00000065,-0
 .00000002,0.00288882,0.00000053,0.00000005,0.00211756,0.,0.,-0.0001060
 6,0.00000001,0.00000007,-0.00077828,0.,0.00000003,-0.00034137,-0.00000
 152,0.,0.00067887,-0.00000043,-0.00000491,-0.00458071,0.00000037,0.000
 00083,0.00954819\\0.00252247,-0.00285087,0.00000391,-0.00340119,-0.006
 94106,0.00000602,-0.00831656,-0.00060129,-0.00000153,-0.00142843,0.001
 78854,-0.00000041,0.00113079,0.00642068,-0.00000087,0.00246148,0.00220
 815,0.00000038,0.00057268,-0.00048434,-0.00000049,-0.00056428,0.000406
 72,-0.00000005,0.00007851,0.00056996,0.,0.00044018,0.00028869,-0.00000
 076,0.00505638,-0.00861443,-0.00000545,-0.00421616,-0.01617186,-0.0000
 1011,0.00363775,-0.00422869,0.00000118,-0.00741374,0.00304095,0.000001
 60,-0.00846048,-0.00344214,-0.00000429,0.00193007,-0.00015286,-0.00000
 031,-0.00053498,0.00029750,-0.00000014,0.00525495,0.00036985,0.0000012
 6,0.00615505,0.00438432,0.00000039,0.00009617,0.00052970,-0.00000011,0
 .00064819,-0.00006293,-0.00000009,0.00070368,0.00054432,0.00000021,0.0
 0273062,0.00079471,0.00000513,0.00630372,0.00406030,0.00000133,-0.0053
 8687,0.01784606,0.00000322\\\@
 The archive entry for this job was punched.


 DIATOMIC MOLECULES ARE PECULIAR BECAUSE THEY ONLY HAVE TWO ENDS,
 AND THESE ENDS ARE VERY CLOSE TOGETHER.
 KLAUS RUEDENBERG, REV.MOD.PHYS. PG 176, 32, (1960)
 Job cpu time:       0 days  0 hours 58 minutes 43.8 seconds.
 Elapsed time:       0 days  0 hours  5 minutes 54.7 seconds.
 File lengths (MBytes):  RWF=    544 Int=      0 D2E=      0 Chk=     36 Scr=      8
 Normal termination of Gaussian 16 at Tue Oct 27 21:29:47 2020.
