 Entering Gaussian System, Link 0=g16
 Initial command:
 /gpfs/loomis/apps/avx/software/Gaussian/16-C.01_AVX/g16/l1.exe "/home/fas/batista/pev4/scratch60/gauss-scratch/Gau-54683.inp" -scrdir="/home/fas/batista/pev4/scratch60/gauss-scratch/"
 Entering Link 1 = /gpfs/loomis/apps/avx/software/Gaussian/16-C.01_AVX/g16/l1.exe PID=     54684.
  
 Copyright (c) 1988-2019, Gaussian, Inc.  All Rights Reserved.
  
 This is part of the Gaussian(R) 16 program.  It is based on
 the Gaussian(R) 09 system (copyright 2009, Gaussian, Inc.),
 the Gaussian(R) 03 system (copyright 2003, Gaussian, Inc.),
 the Gaussian(R) 98 system (copyright 1998, Gaussian, Inc.),
 the Gaussian(R) 94 system (copyright 1995, Gaussian, Inc.),
 the Gaussian 92(TM) system (copyright 1992, Gaussian, Inc.),
 the Gaussian 90(TM) system (copyright 1990, Gaussian, Inc.),
 the Gaussian 88(TM) system (copyright 1988, Gaussian, Inc.),
 the Gaussian 86(TM) system (copyright 1986, Carnegie Mellon
 University), and the Gaussian 82(TM) system (copyright 1983,
 Carnegie Mellon University). Gaussian is a federally registered
 trademark of Gaussian, Inc.
  
 This software contains proprietary and confidential information,
 including trade secrets, belonging to Gaussian, Inc.
  
 This software is provided under written license and may be
 used, copied, transmitted, or stored only in accord with that
 written license.
  
 The following legend is applicable only to US Government
 contracts under FAR:
  
                    RESTRICTED RIGHTS LEGEND
  
 Use, reproduction and disclosure by the US Government is
 subject to restrictions as set forth in subparagraphs (a)
 and (c) of the Commercial Computer Software - Restricted
 Rights clause in FAR 52.227-19.
  
 Gaussian, Inc.
 340 Quinnipiac St., Bldg. 40, Wallingford CT 06492
  
  
 ---------------------------------------------------------------
 Warning -- This program may not be used in any manner that
 competes with the business of Gaussian, Inc. or will provide
 assistance to any competitor of Gaussian, Inc.  The licensee
 of this program is prohibited from giving any competitor of
 Gaussian, Inc. access to this program.  By using this program,
 the user acknowledges that Gaussian, Inc. is engaged in the
 business of creating and licensing software in the field of
 computational chemistry and represents and warrants to the
 licensee that it is not a competitor of Gaussian, Inc. and that
 it will not use this program in any manner prohibited above.
 ---------------------------------------------------------------
  

 Cite this work as:
 Gaussian 16, Revision C.01,
 M. J. Frisch, G. W. Trucks, H. B. Schlegel, G. E. Scuseria, 
 M. A. Robb, J. R. Cheeseman, G. Scalmani, V. Barone, 
 G. A. Petersson, H. Nakatsuji, X. Li, M. Caricato, A. V. Marenich, 
 J. Bloino, B. G. Janesko, R. Gomperts, B. Mennucci, H. P. Hratchian, 
 J. V. Ortiz, A. F. Izmaylov, J. L. Sonnenberg, D. Williams-Young, 
 F. Ding, F. Lipparini, F. Egidi, J. Goings, B. Peng, A. Petrone, 
 T. Henderson, D. Ranasinghe, V. G. Zakrzewski, J. Gao, N. Rega, 
 G. Zheng, W. Liang, M. Hada, M. Ehara, K. Toyota, R. Fukuda, 
 J. Hasegawa, M. Ishida, T. Nakajima, Y. Honda, O. Kitao, H. Nakai, 
 T. Vreven, K. Throssell, J. A. Montgomery, Jr., J. E. Peralta, 
 F. Ogliaro, M. J. Bearpark, J. J. Heyd, E. N. Brothers, K. N. Kudin, 
 V. N. Staroverov, T. A. Keith, R. Kobayashi, J. Normand, 
 K. Raghavachari, A. P. Rendell, J. C. Burant, S. S. Iyengar, 
 J. Tomasi, M. Cossi, J. M. Millam, M. Klene, C. Adamo, R. Cammi, 
 J. W. Ochterski, R. L. Martin, K. Morokuma, O. Farkas, 
 J. B. Foresman, and D. J. Fox, Gaussian, Inc., Wallingford CT, 2019.
 
 ******************************************
 Gaussian 16:  ES64L-G16RevC.01  3-Jul-2019
                27-Oct-2020 
 ******************************************
 %chk=config_4_7.chk
 %mem=58GB
 %nprocshared=10
 Will use up to   10 processors via shared memory.
 ----------------------------------------------------------------------
 #p opt=addgic freq wb97xd/cc-pvdz nosymm int=ultrafine scrf=(solvent=C
 arbonTetraChloride)
 ----------------------------------------------------------------------
 1/18=20,19=15,26=6,38=1,145=903/1,3;
 2/9=110,12=2,15=1,17=6,18=5,40=1/2;
 3/5=16,11=2,25=1,30=1,70=2201,71=1,72=11,74=-58,75=-5/1,2,3;
 4//1;
 5/5=2,38=5,53=11/2;
 6/7=2,8=2,9=2,10=2,28=1/1;
 7/30=1/1,2,3,16;
 1/18=20,19=15,26=6,145=903/3(2);
 2/9=110,15=1/2;
 99//99;
 2/9=110,15=1/2;
 3/5=16,11=2,25=1,30=1,70=2205,71=1,72=11,74=-58,75=-5/1,2,3;
 4/5=5,16=3,69=1/1;
 5/5=2,38=5,53=11/2;
 7/30=1/1,2,3,16;
 1/18=20,19=15,26=6,145=903/3(-5);
 2/9=110,15=1/2;
 6/7=2,8=2,9=2,10=2,19=2,28=1/1;
 99/9=1/99;
 Leave Link    1 at Tue Oct 27 22:11:23 2020, MaxMem=  7784628224 cpu:               3.7 elap:               0.5
 (Enter /gpfs/loomis/apps/avx/software/Gaussian/16-C.01_AVX/g16/l101.exe)
 ------------------------------------------------
 NM 2D-scan of HBT TD-WB97XD pVDZ in CTC Relaxed.
 ------------------------------------------------
 Symbolic Z-matrix:
 Charge =  0 Multiplicity = 1
 C                     1.67576  -3.26844  -0.00002 
 C                     0.99656  -2.05415  -0.00002 
 C                     1.6981   -0.81055  -0.00002 
 C                     3.117    -0.81787  -0.00002 
 C                     3.77737  -2.03158  -0.00002 
 C                     3.07057  -3.25138  -0.00002 
 H                     1.13118  -4.21347  -0.00002 
 H                     3.65608   0.13023  -0.00002 
 H                     4.86888  -2.04908  -0.00002 
 H                     3.61911  -4.19436  -0.00002 
 N                     0.91809   0.27438  -0.00002 
 S                    -0.73471  -1.76137  -0.00002 
 C                    -1.37714   1.01872   0. 
 C                    -2.78167   0.83664  0. 
 C                    -0.89014   2.41461   0.00003 
 C                    -3.64464   1.92733   0.00002 
 H                    -3.18603  -0.17665  -0.00002 
 C                    -1.79269   3.49232   0.00006 
 C                    -3.16319   3.25833   0.00005 
 H                    -4.7217    1.7509    0.00002 
 H                    -1.37753   4.50059   0.00008 
 H                    -3.8645    4.09294   0.00008 
 C                    -0.41076  -0.01223  -0.00002 
 O                     0.39769   2.6486    0.00004 
 H                     0.83838   1.83292   0.00002 
 
 Initializing the GIC definitions file.
 Number of initial coordinates =   131
 Number of input entries/lines =    52
 Number of additional coordinates =     2
 Number of removed coordinates =     0
 Number of frozen coordinates =     2
 Number of final active and frozen coordinates =   133
 ITRead=  0  0  0  0  0  0  0  0  0  0  0  0  0  0  0  0  0  0  0  0
 ITRead=  0  0  0  0  0
 MicOpt= -1 -1 -1 -1 -1 -1 -1 -1 -1 -1 -1 -1 -1 -1 -1 -1 -1 -1 -1 -1
 MicOpt= -1 -1 -1 -1 -1
 NAtoms=     25 NQM=       25 NQMF=       0 NMMI=      0 NMMIF=      0
                NMic=       0 NMicF=      0.
                    Isotopes and Nuclear Properties:
 (Nuclear quadrupole moments (NQMom) in fm**2, nuclear magnetic moments (NMagM)
  in nuclear magnetons)

  Atom         1           2           3           4           5           6           7           8           9          10
 IAtWgt=          12          12          12          12          12          12           1           1           1           1
 AtmWgt=  12.0000000  12.0000000  12.0000000  12.0000000  12.0000000  12.0000000   1.0078250   1.0078250   1.0078250   1.0078250
 NucSpn=           0           0           0           0           0           0           1           1           1           1
 AtZEff=  -0.0000000  -0.0000000  -0.0000000  -0.0000000  -0.0000000  -0.0000000  -0.0000000  -0.0000000  -0.0000000  -0.0000000
 NQMom=    0.0000000   0.0000000   0.0000000   0.0000000   0.0000000   0.0000000   0.0000000   0.0000000   0.0000000   0.0000000
 NMagM=    0.0000000   0.0000000   0.0000000   0.0000000   0.0000000   0.0000000   2.7928460   2.7928460   2.7928460   2.7928460
 AtZNuc=   6.0000000   6.0000000   6.0000000   6.0000000   6.0000000   6.0000000   1.0000000   1.0000000   1.0000000   1.0000000

  Atom        11          12          13          14          15          16          17          18          19          20
 IAtWgt=          14          32          12          12          12          12           1          12          12           1
 AtmWgt=  14.0030740  31.9720718  12.0000000  12.0000000  12.0000000  12.0000000   1.0078250  12.0000000  12.0000000   1.0078250
 NucSpn=           2           0           0           0           0           0           1           0           0           1
 AtZEff=  -0.0000000  -0.0000000  -0.0000000  -0.0000000  -0.0000000  -0.0000000  -0.0000000  -0.0000000  -0.0000000  -0.0000000
 NQMom=    2.0440000   0.0000000   0.0000000   0.0000000   0.0000000   0.0000000   0.0000000   0.0000000   0.0000000   0.0000000
 NMagM=    0.4037610   0.0000000   0.0000000   0.0000000   0.0000000   0.0000000   2.7928460   0.0000000   0.0000000   2.7928460
 AtZNuc=   7.0000000  16.0000000   6.0000000   6.0000000   6.0000000   6.0000000   1.0000000   6.0000000   6.0000000   1.0000000

  Atom        21          22          23          24          25
 IAtWgt=           1           1          12          16           1
 AtmWgt=   1.0078250   1.0078250  12.0000000  15.9949146   1.0078250
 NucSpn=           1           1           0           0           1
 AtZEff=  -0.0000000  -0.0000000  -0.0000000  -0.0000000  -0.0000000
 NQMom=    0.0000000   0.0000000   0.0000000   0.0000000   0.0000000
 NMagM=    2.7928460   2.7928460   0.0000000   0.0000000   2.7928460
 AtZNuc=   1.0000000   1.0000000   6.0000000   8.0000000   1.0000000
 Leave Link  101 at Tue Oct 27 22:11:26 2020, MaxMem=  7784628224 cpu:              22.9 elap:               3.3
 (Enter /gpfs/loomis/apps/avx/software/Gaussian/16-C.01_AVX/g16/l103.exe)

 GradGradGradGradGradGradGradGradGradGradGradGradGradGradGradGradGradGrad
 Berny optimization.
 Initialization pass.
                           ----------------------------
                           !    Initial Parameters    !
                           ! (Angstroms and Degrees)  !
 --------------------------                            --------------------------
 ! Name  Definition              Value          Derivative Info.                !
 --------------------------------------------------------------------------------
 ! R1    R(1,2)                  1.3913         estimate D2E/DX2                !
 ! R2    R(1,6)                  1.3949         estimate D2E/DX2                !
 ! R3    R(1,7)                  1.0907         estimate D2E/DX2                !
 ! R4    R(2,3)                  1.4278         estimate D2E/DX2                !
 ! R5    R(2,12)                 1.7559         estimate D2E/DX2                !
 ! R6    R(3,4)                  1.4189         estimate D2E/DX2                !
 ! R7    R(3,11)                 1.3362         estimate D2E/DX2                !
 ! R8    R(4,5)                  1.3817         estimate D2E/DX2                !
 ! R9    R(4,8)                  1.0906         estimate D2E/DX2                !
 ! R10   R(5,6)                  1.4098         estimate D2E/DX2                !
 ! R11   R(5,9)                  1.0917         estimate D2E/DX2                !
 ! R12   R(6,10)                 1.0909         estimate D2E/DX2                !
 ! R13   R(11,23)                1.3594         estimate D2E/DX2                !
 ! R14   R(12,23)                1.7789         estimate D2E/DX2                !
 ! R15   R(13,14)                1.4163         estimate D2E/DX2                !
 ! R16   R(13,15)                1.4784         estimate D2E/DX2                !
 ! R17   R(13,23)                1.4131         estimate D2E/DX2                !
 ! R18   R(14,16)                1.3908         estimate D2E/DX2                !
 ! R19   R(14,17)                1.091          estimate D2E/DX2                !
 ! R20   R(15,18)                1.4057         estimate D2E/DX2                !
 ! R21   R(15,24)                1.3089         estimate D2E/DX2                !
 ! R22   R(16,19)                1.4154         estimate D2E/DX2                !
 ! R23   R(16,20)                1.0914         estimate D2E/DX2                !
 ! R24   R(18,19)                1.3903         estimate D2E/DX2                !
 ! R25   R(18,21)                1.0904         estimate D2E/DX2                !
 ! R26   R(19,22)                1.0901         estimate D2E/DX2                !
 ! R27   R(24,25)                0.9271         estimate D2E/DX2                !
 ! A1    A(2,1,6)              118.5193         estimate D2E/DX2                !
 ! A2    A(2,1,7)              120.827          estimate D2E/DX2                !
 ! A3    A(6,1,7)              120.6537         estimate D2E/DX2                !
 ! A4    A(1,2,3)              121.3516         estimate D2E/DX2                !
 ! A5    A(1,2,12)             128.8188         estimate D2E/DX2                !
 ! A6    A(3,2,12)             109.8295         estimate D2E/DX2                !
 ! A7    A(2,3,4)              119.1324         estimate D2E/DX2                !
 ! A8    A(2,3,11)             114.8573         estimate D2E/DX2                !
 ! A9    A(4,3,11)             126.0103         estimate D2E/DX2                !
 ! A10   A(3,4,5)              118.8463         estimate D2E/DX2                !
 ! A11   A(3,4,8)              119.3263         estimate D2E/DX2                !
 ! A12   A(5,4,8)              121.8274         estimate D2E/DX2                !
 ! A13   A(4,5,6)              121.3598         estimate D2E/DX2                !
 ! A14   A(4,5,9)              119.4692         estimate D2E/DX2                !
 ! A15   A(6,5,9)              119.171          estimate D2E/DX2                !
 ! A16   A(1,6,5)              120.7906         estimate D2E/DX2                !
 ! A17   A(1,6,10)             119.4859         estimate D2E/DX2                !
 ! A18   A(5,6,10)             119.7235         estimate D2E/DX2                !
 ! A19   A(3,11,23)            113.5431         estimate D2E/DX2                !
 ! A20   A(2,12,23)             89.1061         estimate D2E/DX2                !
 ! A21   A(14,13,15)           116.6194         estimate D2E/DX2                !
 ! A22   A(14,13,23)           125.7614         estimate D2E/DX2                !
 ! A23   A(15,13,23)           117.6192         estimate D2E/DX2                !
 ! A24   A(13,14,16)           120.9647         estimate D2E/DX2                !
 ! A25   A(13,14,17)           119.1417         estimate D2E/DX2                !
 ! A26   A(16,14,17)           119.8936         estimate D2E/DX2                !
 ! A27   A(13,15,18)           120.8225         estimate D2E/DX2                !
 ! A28   A(13,15,24)           119.5306         estimate D2E/DX2                !
 ! A29   A(18,15,24)           119.6469         estimate D2E/DX2                !
 ! A30   A(14,16,19)           121.7626         estimate D2E/DX2                !
 ! A31   A(14,16,20)           119.0489         estimate D2E/DX2                !
 ! A32   A(19,16,20)           119.1885         estimate D2E/DX2                !
 ! A33   A(15,18,19)           120.256          estimate D2E/DX2                !
 ! A34   A(15,18,21)           117.6755         estimate D2E/DX2                !
 ! A35   A(19,18,21)           122.0686         estimate D2E/DX2                !
 ! A36   A(16,19,18)           119.5749         estimate D2E/DX2                !
 ! A37   A(16,19,22)           120.0742         estimate D2E/DX2                !
 ! A38   A(18,19,22)           120.3509         estimate D2E/DX2                !
 ! A39   A(11,23,12)           112.6639         estimate D2E/DX2                !
 ! A40   A(11,23,13)           120.9769         estimate D2E/DX2                !
 ! A41   A(12,23,13)           126.3592         estimate D2E/DX2                !
 ! A42   A(15,24,25)           108.0828         estimate D2E/DX2                !
 ! D1    D(6,1,2,3)              0.0            estimate D2E/DX2                !
 ! D2    D(6,1,2,12)          -180.0            estimate D2E/DX2                !
 ! D3    D(7,1,2,3)            180.0            estimate D2E/DX2                !
 ! D4    D(7,1,2,12)             0.0            estimate D2E/DX2                !
 ! D5    D(2,1,6,5)              0.0            estimate D2E/DX2                !
 ! D6    D(2,1,6,10)           180.0            estimate D2E/DX2                !
 ! D7    D(7,1,6,5)           -180.0            estimate D2E/DX2                !
 ! D8    D(7,1,6,10)             0.0            estimate D2E/DX2                !
 ! D9    D(1,2,3,4)              0.0            estimate D2E/DX2                !
 ! D10   D(1,2,3,11)           180.0            estimate D2E/DX2                !
 ! D11   D(12,2,3,4)           180.0            estimate D2E/DX2                !
 ! D12   D(12,2,3,11)            0.0            estimate D2E/DX2                !
 ! D13   D(1,2,12,23)          179.9999         estimate D2E/DX2                !
 ! D14   D(3,2,12,23)           -0.0001         estimate D2E/DX2                !
 ! D15   D(2,3,4,5)              0.0            estimate D2E/DX2                !
 ! D16   D(2,3,4,8)            180.0            estimate D2E/DX2                !
 ! D17   D(11,3,4,5)          -180.0            estimate D2E/DX2                !
 ! D18   D(11,3,4,8)             0.0            estimate D2E/DX2                !
 ! D19   D(2,3,11,23)            0.0003         estimate D2E/DX2                !
 ! D20   D(4,3,11,23)         -179.9998         estimate D2E/DX2                !
 ! D21   D(3,4,5,6)              0.0            estimate D2E/DX2                !
 ! D22   D(3,4,5,9)           -180.0            estimate D2E/DX2                !
 ! D23   D(8,4,5,6)           -180.0            estimate D2E/DX2                !
 ! D24   D(8,4,5,9)              0.0            estimate D2E/DX2                !
 ! D25   D(4,5,6,1)              0.0            estimate D2E/DX2                !
 ! D26   D(4,5,6,10)          -180.0            estimate D2E/DX2                !
 ! D27   D(9,5,6,1)           -180.0            estimate D2E/DX2                !
 ! D28   D(9,5,6,10)             0.0            estimate D2E/DX2                !
 ! D29   D(3,11,23,12)          -0.0003         estimate D2E/DX2                !
 ! D30   D(3,11,23,13)         179.9991         estimate D2E/DX2                !
 ! D31   D(2,12,23,11)           0.0003         estimate D2E/DX2                !
 ! D32   D(2,12,23,13)        -179.9992         estimate D2E/DX2                !
 ! D33   D(15,13,14,16)         -0.0001         estimate D2E/DX2                !
 ! D34   D(15,13,14,17)        179.9999         estimate D2E/DX2                !
 ! D35   D(23,13,14,16)        179.9998         estimate D2E/DX2                !
 ! D36   D(23,13,14,17)         -0.0002         estimate D2E/DX2                !
 ! D37   D(14,13,15,18)          0.0001         estimate D2E/DX2                !
 ! D38   D(14,13,15,24)        179.9999         estimate D2E/DX2                !
 ! D39   D(23,13,15,18)       -179.9998         estimate D2E/DX2                !
 ! D40   D(23,13,15,24)          0.0001         estimate D2E/DX2                !
 ! D41   D(14,13,23,11)        179.9995         estimate D2E/DX2                !
 ! D42   D(14,13,23,12)         -0.0011         estimate D2E/DX2                !
 ! D43   D(15,13,23,11)         -0.0007         estimate D2E/DX2                !
 ! D44   D(15,13,23,12)        179.9987         estimate D2E/DX2                !
 ! D45   D(13,14,16,19)          0.0            estimate D2E/DX2                !
 ! D46   D(13,14,16,20)       -180.0            estimate D2E/DX2                !
 ! D47   D(17,14,16,19)       -180.0            estimate D2E/DX2                !
 ! D48   D(17,14,16,20)          0.0            estimate D2E/DX2                !
 ! D49   D(13,15,18,19)          0.0            estimate D2E/DX2                !
 ! D50   D(13,15,18,21)        179.9999         estimate D2E/DX2                !
 ! D51   D(24,15,18,19)       -179.9998         estimate D2E/DX2                !
 ! D52   D(24,15,18,21)          0.0            estimate D2E/DX2                !
 ! D53   D(13,15,24,25)          0.0002         estimate D2E/DX2                !
 ! D54   D(18,15,24,25)       -179.9999         estimate D2E/DX2                !
 ! D55   D(14,16,19,18)          0.0001         estimate D2E/DX2                !
 ! D56   D(14,16,19,22)       -179.9999         estimate D2E/DX2                !
 ! D57   D(20,16,19,18)       -179.9999         estimate D2E/DX2                !
 ! D58   D(20,16,19,22)          0.0001         estimate D2E/DX2                !
 ! D59   D(15,18,19,16)         -0.0001         estimate D2E/DX2                !
 ! D60   D(15,18,19,22)        179.9999         estimate D2E/DX2                !
 ! D61   D(21,18,19,16)       -180.0            estimate D2E/DX2                !
 ! D62   D(21,18,19,22)          0.0            estimate D2E/DX2                !
 ! Qtot  GIC-1                 -20.0            Frozen                          !
 ! Ptot  GIC-2                 -20.0            Frozen                          !
 --------------------------------------------------------------------------------
 NOTE: GIC-type coordinates are in arbitrary units.
 Trust Radius=3.00D-01 FncErr=5.00D-06 GrdErr=5.00D-06 EigMax=2.50D+02 EigMin=1.00D-04
 Number of steps in this run=    143 maximum allowed number of steps=    150.
 GradGradGradGradGradGradGradGradGradGradGradGradGradGradGradGradGradGrad

 Leave Link  103 at Tue Oct 27 22:11:27 2020, MaxMem=  7784628224 cpu:               0.2 elap:               0.0
 (Enter /gpfs/loomis/apps/avx/software/Gaussian/16-C.01_AVX/g16/l202.exe)
                          Input orientation:                          
 ---------------------------------------------------------------------
 Center     Atomic      Atomic             Coordinates (Angstroms)
 Number     Number       Type             X           Y           Z
 ---------------------------------------------------------------------
      1          6           0        1.675762   -3.268438   -0.000022
      2          6           0        0.996560   -2.054151   -0.000021
      3          6           0        1.698102   -0.810546   -0.000022
      4          6           0        3.116997   -0.817873   -0.000022
      5          6           0        3.777369   -2.031576   -0.000022
      6          6           0        3.070568   -3.251376   -0.000022
      7          1           0        1.131182   -4.213474   -0.000021
      8          1           0        3.656081    0.130233   -0.000022
      9          1           0        4.868885   -2.049080   -0.000023
     10          1           0        3.619109   -4.194364   -0.000022
     11          7           0        0.918086    0.274383   -0.000022
     12         16           0       -0.734711   -1.761370   -0.000020
     13          6           0       -1.377136    1.018723    0.000003
     14          6           0       -2.781669    0.836635   -0.000000
     15          6           0       -0.890145    2.414611    0.000032
     16          6           0       -3.644635    1.927326    0.000025
     17          1           0       -3.186029   -0.176647   -0.000023
     18          6           0       -1.792687    3.492322    0.000056
     19          6           0       -3.163187    3.258332    0.000054
     20          1           0       -4.721698    1.750900    0.000022
     21          1           0       -1.377526    4.500592    0.000079
     22          1           0       -3.864496    4.092940    0.000075
     23          6           0       -0.410760   -0.012228   -0.000016
     24          8           0        0.397694    2.648604    0.000037
     25          1           0        0.838381    1.832917    0.000017
 ---------------------------------------------------------------------
                    Distance matrix (angstroms):
                    1          2          3          4          5
     1  C    0.000000
     2  C    1.391334   0.000000
     3  C    2.457993   1.427836   0.000000
     4  C    2.842961   2.454514   1.418914   0.000000
     5  C    2.438561   2.780901   2.411279   1.381726   0.000000
     6  C    1.394910   2.394756   2.800234   2.433946   1.409780
     7  H    1.090716   2.163515   3.449828   3.933646   3.429721
     8  H    3.933526   3.441596   2.172268   1.090649   2.165209
     9  H    3.418021   3.872328   3.404090   2.141257   1.091656
    10  H    2.152658   3.385008   3.891079   3.413621   2.168571
    11  N    3.622934   2.329856   1.336224   2.455246   3.673274
    12  S    2.842822   1.755853   2.612019   3.965582   4.520163
    13  C    5.263073   3.882909   3.578172   4.854927   5.989427
    14  C    6.059729   4.757274   4.773003   6.126309   7.158744
    15  C    6.235457   4.850720   4.135294   5.148411   6.446260
    16  C    7.436571   6.114969   6.003398   7.297657   8.411840
    17  H    5.761613   4.584656   4.925096   6.335559   7.206225
    18  C    7.598554   6.208322   5.540784   6.533206   7.844678
    19  C    8.124909   6.747293   6.339393   7.487066   8.726651
    20  H    8.131498   6.868543   6.911935   8.248863   9.302756
    21  H    8.347479   6.971438   6.137400   6.963247   8.321188
    22  H    9.213271   7.836874   7.415300   8.535651   9.793253
    23  C    3.867361   2.479919   2.254908   3.618582   4.649536
    24  O    6.053499   4.740733   3.695509   4.405800   5.772893
    25  H    5.169626   3.890285   2.779751   3.495537   4.855096
                    6          7          8          9         10
     6  C    0.000000
     7  H    2.164914   0.000000
     8  H    3.431924   5.024232   0.000000
     9  H    2.163205   4.319146   2.494053   0.000000
    10  H    1.090928   2.488001   4.324756   2.482777   0.000000
    11  N    4.130878   4.492913   2.741786   4.583370   5.221611
    12  S    4.086596   3.081294   4.780922   5.610977   4.987506
    13  C    6.165696   5.802374   5.111035   6.958749   7.220716
    14  C    7.138663   6.388584   6.476390   8.176694   8.141309
    15  C    6.913078   6.929449   5.087882   7.286354   8.000745
    16  C    8.480148   7.779322   7.518643   9.396373   9.499320
    17  H    6.971296   5.910523   6.848989   8.269682   7.902655
    18  C    8.314368   8.241863   6.402555   8.665084   9.400675
    19  C    9.013101   8.617974   7.502494   9.627190  10.076816
    20  H    9.259707   8.356432   8.533097  10.315965  10.242814
    21  H    8.937480   9.067997   6.666126   9.050738  10.028391
    22  H   10.101193   9.692952   8.500713  10.676907  11.166188
    23  C    4.755178   4.475271   4.069335   5.658923   5.807763
    24  O    6.477193   6.901168   4.118164   6.485352   7.563315
    25  H    5.552719   6.053477   3.292197   5.595968   6.637814
                   11         12         13         14         15
    11  N    0.000000
    12  S    2.622218   0.000000
    13  C    2.412900   2.853353   0.000000
    14  C    3.742234   3.307517   1.416287   0.000000
    15  C    2.801835   4.178872   1.478399   2.463305   0.000000
    16  C    4.852901   4.698312   2.442768   1.390797   2.797260
    17  H    4.128825   2.918956   2.168180   1.090985   3.462037
    18  C    4.207544   5.359160   2.508262   2.833860   1.405718
    19  C    5.055764   5.576280   2.864581   2.451565   2.424580
    20  H    5.829861   5.313389   3.423767   2.144666   3.888613
    21  H    4.809437   6.294869   3.481869   3.923799   2.142162
    22  H    6.120006   6.638411   3.954463   3.431623   3.415195
    23  C    1.359404   1.778887   1.413061   2.518289   2.473734
    24  O    2.430584   4.553044   2.409675   3.659451   1.308924
    25  H    1.560571   3.923457   2.360387   3.754643   1.823779
                   16         17         18         19         20
    16  C    0.000000
    17  H    2.153374   0.000000
    18  C    2.424650   3.924633   0.000000
    19  C    1.415404   3.435055   1.390332   0.000000
    20  H    1.091417   2.464491   3.407589   2.168250   0.000000
    21  H    3.429502   5.014703   1.090397   2.175269   4.329468
    22  H    2.176747   4.323158   2.157113   1.090140   2.493983
    23  C    3.770918   2.780136   3.767174   4.274625   4.657554
    24  O    4.106175   4.563455   2.347260   3.612705   5.197504
    25  H    4.484011   4.498247   3.110650   4.247865   5.560685
                   21         22         23         24         25
    21  H    0.000000
    22  H    2.520158   0.000000
    23  C    4.615212   5.364765   0.000000
    24  O    2.565398   4.500263   2.780940   0.000000
    25  H    3.467959   5.217735   2.228209   0.927120   0.000000
 Symmetry turned off by external request.
 Stoichiometry    C13H9NOS
 Framework group  C1[X(C13H9NOS)]
 Deg. of freedom    69
 Full point group                 C1      NOp   1
 Rotational constants (GHZ):           1.3695277           0.2859215           0.2365385
 Leave Link  202 at Tue Oct 27 22:11:27 2020, MaxMem=  7784628224 cpu:               0.2 elap:               0.1
 (Enter /gpfs/loomis/apps/avx/software/Gaussian/16-C.01_AVX/g16/l301.exe)
 Standard basis: CC-pVDZ (5D, 7F)
 Ernie: Thresh=  0.10000D-02 Tol=  0.10000D-05 Strict=F.
 Ernie:  40 primitive shells out of 425 were deleted.
   273 basis functions,   629 primitive gaussians,   289 cartesian basis functions
    59 alpha electrons       59 beta electrons
       nuclear repulsion energy      1097.6420488364 Hartrees.
 IExCor= 4639 DFT=T Ex+Corr=wB97XD ExCW=0 ScaHFX=  1.000000
 ScaDFX=  1.000000  1.000000  1.000000  1.000000 ScalE2=  1.000000  1.000000
 IRadAn=      5 IRanWt=     -1 IRanGd=            0 ICorTp=0 IEmpDi=121
 HFx  wShort=  0.000000 wLong=  0.200000 cFull=  0.222036 cShort=  0.000000 cLong=  0.777964
 DFx  wShort=  0.000000 wLong=  0.200000 cFull=  0.000000 cShort=  0.000000 cLong=  1.000000
 NAtoms=   25 NActive=   25 NUniq=   25 SFac= 1.00D+00 NAtFMM=   60 NAOKFM=F Big=F
 Integral buffers will be    131072 words long.
 Raffenetti 2 integral format.
 Two-electron integral symmetry is turned off.
 R6Disp:  Grimme-D2 Dispersion energy=       -0.0139617484 Hartrees.
 Nuclear repulsion after empirical dispersion term =     1097.6280870880 Hartrees.
 ------------------------------------------------------------------------------
 Polarizable Continuum Model (PCM)
 =================================
 Model                : PCM.
 Atomic radii         : UFF (Universal Force Field).
 Polarization charges : Total charges.
 Charge compensation  : None.
 Solution method      : On-the-fly selection.
 Cavity type          : Scaled VdW (van der Waals Surface) (Alpha=1.100).
 Cavity algorithm     : GePol (No added spheres)
                        Default sphere list used, NSphG=   25.
                        Lebedev-Laikov grids with approx.  5.0 points / Ang**2.
                        Smoothing algorithm: York/Karplus (Gamma=1.0000).
                        Polarization charges: spherical gaussians, with
                                              point-specific exponents (IZeta= 3).
                        Self-potential: point-specific (ISelfS= 7).
                        Self-field    : sphere-specific E.n sum rule (ISelfD= 2).
 1st derivatives      : Analytical E(r).r(x)/FMM algorithm (CHGder, D1EAlg=3).
                        Cavity 1st derivative terms included.
 Solvent              : CarbonTetraChloride, Eps=   2.228000 Eps(inf)=   2.131892
 ------------------------------------------------------------------------------
 GePol: Number of generator spheres                  =      25
 GePol: Total number of spheres                      =      25
 GePol: Number of exposed spheres                    =      25 (100.00%)
 GePol: Number of points                             =    2183
 GePol: Average weight of points                     =       0.13
 GePol: Minimum weight of points                     =   0.67D-08
 GePol: Maximum weight of points                     =    0.20577
 GePol: Number of points with low weight             =     137
 GePol: Fraction of low-weight points (<1% of avg)   =       6.28%
 GePol: Cavity surface area                          =    274.150 Ang**2
 GePol: Cavity volume                                =    293.432 Ang**3
 Leave Link  301 at Tue Oct 27 22:11:27 2020, MaxMem=  7784628224 cpu:               0.6 elap:               0.1
 (Enter /gpfs/loomis/apps/avx/software/Gaussian/16-C.01_AVX/g16/l302.exe)
 NPDir=0 NMtPBC=     1 NCelOv=     1 NCel=       1 NClECP=     1 NCelD=      1
         NCelK=      1 NCelE2=     1 NClLst=     1 CellRange=     0.0.
 One-electron integrals computed using PRISM.
 NBasis=   273 RedAO= T EigKep=  3.14D-04  NBF=   273
 NBsUse=   273 1.00D-06 EigRej= -1.00D+00 NBFU=   273
 Precomputing XC quadrature grid using
 IXCGrd= 4 IRadAn=           5 IRanWt=          -1 IRanGd=           0 AccXCQ= 0.00D+00.
 Generated NRdTot=       0 NPtTot=           0 NUsed=           0 NTot=          32
 NSgBfM=   288   288   288   288   288 MxSgAt=    25 MxSgA2=    25.
 Leave Link  302 at Tue Oct 27 22:11:28 2020, MaxMem=  7784628224 cpu:               7.9 elap:               1.1
 (Enter /gpfs/loomis/apps/avx/software/Gaussian/16-C.01_AVX/g16/l303.exe)
 DipDrv:  MaxL=1.
 Leave Link  303 at Tue Oct 27 22:11:28 2020, MaxMem=  7784628224 cpu:               0.6 elap:               0.2
 (Enter /gpfs/loomis/apps/avx/software/Gaussian/16-C.01_AVX/g16/l401.exe)
 ExpMin= 1.22D-01 ExpMax= 1.11D+05 ExpMxC= 1.07D+03 IAcc=3 IRadAn=         5 AccDes= 0.00D+00
 Harris functional with IExCor= 4639 and IRadAn=       5 diagonalized for initial guess.
 HarFok:  IExCor= 4639 AccDes= 0.00D+00 IRadAn=         5 IDoV= 1 UseB2=F ITyADJ=14
 ICtDFT=  3500011 ScaDFX=  1.000000  1.000000  1.000000  1.000000
 FoFCou: FMM=F IPFlag=           0 FMFlag=      100000 FMFlg1=           0
         NFxFlg=           0 DoJE=T BraDBF=F KetDBF=T FulRan=T
         wScrn=  0.000000 ICntrl=       500 IOpCl=  0 I1Cent=   200000004 NGrid=           0
         NMat0=    1 NMatS0=      1 NMatT0=    0 NMatD0=    1 NMtDS0=    0 NMtDT0=    0
 Symmetry not used in FoFCou.
 Harris En= -994.441406903938    
 JPrj=0 DoOrth=F DoCkMO=F.
 Leave Link  401 at Tue Oct 27 22:11:31 2020, MaxMem=  7784628224 cpu:              19.4 elap:               2.8
 (Enter /gpfs/loomis/apps/avx/software/Gaussian/16-C.01_AVX/g16/l502.exe)
 Two-electron integral symmetry not used.
 Closed shell SCF:
 Using DIIS extrapolation, IDIIS=  1040.
 NGot=  7784628224 LenX=  7784455381 LenY=  7784371419
 Requested convergence on RMS density matrix=1.00D-08 within 128 cycles.
 Requested convergence on MAX density matrix=1.00D-06.
 Requested convergence on             energy=1.00D-06.
 No special actions if energy rises.
 Fock matrices will be formed incrementally for  20 cycles.

 Cycle   1  Pass 1  IDiag  1:
 FoFJK:  IHMeth= 1 ICntrl=       0 DoSepK=T KAlg= 0 I1Cent=           0 FoldK=F
 IRaf=         1 NMat=       1 IRICut=       1 DoRegI=T DoRafI=F ISym2E= 0 IDoP0=0 IntGTp=1.
 FoFCou: FMM=F IPFlag=           0 FMFlag=      100000 FMFlg1=           0
         NFxFlg=           0 DoJE=T BraDBF=F KetDBF=F FulRan=T
         wScrn=  0.000000 ICntrl=       500 IOpCl=  0 I1Cent=           0 NGrid=           0
         NMat0=    1 NMatS0=      1 NMatT0=    0 NMatD0=    1 NMtDS0=    0 NMtDT0=    0
 Symmetry not used in FoFCou.
 Inv3:  Mode=1 IEnd=    14296467.
 Iteration    1 A*A^-1 deviation from unit magnitude is 4.00D-15 for    998.
 Iteration    1 A*A^-1 deviation from orthogonality  is 3.61D-15 for   2181   2082.
 Iteration    1 A^-1*A deviation from unit magnitude is 4.00D-15 for   2181.
 Iteration    1 A^-1*A deviation from orthogonality  is 3.19D-15 for   2181   2082.
 E= -1028.58695877332    
 DIIS: error= 2.49D-02 at cycle   1 NSaved=   1.
 NSaved= 1 IEnMin= 1 EnMin= -1028.58695877332     IErMin= 1 ErrMin= 2.49D-02
 ErrMax= 2.49D-02  0.00D+00 EMaxC= 1.00D-01 BMatC= 3.82D-01 BMatP= 3.82D-01
 IDIUse=3 WtCom= 7.51D-01 WtEn= 2.49D-01
 Coeff-Com:  0.100D+01
 Coeff-En:   0.100D+01
 Coeff:      0.100D+01
 Gap=     0.360 Goal=   None    Shift=    0.000
 GapD=    0.360 DampG=1.000 DampE=0.500 DampFc=0.5000 IDamp=-1.
 Damping current iteration by 5.00D-01
 RMSDP=3.46D-03 MaxDP=2.24D-01              OVMax= 1.74D-01

 Cycle   2  Pass 1  IDiag  1:
 RMSU=  1.72D-03    CP:  9.93D-01
 E= -1028.70053570173     Delta-E=       -0.113576928406 Rises=F Damp=T
 DIIS: error= 1.08D-02 at cycle   2 NSaved=   2.
 NSaved= 2 IEnMin= 2 EnMin= -1028.70053570173     IErMin= 2 ErrMin= 1.08D-02
 ErrMax= 1.08D-02  0.00D+00 EMaxC= 1.00D-01 BMatC= 5.71D-02 BMatP= 3.82D-01
 IDIUse=3 WtCom= 8.92D-01 WtEn= 1.08D-01
 Coeff-Com: -0.311D+00 0.131D+01
 Coeff-En:   0.000D+00 0.100D+01
 Coeff:     -0.277D+00 0.128D+01
 Gap=     0.305 Goal=   None    Shift=    0.000
 RMSDP=1.13D-03 MaxDP=2.17D-02 DE=-1.14D-01 OVMax= 1.06D-01

 Cycle   3  Pass 1  IDiag  1:
 RMSU=  1.07D-03    CP:  9.91D-01  1.21D+00
 E= -1028.80058362740     Delta-E=       -0.100047925665 Rises=F Damp=F
 DIIS: error= 5.58D-03 at cycle   3 NSaved=   3.
 NSaved= 3 IEnMin= 3 EnMin= -1028.80058362740     IErMin= 3 ErrMin= 5.58D-03
 ErrMax= 5.58D-03  0.00D+00 EMaxC= 1.00D-01 BMatC= 1.19D-02 BMatP= 5.71D-02
 IDIUse=3 WtCom= 9.44D-01 WtEn= 5.58D-02
 Coeff-Com: -0.202D+00 0.472D+00 0.730D+00
 Coeff-En:   0.000D+00 0.000D+00 0.100D+01
 Coeff:     -0.191D+00 0.446D+00 0.745D+00
 Gap=     0.265 Goal=   None    Shift=    0.000
 RMSDP=4.81D-04 MaxDP=1.58D-02 DE=-1.00D-01 OVMax= 3.77D-02

 Cycle   4  Pass 1  IDiag  1:
 RMSU=  3.62D-04    CP:  9.89D-01  1.37D+00  8.62D-01
 E= -1028.81217334281     Delta-E=       -0.011589715413 Rises=F Damp=F
 DIIS: error= 1.87D-03 at cycle   4 NSaved=   4.
 NSaved= 4 IEnMin= 4 EnMin= -1028.81217334281     IErMin= 4 ErrMin= 1.87D-03
 ErrMax= 1.87D-03  0.00D+00 EMaxC= 1.00D-01 BMatC= 1.40D-03 BMatP= 1.19D-02
 IDIUse=3 WtCom= 9.81D-01 WtEn= 1.87D-02
 Coeff-Com: -0.739D-01 0.146D+00 0.354D+00 0.574D+00
 Coeff-En:   0.000D+00 0.000D+00 0.000D+00 0.100D+01
 Coeff:     -0.725D-01 0.144D+00 0.347D+00 0.582D+00
 Gap=     0.263 Goal=   None    Shift=    0.000
 RMSDP=1.46D-04 MaxDP=7.57D-03 DE=-1.16D-02 OVMax= 1.04D-02

 Cycle   5  Pass 1  IDiag  1:
 RMSU=  9.88D-05    CP:  9.89D-01  1.38D+00  9.24D-01  7.69D-01
 E= -1028.81364990157     Delta-E=       -0.001476558760 Rises=F Damp=F
 DIIS: error= 3.94D-04 at cycle   5 NSaved=   5.
 NSaved= 5 IEnMin= 5 EnMin= -1028.81364990157     IErMin= 5 ErrMin= 3.94D-04
 ErrMax= 3.94D-04  0.00D+00 EMaxC= 1.00D-01 BMatC= 5.89D-05 BMatP= 1.40D-03
 IDIUse=3 WtCom= 9.96D-01 WtEn= 3.94D-03
 Coeff-Com: -0.394D-02 0.205D-02 0.479D-01 0.189D+00 0.765D+00
 Coeff-En:   0.000D+00 0.000D+00 0.000D+00 0.000D+00 0.100D+01
 Coeff:     -0.393D-02 0.204D-02 0.477D-01 0.188D+00 0.766D+00
 Gap=     0.263 Goal=   None    Shift=    0.000
 RMSDP=4.92D-05 MaxDP=1.62D-03 DE=-1.48D-03 OVMax= 4.46D-03

 Cycle   6  Pass 1  IDiag  1:
 RMSU=  3.41D-05    CP:  9.89D-01  1.38D+00  9.41D-01  8.50D-01  1.04D+00
 E= -1028.81375480491     Delta-E=       -0.000104903340 Rises=F Damp=F
 DIIS: error= 1.67D-04 at cycle   6 NSaved=   6.
 NSaved= 6 IEnMin= 6 EnMin= -1028.81375480491     IErMin= 6 ErrMin= 1.67D-04
 ErrMax= 1.67D-04  0.00D+00 EMaxC= 1.00D-01 BMatC= 9.74D-06 BMatP= 5.89D-05
 IDIUse=3 WtCom= 9.98D-01 WtEn= 1.67D-03
 Coeff-Com:  0.145D-01-0.302D-01-0.540D-01-0.441D-01 0.247D+00 0.867D+00
 Coeff-En:   0.000D+00 0.000D+00 0.000D+00 0.000D+00 0.000D+00 0.100D+01
 Coeff:      0.145D-01-0.302D-01-0.539D-01-0.440D-01 0.246D+00 0.867D+00
 Gap=     0.264 Goal=   None    Shift=    0.000
 RMSDP=2.92D-05 MaxDP=1.46D-03 DE=-1.05D-04 OVMax= 2.35D-03

 Cycle   7  Pass 1  IDiag  1:
 RMSU=  1.63D-05    CP:  9.89D-01  1.38D+00  9.52D-01  8.85D-01  1.20D+00
                    CP:  1.14D+00
 E= -1028.81378086472     Delta-E=       -0.000026059809 Rises=F Damp=F
 DIIS: error= 8.76D-05 at cycle   7 NSaved=   7.
 NSaved= 7 IEnMin= 7 EnMin= -1028.81378086472     IErMin= 7 ErrMin= 8.76D-05
 ErrMax= 8.76D-05  0.00D+00 EMaxC= 1.00D-01 BMatC= 2.19D-06 BMatP= 9.74D-06
 IDIUse=1 WtCom= 1.00D+00 WtEn= 0.00D+00
 Coeff-Com:  0.706D-02-0.136D-01-0.312D-01-0.479D-01-0.161D-01 0.378D+00
 Coeff-Com:  0.724D+00
 Coeff:      0.706D-02-0.136D-01-0.312D-01-0.479D-01-0.161D-01 0.378D+00
 Coeff:      0.724D+00
 Gap=     0.264 Goal=   None    Shift=    0.000
 RMSDP=1.05D-05 MaxDP=5.16D-04 DE=-2.61D-05 OVMax= 1.15D-03

 Cycle   8  Pass 1  IDiag  1:
 RMSU=  6.19D-06    CP:  9.89D-01  1.38D+00  9.54D-01  8.92D-01  1.24D+00
                    CP:  1.32D+00  1.09D+00
 E= -1028.81378514148     Delta-E=       -0.000004276763 Rises=F Damp=F
 DIIS: error= 2.57D-05 at cycle   8 NSaved=   8.
 NSaved= 8 IEnMin= 8 EnMin= -1028.81378514148     IErMin= 8 ErrMin= 2.57D-05
 ErrMax= 2.57D-05  0.00D+00 EMaxC= 1.00D-01 BMatC= 1.92D-07 BMatP= 2.19D-06
 IDIUse=1 WtCom= 1.00D+00 WtEn= 0.00D+00
 Coeff-Com: -0.111D-02 0.249D-02 0.311D-02-0.412D-03-0.388D-01-0.543D-01
 Coeff-Com:  0.173D+00 0.916D+00
 Coeff:     -0.111D-02 0.249D-02 0.311D-02-0.412D-03-0.388D-01-0.543D-01
 Coeff:      0.173D+00 0.916D+00
 Gap=     0.264 Goal=   None    Shift=    0.000
 RMSDP=4.29D-06 MaxDP=1.28D-04 DE=-4.28D-06 OVMax= 5.71D-04

 Cycle   9  Pass 1  IDiag  1:
 RMSU=  2.02D-06    CP:  9.89D-01  1.38D+00  9.54D-01  8.92D-01  1.25D+00
                    CP:  1.38D+00  1.27D+00  1.14D+00
 E= -1028.81378572018     Delta-E=       -0.000000578701 Rises=F Damp=F
 DIIS: error= 1.40D-05 at cycle   9 NSaved=   9.
 NSaved= 9 IEnMin= 9 EnMin= -1028.81378572018     IErMin= 9 ErrMin= 1.40D-05
 ErrMax= 1.40D-05  0.00D+00 EMaxC= 1.00D-01 BMatC= 3.81D-08 BMatP= 1.92D-07
 IDIUse=1 WtCom= 1.00D+00 WtEn= 0.00D+00
 Coeff-Com: -0.117D-02 0.234D-02 0.452D-02 0.568D-02-0.124D-01-0.664D-01
 Coeff-Com: -0.183D-01 0.327D+00 0.759D+00
 Coeff:     -0.117D-02 0.234D-02 0.452D-02 0.568D-02-0.124D-01-0.664D-01
 Coeff:     -0.183D-01 0.327D+00 0.759D+00
 Gap=     0.264 Goal=   None    Shift=    0.000
 RMSDP=1.64D-06 MaxDP=5.24D-05 DE=-5.79D-07 OVMax= 1.58D-04

 Cycle  10  Pass 1  IDiag  1:
 RMSU=  8.91D-07    CP:  9.89D-01  1.38D+00  9.54D-01  8.92D-01  1.26D+00
                    CP:  1.40D+00  1.32D+00  1.29D+00  1.11D+00
 E= -1028.81378581754     Delta-E=       -0.000000097356 Rises=F Damp=F
 DIIS: error= 7.81D-06 at cycle  10 NSaved=  10.
 NSaved=10 IEnMin=10 EnMin= -1028.81378581754     IErMin=10 ErrMin= 7.81D-06
 ErrMax= 7.81D-06  0.00D+00 EMaxC= 1.00D-01 BMatC= 7.30D-09 BMatP= 3.81D-08
 IDIUse=1 WtCom= 1.00D+00 WtEn= 0.00D+00
 Coeff-Com: -0.227D-03 0.417D-03 0.108D-02 0.241D-02 0.224D-02-0.193D-01
 Coeff-Com: -0.376D-01-0.409D-01 0.278D+00 0.813D+00
 Coeff:     -0.227D-03 0.417D-03 0.108D-02 0.241D-02 0.224D-02-0.193D-01
 Coeff:     -0.376D-01-0.409D-01 0.278D+00 0.813D+00
 Gap=     0.264 Goal=   None    Shift=    0.000
 RMSDP=8.74D-07 MaxDP=2.56D-05 DE=-9.74D-08 OVMax= 1.39D-04

 Cycle  11  Pass 1  IDiag  1:
 RMSU=  4.25D-07    CP:  9.89D-01  1.38D+00  9.54D-01  8.92D-01  1.26D+00
                    CP:  1.40D+00  1.34D+00  1.34D+00  1.34D+00  1.13D+00
 E= -1028.81378584334     Delta-E=       -0.000000025801 Rises=F Damp=F
 DIIS: error= 3.36D-06 at cycle  11 NSaved=  11.
 NSaved=11 IEnMin=11 EnMin= -1028.81378584334     IErMin=11 ErrMin= 3.36D-06
 ErrMax= 3.36D-06  0.00D+00 EMaxC= 1.00D-01 BMatC= 1.88D-09 BMatP= 7.30D-09
 IDIUse=1 WtCom= 1.00D+00 WtEn= 0.00D+00
 Coeff-Com:  0.144D-03-0.301D-03-0.493D-03-0.982D-04 0.325D-02 0.403D-02
 Coeff-Com: -0.690D-02-0.673D-01-0.628D-01 0.319D+00 0.811D+00
 Coeff:      0.144D-03-0.301D-03-0.493D-03-0.982D-04 0.325D-02 0.403D-02
 Coeff:     -0.690D-02-0.673D-01-0.628D-01 0.319D+00 0.811D+00
 Gap=     0.264 Goal=   None    Shift=    0.000
 RMSDP=3.91D-07 MaxDP=9.03D-06 DE=-2.58D-08 OVMax= 6.16D-05

 Cycle  12  Pass 1  IDiag  1:
 RMSU=  1.62D-07    CP:  9.89D-01  1.38D+00  9.54D-01  8.92D-01  1.26D+00
                    CP:  1.41D+00  1.35D+00  1.36D+00  1.44D+00  1.39D+00
                    CP:  1.15D+00
 E= -1028.81378584918     Delta-E=       -0.000000005843 Rises=F Damp=F
 DIIS: error= 1.17D-06 at cycle  12 NSaved=  12.
 NSaved=12 IEnMin=12 EnMin= -1028.81378584918     IErMin=12 ErrMin= 1.17D-06
 ErrMax= 1.17D-06  0.00D+00 EMaxC= 1.00D-01 BMatC= 2.75D-10 BMatP= 1.88D-09
 IDIUse=1 WtCom= 1.00D+00 WtEn= 0.00D+00
 Coeff-Com:  0.105D-03-0.205D-03-0.451D-03-0.638D-03 0.749D-03 0.580D-02
 Coeff-Com:  0.767D-02-0.107D-01-0.106D+00-0.874D-01 0.192D+00 0.998D+00
 Coeff:      0.105D-03-0.205D-03-0.451D-03-0.638D-03 0.749D-03 0.580D-02
 Coeff:      0.767D-02-0.107D-01-0.106D+00-0.874D-01 0.192D+00 0.998D+00
 Gap=     0.264 Goal=   None    Shift=    0.000
 RMSDP=2.42D-07 MaxDP=5.81D-06 DE=-5.84D-09 OVMax= 3.85D-05

 Cycle  13  Pass 1  IDiag  1:
 RMSU=  6.85D-08    CP:  9.89D-01  1.38D+00  9.54D-01  8.92D-01  1.26D+00
                    CP:  1.41D+00  1.35D+00  1.36D+00  1.50D+00  1.54D+00
                    CP:  1.42D+00  1.31D+00
 E= -1028.81378585063     Delta-E=       -0.000000001451 Rises=F Damp=F
 DIIS: error= 4.13D-07 at cycle  13 NSaved=  13.
 NSaved=13 IEnMin=13 EnMin= -1028.81378585063     IErMin=13 ErrMin= 4.13D-07
 ErrMax= 4.13D-07  0.00D+00 EMaxC= 1.00D-01 BMatC= 3.19D-11 BMatP= 2.75D-10
 IDIUse=1 WtCom= 1.00D+00 WtEn= 0.00D+00
 Coeff-Com: -0.464D-05 0.117D-04-0.361D-05-0.917D-04-0.199D-03 0.435D-03
 Coeff-Com:  0.274D-02 0.843D-02-0.130D-01-0.542D-01-0.992D-01 0.206D+00
 Coeff-Com:  0.949D+00
 Coeff:     -0.464D-05 0.117D-04-0.361D-05-0.917D-04-0.199D-03 0.435D-03
 Coeff:      0.274D-02 0.843D-02-0.130D-01-0.542D-01-0.992D-01 0.206D+00
 Coeff:      0.949D+00
 Gap=     0.264 Goal=   None    Shift=    0.000
 RMSDP=6.99D-08 MaxDP=1.55D-06 DE=-1.45D-09 OVMax= 1.04D-05

 Cycle  14  Pass 1  IDiag  1:
 RMSU=  2.46D-08    CP:  9.89D-01  1.38D+00  9.54D-01  8.92D-01  1.26D+00
                    CP:  1.41D+00  1.35D+00  1.37D+00  1.51D+00  1.58D+00
                    CP:  1.50D+00  1.52D+00  1.24D+00
 E= -1028.81378585075     Delta-E=       -0.000000000121 Rises=F Damp=F
 DIIS: error= 1.04D-07 at cycle  14 NSaved=  14.
 NSaved=14 IEnMin=14 EnMin= -1028.81378585075     IErMin=14 ErrMin= 1.04D-07
 ErrMax= 1.04D-07  0.00D+00 EMaxC= 1.00D-01 BMatC= 3.94D-12 BMatP= 3.19D-11
 IDIUse=1 WtCom= 1.00D+00 WtEn= 0.00D+00
 Coeff-Com: -0.107D-04 0.218D-04 0.398D-04 0.276D-04-0.122D-03-0.427D-03
 Coeff-Com:  0.119D-03 0.349D-02 0.499D-02-0.616D-02-0.492D-01-0.268D-01
 Coeff-Com:  0.297D+00 0.777D+00
 Coeff:     -0.107D-04 0.218D-04 0.398D-04 0.276D-04-0.122D-03-0.427D-03
 Coeff:      0.119D-03 0.349D-02 0.499D-02-0.616D-02-0.492D-01-0.268D-01
 Coeff:      0.297D+00 0.777D+00
 Gap=     0.264 Goal=   None    Shift=    0.000
 RMSDP=1.56D-08 MaxDP=3.71D-07 DE=-1.21D-10 OVMax= 2.12D-06

 Cycle  15  Pass 1  IDiag  1:
 RMSU=  8.45D-09    CP:  9.89D-01  1.38D+00  9.54D-01  8.92D-01  1.26D+00
                    CP:  1.41D+00  1.35D+00  1.37D+00  1.51D+00  1.58D+00
                    CP:  1.50D+00  1.57D+00  1.36D+00  1.11D+00
 E= -1028.81378585077     Delta-E=       -0.000000000018 Rises=F Damp=F
 DIIS: error= 5.16D-08 at cycle  15 NSaved=  15.
 NSaved=15 IEnMin=15 EnMin= -1028.81378585077     IErMin=15 ErrMin= 5.16D-08
 ErrMax= 5.16D-08  0.00D+00 EMaxC= 1.00D-01 BMatC= 5.57D-13 BMatP= 3.94D-12
 IDIUse=1 WtCom= 1.00D+00 WtEn= 0.00D+00
 Coeff-Com: -0.224D-05 0.408D-05 0.131D-04 0.251D-04-0.415D-05-0.230D-03
 Coeff-Com: -0.521D-03-0.435D-03 0.377D-02 0.876D-02 0.267D-02-0.482D-01
 Coeff-Com: -0.854D-01 0.207D+00 0.912D+00
 Coeff:     -0.224D-05 0.408D-05 0.131D-04 0.251D-04-0.415D-05-0.230D-03
 Coeff:     -0.521D-03-0.435D-03 0.377D-02 0.876D-02 0.267D-02-0.482D-01
 Coeff:     -0.854D-01 0.207D+00 0.912D+00
 Gap=     0.264 Goal=   None    Shift=    0.000
 RMSDP=7.91D-09 MaxDP=1.77D-07 DE=-1.75D-11 OVMax= 9.33D-07

 Error on total polarization charges =  0.00819
 SCF Done:  E(RwB97XD) =  -1028.81378585     A.U. after   15 cycles
            NFock= 15  Conv=0.79D-08     -V/T= 2.0048
 KE= 1.023909987658D+03 PE=-4.607561073382D+03 EE= 1.457209212785D+03
 Leave Link  502 at Tue Oct 27 22:12:55 2020, MaxMem=  7784628224 cpu:             824.5 elap:              84.3
 (Enter /gpfs/loomis/apps/avx/software/Gaussian/16-C.01_AVX/g16/l601.exe)
 Copying SCF densities to generalized density rwf, IOpCl= 0 IROHF=0.

 **********************************************************************

            Population analysis using the SCF Density.

 **********************************************************************

 Alpha  occ. eigenvalues --  -89.09017 -19.27810 -14.46509 -10.39669 -10.38189
 Alpha  occ. eigenvalues --  -10.34855 -10.34690 -10.32637 -10.32311 -10.32159
 Alpha  occ. eigenvalues --  -10.32001 -10.31461 -10.31411 -10.31310 -10.30519
 Alpha  occ. eigenvalues --  -10.30448  -8.10964  -6.05814  -6.05470  -6.05024
 Alpha  occ. eigenvalues --   -1.18863  -1.08308  -0.96753  -0.95696  -0.91690
 Alpha  occ. eigenvalues --   -0.88833  -0.84979  -0.84588  -0.82576  -0.76220
 Alpha  occ. eigenvalues --   -0.71284  -0.70228  -0.69592  -0.68468  -0.64038
 Alpha  occ. eigenvalues --   -0.60408  -0.59080  -0.58603  -0.55947  -0.54551
 Alpha  occ. eigenvalues --   -0.53921  -0.53167  -0.52915  -0.51000  -0.50577
 Alpha  occ. eigenvalues --   -0.49373  -0.47937  -0.45913  -0.45629  -0.44804
 Alpha  occ. eigenvalues --   -0.43729  -0.43026  -0.42352  -0.39900  -0.36945
 Alpha  occ. eigenvalues --   -0.36470  -0.32173  -0.31428  -0.28119
 Alpha virt. eigenvalues --   -0.01712   0.05153   0.07009   0.07138   0.07596
 Alpha virt. eigenvalues --    0.11168   0.13801   0.15190   0.16200   0.18066
 Alpha virt. eigenvalues --    0.18632   0.21143   0.21844   0.22334   0.22802
 Alpha virt. eigenvalues --    0.23624   0.24066   0.24650   0.28422   0.30704
 Alpha virt. eigenvalues --    0.32213   0.33372   0.35208   0.36343   0.37096
 Alpha virt. eigenvalues --    0.37888   0.38590   0.40819   0.43798   0.45161
 Alpha virt. eigenvalues --    0.47235   0.48174   0.50631   0.51515   0.51726
 Alpha virt. eigenvalues --    0.52191   0.53475   0.54345   0.55137   0.55829
 Alpha virt. eigenvalues --    0.55930   0.56405   0.57320   0.57811   0.58135
 Alpha virt. eigenvalues --    0.58659   0.58923   0.59292   0.59845   0.60320
 Alpha virt. eigenvalues --    0.60405   0.60754   0.62256   0.62516   0.63452
 Alpha virt. eigenvalues --    0.64457   0.65865   0.66576   0.67937   0.69127
 Alpha virt. eigenvalues --    0.70460   0.70878   0.72327   0.72802   0.73093
 Alpha virt. eigenvalues --    0.73347   0.74338   0.75459   0.76202   0.77888
 Alpha virt. eigenvalues --    0.79051   0.79337   0.80114   0.82083   0.82277
 Alpha virt. eigenvalues --    0.83412   0.89081   0.90292   0.92227   0.93579
 Alpha virt. eigenvalues --    0.95064   0.95169   0.95873   0.96801   0.97096
 Alpha virt. eigenvalues --    0.98363   0.99143   1.00179   1.00483   1.01958
 Alpha virt. eigenvalues --    1.02655   1.05083   1.06271   1.07540   1.08280
 Alpha virt. eigenvalues --    1.08445   1.08671   1.09396   1.10969   1.11556
 Alpha virt. eigenvalues --    1.12377   1.12568   1.13117   1.15037   1.15657
 Alpha virt. eigenvalues --    1.16292   1.19263   1.20520   1.22191   1.23331
 Alpha virt. eigenvalues --    1.25473   1.28821   1.33384   1.34565   1.34816
 Alpha virt. eigenvalues --    1.35707   1.36208   1.38479   1.42446   1.45829
 Alpha virt. eigenvalues --    1.47722   1.49015   1.51002   1.53675   1.53972
 Alpha virt. eigenvalues --    1.54863   1.56200   1.56727   1.57216   1.57697
 Alpha virt. eigenvalues --    1.58797   1.59631   1.62236   1.66189   1.66547
 Alpha virt. eigenvalues --    1.68697   1.69105   1.70069   1.70390   1.71318
 Alpha virt. eigenvalues --    1.72397   1.72665   1.72789   1.73611   1.74052
 Alpha virt. eigenvalues --    1.76311   1.77234   1.80128   1.81154   1.82359
 Alpha virt. eigenvalues --    1.82537   1.83549   1.85034   1.85451   1.85532
 Alpha virt. eigenvalues --    1.86848   1.88397   1.88582   1.89713   1.92173
 Alpha virt. eigenvalues --    1.92462   1.93140   1.93640   1.94839   1.95077
 Alpha virt. eigenvalues --    2.00088   2.00600   2.02461   2.03841   2.04524
 Alpha virt. eigenvalues --    2.06318   2.08073   2.08745   2.11574   2.12426
 Alpha virt. eigenvalues --    2.14502   2.17640   2.20772   2.23747   2.24560
 Alpha virt. eigenvalues --    2.26594   2.28507   2.37107   2.38113   2.41034
 Alpha virt. eigenvalues --    2.41517   2.41596   2.46667   2.47243   2.47760
 Alpha virt. eigenvalues --    2.48049   2.50975   2.53304   2.54740   2.62551
 Alpha virt. eigenvalues --    2.63498   2.73107   2.73385   2.75309   2.80707
 Alpha virt. eigenvalues --    2.81930   2.84222   2.86560   2.90756   2.94505
 Alpha virt. eigenvalues --    3.02687   3.05663   3.10876   3.19935   3.33739
 Alpha virt. eigenvalues --    3.49667   3.57133   3.65980   4.03109
          Condensed to atoms (all electrons):
               1          2          3          4          5          6
     1  C    4.745169   0.459337   0.008310  -0.052863  -0.013186   0.525022
     2  C    0.459337   5.324203   0.342070  -0.039088  -0.065419  -0.008960
     3  C    0.008310   0.342070   4.749320   0.495156  -0.005785  -0.064122
     4  C   -0.052863  -0.039088   0.495156   4.774813   0.525503  -0.014028
     5  C   -0.013186  -0.065419  -0.005785   0.525503   4.732325   0.490303
     6  C    0.525022  -0.008960  -0.064122  -0.014028   0.490303   4.745364
     7  H    0.401416  -0.038519   0.008342  -0.000479   0.008117  -0.039384
     8  H   -0.000943   0.012005  -0.030530   0.392467  -0.044342   0.007939
     9  H    0.008872  -0.000663   0.008672  -0.039298   0.404874  -0.045470
    10  H   -0.042138   0.009693  -0.000574   0.008691  -0.043807   0.405836
    11  N    0.007970  -0.061271   0.482191  -0.039350   0.003091   0.000058
    12  S   -0.064927   0.343884  -0.104401   0.006866   0.000224   0.003585
    13  C   -0.000170   0.003607   0.008187  -0.000754   0.000010   0.000002
    14  C   -0.000006   0.000037   0.000242   0.000006  -0.000000  -0.000000
    15  C    0.000004  -0.000183  -0.000312   0.000043  -0.000000   0.000000
    16  C    0.000000  -0.000002   0.000005  -0.000000   0.000000   0.000000
    17  H   -0.000003   0.000065   0.000001  -0.000000   0.000000  -0.000000
    18  C    0.000000   0.000006  -0.000030  -0.000000  -0.000000   0.000000
    19  C   -0.000000   0.000000   0.000002  -0.000000   0.000000   0.000000
    20  H   -0.000000  -0.000000  -0.000000   0.000000   0.000000  -0.000000
    21  H   -0.000000  -0.000000   0.000001   0.000000   0.000000   0.000000
    22  H    0.000000  -0.000000  -0.000000  -0.000000   0.000000  -0.000000
    23  C    0.004430  -0.054483  -0.127461   0.000261   0.000240  -0.000170
    24  O    0.000001  -0.000018  -0.001986  -0.000082  -0.000001  -0.000000
    25  H   -0.000073   0.002630  -0.005726  -0.000996  -0.000001   0.000012
               7          8          9         10         11         12
     1  C    0.401416  -0.000943   0.008872  -0.042138   0.007970  -0.064927
     2  C   -0.038519   0.012005  -0.000663   0.009693  -0.061271   0.343884
     3  C    0.008342  -0.030530   0.008672  -0.000574   0.482191  -0.104401
     4  C   -0.000479   0.392467  -0.039298   0.008691  -0.039350   0.006866
     5  C    0.008117  -0.044342   0.404874  -0.043807   0.003091   0.000224
     6  C   -0.039384   0.007939  -0.045470   0.405836   0.000058   0.003585
     7  H    0.661761   0.000035  -0.000150  -0.012023  -0.000123  -0.006818
     8  H    0.000035   0.659810  -0.012489  -0.000127  -0.001406  -0.000141
     9  H   -0.000150  -0.012489   0.669196  -0.012371  -0.000110   0.000021
    10  H   -0.012023  -0.000127  -0.012371   0.666490  -0.000001  -0.000148
    11  N   -0.000123  -0.001406  -0.000110  -0.000001   6.498161  -0.074493
    12  S   -0.006818  -0.000141   0.000021  -0.000148  -0.074493  15.480370
    13  C    0.000005   0.000046  -0.000000  -0.000000  -0.015172  -0.061849
    14  C    0.000000   0.000001   0.000000  -0.000000   0.003437  -0.006173
    15  C   -0.000000  -0.000035   0.000000   0.000000  -0.019864   0.004182
    16  C   -0.000000  -0.000000  -0.000000   0.000000  -0.000094  -0.000045
    17  H    0.000001   0.000000  -0.000000  -0.000000   0.000213   0.006694
    18  C   -0.000000  -0.000000  -0.000000  -0.000000  -0.000512  -0.000116
    19  C    0.000000   0.000000  -0.000000  -0.000000   0.000051   0.000021
    20  H    0.000000  -0.000000   0.000000   0.000000   0.000001   0.000000
    21  H   -0.000000   0.000000  -0.000000   0.000000   0.000014   0.000003
    22  H    0.000000  -0.000000  -0.000000  -0.000000  -0.000000  -0.000000
    23  C    0.000072  -0.000963   0.000008   0.000004   0.535696   0.313804
    24  O   -0.000000  -0.000192   0.000000  -0.000000  -0.063796  -0.000230
    25  H    0.000001   0.001373  -0.000005   0.000000   0.092228   0.002842
              13         14         15         16         17         18
     1  C   -0.000170  -0.000006   0.000004   0.000000  -0.000003   0.000000
     2  C    0.003607   0.000037  -0.000183  -0.000002   0.000065   0.000006
     3  C    0.008187   0.000242  -0.000312   0.000005   0.000001  -0.000030
     4  C   -0.000754   0.000006   0.000043  -0.000000  -0.000000  -0.000000
     5  C    0.000010  -0.000000  -0.000000   0.000000   0.000000  -0.000000
     6  C    0.000002  -0.000000   0.000000   0.000000  -0.000000   0.000000
     7  H    0.000005   0.000000  -0.000000  -0.000000   0.000001  -0.000000
     8  H    0.000046   0.000001  -0.000035  -0.000000   0.000000  -0.000000
     9  H   -0.000000   0.000000   0.000000  -0.000000  -0.000000  -0.000000
    10  H   -0.000000  -0.000000   0.000000   0.000000  -0.000000  -0.000000
    11  N   -0.015172   0.003437  -0.019864  -0.000094   0.000213  -0.000512
    12  S   -0.061849  -0.006173   0.004182  -0.000045   0.006694  -0.000116
    13  C    5.312298   0.492021   0.280293  -0.008444  -0.038061  -0.054820
    14  C    0.492021   4.791882  -0.006872   0.528968   0.401519  -0.053660
    15  C    0.280293  -0.006872   4.810975  -0.062323   0.007687   0.500968
    16  C   -0.008444   0.528968  -0.062323   4.745346  -0.035591  -0.017713
    17  H   -0.038061   0.401519   0.007687  -0.035591   0.670756  -0.000722
    18  C   -0.054820  -0.053660   0.500968  -0.017713  -0.000722   4.804743
    19  C   -0.049202  -0.018148  -0.009100   0.492291   0.008379   0.514592
    20  H    0.008782  -0.035617  -0.000256   0.401678  -0.012733   0.008399
    21  H    0.012284  -0.000434  -0.023527   0.007194   0.000042   0.379968
    22  H   -0.001056   0.009127   0.009072  -0.043629  -0.000154  -0.041938
    23  C    0.316654  -0.090554  -0.074409   0.007299  -0.020310   0.007223
    24  O   -0.086494   0.003726   0.522402   0.000014  -0.000057  -0.058267
    25  H   -0.034453  -0.000906  -0.014215  -0.000034   0.000016   0.005916
              19         20         21         22         23         24
     1  C   -0.000000  -0.000000  -0.000000   0.000000   0.004430   0.000001
     2  C    0.000000  -0.000000  -0.000000  -0.000000  -0.054483  -0.000018
     3  C    0.000002  -0.000000   0.000001  -0.000000  -0.127461  -0.001986
     4  C   -0.000000   0.000000   0.000000  -0.000000   0.000261  -0.000082
     5  C    0.000000   0.000000   0.000000   0.000000   0.000240  -0.000001
     6  C    0.000000  -0.000000   0.000000  -0.000000  -0.000170  -0.000000
     7  H    0.000000   0.000000  -0.000000   0.000000   0.000072  -0.000000
     8  H    0.000000  -0.000000   0.000000  -0.000000  -0.000963  -0.000192
     9  H   -0.000000   0.000000  -0.000000  -0.000000   0.000008   0.000000
    10  H   -0.000000   0.000000   0.000000  -0.000000   0.000004  -0.000000
    11  N    0.000051   0.000001   0.000014  -0.000000   0.535696  -0.063796
    12  S    0.000021   0.000000   0.000003  -0.000000   0.313804  -0.000230
    13  C   -0.049202   0.008782   0.012284  -0.001056   0.316654  -0.086494
    14  C   -0.018148  -0.035617  -0.000434   0.009127  -0.090554   0.003726
    15  C   -0.009100  -0.000256  -0.023527   0.009072  -0.074409   0.522402
    16  C    0.492291   0.401678   0.007194  -0.043629   0.007299   0.000014
    17  H    0.008379  -0.012733   0.000042  -0.000154  -0.020310  -0.000057
    18  C    0.514592   0.008399   0.379968  -0.041938   0.007223  -0.058267
    19  C    4.719903  -0.046871  -0.043987   0.406841   0.000569   0.002841
    20  H   -0.046871   0.677195  -0.000156  -0.011952  -0.000346   0.000003
    21  H   -0.043987  -0.000156   0.658945  -0.011977  -0.000421   0.002595
    22  H    0.406841  -0.011952  -0.011977   0.662592   0.000002  -0.000061
    23  C    0.000569  -0.000346  -0.000421   0.000002   5.104422   0.000154
    24  O    0.002841   0.000003   0.002595  -0.000061   0.000154   7.419511
    25  H   -0.000138  -0.000001   0.000070   0.000009   0.001133   0.380411
              25
     1  C   -0.000073
     2  C    0.002630
     3  C   -0.005726
     4  C   -0.000996
     5  C   -0.000001
     6  C    0.000012
     7  H    0.000001
     8  H    0.001373
     9  H   -0.000005
    10  H    0.000000
    11  N    0.092228
    12  S    0.002842
    13  C   -0.034453
    14  C   -0.000906
    15  C   -0.014215
    16  C   -0.000034
    17  H    0.000016
    18  C    0.005916
    19  C   -0.000138
    20  H   -0.000001
    21  H    0.000070
    22  H    0.000009
    23  C    0.001133
    24  O    0.380411
    25  H    0.472210
 Mulliken charges:
               1
     1  C    0.013779
     2  C   -0.228930
     3  C    0.238429
     4  C   -0.016869
     5  C    0.007852
     6  C   -0.005984
     7  H    0.017745
     8  H    0.017491
     9  H    0.018913
    10  H    0.020473
    11  N   -0.346918
    12  S    0.156844
    13  C   -0.083712
    14  C   -0.018597
    15  C    0.075472
    16  C   -0.014920
    17  H    0.012259
    18  C    0.005963
    19  C    0.021955
    20  H    0.011874
    21  H    0.019386
    22  H    0.023124
    23  C    0.077148
    24  O   -0.120476
    25  H    0.097698
 Sum of Mulliken charges =  -0.00000
 Mulliken charges with hydrogens summed into heavy atoms:
               1
     1  C    0.031524
     2  C   -0.228930
     3  C    0.238429
     4  C    0.000623
     5  C    0.026765
     6  C    0.014489
    11  N   -0.346918
    12  S    0.156844
    13  C   -0.083712
    14  C   -0.006338
    15  C    0.075472
    16  C   -0.003046
    18  C    0.025349
    19  C    0.045079
    23  C    0.077148
    24  O   -0.022779
 Electronic spatial extent (au):  <R**2>=           4347.2079
 Charge=             -0.0000 electrons
 Dipole moment (field-independent basis, Debye):
    X=             -0.4505    Y=             -1.9175    Z=             -0.0000  Tot=              1.9697
 Quadrupole moment (field-independent basis, Debye-Ang):
   XX=            -83.2656   YY=            -88.5686   ZZ=           -104.2895
   XY=             -7.1444   XZ=             -0.0001   YZ=              0.0002
 Traceless Quadrupole moment (field-independent basis, Debye-Ang):
   XX=              8.7756   YY=              3.4726   ZZ=            -12.2482
   XY=             -7.1444   XZ=             -0.0001   YZ=              0.0002
 Octapole moment (field-independent basis, Debye-Ang**2):
  XXX=              8.8602  YYY=            -14.4729  ZZZ=             -0.0000  XYY=             -6.9208
  XXY=              3.3272  XXZ=              0.0001  XZZ=              0.9792  YZZ=              3.1010
  YYZ=              0.0006  XYZ=             -0.0006
 Hexadecapole moment (field-independent basis, Debye-Ang**3):
 XXXX=          -2603.8519 YYYY=          -2601.6453 ZZZZ=           -113.4709 XXXY=            805.5540
 XXXZ=              0.0097 YYYX=            764.7509 YYYZ=             -0.0117 ZZZX=              0.0133
 ZZZY=             -0.0182 XXYY=           -846.3347 XXZZ=           -571.5923 YYZZ=           -549.7552
 XXYZ=             -0.0031 YYXZ=              0.0005 ZZXY=            356.8491
 N-N= 1.097628087088D+03 E-N=-4.607561076574D+03  KE= 1.023909987658D+03
 No NMR shielding tensors so no spin-rotation constants.
 Leave Link  601 at Tue Oct 27 22:12:56 2020, MaxMem=  7784628224 cpu:               1.9 elap:               0.3
 (Enter /gpfs/loomis/apps/avx/software/Gaussian/16-C.01_AVX/g16/l701.exe)
 ... and contract with generalized density number  0.
 Compute integral first derivatives.
 R6Disp: Adding Grimme-D2 dispersion energy 1st derivatives to the gradient.
 D1PCM: PCM CHGder 1st derivatives, ID1Alg=3 FixD1E=F DoIter=F DoCFld=F I1PDM=0.
 GePol: Maximum number of non-zero 1st derivatives   =     264
 Leave Link  701 at Tue Oct 27 22:12:59 2020, MaxMem=  7784628224 cpu:              24.2 elap:               3.5
 (Enter /gpfs/loomis/apps/avx/software/Gaussian/16-C.01_AVX/g16/l702.exe)
 L702 exits ... SP integral derivatives will be done elsewhere.
 Leave Link  702 at Tue Oct 27 22:12:59 2020, MaxMem=  7784628224 cpu:               0.2 elap:               0.1
 (Enter /gpfs/loomis/apps/avx/software/Gaussian/16-C.01_AVX/g16/l703.exe)
 Integral derivatives from FoFJK, PRISM(SPDF).
 Compute integral first derivatives, UseDBF=F ICtDFT=           0.
 Calling FoFJK, ICntrl=      2127 FMM=F ISym2X=0 I1Cent= 0 IOpClX= 0 NMat=1 NMatS=1 NMatT=0.
 FoFJK:  IHMeth= 1 ICntrl=    2127 DoSepK=T KAlg= 0 I1Cent=           0 FoldK=F
 IRaf=         1 NMat=       1 IRICut=       1 DoRegI=T DoRafI=F ISym2E= 0 IDoP0=0 IntGTp=1.
 FoFCou: FMM=F IPFlag=           0 FMFlag=      100000 FMFlg1=         800
         NFxFlg=           0 DoJE=F BraDBF=F KetDBF=F FulRan=T
         wScrn=  0.000000 ICntrl=      2527 IOpCl=  0 I1Cent=           0 NGrid=           0
         NMat0=    1 NMatS0=      1 NMatT0=    0 NMatD0=    1 NMtDS0=    0 NMtDT0=    0
 Symmetry not used in FoFCou.
 Leave Link  703 at Tue Oct 27 22:13:17 2020, MaxMem=  7784628224 cpu:             135.6 elap:              17.4
 (Enter /gpfs/loomis/apps/avx/software/Gaussian/16-C.01_AVX/g16/l716.exe)
 Dipole        =-1.77224585D-01-7.54408240D-01-1.58072400D-07
 -------------------------------------------------------------------
 Center     Atomic                   Forces (Hartrees/Bohr)
 Number     Number              X              Y              Z
 -------------------------------------------------------------------
      1        6           0.004947626   -0.005062746    0.000000005
      2        6           0.004608800    0.011146075   -0.000000107
      3        6           0.016473683   -0.038231619   -0.000000345
      4        6          -0.013656148    0.002239527   -0.000000026
      5        6           0.000527833   -0.005819338    0.000000022
      6        6          -0.003608776    0.003775254   -0.000000031
      7        1           0.000305195   -0.000284240   -0.000000032
      8        1          -0.000122996   -0.000007927   -0.000000004
      9        1          -0.000248229    0.000007135    0.000000001
     10        1          -0.000206086    0.000102473    0.000000011
     11        7          -0.055776714    0.007126731    0.000000466
     12       16           0.005213997    0.010896813    0.000000153
     13        6          -0.020792461    0.054021421    0.000000728
     14        6           0.009572994    0.006628412    0.000000174
     15        6          -0.019863619   -0.034025976   -0.000000599
     16        6          -0.002265242    0.004106594    0.000000126
     17        1          -0.001248368   -0.000874445    0.000000003
     18        6          -0.002964410   -0.004529496    0.000000091
     19        6           0.006445810   -0.016591062   -0.000000470
     20        1           0.000358872   -0.000139924    0.000000004
     21        1          -0.000067630    0.000061639   -0.000000029
     22        1          -0.000243031    0.000265369   -0.000000050
     23        6           0.057808942   -0.018837480   -0.000000387
     24        8          -0.023765105    0.081291944    0.000001898
     25        1           0.038565064   -0.057265132   -0.000001601
 -------------------------------------------------------------------
 Cartesian Forces:  Max     0.081291944 RMS     0.018809688
 Leave Link  716 at Tue Oct 27 22:13:17 2020, MaxMem=  7784628224 cpu:               0.3 elap:               0.1
 (Enter /gpfs/loomis/apps/avx/software/Gaussian/16-C.01_AVX/g16/l103.exe)

 GradGradGradGradGradGradGradGradGradGradGradGradGradGradGradGradGradGrad
 Berny optimization.
 FormGI is forming the generalized inverse of G from B-inverse, IUseBI=4.
 GSVD:  received Info=                   1 from GESDD.
 Internal  Forces:  Max     0.076451397 RMS     0.009723380
 Search for a local minimum.
 Step number   1 out of a maximum of  143
 All quantities printed in internal units (Hartrees-Bohrs-Radians)
 RMS Force = .97973D-02 SwitMx=.10000D-02 MixMth= 1
 Mixed Optimization -- RFO/linear search
 Second derivative matrix not updated -- first step.
 ITU=  0
     Eigenvalues ---    0.01360   0.01414   0.01635   0.01684   0.01775
     Eigenvalues ---    0.01816   0.01916   0.01963   0.01978   0.02010
     Eigenvalues ---    0.02022   0.02047   0.02048   0.02077   0.02103
     Eigenvalues ---    0.02113   0.02131   0.02139   0.02160   0.02181
     Eigenvalues ---    0.02200   0.02897   0.16000   0.16000   0.16000
     Eigenvalues ---    0.16000   0.16000   0.16000   0.16000   0.16003
     Eigenvalues ---    0.16103   0.22000   0.22029   0.22524   0.22586
     Eigenvalues ---    0.24470   0.24555   0.25000   0.25000   0.25000
     Eigenvalues ---    0.27186   0.29331   0.32514   0.34622   0.34649
     Eigenvalues ---    0.34699   0.34706   0.34730   0.34738   0.34767
     Eigenvalues ---    0.34796   0.37327   0.39672   0.40807   0.41529
     Eigenvalues ---    0.42863   0.42951   0.43758   0.44622   0.46089
     Eigenvalues ---    0.46273   0.46644   0.48138   0.50377   0.55159
     Eigenvalues ---    0.61121   0.647191000.000001000.000001000.00000
     Eigenvalues --- 1000.000001000.000001000.000001000.000001000.00000
     Eigenvalues --- 1000.000001000.000001000.000001000.000001000.00000
     Eigenvalues --- 1000.000001000.000001000.000001000.000001000.00000
     Eigenvalues --- 1000.000001000.000001000.000001000.000001000.00000
     Eigenvalues --- 1000.000001000.000001000.000001000.000001000.00000
     Eigenvalues --- 1000.000001000.000001000.000001000.000001000.00000
     Eigenvalues --- 1000.000001000.000001000.000001000.000001000.00000
     Eigenvalues --- 1000.000001000.000001000.000001000.000001000.00000
     Eigenvalues --- 1000.000001000.000001000.000001000.000001000.00000
     Eigenvalues --- 1000.000001000.000001000.000001000.000001000.00000
     Eigenvalues --- 1000.000001000.000001000.000001000.000001000.00000
     Eigenvalues --- 1000.000001000.000001000.000001000.000001000.00000
     Eigenvalues --- 1000.000001000.000001000.00000
 RFO step:  Lambda=-2.41240608D-02 EMin= 1.36018960D-02
 Linear search not attempted -- first point.
 Iteration  1 RMS(Cart)=  0.02769019 RMS(Int)=  0.00065996
 Iteration  2 RMS(Cart)=  0.00077612 RMS(Int)=  0.00021894
 Iteration  3 RMS(Cart)=  0.00000305 RMS(Int)=  0.00022086
 Iteration  4 RMS(Cart)=  0.00000000 RMS(Int)=  0.00022086
 Iteration  1 RMS(Cart)=  0.00000235 RMS(Int)=  0.00000060
 Iteration  2 RMS(Cart)=  0.00000001 RMS(Int)=  0.00000055
 ITry= 1 IFail=0 DXMaxC= 2.05D-01 DCOld= 1.00D+10 DXMaxT= 3.00D-01 DXLimC= 3.00D+00 Rises=F
 Variable       Old X    -DE/DX   Delta X   Delta X   Delta X     New X
                                 (Linear)    (Quad)   (Total)
    R1        2.62924   0.00440   0.00000   0.00758   0.00745   2.63669
    R2        2.63600  -0.00346   0.00000  -0.00800  -0.00816   2.62784
    R3        2.06115  -0.00003   0.00000  -0.00013  -0.00014   2.06102
    R4        2.69822  -0.01914   0.00000  -0.04214  -0.04210   2.65612
    R5        3.31808  -0.00009   0.00000  -0.00011  -0.00022   3.31786
    R6        2.68136  -0.01304   0.00000  -0.02853  -0.02842   2.65294
    R7        2.52510   0.02515   0.00000   0.04455   0.04488   2.56997
    R8        2.61108   0.00142   0.00000   0.00436   0.00452   2.61560
    R9        2.06103  -0.00001   0.00000  -0.00005  -0.00006   2.06097
   R10        2.66410  -0.00429   0.00000  -0.00932  -0.00939   2.65470
   R11        2.06293  -0.00024   0.00000  -0.00068  -0.00068   2.06225
   R12        2.06156  -0.00023   0.00000  -0.00062  -0.00062   2.06094
   R13        2.56890  -0.04596   0.00000  -0.08325  -0.08313   2.48577
   R14        3.36161  -0.00412   0.00000  -0.02716  -0.02780   3.33381
   R15        2.67639  -0.00715   0.00000  -0.01848  -0.01863   2.65776
   R16        2.79377  -0.02211   0.00000  -0.07022  -0.07093   2.72284
   R17        2.67030   0.03040   0.00000   0.06105   0.06060   2.73090
   R18        2.62823  -0.00570   0.00000  -0.01122  -0.01115   2.61707
   R19        2.06166   0.00120   0.00000   0.00324   0.00324   2.06490
   R20        2.65642  -0.00367   0.00000  -0.00580  -0.00566   2.65076
   R21        2.47351   0.01730   0.00000   0.02465   0.02448   2.49799
   R22        2.67473  -0.01551   0.00000  -0.03369  -0.03369   2.64104
   R23        2.06248  -0.00032   0.00000  -0.00082  -0.00082   2.06166
   R24        2.62735  -0.00530   0.00000  -0.00770  -0.00750   2.61985
   R25        2.06055   0.00006   0.00000   0.00011   0.00010   2.06065
   R26        2.06007   0.00045   0.00000   0.00125   0.00125   2.06131
   R27        1.75200   0.07645   0.00000   0.12117   0.12172   1.87372
    A1        2.06855  -0.00272   0.00000  -0.00698  -0.00692   2.06163
    A2        2.10883   0.00182   0.00000   0.00543   0.00538   2.11421
    A3        2.10580   0.00090   0.00000   0.00155   0.00154   2.10735
    A4        2.11799   0.00057   0.00000   0.00221   0.00236   2.12034
    A5        2.24831   0.00826   0.00000   0.01949   0.01907   2.26739
    A6        1.91689  -0.00883   0.00000  -0.02170  -0.02143   1.89546
    A7        2.07925   0.00472   0.00000   0.01051   0.01034   2.08959
    A8        2.00464  -0.00138   0.00000  -0.00370  -0.00384   2.00080
    A9        2.19929  -0.00334   0.00000  -0.00681  -0.00650   2.19280
   A10        2.07426   0.00006   0.00000  -0.00035  -0.00034   2.07392
   A11        2.08264  -0.00023   0.00000  -0.00040  -0.00039   2.08225
   A12        2.12629   0.00017   0.00000   0.00075   0.00073   2.12702
   A13        2.11813  -0.00221   0.00000  -0.00603  -0.00600   2.11213
   A14        2.08513   0.00092   0.00000   0.00241   0.00240   2.08753
   A15        2.07993   0.00129   0.00000   0.00363   0.00359   2.08352
   A16        2.10819  -0.00041   0.00000   0.00065   0.00056   2.10876
   A17        2.08542   0.00026   0.00000  -0.00038  -0.00035   2.08507
   A18        2.08957   0.00015   0.00000  -0.00027  -0.00022   2.08935
   A19        1.98170   0.00587   0.00000   0.01575   0.01564   1.99734
   A20        1.55519   0.00539   0.00000   0.01765   0.01758   1.57278
   A21        2.03539   0.00477   0.00000   0.02415   0.02464   2.06004
   A22        2.19495  -0.00971   0.00000  -0.02823  -0.02793   2.16702
   A23        2.05284   0.00493   0.00000   0.00407   0.00329   2.05613
   A24        2.11123   0.00404   0.00000   0.01378   0.01378   2.12501
   A25        2.07942  -0.00105   0.00000  -0.00202  -0.00203   2.07738
   A26        2.09254  -0.00299   0.00000  -0.01176  -0.01175   2.08079
   A27        2.10875  -0.00730   0.00000  -0.02929  -0.02943   2.07932
   A28        2.08620   0.01989   0.00000   0.05494   0.05400   2.14020
   A29        2.08823  -0.01259   0.00000  -0.02564  -0.02457   2.06367
   A30        2.12516  -0.00809   0.00000  -0.03461  -0.03467   2.09049
   A31        2.07779   0.00407   0.00000   0.01713   0.01715   2.09494
   A32        2.08023   0.00403   0.00000   0.01749   0.01752   2.09776
   A33        2.09886   0.00372   0.00000   0.01322   0.01299   2.11186
   A34        2.05382  -0.00187   0.00000  -0.00624  -0.00611   2.04771
   A35        2.13050  -0.00185   0.00000  -0.00698  -0.00688   2.12361
   A36        2.08698   0.00286   0.00000   0.01276   0.01269   2.09966
   A37        2.09569  -0.00137   0.00000  -0.00666  -0.00664   2.08905
   A38        2.10052  -0.00149   0.00000  -0.00610  -0.00604   2.09448
   A39        1.96636  -0.00106   0.00000  -0.00800  -0.00795   1.95840
   A40        2.11145  -0.00437   0.00000  -0.01227  -0.01219   2.09926
   A41        2.20538   0.00543   0.00000   0.02026   0.02014   2.22553
   A42        1.88640   0.00885   0.00000   0.04220   0.04190   1.92830
    D1        0.00000   0.00000   0.00000   0.00000   0.00000   0.00000
    D2       -3.14159   0.00000   0.00000   0.00000   0.00000  -3.14159
    D3        3.14159   0.00000   0.00000   0.00000   0.00000   3.14159
    D4       -0.00000   0.00000   0.00000   0.00000   0.00000   0.00000
    D5       -0.00000   0.00000   0.00000   0.00000   0.00000  -0.00000
    D6        3.14159   0.00000   0.00000  -0.00000  -0.00000   3.14159
    D7       -3.14159   0.00000   0.00000   0.00000   0.00000  -3.14159
    D8        0.00000  -0.00000   0.00000  -0.00000  -0.00000   0.00000
    D9       -0.00000  -0.00000   0.00000  -0.00000  -0.00000  -0.00000
   D10        3.14159  -0.00000   0.00000  -0.00000  -0.00000   3.14159
   D11        3.14159  -0.00000   0.00000  -0.00000  -0.00000   3.14159
   D12       -0.00000  -0.00000   0.00000  -0.00000  -0.00000  -0.00000
   D13        3.14159   0.00000   0.00000   0.00000   0.00000  -3.14159
   D14       -0.00000   0.00000   0.00000   0.00000   0.00000   0.00000
   D15       -0.00000   0.00000   0.00000   0.00000   0.00000   0.00000
   D16        3.14159   0.00000   0.00000   0.00000   0.00000  -3.14159
   D17       -3.14159   0.00000   0.00000   0.00000   0.00000  -3.14159
   D18        0.00000   0.00000   0.00000   0.00000   0.00000   0.00000
   D19        0.00000  -0.00000   0.00000  -0.00000  -0.00000   0.00000
   D20       -3.14159  -0.00000   0.00000  -0.00000  -0.00000  -3.14159
   D21        0.00000   0.00000   0.00000   0.00000   0.00000   0.00000
   D22       -3.14159  -0.00000   0.00000  -0.00000  -0.00000   3.14159
   D23       -3.14159   0.00000   0.00000   0.00000   0.00000  -3.14159
   D24        0.00000   0.00000   0.00000   0.00000   0.00000   0.00000
   D25        0.00000  -0.00000   0.00000  -0.00000  -0.00000  -0.00000
   D26       -3.14159  -0.00000   0.00000  -0.00000  -0.00000  -3.14159
   D27       -3.14159  -0.00000   0.00000  -0.00000  -0.00000   3.14159
   D28        0.00000   0.00000   0.00000   0.00000   0.00000   0.00000
   D29       -0.00001   0.00000   0.00000   0.00001   0.00001  -0.00000
   D30        3.14158   0.00000   0.00000   0.00001   0.00001   3.14158
   D31        0.00000  -0.00000   0.00000  -0.00001  -0.00001  -0.00000
   D32       -3.14158  -0.00000   0.00000  -0.00001  -0.00001  -3.14159
   D33       -0.00000  -0.00000   0.00000  -0.00000  -0.00000  -0.00000
   D34        3.14159  -0.00000   0.00000  -0.00000  -0.00000   3.14159
   D35        3.14159  -0.00000   0.00000  -0.00000  -0.00000   3.14159
   D36       -0.00000  -0.00000   0.00000  -0.00000  -0.00000  -0.00001
   D37        0.00000   0.00000   0.00000   0.00000   0.00000   0.00001
   D38        3.14159   0.00000   0.00000   0.00001   0.00001  -3.14159
   D39       -3.14159   0.00000   0.00000   0.00000   0.00000  -3.14158
   D40        0.00000   0.00000   0.00000   0.00001   0.00001   0.00001
   D41        3.14158   0.00000   0.00000   0.00000   0.00000   3.14158
   D42       -0.00002   0.00000   0.00000   0.00000   0.00000  -0.00002
   D43       -0.00001   0.00000   0.00000   0.00000   0.00000  -0.00001
   D44        3.14157   0.00000   0.00000   0.00000   0.00000   3.14157
   D45        0.00000  -0.00000   0.00000  -0.00000  -0.00000   0.00000
   D46       -3.14159   0.00000   0.00000   0.00000   0.00000  -3.14159
   D47       -3.14159  -0.00000   0.00000  -0.00000  -0.00000   3.14159
   D48        0.00000  -0.00000   0.00000  -0.00000  -0.00000  -0.00000
   D49        0.00000  -0.00000   0.00000  -0.00000  -0.00000  -0.00000
[...]
 7350,0.01638156,0.00000013,0.76566129,-0.00063738,0.00107906,0.0000000
 2,0.00145131,-0.00087388,0.,-0.00007372,0.00113746,-0.00000007,-0.0006
 8676,-0.00001930,-0.00000002,-0.00012207,-0.00110157,0.,0.00128997,-0.
 00006577,0.00000002,-0.00005554,-0.00006620,0.,0.00003215,0.00004573,0
 .,0.00010898,-0.00004766,0.,0.00006908,-0.00003418,0.,0.00655135,0.003
 86636,-0.00000051,-0.00176120,-0.00147979,0.00000002,0.06858886,0.0353
 4658,-0.00000034,0.08282031,-0.26735108,-0.00000975,0.02585944,-0.0736
 8121,-0.00000390,0.00395383,0.67807135,-0.00000001,0.00000003,0.000057
 93,0.00000002,-0.00000004,0.00035109,0.,0.00000009,-0.00070773,0.,-0.0
 0000001,-0.00013053,0.,-0.00000002,0.00006817,0.00000004,-0.00000001,-
 0.00001751,0.,0.,0.00000130,0.,0.,0.00000317,0.,0.,0.00001646,0.,0.,-0
 .00002654,0.00000043,0.00000011,0.00018398,-0.00000006,-0.00000008,-0.
 00066880,0.00000360,0.00000052,0.00772574,0.00000797,-0.00001219,-0.06
 309081,0.00000093,-0.00000313,-0.00467534,-0.00001492,0.00002440,0.127
 47825,0.00026026,0.00004593,0.,-0.00062893,0.00023572,-0.00000005,0.00
 027927,-0.00007493,0.,0.00002061,0.00003046,0.,0.00004558,0.00005545,0
 .,-0.00006149,-0.00008499,0.,-0.00001448,-0.00000847,0.,0.00003464,0.0
 0000596,0.,0.00001064,-0.00000084,0.,0.00002994,-0.00000618,0.,0.00028
 217,0.00044262,-0.00000003,-0.00124205,0.00174309,0.00000008,-0.005129
 49,-0.02831403,-0.00000081,-0.09423695,-0.09402479,-0.00000196,-0.0053
 4885,0.00140770,0.00000032,0.01113637,0.01950193,0.00000053,0.09603426
 ,0.00002089,-0.00002793,0.,-0.00013099,0.00052961,0.,0.00027296,-0.000
 17236,0.,0.00000982,0.00006617,0.,0.00001270,0.00004858,0.,-0.00006777
 ,0.00000687,0.,-0.00000938,0.00000840,0.,0.00002155,-0.00000141,0.,-0.
 00000316,0.00000251,0.,0.00000030,0.00000129,0.,-0.00059268,0.00021945
 ,-0.00000003,0.00023932,-0.00033879,0.00000005,0.00094992,-0.00119415,
 -0.00000010,-0.09216392,-0.30466390,-0.00000680,0.00004934,0.00198284,
 -0.00000018,-0.01257607,-0.01670756,-0.00000039,0.09887899,0.32283624,
 0.,0.,-0.00000941,0.00000004,0.00000001,-0.00054747,0.,-0.00000002,0.0
 0015525,-0.00000001,0.,0.00008631,0.,0.,-0.00002490,0.,0.,0.00002745,0
 .,0.,-0.00001316,0.,0.,-0.00001804,0.,0.,-0.00000614,0.,0.,0.00001904,
 -0.00000005,0.,-0.00002892,0.00000002,0.00000005,0.00084668,0.00000051
 ,0.00000069,0.00311050,-0.00000224,-0.00000623,-0.03760369,0.00000022,
 -0.00000034,0.00613022,-0.00000040,-0.00000179,0.00483626,0.00000168,0
 .00000756,0.02505995,0.00005853,0.00049988,0.00000003,0.00052344,-0.00
 005285,0.00000002,0.00153954,-0.00012185,-0.00000008,-0.00053206,-0.00
 006381,-0.00000003,-0.00001715,-0.00052315,0.,0.00047511,-0.00003137,0
 .,-0.00004785,0.00000903,0.,0.00010027,0.00001099,0.,0.00003870,-0.000
 01729,0.,0.00003520,0.00000024,0.,0.00241673,0.00659719,-0.00000095,0.
 00018188,-0.00001860,0.00000006,0.05745752,0.03057038,0.00000052,-0.06
 217884,0.02688260,0.00000251,-0.17969319,0.05704730,0.00000639,-0.0067
 0327,-0.08807187,-0.00000309,-0.00080919,0.00055351,-0.00000024,0.7503
 6751,0.00045490,-0.00034711,0.,-0.00109484,-0.00017030,-0.00000002,-0.
 00043152,0.00010378,0.00000008,0.00049203,-0.00001182,0.00000002,0.000
 08262,0.00057899,0.,-0.00055548,-0.00010421,-0.00000001,0.00000130,0.0
 0002639,0.,-0.00000407,-0.00001023,0.,-0.00002871,0.00001885,0.,0.0000
 0607,0.00000271,0.,-0.00131316,-0.00130191,0.00000021,0.00148918,-0.00
 021244,0.00000003,-0.00364008,-0.03624140,-0.00000168,0.02219342,-0.01
 201575,-0.00000099,0.12235797,-0.25983123,-0.00001255,-0.03710970,0.01
 931948,0.00000129,0.00030538,0.00052722,0.00000022,0.04749724,0.725969
 83,0.00000005,-0.00000007,-0.00017184,-0.00000013,0.00000006,-0.000080
 86,-0.00000004,-0.00000011,-0.00063717,0.00000005,0.,0.00002209,0.0000
 0001,0.00000007,0.00001423,-0.00000008,0.,0.00002442,0.,0.,-0.00002593
 ,-0.00000001,0.,-0.00001757,0.,0.,-0.00000841,0.,0.,0.00003739,-0.0000
 0013,-0.00000011,0.00127038,0.00000003,-0.00000012,-0.00021252,-0.0000
 0134,-0.00000197,0.00790475,0.00000234,-0.00000122,-0.00335643,0.00000
 832,-0.00001120,-0.07098861,-0.00000094,0.00000269,0.00811956,0.,0.000
 00006,-0.00091900,-0.00002095,0.00002201,0.12475386,0.00045368,-0.0007
 8095,-0.00000002,-0.00134160,0.00043420,-0.00000003,-0.00065262,-0.000
 09970,0.00000008,0.00077277,0.00001380,0.00000002,0.00007043,0.0009624
 5,0.,-0.00098665,-0.00002760,-0.00000002,0.00003822,0.00004828,0.,-0.0
 0003999,-0.00003819,0.,-0.00008058,0.00004023,0.,-0.00004588,0.0000221
 7,0.,-0.00342797,-0.00295735,0.00000044,0.00121308,0.00050801,0.,-0.04
 247883,-0.02082367,0.00000004,0.06532496,-0.00765522,-0.00000183,-0.05
 285424,0.06274146,0.00000448,-0.15487699,-0.03223117,0.00000035,-0.002
 21611,0.00427414,0.00000066,-0.37988986,-0.07984986,0.00000662,0.73699
 367,0.00017868,-0.00031045,-0.00000002,-0.00037071,0.00029640,-0.00000
 001,0.00007443,-0.00078978,0.,0.00006113,0.00010537,0.,0.00004147,0.00
 024291,0.,-0.00035341,0.00005821,0.,0.00001960,0.00001082,0.,-0.000018
 40,-0.00000979,0.,-0.00003342,0.00001610,0.,-0.00001571,0.00000806,0.,
 -0.00405654,-0.00203323,0.00000038,0.00054504,0.00037658,-0.00000002,-
 0.03976964,-0.02293773,-0.00000025,0.04964903,-0.05908946,-0.00000393,
 0.00813992,0.06197395,0.00000201,-0.10670013,-0.31038350,-0.00000935,0
 .00344022,-0.00218669,-0.00000028,-0.00806738,-0.14059071,-0.00000222,
 -0.03195764,0.71611136,-0.00000001,0.00000002,0.00001284,0.00000003,0.
 ,0.00000990,0.00000002,-0.00000002,0.00021736,-0.00000003,0.,0.0000069
 1,0.,-0.00000003,-0.00001685,0.00000002,0.,0.00000279,0.,0.,0.00000116
 ,0.,0.,0.00000960,0.,0.,-0.00000117,0.,0.,-0.00000739,-0.00000009,-0.0
 0000004,-0.00024936,-0.00000002,0.00000002,0.00001557,-0.00000050,-0.0
 0000013,-0.00400625,0.00000021,-0.00000242,0.00694694,0.00000221,0.000
 00039,-0.00007632,-0.00000265,-0.00001154,-0.06378026,0.00000038,-0.00
 000046,0.00749361,0.00000830,-0.00000060,-0.05877896,-0.00001746,0.000
 02692,0.14290624,0.00001826,-0.00007253,0.,-0.00006525,0.00012413,0.,-
 0.00003728,-0.00005784,0.,0.00004975,0.00003207,0.,-0.00000842,0.00006
 592,0.,-0.00007894,0.00001077,0.,0.00000344,0.00000911,0.,0.00000167,-
 0.00000624,0.,-0.00001121,0.00000671,0.,-0.00000925,0.00000552,0.,-0.0
 0042165,0.00032845,0.,0.00003106,0.00005475,0.,0.00002509,0.00364914,0
 .00000032,-0.01412792,-0.00713024,0.00000008,0.00052871,0.00020536,-0.
 00000003,-0.34015123,-0.04889498,0.00000553,0.00076016,0.00007576,-0.0
 0000013,0.00140336,-0.00196941,0.00000003,-0.00605144,0.00244934,0.000
 00034,0.35818660,-0.00000129,0.00002428,0.,0.00002913,-0.00006406,0.,0
 .00007999,0.00005351,0.00000002,-0.00001130,-0.00004066,0.,0.00001157,
 -0.00001464,0.,0.00002321,-0.00000640,0.,-0.00000016,-0.00000403,0.,0.
 00000083,0.00000222,0.,0.00000459,-0.00000442,0.,0.00000322,-0.0000015
 6,0.,0.00040385,-0.00024479,0.,0.00000564,0.00003730,0.,0.00243294,-0.
 00349242,-0.00000049,0.02522502,0.00740121,-0.00000037,0.00047120,-0.0
 0154624,-0.00000006,-0.04959998,-0.06632344,-0.00000034,-0.00025390,0.
 00094001,0.00000023,-0.00095530,-0.00513592,-0.00000051,-0.02971544,0.
 00017299,0.00000069,0.05226674,0.06628170,0.,0.,-0.00000173,0.,0.,-0.0
 0001665,0.,0.,-0.00019957,0.,0.,-0.00000801,0.,0.,0.00001663,0.,0.,-0.
 00000493,0.,0.,0.00000087,0.,0.,-0.00000537,0.,0.,0.00000282,0.,0.,0.0
 0000422,0.00000002,-0.00000005,-0.00013469,0.,0.,0.00003031,0.00000030
 ,-0.00000035,0.00730266,0.00000133,0.00000050,0.00162085,-0.00000005,-
 0.00000011,-0.00072689,0.00000563,-0.00000025,-0.03329573,-0.00000013,
 0.00000017,-0.00459962,0.00000028,-0.00000056,0.00627560,-0.00000132,-
 0.00000025,0.00165836,-0.00000605,0.00000057,0.02498137,-0.00004412,-0
 .00000708,0.,0.00002945,0.00008895,0.,-0.00003292,0.00000148,0.,-0.000
 00677,0.00000622,0.,-0.00000926,-0.00001877,0.,0.00001669,0.00001202,0
 .,0.00000227,-0.00000262,0.,-0.00000761,0.00000103,0.,0.00000064,0.000
 00011,0.,-0.00000345,-0.00000141,0.,0.00014248,-0.00023847,0.00000004,
 -0.00024266,0.00005483,-0.00000001,-0.00219475,0.00251735,0.00000036,-
 0.00122610,0.00056234,0.00000003,0.00961252,0.01976836,0.00000060,-0.0
 0522153,0.00015572,0.00000043,0.00009151,-0.00009142,-0.00000003,-0.09
 500056,-0.09869022,-0.00000129,-0.00469372,-0.02911709,-0.00000077,-0.
 00041072,-0.00139625,-0.00000008,0.09601540,0.00002554,0.00008799,0.,-
 0.00001987,-0.00013844,0.,0.00009047,0.00006215,0.,-0.00004451,-0.0000
 1678,0.,0.00001057,-0.00005404,0.,0.00006225,-0.00002188,0.,-0.0000066
 3,-0.00000162,0.,0.00000768,0.00000470,0.,0.00000966,-0.00000435,0.,0.
 00001150,-0.00000312,0.,0.00012205,0.00041698,-0.00000003,0.00020865,-
 0.00021267,0.,0.00381520,-0.00217283,-0.00000039,0.00102005,0.00037028
 ,0.00000002,-0.01363122,-0.01789459,-0.00000028,-0.00041518,0.00204183
 ,-0.00000016,-0.00006282,-0.00006645,0.00000003,-0.09660709,-0.3095117
 7,-0.00000644,0.00185212,0.00017115,-0.00000016,0.00008413,-0.00008821
 ,-0.00000001,0.10573626,0.32493259,0.,0.,0.00001643,0.,-0.00000002,-0.
 00001984,0.,0.,-0.00002737,0.,0.,0.00000054,0.,0.,-0.00000357,0.,0.,0.
 00000174,0.,0.,0.00000157,0.,0.,0.00000405,0.,0.,0.00000243,0.,0.,-0.0
 0000225,-0.00000003,0.00000003,0.00001582,0.00000003,-0.00000002,-0.00
 004813,0.00000026,-0.00000057,0.00532330,0.00000045,-0.00000006,-0.000
 86855,-0.00000113,-0.00000090,0.00482735,0.00000028,0.00000012,0.00761
 213,-0.00000002,0.00000003,-0.00073937,-0.00000040,-0.00000646,-0.0348
 5246,-0.00000021,0.00000059,0.00246765,0.00000002,0.00000003,0.0004478
 8,0.00000129,0.00000693,0.02463555,0.00001708,-0.00003264,0.,-0.000031
 13,0.00009227,0.,0.00008474,-0.00005701,0.,0.00001588,0.00000980,0.,0.
 00000003,0.00003370,0.,-0.00004185,0.00000680,0.,0.00000084,0.00000467
 ,0.,0.00000475,-0.00000347,0.,-0.00000661,0.00000316,0.,-0.00000433,0.
 00000345,0.,-0.00011336,0.00021531,-0.00000003,-0.00000002,0.00015210,
 0.,-0.00082902,-0.00056618,-0.00000002,0.00066226,-0.00277810,0.,-0.00
 407788,-0.00270701,0.00000030,0.01010905,-0.00988008,-0.00000063,0.000
 36793,-0.00052541,-0.00000002,-0.01309438,0.02582642,0.00000153,-0.174
 05213,0.13924532,0.00000952,0.00065938,0.00041903,-0.00000007,0.001086
 66,-0.00022615,-0.00000020,0.18059386,0.00001809,0.00002092,0.,-0.0000
 5739,0.00000284,0.,0.00000817,0.00002742,0.,-0.00000365,-0.00000464,0.
 ,0.00000721,-0.00000721,0.,0.00001104,-0.00001221,0.,-0.00000341,-0.00
 000295,0.,0.00000179,0.00000304,0.,0.00000514,-0.00000173,0.,0.0000059
 7,-0.00000308,0.,0.00011985,-0.00009234,0.00000001,-0.00003757,0.00000
 116,0.,-0.00090067,0.00020685,0.00000008,-0.00328030,-0.00452254,-0.00
 000042,-0.00230386,0.00102045,-0.00000025,0.02132786,-0.01494913,-0.00
 000140,0.00099285,-0.00103637,-0.00000005,-0.00600047,0.00700800,0.000
 00023,0.13996794,-0.22992618,-0.00001207,-0.00015740,0.00101817,0.0000
 0021,0.00020890,0.00068052,0.00000022,-0.15007497,0.24006981,0.,0.,-0.
 00001095,0.,0.,-0.00005097,0.,0.00000001,0.00011303,0.,0.,0.00000747,0
 .,0.,-0.00000581,0.,0.,-0.00000114,0.,0.,0.00000274,0.,0.,-0.00000093,
 0.,0.,-0.00000009,0.,0.,0.00000510,0.,-0.00000004,-0.00017180,0.,0.000
 00001,0.00015399,-0.00000007,0.00000010,-0.00103298,-0.00000017,-0.000
 00043,0.00658470,0.00000038,-0.00000020,0.00888277,0.00000087,-0.00000
 081,0.00443392,0.00000005,-0.00000005,-0.00016250,0.00000041,-0.000000
 52,0.00482988,0.00000947,-0.00001188,-0.04072423,-0.00000012,0.0000002
 1,-0.00365395,-0.00000021,0.00000019,-0.00470559,-0.00001051,0.0000133
 8,0.02681548,-0.00321051,-0.00672932,-0.00000019,-0.00364954,0.0166445
 2,0.,-0.09239204,0.04560499,-0.00000207,0.01647190,-0.00347245,0.00000
 019,-0.00360249,0.01026093,0.00000010,-0.00524961,-0.00560237,-0.00000
 021,0.00044174,-0.00099995,0.,-0.00044742,-0.00013675,-0.00000003,0.00
 021360,0.00008914,0.00000002,-0.00075006,-0.00009625,0.,-0.44641401,-0
 .06362095,-0.00001174,-0.04892041,-0.02375101,-0.00000013,-0.14887587,
 0.06871639,0.00000254,-0.03902580,0.03023908,0.00000102,0.03258264,0.0
 1232273,-0.00000119,-0.00100661,-0.01443128,-0.00000062,0.00085287,0.0
 0104505,0.00000007,-0.00426965,-0.00087321,0.,0.00500171,0.00464164,0.
 00000006,-0.00027650,0.00081794,0.00000010,0.00034973,-0.00120832,-0.0
 0000005,0.00025778,-0.00000203,0.00000002,0.76173501,0.00206933,-0.002
 67231,0.00000006,0.02930322,-0.02659589,0.00000042,0.01551609,0.005883
 05,0.00000065,0.00833830,-0.00879413,0.00000011,-0.00171520,0.00613480
 ,0.00000001,-0.00357363,-0.00459239,-0.00000015,0.00028581,-0.00083446
 ,0.,-0.00045499,0.00012856,-0.00000001,0.00024363,-0.00034970,0.,-0.00
 042607,0.00004768,-0.00000001,-0.08134553,-0.12901439,-0.00000168,0.00
 179055,-0.12788580,-0.00000045,0.06267885,-0.18652018,-0.00000271,0.01
 634162,0.00752858,0.00000027,0.01174359,-0.03669146,-0.00000034,-0.006
 82967,0.01190424,0.00000059,-0.00198158,-0.00034295,-0.00000001,0.0006
 1981,-0.00736783,-0.00000030,-0.00755763,-0.00545125,0.,-0.00108581,0.
 00081045,0.00000005,0.00115410,-0.00045128,-0.00000013,-0.00030085,0.0
 0013370,0.00000002,-0.04872195,0.49911106,0.00000016,-0.00000035,0.000
 03367,-0.00000045,0.00000004,0.00445874,-0.00000193,0.00000130,0.00448
 814,0.00000070,-0.00000030,0.00316991,-0.00000008,0.00000056,0.0005379
 6,-0.00000043,-0.00000025,0.00083075,0.00000002,-0.00000001,-0.0003932
 3,0.,0.,-0.00030158,0.,0.00000001,-0.00049157,-0.00000002,0.,-0.000018
 45,-0.00001000,-0.00000287,-0.06429816,0.00000029,-0.00000121,-0.03827
 567,0.00000057,-0.00000062,-0.05332294,0.00000054,-0.00000036,-0.00300
 865,0.00000024,-0.00000138,0.00311197,0.00000024,0.00000012,0.00666841
 ,-0.00000009,0.00000014,-0.00333476,0.00000006,-0.00000044,0.00465250,
 -0.00000019,0.00000001,-0.00098587,0.00000003,-0.00000007,0.00099928,0
 .00000001,-0.00000003,-0.00004158,-0.00000003,0.00000004,-0.00079277,0
 .00000959,0.00000454,0.13702812,-0.00042544,0.00206573,0.00000008,0.00
 186767,0.00122362,0.00000004,0.00901214,-0.00098516,-0.00000004,-0.002
 05164,0.00013674,-0.00000009,-0.00006452,-0.00202914,-0.00000002,0.001
 93143,0.00032010,0.00000004,-0.00017815,0.00014789,0.,0.00033605,-0.00
 001017,-0.00000001,0.00002623,-0.00001441,0.,0.00005355,0.00005940,0.,
 0.01203795,0.03475656,-0.00000325,-0.00022380,0.00070119,0.00000002,-0
 .01637765,-0.03361926,0.00000174,-0.00816136,0.00395396,0.00000059,-0.
 35130344,-0.07857331,0.00001390,-0.00543779,-0.01526966,-0.00000055,-0
 .00106119,-0.00045090,-0.00000006,-0.07177140,0.00954987,0.00000588,0.
 01602688,0.01164887,0.00000023,-0.00008080,-0.00027104,0.00000003,0.00
 196049,-0.00105189,-0.00000030,-0.00144182,0.00030241,-0.00000009,-0.0
 2588637,0.01567580,0.00000005,0.55096723,-0.00062695,-0.00068227,-0.00
 000012,0.00036970,-0.00298738,-0.00000003,-0.01037806,-0.00229557,0.00
 000070,-0.00003931,-0.00046449,0.,0.00044641,0.00029692,0.,-0.00012837
 ,-0.00009100,0.,0.00017175,-0.00028172,0.,0.00001900,0.00015255,0.0000
 0003,0.00014678,-0.00011269,0.,0.00008547,-0.00007830,0.,0.01532804,-0
 .05127970,0.00000318,-0.00100992,-0.00382520,-0.00000009,-0.04471976,-
 0.00570180,0.00000163,0.00847932,-0.00796155,-0.00000051,-0.05383041,-
 0.13057357,-0.00000178,-0.00157046,0.00791274,0.00000041,-0.00155527,-
 0.00016633,-0.00000005,0.04700471,0.01527910,-0.00000165,-0.00387570,-
 0.01112205,-0.00000043,-0.00002833,0.00048675,0.00000003,-0.00122564,0
 .00232727,0.00000018,0.00173630,0.00024440,0.,0.00846353,0.00410850,0.
 00000014,-0.05953254,0.45387951,0.00000003,-0.00000009,-0.00014849,-0.
 00000011,-0.00000014,-0.00014522,-0.00000075,0.00000042,0.00115033,0.0
 0000018,-0.00000004,0.00013723,-0.00000001,0.00000015,-0.00004118,-0.0
 0000011,-0.00000006,0.00004352,0.,0.,-0.00000671,0.,0.,-0.00001971,0.,
 0.,-0.00001430,0.,0.,-0.00000434,-0.00000108,-0.00000187,0.00658577,0.
 00000016,0.00000031,-0.00063750,-0.00000073,0.00000108,0.01263288,0.00
 000158,-0.00000060,0.00651770,0.00001786,0.00000142,-0.05535171,-0.000
 00010,0.00000160,-0.00101190,0.00000008,0.,0.00028030,0.00000696,-0.00
 000015,0.00964963,-0.00000107,-0.00000163,0.00503384,0.,0.00000008,-0.
 00065162,-0.00000036,0.00000028,-0.00352930,0.00000018,0.,-0.00022802,
 0.00000225,-0.00000150,-0.00292999,-0.00003805,0.00002643,0.04453277,0
 .00017971,-0.00045069,0.00000001,-0.00125879,0.00016207,-0.00000002,-0
 .00109869,0.00369602,-0.00000029,0.00086425,0.00014771,0.00000007,-0.0
 0006665,0.00036120,0.00000003,-0.00040120,-0.00008614,-0.00000002,0.00
 002167,-0.00000508,0.,-0.00046697,-0.00004129,-0.00000005,0.00002230,-
 0.00001131,0.,-0.00001282,-0.00005524,0.,-0.01856973,-0.00782431,0.000
 00206,-0.00134025,-0.00204823,-0.00000023,0.00068496,0.00366353,-0.000
 00018,0.00067937,0.00088373,0.00000002,-0.04922771,0.03526011,0.000006
 42,0.00076550,0.00173278,0.00000004,0.00054251,0.00020747,0.,-0.000590
 38,-0.00469614,0.00000005,-0.00220678,0.00032540,0.00000020,0.00006312
 ,0.00000974,-0.00000001,-0.00021367,0.00021754,0.,-0.00016773,-0.00015
 550,-0.00000005,0.00606991,-0.01176780,0.00000072,-0.10975427,0.096269
 72,0.00001310,0.17548232,0.00034596,0.00135745,0.00000015,0.00113006,0
 .00431489,0.00000022,0.01537037,-0.00274742,-0.00000056,-0.00123417,0.
 00129534,-0.00000011,-0.00059289,-0.00127490,-0.00000003,0.00079563,0.
 00053115,0.,-0.00023685,0.00038153,0.00000001,0.00026844,-0.00019920,0
 .,-0.00022489,0.00017396,0.,-0.00009828,0.00013092,0.,-0.00205165,0.00
 976033,-0.00000554,0.00147333,0.00615576,0.00000056,0.00116701,-0.0105
 0782,-0.00000025,-0.00542403,0.00010469,0.00000001,0.03463322,0.020435
 07,-0.00000100,-0.00077590,-0.00764056,-0.00000030,-0.00071851,-0.0002
 6429,-0.00000001,-0.01676184,0.00401828,0.00000078,0.00670531,0.005286
 90,-0.00000013,0.00003487,-0.00026178,0.00000004,0.00052130,-0.0004574
 5,0.00000003,-0.00059647,0.00012110,0.00000002,-0.02920008,0.00177339,
 0.00000099,0.11126536,-0.26706414,-0.00002569,-0.11579529,0.23457682,-
 0.00000010,-0.00000011,0.00025190,0.00000013,-0.00000038,0.00045415,-0
 .00000081,-0.00000055,-0.00086964,-0.00000002,-0.00000004,-0.00033960,
 0.00000005,-0.00000002,-0.00001077,0.,0.00000002,-0.00005488,0.0000000
 2,-0.00000004,0.00002482,-0.00000010,0.00000004,0.00013058,0.00000002,
 -0.00000001,0.00002407,0.,0.,-0.00000137,0.00000185,0.00000104,-0.0120
 4978,-0.00000034,-0.00000067,0.00132526,-0.00000006,0.00000019,-0.0022
 1613,-0.00000011,-0.00000015,-0.00034308,0.00000097,-0.00000276,0.0002
 6591,0.00000010,-0.00000001,-0.00015123,-0.00000005,0.,-0.00003859,0.0
 0000020,0.00000011,0.00249548,-0.00000001,-0.00000007,0.00184388,-0.00
 000001,0.00000001,-0.00004207,-0.00000001,0.00000004,-0.00051845,0.,0.
 00000003,-0.00028736,0.00000028,0.00000058,0.00221577,0.00001986,-0.00
 002808,-0.02184400,-0.00002188,0.00003083,0.02973515\\0.00109054,0.000
 34176,0.,0.00072271,0.00031055,-0.00000027,0.00038281,-0.00001744,0.00
 000033,-0.00065086,0.00094213,0.00000021,0.00019842,0.00099568,-0.0000
 0003,0.00102894,0.00098077,0.,0.00010862,0.00001324,0.00000002,-0.0000
 7786,0.00009662,-0.00000004,0.00001391,0.00016236,-0.00000001,0.000136
 34,0.00010973,0.,-0.00246114,0.00042030,0.00000416,-0.00011404,-0.0017
 8555,0.00000031,-0.00145419,0.00027506,0.00000055,0.00034857,0.0006124
 4,-0.00000151,0.00193827,0.00004633,0.00000275,-0.00026726,0.00221608,
 0.00000003,-0.00009015,0.00009725,0.00000013,0.00048121,0.00012798,0.0
 0000024,0.00009742,0.00086840,0.00000013,-0.00001847,0.00015248,0.0000
 0016,0.00010087,-0.00000779,-0.00000006,0.00006312,0.00011021,-0.00000
 014,-0.00193143,-0.00148972,-0.00000280,-0.00067121,-0.00204081,0.0000
 0181,0.00102487,-0.00353805,-0.00000597\\\@
 The archive entry for this job was punched.


 "ANNA, YOU MUSN'T SPEAK OF OXIDIZED MURIATIC ACID
 ANYMORE, FROM NOW ON YOU MUST SAY CHLORINE."
   -- JENS JACOB BERZELIUS, IN 1820, TO HIS COOK, WHO HAD
 COMPLAINED OF THE SMELL OF THE FLASK SHE WAS CLEANING.
 Job cpu time:       0 days  1 hours  3 minutes 25.0 seconds.
 Elapsed time:       0 days  0 hours  7 minutes 47.2 seconds.
 File lengths (MBytes):  RWF=    544 Int=      0 D2E=      0 Chk=     36 Scr=      8
 Normal termination of Gaussian 16 at Tue Oct 27 22:30:15 2020.
