 Entering Gaussian System, Link 0=g16
 Initial command:
 /gpfs/loomis/apps/avx/software/Gaussian/16-C.01_AVX/g16/l1.exe "/home/fas/batista/pev4/scratch60/gauss-scratch/Gau-196072.inp" -scrdir="/home/fas/batista/pev4/scratch60/gauss-scratch/"
 Entering Link 1 = /gpfs/loomis/apps/avx/software/Gaussian/16-C.01_AVX/g16/l1.exe PID=    196073.
  
 Copyright (c) 1988-2019, Gaussian, Inc.  All Rights Reserved.
  
 This is part of the Gaussian(R) 16 program.  It is based on
 the Gaussian(R) 09 system (copyright 2009, Gaussian, Inc.),
 the Gaussian(R) 03 system (copyright 2003, Gaussian, Inc.),
 the Gaussian(R) 98 system (copyright 1998, Gaussian, Inc.),
 the Gaussian(R) 94 system (copyright 1995, Gaussian, Inc.),
 the Gaussian 92(TM) system (copyright 1992, Gaussian, Inc.),
 the Gaussian 90(TM) system (copyright 1990, Gaussian, Inc.),
 the Gaussian 88(TM) system (copyright 1988, Gaussian, Inc.),
 the Gaussian 86(TM) system (copyright 1986, Carnegie Mellon
 University), and the Gaussian 82(TM) system (copyright 1983,
 Carnegie Mellon University). Gaussian is a federally registered
 trademark of Gaussian, Inc.
  
 This software contains proprietary and confidential information,
 including trade secrets, belonging to Gaussian, Inc.
  
 This software is provided under written license and may be
 used, copied, transmitted, or stored only in accord with that
 written license.
  
 The following legend is applicable only to US Government
 contracts under FAR:
  
                    RESTRICTED RIGHTS LEGEND
  
 Use, reproduction and disclosure by the US Government is
 subject to restrictions as set forth in subparagraphs (a)
 and (c) of the Commercial Computer Software - Restricted
 Rights clause in FAR 52.227-19.
  
 Gaussian, Inc.
 340 Quinnipiac St., Bldg. 40, Wallingford CT 06492
  
  
 ---------------------------------------------------------------
 Warning -- This program may not be used in any manner that
 competes with the business of Gaussian, Inc. or will provide
 assistance to any competitor of Gaussian, Inc.  The licensee
 of this program is prohibited from giving any competitor of
 Gaussian, Inc. access to this program.  By using this program,
 the user acknowledges that Gaussian, Inc. is engaged in the
 business of creating and licensing software in the field of
 computational chemistry and represents and warrants to the
 licensee that it is not a competitor of Gaussian, Inc. and that
 it will not use this program in any manner prohibited above.
 ---------------------------------------------------------------
  

 Cite this work as:
 Gaussian 16, Revision C.01,
 M. J. Frisch, G. W. Trucks, H. B. Schlegel, G. E. Scuseria, 
 M. A. Robb, J. R. Cheeseman, G. Scalmani, V. Barone, 
 G. A. Petersson, H. Nakatsuji, X. Li, M. Caricato, A. V. Marenich, 
 J. Bloino, B. G. Janesko, R. Gomperts, B. Mennucci, H. P. Hratchian, 
 J. V. Ortiz, A. F. Izmaylov, J. L. Sonnenberg, D. Williams-Young, 
 F. Ding, F. Lipparini, F. Egidi, J. Goings, B. Peng, A. Petrone, 
 T. Henderson, D. Ranasinghe, V. G. Zakrzewski, J. Gao, N. Rega, 
 G. Zheng, W. Liang, M. Hada, M. Ehara, K. Toyota, R. Fukuda, 
 J. Hasegawa, M. Ishida, T. Nakajima, Y. Honda, O. Kitao, H. Nakai, 
 T. Vreven, K. Throssell, J. A. Montgomery, Jr., J. E. Peralta, 
 F. Ogliaro, M. J. Bearpark, J. J. Heyd, E. N. Brothers, K. N. Kudin, 
 V. N. Staroverov, T. A. Keith, R. Kobayashi, J. Normand, 
 K. Raghavachari, A. P. Rendell, J. C. Burant, S. S. Iyengar, 
 J. Tomasi, M. Cossi, J. M. Millam, M. Klene, C. Adamo, R. Cammi, 
 J. W. Ochterski, R. L. Martin, K. Morokuma, O. Farkas, 
 J. B. Foresman, and D. J. Fox, Gaussian, Inc., Wallingford CT, 2019.
 
 ******************************************
 Gaussian 16:  ES64L-G16RevC.01  3-Jul-2019
                28-Oct-2020 
 ******************************************
 %chk=config_8_20.chk
 %mem=58GB
 %nprocshared=10
 Will use up to   10 processors via shared memory.
 ----------------------------------------------------------------------
 #p opt=addgic freq wb97xd/cc-pvdz nosymm int=ultrafine scrf=(solvent=C
 arbonTetraChloride)
 ----------------------------------------------------------------------
 1/18=20,19=15,26=6,38=1,145=903/1,3;
 2/9=110,12=2,15=1,17=6,18=5,40=1/2;
 3/5=16,11=2,25=1,30=1,70=2201,71=1,72=11,74=-58,75=-5/1,2,3;
 4//1;
 5/5=2,38=5,53=11/2;
 6/7=2,8=2,9=2,10=2,28=1/1;
 7/30=1/1,2,3,16;
 1/18=20,19=15,26=6,145=903/3(2);
 2/9=110,15=1/2;
 99//99;
 2/9=110,15=1/2;
 3/5=16,11=2,25=1,30=1,70=2205,71=1,72=11,74=-58,75=-5/1,2,3;
 4/5=5,16=3,69=1/1;
 5/5=2,38=5,53=11/2;
 7/30=1/1,2,3,16;
 1/18=20,19=15,26=6,145=903/3(-5);
 2/9=110,15=1/2;
 6/7=2,8=2,9=2,10=2,19=2,28=1/1;
 99/9=1/99;
 Leave Link    1 at Wed Oct 28 02:06:47 2020, MaxMem=  7784628224 cpu:               6.3 elap:               0.8
 (Enter /gpfs/loomis/apps/avx/software/Gaussian/16-C.01_AVX/g16/l101.exe)
 ------------------------------------------------
 NM 2D-scan of HBT TD-WB97XD pVDZ in CTC Relaxed.
 ------------------------------------------------
 Symbolic Z-matrix:
 Charge =  0 Multiplicity = 1
 C                     1.49074  -3.24462  -0.00002 
 C                     1.00256  -1.92979  -0.00002 
 C                     1.82978  -0.76258  -0.00003 
 C                     3.23099  -0.98158  -0.00003 
 C                     3.72258  -2.3026   -0.00002 
 C                     2.87716  -3.43051  -0.00001 
 H                     0.79013  -4.0965   -0.00001 
 H                     3.93092  -0.12849  -0.00004 
 H                     4.81075  -2.4538   -0.00003 
 H                     3.30196  -4.44303  -0.00001 
 N                     1.08136   0.41439  -0.00003 
 S                    -0.68712  -1.53065  -0.00003 
 C                    -1.29544   1.08951   0.00001 
 C                    -2.63982   0.68799   0.00003 
 C                    -0.91199   2.50523   0.00004 
 C                    -3.65844   1.67196   0.00004 
 H                    -2.91051  -0.37839   0.00003 
 C                    -1.97948   3.4648    0.00003 
 C                    -3.32862   3.04074   0.00003 
 H                    -4.71076   1.35822   0.00004 
 H                    -1.71553   4.53387   0.00005 
 H                    -4.13197   3.78848   0.00003 
 C                    -0.25478   0.13595  -0.00002 
 O                     0.33601   2.76316   0.00007 
 H                     1.06038   1.42775   0.00002 
 
 Initializing the GIC definitions file.
 Number of initial coordinates =   134
 Number of input entries/lines =    52
 Number of additional coordinates =     2
 Number of removed coordinates =     0
 Number of frozen coordinates =     2
 Number of final active and frozen coordinates =   136
 ITRead=  0  0  0  0  0  0  0  0  0  0  0  0  0  0  0  0  0  0  0  0
 ITRead=  0  0  0  0  0
 MicOpt= -1 -1 -1 -1 -1 -1 -1 -1 -1 -1 -1 -1 -1 -1 -1 -1 -1 -1 -1 -1
 MicOpt= -1 -1 -1 -1 -1
 NAtoms=     25 NQM=       25 NQMF=       0 NMMI=      0 NMMIF=      0
                NMic=       0 NMicF=      0.
                    Isotopes and Nuclear Properties:
 (Nuclear quadrupole moments (NQMom) in fm**2, nuclear magnetic moments (NMagM)
  in nuclear magnetons)

  Atom         1           2           3           4           5           6           7           8           9          10
 IAtWgt=          12          12          12          12          12          12           1           1           1           1
 AtmWgt=  12.0000000  12.0000000  12.0000000  12.0000000  12.0000000  12.0000000   1.0078250   1.0078250   1.0078250   1.0078250
 NucSpn=           0           0           0           0           0           0           1           1           1           1
 AtZEff=  -0.0000000  -0.0000000  -0.0000000  -0.0000000  -0.0000000  -0.0000000  -0.0000000  -0.0000000  -0.0000000  -0.0000000
 NQMom=    0.0000000   0.0000000   0.0000000   0.0000000   0.0000000   0.0000000   0.0000000   0.0000000   0.0000000   0.0000000
 NMagM=    0.0000000   0.0000000   0.0000000   0.0000000   0.0000000   0.0000000   2.7928460   2.7928460   2.7928460   2.7928460
 AtZNuc=   6.0000000   6.0000000   6.0000000   6.0000000   6.0000000   6.0000000   1.0000000   1.0000000   1.0000000   1.0000000

  Atom        11          12          13          14          15          16          17          18          19          20
 IAtWgt=          14          32          12          12          12          12           1          12          12           1
 AtmWgt=  14.0030740  31.9720718  12.0000000  12.0000000  12.0000000  12.0000000   1.0078250  12.0000000  12.0000000   1.0078250
 NucSpn=           2           0           0           0           0           0           1           0           0           1
 AtZEff=  -0.0000000  -0.0000000  -0.0000000  -0.0000000  -0.0000000  -0.0000000  -0.0000000  -0.0000000  -0.0000000  -0.0000000
 NQMom=    2.0440000   0.0000000   0.0000000   0.0000000   0.0000000   0.0000000   0.0000000   0.0000000   0.0000000   0.0000000
 NMagM=    0.4037610   0.0000000   0.0000000   0.0000000   0.0000000   0.0000000   2.7928460   0.0000000   0.0000000   2.7928460
 AtZNuc=   7.0000000  16.0000000   6.0000000   6.0000000   6.0000000   6.0000000   1.0000000   6.0000000   6.0000000   1.0000000

  Atom        21          22          23          24          25
 IAtWgt=           1           1          12          16           1
 AtmWgt=   1.0078250   1.0078250  12.0000000  15.9949146   1.0078250
 NucSpn=           1           1           0           0           1
 AtZEff=  -0.0000000  -0.0000000  -0.0000000  -0.0000000  -0.0000000
 NQMom=    0.0000000   0.0000000   0.0000000   0.0000000   0.0000000
 NMagM=    2.7928460   2.7928460   0.0000000   0.0000000   2.7928460
 AtZNuc=   1.0000000   1.0000000   6.0000000   8.0000000   1.0000000
 Leave Link  101 at Wed Oct 28 02:06:50 2020, MaxMem=  7784628224 cpu:              28.3 elap:               3.2
 (Enter /gpfs/loomis/apps/avx/software/Gaussian/16-C.01_AVX/g16/l103.exe)

 GradGradGradGradGradGradGradGradGradGradGradGradGradGradGradGradGradGrad
 Berny optimization.
 Initialization pass.
                           ----------------------------
                           !    Initial Parameters    !
                           ! (Angstroms and Degrees)  !
 --------------------------                            --------------------------
 ! Name  Definition              Value          Derivative Info.                !
 --------------------------------------------------------------------------------
 ! R1    R(1,2)                  1.4025         estimate D2E/DX2                !
 ! R2    R(1,6)                  1.3988         estimate D2E/DX2                !
 ! R3    R(1,7)                  1.103          estimate D2E/DX2                !
 ! R4    R(2,3)                  1.4306         estimate D2E/DX2                !
 ! R5    R(2,12)                 1.7362         estimate D2E/DX2                !
 ! R6    R(3,4)                  1.4182         estimate D2E/DX2                !
 ! R7    R(3,11)                 1.3948         estimate D2E/DX2                !
 ! R8    R(4,5)                  1.4095         estimate D2E/DX2                !
 ! R9    R(4,8)                  1.1035         estimate D2E/DX2                !
 ! R10   R(5,6)                  1.4096         estimate D2E/DX2                !
 ! R11   R(5,9)                  1.0986         estimate D2E/DX2                !
 ! R12   R(6,10)                 1.098          estimate D2E/DX2                !
 ! R13   R(11,23)                1.3649         estimate D2E/DX2                !
 ! R14   R(11,25)                1.0136         estimate D2E/DX2                !
 ! R15   R(12,23)                1.7218         estimate D2E/DX2                !
 ! R16   R(13,14)                1.4031         estimate D2E/DX2                !
 ! R17   R(13,15)                1.4667         estimate D2E/DX2                !
 ! R18   R(13,23)                1.4115         estimate D2E/DX2                !
 ! R19   R(14,16)                1.4163         estimate D2E/DX2                !
 ! R20   R(14,17)                1.1002         estimate D2E/DX2                !
 ! R21   R(15,18)                1.4354         estimate D2E/DX2                !
 ! R22   R(15,24)                1.2744         estimate D2E/DX2                !
 ! R23   R(16,19)                1.408          estimate D2E/DX2                !
 ! R24   R(16,20)                1.0981         estimate D2E/DX2                !
 ! R25   R(18,19)                1.4142         estimate D2E/DX2                !
 ! R26   R(18,21)                1.1012         estimate D2E/DX2                !
 ! R27   R(19,22)                1.0975         estimate D2E/DX2                !
 ! A1    A(2,1,6)              118.0057         estimate D2E/DX2                !
 ! A2    A(2,1,7)              120.1959         estimate D2E/DX2                !
 ! A3    A(6,1,7)              121.7983         estimate D2E/DX2                !
 ! A4    A(1,2,3)              124.3049         estimate D2E/DX2                !
 ! A5    A(1,2,12)             123.6605         estimate D2E/DX2                !
 ! A6    A(3,2,12)             112.0346         estimate D2E/DX2                !
 ! A7    A(2,3,4)              116.4425         estimate D2E/DX2                !
 ! A8    A(2,3,11)             112.2222         estimate D2E/DX2                !
 ! A9    A(4,3,11)             131.3352         estimate D2E/DX2                !
 ! A10   A(3,4,5)              119.295          estimate D2E/DX2                !
 ! A11   A(3,4,8)              120.4842         estimate D2E/DX2                !
 ! A12   A(5,4,8)              120.2208         estimate D2E/DX2                !
 ! A13   A(4,5,6)              122.735          estimate D2E/DX2                !
 ! A14   A(4,5,9)              118.3223         estimate D2E/DX2                !
 ! A15   A(6,5,9)              118.9427         estimate D2E/DX2                !
 ! A16   A(1,6,5)              119.2168         estimate D2E/DX2                !
 ! A17   A(1,6,10)             120.3967         estimate D2E/DX2                !
 ! A18   A(5,6,10)             120.3865         estimate D2E/DX2                !
 ! A19   A(3,11,23)            110.6805         estimate D2E/DX2                !
 ! A20   A(3,11,25)            148.7342         estimate D2E/DX2                !
 ! A21   A(23,11,25)           100.5853         estimate D2E/DX2                !
 ! A22   A(2,12,23)             88.7484         estimate D2E/DX2                !
 ! A23   A(14,13,15)           121.7837         estimate D2E/DX2                !
 ! A24   A(14,13,23)           120.8717         estimate D2E/DX2                !
 ! A25   A(15,13,23)           117.3446         estimate D2E/DX2                !
 ! A26   A(13,14,16)           119.3619         estimate D2E/DX2                !
 ! A27   A(13,14,17)           120.872          estimate D2E/DX2                !
 ! A28   A(16,14,17)           119.7661         estimate D2E/DX2                !
 ! A29   A(13,15,18)           116.7978         estimate D2E/DX2                !
 ! A30   A(13,15,24)           116.8317         estimate D2E/DX2                !
 ! A31   A(18,15,24)           126.3705         estimate D2E/DX2                !
 ! A32   A(14,16,19)           120.4617         estimate D2E/DX2                !
 ! A33   A(14,16,20)           119.3897         estimate D2E/DX2                !
 ! A34   A(19,16,20)           120.1486         estimate D2E/DX2                !
 ! A35   A(15,18,19)           120.5987         estimate D2E/DX2                !
 ! A36   A(15,18,21)           118.0839         estimate D2E/DX2                !
 ! A37   A(19,18,21)           121.3173         estimate D2E/DX2                !
 ! A38   A(16,19,18)           120.9962         estimate D2E/DX2                !
 ! A39   A(16,19,22)           119.3994         estimate D2E/DX2                !
 ! A40   A(18,19,22)           119.6045         estimate D2E/DX2                !
 ! A41   A(11,23,12)           116.3142         estimate D2E/DX2                !
 ! A42   A(11,23,13)           125.7293         estimate D2E/DX2                !
 ! A43   A(12,23,13)           117.9566         estimate D2E/DX2                !
 ! D1    D(6,1,2,3)             -0.0001         estimate D2E/DX2                !
 ! D2    D(6,1,2,12)           179.9999         estimate D2E/DX2                !
 ! D3    D(7,1,2,3)            179.9999         estimate D2E/DX2                !
 ! D4    D(7,1,2,12)            -0.0001         estimate D2E/DX2                !
 ! D5    D(2,1,6,5)             -0.0002         estimate D2E/DX2                !
 ! D6    D(2,1,6,10)           179.9999         estimate D2E/DX2                !
 ! D7    D(7,1,6,5)            179.9999         estimate D2E/DX2                !
 ! D8    D(7,1,6,10)             0.0            estimate D2E/DX2                !
 ! D9    D(1,2,3,4)              0.0003         estimate D2E/DX2                !
 ! D10   D(1,2,3,11)          -179.9999         estimate D2E/DX2                !
 ! D11   D(12,2,3,4)          -179.9997         estimate D2E/DX2                !
 ! D12   D(12,2,3,11)            0.0001         estimate D2E/DX2                !
 ! D13   D(1,2,12,23)          179.9996         estimate D2E/DX2                !
 ! D14   D(3,2,12,23)           -0.0004         estimate D2E/DX2                !
 ! D15   D(2,3,4,5)             -0.0003         estimate D2E/DX2                !
 ! D16   D(2,3,4,8)            179.9998         estimate D2E/DX2                !
 ! D17   D(11,3,4,5)           180.0            estimate D2E/DX2                !
 ! D18   D(11,3,4,8)             0.0001         estimate D2E/DX2                !
 ! D19   D(2,3,11,23)            0.0004         estimate D2E/DX2                !
 ! D20   D(2,3,11,25)          179.9939         estimate D2E/DX2                !
 ! D21   D(4,3,11,23)         -179.9998         estimate D2E/DX2                !
 ! D22   D(4,3,11,25)           -0.0063         estimate D2E/DX2                !
 ! D23   D(3,4,5,6)              0.0001         estimate D2E/DX2                !
 ! D24   D(3,4,5,9)           -179.9999         estimate D2E/DX2                !
 ! D25   D(8,4,5,6)            180.0            estimate D2E/DX2                !
 ! D26   D(8,4,5,9)              0.0            estimate D2E/DX2                !
 ! D27   D(4,5,6,1)              0.0002         estimate D2E/DX2                !
 ! D28   D(4,5,6,10)          -179.9999         estimate D2E/DX2                !
 ! D29   D(9,5,6,1)           -179.9999         estimate D2E/DX2                !
 ! D30   D(9,5,6,10)             0.0            estimate D2E/DX2                !
 ! D31   D(3,11,23,12)          -0.0008         estimate D2E/DX2                !
 ! D32   D(3,11,23,13)         179.998          estimate D2E/DX2                !
 ! D33   D(25,11,23,12)       -179.9974         estimate D2E/DX2                !
 ! D34   D(25,11,23,13)          0.0014         estimate D2E/DX2                !
 ! D35   D(2,12,23,11)           0.0007         estimate D2E/DX2                !
 ! D36   D(2,12,23,13)        -179.9981         estimate D2E/DX2                !
 ! D37   D(15,13,14,16)          0.0018         estimate D2E/DX2                !
 ! D38   D(15,13,14,17)       -179.9989         estimate D2E/DX2                !
 ! D39   D(23,13,14,16)       -179.9983         estimate D2E/DX2                !
 ! D40   D(23,13,14,17)          0.001          estimate D2E/DX2                !
 ! D41   D(14,13,15,18)         -0.002          estimate D2E/DX2                !
 ! D42   D(14,13,15,24)        179.9976         estimate D2E/DX2                !
 ! D43   D(23,13,15,18)        179.9981         estimate D2E/DX2                !
 ! D44   D(23,13,15,24)         -0.0023         estimate D2E/DX2                !
 ! D45   D(14,13,23,11)       -179.9995         estimate D2E/DX2                !
 ! D46   D(14,13,23,12)         -0.0008         estimate D2E/DX2                !
 ! D47   D(15,13,23,11)          0.0004         estimate D2E/DX2                !
 ! D48   D(15,13,23,12)        179.9991         estimate D2E/DX2                !
 ! D49   D(13,14,16,19)         -0.0004         estimate D2E/DX2                !
 ! D50   D(13,14,16,20)        179.9995         estimate D2E/DX2                !
 ! D51   D(17,14,16,19)       -179.9997         estimate D2E/DX2                !
 ! D52   D(17,14,16,20)          0.0002         estimate D2E/DX2                !
 ! D53   D(13,15,18,19)          0.001          estimate D2E/DX2                !
 ! D54   D(13,15,18,21)       -179.9999         estimate D2E/DX2                !
 ! D55   D(24,15,18,19)       -179.9987         estimate D2E/DX2                !
 ! D56   D(24,15,18,21)          0.0005         estimate D2E/DX2                !
 ! D57   D(14,16,19,18)         -0.0007         estimate D2E/DX2                !
 ! D58   D(14,16,19,22)        179.9997         estimate D2E/DX2                !
 ! D59   D(20,16,19,18)        179.9994         estimate D2E/DX2                !
 ! D60   D(20,16,19,22)         -0.0002         estimate D2E/DX2                !
 ! D61   D(15,18,19,16)          0.0003         estimate D2E/DX2                !
 ! D62   D(15,18,19,22)        179.9999         estimate D2E/DX2                !
 ! D63   D(21,18,19,16)       -179.9988         estimate D2E/DX2                !
 ! D64   D(21,18,19,22)          0.0008         estimate D2E/DX2                !
 ! Qtot  GIC-1                  20.0            Frozen                          !
 ! Ptot  GIC-2                 240.0            Frozen                          !
 --------------------------------------------------------------------------------
 NOTE: GIC-type coordinates are in arbitrary units.
 Trust Radius=3.00D-01 FncErr=5.00D-06 GrdErr=5.00D-06 EigMax=2.50D+02 EigMin=1.00D-04
 Number of steps in this run=    146 maximum allowed number of steps=    150.
 GradGradGradGradGradGradGradGradGradGradGradGradGradGradGradGradGradGrad

 Leave Link  103 at Wed Oct 28 02:06:50 2020, MaxMem=  7784628224 cpu:               0.2 elap:               0.0
 (Enter /gpfs/loomis/apps/avx/software/Gaussian/16-C.01_AVX/g16/l202.exe)
                          Input orientation:                          
 ---------------------------------------------------------------------
 Center     Atomic      Atomic             Coordinates (Angstroms)
 Number     Number       Type             X           Y           Z
 ---------------------------------------------------------------------
      1          6           0        1.490738   -3.244623   -0.000015
      2          6           0        1.002559   -1.929794   -0.000023
      3          6           0        1.829785   -0.762577   -0.000029
      4          6           0        3.230995   -0.981581   -0.000033
      5          6           0        3.722585   -2.302598   -0.000024
      6          6           0        2.877164   -3.430509   -0.000014
      7          1           0        0.790130   -4.096503   -0.000009
      8          1           0        3.930919   -0.128493   -0.000041
      9          1           0        4.810750   -2.453797   -0.000025
     10          1           0        3.301963   -4.443031   -0.000006
     11          7           0        1.081365    0.414386   -0.000035
     12         16           0       -0.687121   -1.530645   -0.000028
     13          6           0       -1.295435    1.089505    0.000015
     14          6           0       -2.639824    0.687986    0.000032
     15          6           0       -0.911993    2.505227    0.000038
     16          6           0       -3.658435    1.671961    0.000036
     17          1           0       -2.910511   -0.378390    0.000033
     18          6           0       -1.979479    3.464796    0.000033
     19          6           0       -3.328622    3.040740    0.000029
     20          1           0       -4.710763    1.358225    0.000042
     21          1           0       -1.715532    4.533872    0.000049
     22          1           0       -4.131975    3.788484    0.000026
     23          6           0       -0.254783    0.135946   -0.000024
     24          8           0        0.336015    2.763155    0.000066
     25          1           0        1.060383    1.427748    0.000016
 ---------------------------------------------------------------------
                    Distance matrix (angstroms):
                    1          2          3          4          5
     1  C    0.000000
     2  C    1.402531   0.000000
     3  C    2.505096   1.430629   0.000000
     4  C    2.854795   2.421784   1.418222   0.000000
     5  C    2.422509   2.745455   2.440155   1.409519   0.000000
     6  C    1.398832   2.401310   2.866159   2.474357   1.409581
     7  H    1.102974   2.177098   3.492270   3.957343   3.437643
     8  H    3.957872   3.438020   2.194727   1.103473   2.184064
     9  H    3.412899   3.844073   3.427299   2.159409   1.098619
    10  H    2.171801   3.406409   3.963970   3.462177   2.181371
    11  N    3.681838   2.345504   1.394766   2.563130   3.789201
    12  S    2.771423   1.736184   2.631491   3.956400   4.476763
    13  C    5.152420   3.794331   3.632796   4.977747   6.056970
    14  C    5.703241   4.485501   4.699099   6.103603   7.030208
    15  C    6.231685   4.830624   4.265664   5.414997   6.677911
    16  C    7.119465   5.890459   6.003960   7.382787   8.383113
    17  H    5.252265   4.209391   4.755839   6.171056   6.906557
    18  C    7.553722   6.163940   5.690446   6.849767   8.110263
    19  C    7.920355   6.592824   6.408930   7.694650   8.847077
    20  H    7.723006   6.591898   6.875796   8.279264   9.193638
    21  H    8.413391   7.011918   6.373511   7.408667   8.735584
    22  H    9.004416   7.685190   7.500316   8.773075   9.939587
    23  C    3.804614   2.418303   2.269971   3.660535   4.665399
    24  O    6.117743   4.740048   3.829116   4.733282   6.093497
    25  H    4.692148   3.358040   2.321530   3.242903   4.582881
                    6          7          8          9         10
     6  C    0.000000
     7  H    2.190721   0.000000
     8  H    3.466080   5.060599   0.000000
     9  H    2.166268   4.343255   2.486190   0.000000
    10  H    1.098024   2.535624   4.360141   2.496695   0.000000
    11  N    4.243596   4.520281   2.900806   4.704762   5.340932
    12  S    4.039010   2.960726   4.826212   5.574835   4.939107
    13  C    6.151513   5.589657   5.366404   7.059779   7.193402
    14  C    6.884704   5.886928   6.621276   8.085904   7.850616
    15  C    7.042065   6.817630   5.512738   7.572431   8.126237
    16  C    8.291517   7.284567   7.799996   9.420668   9.265003
    17  H    6.543135   5.245866   6.845992   7.995323   7.424025
    18  C    8.433991   8.052576   6.916974   9.007605   9.509330
    19  C    8.965982   8.240410   7.921172   9.820352   9.998574
    20  H    8.972659   7.746863   8.768637  10.256253   9.892338
    21  H    9.193705   8.986752   7.322571   9.561374  10.283970
    22  H   10.061903   9.295168   8.963981  10.905888  11.091496
    23  C    4.746440   4.359526   4.194047   5.689147   5.798058
    24  O    6.694693   6.874673   4.613563   6.873125   7.792687
    25  H    5.186844   5.530858   3.265250   5.397373   6.284165
                   11         12         13         14         15
    11  N    0.000000
    12  S    2.628818   0.000000
    13  C    2.470823   2.689839   0.000000
    14  C    3.731233   2.955567   1.403068   0.000000
    15  C    2.888788   4.042133   1.466730   2.507542   0.000000
    16  C    4.903795   4.368684   2.433727   1.416255   2.870066
    17  H    4.069836   2.504228   2.182473   1.100195   3.508464
    18  C    4.321316   5.159906   2.471826   2.854248   1.435374
    19  C    5.132808   5.279687   2.818007   2.451508   2.475251
    20  H    5.868524   4.953309   3.425883   2.176697   3.968156
    21  H    4.979237   6.151097   3.469891   3.955396   2.181988
    22  H    6.209948   6.337205   3.915411   3.440873   3.466270
    23  C    1.364852   1.721756   1.411464   2.448094   2.458744
    24  O    2.464196   4.414015   2.337249   3.627939   1.274383
    25  H    1.013579   3.435966   2.379977   3.773431   2.247495
                   16         17         18         19         20
    16  C    0.000000
    17  H    2.182506   0.000000
    18  C    2.456247   3.954352   0.000000
    19  C    1.407953   3.444599   1.414217   0.000000
    20  H    1.098100   2.501347   3.449283   2.177422   0.000000
    21  H    3.459105   5.055521   1.101177   2.198069   4.365334
    22  H    2.168850   4.342213   2.176697   1.097496   2.498231
    23  C    3.734192   2.705075   3.749109   4.229221   4.620576
    24  O    4.140814   4.517658   2.419465   3.675135   5.238683
    25  H    4.725134   4.362355   3.659280   4.676015   5.771565
                   21         22         23         24         25
    21  H    0.000000
    22  H    2.528794   0.000000
    23  C    4.634171   5.326692   0.000000
    24  O    2.710033   4.584128   2.692818   0.000000
    25  H    4.165779   5.703828   1.843479   1.519218   0.000000
 Symmetry turned off by external request.
 Stoichiometry    C13H9NOS
 Framework group  C1[X(C13H9NOS)]
 Deg. of freedom    69
 Full point group                 C1      NOp   1
 Rotational constants (GHZ):           1.4186731           0.2863879           0.2382852
 Leave Link  202 at Wed Oct 28 02:06:50 2020, MaxMem=  7784628224 cpu:               0.5 elap:               0.1
 (Enter /gpfs/loomis/apps/avx/software/Gaussian/16-C.01_AVX/g16/l301.exe)
 Standard basis: CC-pVDZ (5D, 7F)
 Ernie: Thresh=  0.10000D-02 Tol=  0.10000D-05 Strict=F.
 Ernie:  40 primitive shells out of 425 were deleted.
   273 basis functions,   629 primitive gaussians,   289 cartesian basis functions
    59 alpha electrons       59 beta electrons
       nuclear repulsion energy      1101.3331548032 Hartrees.
 IExCor= 4639 DFT=T Ex+Corr=wB97XD ExCW=0 ScaHFX=  1.000000
 ScaDFX=  1.000000  1.000000  1.000000  1.000000 ScalE2=  1.000000  1.000000
 IRadAn=      5 IRanWt=     -1 IRanGd=            0 ICorTp=0 IEmpDi=121
 HFx  wShort=  0.000000 wLong=  0.200000 cFull=  0.222036 cShort=  0.000000 cLong=  0.777964
 DFx  wShort=  0.000000 wLong=  0.200000 cFull=  0.000000 cShort=  0.000000 cLong=  1.000000
 NAtoms=   25 NActive=   25 NUniq=   25 SFac= 1.00D+00 NAtFMM=   60 NAOKFM=F Big=F
 Integral buffers will be    131072 words long.
 Raffenetti 2 integral format.
 Two-electron integral symmetry is turned off.
 R6Disp:  Grimme-D2 Dispersion energy=       -0.0138356862 Hartrees.
 Nuclear repulsion after empirical dispersion term =     1101.3193191170 Hartrees.
 ------------------------------------------------------------------------------
 Polarizable Continuum Model (PCM)
 =================================
 Model                : PCM.
 Atomic radii         : UFF (Universal Force Field).
 Polarization charges : Total charges.
 Charge compensation  : None.
 Solution method      : On-the-fly selection.
 Cavity type          : Scaled VdW (van der Waals Surface) (Alpha=1.100).
 Cavity algorithm     : GePol (No added spheres)
                        Default sphere list used, NSphG=   25.
                        Lebedev-Laikov grids with approx.  5.0 points / Ang**2.
                        Smoothing algorithm: York/Karplus (Gamma=1.0000).
                        Polarization charges: spherical gaussians, with
                                              point-specific exponents (IZeta= 3).
                        Self-potential: point-specific (ISelfS= 7).
                        Self-field    : sphere-specific E.n sum rule (ISelfD= 2).
 1st derivatives      : Analytical E(r).r(x)/FMM algorithm (CHGder, D1EAlg=3).
                        Cavity 1st derivative terms included.
 Solvent              : CarbonTetraChloride, Eps=   2.228000 Eps(inf)=   2.131892
 ------------------------------------------------------------------------------
 GePol: Number of generator spheres                  =      25
 GePol: Total number of spheres                      =      25
 GePol: Number of exposed spheres                    =      25 (100.00%)
 GePol: Number of points                             =    2180
 GePol: Average weight of points                     =       0.12
 GePol: Minimum weight of points                     =   0.54D-09
 GePol: Maximum weight of points                     =    0.20577
 GePol: Number of points with low weight             =     155
 GePol: Fraction of low-weight points (<1% of avg)   =       7.11%
 GePol: Cavity surface area                          =    271.759 Ang**2
 GePol: Cavity volume                                =    292.406 Ang**3
 Leave Link  301 at Wed Oct 28 02:06:51 2020, MaxMem=  7784628224 cpu:               0.6 elap:               0.1
 (Enter /gpfs/loomis/apps/avx/software/Gaussian/16-C.01_AVX/g16/l302.exe)
 NPDir=0 NMtPBC=     1 NCelOv=     1 NCel=       1 NClECP=     1 NCelD=      1
         NCelK=      1 NCelE2=     1 NClLst=     1 CellRange=     0.0.
 One-electron integrals computed using PRISM.
 NBasis=   273 RedAO= T EigKep=  3.31D-04  NBF=   273
 NBsUse=   273 1.00D-06 EigRej= -1.00D+00 NBFU=   273
 Precomputing XC quadrature grid using
 IXCGrd= 4 IRadAn=           5 IRanWt=          -1 IRanGd=           0 AccXCQ= 0.00D+00.
 Generated NRdTot=       0 NPtTot=           0 NUsed=           0 NTot=          32
 NSgBfM=   288   288   288   288   288 MxSgAt=    25 MxSgA2=    25.
 Leave Link  302 at Wed Oct 28 02:06:52 2020, MaxMem=  7784628224 cpu:               7.6 elap:               0.9
 (Enter /gpfs/loomis/apps/avx/software/Gaussian/16-C.01_AVX/g16/l303.exe)
 DipDrv:  MaxL=1.
 Leave Link  303 at Wed Oct 28 02:06:52 2020, MaxMem=  7784628224 cpu:               0.6 elap:               0.1
 (Enter /gpfs/loomis/apps/avx/software/Gaussian/16-C.01_AVX/g16/l401.exe)
 ExpMin= 1.22D-01 ExpMax= 1.11D+05 ExpMxC= 1.07D+03 IAcc=3 IRadAn=         5 AccDes= 0.00D+00
 Harris functional with IExCor= 4639 and IRadAn=       5 diagonalized for initial guess.
 HarFok:  IExCor= 4639 AccDes= 0.00D+00 IRadAn=         5 IDoV= 1 UseB2=F ITyADJ=14
 ICtDFT=  3500011 ScaDFX=  1.000000  1.000000  1.000000  1.000000
 FoFCou: FMM=F IPFlag=           0 FMFlag=      100000 FMFlg1=           0
         NFxFlg=           0 DoJE=T BraDBF=F KetDBF=T FulRan=T
         wScrn=  0.000000 ICntrl=       500 IOpCl=  0 I1Cent=   200000004 NGrid=           0
         NMat0=    1 NMatS0=      1 NMatT0=    0 NMatD0=    1 NMtDS0=    0 NMtDT0=    0
 Symmetry not used in FoFCou.
 Harris En= -994.444136496963    
 JPrj=0 DoOrth=F DoCkMO=F.
 Leave Link  401 at Wed Oct 28 02:06:53 2020, MaxMem=  7784628224 cpu:              14.2 elap:               1.6
 (Enter /gpfs/loomis/apps/avx/software/Gaussian/16-C.01_AVX/g16/l502.exe)
 Two-electron integral symmetry not used.
 Closed shell SCF:
 Using DIIS extrapolation, IDIIS=  1040.
 NGot=  7784628224 LenX=  7784455381 LenY=  7784371419
 Requested convergence on RMS density matrix=1.00D-08 within 128 cycles.
 Requested convergence on MAX density matrix=1.00D-06.
 Requested convergence on             energy=1.00D-06.
 No special actions if energy rises.
 Fock matrices will be formed incrementally for  20 cycles.

 Cycle   1  Pass 1  IDiag  1:
 FoFJK:  IHMeth= 1 ICntrl=       0 DoSepK=T KAlg= 0 I1Cent=           0 FoldK=F
 IRaf=         1 NMat=       1 IRICut=       1 DoRegI=T DoRafI=F ISym2E= 0 IDoP0=0 IntGTp=1.
 FoFCou: FMM=F IPFlag=           0 FMFlag=      100000 FMFlg1=           0
         NFxFlg=           0 DoJE=T BraDBF=F KetDBF=F FulRan=T
         wScrn=  0.000000 ICntrl=       500 IOpCl=  0 I1Cent=           0 NGrid=           0
         NMat0=    1 NMatS0=      1 NMatT0=    0 NMatD0=    1 NMtDS0=    0 NMtDT0=    0
 Symmetry not used in FoFCou.
 Inv3:  Mode=1 IEnd=    14257200.
 Iteration    1 A*A^-1 deviation from unit magnitude is 3.11D-15 for   2174.
 Iteration    1 A*A^-1 deviation from orthogonality  is 2.09D-15 for   1909    317.
 Iteration    1 A^-1*A deviation from unit magnitude is 3.22D-15 for   2155.
 Iteration    1 A^-1*A deviation from orthogonality  is 1.56D-15 for   1764    235.
 E= -1028.54977684551    
 DIIS: error= 3.51D-02 at cycle   1 NSaved=   1.
 NSaved= 1 IEnMin= 1 EnMin= -1028.54977684551     IErMin= 1 ErrMin= 3.51D-02
 ErrMax= 3.51D-02  0.00D+00 EMaxC= 1.00D-01 BMatC= 3.91D-01 BMatP= 3.91D-01
 IDIUse=3 WtCom= 6.49D-01 WtEn= 3.51D-01
 Coeff-Com:  0.100D+01
 Coeff-En:   0.100D+01
 Coeff:      0.100D+01
 Gap=     0.315 Goal=   None    Shift=    0.000
 GapD=    0.315 DampG=1.000 DampE=0.500 DampFc=0.5000 IDamp=-1.
 Damping current iteration by 5.00D-01
 RMSDP=3.54D-03 MaxDP=2.30D-01              OVMax= 1.93D-01

 Cycle   2  Pass 1  IDiag  1:
 RMSU=  1.76D-03    CP:  9.94D-01
 E= -1028.66601358448     Delta-E=       -0.116236738963 Rises=F Damp=T
 DIIS: error= 1.16D-02 at cycle   2 NSaved=   2.
 NSaved= 2 IEnMin= 2 EnMin= -1028.66601358448     IErMin= 2 ErrMin= 1.16D-02
 ErrMax= 1.16D-02  0.00D+00 EMaxC= 1.00D-01 BMatC= 5.89D-02 BMatP= 3.91D-01
 IDIUse=3 WtCom= 8.84D-01 WtEn= 1.16D-01
 Coeff-Com: -0.284D+00 0.128D+01
 Coeff-En:   0.000D+00 0.100D+01
 Coeff:     -0.251D+00 0.125D+01
 Gap=     0.288 Goal=   None    Shift=    0.000
 RMSDP=1.15D-03 MaxDP=2.53D-02 DE=-1.16D-01 OVMax= 1.34D-01

 Cycle   3  Pass 1  IDiag  1:
 RMSU=  1.11D-03    CP:  9.94D-01  1.16D+00
 E= -1028.76979215811     Delta-E=       -0.103778573638 Rises=F Damp=F
 DIIS: error= 7.17D-03 at cycle   3 NSaved=   3.
 NSaved= 3 IEnMin= 3 EnMin= -1028.76979215811     IErMin= 3 ErrMin= 7.17D-03
 ErrMax= 7.17D-03  0.00D+00 EMaxC= 1.00D-01 BMatC= 1.69D-02 BMatP= 5.89D-02
 IDIUse=3 WtCom= 9.28D-01 WtEn= 7.17D-02
 Coeff-Com: -0.211D+00 0.517D+00 0.695D+00
 Coeff-En:   0.000D+00 0.000D+00 0.100D+01
 Coeff:     -0.196D+00 0.480D+00 0.716D+00
 Gap=     0.244 Goal=   None    Shift=    0.000
 RMSDP=5.74D-04 MaxDP=2.50D-02 DE=-1.04D-01 OVMax= 4.31D-02

 Cycle   4  Pass 1  IDiag  1:
 RMSU=  4.50D-04    CP:  9.92D-01  1.33D+00  8.11D-01
 E= -1028.78580965088     Delta-E=       -0.016017492763 Rises=F Damp=F
 DIIS: error= 2.26D-03 at cycle   4 NSaved=   4.
 NSaved= 4 IEnMin= 4 EnMin= -1028.78580965088     IErMin= 4 ErrMin= 2.26D-03
 ErrMax= 2.26D-03  0.00D+00 EMaxC= 1.00D-01 BMatC= 2.09D-03 BMatP= 1.69D-02
 IDIUse=3 WtCom= 9.77D-01 WtEn= 2.26D-02
 Coeff-Com: -0.731D-01 0.145D+00 0.343D+00 0.585D+00
 Coeff-En:   0.000D+00 0.000D+00 0.000D+00 0.100D+01
 Coeff:     -0.715D-01 0.142D+00 0.335D+00 0.594D+00
 Gap=     0.243 Goal=   None    Shift=    0.000
 RMSDP=1.84D-04 MaxDP=1.06D-02 DE=-1.60D-02 OVMax= 1.39D-02

 Cycle   5  Pass 1  IDiag  1:
 RMSU=  1.10D-04    CP:  9.92D-01  1.34D+00  8.94D-01  7.49D-01
 E= -1028.78802591761     Delta-E=       -0.002216266735 Rises=F Damp=F
 DIIS: error= 4.47D-04 at cycle   5 NSaved=   5.
 NSaved= 5 IEnMin= 5 EnMin= -1028.78802591761     IErMin= 5 ErrMin= 4.47D-04
 ErrMax= 4.47D-04  0.00D+00 EMaxC= 1.00D-01 BMatC= 5.90D-05 BMatP= 2.09D-03
 IDIUse=3 WtCom= 9.96D-01 WtEn= 4.47D-03
 Coeff-Com: -0.132D-02-0.372D-02 0.328D-01 0.157D+00 0.815D+00
 Coeff-En:   0.000D+00 0.000D+00 0.000D+00 0.000D+00 0.100D+01
 Coeff:     -0.131D-02-0.371D-02 0.326D-01 0.156D+00 0.816D+00
 Gap=     0.245 Goal=   None    Shift=    0.000
 RMSDP=5.60D-05 MaxDP=1.91D-03 DE=-2.22D-03 OVMax= 5.24D-03

 Cycle   6  Pass 1  IDiag  1:
 RMSU=  3.61D-05    CP:  9.91D-01  1.34D+00  9.10D-01  8.31D-01  1.10D+00
 E= -1028.78815602828     Delta-E=       -0.000130110665 Rises=F Damp=F
 DIIS: error= 2.73D-04 at cycle   6 NSaved=   6.
 NSaved= 6 IEnMin= 6 EnMin= -1028.78815602828     IErMin= 6 ErrMin= 2.73D-04
 ErrMax= 2.73D-04  0.00D+00 EMaxC= 1.00D-01 BMatC= 1.07D-05 BMatP= 5.90D-05
 IDIUse=3 WtCom= 9.97D-01 WtEn= 2.73D-03
 Coeff-Com:  0.165D-01-0.339D-01-0.613D-01-0.730D-01 0.203D+00 0.948D+00
 Coeff-En:   0.000D+00 0.000D+00 0.000D+00 0.000D+00 0.000D+00 0.100D+01
 Coeff:      0.165D-01-0.339D-01-0.611D-01-0.728D-01 0.203D+00 0.948D+00
 Gap=     0.245 Goal=   None    Shift=    0.000
 RMSDP=3.57D-05 MaxDP=1.72D-03 DE=-1.30D-04 OVMax= 4.76D-03

 Cycle   7  Pass 1  IDiag  1:
 RMSU=  1.75D-05    CP:  9.91D-01  1.34D+00  9.21D-01  8.63D-01  1.29D+00
                    CP:  1.34D+00
 E= -1028.78819244512     Delta-E=       -0.000036416837 Rises=F Damp=F
 DIIS: error= 1.19D-04 at cycle   7 NSaved=   7.
 NSaved= 7 IEnMin= 7 EnMin= -1028.78819244512     IErMin= 7 ErrMin= 1.19D-04
 ErrMax= 1.19D-04  0.00D+00 EMaxC= 1.00D-01 BMatC= 2.49D-06 BMatP= 1.07D-05
 IDIUse=3 WtCom= 9.99D-01 WtEn= 1.19D-03
 Coeff-Com:  0.677D-02-0.129D-01-0.271D-01-0.489D-01-0.238D-01 0.403D+00
 Coeff-Com:  0.703D+00
 Coeff-En:   0.000D+00 0.000D+00 0.000D+00 0.000D+00 0.000D+00 0.000D+00
 Coeff-En:   0.100D+01
 Coeff:      0.677D-02-0.129D-01-0.271D-01-0.488D-01-0.238D-01 0.402D+00
 Coeff:      0.703D+00
 Gap=     0.245 Goal=   None    Shift=    0.000
 RMSDP=1.25D-05 MaxDP=5.34D-04 DE=-3.64D-05 OVMax= 1.38D-03

 Cycle   8  Pass 1  IDiag  1:
 RMSU=  7.69D-06    CP:  9.91D-01  1.34D+00  9.23D-01  8.69D-01  1.33D+00
                    CP:  1.55D+00  1.15D+00
 E= -1028.78819864118     Delta-E=       -0.000006196063 Rises=F Damp=F
 DIIS: error= 6.64D-05 at cycle   8 NSaved=   8.
 NSaved= 8 IEnMin= 8 EnMin= -1028.78819864118     IErMin= 8 ErrMin= 6.64D-05
 ErrMax= 6.64D-05  0.00D+00 EMaxC= 1.00D-01 BMatC= 3.47D-07 BMatP= 2.49D-06
 IDIUse=1 WtCom= 1.00D+00 WtEn= 0.00D+00
 Coeff-Com: -0.158D-02 0.343D-02 0.662D-02 0.303D-02-0.465D-01-0.101D+00
 Coeff-Com:  0.163D+00 0.973D+00
 Coeff:     -0.158D-02 0.343D-02 0.662D-02 0.303D-02-0.465D-01-0.101D+00
 Coeff:      0.163D+00 0.973D+00
 Gap=     0.245 Goal=   None    Shift=    0.000
 RMSDP=7.99D-06 MaxDP=2.28D-04 DE=-6.20D-06 OVMax= 1.40D-03

 Cycle   9  Pass 1  IDiag  1:
 RMSU=  3.02D-06    CP:  9.91D-01  1.34D+00  9.23D-01  8.70D-01  1.35D+00
                    CP:  1.68D+00  1.44D+00  1.24D+00
 E= -1028.78820047488     Delta-E=       -0.000001833703 Rises=F Damp=F
 DIIS: error= 2.16D-05 at cycle   9 NSaved=   9.
 NSaved= 9 IEnMin= 9 EnMin= -1028.78820047488     IErMin= 9 ErrMin= 2.16D-05
 ErrMax= 2.16D-05  0.00D+00 EMaxC= 1.00D-01 BMatC= 9.64D-08 BMatP= 3.47D-07
 IDIUse=1 WtCom= 1.00D+00 WtEn= 0.00D+00
 Coeff-Com: -0.134D-02 0.264D-02 0.593D-02 0.792D-02-0.116D-01-0.897D-01
 Coeff-Com: -0.893D-01 0.315D+00 0.861D+00
 Coeff:     -0.134D-02 0.264D-02 0.593D-02 0.792D-02-0.116D-01-0.897D-01
 Coeff:     -0.893D-01 0.315D+00 0.861D+00
 Gap=     0.246 Goal=   None    Shift=    0.000
 RMSDP=3.92D-06 MaxDP=1.10D-04 DE=-1.83D-06 OVMax= 6.07D-04

 Cycle  10  Pass 1  IDiag  1:
 RMSU=  1.51D-06    CP:  9.91D-01  1.34D+00  9.23D-01  8.70D-01  1.36D+00
                    CP:  1.73D+00  1.54D+00  1.50D+00  1.27D+00
 E= -1028.78820085833     Delta-E=       -0.000000383453 Rises=F Damp=F
 DIIS: error= 1.08D-05 at cycle  10 NSaved=  10.
 NSaved=10 IEnMin=10 EnMin= -1028.78820085833     IErMin=10 ErrMin= 1.08D-05
 ErrMax= 1.08D-05  0.00D+00 EMaxC= 1.00D-01 BMatC= 2.20D-08 BMatP= 9.64D-08
 IDIUse=1 WtCom= 1.00D+00 WtEn= 0.00D+00
 Coeff-Com:  0.390D-04-0.151D-03 0.255D-03 0.167D-02 0.749D-02-0.490D-02
 Coeff-Com: -0.875D-01-0.914D-01 0.349D+00 0.825D+00
 Coeff:      0.390D-04-0.151D-03 0.255D-03 0.167D-02 0.749D-02-0.490D-02
 Coeff:     -0.875D-01-0.914D-01 0.349D+00 0.825D+00
 Gap=     0.246 Goal=   None    Shift=    0.000
 RMSDP=1.77D-06 MaxDP=5.32D-05 DE=-3.83D-07 OVMax= 3.23D-04

 Cycle  11  Pass 1  IDiag  1:
 RMSU=  5.82D-07    CP:  9.91D-01  1.34D+00  9.23D-01  8.70D-01  1.36D+00
                    CP:  1.75D+00  1.58D+00  1.61D+00  1.59D+00  1.12D+00
 E= -1028.78820094405     Delta-E=       -0.000000085718 Rises=F Damp=F
 DIIS: error= 3.40D-06 at cycle  11 NSaved=  11.
 NSaved=11 IEnMin=11 EnMin= -1028.78820094405     IErMin=11 ErrMin= 3.40D-06
 ErrMax= 3.40D-06  0.00D+00 EMaxC= 1.00D-01 BMatC= 4.71D-09 BMatP= 2.20D-08
 IDIUse=1 WtCom= 1.00D+00 WtEn= 0.00D+00
 Coeff-Com:  0.291D-03-0.603D-03-0.102D-02-0.921D-03 0.535D-02 0.160D-01
 Coeff-Com: -0.221D-01-0.882D-01-0.453D-01 0.306D+00 0.830D+00
 Coeff:      0.291D-03-0.603D-03-0.102D-02-0.921D-03 0.535D-02 0.160D-01
 Coeff:     -0.221D-01-0.882D-01-0.453D-01 0.306D+00 0.830D+00
 Gap=     0.246 Goal=   None    Shift=    0.000
 RMSDP=8.13D-07 MaxDP=2.02D-05 DE=-8.57D-08 OVMax= 1.31D-04

 Cycle  12  Pass 1  IDiag  1:
 RMSU=  2.57D-07    CP:  9.91D-01  1.34D+00  9.23D-01  8.71D-01  1.36D+00
                    CP:  1.76D+00  1.59D+00  1.66D+00  1.72D+00  1.39D+00
                    CP:  1.14D+00
 E= -1028.78820095890     Delta-E=       -0.000000014847 Rises=F Damp=F
 DIIS: error= 1.63D-06 at cycle  12 NSaved=  12.
 NSaved=12 IEnMin=12 EnMin= -1028.78820095890     IErMin=12 ErrMin= 1.63D-06
 ErrMax= 1.63D-06  0.00D+00 EMaxC= 1.00D-01 BMatC= 7.57D-10 BMatP= 4.71D-09
 IDIUse=1 WtCom= 1.00D+00 WtEn= 0.00D+00
 Coeff-Com:  0.136D-03-0.265D-03-0.543D-03-0.892D-03 0.972D-03 0.903D-02
 Coeff-Com:  0.718D-02-0.155D-01-0.963D-01-0.400D-01 0.325D+00 0.811D+00
 Coeff:      0.136D-03-0.265D-03-0.543D-03-0.892D-03 0.972D-03 0.903D-02
 Coeff:      0.718D-02-0.155D-01-0.963D-01-0.400D-01 0.325D+00 0.811D+00
 Gap=     0.246 Goal=   None    Shift=    0.000
 RMSDP=3.04D-07 MaxDP=8.96D-06 DE=-1.48D-08 OVMax= 5.04D-05

 Cycle  13  Pass 1  IDiag  1:
 RMSU=  9.97D-08    CP:  9.91D-01  1.34D+00  9.23D-01  8.71D-01  1.36D+00
                    CP:  1.76D+00  1.60D+00  1.67D+00  1.77D+00  1.48D+00
                    CP:  1.36D+00  1.05D+00
 E= -1028.78820096123     Delta-E=       -0.000000002333 Rises=F Damp=F
 DIIS: error= 4.36D-07 at cycle  13 NSaved=  13.
 NSaved=13 IEnMin=13 EnMin= -1028.78820096123     IErMin=13 ErrMin= 4.36D-07
 ErrMax= 4.36D-07  0.00D+00 EMaxC= 1.00D-01 BMatC= 8.54D-11 BMatP= 7.57D-10
 IDIUse=1 WtCom= 1.00D+00 WtEn= 0.00D+00
 Coeff-Com: -0.338D-05 0.106D-04-0.464D-05-0.127D-03-0.363D-03 0.660D-03
 Coeff-Com:  0.376D-02 0.735D-02-0.218D-01-0.486D-01-0.350D-01 0.230D+00
 Coeff-Com:  0.864D+00
 Coeff:     -0.338D-05 0.106D-04-0.464D-05-0.127D-03-0.363D-03 0.660D-03
 Coeff:      0.376D-02 0.735D-02-0.218D-01-0.486D-01-0.350D-01 0.230D+00
 Coeff:      0.864D+00
 Gap=     0.246 Goal=   None    Shift=    0.000
 RMSDP=1.05D-07 MaxDP=2.36D-06 DE=-2.33D-09 OVMax= 1.42D-05

 Cycle  14  Pass 1  IDiag  1:
 RMSU=  3.87D-08    CP:  9.91D-01  1.34D+00  9.23D-01  8.71D-01  1.36D+00
                    CP:  1.76D+00  1.60D+00  1.67D+00  1.79D+00  1.51D+00
                    CP:  1.43D+00  1.22D+00  1.10D+00
 E= -1028.78820096146     Delta-E=       -0.000000000223 Rises=F Damp=F
 DIIS: error= 2.29D-07 at cycle  14 NSaved=  14.
 NSaved=14 IEnMin=14 EnMin= -1028.78820096146     IErMin=14 ErrMin= 2.29D-07
 ErrMax= 2.29D-07  0.00D+00 EMaxC= 1.00D-01 BMatC= 1.31D-11 BMatP= 8.54D-11
 IDIUse=1 WtCom= 1.00D+00 WtEn= 0.00D+00
 Coeff-Com: -0.152D-04 0.311D-04 0.553D-04 0.443D-04-0.231D-03-0.611D-03
 Coeff-Com:  0.559D-03 0.506D-02 0.206D-02-0.132D-01-0.493D-01 0.571D-03
 Coeff-Com:  0.343D+00 0.712D+00
 Coeff:     -0.152D-04 0.311D-04 0.553D-04 0.443D-04-0.231D-03-0.611D-03
 Coeff:      0.559D-03 0.506D-02 0.206D-02-0.132D-01-0.493D-01 0.571D-03
 Coeff:      0.343D+00 0.712D+00
 Gap=     0.246 Goal=   None    Shift=    0.000
 RMSDP=2.39D-08 MaxDP=5.85D-07 DE=-2.23D-10 OVMax= 2.78D-06

 Cycle  15  Pass 1  IDiag  1:
 RMSU=  1.53D-08    CP:  9.91D-01  1.34D+00  9.23D-01  8.71D-01  1.36D+00
                    CP:  1.76D+00  1.60D+00  1.67D+00  1.79D+00  1.52D+00
                    CP:  1.44D+00  1.25D+00  1.23D+00  1.01D+00
 E= -1028.78820096148     Delta-E=       -0.000000000020 Rises=F Damp=F
 DIIS: error= 7.54D-08 at cycle  15 NSaved=  15.
 NSaved=15 IEnMin=15 EnMin= -1028.78820096148     IErMin=15 ErrMin= 7.54D-08
 ErrMax= 7.54D-08  0.00D+00 EMaxC= 1.00D-01 BMatC= 1.67D-12 BMatP= 1.31D-11
 IDIUse=1 WtCom= 1.00D+00 WtEn= 0.00D+00
 Coeff-Com: -0.436D-05 0.811D-05 0.199D-04 0.431D-04-0.110D-04-0.367D-03
 Coeff-Com: -0.791D-03 0.444D-04 0.522D-02 0.717D-02-0.660D-02-0.525D-01
 Coeff-Com: -0.710D-01 0.207D+00 0.912D+00
 Coeff:     -0.436D-05 0.811D-05 0.199D-04 0.431D-04-0.110D-04-0.367D-03
 Coeff:     -0.791D-03 0.444D-04 0.522D-02 0.717D-02-0.660D-02-0.525D-01
 Coeff:     -0.710D-01 0.207D+00 0.912D+00
 Gap=     0.246 Goal=   None    Shift=    0.000
 RMSDP=1.26D-08 MaxDP=2.74D-07 DE=-2.02D-11 OVMax= 1.54D-06

 Cycle  16  Pass 1  IDiag  1:
 RMSU=  5.66D-09    CP:  9.91D-01  1.34D+00  9.23D-01  8.71D-01  1.36D+00
                    CP:  1.76D+00  1.60D+00  1.67D+00  1.79D+00  1.52D+00
                    CP:  1.44D+00  1.26D+00  1.29D+00  1.20D+00  1.15D+00
 E= -1028.78820096150     Delta-E=       -0.000000000025 Rises=F Damp=F
 DIIS: error= 3.00D-08 at cycle  16 NSaved=  16.
 NSaved=16 IEnMin=16 EnMin= -1028.78820096150     IErMin=16 ErrMin= 3.00D-08
 ErrMax= 3.00D-08  0.00D+00 EMaxC= 1.00D-01 BMatC= 1.78D-13 BMatP= 1.67D-12
 IDIUse=1 WtCom= 1.00D+00 WtEn= 0.00D+00
 Coeff-Com:  0.110D-06-0.417D-06 0.483D-06 0.763D-05 0.128D-04-0.501D-04
 Coeff-Com: -0.250D-03-0.399D-03 0.100D-02 0.276D-02 0.267D-02-0.155D-01
 Coeff-Com: -0.484D-01-0.257D-01 0.217D+00 0.867D+00
 Coeff:      0.110D-06-0.417D-06 0.483D-06 0.763D-05 0.128D-04-0.501D-04
 Coeff:     -0.250D-03-0.399D-03 0.100D-02 0.276D-02 0.267D-02-0.155D-01
 Coeff:     -0.484D-01-0.257D-01 0.217D+00 0.867D+00
 Gap=     0.246 Goal=   None    Shift=    0.000
 RMSDP=4.71D-09 MaxDP=1.35D-07 DE=-2.48D-11 OVMax= 5.90D-07

 Error on total polarization charges =  0.00836
 SCF Done:  E(RwB97XD) =  -1028.78820096     A.U. after   16 cycles
            NFock= 16  Conv=0.47D-08     -V/T= 2.0051
 KE= 1.023559627932D+03 PE=-4.614382623390D+03 EE= 1.460715475379D+03
 Leave Link  502 at Wed Oct 28 02:08:22 2020, MaxMem=  7784628224 cpu:             871.7 elap:              88.0
 (Enter /gpfs/loomis/apps/avx/software/Gaussian/16-C.01_AVX/g16/l601.exe)
 Copying SCF densities to generalized density rwf, IOpCl= 0 IROHF=0.

 **********************************************************************

            Population analysis using the SCF Density.

 **********************************************************************

 Alpha  occ. eigenvalues --  -89.09846 -19.21711 -14.51668 -10.41037 -10.38295
 Alpha  occ. eigenvalues --  -10.36241 -10.36132 -10.33441 -10.33439 -10.32765
 Alpha  occ. eigenvalues --  -10.32608 -10.32005 -10.31551 -10.30667 -10.29873
 Alpha  occ. eigenvalues --  -10.29354  -8.12019  -6.06862  -6.06510  -6.06047
 Alpha  occ. eigenvalues --   -1.12947  -1.09437  -0.97976  -0.95943  -0.93112
 Alpha  occ. eigenvalues --   -0.88994  -0.86582  -0.83268  -0.81639  -0.76090
 Alpha  occ. eigenvalues --   -0.72865  -0.71803  -0.68209  -0.67711  -0.65176
 Alpha  occ. eigenvalues --   -0.60878  -0.59411  -0.57036  -0.55563  -0.55258
 Alpha  occ. eigenvalues --   -0.54678  -0.53990  -0.52841  -0.50125  -0.49414
 Alpha  occ. eigenvalues --   -0.48861  -0.48320  -0.46780  -0.45166  -0.45025
 Alpha  occ. eigenvalues --   -0.44085  -0.43278  -0.42283  -0.40312  -0.36632
 Alpha  occ. eigenvalues --   -0.33292  -0.32679  -0.31262  -0.26545
 Alpha virt. eigenvalues --   -0.01990   0.03681   0.05319   0.06964   0.08736
 Alpha virt. eigenvalues --    0.10493   0.14361   0.14889   0.16940   0.17486
 Alpha virt. eigenvalues --    0.18549   0.20107   0.20831   0.21109   0.22679
 Alpha virt. eigenvalues --    0.23285   0.24002   0.25171   0.27618   0.28056
 Alpha virt. eigenvalues --    0.31627   0.33452   0.34997   0.35125   0.36239
 Alpha virt. eigenvalues --    0.37496   0.38520   0.40624   0.41383   0.43121
 Alpha virt. eigenvalues --    0.47176   0.47186   0.50782   0.51101   0.51425
 Alpha virt. eigenvalues --    0.52110   0.52824   0.53305   0.53709   0.54577
 Alpha virt. eigenvalues --    0.56024   0.56420   0.56592   0.56645   0.57631
 Alpha virt. eigenvalues --    0.57863   0.58509   0.58960   0.59301   0.59868
 Alpha virt. eigenvalues --    0.61187   0.61380   0.61877   0.62646   0.63320
 Alpha virt. eigenvalues --    0.65046   0.66013   0.66900   0.67941   0.68645
 Alpha virt. eigenvalues --    0.70582   0.70802   0.71813   0.72820   0.72960
 Alpha virt. eigenvalues --    0.73930   0.74404   0.75485   0.75647   0.77821
 Alpha virt. eigenvalues --    0.78301   0.79371   0.80141   0.80438   0.82630
 Alpha virt. eigenvalues --    0.85075   0.87249   0.90822   0.91122   0.92963
 Alpha virt. eigenvalues --    0.94133   0.94242   0.96077   0.96204   0.96868
 Alpha virt. eigenvalues --    0.98088   0.98641   1.00407   1.00836   1.01265
 Alpha virt. eigenvalues --    1.02446   1.04932   1.05293   1.06267   1.07197
 Alpha virt. eigenvalues --    1.07618   1.09601   1.09894   1.10072   1.10455
 Alpha virt. eigenvalues --    1.12016   1.12739   1.14067   1.14720   1.15286
 Alpha virt. eigenvalues --    1.16242   1.19621   1.20318   1.22123   1.23478
 Alpha virt. eigenvalues --    1.25268   1.28605   1.31353   1.32678   1.33821
 Alpha virt. eigenvalues --    1.36576   1.36829   1.38896   1.40807   1.46657
 Alpha virt. eigenvalues --    1.48392   1.49966   1.52666   1.54052   1.54491
 Alpha virt. eigenvalues --    1.56232   1.56727   1.56829   1.58003   1.58216
 Alpha virt. eigenvalues --    1.60365   1.60588   1.64361   1.64740   1.66639
 Alpha virt. eigenvalues --    1.66779   1.68905   1.69698   1.70295   1.71182
 Alpha virt. eigenvalues --    1.71257   1.71993   1.73100   1.73443   1.75246
 Alpha virt. eigenvalues --    1.77100   1.79072   1.79917   1.80105   1.80825
 Alpha virt. eigenvalues --    1.82177   1.83166   1.83659   1.84751   1.84871
 Alpha virt. eigenvalues --    1.86979   1.88139   1.88262   1.90841   1.91025
 Alpha virt. eigenvalues --    1.92312   1.93055   1.94065   1.95317   1.96813
 Alpha virt. eigenvalues --    1.98003   1.98623   1.99074   2.02752   2.03121
 Alpha virt. eigenvalues --    2.05796   2.07368   2.09093   2.09847   2.13345
 Alpha virt. eigenvalues --    2.16441   2.17426   2.20168   2.20348   2.22600
 Alpha virt. eigenvalues --    2.25451   2.25776   2.30964   2.35645   2.38717
 Alpha virt. eigenvalues --    2.41140   2.41982   2.44934   2.46822   2.47090
 Alpha virt. eigenvalues --    2.50032   2.51409   2.51618   2.54953   2.60118
 Alpha virt. eigenvalues --    2.60967   2.70112   2.73329   2.73957   2.76805
 Alpha virt. eigenvalues --    2.79184   2.81431   2.83892   2.84907   2.87462
 Alpha virt. eigenvalues --    2.90163   2.99336   3.14982   3.22546   3.42718
 Alpha virt. eigenvalues --    3.46131   3.52766   3.59686   3.72656
          Condensed to atoms (all electrons):
               1          2          3          4          5          6
     1  C    4.748200   0.492018   0.004774  -0.051292  -0.016475   0.509294
     2  C    0.492018   5.286520   0.327139  -0.042488  -0.067389  -0.008829
     3  C    0.004774   0.327139   4.901705   0.495811  -0.004681  -0.060732
     4  C   -0.051292  -0.042488   0.495811   4.798638   0.515586  -0.011265
     5  C   -0.016475  -0.067389  -0.004681   0.515586   4.740670   0.495965
     6  C    0.509294  -0.008829  -0.060732  -0.011265   0.495965   4.739154
     7  H    0.402692  -0.037296   0.008402  -0.000664   0.007662  -0.038661
     8  H   -0.000506   0.009834  -0.033521   0.396956  -0.038864   0.007142
     9  H    0.008812  -0.000723   0.008189  -0.037683   0.404709  -0.044022
    10  H   -0.042302   0.008968  -0.000451   0.007870  -0.040967   0.406938
    11  N    0.004017  -0.037846   0.348683  -0.044955   0.002377   0.000120
    12  S   -0.073614   0.323474  -0.114510   0.005560   0.000283   0.004352
    13  C   -0.000225   0.000763   0.010264  -0.000352   0.000007   0.000005
    14  C   -0.000014   0.000198   0.000515   0.000007  -0.000000  -0.000000
    15  C    0.000005  -0.000271   0.000097   0.000026  -0.000000   0.000000
    16  C    0.000000  -0.000011   0.000004  -0.000000   0.000000  -0.000000
    17  H   -0.000020   0.000338  -0.000006   0.000001  -0.000000   0.000000
    18  C    0.000000   0.000009  -0.000011  -0.000000   0.000000  -0.000000
    19  C   -0.000000   0.000000   0.000001   0.000000  -0.000000   0.000000
    20  H   -0.000000  -0.000000  -0.000000  -0.000000  -0.000000  -0.000000
    21  H   -0.000000  -0.000000  -0.000001  -0.000000  -0.000000   0.000000
    22  H    0.000000  -0.000000  -0.000000  -0.000000   0.000000  -0.000000
    23  C    0.003616  -0.044424  -0.118951   0.000656   0.000226  -0.000235
    24  O    0.000002  -0.000126  -0.000257  -0.000004   0.000000  -0.000000
    25  H    0.000132   0.007985  -0.037226  -0.002580  -0.000048  -0.000006
               7          8          9         10         11         12
     1  C    0.402692  -0.000506   0.008812  -0.042302   0.004017  -0.073614
     2  C   -0.037296   0.009834  -0.000723   0.008968  -0.037846   0.323474
     3  C    0.008402  -0.033521   0.008189  -0.000451   0.348683  -0.114510
     4  C   -0.000664   0.396956  -0.037683   0.007870  -0.044955   0.005560
     5  C    0.007662  -0.038864   0.404709  -0.040967   0.002377   0.000283
     6  C   -0.038661   0.007142  -0.044022   0.406938   0.000120   0.004352
     7  H    0.643419   0.000026  -0.000149  -0.010117  -0.000073  -0.007945
     8  H    0.000026   0.634986  -0.011883  -0.000093  -0.002999  -0.000230
     9  H   -0.000149  -0.011883   0.652485  -0.011503  -0.000083   0.000017
    10  H   -0.010117  -0.000093  -0.011503   0.650421   0.000003  -0.000165
    11  N   -0.000073  -0.002999  -0.000083   0.000003   6.140260  -0.052512
    12  S   -0.007945  -0.000230   0.000017  -0.000165  -0.052512  15.464883
    13  C   -0.000007   0.000022  -0.000000  -0.000000  -0.029159  -0.067600
    14  C    0.000002   0.000000   0.000000  -0.000000   0.003640  -0.016984
    15  C   -0.000000  -0.000004   0.000000   0.000000  -0.008303   0.005895
    16  C    0.000000   0.000000  -0.000000  -0.000000  -0.000059   0.000718
    17  H   -0.000000   0.000000   0.000000  -0.000000   0.000221   0.008762
    18  C    0.000000  -0.000000   0.000000  -0.000000  -0.000428  -0.000254
    19  C   -0.000000   0.000000  -0.000000  -0.000000   0.000023   0.000027
    20  H    0.000000   0.000000   0.000000   0.000000   0.000001   0.000025
    21  H   -0.000000   0.000000  -0.000000   0.000000   0.000009   0.000005
    22  H    0.000000  -0.000000   0.000000  -0.000000  -0.000000  -0.000001
    23  C    0.000250  -0.000583   0.000006   0.000006   0.530234   0.313480
    24  O    0.000000  -0.000085   0.000000  -0.000000  -0.054524  -0.000027
    25  H    0.000005   0.000574  -0.000005  -0.000000   0.328060   0.004971
              13         14         15         16         17         18
     1  C   -0.000225  -0.000014   0.000005   0.000000  -0.000020   0.000000
     2  C    0.000763   0.000198  -0.000271  -0.000011   0.000338   0.000009
     3  C    0.010264   0.000515   0.000097   0.000004  -0.000006  -0.000011
     4  C   -0.000352   0.000007   0.000026  -0.000000   0.000001  -0.000000
     5  C    0.000007  -0.000000  -0.000000   0.000000  -0.000000   0.000000
     6  C    0.000005  -0.000000   0.000000  -0.000000   0.000000  -0.000000
     7  H   -0.000007   0.000002  -0.000000   0.000000  -0.000000   0.000000
     8  H    0.000022   0.000000  -0.000004   0.000000   0.000000  -0.000000
     9  H   -0.000000   0.000000   0.000000  -0.000000   0.000000   0.000000
    10  H   -0.000000  -0.000000   0.000000  -0.000000  -0.000000  -0.000000
    11  N   -0.029159   0.003640  -0.008303  -0.000059   0.000221  -0.000428
    12  S   -0.067600  -0.016984   0.005895   0.000718   0.008762  -0.000254
    13  C    5.429717   0.423524   0.196702  -0.009089  -0.035614  -0.040481
    14  C    0.423524   4.889292   0.005072   0.536923   0.396309  -0.058390
    15  C    0.196702   0.005072   4.731786  -0.051310   0.005255   0.454179
    16  C   -0.009089   0.536923  -0.051310   4.758293  -0.029860  -0.020448
    17  H   -0.035614   0.396309   0.005255  -0.029860   0.654196  -0.000719
    18  C   -0.040481  -0.058390   0.454179  -0.020448  -0.000719   4.914636
    19  C   -0.053559  -0.020754  -0.004137   0.480325   0.007423   0.502876
    20  H    0.008757  -0.036011  -0.000165   0.400146  -0.011037   0.007798
    21  H    0.014870  -0.000686  -0.026644   0.007324   0.000046   0.374511
    22  H   -0.001761   0.009809   0.008278  -0.044830  -0.000185  -0.039996
    23  C    0.375434  -0.087738  -0.075297   0.005779  -0.023415   0.010131
    24  O   -0.102554   0.006593   0.633305  -0.000176  -0.000069  -0.061591
    25  H   -0.036810  -0.000959  -0.012880   0.000062  -0.000095   0.003288
              19         20         21         22         23         24
     1  C   -0.000000  -0.000000  -0.000000   0.000000   0.003616   0.000002
     2  C    0.000000  -0.000000  -0.000000  -0.000000  -0.044424  -0.000126
     3  C    0.000001  -0.000000  -0.000001  -0.000000  -0.118951  -0.000257
     4  C    0.000000  -0.000000  -0.000000  -0.000000   0.000656  -0.000004
     5  C   -0.000000  -0.000000  -0.000000   0.000000   0.000226   0.000000
     6  C    0.000000  -0.000000   0.000000  -0.000000  -0.000235  -0.000000
     7  H   -0.000000   0.000000  -0.000000   0.000000   0.000250   0.000000
     8  H    0.000000   0.000000   0.000000  -0.000000  -0.000583  -0.000085
     9  H   -0.000000   0.000000  -0.000000   0.000000   0.000006   0.000000
    10  H   -0.000000   0.000000   0.000000  -0.000000   0.000006  -0.000000
    11  N    0.000023   0.000001   0.000009  -0.000000   0.530234  -0.054524
    12  S    0.000027   0.000025   0.000005  -0.000001   0.313480  -0.000027
    13  C   -0.053559   0.008757   0.014870  -0.001761   0.375434  -0.102554
    14  C   -0.020754  -0.036011  -0.000686   0.009809  -0.087738   0.006593
    15  C   -0.004137  -0.000165  -0.026644   0.008278  -0.075297   0.633305
    16  C    0.480325   0.400146   0.007324  -0.044830   0.005779  -0.000176
    17  H    0.007423  -0.011037   0.000046  -0.000185  -0.023415  -0.000069
    18  C    0.502876   0.007798   0.374511  -0.039996   0.010131  -0.061591
    19  C    4.745907  -0.045307  -0.045002   0.402977   0.000557   0.003614
    20  H   -0.045307   0.680116  -0.000131  -0.011899  -0.000389   0.000001
    21  H   -0.045002  -0.000131   0.672432  -0.012131  -0.000475   0.004126
    22  H    0.402977  -0.011899  -0.012131   0.667952  -0.000002  -0.000058
    23  C    0.000557  -0.000389  -0.000475  -0.000002   5.067744  -0.009182
    24  O    0.003614   0.000001   0.004126  -0.000058  -0.009182   7.873341
    25  H   -0.000328  -0.000001  -0.000001   0.000005   0.019409   0.120900
              25
     1  C    0.000132
     2  C    0.007985
     3  C   -0.037226
     4  C   -0.002580
     5  C   -0.000048
     6  C   -0.000006
     7  H    0.000005
     8  H    0.000574
     9  H   -0.000005
    10  H   -0.000000
    11  N    0.328060
    12  S    0.004971
    13  C   -0.036810
    14  C   -0.000959
    15  C   -0.012880
    16  C    0.000062
    17  H   -0.000095
    18  C    0.003288
    19  C   -0.000328
    20  H   -0.000001
    21  H   -0.000001
    22  H    0.000005
    23  C    0.019409
    24  O    0.120900
    25  H    0.486590
 Mulliken charges:
               1
     1  C    0.010887
     2  C   -0.217842
     3  C    0.264762
     4  C   -0.029829
     5  C    0.000937
     6  C    0.000780
     7  H    0.032454
     8  H    0.039228
     9  H    0.031835
    10  H    0.031393
    11  N   -0.126709
    12  S    0.201389
    13  C   -0.082852
    14  C   -0.050347
    15  C    0.138411
    16  C   -0.033791
    17  H    0.028471
    18  C   -0.045108
    19  C    0.025355
    20  H    0.008096
    21  H    0.011748
    22  H    0.021841
    23  C    0.033163
    24  O   -0.413230
    25  H    0.118958
 Sum of Mulliken charges =  -0.00000
 Mulliken charges with hydrogens summed into heavy atoms:
               1
     1  C    0.043341
     2  C   -0.217842
     3  C    0.264762
     4  C    0.009399
     5  C    0.032772
     6  C    0.032173
    11  N   -0.007752
    12  S    0.201389
    13  C   -0.082852
    14  C   -0.021876
    15  C    0.138411
    16  C   -0.025695
    18  C   -0.033360
    19  C    0.047196
    23  C    0.033163
    24  O   -0.413230
 Electronic spatial extent (au):  <R**2>=           4321.2451
 Charge=             -0.0000 electrons
 Dipole moment (field-independent basis, Debye):
    X=              1.1269    Y=             -5.3947    Z=             -0.0001  Tot=              5.5111
 Quadrupole moment (field-independent basis, Debye-Ang):
   XX=            -82.1808   YY=            -94.8018   ZZ=           -104.3532
   XY=             -6.8495   XZ=             -0.0001   YZ=             -0.0003
 Traceless Quadrupole moment (field-independent basis, Debye-Ang):
   XX=             11.5978   YY=             -1.0232   ZZ=            -10.5746
   XY=             -6.8495   XZ=             -0.0001   YZ=             -0.0003
 Octapole moment (field-independent basis, Debye-Ang**2):
  XXX=             28.5521  YYY=            -59.1334  ZZZ=              0.0000  XYY=              0.1501
  XXY=             -6.4692  XXZ=             -0.0000  XZZ=              2.1670  YZZ=              3.2268
  YYZ=             -0.0005  XYZ=             -0.0003
 Hexadecapole moment (field-independent basis, Debye-Ang**3):
 XXXX=          -2591.0081 YYYY=          -2645.7764 ZZZZ=           -113.4090 XXXY=            808.1031
 XXXZ=              0.0101 YYYX=            772.2065 YYYZ=             -0.0169 ZZZX=              0.0144
 ZZZY=             -0.0166 XXYY=           -838.5704 XXZZ=           -574.7136 YYZZ=           -544.3544
 XXYZ=             -0.0047 YYXZ=              0.0032 ZZXY=            360.8207
 N-N= 1.101319319117D+03 E-N=-4.614382625289D+03  KE= 1.023559627932D+03
 No NMR shielding tensors so no spin-rotation constants.
 Leave Link  601 at Wed Oct 28 02:08:22 2020, MaxMem=  7784628224 cpu:               1.8 elap:               0.3
 (Enter /gpfs/loomis/apps/avx/software/Gaussian/16-C.01_AVX/g16/l701.exe)
 ... and contract with generalized density number  0.
 Compute integral first derivatives.
 R6Disp: Adding Grimme-D2 dispersion energy 1st derivatives to the gradient.
 D1PCM: PCM CHGder 1st derivatives, ID1Alg=3 FixD1E=F DoIter=F DoCFld=F I1PDM=0.
 GePol: Maximum number of non-zero 1st derivatives   =     240
 Leave Link  701 at Wed Oct 28 02:08:25 2020, MaxMem=  7784628224 cpu:              23.3 elap:               2.7
 (Enter /gpfs/loomis/apps/avx/software/Gaussian/16-C.01_AVX/g16/l702.exe)
 L702 exits ... SP integral derivatives will be done elsewhere.
 Leave Link  702 at Wed Oct 28 02:08:25 2020, MaxMem=  7784628224 cpu:               0.2 elap:               0.1
 (Enter /gpfs/loomis/apps/avx/software/Gaussian/16-C.01_AVX/g16/l703.exe)
 Integral derivatives from FoFJK, PRISM(SPDF).
 Compute integral first derivatives, UseDBF=F ICtDFT=           0.
 Calling FoFJK, ICntrl=      2127 FMM=F ISym2X=0 I1Cent= 0 IOpClX= 0 NMat=1 NMatS=1 NMatT=0.
 FoFJK:  IHMeth= 1 ICntrl=    2127 DoSepK=T KAlg= 0 I1Cent=           0 FoldK=F
 IRaf=         1 NMat=       1 IRICut=       1 DoRegI=T DoRafI=F ISym2E= 0 IDoP0=0 IntGTp=1.
 FoFCou: FMM=F IPFlag=           0 FMFlag=      100000 FMFlg1=         800
         NFxFlg=           0 DoJE=F BraDBF=F KetDBF=F FulRan=T
         wScrn=  0.000000 ICntrl=      2527 IOpCl=  0 I1Cent=           0 NGrid=           0
         NMat0=    1 NMatS0=      1 NMatT0=    0 NMatD0=    1 NMtDS0=    0 NMtDT0=    0
 Symmetry not used in FoFCou.
 Leave Link  703 at Wed Oct 28 02:08:40 2020, MaxMem=  7784628224 cpu:             138.1 elap:              15.3
 (Enter /gpfs/loomis/apps/avx/software/Gaussian/16-C.01_AVX/g16/l716.exe)
 Dipole        = 4.43345837D-01-2.12243225D+00-3.52494404D-05
 -------------------------------------------------------------------
 Center     Atomic                   Forces (Hartrees/Bohr)
 Number     Number              X              Y              Z
 -------------------------------------------------------------------
      1        6           0.006172749    0.003714662   -0.000000139
      2        6           0.013255728   -0.003163862   -0.000000283
      3        6           0.014840794   -0.024351993    0.000000015
      4        6          -0.005621836    0.002763523    0.000000158
      5        6          -0.002325011    0.006093523    0.000000080
      6        6          -0.002734980    0.007728486   -0.000000191
      7        1           0.005709300    0.006449402   -0.000000084
      8        1          -0.005943850   -0.006462679    0.000000114
      9        1          -0.005023074    0.001489074   -0.000000001
     10        1          -0.001831491    0.005211551   -0.000000041
     11        7          -0.051533453   -0.070996488   -0.000001073
     12       16           0.008076840   -0.005260660   -0.000000577
     13        6           0.002784891    0.019329990   -0.000000527
     14        6          -0.031369911    0.025875029   -0.000001265
     15        6           0.006100611   -0.017576849    0.000000695
     16        6           0.011354529   -0.029166635    0.000000013
     17        1          -0.000997607    0.006237770    0.000000019
     18        6          -0.020844133   -0.002601100    0.000000798
     19        6           0.032834151    0.009203796    0.000000410
     20        1           0.004969128    0.001465789    0.000000066
     21        1          -0.001783174   -0.006700094   -0.000000524
     22        1           0.003415290   -0.001977692    0.000000081
     23        6          -0.000538965    0.003166186    0.000001313
     24        8          -0.006410788    0.013683317   -0.000001322
     25        1           0.027444261    0.055845954    0.000002264
 -------------------------------------------------------------------
 Cartesian Forces:  Max     0.070996488 RMS     0.015664842
 Leave Link  716 at Wed Oct 28 02:08:40 2020, MaxMem=  7784628224 cpu:               0.5 elap:               0.1
 (Enter /gpfs/loomis/apps/avx/software/Gaussian/16-C.01_AVX/g16/l103.exe)

 GradGradGradGradGradGradGradGradGradGradGradGradGradGradGradGradGradGrad
 Berny optimization.
 FormGI is forming the generalized inverse of G from B-inverse, IUseBI=4.
 GSVD:  received Info=                   1 from GESDD.
 Internal  Forces:  Max     0.042450224 RMS     0.008841054
 Search for a local minimum.
 Step number   1 out of a maximum of  146
 All quantities printed in internal units (Hartrees-Bohrs-Radians)
 RMS Force = .89067D-02 SwitMx=.10000D-02 MixMth= 1
 Mixed Optimization -- RFO/linear search
 Second derivative matrix not updated -- first step.
 ITU=  0
 DSYEVD-2 returned Info=        4725 IAlg= 4 N=   136 NDim=   136 NE2=    57225905 trying  DSYEV.
     Eigenvalues ---    0.01408   0.01525   0.01600   0.01730   0.01761
     Eigenvalues ---    0.01768   0.01795   0.01828   0.01862   0.01892
     Eigenvalues ---    0.01905   0.01917   0.01937   0.01942   0.01947
     Eigenvalues ---    0.01948   0.01960   0.01962   0.01979   0.02031
     Eigenvalues ---    0.02041   0.02081   0.16000   0.16000   0.16000
     Eigenvalues ---    0.16000   0.16000   0.16000   0.16000   0.16003
     Eigenvalues ---    0.16731   0.22007   0.22011   0.22529   0.22584
     Eigenvalues ---    0.24398   0.24479   0.24586   0.25000   0.25000
     Eigenvalues ---    0.29645   0.30979   0.33300   0.33350   0.33449
     Eigenvalues ---    0.33552   0.33661   0.33835   0.33893   0.33902
     Eigenvalues ---    0.33962   0.35463   0.38026   0.39555   0.40192
     Eigenvalues ---    0.41418   0.42268   0.42448   0.43680   0.43744
     Eigenvalues ---    0.43923   0.44552   0.44675   0.44724   0.45310
     Eigenvalues ---    0.49792   0.732311000.000001000.000001000.00000
     Eigenvalues --- 1000.000001000.000001000.000001000.000001000.00000
     Eigenvalues --- 1000.000001000.000001000.000001000.000001000.00000
     Eigenvalues --- 1000.000001000.000001000.000001000.000001000.00000
     Eigenvalues --- 1000.000001000.000001000.000001000.000001000.00000
     Eigenvalues --- 1000.000001000.000001000.000001000.000001000.00000
     Eigenvalues --- 1000.000001000.000001000.000001000.000001000.00000
     Eigenvalues --- 1000.000001000.000001000.000001000.000001000.00000
     Eigenvalues --- 1000.000001000.000001000.000001000.000001000.00000
     Eigenvalues --- 1000.000001000.000001000.000001000.000001000.00000
     Eigenvalues --- 1000.000001000.000001000.000001000.000001000.00000
     Eigenvalues --- 1000.000001000.000001000.000001000.000001000.00000
     Eigenvalues --- 1000.000001000.000001000.000001000.000001000.00000
     Eigenvalues --- 1000.000001000.000001000.000001000.000001000.00000
     Eigenvalues --- 1000.00000
 RFO step:  Lambda=-3.25005485D-02 EMin= 1.40837999D-02
 Linear search not attempted -- first point.
 Maximum step size (   0.300) exceeded in Quadratic search.
    -- Step size scaled by   0.900
 Iteration  1 RMS(Cart)=  0.04376209 RMS(Int)=  0.00237886
 Iteration  2 RMS(Cart)=  0.00297016 RMS(Int)=  0.00336447
 Iteration  3 RMS(Cart)=  0.00001140 RMS(Int)=  0.00324284
 Iteration  4 RMS(Cart)=  0.00000064 RMS(Int)=  0.00324105
 Iteration  1 RMS(Cart)=  0.00006649 RMS(Int)=  0.00007924
 Iteration  2 RMS(Cart)=  0.00000163 RMS(Int)=  0.00003728
 Iteration  3 RMS(Cart)=  0.00000004 RMS(Int)=  0.00003727
 ITry= 1 IFail=0 DXMaxC= 2.91D-01 DCOld= 1.00D+10 DXMaxT= 3.00D-01 DXLimC= 3.00D+00 Rises=F
 Variable       Old X    -DE/DX   Delta X   Delta X   Delta X     New X
                                 (Linear)    (Quad)   (Total)
    R1        2.65040  -0.01349   0.00000  -0.02339  -0.02237   2.62803
    R2        2.64341  -0.01023   0.00000  -0.01763  -0.01753   2.62588
    R3        2.08432  -0.00867   0.00000  -0.02111  -0.02102   2.06330
    R4        2.70350  -0.02851   0.00000  -0.05348  -0.04990   2.65360
    R5        3.28091   0.00599   0.00000   0.01306   0.01141   3.29232
    R6        2.68005  -0.01578   0.00000  -0.03208  -0.03222   2.64783
    R7        2.63573   0.00176   0.00000   0.00318   0.00441   2.64013
    R8        2.66361  -0.01398   0.00000  -0.02758  -0.02811   2.63549
    R9        2.08526  -0.00871   0.00000  -0.02154  -0.02159   2.06367
   R10        2.66372  -0.01099   0.00000  -0.01825  -0.01732   2.64641
   R11        2.07609  -0.00520   0.00000  -0.01259  -0.01258   2.06351
   R12        2.07496  -0.00547   0.00000  -0.01322  -0.01320   2.06177
   R13        2.57920  -0.00799   0.00000  -0.01602  -0.01795   2.56125
   R14        1.91539   0.03764   0.00000   0.08776   0.09749   2.01288
   R15        3.25365  -0.00155   0.00000   0.00904   0.01349   3.26713
   R16        2.65141   0.00589   0.00000   0.01470   0.01627   2.66768
   R17        2.77172  -0.00747   0.00000  -0.01012  -0.00769   2.76403
   R18        2.66728   0.01510   0.00000   0.02493   0.02277   2.69005
   R19        2.67633  -0.03421   0.00000  -0.07111  -0.07339   2.60294
   R20        2.07907  -0.00575   0.00000  -0.01398  -0.01397   2.06510
   R21        2.71246  -0.00035   0.00000  -0.00561  -0.00836   2.70410
   R22        2.40823  -0.01003   0.00000  -0.00755  -0.00367   2.40457
   R23        2.66064  -0.00222   0.00000  -0.00344  -0.00224   2.65841
   R24        2.07511  -0.00503   0.00000  -0.01231  -0.01236   2.06275
   R25        2.67248  -0.02704   0.00000  -0.05592  -0.05735   2.61513
   R26        2.08092  -0.00699   0.00000  -0.01705  -0.01703   2.06389
   R27        2.07397  -0.00369   0.00000  -0.00914  -0.00924   2.06472
    A1        2.05959   0.00079   0.00000   0.00025  -0.00063   2.05896
    A2        2.09781  -0.00065   0.00000  -0.00034   0.00029   2.09811
    A3        2.12578  -0.00014   0.00000   0.00009   0.00034   2.12612
    A4        2.16953  -0.00425   0.00000  -0.01464  -0.01413   2.15540
    A5        2.15828   0.00845   0.00000   0.03320   0.03420   2.19249
    A6        1.95537  -0.00420   0.00000  -0.01856  -0.02008   1.93530
    A7        2.03231   0.00902   0.00000   0.02592   0.02502   2.05733
    A8        1.95865  -0.00325   0.00000  -0.00413  -0.00121   1.95744
    A9        2.29223  -0.00577   0.00000  -0.02179  -0.02381   2.26842
   A10        2.08209  -0.00198   0.00000  -0.00635  -0.00581   2.07628
   A11        2.10285   0.00095   0.00000   0.00236   0.00197   2.10481
   A12        2.09825   0.00103   0.00000   0.00399   0.00384   2.10209
   A13        2.14213  -0.00422   0.00000  -0.01135  -0.01082   2.13131
   A14        2.06511   0.00165   0.00000   0.00326   0.00297   2.06808
   A15        2.07594   0.00257   0.00000   0.00809   0.00785   2.08379
   A16        2.08073   0.00064   0.00000   0.00616   0.00636   2.08709
   A17        2.10132  -0.00029   0.00000  -0.00277  -0.00286   2.09846
   A18        2.10114  -0.00035   0.00000  -0.00340  -0.00351   2.09763
   A19        1.93174   0.02067   0.00000   0.05531   0.05155   1.98329
   A20        2.59590  -0.04245   0.00000  -0.16560  -0.15926   2.43665
   A21        1.75554   0.02178   0.00000   0.11029   0.10770   1.86325
   A22        1.54895   0.01149   0.00000   0.03654   0.03509   1.58404
   A23        2.12553  -0.00396   0.00000  -0.01108  -0.01159   2.11393
   A24        2.10961  -0.00596   0.00000  -0.02237  -0.02335   2.08626
   A25        2.04805   0.00992   0.00000   0.03345   0.03495   2.08300
   A26        2.08326   0.00742   0.00000   0.02453   0.02406   2.10731
   A27        2.10961  -0.00149   0.00000  -0.00142  -0.00108   2.10854
   A28        2.09031  -0.00593   0.00000  -0.02311  -0.02298   2.06733
   A29        2.03851  -0.00800   0.00000  -0.02077  -0.02029   2.01821
   A30        2.03910   0.01666   0.00000   0.06234   0.06568   2.10478
   A31        2.20558  -0.00866   0.00000  -0.04158  -0.04538   2.16020
   A32        2.10245  -0.00486   0.00000  -0.02157  -0.02158   2.08087
   A33        2.08374   0.00218   0.00000   0.00960   0.00960   2.09335
   A34        2.09699   0.00268   0.00000   0.01198   0.01198   2.10897
   A35        2.10484   0.00422   0.00000   0.01248   0.01211   2.11696
   A36        2.06095  -0.00156   0.00000  -0.00421  -0.00415   2.05680
   A37        2.11739  -0.00267   0.00000  -0.00828  -0.00796   2.10943
   A38        2.11178   0.00518   0.00000   0.01641   0.01731   2.12909
   A39        2.08391  -0.00227   0.00000  -0.00582  -0.00606   2.07785
   A40        2.08749  -0.00291   0.00000  -0.01059  -0.01124   2.07625
   A41        2.03007  -0.02471   0.00000  -0.06916  -0.06536   1.96470
   A42        2.19439   0.01029   0.00000   0.02556   0.02316   2.21755
   A43        2.05873   0.01442   0.00000   0.04360   0.04220   2.10093
    D1       -0.00000  -0.00000   0.00000   0.00000   0.00000  -0.00000
    D2        3.14159  -0.00000   0.00000  -0.00000  -0.00000   3.14159
    D3        3.14159   0.00000   0.00000   0.00000   0.00000   3.14159
    D4       -0.00000  -0.00000   0.00000  -0.00000  -0.00000  -0.00000
    D5       -0.00000  -0.00000   0.00000  -0.00000  -0.00000  -0.00000
    D6        3.14159  -0.00000   0.00000  -0.00000  -0.00000   3.14159
    D7        3.14159  -0.00000   0.00000  -0.00000  -0.00000   3.14159
    D8       -0.00000  -0.00000   0.00000  -0.00000  -0.00000  -0.00000
    D9        0.00001   0.00000   0.00000   0.00000   0.00000   0.00001
   D10       -3.14159  -0.00000   0.00000  -0.00000  -0.00000  -3.14159
   D11       -3.14159   0.00000   0.00000   0.00000   0.00000  -3.14158
   D12        0.00000   0.00000   0.00000   0.00000   0.00000   0.00000
   D13        3.14159  -0.00000   0.00000   0.00000   0.00000   3.14159
   D14       -0.00001  -0.00000   0.00000  -0.00000  -0.00000  -0.00001
   D15       -0.00001  -0.00000   0.00000  -0.00000  -0.00000  -0.00001
   D16        3.14159  -0.00000   0.00000  -0.00000  -0.00000   3.14159
   D17        3.14159   0.00000   0.00000   0.00000   0.00000  -3.14159
   D18        0.00000   0.00000   0.00000   0.00000   0.00000   0.00000
   D19        0.00001   0.00000   0.00000  -0.00000  -0.00000   0.00001
   D20        3.14149   0.00000   0.00000   0.00002   0.00002   3.14151
   D21       -3.14159  -0.00000   0.00000  -0.00000  -0.00000   3.14159
   D22       -0.00011   0.00000   0.00000   0.00002   0.00002  -0.00009
   D23        0.00000   0.00000   0.00000   0.00000   0.00000   0.00000
   D24       -3.14159   0.00000   0.00000   0.00000   0.00000  -3.14159
[...]
 00010317,0.,0.00013326,-0.00007209,0.,0.01301917,0.00629165,0.00000018
 ,-0.00446787,-0.00489848,0.00000027,0.05367454,0.01419765,-0.00000043,
 0.13187763,-0.26718637,0.00000445,0.03279337,-0.03906240,-0.00000017,-
 0.03617320,0.66417458,0.00000008,-0.00000012,0.00009018,-0.00000016,0.
 00000001,0.00078758,-0.00000008,0.00000008,-0.00043897,0.00000011,-0.0
 0000005,-0.00015682,0.,0.00000014,0.00004764,-0.00000014,-0.00000003,-
 0.00003864,0.,0.,0.00001086,0.,0.,0.00001860,0.,0.,0.00001841,0.,0.,-0
 .00004017,-0.00000028,-0.00000031,-0.00015542,0.00000008,0.00000047,-0
 .00138256,-0.00000158,-0.00000040,0.00981704,-0.00000087,0.00000441,-0
 .05927991,-0.00000167,0.00000095,-0.00630161,-0.00000902,-0.00002299,0
 .11945216,0.00039028,-0.00006759,0.,-0.00088451,0.00041407,-0.00000031
 ,0.00030361,-0.00022364,0.,0.00008935,0.00004195,0.00000003,0.00007181
 ,0.00012668,0.,-0.00016036,-0.00010207,0.00000001,-0.00001752,-0.00001
 422,-0.00000001,0.00004384,-0.00000397,0.,0.00000887,0.00000101,0.,0.0
 0003497,-0.00001252,0.,0.00001427,0.00048194,0.00000001,-0.00223072,0.
 00287568,0.00000008,-0.00195025,-0.02647676,0.00000066,-0.07230254,-0.
 06567357,0.00000260,-0.00507889,0.00246521,0.00000018,0.00956170,0.023
 88640,-0.00000089,0.07306457,0.00012335,0.00000107,0.,0.00010857,0.001
 16618,0.00000015,0.00058155,-0.00064615,0.,0.00008165,0.00018352,0.,0.
 00002725,0.00011804,0.,-0.00014916,-0.00003929,-0.00000001,-0.00003425
 ,0.00000453,0.,0.00005904,-0.00000758,0.,-0.00000139,0.00000839,0.,0.0
 0001888,-0.00000182,0.,-0.00134095,0.00022873,-0.00000004,0.00242709,-
 0.00153577,-0.00000021,0.00010181,-0.00501555,0.00000026,-0.06227310,-
 0.32374486,0.00001118,-0.00044489,0.00271369,0.00000022,-0.00932174,-0
 .01621638,0.00000094,0.06455596,0.34618611,-0.00000005,0.,-0.00002006,
 0.00000007,-0.00000003,-0.00086321,0.,-0.00000005,0.00007971,-0.000000
 02,-0.00000001,0.00009128,0.,0.,-0.00002448,0.,0.00000003,0.00003771,0
 .,0.,-0.00001388,0.,0.,-0.00002708,0.,0.,0.00000036,0.,0.,0.00002527,-
 0.00000031,-0.00000012,-0.00014386,-0.00000004,-0.00000018,0.00222889,
 -0.00000089,0.00000056,0.00219584,0.00000337,0.00001148,-0.03691259,-0
 .00000024,0.00000037,0.00438898,-0.00000015,0.00000069,0.00662191,-0.0
 0000236,-0.00001238,0.02293700,-0.00029747,0.00111239,0.00000004,0.000
 90353,-0.00042169,-0.00000011,0.00192817,0.00072406,-0.00000012,-0.000
 93546,0.00024406,0.,-0.00008681,-0.00126058,-0.00000005,0.00123682,0.0
 0006307,0.00000002,-0.00008636,0.00002379,0.,0.00011969,0.00001272,0.,
 0.00006583,-0.00004775,0.,0.00006742,-0.00002050,0.,0.00722095,0.00796
 398,0.00000023,-0.00214762,-0.00171131,0.00000018,0.04383908,0.0105157
 8,-0.00000107,-0.04999874,0.01592412,-0.00000012,-0.15495258,0.0559306
 6,-0.00000656,0.00893456,-0.07177350,0.00000382,-0.00016903,0.00033791
 ,0.00000028,0.72695859,0.00067554,-0.00060719,-0.00000004,-0.00123922,
 0.00013363,-0.00000003,-0.00003974,-0.00033625,-0.00000006,0.00055660,
 -0.00015283,0.,0.00011870,0.00076971,0.00000003,-0.00079521,-0.0001335
 9,0.,0.00000923,0.00003276,0.,0.00000607,-0.00001657,0.,-0.00002979,0.
 00003067,0.,-0.00000116,0.00000689,0.,-0.00384691,-0.00043464,0.000000
 06,0.00231767,0.00052362,-0.00000023,0.01226329,-0.02213446,0.00000255
 ,0.00788966,-0.00376820,0.00000003,0.08006731,-0.20488341,0.00000950,-
 0.03672957,-0.00349526,0.00000070,-0.00006913,0.00052076,0.00000011,0.
 08997982,0.71007965,-0.00000003,0.,-0.00012445,0.00000004,0.00000009,-
 0.00027614,0.,-0.00000008,-0.00099565,-0.00000004,0.00000001,0.0000127
 1,0.,-0.00000003,0.00004951,0.00000002,0.00000002,0.00004771,0.,0.,-0.
 00005986,0.,0.,-0.00003447,0.,0.,-0.00000381,0.,0.,0.00003572,0.000000
 21,0.00000022,0.00159899,-0.00000023,-0.00000003,-0.00090377,-0.000000
 98,-0.00000019,0.01044582,-0.00000063,0.00000002,-0.00092536,-0.000008
 05,0.00001084,-0.07696034,0.00000248,0.00000071,0.00744557,0.00000006,
 -0.00000005,-0.00023586,-0.00000901,-0.00004219,0.11982957,0.00067171,
 -0.00125903,-0.00000006,-0.00144729,0.00074272,0.00000011,-0.00072108,
 -0.00070682,0.00000007,0.00107774,-0.00031147,0.,0.00010902,0.00148337
 ,0.00000005,-0.00150142,-0.00010694,-0.00000002,0.00007604,0.00002979,
 0.,-0.00006219,-0.00003199,0.,-0.00008753,0.00006731,0.,-0.00007311,0.
 00003965,0.,-0.00757990,-0.00346090,-0.00000018,0.00273838,0.00252097,
 -0.00000018,-0.03089165,0.00129579,-0.00000010,0.04664875,0.01047299,-
 0.00000064,-0.05415427,0.02076541,0.00000145,-0.13358345,-0.00958852,0
 .00000065,-0.00343796,0.00432206,0.00000019,-0.40438633,-0.12002150,0.
 00000853,0.77297169,0.00063440,-0.00124951,-0.00000004,-0.00117122,0.0
 0092452,0.00000012,-0.00049679,-0.00178411,0.00000003,0.00085247,-0.00
 014131,0.,0.00010945,0.00136645,0.00000005,-0.00147172,-0.00002862,-0.
 00000001,0.00008256,0.00001571,0.,-0.00006142,-0.00002586,0.,-0.000093
 71,0.00007169,0.,-0.00007103,0.00004015,0.,-0.01072459,-0.00474576,-0.
 00000008,0.00308137,0.00223783,-0.00000023,-0.03987775,-0.00682078,0.0
 0000020,0.05509477,-0.05190755,0.00000248,-0.01119921,0.05311411,-0.00
 000201,-0.07401064,-0.27857091,0.00001174,0.00274434,-0.00138545,0.000
 00014,-0.06008347,-0.16300406,0.00000812,-0.01425264,0.66387762,-0.000
 00004,0.00000008,-0.00000053,0.00000009,-0.00000011,0.00016961,-0.0000
 0001,0.00000015,0.00037700,-0.00000004,0.,0.00000438,-0.00000001,-0.00
 000008,-0.00003214,0.00000010,0.,0.00000085,0.,0.,0.00000763,0.,0.,0.0
 0003377,0.,0.,-0.00000495,0.,0.,-0.00001334,0.00000078,0.00000020,-0.0
 0020083,-0.00000022,0.,-0.00025869,0.00000259,0.00000020,-0.00466856,-
 0.00000330,0.00000233,0.00725600,0.00000030,-0.00000353,0.00004630,0.0
 0000454,0.00001157,-0.06373575,0.00000010,0.00000015,0.00870216,0.0000
 0466,0.00000738,-0.05801104,-0.00000239,-0.00002867,0.14524034,0.00000
 242,-0.00007816,0.,-0.00000453,0.00013662,0.,-0.00004001,-0.00017359,-
 0.00000001,0.00004931,0.00003096,0.,-0.00001247,0.00006911,0.,-0.00008
 122,0.00001237,0.,0.00000625,0.00000481,0.,-0.00000058,-0.00000331,0.,
 -0.00000944,0.00000889,0.,-0.00001008,0.00000654,0.,-0.00049526,0.0004
 2321,0.,0.00004770,0.00008734,0.,-0.00055480,0.00405547,0.00000002,-0.
 01631212,-0.01031609,0.00000065,0.00049570,0.00028783,0.,-0.32540072,-
 0.07964248,0.00000722,0.00072869,0.00010128,-0.00000007,0.00144135,-0.
 00086811,0.00000009,-0.00226336,0.00249537,-0.00000010,0.34255669,0.00
 000331,0.00001957,0.,0.00000292,-0.00006869,0.,0.00007098,0.00010822,0
 .,-0.00001276,-0.00004001,0.,0.00001046,-0.00001331,0.,0.00001848,-0.0
 0000498,0.,0.00000003,-0.00000156,0.,0.00000013,0.00000090,0.,0.000002
 54,-0.00000438,0.,0.00000206,-0.00000107,0.,0.00031433,-0.00025546,-0.
 00000004,0.00001800,0.00004146,0.00000001,0.00248053,-0.00266179,0.000
 00033,0.02250797,0.00946178,-0.00000056,0.00074453,-0.00138725,0.00000
 003,-0.08116760,-0.08109962,0.00000326,-0.00010308,0.00098715,-0.00000
 024,0.00039022,-0.00525735,0.00000051,-0.02964785,-0.00334659,0.000000
 47,0.08491940,0.08164709,0.,0.,0.00001067,0.,0.00000002,-0.00008742,0.
 00000002,-0.00000001,-0.00034384,0.,0.,-0.00002808,0.,0.,0.00003820,0.
 ,0.,-0.00000947,0.,0.,0.00000144,0.,0.,-0.00001864,0.,0.,0.00000866,0.
 ,0.,0.00000488,-0.00000013,0.,-0.00061540,0.00000003,-0.00000010,0.000
 29432,0.00000011,0.00000062,0.00827674,-0.00000077,0.00000004,0.001905
 96,-0.00000010,-0.00000003,-0.00068444,0.00000701,0.00000314,-0.031285
 46,-0.00000006,-0.00000019,-0.00559163,0.00000024,0.00000048,0.0043065
 4,0.00000125,-0.00000008,0.00053664,-0.00000779,-0.00000365,0.02387232
 ,-0.00007055,0.00000416,0.,0.00009364,0.00010328,0.,-0.00005859,-0.000
 00336,0.,-0.00001420,0.00000789,0.,-0.00001037,-0.00002247,0.,0.000026
 08,0.00001530,0.,0.00000108,-0.00000481,0.,-0.00000371,-0.00000042,0.,
 0.00000025,-0.00000082,0.,-0.00000479,0.00000012,0.,0.00033894,-0.0001
 9785,0.,-0.00033160,0.00018335,0.00000002,-0.00316682,0.00250153,-0.00
 000019,-0.00147055,0.00017561,0.00000002,0.00869508,0.02366305,-0.0000
 0158,-0.00458251,-0.00050480,0.00000004,0.00013253,-0.00006500,0.00000
 001,-0.06846614,-0.05946406,0.00000400,-0.00173589,-0.02972739,0.00000
 210,-0.00025062,-0.00139878,0.00000003,0.06756723,0.00002998,0.0000944
 6,0.,-0.00007458,-0.00015963,-0.00000001,0.00004860,0.00014271,0.,-0.0
 0005323,-0.00000353,0.,0.00001224,-0.00008045,0.,0.00008451,-0.0000172
 8,0.,-0.00000752,0.00000062,0.,0.00000627,0.00000394,0.,0.00001047,-0.
 00000665,0.,0.00001336,-0.00000647,0.,0.00035215,0.00016528,0.00000003
 ,0.00014332,-0.00039024,-0.00000002,0.00400863,-0.00196646,0.00000055,
 0.00087836,0.00055320,-0.00000014,-0.01097000,-0.01585181,0.00000125,-
 0.00138997,0.00201654,0.00000075,-0.00003321,-0.00011301,-0.00000009,-
 0.05940848,-0.33313958,0.00002271,0.00213638,-0.00441311,0.00000043,0.
 00003726,-0.00031125,0.00000006,0.06570877,0.35012837,0.,-0.00000002,0
 .00003602,-0.00000001,0.00000005,0.00000571,0.,-0.00000003,-0.00003086
 ,0.00000001,0.,0.00000059,0.,0.00000002,0.00000078,-0.00000002,0.,-0.0
 0000363,0.,0.,0.00000356,0.,0.,-0.00000037,0.,0.,0.00000230,0.,0.,-0.0
 0000596,-0.00000013,-0.00000002,-0.00004059,-0.00000001,0.,0.00006621,
 -0.00000040,0.00000058,0.00404956,0.00000002,-0.00000020,-0.00075236,0
 .00000084,0.00000195,0.00446437,0.00000010,0.00000047,0.00904668,-0.00
 000002,0.,-0.00097777,0.00000486,0.00002206,-0.03455068,-0.00000049,0.
 00000044,0.00314203,0.,0.00000004,0.00047338,-0.00000453,-0.00002447,0
 .02444425,0.00003220,-0.00007336,0.,-0.00002694,0.00013617,0.,0.000099
 35,-0.00016403,0.,0.00004546,0.00000549,0.,0.00000034,0.00007838,0.,-0
 .00008950,0.00000550,0.,0.00000400,0.00000416,0.,0.00000310,-0.0000034
 3,0.,-0.00000911,0.00000654,0.,-0.00000718,0.00000568,0.,-0.00048640,0
 .00023582,0.,0.00008178,0.00027103,0.,-0.00079760,0.00014274,0.0000000
 2,0.00127328,-0.00183299,0.00000004,-0.00250714,-0.00431806,0.00000054
 ,0.00784232,-0.00683495,0.00000037,0.00027285,-0.00033542,0.,-0.016853
 70,0.02319364,-0.00000173,-0.21130504,0.14003747,-0.00000708,0.0005752
 9,0.00041222,0.00000001,0.00094512,-0.00029546,-0.00000009,0.22199103,
 0.00003427,0.00001668,0.,-0.00009646,0.00007080,-0.00000002,0.00003583
 ,0.00005355,0.00000001,0.00000432,0.00000177,0.,0.00001279,-0.00000337
 ,0.,0.00000401,-0.00001411,0.,-0.00000708,-0.00000116,0.,0.00000676,0.
 00000020,0.,0.00000502,-0.00000221,0.,0.00000745,-0.00000408,0.,0.0001
 3295,-0.00005467,-0.00000002,-0.00009198,-0.00001184,0.00000004,-0.000
 87792,0.00053021,-0.00000006,-0.00292348,-0.00560517,0.00000058,-0.002
 69669,-0.00035061,0.00000073,0.02456831,-0.01339308,0.00000099,0.00118
 631,-0.00106161,-0.00000008,-0.00939842,0.00933779,-0.00000034,0.14108
 746,-0.18878244,0.00000812,-0.00024424,0.00105891,-0.00000018,0.000075
 29,0.00085651,-0.00000041,-0.15087952,0.19675972,-0.00000002,0.0000000
 3,-0.00001020,0.00000004,-0.00000002,-0.00011291,0.00000002,0.,0.00013
 623,-0.00000002,0.,0.00001099,0.,-0.00000003,-0.00000843,0.00000003,0.
 ,-0.00000077,0.,0.,0.00000586,0.,0.,-0.00000348,0.,0.,0.00000028,0.,0.
 ,0.00000574,0.00000007,0.00000002,-0.00019552,0.,-0.00000007,0.0003666
 4,0.00000044,0.,-0.00115664,-0.00000008,0.00000068,0.00457115,0.000000
 78,0.00000027,0.01133295,-0.00000146,0.00000040,0.00478372,-0.00000012
 ,0.00000010,-0.00041857,-0.00000019,0.00000011,0.00723101,-0.00000661,
 0.00000850,-0.04259013,-0.00000002,-0.00000019,-0.00239113,0.00000002,
 -0.00000059,-0.00602505,0.00000794,-0.00000919,0.02682431,-0.00871460,
 0.00050541,-0.00000003,0.00533766,0.01654852,0.00000067,-0.06713659,0.
 05385462,0.00000197,0.00686279,-0.00410098,-0.00000020,-0.00292826,0.0
 0111473,0.00000002,0.00198842,-0.00263902,-0.00000012,-0.00000218,-0.0
 0094740,-0.00000002,-0.00057517,-0.00007593,0.00000001,0.00048772,-0.0
 0031216,0.00000001,-0.00055681,-0.00008004,-0.00000002,-0.36273866,-0.
 04017002,-0.00000628,-0.06588864,-0.05749329,-0.00000215,-0.19533841,0
 .09883410,0.00000354,-0.06790921,0.03039019,-0.00000053,0.04594197,0.0
 2814802,-0.00000227,0.00803457,-0.02872132,0.00000126,0.00211689,0.001
 64050,0.00000016,-0.01282668,0.00348615,-0.00000027,0.01324763,0.01566
 773,-0.00000108,-0.00037233,0.00076608,0.00000008,0.00030400,-0.001448
 60,0.00000028,0.00080929,0.00003021,-0.00000016,0.74533133,0.00225470,
 -0.00252814,-0.00000015,0.02242747,-0.02735723,-0.00000108,0.02004653,
 0.01510158,0.00000102,0.00603703,-0.01020057,-0.00000045,-0.00064323,0
 .00594220,0.00000016,-0.00409306,-0.00338768,-0.00000020,0.00014638,-0
 .00046401,0.,-0.00071010,0.00004738,0.00000002,0.00007480,-0.00041909,
 0.,-0.00041056,0.00015855,0.00000002,-0.05203966,-0.15140756,-0.000004
 29,-0.01230550,-0.15652310,-0.00000616,0.10097895,-0.22081965,-0.00000
 376,0.03059049,0.00951358,0.00000073,0.00401175,-0.04144460,0.00000118
 ,-0.01521824,0.02052015,-0.00000086,-0.00321032,-0.00139179,-0.0000001
 4,0.00861806,-0.01075983,0.00000052,-0.01264841,-0.01479923,0.00000100
 ,-0.00123502,0.00082474,-0.00000012,0.00142566,-0.00027201,-0.00000006
 ,-0.00065366,0.00010101,0.00000018,-0.07932613,0.57615332,-0.00000008,
 -0.00000003,0.00017638,0.00000127,-0.00000133,0.00217627,0.00000023,0.
 00000117,0.00300667,0.00000023,-0.00000055,0.00121006,-0.00000006,0.00
 000015,0.00115236,-0.00000009,-0.00000019,0.00109411,0.,-0.00000002,-0
 .00061288,-0.00000003,0.00000002,-0.00038734,0.00000002,-0.00000002,-0
 .00029872,-0.00000002,0.,-0.00010496,-0.00000504,-0.00000471,-0.061878
 66,-0.00000087,-0.00000536,-0.03549877,0.00000366,-0.00000377,-0.05638
 996,0.00000083,-0.00000067,-0.00542595,-0.00000004,-0.00000043,0.00408
 677,-0.00000006,0.00000061,0.00502635,-0.00000015,-0.00000018,-0.00210
 801,0.,0.00000016,0.00388301,-0.00000025,-0.00000010,-0.00082097,-0.00
 000002,0.00000007,0.00160436,0.00000002,0.00000004,-0.00030967,-0.0000
 0001,-0.00000003,-0.00059385,0.00000307,0.00001559,0.13913330,-0.00076
 936,0.00307890,0.00000018,0.00177821,0.00013185,0.00000013,0.00927579,
 0.00038676,-0.00000020,-0.00279315,0.00095764,-0.00000001,-0.00014395,
 -0.00347148,-0.00000013,0.00327111,0.00050347,0.00000004,-0.00022735,0
 .00018226,0.,0.00028373,0.00003503,0.00000001,0.00009020,-0.00006516,0
 .,0.00014394,-0.00000621,0.,0.01583289,0.03483538,0.00000077,-0.003602
 48,-0.00503284,-0.00000012,-0.00017036,-0.06581062,0.00000532,-0.01557
 411,0.00225599,-0.00000008,-0.47512118,-0.11145833,0.00003626,0.001485
 83,-0.02246264,0.00000117,-0.00087934,-0.00065250,0.00000008,-0.085653
 62,0.00350614,0.00000571,0.01741076,0.02474065,-0.00000116,-0.00017138
 ,-0.00036060,0.00000011,0.00210720,0.00021559,-0.00000040,-0.00203537,
 0.00006017,-0.00000068,-0.04287924,0.02509111,-0.00000026,0.56944615,-
 0.00044585,-0.00002805,-0.00000009,0.00034708,-0.00201162,-0.00000009,
 -0.00589885,-0.00050482,0.00000076,-0.00016466,-0.00031140,-0.00000005
 ,0.00031537,-0.00008829,-0.00000004,0.00025036,-0.00009556,0.,0.000043
 20,-0.00017658,0.,0.00012658,0.00006013,0.00000004,0.00010696,-0.00010
 922,0.,0.00007199,-0.00006605,0.,0.01360877,-0.02294314,-0.00000039,-0
 .00035685,-0.00206330,0.,-0.05405157,-0.02075826,0.00000510,0.00943502
 ,-0.00752185,0.00000048,-0.12766617,-0.14251766,0.00001500,-0.00407962
 ,0.00514782,-0.00000010,-0.00224626,-0.00085212,-0.00000012,0.02643300
 ,0.02528676,-0.00000164,0.00107228,-0.00934215,0.00000083,-0.00013835,
 0.00051970,-0.00000004,-0.00271751,0.00295566,-0.00000042,0.00123230,0
 .00050705,-0.00000002,-0.00049331,0.00658081,0.00000029,0.15732522,0.1
 6516106,0.00000011,-0.00000010,-0.00021860,-0.00000019,0.00000026,0.00
 001439,0.00000051,0.00000019,0.00188550,0.00000017,-0.00000003,0.00004
 608,-0.00000003,0.00000019,-0.00010491,-0.00000017,-0.00000003,0.00004
 724,0.,0.00000002,0.00002116,-0.00000002,-0.00000002,0.00002548,-0.000
 00002,0.00000002,-0.00001617,-0.00000002,0.00000001,0.00000241,-0.0000
 0245,0.00000149,0.00111921,0.00000026,0.00000070,-0.00009710,0.0000032
 1,0.00000386,0.01780011,0.00000058,0.00000008,0.00496843,0.00004163,0.
 00001698,-0.07219986,0.00000032,0.00000114,-0.00035464,0.00000014,0.00
 000003,0.00003293,0.00000209,-0.00000090,0.01724274,-0.00000134,-0.000
 00019,0.00459562,0.00000001,-0.00000004,-0.00046349,0.00000007,-0.0000
 0050,-0.00301205,-0.00000006,-0.00000014,-0.00162722,0.00000131,-0.000
 00191,-0.00272324,-0.00004823,-0.00001901,0.04248762,0.00124657,-0.000
 24851,-0.00000004,-0.00444023,0.00340027,0.00000011,0.01031142,0.01109
 998,0.00000097,0.00128629,-0.00026252,0.00000002,-0.00010244,0.0005474
 3,0.,-0.00062979,-0.00007146,0.,-0.00007934,0.00025584,0.,-0.00061101,
 -0.00018965,-0.00000005,-0.00003260,0.00003500,0.,-0.00004283,-0.00002
 940,0.,-0.08629055,-0.06020241,-0.00000338,-0.00346326,-0.00290780,-0.
 00000031,-0.00361418,0.00600733,0.00000013,0.00190977,-0.00000145,0.00
 000016,-0.01855820,-0.00130479,0.00000038,-0.00029982,0.00241078,-0.00
 000013,0.00027688,0.00013150,-0.00000002,0.00414456,-0.00096540,-0.000
 00017,-0.00172125,-0.00229900,0.00000017,0.00007553,0.00002650,-0.0000
 0002,-0.00004480,-0.00000484,0.,0.00014258,-0.00003537,0.00000005,-0.0
 0259547,-0.03920905,-0.00000235,0.00889508,-0.01210915,0.00000212,0.09
 423710,-0.00043796,0.00160052,0.00000007,0.00291224,0.00291865,0.00000
 008,0.00802236,-0.00404864,-0.00000011,-0.00193513,0.00188530,0.000000
 08,-0.00041560,-0.00215027,-0.00000007,0.00141973,0.00085003,0.0000000
 5,-0.00008739,0.00024549,0.,0.00023407,-0.00023347,-0.00000002,-0.0001
 2962,0.00014266,0.,0.00000159,0.00008418,0.,-0.06007484,-0.27628214,-0
 .00001646,-0.00027915,0.00329421,0.00000010,0.01225987,-0.01715349,0.0
 0000022,-0.00876403,-0.00089937,-0.00000032,0.03652581,0.02059646,-0.0
 0000368,0.00278704,-0.00900449,0.00000042,-0.00054319,-0.00010678,0.00
 000008,-0.01414793,0.00140100,0.00000079,0.00599992,0.00869936,-0.0000
 0048,0.00002287,-0.00021621,0.00000005,0.00024326,-0.00018583,0.,-0.00
 037628,-0.00000984,-0.00000018,-0.03517805,0.00683118,-0.00000071,-0.0
 4398579,0.00317108,-0.00000210,0.09592617,0.25857039,-0.00000004,-0.00
 000005,0.00101392,0.00000008,-0.00000010,0.00162794,-0.00000043,0.0000
 0077,-0.00859276,0.00000010,0.00000002,-0.00032023,-0.00000003,0.00000
 003,0.00003627,-0.00000001,-0.00000002,-0.00013885,0.,0.,0.00003313,0.
 ,0.,-0.00016262,0.,0.,0.00003862,0.,0.,-0.00001405,-0.00000439,-0.0000
 2101,-0.02127499,0.00000012,0.00000022,0.00344962,-0.00000020,0.000000
 89,-0.00274286,0.00000028,0.00000011,-0.00080189,-0.00000077,-0.000001
 51,0.00049694,-0.00000015,0.00000023,0.00000325,0.00000005,0.00000001,
 -0.00000502,0.00000080,0.00000029,0.00095254,-0.00000005,-0.00000037,0
 .00022460,0.00000001,0.00000001,0.00018487,-0.00000004,0.,-0.00002645,
 0.00000005,0.,-0.00013499,0.00000076,-0.00000123,0.00460331,0.00000150
 ,-0.00000048,-0.00947164,0.00000235,0.00002220,0.03102131\\-0.00233418
 ,-0.00128478,0.00000004,-0.00206750,-0.00188086,-0.00000049,-0.0025913
 6,0.00051534,-0.00000143,0.00150823,-0.00227326,0.00000002,-0.00043297
 ,-0.00161010,-0.00000007,-0.00244601,-0.00234147,-0.00000010,-0.000230
 51,-0.00010401,0.,0.00011865,-0.00021022,0.,-0.00005061,-0.00035800,0.
 00000001,-0.00028714,-0.00024865,0.00000006,0.00743134,-0.00200955,-0.
 00000053,-0.00004462,0.00254802,0.00000073,0.00407612,-0.00131238,-0.0
 0000606,-0.00180111,-0.00116202,-0.00000105,-0.00590930,-0.00029680,0.
 00002125,0.00100036,-0.00550846,0.00000035,0.00016061,-0.00016400,-0.0
 0000018,-0.00050083,-0.00038688,-0.00000554,0.00048449,-0.00171272,-0.
 00000043,0.00006344,-0.00033002,-0.00000005,-0.00016520,0.00002559,-0.
 00000042,-0.00001970,-0.00019745,0.00000065,0.00487216,0.00366134,-0.0
 0000031,0.00226237,0.00592806,-0.00001207,-0.00309675,0.01071329,0.000
 00565\\\@
 The archive entry for this job was punched.


 A MAN THINKING OR WORKING IS ALWAYS ALONE, 
 LET HIM BE WHERE HE WILL.

                                    -- THOREAU
 Job cpu time:       0 days  1 hours  2 minutes 53.4 seconds.
 Elapsed time:       0 days  0 hours  6 minutes 41.2 seconds.
 File lengths (MBytes):  RWF=    544 Int=      0 D2E=      0 Chk=     40 Scr=      8
 Normal termination of Gaussian 16 at Wed Oct 28 02:25:36 2020.
