 Entering Gaussian System, Link 0=g16
 Initial command:
 /gpfs/loomis/apps/avx/software/Gaussian/16-C.01_AVX/g16/l1.exe "/home/fas/batista/pev4/scratch60/gauss-scratch/Gau-131102.inp" -scrdir="/home/fas/batista/pev4/scratch60/gauss-scratch/"
 Entering Link 1 = /gpfs/loomis/apps/avx/software/Gaussian/16-C.01_AVX/g16/l1.exe PID=    131103.
  
 Copyright (c) 1988-2019, Gaussian, Inc.  All Rights Reserved.
  
 This is part of the Gaussian(R) 16 program.  It is based on
 the Gaussian(R) 09 system (copyright 2009, Gaussian, Inc.),
 the Gaussian(R) 03 system (copyright 2003, Gaussian, Inc.),
 the Gaussian(R) 98 system (copyright 1998, Gaussian, Inc.),
 the Gaussian(R) 94 system (copyright 1995, Gaussian, Inc.),
 the Gaussian 92(TM) system (copyright 1992, Gaussian, Inc.),
 the Gaussian 90(TM) system (copyright 1990, Gaussian, Inc.),
 the Gaussian 88(TM) system (copyright 1988, Gaussian, Inc.),
 the Gaussian 86(TM) system (copyright 1986, Carnegie Mellon
 University), and the Gaussian 82(TM) system (copyright 1983,
 Carnegie Mellon University). Gaussian is a federally registered
 trademark of Gaussian, Inc.
  
 This software contains proprietary and confidential information,
 including trade secrets, belonging to Gaussian, Inc.
  
 This software is provided under written license and may be
 used, copied, transmitted, or stored only in accord with that
 written license.
  
 The following legend is applicable only to US Government
 contracts under FAR:
  
                    RESTRICTED RIGHTS LEGEND
  
 Use, reproduction and disclosure by the US Government is
 subject to restrictions as set forth in subparagraphs (a)
 and (c) of the Commercial Computer Software - Restricted
 Rights clause in FAR 52.227-19.
  
 Gaussian, Inc.
 340 Quinnipiac St., Bldg. 40, Wallingford CT 06492
  
  
 ---------------------------------------------------------------
 Warning -- This program may not be used in any manner that
 competes with the business of Gaussian, Inc. or will provide
 assistance to any competitor of Gaussian, Inc.  The licensee
 of this program is prohibited from giving any competitor of
 Gaussian, Inc. access to this program.  By using this program,
 the user acknowledges that Gaussian, Inc. is engaged in the
 business of creating and licensing software in the field of
 computational chemistry and represents and warrants to the
 licensee that it is not a competitor of Gaussian, Inc. and that
 it will not use this program in any manner prohibited above.
 ---------------------------------------------------------------
  

 Cite this work as:
 Gaussian 16, Revision C.01,
 M. J. Frisch, G. W. Trucks, H. B. Schlegel, G. E. Scuseria, 
 M. A. Robb, J. R. Cheeseman, G. Scalmani, V. Barone, 
 G. A. Petersson, H. Nakatsuji, X. Li, M. Caricato, A. V. Marenich, 
 J. Bloino, B. G. Janesko, R. Gomperts, B. Mennucci, H. P. Hratchian, 
 J. V. Ortiz, A. F. Izmaylov, J. L. Sonnenberg, D. Williams-Young, 
 F. Ding, F. Lipparini, F. Egidi, J. Goings, B. Peng, A. Petrone, 
 T. Henderson, D. Ranasinghe, V. G. Zakrzewski, J. Gao, N. Rega, 
 G. Zheng, W. Liang, M. Hada, M. Ehara, K. Toyota, R. Fukuda, 
 J. Hasegawa, M. Ishida, T. Nakajima, Y. Honda, O. Kitao, H. Nakai, 
 T. Vreven, K. Throssell, J. A. Montgomery, Jr., J. E. Peralta, 
 F. Ogliaro, M. J. Bearpark, J. J. Heyd, E. N. Brothers, K. N. Kudin, 
 V. N. Staroverov, T. A. Keith, R. Kobayashi, J. Normand, 
 K. Raghavachari, A. P. Rendell, J. C. Burant, S. S. Iyengar, 
 J. Tomasi, M. Cossi, J. M. Millam, M. Klene, C. Adamo, R. Cammi, 
 J. W. Ochterski, R. L. Martin, K. Morokuma, O. Farkas, 
 J. B. Foresman, and D. J. Fox, Gaussian, Inc., Wallingford CT, 2019.
 
 ******************************************
 Gaussian 16:  ES64L-G16RevC.01  3-Jul-2019
                27-Oct-2020 
 ******************************************
 %chk=config_1_2.chk
 %mem=58GB
 %nprocshared=10
 Will use up to   10 processors via shared memory.
 ----------------------------------------------------------------------
 #p opt=addgic freq wb97xd/cc-pvdz nosymm int=ultrafine scrf=(solvent=C
 arbonTetraChloride)
 ----------------------------------------------------------------------
 1/18=20,19=15,26=6,38=1,145=903/1,3;
 2/9=110,12=2,15=1,17=6,18=5,40=1/2;
 3/5=16,11=2,25=1,30=1,70=2201,71=1,72=11,74=-58,75=-5/1,2,3;
 4//1;
 5/5=2,38=5,53=11/2;
 6/7=2,8=2,9=2,10=2,28=1/1;
 7/30=1/1,2,3,16;
 1/18=20,19=15,26=6,145=903/3(2);
 2/9=110,15=1/2;
 99//99;
 2/9=110,15=1/2;
 3/5=16,11=2,25=1,30=1,70=2205,71=1,72=11,74=-58,75=-5/1,2,3;
 4/5=5,16=3,69=1/1;
 5/5=2,38=5,53=11/2;
 7/30=1/1,2,3,16;
 1/18=20,19=15,26=6,145=903/3(-5);
 2/9=110,15=1/2;
 6/7=2,8=2,9=2,10=2,19=2,28=1/1;
 99/9=1/99;
 Leave Link    1 at Tue Oct 27 20:39:57 2020, MaxMem=  7784628224 cpu:               3.8 elap:               0.4
 (Enter /gpfs/loomis/apps/avx/software/Gaussian/16-C.01_AVX/g16/l101.exe)
 ------------------------------------------------
 NM 2D-scan of HBT TD-WB97XD pVDZ in CTC Relaxed.
 ------------------------------------------------
 Symbolic Z-matrix:
 Charge =  0 Multiplicity = 1
 C                     1.7464   -3.27947  -0.00002 
 C                     0.99165  -2.10584  -0.00002 
 C                     1.64262  -0.82891  -0.00002 
 C                     3.07361  -0.75567  -0.00002 
 C                     3.7986   -1.9259   -0.00002 
 C                     3.14438  -3.1831   -0.00003 
 H                     1.26361  -4.26137  -0.00003 
 H                     3.54873   0.23029  -0.00002 
 H                     4.8915   -1.89319  -0.00002 
 H                     3.74128  -4.099    -0.00003 
 N                     0.86105   0.21658  -0.00002 
 S                    -0.75363  -1.85181  -0.00002 
 C                    -1.40457   0.98898  0. 
 C                    -2.8402    0.89423  -0.00001 
 C                    -0.88878   2.37826   0.00003 
 C                    -3.63793   2.02191   0.00002 
 H                    -3.29321  -0.09929  -0.00004 
 C                    -1.71913   3.50275   0.00007 
 C                    -3.09692   3.34257   0.00006 
 H                    -4.72512   1.90142   0.00001 
 H                    -1.24622   4.48765   0.00009 
 H                    -3.75891   4.21063   0.00009 
 C                    -0.46665  -0.06654  -0.00001 
 O                     0.42426   2.60862   0.00003 
 H                     0.70445   2.1515    0.00002 
 
 Initializing the GIC definitions file.
 Number of initial coordinates =   131
 Number of input entries/lines =    52
 Number of additional coordinates =     2
 Number of removed coordinates =     0
 Number of frozen coordinates =     2
 Number of final active and frozen coordinates =   133
 ITRead=  0  0  0  0  0  0  0  0  0  0  0  0  0  0  0  0  0  0  0  0
 ITRead=  0  0  0  0  0
 MicOpt= -1 -1 -1 -1 -1 -1 -1 -1 -1 -1 -1 -1 -1 -1 -1 -1 -1 -1 -1 -1
 MicOpt= -1 -1 -1 -1 -1
 NAtoms=     25 NQM=       25 NQMF=       0 NMMI=      0 NMMIF=      0
                NMic=       0 NMicF=      0.
                    Isotopes and Nuclear Properties:
 (Nuclear quadrupole moments (NQMom) in fm**2, nuclear magnetic moments (NMagM)
  in nuclear magnetons)

  Atom         1           2           3           4           5           6           7           8           9          10
 IAtWgt=          12          12          12          12          12          12           1           1           1           1
 AtmWgt=  12.0000000  12.0000000  12.0000000  12.0000000  12.0000000  12.0000000   1.0078250   1.0078250   1.0078250   1.0078250
 NucSpn=           0           0           0           0           0           0           1           1           1           1
 AtZEff=  -0.0000000  -0.0000000  -0.0000000  -0.0000000  -0.0000000  -0.0000000  -0.0000000  -0.0000000  -0.0000000  -0.0000000
 NQMom=    0.0000000   0.0000000   0.0000000   0.0000000   0.0000000   0.0000000   0.0000000   0.0000000   0.0000000   0.0000000
 NMagM=    0.0000000   0.0000000   0.0000000   0.0000000   0.0000000   0.0000000   2.7928460   2.7928460   2.7928460   2.7928460
 AtZNuc=   6.0000000   6.0000000   6.0000000   6.0000000   6.0000000   6.0000000   1.0000000   1.0000000   1.0000000   1.0000000

  Atom        11          12          13          14          15          16          17          18          19          20
 IAtWgt=          14          32          12          12          12          12           1          12          12           1
 AtmWgt=  14.0030740  31.9720718  12.0000000  12.0000000  12.0000000  12.0000000   1.0078250  12.0000000  12.0000000   1.0078250
 NucSpn=           2           0           0           0           0           0           1           0           0           1
 AtZEff=  -0.0000000  -0.0000000  -0.0000000  -0.0000000  -0.0000000  -0.0000000  -0.0000000  -0.0000000  -0.0000000  -0.0000000
 NQMom=    2.0440000   0.0000000   0.0000000   0.0000000   0.0000000   0.0000000   0.0000000   0.0000000   0.0000000   0.0000000
 NMagM=    0.4037610   0.0000000   0.0000000   0.0000000   0.0000000   0.0000000   2.7928460   0.0000000   0.0000000   2.7928460
 AtZNuc=   7.0000000  16.0000000   6.0000000   6.0000000   6.0000000   6.0000000   1.0000000   6.0000000   6.0000000   1.0000000

  Atom        21          22          23          24          25
 IAtWgt=           1           1          12          16           1
 AtmWgt=   1.0078250   1.0078250  12.0000000  15.9949146   1.0078250
 NucSpn=           1           1           0           0           1
 AtZEff=  -0.0000000  -0.0000000  -0.0000000  -0.0000000  -0.0000000
 NQMom=    0.0000000   0.0000000   0.0000000   0.0000000   0.0000000
 NMagM=    2.7928460   2.7928460   0.0000000   0.0000000   2.7928460
 AtZNuc=   1.0000000   1.0000000   6.0000000   8.0000000   1.0000000
 Leave Link  101 at Tue Oct 27 20:40:01 2020, MaxMem=  7784628224 cpu:              32.0 elap:               3.2
 (Enter /gpfs/loomis/apps/avx/software/Gaussian/16-C.01_AVX/g16/l103.exe)

 GradGradGradGradGradGradGradGradGradGradGradGradGradGradGradGradGradGrad
 Berny optimization.
 Initialization pass.
                           ----------------------------
                           !    Initial Parameters    !
                           ! (Angstroms and Degrees)  !
 --------------------------                            --------------------------
 ! Name  Definition              Value          Derivative Info.                !
 --------------------------------------------------------------------------------
 ! R1    R(1,2)                  1.3954         estimate D2E/DX2                !
 ! R2    R(1,6)                  1.4013         estimate D2E/DX2                !
 ! R3    R(1,7)                  1.0942         estimate D2E/DX2                !
 ! R4    R(2,3)                  1.4333         estimate D2E/DX2                !
 ! R5    R(2,12)                 1.7637         estimate D2E/DX2                !
 ! R6    R(3,4)                  1.4329         estimate D2E/DX2                !
 ! R7    R(3,11)                 1.3053         estimate D2E/DX2                !
 ! R8    R(4,5)                  1.3766         estimate D2E/DX2                !
 ! R9    R(4,8)                  1.0945         estimate D2E/DX2                !
 ! R10   R(5,6)                  1.4172         estimate D2E/DX2                !
 ! R11   R(5,9)                  1.0934         estimate D2E/DX2                !
 ! R12   R(6,10)                 1.0932         estimate D2E/DX2                !
 ! R13   R(11,23)                1.3576         estimate D2E/DX2                !
 ! R14   R(12,23)                1.8082         estimate D2E/DX2                !
 ! R15   R(13,14)                1.4387         estimate D2E/DX2                !
 ! R16   R(13,15)                1.4819         estimate D2E/DX2                !
 ! R17   R(13,23)                1.412          estimate D2E/DX2                !
 ! R18   R(14,16)                1.3813         estimate D2E/DX2                !
 ! R19   R(14,17)                1.0919         estimate D2E/DX2                !
 ! R20   R(15,18)                1.3978         estimate D2E/DX2                !
 ! R21   R(15,24)                1.3331         estimate D2E/DX2                !
 ! R22   R(16,19)                1.4272         estimate D2E/DX2                !
 ! R23   R(16,20)                1.0938         estimate D2E/DX2                !
 ! R24   R(18,19)                1.3871         estimate D2E/DX2                !
 ! R25   R(18,21)                1.0926         estimate D2E/DX2                !
 ! R26   R(19,22)                1.0917         estimate D2E/DX2                !
 ! R27   R(24,25)                0.5362         estimate D2E/DX2                !
 ! A1    A(2,1,6)              118.8012         estimate D2E/DX2                !
 ! A2    A(2,1,7)              121.0725         estimate D2E/DX2                !
 ! A3    A(6,1,7)              120.1263         estimate D2E/DX2                !
 ! A4    A(1,2,3)              120.2429         estimate D2E/DX2                !
 ! A5    A(1,2,12)             131.0263         estimate D2E/DX2                !
 ! A6    A(3,2,12)             108.7307         estimate D2E/DX2                !
 ! A7    A(2,3,4)              119.9423         estimate D2E/DX2                !
 ! A8    A(2,3,11)             116.2072         estimate D2E/DX2                !
 ! A9    A(4,3,11)             123.8506         estimate D2E/DX2                !
 ! A10   A(3,4,5)              118.8495         estimate D2E/DX2                !
 ! A11   A(3,4,8)              118.6585         estimate D2E/DX2                !
 ! A12   A(5,4,8)              122.492          estimate D2E/DX2                !
 ! A13   A(4,5,6)              120.7289         estimate D2E/DX2                !
 ! A14   A(4,5,9)              120.0653         estimate D2E/DX2                !
 ! A15   A(6,5,9)              119.2058         estimate D2E/DX2                !
 ! A16   A(1,6,5)              121.4352         estimate D2E/DX2                !
 ! A17   A(1,6,10)             119.1491         estimate D2E/DX2                !
 ! A18   A(5,6,10)             119.4157         estimate D2E/DX2                !
 ! A19   A(3,11,23)            114.743          estimate D2E/DX2                !
 ! A20   A(2,12,23)             89.1497         estimate D2E/DX2                !
 ! A21   A(14,13,15)           114.1444         estimate D2E/DX2                !
 ! A22   A(14,13,23)           127.8478         estimate D2E/DX2                !
 ! A23   A(15,13,23)           118.0079         estimate D2E/DX2                !
 ! A24   A(13,14,16)           121.5001         estimate D2E/DX2                !
 ! A25   A(13,14,17)           118.287          estimate D2E/DX2                !
 ! A26   A(16,14,17)           120.2129         estimate D2E/DX2                !
 ! A27   A(13,15,18)           123.1886         estimate D2E/DX2                !
 ! A28   A(13,15,24)           120.3193         estimate D2E/DX2                !
 ! A29   A(18,15,24)           116.4921         estimate D2E/DX2                !
 ! A30   A(14,16,19)           122.4474         estimate D2E/DX2                !
 ! A31   A(14,16,20)           118.9519         estimate D2E/DX2                !
 ! A32   A(19,16,20)           118.6006         estimate D2E/DX2                !
 ! A33   A(15,18,19)           119.8118         estimate D2E/DX2                !
 ! A34   A(15,18,21)           117.9084         estimate D2E/DX2                !
 ! A35   A(19,18,21)           122.2799         estimate D2E/DX2                !
 ! A36   A(16,19,18)           118.9077         estimate D2E/DX2                !
 ! A37   A(16,19,22)           120.3942         estimate D2E/DX2                !
 ! A38   A(18,19,22)           120.6981         estimate D2E/DX2                !
 ! A39   A(11,23,12)           111.1693         estimate D2E/DX2                !
 ! A40   A(11,23,13)           119.5863         estimate D2E/DX2                !
 ! A41   A(12,23,13)           129.2444         estimate D2E/DX2                !
 ! A42   A(15,24,25)           111.5545         estimate D2E/DX2                !
 ! D1    D(6,1,2,3)              0.0001         estimate D2E/DX2                !
 ! D2    D(6,1,2,12)          -179.9999         estimate D2E/DX2                !
 ! D3    D(7,1,2,3)            180.0            estimate D2E/DX2                !
 ! D4    D(7,1,2,12)             0.0            estimate D2E/DX2                !
 ! D5    D(2,1,6,5)              0.0            estimate D2E/DX2                !
 ! D6    D(2,1,6,10)           180.0            estimate D2E/DX2                !
 ! D7    D(7,1,6,5)           -179.9999         estimate D2E/DX2                !
 ! D8    D(7,1,6,10)             0.0001         estimate D2E/DX2                !
 ! D9    D(1,2,3,4)             -0.0001         estimate D2E/DX2                !
 ! D10   D(1,2,3,11)           179.9999         estimate D2E/DX2                !
 ! D11   D(12,2,3,4)           179.9999         estimate D2E/DX2                !
 ! D12   D(12,2,3,11)           -0.0001         estimate D2E/DX2                !
 ! D13   D(1,2,12,23)          180.0            estimate D2E/DX2                !
 ! D14   D(3,2,12,23)            0.0            estimate D2E/DX2                !
 ! D15   D(2,3,4,5)              0.0001         estimate D2E/DX2                !
 ! D16   D(2,3,4,8)           -179.9999         estimate D2E/DX2                !
 ! D17   D(11,3,4,5)          -180.0            estimate D2E/DX2                !
 ! D18   D(11,3,4,8)             0.0            estimate D2E/DX2                !
 ! D19   D(2,3,11,23)            0.0002         estimate D2E/DX2                !
 ! D20   D(4,3,11,23)         -179.9998         estimate D2E/DX2                !
 ! D21   D(3,4,5,6)              0.0            estimate D2E/DX2                !
 ! D22   D(3,4,5,9)            180.0            estimate D2E/DX2                !
 ! D23   D(8,4,5,6)           -180.0            estimate D2E/DX2                !
 ! D24   D(8,4,5,9)              0.0            estimate D2E/DX2                !
 ! D25   D(4,5,6,1)              0.0            estimate D2E/DX2                !
 ! D26   D(4,5,6,10)           180.0            estimate D2E/DX2                !
 ! D27   D(9,5,6,1)            179.9999         estimate D2E/DX2                !
 ! D28   D(9,5,6,10)             0.0            estimate D2E/DX2                !
 ! D29   D(3,11,23,12)          -0.0002         estimate D2E/DX2                !
 ! D30   D(3,11,23,13)         179.9996         estimate D2E/DX2                !
 ! D31   D(2,12,23,11)           0.0001         estimate D2E/DX2                !
 ! D32   D(2,12,23,13)        -179.9996         estimate D2E/DX2                !
 ! D33   D(15,13,14,16)         -0.0008         estimate D2E/DX2                !
 ! D34   D(15,13,14,17)        179.9995         estimate D2E/DX2                !
 ! D35   D(23,13,14,16)        179.999          estimate D2E/DX2                !
 ! D36   D(23,13,14,17)         -0.0007         estimate D2E/DX2                !
 ! D37   D(14,13,15,18)          0.0009         estimate D2E/DX2                !
 ! D38   D(14,13,15,24)       -179.9992         estimate D2E/DX2                !
 ! D39   D(23,13,15,18)       -179.9989         estimate D2E/DX2                !
 ! D40   D(23,13,15,24)          0.001          estimate D2E/DX2                !
 ! D41   D(14,13,23,11)        179.9992         estimate D2E/DX2                !
 ! D42   D(14,13,23,12)         -0.0011         estimate D2E/DX2                !
 ! D43   D(15,13,23,11)         -0.001          estimate D2E/DX2                !
 ! D44   D(15,13,23,12)        179.9987         estimate D2E/DX2                !
 ! D45   D(13,14,16,19)          0.0002         estimate D2E/DX2                !
 ! D46   D(13,14,16,20)       -179.9998         estimate D2E/DX2                !
 ! D47   D(17,14,16,19)        179.9999         estimate D2E/DX2                !
 ! D48   D(17,14,16,20)          0.0            estimate D2E/DX2                !
 ! D49   D(13,15,18,19)         -0.0004         estimate D2E/DX2                !
 ! D50   D(13,15,18,21)        179.9997         estimate D2E/DX2                !
 ! D51   D(24,15,18,19)        179.9997         estimate D2E/DX2                !
 ! D52   D(24,15,18,21)         -0.0001         estimate D2E/DX2                !
 ! D53   D(13,15,24,25)         -0.001          estimate D2E/DX2                !
 ! D54   D(18,15,24,25)        179.9989         estimate D2E/DX2                !
 ! D55   D(14,16,19,18)          0.0004         estimate D2E/DX2                !
 ! D56   D(14,16,19,22)       -179.9997         estimate D2E/DX2                !
 ! D57   D(20,16,19,18)       -179.9997         estimate D2E/DX2                !
 ! D58   D(20,16,19,22)          0.0002         estimate D2E/DX2                !
 ! D59   D(15,18,19,16)         -0.0003         estimate D2E/DX2                !
 ! D60   D(15,18,19,22)        179.9999         estimate D2E/DX2                !
 ! D61   D(21,18,19,16)        179.9996         estimate D2E/DX2                !
 ! D62   D(21,18,19,22)         -0.0003         estimate D2E/DX2                !
 ! Qtot  GIC-1                 -50.0            Frozen                          !
 ! Ptot  GIC-2                -120.0            Frozen                          !
 --------------------------------------------------------------------------------
 NOTE: GIC-type coordinates are in arbitrary units.
 Trust Radius=3.00D-01 FncErr=5.00D-06 GrdErr=5.00D-06 EigMax=2.50D+02 EigMin=1.00D-04
 Number of steps in this run=    143 maximum allowed number of steps=    150.
 GradGradGradGradGradGradGradGradGradGradGradGradGradGradGradGradGradGrad

 Leave Link  103 at Tue Oct 27 20:40:01 2020, MaxMem=  7784628224 cpu:               0.1 elap:               0.0
 (Enter /gpfs/loomis/apps/avx/software/Gaussian/16-C.01_AVX/g16/l202.exe)
                          Input orientation:                          
 ---------------------------------------------------------------------
 Center     Atomic      Atomic             Coordinates (Angstroms)
 Number     Number       Type             X           Y           Z
 ---------------------------------------------------------------------
      1          6           0        1.746398   -3.279470   -0.000025
      2          6           0        0.991646   -2.105842   -0.000021
      3          6           0        1.642621   -0.828910   -0.000019
      4          6           0        3.073613   -0.755669   -0.000018
      5          6           0        3.798603   -1.925896   -0.000022
      6          6           0        3.144377   -3.183097   -0.000025
      7          1           0        1.263612   -4.261367   -0.000026
      8          1           0        3.548727    0.230288   -0.000015
      9          1           0        4.891497   -1.893190   -0.000022
     10          1           0        3.741276   -4.098996   -0.000028
     11          7           0        0.861047    0.216583   -0.000017
     12         16           0       -0.753627   -1.851807   -0.000017
     13          6           0       -1.404574    0.988985   -0.000002
     14          6           0       -2.840200    0.894235   -0.000013
     15          6           0       -0.888780    2.378257    0.000029
     16          6           0       -3.637932    2.021909    0.000020
     17          1           0       -3.293207   -0.099292   -0.000044
     18          6           0       -1.719132    3.502749    0.000065
     19          6           0       -3.096923    3.342571    0.000064
     20          1           0       -4.725120    1.901418    0.000014
     21          1           0       -1.246217    4.487654    0.000091
     22          1           0       -3.758911    4.210631    0.000094
     23          6           0       -0.466655   -0.066537   -0.000013
     24          8           0        0.424262    2.608621    0.000026
     25          1           0        0.704449    2.151495    0.000022
 ---------------------------------------------------------------------
                    Distance matrix (angstroms):
                    1          2          3          4          5
     1  C    0.000000
     2  C    1.395368   0.000000
     3  C    2.452756   1.433291   0.000000
     4  C    2.851503   2.481442   1.432865   0.000000
     5  C    2.458395   2.812719   2.419015   1.376605   0.000000
     6  C    1.401297   2.407224   2.792395   2.428460   1.417239
     7  H    1.094168   2.172614   3.453318   3.945380   3.446825
     8  H    3.945477   3.463548   2.180628   1.094460   2.170614
     9  H    3.437065   3.905644   3.418754   2.144447   1.093383
    10  H    2.156655   3.396045   3.885590   3.409341   2.173856
    11  N    3.606415   2.326094   1.305341   2.416759   3.635856
    12  S    2.878948   1.763665   2.605442   3.981117   4.552833
    13  C    5.305499   3.914055   3.548259   4.806035   5.964024
    14  C    6.201345   4.866570   4.802595   6.139655   7.212964
    15  C    6.241316   4.862422   4.085819   5.051935   6.363748
    16  C    7.556165   6.202526   6.000951   7.263593   8.419455
    17  H    5.959122   4.731407   4.989463   6.400565   7.323268
    18  C    7.616324   6.229335   5.483125   6.411281   7.740516
    19  C    8.204218   6.811873   6.313837   7.407503   8.677847
    20  H    8.289881   6.981371   6.928407   8.238953   9.343564
    21  H    8.323698   6.962917   6.050722   6.793627   8.159891
    22  H    9.295699   7.903520   7.387389   8.446746   9.735141
    23  C    3.901351   2.507072   2.242824   3.606716   4.652918
    24  O    6.034704   4.748483   3.647056   4.282232   5.652258
    25  H    5.530013   4.267014   3.124578   3.750273   5.118487
                    6          7          8          9         10
     6  C    0.000000
     7  H    2.167935   0.000000
     8  H    3.437251   5.039515   0.000000
     9  H    2.171702   4.332414   2.512407   0.000000
    10  H    1.093233   2.482979   4.333563   2.487687   0.000000
    11  N    4.095293   4.496008   2.687715   4.549249   5.188442
    12  S    4.119074   3.142487   4.779683   5.645275   5.025336
    13  C    6.172457   5.889431   5.011069   6.924408   7.236526
    14  C    7.241533   6.589499   6.423334   8.218812   8.261245
    15  C    6.869863   6.979784   4.930035   7.187271   7.961923
    16  C    8.549375   7.968982   7.406617   9.385050   9.587397
    17  H    7.138091   6.171503   6.849867   8.378988   8.092068
    18  C    8.267664   8.317346   6.201560   8.533262   9.359625
    19  C    9.029850   8.765508   7.338323   9.551338  10.106329
    20  H    9.369166   8.593300   8.440925  10.338199  10.377129
    21  H    8.838424   9.101901   6.412227   8.853626   9.930037
    22  H   10.115463   9.848882   8.321340  10.587076  11.193868
    23  C    4.769958   4.537667   4.026338   5.660958   5.828156
    24  O    6.398674   6.921072   3.926672   6.342120   7.482961
    25  H    5.866100   6.437194   3.432340   5.821585   6.949170
                   11         12         13         14         15
    11  N    0.000000
    12  S    2.624007   0.000000
    13  C    2.393667   2.914418   0.000000
    14  C    3.762771   3.448845   1.438750   0.000000
    15  C    2.781138   4.232223   1.481931   2.451603   0.000000
    16  C    4.847682   4.829585   2.460655   1.381313   2.772151
    17  H    4.166246   3.085575   2.179744   1.091930   3.452465
    18  C    4.178063   5.440907   2.533369   2.839215   1.397844
    19  C    5.043544   5.698474   2.898865   2.461760   2.409522
    20  H    5.834718   5.464380   3.443626   2.137134   3.865860
    21  H    4.762626   6.358570   3.502251   3.931087   2.139467
    22  H    6.107080   6.766453   3.990226   3.441295   3.405179
    23  C    1.357553   1.808188   1.412026   2.560625   2.480968
    24  O    2.431590   4.613333   2.442921   3.687253   1.333097
    25  H    1.941239   4.260565   2.408195   3.761016   1.609285
                   16         17         18         19         20
    16  C    0.000000
    17  H    2.149030   0.000000
    18  C    2.423775   3.930956   0.000000
    19  C    1.427179   3.447456   1.387071   0.000000
    20  H    1.093844   2.460328   3.405910   2.174385   0.000000
    21  H    3.435142   5.022972   1.092559   2.176311   4.334903
    22  H    2.192063   4.335011   2.159119   1.091675   2.503203
    23  C    3.797184   2.826742   3.782658   4.305848   4.691201
    24  O    4.104346   4.599171   2.322413   3.596864   5.197718
    25  H    4.344314   4.587733   2.774820   3.983603   5.435324
                   21         22         23         24         25
    21  H    0.000000
    22  H    2.527919   0.000000
    23  C    4.620429   5.397510   0.000000
    24  O    2.514212   4.479439   2.819610   0.000000
    25  H    3.043474   4.915447   2.508216   0.536161   0.000000
 Symmetry turned off by external request.
 Stoichiometry    C13H9NOS
 Framework group  C1[X(C13H9NOS)]
 Deg. of freedom    69
 Full point group                 C1      NOp   1
 Rotational constants (GHZ):           1.3354299           0.2854076           0.2351512
 Leave Link  202 at Tue Oct 27 20:40:01 2020, MaxMem=  7784628224 cpu:               0.1 elap:               0.0
 (Enter /gpfs/loomis/apps/avx/software/Gaussian/16-C.01_AVX/g16/l301.exe)
 Standard basis: CC-pVDZ (5D, 7F)
 Ernie: Thresh=  0.10000D-02 Tol=  0.10000D-05 Strict=F.
 Ernie:  40 primitive shells out of 425 were deleted.
   273 basis functions,   629 primitive gaussians,   289 cartesian basis functions
    59 alpha electrons       59 beta electrons
       nuclear repulsion energy      1096.4344177111 Hartrees.
 IExCor= 4639 DFT=T Ex+Corr=wB97XD ExCW=0 ScaHFX=  1.000000
 ScaDFX=  1.000000  1.000000  1.000000  1.000000 ScalE2=  1.000000  1.000000
 IRadAn=      5 IRanWt=     -1 IRanGd=            0 ICorTp=0 IEmpDi=121
 HFx  wShort=  0.000000 wLong=  0.200000 cFull=  0.222036 cShort=  0.000000 cLong=  0.777964
 DFx  wShort=  0.000000 wLong=  0.200000 cFull=  0.000000 cShort=  0.000000 cLong=  1.000000
 NAtoms=   25 NActive=   25 NUniq=   25 SFac= 1.00D+00 NAtFMM=   60 NAOKFM=F Big=F
 Integral buffers will be    131072 words long.
 Raffenetti 2 integral format.
 Two-electron integral symmetry is turned off.
 R6Disp:  Grimme-D2 Dispersion energy=       -0.0140225574 Hartrees.
 Nuclear repulsion after empirical dispersion term =     1096.4203951537 Hartrees.
 ------------------------------------------------------------------------------
 Polarizable Continuum Model (PCM)
 =================================
 Model                : PCM.
 Atomic radii         : UFF (Universal Force Field).
 Polarization charges : Total charges.
 Charge compensation  : None.
 Solution method      : On-the-fly selection.
 Cavity type          : Scaled VdW (van der Waals Surface) (Alpha=1.100).
 Cavity algorithm     : GePol (No added spheres)
                        Default sphere list used, NSphG=   25.
                        Lebedev-Laikov grids with approx.  5.0 points / Ang**2.
                        Smoothing algorithm: York/Karplus (Gamma=1.0000).
                        Polarization charges: spherical gaussians, with
                                              point-specific exponents (IZeta= 3).
                        Self-potential: point-specific (ISelfS= 7).
                        Self-field    : sphere-specific E.n sum rule (ISelfD= 2).
 1st derivatives      : Analytical E(r).r(x)/FMM algorithm (CHGder, D1EAlg=3).
                        Cavity 1st derivative terms included.
 Solvent              : CarbonTetraChloride, Eps=   2.228000 Eps(inf)=   2.131892
 ------------------------------------------------------------------------------
 GePol: Number of generator spheres                  =      25
 GePol: Total number of spheres                      =      25
 GePol: Number of exposed spheres                    =      25 (100.00%)
 GePol: Number of points                             =    2193
 GePol: Average weight of points                     =       0.13
 GePol: Minimum weight of points                     =   0.61D-09
 GePol: Maximum weight of points                     =    0.20577
 GePol: Number of points with low weight             =     115
 GePol: Fraction of low-weight points (<1% of avg)   =       5.24%
 GePol: Cavity surface area                          =    276.332 Ang**2
 GePol: Cavity volume                                =    294.683 Ang**3
 Leave Link  301 at Tue Oct 27 20:40:01 2020, MaxMem=  7784628224 cpu:               0.9 elap:               0.1
 (Enter /gpfs/loomis/apps/avx/software/Gaussian/16-C.01_AVX/g16/l302.exe)
 NPDir=0 NMtPBC=     1 NCelOv=     1 NCel=       1 NClECP=     1 NCelD=      1
         NCelK=      1 NCelE2=     1 NClLst=     1 CellRange=     0.0.
 One-electron integrals computed using PRISM.
 NBasis=   273 RedAO= T EigKep=  3.15D-04  NBF=   273
 NBsUse=   273 1.00D-06 EigRej= -1.00D+00 NBFU=   273
 Precomputing XC quadrature grid using
 IXCGrd= 4 IRadAn=           5 IRanWt=          -1 IRanGd=           0 AccXCQ= 0.00D+00.
 Generated NRdTot=       0 NPtTot=           0 NUsed=           0 NTot=          32
 NSgBfM=   288   288   288   288   288 MxSgAt=    25 MxSgA2=    25.
 Leave Link  302 at Tue Oct 27 20:40:01 2020, MaxMem=  7784628224 cpu:               2.6 elap:               0.4
 (Enter /gpfs/loomis/apps/avx/software/Gaussian/16-C.01_AVX/g16/l303.exe)
 DipDrv:  MaxL=1.
 Leave Link  303 at Tue Oct 27 20:40:01 2020, MaxMem=  7784628224 cpu:               0.4 elap:               0.1
 (Enter /gpfs/loomis/apps/avx/software/Gaussian/16-C.01_AVX/g16/l401.exe)
 ExpMin= 1.22D-01 ExpMax= 1.11D+05 ExpMxC= 1.07D+03 IAcc=3 IRadAn=         5 AccDes= 0.00D+00
 Harris functional with IExCor= 4639 and IRadAn=       5 diagonalized for initial guess.
 HarFok:  IExCor= 4639 AccDes= 0.00D+00 IRadAn=         5 IDoV= 1 UseB2=F ITyADJ=14
 ICtDFT=  3500011 ScaDFX=  1.000000  1.000000  1.000000  1.000000
 FoFCou: FMM=F IPFlag=           0 FMFlag=      100000 FMFlg1=           0
         NFxFlg=           0 DoJE=T BraDBF=F KetDBF=T FulRan=T
         wScrn=  0.000000 ICntrl=       500 IOpCl=  0 I1Cent=   200000004 NGrid=           0
         NMat0=    1 NMatS0=      1 NMatT0=    0 NMatD0=    1 NMtDS0=    0 NMtDT0=    0
 Symmetry not used in FoFCou.
 Harris En= -993.837324119811    
 JPrj=0 DoOrth=F DoCkMO=F.
 Leave Link  401 at Tue Oct 27 20:40:03 2020, MaxMem=  7784628224 cpu:              13.9 elap:               1.4
 (Enter /gpfs/loomis/apps/avx/software/Gaussian/16-C.01_AVX/g16/l502.exe)
 Two-electron integral symmetry not used.
 Closed shell SCF:
 Using DIIS extrapolation, IDIIS=  1040.
 NGot=  7784628224 LenX=  7784455381 LenY=  7784371419
 Requested convergence on RMS density matrix=1.00D-08 within 128 cycles.
 Requested convergence on MAX density matrix=1.00D-06.
 Requested convergence on             energy=1.00D-06.
 No special actions if energy rises.
 Fock matrices will be formed incrementally for  20 cycles.

 Cycle   1  Pass 1  IDiag  1:
 FoFJK:  IHMeth= 1 ICntrl=       0 DoSepK=T KAlg= 0 I1Cent=           0 FoldK=F
 IRaf=         1 NMat=       1 IRICut=       1 DoRegI=T DoRafI=F ISym2E= 0 IDoP0=0 IntGTp=1.
 FoFCou: FMM=F IPFlag=           0 FMFlag=      100000 FMFlg1=           0
         NFxFlg=           0 DoJE=T BraDBF=F KetDBF=F FulRan=T
         wScrn=  0.000000 ICntrl=       500 IOpCl=  0 I1Cent=           0 NGrid=           0
         NMat0=    1 NMatS0=      1 NMatT0=    0 NMatD0=    1 NMtDS0=    0 NMtDT0=    0
 Symmetry not used in FoFCou.
 Inv3:  Mode=1 IEnd=    14427747.
 Iteration    1 A*A^-1 deviation from unit magnitude is 6.33D-15 for   2173.
 Iteration    1 A*A^-1 deviation from orthogonality  is 2.53D-15 for   2191   2095.
 Iteration    1 A^-1*A deviation from unit magnitude is 6.55D-15 for   2173.
 Iteration    1 A^-1*A deviation from orthogonality  is 1.82D-15 for   2190   1991.
 E= -1027.96547659827    
 DIIS: error= 3.29D-02 at cycle   1 NSaved=   1.
 NSaved= 1 IEnMin= 1 EnMin= -1027.96547659827     IErMin= 1 ErrMin= 3.29D-02
 ErrMax= 3.29D-02  0.00D+00 EMaxC= 1.00D-01 BMatC= 4.05D-01 BMatP= 4.05D-01
 IDIUse=3 WtCom= 6.71D-01 WtEn= 3.29D-01
 Coeff-Com:  0.100D+01
 Coeff-En:   0.100D+01
 Coeff:      0.100D+01
 Gap=     0.370 Goal=   None    Shift=    0.000
 GapD=    0.370 DampG=1.000 DampE=0.500 DampFc=0.5000 IDamp=-1.
 Damping current iteration by 5.00D-01
 RMSDP=3.60D-03 MaxDP=2.32D-01              OVMax= 1.70D-01

 Cycle   2  Pass 1  IDiag  1:
 RMSU=  1.79D-03    CP:  9.93D-01
 E= -1028.08624183501     Delta-E=       -0.120765236739 Rises=F Damp=T
 DIIS: error= 9.97D-03 at cycle   2 NSaved=   2.
 NSaved= 2 IEnMin= 2 EnMin= -1028.08624183501     IErMin= 2 ErrMin= 9.97D-03
 ErrMax= 9.97D-03  0.00D+00 EMaxC= 1.00D-01 BMatC= 5.80D-02 BMatP= 4.05D-01
 IDIUse=3 WtCom= 9.00D-01 WtEn= 9.97D-02
 Coeff-Com: -0.269D+00 0.127D+01
 Coeff-En:   0.000D+00 0.100D+01
 Coeff:     -0.242D+00 0.124D+01
 Gap=     0.292 Goal=   None    Shift=    0.000
 RMSDP=1.20D-03 MaxDP=2.79D-02 DE=-1.21D-01 OVMax= 1.39D-01

 Cycle   3  Pass 1  IDiag  1:
 RMSU=  1.15D-03    CP:  9.88D-01  1.17D+00
 E= -1028.19401171565     Delta-E=       -0.107769880643 Rises=F Damp=F
 DIIS: error= 6.33D-03 at cycle   3 NSaved=   3.
 NSaved= 3 IEnMin= 3 EnMin= -1028.19401171565     IErMin= 3 ErrMin= 6.33D-03
 ErrMax= 6.33D-03  0.00D+00 EMaxC= 1.00D-01 BMatC= 1.52D-02 BMatP= 5.80D-02
 IDIUse=3 WtCom= 9.37D-01 WtEn= 6.33D-02
 Coeff-Com: -0.197D+00 0.485D+00 0.712D+00
 Coeff-En:   0.000D+00 0.000D+00 0.100D+01
 Coeff:     -0.184D+00 0.454D+00 0.730D+00
 Gap=     0.259 Goal=   None    Shift=    0.000
 RMSDP=5.30D-04 MaxDP=2.32D-02 DE=-1.08D-01 OVMax= 4.33D-02

 Cycle   4  Pass 1  IDiag  1:
 RMSU=  3.97D-04    CP:  9.88D-01  1.33D+00  8.21D-01
 E= -1028.20703803452     Delta-E=       -0.013026318863 Rises=F Damp=F
 DIIS: error= 2.84D-03 at cycle   4 NSaved=   4.
 NSaved= 4 IEnMin= 4 EnMin= -1028.20703803452     IErMin= 4 ErrMin= 2.84D-03
 ErrMax= 2.84D-03  0.00D+00 EMaxC= 1.00D-01 BMatC= 2.41D-03 BMatP= 1.52D-02
 IDIUse=3 WtCom= 9.72D-01 WtEn= 2.84D-02
 Coeff-Com: -0.787D-01 0.160D+00 0.372D+00 0.547D+00
 Coeff-En:   0.000D+00 0.000D+00 0.285D-01 0.971D+00
 Coeff:     -0.765D-01 0.155D+00 0.362D+00 0.559D+00
 Gap=     0.259 Goal=   None    Shift=    0.000
 RMSDP=1.84D-04 MaxDP=1.06D-02 DE=-1.30D-02 OVMax= 1.44D-02

 Cycle   5  Pass 1  IDiag  1:
 RMSU=  1.13D-04    CP:  9.87D-01  1.34D+00  9.05D-01  7.28D-01
 E= -1028.20943112287     Delta-E=       -0.002393088353 Rises=F Damp=F
 DIIS: error= 5.62D-04 at cycle   5 NSaved=   5.
 NSaved= 5 IEnMin= 5 EnMin= -1028.20943112287     IErMin= 5 ErrMin= 5.62D-04
 ErrMax= 5.62D-04  0.00D+00 EMaxC= 1.00D-01 BMatC= 9.44D-05 BMatP= 2.41D-03
 IDIUse=3 WtCom= 9.94D-01 WtEn= 5.62D-03
 Coeff-Com: -0.105D-01 0.153D-01 0.681D-01 0.207D+00 0.720D+00
 Coeff-En:   0.000D+00 0.000D+00 0.000D+00 0.000D+00 0.100D+01
 Coeff:     -0.105D-01 0.152D-01 0.677D-01 0.206D+00 0.721D+00
 Gap=     0.259 Goal=   None    Shift=    0.000
 RMSDP=5.04D-05 MaxDP=1.52D-03 DE=-2.39D-03 OVMax= 5.35D-03

 Cycle   6  Pass 1  IDiag  1:
 RMSU=  3.62D-05    CP:  9.87D-01  1.35D+00  9.16D-01  8.04D-01  1.03D+00
 E= -1028.20957318290     Delta-E=       -0.000142060028 Rises=F Damp=F
 DIIS: error= 1.87D-04 at cycle   6 NSaved=   6.
 NSaved= 6 IEnMin= 6 EnMin= -1028.20957318290     IErMin= 6 ErrMin= 1.87D-04
 ErrMax= 1.87D-04  0.00D+00 EMaxC= 1.00D-01 BMatC= 1.16D-05 BMatP= 9.44D-05
 IDIUse=3 WtCom= 9.98D-01 WtEn= 1.87D-03
 Coeff-Com:  0.133D-01-0.284D-01-0.534D-01-0.413D-01 0.202D+00 0.907D+00
 Coeff-En:   0.000D+00 0.000D+00 0.000D+00 0.000D+00 0.000D+00 0.100D+01
 Coeff:      0.133D-01-0.283D-01-0.533D-01-0.412D-01 0.202D+00 0.908D+00
 Gap=     0.260 Goal=   None    Shift=    0.000
 RMSDP=3.47D-05 MaxDP=1.62D-03 DE=-1.42D-04 OVMax= 3.09D-03

 Cycle   7  Pass 1  IDiag  1:
 RMSU=  1.85D-05    CP:  9.87D-01  1.35D+00  9.29D-01  8.43D-01  1.19D+00
                    CP:  1.19D+00
 E= -1028.20960723898     Delta-E=       -0.000034056079 Rises=F Damp=F
 DIIS: error= 1.29D-04 at cycle   7 NSaved=   7.
 NSaved= 7 IEnMin= 7 EnMin= -1028.20960723898     IErMin= 7 ErrMin= 1.29D-04
 ErrMax= 1.29D-04  0.00D+00 EMaxC= 1.00D-01 BMatC= 2.13D-06 BMatP= 1.16D-05
 IDIUse=3 WtCom= 9.99D-01 WtEn= 1.29D-03
 Coeff-Com:  0.645D-02-0.124D-01-0.287D-01-0.462D-01-0.443D-01 0.335D+00
 Coeff-Com:  0.790D+00
 Coeff-En:   0.000D+00 0.000D+00 0.000D+00 0.000D+00 0.000D+00 0.000D+00
 Coeff-En:   0.100D+01
 Coeff:      0.644D-02-0.124D-01-0.287D-01-0.462D-01-0.442D-01 0.335D+00
 Coeff:      0.790D+00
 Gap=     0.260 Goal=   None    Shift=    0.000
 RMSDP=1.24D-05 MaxDP=6.41D-04 DE=-3.41D-05 OVMax= 1.52D-03

 Cycle   8  Pass 1  IDiag  1:
 RMSU=  7.40D-06    CP:  9.87D-01  1.35D+00  9.31D-01  8.51D-01  1.24D+00
                    CP:  1.40D+00  1.12D+00
 E= -1028.20961269045     Delta-E=       -0.000005451472 Rises=F Damp=F
 DIIS: error= 3.68D-05 at cycle   8 NSaved=   8.
 NSaved= 8 IEnMin= 8 EnMin= -1028.20961269045     IErMin= 8 ErrMin= 3.68D-05
 ErrMax= 3.68D-05  0.00D+00 EMaxC= 1.00D-01 BMatC= 2.62D-07 BMatP= 2.13D-06
 IDIUse=1 WtCom= 1.00D+00 WtEn= 0.00D+00
 Coeff-Com: -0.338D-03 0.104D-02 0.684D-03-0.556D-02-0.402D-01-0.371D-01
 Coeff-Com:  0.231D+00 0.850D+00
 Coeff:     -0.338D-03 0.104D-02 0.684D-03-0.556D-02-0.402D-01-0.371D-01
 Coeff:      0.231D+00 0.850D+00
 Gap=     0.260 Goal=   None    Shift=    0.000
 RMSDP=4.82D-06 MaxDP=1.43D-04 DE=-5.45D-06 OVMax= 6.31D-04

 Cycle   9  Pass 1  IDiag  1:
 RMSU=  2.44D-06    CP:  9.87D-01  1.35D+00  9.31D-01  8.52D-01  1.25D+00
                    CP:  1.46D+00  1.29D+00  1.09D+00
 E= -1028.20961343449     Delta-E=       -0.000000744039 Rises=F Damp=F
 DIIS: error= 2.00D-05 at cycle   9 NSaved=   9.
 NSaved= 9 IEnMin= 9 EnMin= -1028.20961343449     IErMin= 9 ErrMin= 2.00D-05
 ErrMax= 2.00D-05  0.00D+00 EMaxC= 1.00D-01 BMatC= 5.19D-08 BMatP= 2.62D-07
 IDIUse=1 WtCom= 1.00D+00 WtEn= 0.00D+00
 Coeff-Com: -0.986D-03 0.199D-02 0.413D-02 0.473D-02-0.802D-02-0.613D-01
 Coeff-Com: -0.298D-01 0.311D+00 0.779D+00
 Coeff:     -0.986D-03 0.199D-02 0.413D-02 0.473D-02-0.802D-02-0.613D-01
 Coeff:     -0.298D-01 0.311D+00 0.779D+00
 Gap=     0.260 Goal=   None    Shift=    0.000
 RMSDP=2.03D-06 MaxDP=6.39D-05 DE=-7.44D-07 OVMax= 1.87D-04

 Cycle  10  Pass 1  IDiag  1:
 RMSU=  1.00D-06    CP:  9.87D-01  1.35D+00  9.31D-01  8.51D-01  1.25D+00
                    CP:  1.48D+00  1.34D+00  1.26D+00  1.05D+00
 E= -1028.20961356539     Delta-E=       -0.000000130902 Rises=F Damp=F
 DIIS: error= 6.91D-06 at cycle  10 NSaved=  10.
 NSaved=10 IEnMin=10 EnMin= -1028.20961356539     IErMin=10 ErrMin= 6.91D-06
 ErrMax= 6.91D-06  0.00D+00 EMaxC= 1.00D-01 BMatC= 8.05D-09 BMatP= 5.19D-08
 IDIUse=1 WtCom= 1.00D+00 WtEn= 0.00D+00
 Coeff-Com: -0.323D-03 0.608D-03 0.150D-02 0.291D-02 0.305D-02-0.199D-01
 Coeff-Com: -0.493D-01-0.151D-01 0.265D+00 0.811D+00
 Coeff:     -0.323D-03 0.608D-03 0.150D-02 0.291D-02 0.305D-02-0.199D-01
 Coeff:     -0.493D-01-0.151D-01 0.265D+00 0.811D+00
 Gap=     0.260 Goal=   None    Shift=    0.000
 RMSDP=8.97D-07 MaxDP=2.65D-05 DE=-1.31D-07 OVMax= 1.23D-04

 Cycle  11  Pass 1  IDiag  1:
 RMSU=  4.29D-07    CP:  9.87D-01  1.35D+00  9.31D-01  8.51D-01  1.25D+00
                    CP:  1.49D+00  1.36D+00  1.31D+00  1.24D+00  1.14D+00
 E= -1028.20961359175     Delta-E=       -0.000000026361 Rises=F Damp=F
 DIIS: error= 2.78D-06 at cycle  11 NSaved=  11.
 NSaved=11 IEnMin=11 EnMin= -1028.20961359175     IErMin=11 ErrMin= 2.78D-06
 ErrMax= 2.78D-06  0.00D+00 EMaxC= 1.00D-01 BMatC= 1.49D-09 BMatP= 8.05D-09
 IDIUse=1 WtCom= 1.00D+00 WtEn= 0.00D+00
 Coeff-Com:  0.102D-03-0.216D-03-0.364D-03 0.249D-04 0.215D-02 0.415D-02
 Coeff-Com: -0.801D-02-0.480D-01-0.578D-01 0.247D+00 0.861D+00
 Coeff:      0.102D-03-0.216D-03-0.364D-03 0.249D-04 0.215D-02 0.415D-02
 Coeff:     -0.801D-02-0.480D-01-0.578D-01 0.247D+00 0.861D+00
 Gap=     0.260 Goal=   None    Shift=    0.000
 RMSDP=3.94D-07 MaxDP=9.52D-06 DE=-2.64D-08 OVMax= 5.83D-05

 Cycle  12  Pass 1  IDiag  1:
 RMSU=  1.77D-07    CP:  9.87D-01  1.35D+00  9.31D-01  8.51D-01  1.25D+00
                    CP:  1.49D+00  1.36D+00  1.33D+00  1.31D+00  1.38D+00
                    CP:  1.14D+00
 E= -1028.20961359730     Delta-E=       -0.000000005550 Rises=F Damp=F
 DIIS: error= 1.25D-06 at cycle  12 NSaved=  12.
 NSaved=12 IEnMin=12 EnMin= -1028.20961359730     IErMin=12 ErrMin= 1.25D-06
 ErrMax= 1.25D-06  0.00D+00 EMaxC= 1.00D-01 BMatC= 3.13D-10 BMatP= 1.49D-09
 IDIUse=1 WtCom= 1.00D+00 WtEn= 0.00D+00
 Coeff-Com:  0.108D-03-0.212D-03-0.465D-03-0.606D-03 0.128D-03 0.579D-02
 Coeff-Com:  0.768D-02-0.124D-01-0.872D-01-0.986D-01 0.274D+00 0.912D+00
 Coeff:      0.108D-03-0.212D-03-0.465D-03-0.606D-03 0.128D-03 0.579D-02
 Coeff:      0.768D-02-0.124D-01-0.872D-01-0.986D-01 0.274D+00 0.912D+00
 Gap=     0.260 Goal=   None    Shift=    0.000
 RMSDP=2.21D-07 MaxDP=4.72D-06 DE=-5.55D-09 OVMax= 3.41D-05

 Cycle  13  Pass 1  IDiag  1:
 RMSU=  7.66D-08    CP:  9.87D-01  1.35D+00  9.31D-01  8.51D-01  1.25D+00
                    CP:  1.49D+00  1.37D+00  1.33D+00  1.35D+00  1.49D+00
                    CP:  1.43D+00  1.20D+00
 E= -1028.20961359870     Delta-E=       -0.000000001404 Rises=F Damp=F
 DIIS: error= 5.31D-07 at cycle  13 NSaved=  13.
 NSaved=13 IEnMin=13 EnMin= -1028.20961359870     IErMin=13 ErrMin= 5.31D-07
 ErrMax= 5.31D-07  0.00D+00 EMaxC= 1.00D-01 BMatC= 4.92D-11 BMatP= 3.13D-10
 IDIUse=1 WtCom= 1.00D+00 WtEn= 0.00D+00
 Coeff-Com:  0.131D-04-0.236D-04-0.692D-04-0.165D-03-0.251D-03 0.118D-02
 Coeff-Com:  0.374D-02 0.570D-02-0.176D-01-0.722D-01-0.818D-01 0.268D+00
 Coeff-Com:  0.893D+00
 Coeff:      0.131D-04-0.236D-04-0.692D-04-0.165D-03-0.251D-03 0.118D-02
 Coeff:      0.374D-02 0.570D-02-0.176D-01-0.722D-01-0.818D-01 0.268D+00
 Coeff:      0.893D+00
 Gap=     0.260 Goal=   None    Shift=    0.000
 RMSDP=8.17D-08 MaxDP=2.12D-06 DE=-1.40D-09 OVMax= 1.09D-05

 Cycle  14  Pass 1  IDiag  1:
 RMSU=  2.99D-08    CP:  9.87D-01  1.35D+00  9.31D-01  8.51D-01  1.25D+00
                    CP:  1.49D+00  1.37D+00  1.34D+00  1.36D+00  1.53D+00
                    CP:  1.52D+00  1.44D+00  1.18D+00
 E= -1028.20961359887     Delta-E=       -0.000000000168 Rises=F Damp=F
 DIIS: error= 1.52D-07 at cycle  14 NSaved=  14.
 NSaved=14 IEnMin=14 EnMin= -1028.20961359887     IErMin=14 ErrMin= 1.52D-07
 ErrMax= 1.52D-07  0.00D+00 EMaxC= 1.00D-01 BMatC= 8.09D-12 BMatP= 4.92D-11
 IDIUse=1 WtCom= 1.00D+00 WtEn= 0.00D+00
 Coeff-Com: -0.103D-04 0.212D-04 0.397D-04 0.255D-04-0.105D-03-0.389D-03
 Coeff-Com:  0.138D-03 0.385D-02 0.593D-02-0.894D-02-0.692D-01-0.289D-01
 Coeff-Com:  0.355D+00 0.743D+00
 Coeff:     -0.103D-04 0.212D-04 0.397D-04 0.255D-04-0.105D-03-0.389D-03
 Coeff:      0.138D-03 0.385D-02 0.593D-02-0.894D-02-0.692D-01-0.289D-01
 Coeff:      0.355D+00 0.743D+00
 Gap=     0.260 Goal=   None    Shift=    0.000
 RMSDP=2.02D-08 MaxDP=5.03D-07 DE=-1.68D-10 OVMax= 2.82D-06

 Cycle  15  Pass 1  IDiag  1:
 RMSU=  1.02D-08    CP:  9.87D-01  1.35D+00  9.31D-01  8.51D-01  1.25D+00
                    CP:  1.49D+00  1.37D+00  1.34D+00  1.36D+00  1.54D+00
                    CP:  1.53D+00  1.49D+00  1.34D+00  1.06D+00
 E= -1028.20961359890     Delta-E=       -0.000000000031 Rises=F Damp=F
 DIIS: error= 5.35D-08 at cycle  15 NSaved=  15.
 NSaved=15 IEnMin=15 EnMin= -1028.20961359890     IErMin=15 ErrMin= 5.35D-08
 ErrMax= 5.35D-08  0.00D+00 EMaxC= 1.00D-01 BMatC= 5.01D-13 BMatP= 8.09D-12
 IDIUse=1 WtCom= 1.00D+00 WtEn= 0.00D+00
 Coeff-Com: -0.319D-05 0.610D-05 0.151D-04 0.267D-04 0.107D-04-0.235D-03
 Coeff-Com: -0.469D-03-0.821D-04 0.289D-02 0.844D-02-0.201D-02-0.411D-01
 Coeff-Com: -0.523D-01 0.699D-01 0.101D+01
 Coeff:     -0.319D-05 0.610D-05 0.151D-04 0.267D-04 0.107D-04-0.235D-03
 Coeff:     -0.469D-03-0.821D-04 0.289D-02 0.844D-02-0.201D-02-0.411D-01
 Coeff:     -0.523D-01 0.699D-01 0.101D+01
 Gap=     0.260 Goal=   None    Shift=    0.000
 RMSDP=8.89D-09 MaxDP=2.14D-07 DE=-3.14D-11 OVMax= 9.39D-07

 Error on total polarization charges =  0.00821
 SCF Done:  E(RwB97XD) =  -1028.20961360     A.U. after   15 cycles
            NFock= 15  Conv=0.89D-08     -V/T= 2.0027
 KE= 1.025485296202D+03 PE=-4.604995290874D+03 EE= 1.454879985919D+03
 Leave Link  502 at Tue Oct 27 20:41:26 2020, MaxMem=  7784628224 cpu:             821.1 elap:              82.8
 (Enter /gpfs/loomis/apps/avx/software/Gaussian/16-C.01_AVX/g16/l601.exe)
 Copying SCF densities to generalized density rwf, IOpCl= 0 IROHF=0.

 **********************************************************************

            Population analysis using the SCF Density.

 **********************************************************************

 Alpha  occ. eigenvalues --  -89.08880 -19.27273 -14.45512 -10.39280 -10.38931
 Alpha  occ. eigenvalues --  -10.34568 -10.34186 -10.33722 -10.32706 -10.32397
 Alpha  occ. eigenvalues --  -10.32123 -10.31393 -10.31206 -10.31122 -10.31119
 Alpha  occ. eigenvalues --  -10.31092  -8.10729  -6.05583  -6.05245  -6.04795
 Alpha  occ. eigenvalues --   -1.31581  -1.08104  -0.97502  -0.95450  -0.91175
 Alpha  occ. eigenvalues --   -0.88849  -0.87985  -0.84075  -0.82928  -0.77971
 Alpha  occ. eigenvalues --   -0.73731  -0.70234  -0.69464  -0.68559  -0.64892
 Alpha  occ. eigenvalues --   -0.60151  -0.59527  -0.58240  -0.56325  -0.54824
 Alpha  occ. eigenvalues --   -0.53902  -0.53575  -0.52483  -0.51191  -0.51137
 Alpha  occ. eigenvalues --   -0.49525  -0.48498  -0.46170  -0.45613  -0.45076
 Alpha  occ. eigenvalues --   -0.43566  -0.43287  -0.42121  -0.39541  -0.36796
 Alpha  occ. eigenvalues --   -0.36487  -0.32479  -0.31683  -0.28068
 Alpha virt. eigenvalues --   -0.02043   0.05414   0.06416   0.07095   0.07733
 Alpha virt. eigenvalues --    0.11577   0.12956   0.15112   0.15837   0.18070
 Alpha virt. eigenvalues --    0.18534   0.21213   0.21738   0.22211   0.22881
 Alpha virt. eigenvalues --    0.23108   0.23593   0.25340   0.27775   0.30709
 Alpha virt. eigenvalues --    0.31850   0.33525   0.35006   0.36108   0.36675
 Alpha virt. eigenvalues --    0.37896   0.38376   0.40690   0.43975   0.46505
 Alpha virt. eigenvalues --    0.46612   0.48530   0.50784   0.51214   0.51874
 Alpha virt. eigenvalues --    0.52274   0.53651   0.54648   0.54716   0.55803
 Alpha virt. eigenvalues --    0.55913   0.56246   0.57181   0.58042   0.58162
 Alpha virt. eigenvalues --    0.58676   0.58980   0.59434   0.59796   0.59925
 Alpha virt. eigenvalues --    0.60808   0.60986   0.61999   0.62432   0.64154
 Alpha virt. eigenvalues --    0.65169   0.65974   0.66497   0.68876   0.68944
 Alpha virt. eigenvalues --    0.70167   0.71915   0.72377   0.72872   0.73176
 Alpha virt. eigenvalues --    0.73954   0.75599   0.76154   0.77032   0.78738
 Alpha virt. eigenvalues --    0.79482   0.79522   0.81619   0.82573   0.82686
 Alpha virt. eigenvalues --    0.85908   0.88199   0.91299   0.93472   0.93583
 Alpha virt. eigenvalues --    0.94680   0.94958   0.96065   0.96646   0.98089
 Alpha virt. eigenvalues --    0.98744   0.98997   1.00521   1.00815   1.02292
 Alpha virt. eigenvalues --    1.03488   1.04617   1.05709   1.06066   1.07499
 Alpha virt. eigenvalues --    1.07787   1.09066   1.09445   1.10372   1.10592
 Alpha virt. eigenvalues --    1.11734   1.13190   1.13306   1.15588   1.16983
 Alpha virt. eigenvalues --    1.17141   1.18203   1.20707   1.21911   1.23827
 Alpha virt. eigenvalues --    1.25597   1.28446   1.33321   1.34074   1.34803
 Alpha virt. eigenvalues --    1.35356   1.36607   1.38498   1.42294   1.44331
 Alpha virt. eigenvalues --    1.47891   1.48637   1.52383   1.54705   1.54921
 Alpha virt. eigenvalues --    1.55236   1.56156   1.57248   1.57914   1.58072
 Alpha virt. eigenvalues --    1.59478   1.63382   1.65775   1.66032   1.66493
 Alpha virt. eigenvalues --    1.67559   1.68014   1.70196   1.70660   1.71252
 Alpha virt. eigenvalues --    1.72055   1.72625   1.72834   1.74966   1.75488
 Alpha virt. eigenvalues --    1.77244   1.77846   1.79971   1.81101   1.82400
 Alpha virt. eigenvalues --    1.83325   1.83759   1.84529   1.85826   1.86978
 Alpha virt. eigenvalues --    1.87037   1.88082   1.89622   1.91105   1.91925
 Alpha virt. eigenvalues --    1.92926   1.93080   1.93551   1.94185   1.94896
 Alpha virt. eigenvalues --    2.00600   2.00602   2.02010   2.03613   2.03998
 Alpha virt. eigenvalues --    2.07507   2.08220   2.09764   2.10739   2.11980
 Alpha virt. eigenvalues --    2.17730   2.17995   2.20630   2.24827   2.26080
 Alpha virt. eigenvalues --    2.27663   2.30300   2.36085   2.38507   2.41569
 Alpha virt. eigenvalues --    2.41850   2.46101   2.47069   2.47443   2.49363
 Alpha virt. eigenvalues --    2.50056   2.50751   2.54733   2.61296   2.62253
 Alpha virt. eigenvalues --    2.67800   2.72407   2.74223   2.78603   2.81227
 Alpha virt. eigenvalues --    2.82344   2.84136   2.89255   2.91375   2.97960
 Alpha virt. eigenvalues --    3.06005   3.12192   3.29407   3.48177   3.50854
 Alpha virt. eigenvalues --    3.56169   3.64122   3.78175   5.96610
          Condensed to atoms (all electrons):
               1          2          3          4          5          6
     1  C    4.771145   0.431047   0.013583  -0.053404  -0.012752   0.526456
     2  C    0.431047   5.350409   0.339988  -0.037263  -0.061760  -0.007768
     3  C    0.013583   0.339988   4.730522   0.486820  -0.007720  -0.064311
     4  C   -0.053404  -0.037263   0.486820   4.787350   0.525808  -0.015233
     5  C   -0.012752  -0.061760  -0.007720   0.525808   4.736729   0.484039
     6  C    0.526456  -0.007768  -0.064311  -0.015233   0.484039   4.755333
     7  H    0.401158  -0.039507   0.007734  -0.000413   0.007906  -0.037900
     8  H   -0.001184   0.012199  -0.029473   0.390791  -0.045085   0.008024
     9  H    0.008700  -0.000811   0.008687  -0.039904   0.405218  -0.045205
    10  H   -0.041732   0.009801  -0.000731   0.008790  -0.044069   0.405104
    11  N    0.009519  -0.066874   0.534600  -0.043330   0.003135  -0.000053
    12  S   -0.061501   0.348430  -0.096730   0.007117   0.000166   0.003263
    13  C   -0.000130   0.004561   0.006570  -0.000899   0.000009   0.000001
    14  C   -0.000005  -0.000041   0.000305   0.000006  -0.000000  -0.000000
    15  C    0.000005  -0.000053  -0.001009   0.000024   0.000000  -0.000000
    16  C    0.000000  -0.000000   0.000003  -0.000000  -0.000000   0.000000
    17  H   -0.000001   0.000027  -0.000013  -0.000001   0.000000  -0.000000
    18  C    0.000000   0.000005  -0.000029   0.000000  -0.000000   0.000000
    19  C   -0.000000   0.000000   0.000003  -0.000000   0.000000   0.000000
    20  H   -0.000000  -0.000000  -0.000000   0.000000   0.000000  -0.000000
    21  H    0.000000  -0.000000   0.000000   0.000000  -0.000000  -0.000000
    22  H   -0.000000  -0.000000   0.000000  -0.000000   0.000000   0.000000
    23  C    0.005060  -0.059894  -0.136344   0.000964   0.000228  -0.000184
    24  O    0.000000  -0.000068  -0.000185   0.000043  -0.000000  -0.000000
    25  H   -0.000046   0.001202  -0.001660  -0.000784   0.000017   0.000007
               7          8          9         10         11         12
     1  C    0.401158  -0.001184   0.008700  -0.041732   0.009519  -0.061501
     2  C   -0.039507   0.012199  -0.000811   0.009801  -0.066874   0.348430
     3  C    0.007734  -0.029473   0.008687  -0.000731   0.534600  -0.096730
     4  C   -0.000413   0.390791  -0.039904   0.008790  -0.043330   0.007117
     5  C    0.007906  -0.045085   0.405218  -0.044069   0.003135   0.000166
     6  C   -0.037900   0.008024  -0.045205   0.405104  -0.000053   0.003263
     7  H    0.659814   0.000035  -0.000140  -0.012142  -0.000130  -0.005925
     8  H    0.000035   0.660179  -0.012166  -0.000128  -0.000267  -0.000079
     9  H   -0.000140  -0.012166   0.669366  -0.012145  -0.000113   0.000020
    10  H   -0.012142  -0.000128  -0.012145   0.666154  -0.000004  -0.000131
    11  N   -0.000130  -0.000267  -0.000113  -0.000004   6.389384  -0.083354
    12  S   -0.005925  -0.000079   0.000020  -0.000131  -0.083354  15.496249
    13  C    0.000006   0.000054  -0.000000  -0.000000  -0.024171  -0.060548
    14  C    0.000000   0.000002   0.000000   0.000000   0.003325  -0.003697
    15  C   -0.000000  -0.000084   0.000000   0.000000  -0.022068   0.004451
    16  C   -0.000000  -0.000000  -0.000000   0.000000  -0.000098  -0.000125
    17  H    0.000000   0.000000  -0.000000  -0.000000   0.000163   0.005123
    18  C   -0.000000   0.000001  -0.000000  -0.000000   0.000193  -0.000044
    19  C    0.000000   0.000000  -0.000000  -0.000000   0.000054   0.000011
    20  H   -0.000000  -0.000000   0.000000   0.000000   0.000001  -0.000002
    21  H   -0.000000  -0.000000   0.000000   0.000000  -0.000022   0.000002
    22  H    0.000000   0.000000  -0.000000  -0.000000   0.000000  -0.000000
    23  C    0.000008  -0.001079   0.000009   0.000002   0.562338   0.302346
    24  O   -0.000000  -0.000133   0.000000  -0.000000  -0.015683  -0.000064
    25  H    0.000000   0.001164  -0.000003   0.000000   0.049707   0.001949
              13         14         15         16         17         18
     1  C   -0.000130  -0.000005   0.000005   0.000000  -0.000001   0.000000
     2  C    0.004561  -0.000041  -0.000053  -0.000000   0.000027   0.000005
     3  C    0.006570   0.000305  -0.001009   0.000003  -0.000013  -0.000029
     4  C   -0.000899   0.000006   0.000024  -0.000000  -0.000001   0.000000
     5  C    0.000009  -0.000000   0.000000  -0.000000   0.000000  -0.000000
     6  C    0.000001  -0.000000  -0.000000   0.000000  -0.000000   0.000000
     7  H    0.000006   0.000000  -0.000000  -0.000000   0.000000  -0.000000
     8  H    0.000054   0.000002  -0.000084  -0.000000   0.000000   0.000001
     9  H   -0.000000   0.000000   0.000000  -0.000000  -0.000000  -0.000000
    10  H   -0.000000   0.000000   0.000000   0.000000  -0.000000  -0.000000
    11  N   -0.024171   0.003325  -0.022068  -0.000098   0.000163   0.000193
    12  S   -0.060548  -0.003697   0.004451  -0.000125   0.005123  -0.000044
    13  C    5.349350   0.504226   0.263732  -0.011997  -0.037820  -0.094215
    14  C    0.504226   4.785771  -0.024429   0.526936   0.404802  -0.052679
    15  C    0.263732  -0.024429   4.946704  -0.066938   0.008761   0.481608
    16  C   -0.011997   0.526936  -0.066938   4.753716  -0.038551  -0.012296
    17  H   -0.037820   0.404802   0.008761  -0.038551   0.669922  -0.000850
    18  C   -0.094215  -0.052679   0.481608  -0.012296  -0.000850   4.861123
    19  C   -0.039198  -0.015341  -0.002700   0.481876   0.008455   0.480080
    20  H    0.008561  -0.035447  -0.000425   0.402291  -0.013092   0.008549
    21  H    0.010085  -0.000361  -0.024718   0.007050   0.000035   0.386878
    22  H   -0.000689   0.008446   0.009019  -0.042400  -0.000133  -0.041551
    23  C    0.285322  -0.087780  -0.066238   0.007988  -0.019848   0.007319
    24  O   -0.037768   0.003524   0.448269   0.000012  -0.000052  -0.067545
    25  H   -0.067000  -0.001503   0.022554  -0.000053   0.000052   0.016700
              19         20         21         22         23         24
     1  C   -0.000000  -0.000000   0.000000  -0.000000   0.005060   0.000000
     2  C    0.000000  -0.000000  -0.000000  -0.000000  -0.059894  -0.000068
     3  C    0.000003  -0.000000   0.000000   0.000000  -0.136344  -0.000185
     4  C   -0.000000   0.000000   0.000000  -0.000000   0.000964   0.000043
     5  C    0.000000   0.000000  -0.000000   0.000000   0.000228  -0.000000
     6  C    0.000000  -0.000000  -0.000000   0.000000  -0.000184  -0.000000
     7  H    0.000000  -0.000000  -0.000000   0.000000   0.000008  -0.000000
     8  H    0.000000  -0.000000  -0.000000   0.000000  -0.001079  -0.000133
     9  H   -0.000000   0.000000   0.000000  -0.000000   0.000009   0.000000
    10  H   -0.000000   0.000000   0.000000  -0.000000   0.000002  -0.000000
    11  N    0.000054   0.000001  -0.000022   0.000000   0.562338  -0.015683
    12  S    0.000011  -0.000002   0.000002  -0.000000   0.302346  -0.000064
    13  C   -0.039198   0.008561   0.010085  -0.000689   0.285322  -0.037768
    14  C   -0.015341  -0.035447  -0.000361   0.008446  -0.087780   0.003524
    15  C   -0.002700  -0.000425  -0.024718   0.009019  -0.066238   0.448269
    16  C    0.481876   0.402291   0.007050  -0.042400   0.007988   0.000012
    17  H    0.008455  -0.013092   0.000035  -0.000133  -0.019848  -0.000052
    18  C    0.480080   0.008549   0.386878  -0.041551   0.007319  -0.067545
    19  C    4.753396  -0.046994  -0.043087   0.407546   0.000171   0.003231
    20  H   -0.046994   0.670684  -0.000156  -0.011417  -0.000288   0.000003
    21  H   -0.043087  -0.000156   0.647527  -0.011364  -0.000378   0.000724
    22  H    0.407546  -0.011417  -0.011364   0.655487   0.000004  -0.000053
    23  C    0.000171  -0.000288  -0.000378   0.000004   5.145083  -0.006647
    24  O    0.003231   0.000003   0.000724  -0.000053  -0.006647   7.040067
    25  H   -0.000252  -0.000000   0.000397   0.000000   0.005771   0.373733
              25
     1  C   -0.000046
     2  C    0.001202
     3  C   -0.001660
     4  C   -0.000784
     5  C    0.000017
     6  C    0.000007
     7  H    0.000000
     8  H    0.001164
     9  H   -0.000003
    10  H    0.000000
    11  N    0.049707
    12  S    0.001949
    13  C   -0.067000
    14  C   -0.001503
    15  C    0.022554
    16  C   -0.000053
    17  H    0.000052
    18  C    0.016700
    19  C   -0.000252
    20  H   -0.000000
    21  H    0.000397
    22  H    0.000000
    23  C    0.005771
    24  O    0.373733
    25  H    0.872652
 Mulliken charges:
               1
     1  C    0.004082
     2  C   -0.223632
     3  C    0.209389
     4  C   -0.016483
     5  C    0.008132
     6  C   -0.011573
     7  H    0.019494
     8  H    0.017228
     9  H    0.018485
    10  H    0.021232
    11  N   -0.296251
    12  S    0.143073
    13  C   -0.058043
    14  C   -0.016060
    15  C    0.023533
    16  C   -0.007414
    17  H    0.013019
    18  C    0.026753
    19  C    0.012750
    20  H    0.017733
    21  H    0.027387
    22  H    0.027106
    23  C    0.056069
    24  O    0.258594
    25  H   -0.274603
 Sum of Mulliken charges =  -0.00000
 Mulliken charges with hydrogens summed into heavy atoms:
               1
     1  C    0.023577
     2  C   -0.223632
     3  C    0.209389
     4  C    0.000746
     5  C    0.026618
     6  C    0.009659
    11  N   -0.296251
    12  S    0.143073
    13  C   -0.058043
    14  C   -0.003041
    15  C    0.023533
    16  C    0.010318
    18  C    0.054139
    19  C    0.039856
    23  C    0.056069
    24  O   -0.016009
 Electronic spatial extent (au):  <R**2>=           4370.2580
 Charge=             -0.0000 electrons
 Dipole moment (field-independent basis, Debye):
    X=             -1.0282    Y=             -0.9565    Z=              0.0000  Tot=              1.4043
 Quadrupole moment (field-independent basis, Debye-Ang):
   XX=            -82.4382   YY=            -86.1725   ZZ=           -104.1002
   XY=             -7.9843   XZ=             -0.0001   YZ=              0.0003
 Traceless Quadrupole moment (field-independent basis, Debye-Ang):
   XX=              8.4654   YY=              4.7311   ZZ=            -13.1965
   XY=             -7.9843   XZ=             -0.0001   YZ=              0.0003
 Octapole moment (field-independent basis, Debye-Ang**2):
  XXX=              3.1557  YYY=              1.3292  ZZZ=             -0.0000  XYY=             -9.4939
  XXY=              7.0100  XXZ=              0.0001  XZZ=              0.7161  YZZ=              3.7786
  YYZ=              0.0011  XYZ=             -0.0007
 Hexadecapole moment (field-independent basis, Debye-Ang**3):
 XXXX=          -2595.9060 YYYY=          -2585.8760 ZZZZ=           -113.5449 XXXY=            797.0379
 XXXZ=              0.0096 YYYX=            753.6696 YYYZ=             -0.0096 ZZZX=              0.0128
 ZZZY=             -0.0188 XXYY=           -845.8992 XXZZ=           -572.2440 YYZZ=           -553.8454
 XXYZ=             -0.0024 YYXZ=             -0.0007 ZZXY=            355.9475
 N-N= 1.096420395154D+03 E-N=-4.604995293203D+03  KE= 1.025485296202D+03
 No NMR shielding tensors so no spin-rotation constants.
 Leave Link  601 at Tue Oct 27 20:41:26 2020, MaxMem=  7784628224 cpu:               1.2 elap:               0.2
 (Enter /gpfs/loomis/apps/avx/software/Gaussian/16-C.01_AVX/g16/l701.exe)
 ... and contract with generalized density number  0.
 Compute integral first derivatives.
 R6Disp: Adding Grimme-D2 dispersion energy 1st derivatives to the gradient.
 D1PCM: PCM CHGder 1st derivatives, ID1Alg=3 FixD1E=F DoIter=F DoCFld=F I1PDM=0.
 GePol: Maximum number of non-zero 1st derivatives   =     271
 Leave Link  701 at Tue Oct 27 20:41:27 2020, MaxMem=  7784628224 cpu:              14.1 elap:               1.4
 (Enter /gpfs/loomis/apps/avx/software/Gaussian/16-C.01_AVX/g16/l702.exe)
 L702 exits ... SP integral derivatives will be done elsewhere.
 Leave Link  702 at Tue Oct 27 20:41:27 2020, MaxMem=  7784628224 cpu:               0.2 elap:               0.0
 (Enter /gpfs/loomis/apps/avx/software/Gaussian/16-C.01_AVX/g16/l703.exe)
 Integral derivatives from FoFJK, PRISM(SPDF).
 Compute integral first derivatives, UseDBF=F ICtDFT=           0.
 Calling FoFJK, ICntrl=      2127 FMM=F ISym2X=0 I1Cent= 0 IOpClX= 0 NMat=1 NMatS=1 NMatT=0.
 FoFJK:  IHMeth= 1 ICntrl=    2127 DoSepK=T KAlg= 0 I1Cent=           0 FoldK=F
 IRaf=         1 NMat=       1 IRICut=       1 DoRegI=T DoRafI=F ISym2E= 0 IDoP0=0 IntGTp=1.
 FoFCou: FMM=F IPFlag=           0 FMFlag=      100000 FMFlg1=         800
         NFxFlg=           0 DoJE=F BraDBF=F KetDBF=F FulRan=T
         wScrn=  0.000000 ICntrl=      2527 IOpCl=  0 I1Cent=           0 NGrid=           0
         NMat0=    1 NMatS0=      1 NMatT0=    0 NMatD0=    1 NMtDS0=    0 NMtDT0=    0
 Symmetry not used in FoFCou.
 Leave Link  703 at Tue Oct 27 20:41:41 2020, MaxMem=  7784628224 cpu:             135.5 elap:              13.6
 (Enter /gpfs/loomis/apps/avx/software/Gaussian/16-C.01_AVX/g16/l716.exe)
 Dipole        =-4.04514979D-01-3.76326116D-01 9.29087498D-06
 -------------------------------------------------------------------
 Center     Atomic                   Forces (Hartrees/Bohr)
 Number     Number              X              Y              Z
 -------------------------------------------------------------------
      1        6           0.007211471   -0.006274173    0.000000043
      2        6           0.004954527    0.016331154   -0.000000072
      3        6           0.039375730   -0.055343383   -0.000000136
      4        6          -0.019687654    0.001309737   -0.000000114
      5        6          -0.000984370   -0.010748097   -0.000000037
      6        6          -0.006810349    0.004413291    0.000000038
      7        1           0.001097709    0.001909720   -0.000000035
      8        1          -0.001255837   -0.002518873   -0.000000017
      9        1          -0.001481650   -0.000104480   -0.000000001
     10        1          -0.001274989    0.001145726    0.000000014
     11        7          -0.077076330    0.038305077    0.000000578
     12       16           0.006514501    0.016772714    0.000000073
     13        6          -0.035297611    0.068654574    0.000001118
     14        6           0.030055564   -0.004093483    0.000000748
     15        6          -0.003616111   -0.032216904   -0.000000721
     16        6          -0.005071926    0.019115609    0.000000563
     17        1          -0.001242243    0.000111247    0.000000096
     18        6          -0.005072237   -0.004575349   -0.000000475
     19        6          -0.001117158   -0.024452625   -0.000000945
     20        1           0.001856183   -0.000242739   -0.000000017
     21        1          -0.000526152   -0.001850297    0.000000056
     22        1           0.000186692   -0.001241691   -0.000000121
     23        6           0.069534445   -0.028713336   -0.000000991
     24        8          -1.349211068    2.189408857    0.000021138
     25        1           1.348938864   -2.185102278   -0.000020784
 -------------------------------------------------------------------
 Cartesian Forces:  Max     2.189408857 RMS     0.420097517
 Leave Link  716 at Tue Oct 27 20:41:41 2020, MaxMem=  7784628224 cpu:               0.3 elap:               0.0
 (Enter /gpfs/loomis/apps/avx/software/Gaussian/16-C.01_AVX/g16/l103.exe)

 GradGradGradGradGradGradGradGradGradGradGradGradGradGradGradGradGradGrad
 Berny optimization.
 FormGI is forming the generalized inverse of G from B-inverse, IUseBI=4.
 Internal  Forces:  Max     2.402133258 RMS     0.215478801
 Search for a local minimum.
 Step number   1 out of a maximum of  143
 All quantities printed in internal units (Hartrees-Bohrs-Radians)
 RMS Force = .21712D+00 SwitMx=.10000D-02 MixMth= 1
 Mixed Optimization -- RFO/linear search
 Second derivative matrix not updated -- first step.
 ITU=  0
     Eigenvalues ---    0.01199   0.01331   0.01529   0.01600   0.01687
     Eigenvalues ---    0.01721   0.01881   0.01919   0.01930   0.01947
     Eigenvalues ---    0.01956   0.01959   0.02002   0.02058   0.02075
     Eigenvalues ---    0.02079   0.02112   0.02160   0.02194   0.02195
     Eigenvalues ---    0.02288   0.02577   0.16000   0.16000   0.16000
     Eigenvalues ---    0.16000   0.16000   0.16000   0.16000   0.16003
     Eigenvalues ---    0.16061   0.22000   0.22030   0.22516   0.22578
     Eigenvalues ---    0.24471   0.24553   0.25000   0.25000   0.25000
     Eigenvalues ---    0.25371   0.28690   0.32171   0.34302   0.34335
     Eigenvalues ---    0.34372   0.34425   0.34442   0.34518   0.34591
     Eigenvalues ---    0.34620   0.36648   0.38042   0.38994   0.40172
     Eigenvalues ---    0.41953   0.42537   0.43715   0.44053   0.45457
     Eigenvalues ---    0.46730   0.48013   0.48732   0.50878   0.58646
     Eigenvalues ---    0.61888   5.632931000.000001000.000001000.00000
     Eigenvalues --- 1000.000001000.000001000.000001000.000001000.00000
     Eigenvalues --- 1000.000001000.000001000.000001000.000001000.00000
     Eigenvalues --- 1000.000001000.000001000.000001000.000001000.00000
     Eigenvalues --- 1000.000001000.000001000.000001000.000001000.00000
     Eigenvalues --- 1000.000001000.000001000.000001000.000001000.00000
     Eigenvalues --- 1000.000001000.000001000.000001000.000001000.00000
     Eigenvalues --- 1000.000001000.000001000.000001000.000001000.00000
     Eigenvalues --- 1000.000001000.000001000.000001000.000001000.00000
     Eigenvalues --- 1000.000001000.000001000.000001000.000001000.00000
     Eigenvalues --- 1000.000001000.000001000.000001000.000001000.00000
     Eigenvalues --- 1000.000001000.000001000.000001000.000001000.00000
     Eigenvalues --- 1000.000001000.000001000.000001000.000001000.00000
     Eigenvalues --- 1000.000001000.000001000.00000
 RFO step:  Lambda=-9.44641358D-01 EMin= 1.19916309D-02
 Linear search not attempted -- first point.
 Maximum step size (   0.300) exceeded in Quadratic search.
    -- Step size scaled by   0.780
 Iteration  1 RMS(Cart)=  0.02016827 RMS(Int)=  0.00717364
 Iteration  2 RMS(Cart)=  0.00720251 RMS(Int)=  0.00018456
 Iteration  3 RMS(Cart)=  0.00011549 RMS(Int)=  0.00014417
 Iteration  4 RMS(Cart)=  0.00000013 RMS(Int)=  0.00014419
 Iteration  1 RMS(Cart)=  0.00000028 RMS(Int)=  0.00000006
 ITry= 1 IFail=0 DXMaxC= 1.80D-01 DCOld= 1.00D+10 DXMaxT= 3.00D-01 DXLimC= 3.00D+00 Rises=F
 Variable       Old X    -DE/DX   Delta X   Delta X   Delta X     New X
                                 (Linear)    (Quad)   (Total)
    R1        2.63686   0.04616   0.00000   0.00690   0.00680   2.64366
    R2        2.64807   0.03662   0.00000  -0.00002  -0.00014   2.64793
    R3        2.06768  -0.00066   0.00000  -0.00117  -0.00118   2.06650
    R4        2.70853  -0.00107   0.00000  -0.00859  -0.00862   2.69991
    R5        3.33284   0.03750   0.00000   0.00315   0.00305   3.33589
    R6        2.70772  -0.04771   0.00000  -0.01518  -0.01511   2.69261
    R7        2.46674  -0.04043   0.00000   0.01534   0.01557   2.48230
    R8        2.60141  -0.04694   0.00000  -0.00441  -0.00429   2.59712
    R9        2.06823  -0.00189   0.00000  -0.00155  -0.00155   2.06668
   R10        2.67819   0.00908   0.00000  -0.00257  -0.00262   2.67557
   R11        2.06619  -0.00052   0.00000  -0.00076  -0.00076   2.06544
   R12        2.06591  -0.00168   0.00000  -0.00102  -0.00102   2.06489
   R13        2.56540  -0.10277   0.00000  -0.03252  -0.03239   2.53301
   R14        3.41698   0.16030   0.00000   0.01661   0.01619   3.43317
   R15        2.71884   0.04593   0.00000  -0.00432  -0.00448   2.71436
   R16        2.80044   0.17523   0.00000   0.00354   0.00301   2.80346
   R17        2.66834   0.16673   0.00000   0.03284   0.03251   2.70085
   R18        2.61030   0.00115   0.00000   0.00118   0.00119   2.61149
   R19        2.06345   0.00046   0.00000   0.00023   0.00023   2.06367
   R20        2.64154  -0.05601   0.00000  -0.00829  -0.00816   2.63338
   R21        2.51919   0.04071   0.00000   0.00432   0.00420   2.52338
   R22        2.69698  -0.02253   0.00000  -0.01337  -0.01336   2.68361
   R23        2.06707  -0.00283   0.00000  -0.00123  -0.00123   2.06584
   R24        2.62118  -0.08098   0.00000  -0.01059  -0.01040   2.61079
   R25        2.06464  -0.00034   0.00000  -0.00092  -0.00092   2.06372
   R26        2.06297  -0.00147   0.00000  -0.00067  -0.00067   2.06230
   R27        1.01320   2.40213   0.00000   0.28507   0.28548   1.29867
    A1        2.07347  -0.01671   0.00000  -0.00354  -0.00351   2.06996
    A2        2.11311   0.01462   0.00000   0.00289   0.00286   2.11597
    A3        2.09660   0.00209   0.00000   0.00065   0.00065   2.09725
    A4        2.09863  -0.04779   0.00000  -0.00497  -0.00485   2.09379
    A5        2.28684   0.10557   0.00000   0.01546   0.01520   2.30205
    A6        1.89771  -0.05778   0.00000  -0.01049  -0.01036   1.88735
    A7        2.09339   0.05428   0.00000   0.00799   0.00787   2.10125
    A8        2.02820   0.06625   0.00000   0.00822   0.00807   2.03627
    A9        2.16160  -0.12053   0.00000  -0.01621  -0.01594   2.14566
   A10        2.07431   0.00606   0.00000   0.00094   0.00094   2.07525
   A11        2.07098  -0.00850   0.00000  -0.00142  -0.00140   2.06958
   A12        2.13789   0.00244   0.00000   0.00048   0.00047   2.13836
   A13        2.10712  -0.01534   0.00000  -0.00272  -0.00269   2.10443
   A14        2.09553   0.00337   0.00000   0.00060   0.00060   2.09613
   A15        2.08053   0.01198   0.00000   0.00212   0.00209   2.08263
   A16        2.11944   0.01952   0.00000   0.00230   0.00224   2.12169
   A17        2.07954  -0.00607   0.00000  -0.00070  -0.00068   2.07886
   A18        2.08420  -0.01344   0.00000  -0.00160  -0.00156   2.08264
   A19        2.00264   0.02861   0.00000   0.00127   0.00120   2.00385
   A20        1.55596   0.00196   0.00000   0.00298   0.00297   1.55892
   A21        1.99220  -0.10614   0.00000  -0.00802  -0.00774   1.98446
   A22        2.23136  -0.09881   0.00000  -0.01569  -0.01545   2.21591
   A23        2.05963   0.20494   0.00000   0.02371   0.02319   2.08281
   A24        2.12058   0.03221   0.00000   0.00521   0.00513   2.12571
   A25        2.06450  -0.01049   0.00000  -0.00098  -0.00095   2.06355
   A26        2.09811  -0.02172   0.00000  -0.00423  -0.00418   2.09393
   A27        2.15005   0.02798   0.00000  -0.00004  -0.00012   2.14993
   A28        2.09997   0.27641   0.00000   0.04022   0.03953   2.13950
   A29        2.03317  -0.30439   0.00000  -0.04018  -0.03942   1.99376
   A30        2.13711   0.02052   0.00000  -0.00202  -0.00209   2.13502
   A31        2.07610  -0.00738   0.00000   0.00134   0.00137   2.07747
   A32        2.06997  -0.01315   0.00000   0.00068   0.00072   2.07070
   A33        2.09111   0.02939   0.00000   0.00470   0.00463   2.09574
   A34        2.05789  -0.01951   0.00000  -0.00336  -0.00331   2.05458
   A35        2.13419  -0.00989   0.00000  -0.00134  -0.00132   2.13287
   A36        2.07533  -0.00397   0.00000   0.00018   0.00019   2.07552
   A37        2.10127   0.00790   0.00000   0.00056   0.00054   2.10181
   A38        2.10658  -0.00393   0.00000  -0.00073  -0.00073   2.10585
   A39        1.94027  -0.03904   0.00000  -0.00198  -0.00188   1.93839
   A40        2.08717  -0.01679   0.00000  -0.00672  -0.00670   2.08048
   A41        2.25574   0.05583   0.00000   0.00870   0.00858   2.26432
   A42        1.94699   0.05198   0.00000   0.01175   0.01157   1.95857
    D1        0.00000   0.00000   0.00000   0.00000   0.00000   0.00000
    D2       -3.14159  -0.00000   0.00000   0.00000   0.00000  -3.14159
    D3        3.14159   0.00000   0.00000   0.00000   0.00000   3.14159
    D4       -0.00000   0.00000   0.00000   0.00000   0.00000  -0.00000
    D5        0.00000   0.00000   0.00000   0.00000   0.00000   0.00000
    D6        3.14159   0.00000   0.00000   0.00000   0.00000   3.14159
    D7       -3.14159   0.00000   0.00000   0.00000   0.00000  -3.14159
    D8        0.00000  -0.00000   0.00000  -0.00000  -0.00000   0.00000
    D9       -0.00000  -0.00000   0.00000  -0.00000  -0.00000  -0.00000
   D10        3.14159  -0.00000   0.00000  -0.00000  -0.00000   3.14159
   D11        3.14159  -0.00000   0.00000  -0.00000  -0.00000   3.14159
   D12       -0.00000  -0.00000   0.00000  -0.00000  -0.00000  -0.00000
   D13        3.14159   0.00000   0.00000   0.00000   0.00000   3.14159
   D14       -0.00000   0.00000   0.00000   0.00000   0.00000  -0.00000
   D15        0.00000   0.00000   0.00000   0.00000   0.00000   0.00000
   D16       -3.14159   0.00000   0.00000   0.00000   0.00000  -3.14159
   D17       -3.14159   0.00000   0.00000   0.00000   0.00000  -3.14159
   D18        0.00000   0.00000   0.00000   0.00000   0.00000   0.00000
   D19        0.00000  -0.00000   0.00000  -0.00000  -0.00000   0.00000
   D20       -3.14159  -0.00000   0.00000  -0.00000  -0.00000  -3.14159
   D21       -0.00000  -0.00000   0.00000  -0.00000  -0.00000  -0.00000
   D22        3.14159  -0.00000   0.00000  -0.00000  -0.00000   3.14159
   D23       -3.14159   0.00000   0.00000   0.00000   0.00000  -3.14159
   D24        0.00000   0.00000   0.00000   0.00000   0.00000   0.00000
   D25       -0.00000  -0.00000   0.00000  -0.00000  -0.00000  -0.00000
   D26        3.14159  -0.00000   0.00000  -0.00000  -0.00000   3.14159
   D27        3.14159  -0.00000   0.00000  -0.00000  -0.00000   3.14159
   D28       -0.00000   0.00000   0.00000   0.00000   0.00000  -0.00000
   D29       -0.00000   0.00000   0.00000   0.00000   0.00000  -0.00000
   D30        3.14159   0.00000   0.00000   0.00000   0.00000   3.14159
   D31        0.00000  -0.00000   0.00000  -0.00000  -0.00000   0.00000
   D32       -3.14159  -0.00000   0.00000  -0.00000  -0.00000  -3.14159
   D33       -0.00001  -0.00000   0.00000  -0.00000  -0.00000  -0.00001
   D34        3.14158  -0.00000   0.00000  -0.00000  -0.00000   3.14158
   D35        3.14158  -0.00000   0.00000  -0.00000  -0.00000   3.14158
   D36       -0.00001  -0.00000   0.00000  -0.00000  -0.00000  -0.00001
   D37        0.00002   0.00000   0.00000   0.00000   0.00000   0.00002
   D38       -3.14158   0.00000   0.00000   0.00000   0.00000  -3.14158
   D39       -3.14157   0.00000   0.00000   0.00000   0.00000  -3.14157
   D40        0.00002   0.00000   0.00000   0.00000   0.00000   0.00002
   D41        3.14158  -0.00000   0.00000   0.00000   0.00000   3.14158
   D42       -0.00002  -0.00000   0.00000  -0.00000  -0.00000  -0.00002
   D43       -0.00002  -0.00000   0.00000  -0.00000  -0.00000  -0.00002
   D44        3.14157  -0.00000   0.00000  -0.00000  -0.00000   3.14157
   D45        0.00000  -0.00000   0.00000  -0.00000  -0.00000   0.00000
   D46       -3.14159   0.00000   0.00000   0.00000   0.00000  -3.14159
   D47        3.14159  -0.00000   0.00000  -0.00000  -0.00000   3.14159
   D48       -0.00000  -0.00000   0.00000  -0.00000  -0.00000  -0.00000
[...]
 3908,0.00102426,-0.00000097,-0.00120750,-0.00072157,-0.00000029,0.0693
 0581,0.03631352,0.00000095,0.08189167,-0.27741607,-0.00002283,0.023671
 26,-0.07568108,-0.00000787,-0.00097825,0.68018804,-0.00000003,0.000000
 08,0.00003247,0.00000009,-0.00000005,0.00023344,-0.00000018,0.00000014
 ,-0.00070262,0.00000002,-0.00000004,-0.00010470,-0.00000003,-0.0000000
 4,0.00007107,0.00000008,-0.00000005,-0.00000959,0.,-0.00000001,0.00000
 003,0.,0.,-0.00000589,0.00000001,0.,0.00001284,0.,0.,-0.00001888,0.000
 00068,0.00000009,0.00008208,-0.00000028,-0.00000011,-0.00041821,0.0000
 0902,0.00000211,0.00669679,0.00001206,-0.00002503,-0.06277085,0.000002
 36,-0.00000760,-0.00406632,-0.00001987,0.00005379,0.12893590,0.0002208
 4,0.00007153,0.00000002,-0.00056628,0.00012474,-0.00000033,0.00027686,
 -0.00003115,0.00000005,-0.00000458,0.00001291,0.00000002,0.00004737,0.
 00003629,0.,-0.00003945,-0.00006901,0.00000003,-0.00001081,-0.00000832
 ,0.,0.00002827,0.00000791,0.,0.00001014,-0.00000079,0.,0.00002682,-0.0
 0000329,0.,0.00019787,0.00035653,0.00000002,-0.00052146,0.00145987,0.0
 0000042,-0.00645927,-0.02764129,-0.00000235,-0.10279107,-0.10382595,-0
 .00000756,-0.00562594,0.00102804,0.00000039,0.01100639,0.01874625,0.00
 000163,0.10532609,-0.00003032,-0.00004715,0.,0.00000927,0.00033152,0.,
 0.00013847,-0.00014707,0.,-0.00000715,0.00003195,0.,0.00000497,0.00003
 111,0.,-0.00005011,0.00003013,-0.00000001,-0.00000178,0.00001003,0.,0.
 00000845,-0.00000090,0.,-0.00000676,0.00000114,0.,-0.00000822,0.000002
 43,0.,-0.00049736,0.00020151,0.00000003,-0.00017142,0.00006227,-0.0000
 0027,0.00160256,0.00023017,-0.00000038,-0.10143199,-0.29609846,-0.0000
 2117,0.00014323,0.00177170,-0.00000021,-0.01364135,-0.01742132,-0.0000
 0187,0.10877909,0.31334089,-0.00000005,0.,-0.00000500,0.00000012,-0.00
 000005,-0.00043039,0.00000007,0.,0.00008248,-0.00000003,0.,0.00007590,
 0.,-0.00000002,-0.00002555,0.00000001,0.00000003,0.00002263,0.,0.,-0.0
 0001014,0.,0.,-0.00001086,0.,0.,-0.00000606,0.,0.,0.00001576,-0.000000
 07,-0.00000005,0.00009377,0.00000014,-0.00000034,0.00068262,0.00000025
 ,0.00000093,0.00312426,-0.00000732,-0.00002094,-0.03731696,0.00000045,
 -0.00000067,0.00562485,-0.00000150,-0.00000282,0.00470723,0.00000744,0
 .00002408,0.02510552,0.00014465,0.00029035,-0.00000006,0.00029355,-0.0
 0016781,-0.00000012,0.00070464,-0.00017631,0.00000027,-0.00029959,-0.0
 0019542,0.,0.00001649,-0.00023531,0.00000004,0.00023582,-0.00010722,0.
 00000006,-0.00002488,-0.00001450,0.,0.00010893,0.00000958,0.,0.0000379
 8,-0.00001498,0.,0.00003144,0.00000197,0.,0.00187503,0.00226675,0.0000
 0024,0.00051921,0.00008603,0.00000009,0.05749092,0.03175974,0.00000128
 ,-0.06063077,0.02920286,0.00000465,-0.17498518,0.06313569,0.00000983,-
 0.01149157,-0.08822849,-0.00000848,-0.00081623,0.00072003,-0.00000003,
 0.80818289,0.00027854,-0.00021278,0.00000012,-0.00081111,-0.00024045,-
 0.00000014,-0.00031604,0.00005130,-0.00000020,0.00033814,0.00008473,0.
 00000002,0.00007614,0.00040685,-0.00000004,-0.00039586,-0.00003453,-0.
 00000003,-0.00000122,0.00002129,0.,0.00000288,-0.00000974,0.,-0.000028
 83,0.00001331,0.,0.00000785,0.00000417,0.,-0.00101041,-0.00061609,0.00
 000028,0.00112233,-0.00013609,0.00000017,-0.00886894,-0.03687355,-0.00
 000441,0.02501539,-0.01544780,-0.00000189,0.13621686,-0.26756885,-0.00
 002468,-0.03789696,0.02415532,0.00000289,0.00040285,0.00050713,0.00000
 012,0.04331387,0.72182130,-0.00000006,0.00000002,-0.00025217,0.0000001
 4,-0.00000008,0.00000097,0.,0.,-0.00020697,-0.00000002,0.00000004,-0.0
 0000113,0.00000002,-0.00000005,0.00001341,0.00000005,0.00000005,0.0000
 1782,0.,0.,-0.00000930,0.00000001,0.,-0.00000732,0.,0.,-0.00000686,0.,
 0.,0.00003993,-0.00000044,-0.00000010,0.00043607,-0.00000011,-0.000000
 07,0.00003272,-0.00000248,-0.00000588,0.00669196,0.00000467,-0.0000021
 4,-0.00357324,0.00001845,-0.00002264,-0.07081127,-0.00000375,0.0000044
 8,0.00862216,0.00000002,0.00000011,-0.00110559,-0.00001155,0.00006480,
 0.12262197,0.00026928,-0.00052718,0.00000010,-0.00103898,0.00033270,-0
 .00000010,-0.00023452,-0.00016509,-0.00000036,0.00046665,0.00016426,0.
 00000003,0.00006033,0.00062698,-0.00000007,-0.00069245,0.00007447,-0.0
 0000009,0.00001671,0.00005820,0.,-0.00002139,-0.00003379,0.00000001,-0
 .00007534,0.00002756,0.,-0.00003590,0.00001830,0.,-0.00262085,-0.00073
 906,0.00000058,0.00080354,0.00014632,0.00000019,-0.04314810,-0.0243062
 8,-0.00000117,0.06661722,-0.01298423,-0.00000322,-0.05072782,0.0671592
 1,0.00000818,-0.15764118,-0.03373912,0.00000008,-0.00186176,0.00415918
 ,0.00000068,-0.41089734,-0.07185127,0.00000228,0.76286059,0.00008522,-
 0.00015003,0.00000002,-0.00014088,0.00026800,-0.00000005,0.00041700,-0
 .00080504,-0.00000012,-0.00014807,0.00013560,0.,0.00003892,0.00001857,
 0.,-0.00015702,0.00010025,-0.00000003,0.00000671,0.00001351,0.,-0.0000
 1479,-0.00000288,0.,-0.00002344,0.00000807,0.,-0.00000864,0.00000453,0
 .,-0.00325386,-0.00007021,0.00000020,0.00020160,0.00018104,0.00000006,
 -0.03856183,-0.02216568,-0.00000049,0.04467426,-0.05957016,-0.00000815
 ,0.01010661,0.05939336,0.00000637,-0.10759455,-0.30459801,-0.00002073,
 0.00342436,-0.00244686,-0.00000105,0.00012019,-0.13777510,-0.00000959,
 -0.03601831,0.71392034,0.00000001,0.,0.00002005,0.,0.00000003,-0.00001
 583,0.00000004,-0.00000008,0.00017388,-0.00000002,0.,0.00000982,0.,0.,
 -0.00001407,0.,0.,0.00000290,0.,0.,-0.00000058,0.,0.,0.00000554,0.,0.,
 -0.00000097,0.,0.,-0.00000673,-0.00000019,0.00000004,-0.00009150,0.,0.
 ,0.00001395,-0.00000302,-0.00000150,-0.00361124,0.00000290,-0.00000630
 ,0.00670329,0.00000267,0.00000474,0.00075409,-0.00000760,-0.00002315,-
 0.06431702,0.00000069,-0.00000109,0.00754229,0.00001089,-0.00000701,-0
 .05785246,-0.00002375,0.00006123,0.14070632,0.00001683,-0.00006347,0.,
 -0.00007003,0.00011335,0.,-0.00002483,-0.00004638,0.,0.00003641,0.0000
 3567,0.,-0.00000708,0.00005571,0.,-0.00007019,0.00001465,-0.00000001,0
 .00000131,0.00001122,0.,0.00000504,-0.00000648,0.,-0.00001167,0.000005
 14,0.,-0.00000887,0.00000521,0.,-0.00041352,0.00034108,0.00000006,0.00
 002067,0.00006156,0.00000002,0.00033691,0.00341657,0.00000054,-0.01377
 381,-0.00636095,-0.00000005,0.00059496,0.00019471,-0.00000002,-0.34160
 264,-0.04092193,0.00000590,0.00079080,0.00010175,-0.00000017,0.0012222
 5,-0.00236248,-0.00000007,-0.00696810,0.00255631,0.00000055,0.36003709
 ,-0.00000292,0.00002176,0.,0.00003051,-0.00006149,0.,0.00006647,0.0000
 4380,0.00000001,-0.00000335,-0.00004107,0.,0.00001090,-0.00001010,0.,0
 .00002089,-0.00000815,0.,0.00000070,-0.00000491,0.,-0.00000021,0.00000
 263,0.,0.00000519,-0.00000398,0.,0.00000340,-0.00000155,0.,0.00044383,
 -0.00031903,0.,0.00001185,0.00001259,0.,0.00226598,-0.00358423,-0.0000
 0114,0.02604719,0.00649227,-0.00000048,0.00040245,-0.00160214,-0.00000
 011,-0.04166926,-0.06366640,-0.00000141,-0.00009360,0.00093256,0.00000
 056,-0.00131405,-0.00528363,-0.00000112,-0.02974008,0.00101374,0.00000
 093,0.04388865,0.06397408,0.,0.,-0.00000176,0.,-0.00000001,-0.00000482
 ,0.,0.00000001,-0.00017965,0.,0.,-0.00000450,0.,0.,0.00001312,0.,0.,-0
 .00000521,0.,0.,0.00000107,0.,0.,-0.00000306,0.,0.,0.00000173,0.,0.,0.
 00000432,0.00000003,-0.00000004,-0.00012606,0.,0.,0.00000671,0.0000003
 9,-0.00000122,0.00728392,0.00000322,0.00000046,0.00187192,-0.00000004,
 -0.00000006,-0.00067791,0.00000591,-0.00000137,-0.03391185,-0.00000022
 ,0.00000055,-0.00474110,-0.00000013,-0.00000110,0.00636074,-0.00000256
 ,-0.00000011,0.00199024,-0.00000654,0.00000232,0.02515219,-0.00002501,
 -0.00000408,0.,-0.00000822,0.00008987,0.,0.00001678,0.00003399,0.,-0.0
 0000042,0.00000662,0.,-0.00000988,-0.00001548,0.,0.00001162,0.00000850
 ,0.,0.00000070,0.00000041,0.,-0.00000889,0.00000086,0.,-0.00000023,0.0
 0000107,0.,-0.00000307,-0.00000141,0.,0.00005478,-0.00001581,-0.000000
 05,-0.00019629,0.00000289,0.,-0.00186418,0.00199070,0.00000039,-0.0010
 4060,0.00064609,0.00000006,0.00847930,0.01836331,0.00000193,-0.0052983
 1,0.00045684,0.00000039,0.00008011,-0.00010258,-0.00000003,-0.10586088
 ,-0.11215643,-0.00001073,-0.00567917,-0.02851957,-0.00000300,-0.000441
 77,-0.00138430,-0.00000008,0.11028834,0.00002043,0.00007386,0.,0.00000
 712,-0.00012881,-0.00000001,0.00006541,0.00001999,0.00000003,-0.000035
 10,-0.00002356,0.,0.00001112,-0.00003698,0.,0.00004845,-0.00002414,0.0
 0000001,-0.00000476,-0.00000495,0.,0.00000873,0.00000507,0.,0.00000916
 ,-0.00000329,0.,0.00001053,-0.00000191,0.,0.00015390,0.00027961,0.0000
 0002,0.00020349,-0.00013289,0.,0.00369188,-0.00203127,-0.00000088,0.00
 101555,0.00034970,0.00000011,-0.01417898,-0.01867935,-0.00000221,-0.00
 012685,0.00198334,-0.00000068,-0.00005423,-0.00005313,0.00000007,-0.10
 770031,-0.29898034,-0.00002680,0.00210525,0.00172901,-0.00000012,0.000
 11091,-0.00001639,-0.00000006,0.11770207,0.31360005,0.,0.,0.00000968,-
 0.00000001,0.,-0.00002141,0.00000002,0.,-0.00002702,0.,0.,-0.00000122,
 0.,0.,-0.00000447,0.,0.,0.00000151,0.,0.,0.00000185,0.,0.,0.00000466,0
 .,0.,0.00000256,0.,0.,-0.00000067,0.00000003,0.00000002,-0.00001769,0.
 00000003,-0.00000003,-0.00005149,0.00000078,-0.00000057,0.00479892,-0.
 00000018,0.00000025,-0.00093871,-0.00000143,-0.00000393,0.00495092,0.0
 0000038,-0.00000086,0.00757164,-0.00000003,0.00000005,-0.00057883,-0.0
 0001099,-0.00002618,-0.03571419,0.00000085,0.00000073,0.00297177,0.000
 00004,-0.00000002,0.00039098,0.00001108,0.00002948,0.02512082,0.000011
 09,-0.00002690,0.,-0.00002921,0.00007085,-0.00000001,0.00006199,-0.000
 04919,0.,0.00000665,0.00000761,0.,0.00000213,0.00002565,0.,-0.00003337
 ,0.00000919,0.,0.00000050,0.00000494,0.,0.00000694,-0.00000341,0.,-0.0
 0000605,0.00000194,0.,-0.00000379,0.00000303,0.,-0.00007875,0.00010323
 ,0.00000005,-0.00001147,0.00012362,0.00000002,-0.00091418,-0.00057179,
 -0.00000007,0.00038616,-0.00294417,-0.00000004,-0.00398396,-0.00238777
 ,0.00000005,0.01049449,-0.01061033,-0.00000133,0.00037878,-0.00057032,
 -0.00000006,-0.01197693,0.02719185,0.00000366,-0.16547290,0.13712480,0
 .00001891,0.00065515,0.00048239,-0.00000013,0.00106326,-0.00025454,-0.
 00000017,0.17104646,0.00001306,0.00002236,0.,-0.00003988,-0.00001384,-
 0.00000002,0.00000274,0.00002441,0.,-0.00000384,-0.00000643,0.,0.00000
 642,-0.00000867,0.,0.00001331,-0.00001159,0.,-0.00000204,-0.00000432,0
 .,-0.00000088,0.00000360,0.,0.00000524,-0.00000126,0.,0.00000565,-0.00
 000277,0.,0.00011791,-0.00008209,-0.00000002,-0.00002844,0.00001026,0.
 ,-0.00080288,0.00016105,0.00000014,-0.00341587,-0.00408622,-0.00000103
 ,-0.00201524,0.00121821,-0.00000081,0.02032067,-0.01463259,-0.00000269
 ,0.00092549,-0.00103742,-0.00000010,-0.00522309,0.00636635,0.00000036,
 0.13849031,-0.23993296,-0.00002615,-0.00012942,0.00101422,0.00000049,0
 .00019944,0.00064078,0.00000057,-0.14862792,0.24993616,0.,0.,0.0000045
 8,-0.00000001,-0.00000001,-0.00003191,0.00000002,0.,0.00004999,0.,0.,0
 .00000843,0.,0.,-0.00000703,0.,0.,-0.00000179,0.,0.,0.00000121,0.,0.,0
 .00000076,0.,0.,-0.00000008,0.,0.,0.00000305,0.00000002,0.,-0.00002951
 ,0.00000005,0.,0.00008163,-0.00000025,0.00000015,-0.00091471,0.0000000
 4,-0.00000111,0.00665820,0.,-0.00000063,0.00896019,0.00000198,-0.00000
 115,0.00401708,0.00000008,-0.00000005,-0.00011217,-0.00000009,-0.00000
 084,0.00490624,0.00001906,-0.00002648,-0.04071666,-0.00000015,0.000000
 45,-0.00360722,-0.00000012,0.00000061,-0.00461508,-0.00002087,0.000029
 04,0.02681845,-0.00145133,-0.00800123,-0.00000016,-0.00347176,0.014387
 03,0.00000037,-0.09878844,0.04320642,-0.00000016,0.01779568,-0.0018118
 3,0.00000018,-0.00426195,0.01156527,-0.00000169,-0.00614630,-0.0062508
 1,0.00000026,0.00065695,-0.00091505,0.00000044,-0.00058172,-0.00007464
 ,-0.00000021,0.00012823,0.00016766,0.00000004,-0.00075538,-0.00016612,
 0.00000021,-0.48681048,-0.06906935,0.00001164,-0.04508649,-0.00622756,
 -0.00000231,-0.13064931,0.05809214,0.00000696,-0.03138940,0.02885315,0
 .00000374,0.02539747,0.01066573,0.00000048,-0.00175552,-0.01044303,-0.
 00000079,0.00059138,0.00094872,0.00000007,-0.00160189,-0.00202869,0.,0
 .00226106,0.00273888,0.00000013,-0.00027253,0.00080614,0.00000015,0.00
 022674,-0.00105530,-0.00000011,0.00020538,-0.00001043,-0.00000001,0.78
 042285,0.00139240,-0.00324164,-0.00000182,0.02957672,-0.02156287,0.000
 00073,0.01717260,0.00036860,-0.00000026,0.00845801,-0.00760799,0.00000
 045,-0.00193386,0.00600692,-0.00000079,-0.00351332,-0.00449736,0.00000
 074,0.00050724,-0.00084782,0.00000028,-0.00046226,0.00030184,-0.000000
 06,0.00025981,-0.00029845,0.00000010,-0.00045216,0.00000400,0.00000031
 ,-0.08216995,-0.11462026,0.00000402,0.01430014,-0.06105704,0.00000149,
 0.05170000,-0.17510864,-0.00001256,0.01373136,0.00709744,0.00000009,0.
 01297383,-0.03424325,-0.00000392,-0.00565334,0.00956148,0.00000094,-0.
 00173346,-0.00004886,0.00000018,-0.00129772,-0.00557643,-0.00000104,-0
 .00560888,-0.00379505,-0.00000013,-0.00105013,0.00079380,0.00000004,0.
 00101839,-0.00047144,-0.00000006,-0.00022278,0.00016119,0.00000003,-0.
 05282965,0.40155254,0.00000171,-0.00000191,-0.00058409,-0.00000333,0.0
 0000655,0.00411609,-0.00000377,0.00000271,0.00646046,0.00000211,-0.000
 00079,0.00331581,0.00000001,0.00000219,0.00016491,-0.00000218,-0.00000
 047,0.00066624,0.00000016,-0.00000004,-0.00019991,0.,-0.00000007,-0.00
 008834,-0.00000003,-0.00000005,-0.00048819,-0.00000012,-0.00000001,0.0
 0011284,0.00001525,-0.00000122,-0.06138740,-0.00000080,-0.00000367,-0.
 03852765,0.00000512,-0.00000992,-0.05221636,0.00000265,-0.00000066,-0.
 00274760,0.00000009,-0.00000371,0.00185830,-0.00000003,0.00000121,0.00
 659805,-0.00000013,0.00000035,-0.00316471,0.00000018,-0.00000140,0.005
 00691,-0.00000104,-0.00000048,-0.00093283,-0.00000005,-0.00000008,0.00
 085426,0.00000014,-0.00000004,0.00008920,-0.00000006,0.00000012,-0.000
 92685,-0.00001730,0.00001012,0.13398086,-0.00030508,0.00147328,-0.0000
 0026,0.00144264,0.00018818,0.00000018,0.00478889,-0.00061082,0.0000010
 8,-0.00143309,-0.00047827,0.00000004,0.00007812,-0.00130206,0.00000018
 ,0.00141094,0.00003054,0.00000015,-0.00010645,0.00002948,-0.00000003,0
 .00034746,0.00000894,0.00000007,0.00007899,-0.00004286,-0.00000002,0.0
 0006718,0.00004121,-0.00000003,0.00903176,0.01172878,0.00000067,-0.000
 15826,-0.00015847,-0.00000080,-0.00729763,-0.02322488,-0.00000334,-0.0
 0868099,0.00568233,0.00000077,-0.29715629,-0.08405677,-0.00000859,-0.0
 0510199,-0.01508354,-0.00000143,-0.00069584,-0.00022646,0.,-0.08884470
 ,0.00832883,0.00000061,0.01518264,0.01176406,0.00000062,-0.00010908,-0
 .00026136,0.00000002,0.00041741,-0.00190636,-0.00000028,-0.00151217,0.
 00035234,0.00000022,-0.01635597,0.01175410,0.00000236,0.62650782,-0.00
 033567,-0.00003241,0.00000012,0.00013565,-0.00139373,0.00000008,-0.004
 29470,-0.00056321,-0.00000082,-0.00026249,-0.00034631,-0.00000003,0.00
 028266,-0.00012797,0.00000005,0.00022868,-0.00001673,0.,0.00007590,-0.
 00013099,0.00000003,0.00003460,0.00002680,-0.00000004,0.00010425,-0.00
 006659,0.00000002,0.00006692,-0.00003586,0.,0.00512488,-0.01702449,-0.
 00000296,-0.00081385,-0.00277146,0.00000004,-0.03707317,-0.00675018,-0
 .00000159,0.00588452,-0.00713258,-0.00000165,-0.04654686,-0.13432829,-
 0.00000550,-0.00204738,0.00473396,0.00000063,-0.00163280,-0.00009533,0
 .00000005,0.04295559,0.01357253,-0.00000079,-0.00085917,-0.00826274,-0
 .00000152,-0.00000679,0.00041854,0.00000010,0.00143719,0.00181155,0.00
 000049,0.00143141,0.00017857,-0.00000004,0.00158654,0.00561093,0.00000
 091,-0.17845157,0.49283498,-0.00000004,-0.00000005,-0.00005470,0.00000
 006,-0.00000016,-0.00006620,-0.00000052,-0.00000040,0.00028611,-0.0000
 0007,-0.00000001,0.00014755,0.00000005,-0.00000004,-0.00003581,0.00000
 002,0.00000001,0.00002871,0.00000001,-0.00000002,-0.00001358,-0.000000
 02,0.00000002,-0.00005721,0.00000001,-0.00000001,-0.00001795,0.,0.,0.0
 0000006,0.00000097,-0.00000256,0.00356529,-0.00000016,-0.00000051,-0.0
 0052636,-0.00000352,-0.00000084,0.00821034,0.00000086,-0.00000144,0.00
 617854,-0.00001004,-0.00000779,-0.05071687,-0.00000011,0.00000076,-0.0
 0111200,-0.00000017,-0.00000011,0.00049100,0.00000475,-0.00000051,0.01
 182736,-0.00000047,-0.00000138,0.00450961,-0.00000003,0.00000009,-0.00
 055491,0.,0.00000036,-0.00313249,0.00000008,0.00000003,-0.00019616,0.0
 0000018,0.00000103,-0.00252672,0.00000642,0.00002121,0.02670194,0.0000
 9662,-0.00025359,0.00000004,-0.00039261,0.00054135,-0.00000013,0.00060
 893,0.00128120,0.00000008,0.00060035,0.00056994,-0.00000010,-0.0002330
 5,0.00006337,-0.00000004,-0.00021636,0.00000136,-0.00000002,-0.0000109
 0,0.00002483,-0.00000001,-0.00040671,0.00001732,-0.00000021,-0.0000150
 5,0.00002067,0.,-0.00002998,-0.00004251,0.00000001,-0.00832737,0.00233
 134,0.00000057,-0.00041225,0.00001893,0.00000010,0.00248239,0.00183461
 ,0.00000050,0.00023426,0.00081028,0.00000013,-0.04041677,0.03418930,0.
 00000070,0.00073848,0.00098249,0.00000009,0.00041098,0.00013009,0.,-0.
 00343384,-0.00456730,-0.00000068,-0.00142224,0.00118204,0.00000018,0.0
 0005669,-0.00001741,-0.00000001,-0.00020211,0.00015242,0.,-0.00029620,
 -0.00015267,0.00000003,0.00169271,-0.00591709,-0.00000093,-0.23159629,
 0.21297566,0.00000173,0.28049033,0.00012415,0.00053445,-0.00000017,0.0
 0070317,0.00192509,0.00000003,0.00666630,-0.00237410,0.00000087,-0.000
 72773,0.00046290,0.00000010,-0.00025426,-0.00043232,0.00000005,0.00027
 626,0.00022573,0.,-0.00011745,0.00017529,-0.00000005,0.00043591,0.0000
 1832,0.00000022,-0.00012887,0.00008285,-0.00000003,-0.00005821,0.00007
 342,-0.00000002,0.00470936,0.00325892,0.00000287,0.00099623,0.00326514
 ,-0.00000065,0.00040795,-0.00460687,-0.00000041,-0.00266574,0.00053049
 ,0.00000022,0.00235388,0.01783870,0.00000088,-0.00053756,-0.00392276,-
 0.00000036,-0.00028195,-0.00008801,0.,-0.00918743,0.00175109,0.0000004
 4,0.00320971,0.00278870,0.00000007,0.00003556,-0.00011693,-0.00000001,
 0.00024143,0.00009548,0.00000004,-0.00031140,0.00008300,0.00000003,-0.
 01413401,0.00151837,0.00000036,0.25442134,-0.34010898,-0.00000766,-0.2
 4617664,0.31702200,0.00000005,0.00000014,0.00009795,-0.00000007,0.0000
 0049,0.00019626,0.00000123,0.00000036,0.00002672,-0.00000002,0.0000000
 5,-0.00026169,-0.00000010,-0.00000003,-0.00002030,0.00000003,0.,-0.000
 02071,-0.00000003,0.00000004,0.00001267,-0.00000010,0.00000022,0.00014
 608,-0.00000002,0.00000002,0.00001935,-0.00000001,0.,-0.00000059,0.000
 00029,0.00000139,-0.00638585,0.00000029,0.00000064,0.00066297,0.000000
 14,-0.00000069,-0.00149041,-0.00000036,0.00000028,-0.00004068,0.000001
 66,0.00000297,-0.00216728,-0.00000020,-0.00000058,-0.00014285,0.,0.,-0
 .00006094,-0.00000083,0.00000003,0.00296225,0.00000080,0.00000004,0.00
 215611,0.,0.,-0.00011316,0.00000001,0.00000011,-0.00081123,-0.00000001
 ,0.00000004,-0.00035063,-0.00000210,0.00000006,0.00056672,0.00000139,-
 0.00000880,-0.00293555,-0.00000204,0.00000321,0.00795478\\0.00286535,-
 0.00312646,0.00000677,-0.00381938,-0.00790179,0.00000972,-0.00941516,-
 0.00088297,-0.00000256,-0.00160934,0.00215034,-0.00000065,0.00127802,0
 .00734834,-0.00000154,0.00298894,0.00264487,0.00000069,0.00066720,-0.0
 0055060,-0.00000078,-0.00064735,0.00045609,-0.00000020,0.00010760,0.00
 065057,0.,0.00050465,0.00034438,-0.00000124,0.00566267,-0.00966497,-0.
 00000774,-0.00482892,-0.01851994,-0.00001749,0.00394774,-0.00488221,0.
 00000229,-0.00838504,0.00356007,0.00000236,-0.00945720,-0.00384701,-0.
 00000553,0.00228430,-0.00002018,-0.00000039,-0.00059983,0.00034059,-0.
 00000007,0.00617641,0.00031084,0.00000162,0.00701882,0.00510960,0.0000
 0048,0.00008921,0.00064291,-0.00000011,0.00076115,-0.00005234,-0.00000
 016,0.00080779,0.00061495,0.00000026,0.00273932,0.00075063,0.00000768,
 0.00693009,0.00464214,0.00000211,-0.00606704,0.01988215,0.00000449\\\@
 The archive entry for this job was punched.


 WHEN IT COMES TO CASH FLOW, IT SEEMS LIKE THE TIDE IS ALWAYS GOING OUT.
 Job cpu time:       0 days  0 hours 58 minutes 28.7 seconds.
 Elapsed time:       0 days  0 hours  5 minutes 52.9 seconds.
 File lengths (MBytes):  RWF=    544 Int=      0 D2E=      0 Chk=     36 Scr=      8
 Normal termination of Gaussian 16 at Tue Oct 27 20:57:47 2020.
