 Entering Gaussian System, Link 0=g16
 Initial command:
 /gpfs/loomis/apps/avx/software/Gaussian/16-C.01_AVX/g16/l1.exe "/home/fas/batista/pev4/scratch60/gauss-scratch/Gau-2711.inp" -scrdir="/home/fas/batista/pev4/scratch60/gauss-scratch/"
 Entering Link 1 = /gpfs/loomis/apps/avx/software/Gaussian/16-C.01_AVX/g16/l1.exe PID=      2712.
  
 Copyright (c) 1988-2019, Gaussian, Inc.  All Rights Reserved.
  
 This is part of the Gaussian(R) 16 program.  It is based on
 the Gaussian(R) 09 system (copyright 2009, Gaussian, Inc.),
 the Gaussian(R) 03 system (copyright 2003, Gaussian, Inc.),
 the Gaussian(R) 98 system (copyright 1998, Gaussian, Inc.),
 the Gaussian(R) 94 system (copyright 1995, Gaussian, Inc.),
 the Gaussian 92(TM) system (copyright 1992, Gaussian, Inc.),
 the Gaussian 90(TM) system (copyright 1990, Gaussian, Inc.),
 the Gaussian 88(TM) system (copyright 1988, Gaussian, Inc.),
 the Gaussian 86(TM) system (copyright 1986, Carnegie Mellon
 University), and the Gaussian 82(TM) system (copyright 1983,
 Carnegie Mellon University). Gaussian is a federally registered
 trademark of Gaussian, Inc.
  
 This software contains proprietary and confidential information,
 including trade secrets, belonging to Gaussian, Inc.
  
 This software is provided under written license and may be
 used, copied, transmitted, or stored only in accord with that
 written license.
  
 The following legend is applicable only to US Government
 contracts under FAR:
  
                    RESTRICTED RIGHTS LEGEND
  
 Use, reproduction and disclosure by the US Government is
 subject to restrictions as set forth in subparagraphs (a)
 and (c) of the Commercial Computer Software - Restricted
 Rights clause in FAR 52.227-19.
  
 Gaussian, Inc.
 340 Quinnipiac St., Bldg. 40, Wallingford CT 06492
  
  
 ---------------------------------------------------------------
 Warning -- This program may not be used in any manner that
 competes with the business of Gaussian, Inc. or will provide
 assistance to any competitor of Gaussian, Inc.  The licensee
 of this program is prohibited from giving any competitor of
 Gaussian, Inc. access to this program.  By using this program,
 the user acknowledges that Gaussian, Inc. is engaged in the
 business of creating and licensing software in the field of
 computational chemistry and represents and warrants to the
 licensee that it is not a competitor of Gaussian, Inc. and that
 it will not use this program in any manner prohibited above.
 ---------------------------------------------------------------
  

 Cite this work as:
 Gaussian 16, Revision C.01,
 M. J. Frisch, G. W. Trucks, H. B. Schlegel, G. E. Scuseria, 
 M. A. Robb, J. R. Cheeseman, G. Scalmani, V. Barone, 
 G. A. Petersson, H. Nakatsuji, X. Li, M. Caricato, A. V. Marenich, 
 J. Bloino, B. G. Janesko, R. Gomperts, B. Mennucci, H. P. Hratchian, 
 J. V. Ortiz, A. F. Izmaylov, J. L. Sonnenberg, D. Williams-Young, 
 F. Ding, F. Lipparini, F. Egidi, J. Goings, B. Peng, A. Petrone, 
 T. Henderson, D. Ranasinghe, V. G. Zakrzewski, J. Gao, N. Rega, 
 G. Zheng, W. Liang, M. Hada, M. Ehara, K. Toyota, R. Fukuda, 
 J. Hasegawa, M. Ishida, T. Nakajima, Y. Honda, O. Kitao, H. Nakai, 
 T. Vreven, K. Throssell, J. A. Montgomery, Jr., J. E. Peralta, 
 F. Ogliaro, M. J. Bearpark, J. J. Heyd, E. N. Brothers, K. N. Kudin, 
 V. N. Staroverov, T. A. Keith, R. Kobayashi, J. Normand, 
 K. Raghavachari, A. P. Rendell, J. C. Burant, S. S. Iyengar, 
 J. Tomasi, M. Cossi, J. M. Millam, M. Klene, C. Adamo, R. Cammi, 
 J. W. Ochterski, R. L. Martin, K. Morokuma, O. Farkas, 
 J. B. Foresman, and D. J. Fox, Gaussian, Inc., Wallingford CT, 2019.
 
 ******************************************
 Gaussian 16:  ES64L-G16RevC.01  3-Jul-2019
                28-Oct-2020 
 ******************************************
 %chk=config_3_19.chk
 %mem=58GB
 %nprocshared=10
 Will use up to   10 processors via shared memory.
 ----------------------------------------------------------------------
 #p opt=addgic freq wb97xd/cc-pvdz nosymm int=ultrafine scrf=(solvent=C
 arbonTetraChloride)
 ----------------------------------------------------------------------
 1/18=20,19=15,26=6,38=1,145=903/1,3;
 2/9=110,12=2,15=1,17=6,18=5,40=1/2;
 3/5=16,11=2,25=1,30=1,70=2201,71=1,72=11,74=-58,75=-5/1,2,3;
 4//1;
 5/5=2,38=5,53=11/2;
 6/7=2,8=2,9=2,10=2,28=1/1;
 7/30=1/1,2,3,16;
 1/18=20,19=15,26=6,145=903/3(2);
 2/9=110,15=1/2;
 99//99;
 2/9=110,15=1/2;
 3/5=16,11=2,25=1,30=1,70=2205,71=1,72=11,74=-58,75=-5/1,2,3;
 4/5=5,16=3,69=1/1;
 5/5=2,38=5,53=11/2;
 7/30=1/1,2,3,16;
 1/18=20,19=15,26=6,145=903/3(-5);
 2/9=110,15=1/2;
 6/7=2,8=2,9=2,10=2,19=2,28=1/1;
 99/9=1/99;
 Leave Link    1 at Wed Oct 28 01:46:51 2020, MaxMem=  7784628224 cpu:               3.4 elap:               0.4
 (Enter /gpfs/loomis/apps/avx/software/Gaussian/16-C.01_AVX/g16/l101.exe)
 ------------------------------------------------
 NM 2D-scan of HBT TD-WB97XD pVDZ in CTC Relaxed.
 ------------------------------------------------
 Symbolic Z-matrix:
 Charge =  0 Multiplicity = 1
 C                     1.50328  -3.25246  -0.00002 
 C                     0.99373  -1.95176  -0.00002 
 C                     1.80414  -0.76599  -0.00003 
 C                     3.22371  -0.97143  -0.00003 
 C                     3.72732  -2.27712  -0.00002 
 C                     2.89019  -3.41872  -0.00001 
 H                     0.8204   -4.11482  -0.00001 
 H                     3.90449  -0.10684  -0.00004 
 H                     4.81603  -2.42193  -0.00003 
 H                     3.32696  -4.42478  -0.00001 
 N                     1.0873    0.39093  -0.00003 
 S                    -0.69275  -1.55384  -0.00003 
 C                    -1.28892   1.07599   0.00001 
 C                    -2.6635    0.70079   0.00003 
 C                    -0.93291   2.49344   0.00004 
 C                    -3.65289   1.67994   0.00003 
 H                    -2.93559  -0.36364   0.00003 
 C                    -1.95962   3.4664    0.00004 
 C                    -3.30744   3.05924   0.00003 
 H                    -4.70909   1.38679   0.00004 
 H                    -1.68533   4.53087   0.00005 
 H                    -4.1027    3.8138    0.00003 
 C                    -0.25363   0.13316  -0.00002 
 O                     0.34989   2.76743   0.00006 
 H                     0.88744   1.98141   0.00003 
 
 Initializing the GIC definitions file.
 Number of initial coordinates =   131
 Number of input entries/lines =    52
 Number of additional coordinates =     2
 Number of removed coordinates =     0
 Number of frozen coordinates =     2
 Number of final active and frozen coordinates =   133
 ITRead=  0  0  0  0  0  0  0  0  0  0  0  0  0  0  0  0  0  0  0  0
 ITRead=  0  0  0  0  0
 MicOpt= -1 -1 -1 -1 -1 -1 -1 -1 -1 -1 -1 -1 -1 -1 -1 -1 -1 -1 -1 -1
 MicOpt= -1 -1 -1 -1 -1
 NAtoms=     25 NQM=       25 NQMF=       0 NMMI=      0 NMMIF=      0
                NMic=       0 NMicF=      0.
                    Isotopes and Nuclear Properties:
 (Nuclear quadrupole moments (NQMom) in fm**2, nuclear magnetic moments (NMagM)
  in nuclear magnetons)

  Atom         1           2           3           4           5           6           7           8           9          10
 IAtWgt=          12          12          12          12          12          12           1           1           1           1
 AtmWgt=  12.0000000  12.0000000  12.0000000  12.0000000  12.0000000  12.0000000   1.0078250   1.0078250   1.0078250   1.0078250
 NucSpn=           0           0           0           0           0           0           1           1           1           1
 AtZEff=  -0.0000000  -0.0000000  -0.0000000  -0.0000000  -0.0000000  -0.0000000  -0.0000000  -0.0000000  -0.0000000  -0.0000000
 NQMom=    0.0000000   0.0000000   0.0000000   0.0000000   0.0000000   0.0000000   0.0000000   0.0000000   0.0000000   0.0000000
 NMagM=    0.0000000   0.0000000   0.0000000   0.0000000   0.0000000   0.0000000   2.7928460   2.7928460   2.7928460   2.7928460
 AtZNuc=   6.0000000   6.0000000   6.0000000   6.0000000   6.0000000   6.0000000   1.0000000   1.0000000   1.0000000   1.0000000

  Atom        11          12          13          14          15          16          17          18          19          20
 IAtWgt=          14          32          12          12          12          12           1          12          12           1
 AtmWgt=  14.0030740  31.9720718  12.0000000  12.0000000  12.0000000  12.0000000   1.0078250  12.0000000  12.0000000   1.0078250
 NucSpn=           2           0           0           0           0           0           1           0           0           1
 AtZEff=  -0.0000000  -0.0000000  -0.0000000  -0.0000000  -0.0000000  -0.0000000  -0.0000000  -0.0000000  -0.0000000  -0.0000000
 NQMom=    2.0440000   0.0000000   0.0000000   0.0000000   0.0000000   0.0000000   0.0000000   0.0000000   0.0000000   0.0000000
 NMagM=    0.4037610   0.0000000   0.0000000   0.0000000   0.0000000   0.0000000   2.7928460   0.0000000   0.0000000   2.7928460
 AtZNuc=   7.0000000  16.0000000   6.0000000   6.0000000   6.0000000   6.0000000   1.0000000   6.0000000   6.0000000   1.0000000

  Atom        21          22          23          24          25
 IAtWgt=           1           1          12          16           1
 AtmWgt=   1.0078250   1.0078250  12.0000000  15.9949146   1.0078250
 NucSpn=           1           1           0           0           1
 AtZEff=  -0.0000000  -0.0000000  -0.0000000  -0.0000000  -0.0000000
 NQMom=    0.0000000   0.0000000   0.0000000   0.0000000   0.0000000
 NMagM=    2.7928460   2.7928460   0.0000000   0.0000000   2.7928460
 AtZNuc=   1.0000000   1.0000000   6.0000000   8.0000000   1.0000000
 Leave Link  101 at Wed Oct 28 01:46:55 2020, MaxMem=  7784628224 cpu:              25.3 elap:               3.2
 (Enter /gpfs/loomis/apps/avx/software/Gaussian/16-C.01_AVX/g16/l103.exe)

 GradGradGradGradGradGradGradGradGradGradGradGradGradGradGradGradGradGrad
 Berny optimization.
 Initialization pass.
                           ----------------------------
                           !    Initial Parameters    !
                           ! (Angstroms and Degrees)  !
 --------------------------                            --------------------------
 ! Name  Definition              Value          Derivative Info.                !
 --------------------------------------------------------------------------------
 ! R1    R(1,2)                  1.397          estimate D2E/DX2                !
 ! R2    R(1,6)                  1.3968         estimate D2E/DX2                !
 ! R3    R(1,7)                  1.1            estimate D2E/DX2                !
 ! R4    R(2,3)                  1.4362         estimate D2E/DX2                !
 ! R5    R(2,12)                 1.7328         estimate D2E/DX2                !
 ! R6    R(3,4)                  1.4344         estimate D2E/DX2                !
 ! R7    R(3,11)                 1.361          estimate D2E/DX2                !
 ! R8    R(4,5)                  1.3995         estimate D2E/DX2                !
 ! R9    R(4,8)                  1.1004         estimate D2E/DX2                !
 ! R10   R(5,6)                  1.4156         estimate D2E/DX2                !
 ! R11   R(5,9)                  1.0983         estimate D2E/DX2                !
 ! R12   R(6,10)                 1.0968         estimate D2E/DX2                !
 ! R13   R(11,23)                1.3655         estimate D2E/DX2                !
 ! R14   R(12,23)                1.7432         estimate D2E/DX2                !
 ! R15   R(13,14)                1.4249         estimate D2E/DX2                !
 ! R16   R(13,15)                1.4615         estimate D2E/DX2                !
 ! R17   R(13,23)                1.4003         estimate D2E/DX2                !
 ! R18   R(14,16)                1.392          estimate D2E/DX2                !
 ! R19   R(14,17)                1.0987         estimate D2E/DX2                !
 ! R20   R(15,18)                1.4145         estimate D2E/DX2                !
 ! R21   R(15,24)                1.3117         estimate D2E/DX2                !
 ! R22   R(16,19)                1.4219         estimate D2E/DX2                !
 ! R23   R(16,20)                1.0961         estimate D2E/DX2                !
 ! R24   R(18,19)                1.408          estimate D2E/DX2                !
 ! R25   R(18,21)                1.0992         estimate D2E/DX2                !
 ! R26   R(19,22)                1.0963         estimate D2E/DX2                !
 ! R27   R(24,25)                0.9523         estimate D2E/DX2                !
 ! A1    A(2,1,6)              118.228          estimate D2E/DX2                !
 ! A2    A(2,1,7)              120.2327         estimate D2E/DX2                !
 ! A3    A(6,1,7)              121.5392         estimate D2E/DX2                !
 ! A4    A(1,2,3)              124.257          estimate D2E/DX2                !
 ! A5    A(1,2,12)             124.6683         estimate D2E/DX2                !
 ! A6    A(3,2,12)             111.0748         estimate D2E/DX2                !
 ! A7    A(2,3,4)              116.1158         estimate D2E/DX2                !
 ! A8    A(2,3,11)             113.8666         estimate D2E/DX2                !
 ! A9    A(4,3,11)             130.0175         estimate D2E/DX2                !
 ! A10   A(3,4,5)              119.3267         estimate D2E/DX2                !
 ! A11   A(3,4,8)              119.9825         estimate D2E/DX2                !
 ! A12   A(5,4,8)              120.6908         estimate D2E/DX2                !
 ! A13   A(4,5,6)              122.6552         estimate D2E/DX2                !
 ! A14   A(4,5,9)              118.6682         estimate D2E/DX2                !
 ! A15   A(6,5,9)              118.6766         estimate D2E/DX2                !
 ! A16   A(1,6,5)              119.4173         estimate D2E/DX2                !
 ! A17   A(1,6,10)             120.3032         estimate D2E/DX2                !
 ! A18   A(5,6,10)             120.2796         estimate D2E/DX2                !
 ! A19   A(3,11,23)            110.9015         estimate D2E/DX2                !
 ! A20   A(2,12,23)             88.6858         estimate D2E/DX2                !
 ! A21   A(14,13,15)           119.3664         estimate D2E/DX2                !
 ! A22   A(14,13,23)           122.4088         estimate D2E/DX2                !
 ! A23   A(15,13,23)           118.2248         estimate D2E/DX2                !
 ! A24   A(13,14,16)           120.0309         estimate D2E/DX2                !
 ! A25   A(13,14,17)           119.6063         estimate D2E/DX2                !
 ! A26   A(16,14,17)           120.3629         estimate D2E/DX2                !
 ! A27   A(13,15,18)           119.3615         estimate D2E/DX2                !
 ! A28   A(13,15,24)           116.1555         estimate D2E/DX2                !
 ! A29   A(18,15,24)           124.4831         estimate D2E/DX2                !
 ! A30   A(14,16,19)           120.6409         estimate D2E/DX2                !
 ! A31   A(14,16,20)           119.7862         estimate D2E/DX2                !
 ! A32   A(19,16,20)           119.5729         estimate D2E/DX2                !
 ! A33   A(15,18,19)           119.7309         estimate D2E/DX2                !
 ! A34   A(15,18,21)           119.0114         estimate D2E/DX2                !
 ! A35   A(19,18,21)           121.2578         estimate D2E/DX2                !
 ! A36   A(16,19,18)           120.8695         estimate D2E/DX2                !
 ! A37   A(16,19,22)           119.4346         estimate D2E/DX2                !
 ! A38   A(18,19,22)           119.6959         estimate D2E/DX2                !
 ! A39   A(11,23,12)           115.4713         estimate D2E/DX2                !
 ! A40   A(11,23,13)           126.7948         estimate D2E/DX2                !
 ! A41   A(12,23,13)           117.7339         estimate D2E/DX2                !
 ! A42   A(15,24,25)           112.3114         estimate D2E/DX2                !
 ! D1    D(6,1,2,3)              0.0            estimate D2E/DX2                !
 ! D2    D(6,1,2,12)           179.9999         estimate D2E/DX2                !
 ! D3    D(7,1,2,3)            179.9999         estimate D2E/DX2                !
 ! D4    D(7,1,2,12)            -0.0001         estimate D2E/DX2                !
 ! D5    D(2,1,6,5)             -0.0002         estimate D2E/DX2                !
 ! D6    D(2,1,6,10)           179.9999         estimate D2E/DX2                !
 ! D7    D(7,1,6,5)            179.9999         estimate D2E/DX2                !
 ! D8    D(7,1,6,10)             0.0            estimate D2E/DX2                !
 ! D9    D(1,2,3,4)              0.0002         estimate D2E/DX2                !
 ! D10   D(1,2,3,11)          -179.9999         estimate D2E/DX2                !
 ! D11   D(12,2,3,4)          -179.9997         estimate D2E/DX2                !
 ! D12   D(12,2,3,11)            0.0001         estimate D2E/DX2                !
 ! D13   D(1,2,12,23)          179.9996         estimate D2E/DX2                !
 ! D14   D(3,2,12,23)           -0.0004         estimate D2E/DX2                !
 ! D15   D(2,3,4,5)             -0.0002         estimate D2E/DX2                !
 ! D16   D(2,3,4,8)            179.9998         estimate D2E/DX2                !
 ! D17   D(11,3,4,5)           180.0            estimate D2E/DX2                !
 ! D18   D(11,3,4,8)             0.0            estimate D2E/DX2                !
 ! D19   D(2,3,11,23)            0.0004         estimate D2E/DX2                !
 ! D20   D(4,3,11,23)         -179.9998         estimate D2E/DX2                !
 ! D21   D(3,4,5,6)              0.0001         estimate D2E/DX2                !
 ! D22   D(3,4,5,9)           -179.9999         estimate D2E/DX2                !
 ! D23   D(8,4,5,6)            180.0            estimate D2E/DX2                !
 ! D24   D(8,4,5,9)              0.0            estimate D2E/DX2                !
 ! D25   D(4,5,6,1)              0.0002         estimate D2E/DX2                !
 ! D26   D(4,5,6,10)          -179.9999         estimate D2E/DX2                !
 ! D27   D(9,5,6,1)           -179.9999         estimate D2E/DX2                !
 ! D28   D(9,5,6,10)             0.0            estimate D2E/DX2                !
 ! D29   D(3,11,23,12)          -0.0008         estimate D2E/DX2                !
 ! D30   D(3,11,23,13)         179.998          estimate D2E/DX2                !
 ! D31   D(2,12,23,11)           0.0007         estimate D2E/DX2                !
 ! D32   D(2,12,23,13)        -179.9982         estimate D2E/DX2                !
 ! D33   D(15,13,14,16)          0.0016         estimate D2E/DX2                !
 ! D34   D(15,13,14,17)       -179.999          estimate D2E/DX2                !
 ! D35   D(23,13,14,16)       -179.9985         estimate D2E/DX2                !
 ! D36   D(23,13,14,17)          0.0009         estimate D2E/DX2                !
 ! D37   D(14,13,15,18)         -0.0019         estimate D2E/DX2                !
 ! D38   D(14,13,15,24)        179.9979         estimate D2E/DX2                !
 ! D39   D(23,13,15,18)        179.9982         estimate D2E/DX2                !
 ! D40   D(23,13,15,24)         -0.0021         estimate D2E/DX2                !
 ! D41   D(14,13,23,11)       -179.9996         estimate D2E/DX2                !
 ! D42   D(14,13,23,12)         -0.0008         estimate D2E/DX2                !
 ! D43   D(15,13,23,11)          0.0003         estimate D2E/DX2                !
 ! D44   D(15,13,23,12)        179.9991         estimate D2E/DX2                !
 ! D45   D(13,14,16,19)         -0.0004         estimate D2E/DX2                !
 ! D46   D(13,14,16,20)        179.9996         estimate D2E/DX2                !
 ! D47   D(17,14,16,19)       -179.9998         estimate D2E/DX2                !
 ! D48   D(17,14,16,20)          0.0002         estimate D2E/DX2                !
 ! D49   D(13,15,18,19)          0.0009         estimate D2E/DX2                !
 ! D50   D(13,15,18,21)       -179.9999         estimate D2E/DX2                !
 ! D51   D(24,15,18,19)       -179.9988         estimate D2E/DX2                !
 ! D52   D(24,15,18,21)          0.0005         estimate D2E/DX2                !
 ! D53   D(13,15,24,25)          0.0021         estimate D2E/DX2                !
 ! D54   D(18,15,24,25)       -179.9982         estimate D2E/DX2                !
 ! D55   D(14,16,19,18)         -0.0006         estimate D2E/DX2                !
 ! D56   D(14,16,19,22)        179.9998         estimate D2E/DX2                !
 ! D57   D(20,16,19,18)        179.9995         estimate D2E/DX2                !
 ! D58   D(20,16,19,22)         -0.0002         estimate D2E/DX2                !
 ! D59   D(15,18,19,16)          0.0003         estimate D2E/DX2                !
 ! D60   D(15,18,19,22)        180.0            estimate D2E/DX2                !
 ! D61   D(21,18,19,16)       -179.9989         estimate D2E/DX2                !
 ! D62   D(21,18,19,22)          0.0007         estimate D2E/DX2                !
 ! Qtot  GIC-1                 -30.0            Frozen                          !
 ! Ptot  GIC-2                 220.0            Frozen                          !
 --------------------------------------------------------------------------------
 NOTE: GIC-type coordinates are in arbitrary units.
 Trust Radius=3.00D-01 FncErr=5.00D-06 GrdErr=5.00D-06 EigMax=2.50D+02 EigMin=1.00D-04
 Number of steps in this run=    143 maximum allowed number of steps=    150.
 GradGradGradGradGradGradGradGradGradGradGradGradGradGradGradGradGradGrad

 Leave Link  103 at Wed Oct 28 01:46:55 2020, MaxMem=  7784628224 cpu:               0.2 elap:               0.0
 (Enter /gpfs/loomis/apps/avx/software/Gaussian/16-C.01_AVX/g16/l202.exe)
                          Input orientation:                          
 ---------------------------------------------------------------------
 Center     Atomic      Atomic             Coordinates (Angstroms)
 Number     Number       Type             X           Y           Z
 ---------------------------------------------------------------------
      1          6           0        1.503276   -3.252464   -0.000016
      2          6           0        0.993730   -1.951757   -0.000023
      3          6           0        1.804138   -0.765990   -0.000029
      4          6           0        3.223707   -0.971430   -0.000032
      5          6           0        3.727323   -2.277123   -0.000024
      6          6           0        2.890188   -3.418716   -0.000014
      7          1           0        0.820398   -4.114824   -0.000010
      8          1           0        3.904490   -0.106843   -0.000039
      9          1           0        4.816032   -2.421928   -0.000025
     10          1           0        3.326961   -4.424778   -0.000007
     11          7           0        1.087298    0.390927   -0.000034
     12         16           0       -0.692747   -1.553845   -0.000027
     13          6           0       -1.288925    1.075989    0.000013
     14          6           0       -2.663498    0.700789    0.000030
     15          6           0       -0.932912    2.493436    0.000037
     16          6           0       -3.652894    1.679938    0.000034
     17          1           0       -2.935586   -0.363638    0.000030
     18          6           0       -1.959616    3.466398    0.000035
     19          6           0       -3.307437    3.059245    0.000031
     20          1           0       -4.709087    1.386790    0.000040
     21          1           0       -1.685334    4.530868    0.000050
     22          1           0       -4.102704    3.813804    0.000030
     23          6           0       -0.253632    0.133157   -0.000023
     24          8           0        0.349894    2.767425    0.000064
     25          1           0        0.887443    1.981408    0.000031
 ---------------------------------------------------------------------
                    Distance matrix (angstroms):
                    1          2          3          4          5
     1  C    0.000000
     2  C    1.396953   0.000000
     3  C    2.504610   1.436246   0.000000
     4  C    2.857096   2.435947   1.434358   0.000000
     5  C    2.428513   2.752888   2.445846   1.399451   0.000000
     6  C    1.396840   2.397607   2.866436   2.469907   1.415637
     7  H    1.099994   2.170001   3.490334   3.956870   3.439093
     8  H    3.957368   3.446191   2.201353   1.100444   2.177500
     9  H    3.415281   3.851110   3.437097   2.153936   1.098297
    10  H    2.167982   3.399970   3.963044   3.454891   2.184653
    11  N    3.667062   2.344552   1.360999   2.533824   3.753429
    12  S    2.776298   1.732784   2.618234   3.959523   4.478856
    13  C    5.150912   3.791802   3.599990   4.955378   6.033747
    14  C    5.743712   4.517889   4.702256   6.120090   7.050571
    15  C    6.241024   4.844759   4.256207   5.411356   6.669035
    16  C    7.135452   5.897484   5.980114   7.370034   8.374123
    17  H    5.296114   4.238119   4.756771   6.189209   6.932228
    18  C    7.558752   6.170791   5.663829   6.823574   8.082655
    19  C    7.936034   6.603801   6.384405   7.674776   8.829761
    20  H    7.753460   6.608178   6.859778   8.275894   9.197677
    21  H    8.411153   7.014400   6.342958   7.373871   8.697448
    22  H    9.019932   7.695150   7.474309   8.750701   9.920117
    23  C    3.814336   2.429564   2.245636   3.648561   4.653757
    24  O    6.129385   4.762899   3.820975   4.715701   6.070790
    25  H    5.269978   3.934601   2.896295   3.765287   5.118594
                    6          7          8          9         10
     6  C    0.000000
     7  H    2.183712   0.000000
     8  H    3.463713   5.057226   0.000000
     9  H    2.168516   4.339469   2.488077   0.000000
    10  H    1.096782   2.525654   4.356386   2.495745   0.000000
    11  N    4.214712   4.513649   2.860830   4.670719   5.311036
    12  S    4.039204   2.974596   4.819586   5.576757   4.939667
    13  C    6.137373   5.603015   5.326411   7.036044   7.180866
    14  C    6.914749   5.943707   6.617457   8.105229   7.883973
    15  C    7.040570   6.836899   5.491986   7.563806   8.124543
    16  C    8.295070   7.320492   7.765735   9.409995   9.272859
    17  H    6.578233   5.308372   6.844895   8.020233   7.464071
    18  C    8.421721   8.074862   6.867008   8.976736   9.498345
    19  C    8.965184   8.276852   7.876294   9.799694  10.001292
    20  H    8.991210   7.800189   8.742119  10.258373   9.917277
    21  H    9.172310   9.001482   7.263229   9.518883  10.262879
    22  H   10.060312   9.332742   8.915528  10.882473  11.093879
    23  C    4.743354   4.381653   4.165043   5.677143   5.796155
    24  O    6.687408   6.898313   4.571276   6.846588   7.784003
    25  H    5.759542   6.096601   3.669246   5.901117   6.854959
                   11         12         13         14         15
    11  N    0.000000
    12  S    2.636417   0.000000
    13  C    2.473003   2.696563   0.000000
    14  C    3.763573   2.994534   1.424860   0.000000
    15  C    2.915782   4.054400   1.461472   2.491688   0.000000
    16  C    4.912328   4.384041   2.439898   1.391990   2.839028
    17  H    4.093038   2.539078   2.187240   1.098652   3.489065
    18  C    4.329227   5.177624   2.482716   2.853777   1.414488
    19  C    5.141363   5.302565   2.829787   2.444785   2.441006
    20  H    5.881310   4.977782   3.434254   2.157552   3.934992
    21  H    4.982629   6.165140   3.477546   3.953013   2.171928
    22  H    6.217090   6.359203   3.925938   3.429603   3.433796
    23  C    1.365481   1.743215   1.400273   2.475815   2.456081
    24  O    2.488273   4.445275   2.355140   3.653973   1.311740
    25  H    1.602988   3.872339   2.357193   3.774807   1.890995
                   16         17         18         19         20
    16  C    0.000000
    17  H    2.165809   0.000000
    18  C    2.461428   3.952428   0.000000
    19  C    1.421910   3.443022   1.407976   0.000000
    20  H    1.096120   2.491847   3.447369   2.182138   0.000000
    21  H    3.463971   5.051665   1.099240   2.190181   4.362145
    22  H    2.180760   4.337417   2.171064   1.096270   2.501619
    23  C    3.734637   2.727578   3.744446   4.229387   4.628463
    24  O    4.147884   4.538495   2.412966   3.668955   5.243991
    25  H    4.550334   4.484952   3.211065   4.331138   5.628029
                   21         22         23         24         25
    21  H    0.000000
    22  H    2.521480   0.000000
    23  C    4.624893   5.325647   0.000000
    24  O    2.692932   4.573898   2.702519   0.000000
    25  H    3.622006   5.315942   2.172115   0.952250   0.000000
 Symmetry turned off by external request.
 Stoichiometry    C13H9NOS
 Framework group  C1[X(C13H9NOS)]
 Deg. of freedom    69
 Full point group                 C1      NOp   1
 Rotational constants (GHZ):           1.4048505           0.2864660           0.2379459
 Leave Link  202 at Wed Oct 28 01:46:55 2020, MaxMem=  7784628224 cpu:               0.3 elap:               0.1
 (Enter /gpfs/loomis/apps/avx/software/Gaussian/16-C.01_AVX/g16/l301.exe)
 Standard basis: CC-pVDZ (5D, 7F)
 Ernie: Thresh=  0.10000D-02 Tol=  0.10000D-05 Strict=F.
 Ernie:  40 primitive shells out of 425 were deleted.
   273 basis functions,   629 primitive gaussians,   289 cartesian basis functions
    59 alpha electrons       59 beta electrons
       nuclear repulsion energy      1100.0046575409 Hartrees.
 IExCor= 4639 DFT=T Ex+Corr=wB97XD ExCW=0 ScaHFX=  1.000000
 ScaDFX=  1.000000  1.000000  1.000000  1.000000 ScalE2=  1.000000  1.000000
 IRadAn=      5 IRanWt=     -1 IRanGd=            0 ICorTp=0 IEmpDi=121
 HFx  wShort=  0.000000 wLong=  0.200000 cFull=  0.222036 cShort=  0.000000 cLong=  0.777964
 DFx  wShort=  0.000000 wLong=  0.200000 cFull=  0.000000 cShort=  0.000000 cLong=  1.000000
 NAtoms=   25 NActive=   25 NUniq=   25 SFac= 1.00D+00 NAtFMM=   60 NAOKFM=F Big=F
 Integral buffers will be    131072 words long.
 Raffenetti 2 integral format.
 Two-electron integral symmetry is turned off.
 R6Disp:  Grimme-D2 Dispersion energy=       -0.0137763668 Hartrees.
 Nuclear repulsion after empirical dispersion term =     1099.9908811741 Hartrees.
 ------------------------------------------------------------------------------
 Polarizable Continuum Model (PCM)
 =================================
 Model                : PCM.
 Atomic radii         : UFF (Universal Force Field).
 Polarization charges : Total charges.
 Charge compensation  : None.
 Solution method      : On-the-fly selection.
 Cavity type          : Scaled VdW (van der Waals Surface) (Alpha=1.100).
 Cavity algorithm     : GePol (No added spheres)
                        Default sphere list used, NSphG=   25.
                        Lebedev-Laikov grids with approx.  5.0 points / Ang**2.
                        Smoothing algorithm: York/Karplus (Gamma=1.0000).
                        Polarization charges: spherical gaussians, with
                                              point-specific exponents (IZeta= 3).
                        Self-potential: point-specific (ISelfS= 7).
                        Self-field    : sphere-specific E.n sum rule (ISelfD= 2).
 1st derivatives      : Analytical E(r).r(x)/FMM algorithm (CHGder, D1EAlg=3).
                        Cavity 1st derivative terms included.
 Solvent              : CarbonTetraChloride, Eps=   2.228000 Eps(inf)=   2.131892
 ------------------------------------------------------------------------------
 GePol: Number of generator spheres                  =      25
 GePol: Total number of spheres                      =      25
 GePol: Number of exposed spheres                    =      25 (100.00%)
 GePol: Number of points                             =    2178
 GePol: Average weight of points                     =       0.12
 GePol: Minimum weight of points                     =   0.52D-08
 GePol: Maximum weight of points                     =    0.20577
 GePol: Number of points with low weight             =     141
 GePol: Fraction of low-weight points (<1% of avg)   =       6.47%
 GePol: Cavity surface area                          =    272.153 Ang**2
 GePol: Cavity volume                                =    292.855 Ang**3
 Leave Link  301 at Wed Oct 28 01:46:55 2020, MaxMem=  7784628224 cpu:               0.6 elap:               0.1
 (Enter /gpfs/loomis/apps/avx/software/Gaussian/16-C.01_AVX/g16/l302.exe)
 NPDir=0 NMtPBC=     1 NCelOv=     1 NCel=       1 NClECP=     1 NCelD=      1
         NCelK=      1 NCelE2=     1 NClLst=     1 CellRange=     0.0.
 One-electron integrals computed using PRISM.
 NBasis=   273 RedAO= T EigKep=  3.36D-04  NBF=   273
 NBsUse=   273 1.00D-06 EigRej= -1.00D+00 NBFU=   273
 Precomputing XC quadrature grid using
 IXCGrd= 4 IRadAn=           5 IRanWt=          -1 IRanGd=           0 AccXCQ= 0.00D+00.
 Generated NRdTot=       0 NPtTot=           0 NUsed=           0 NTot=          32
 NSgBfM=   288   288   288   288   288 MxSgAt=    25 MxSgA2=    25.
 Leave Link  302 at Wed Oct 28 01:46:56 2020, MaxMem=  7784628224 cpu:               3.9 elap:               0.5
 (Enter /gpfs/loomis/apps/avx/software/Gaussian/16-C.01_AVX/g16/l303.exe)
 DipDrv:  MaxL=1.
 Leave Link  303 at Wed Oct 28 01:46:56 2020, MaxMem=  7784628224 cpu:               0.8 elap:               0.2
 (Enter /gpfs/loomis/apps/avx/software/Gaussian/16-C.01_AVX/g16/l401.exe)
 ExpMin= 1.22D-01 ExpMax= 1.11D+05 ExpMxC= 1.07D+03 IAcc=3 IRadAn=         5 AccDes= 0.00D+00
 Harris functional with IExCor= 4639 and IRadAn=       5 diagonalized for initial guess.
 HarFok:  IExCor= 4639 AccDes= 0.00D+00 IRadAn=         5 IDoV= 1 UseB2=F ITyADJ=14
 ICtDFT=  3500011 ScaDFX=  1.000000  1.000000  1.000000  1.000000
 FoFCou: FMM=F IPFlag=           0 FMFlag=      100000 FMFlg1=           0
         NFxFlg=           0 DoJE=T BraDBF=F KetDBF=T FulRan=T
         wScrn=  0.000000 ICntrl=       500 IOpCl=  0 I1Cent=   200000004 NGrid=           0
         NMat0=    1 NMatS0=      1 NMatT0=    0 NMatD0=    1 NMtDS0=    0 NMtDT0=    0
 Symmetry not used in FoFCou.
 Harris En= -994.446503169188    
 JPrj=0 DoOrth=F DoCkMO=F.
 Leave Link  401 at Wed Oct 28 01:46:57 2020, MaxMem=  7784628224 cpu:              14.1 elap:               1.5
 (Enter /gpfs/loomis/apps/avx/software/Gaussian/16-C.01_AVX/g16/l502.exe)
 Two-electron integral symmetry not used.
 Closed shell SCF:
 Using DIIS extrapolation, IDIIS=  1040.
 NGot=  7784628224 LenX=  7784455381 LenY=  7784371419
 Requested convergence on RMS density matrix=1.00D-08 within 128 cycles.
 Requested convergence on MAX density matrix=1.00D-06.
 Requested convergence on             energy=1.00D-06.
 No special actions if energy rises.
 Fock matrices will be formed incrementally for  20 cycles.

 Cycle   1  Pass 1  IDiag  1:
 FoFJK:  IHMeth= 1 ICntrl=       0 DoSepK=T KAlg= 0 I1Cent=           0 FoldK=F
 IRaf=         1 NMat=       1 IRICut=       1 DoRegI=T DoRafI=F ISym2E= 0 IDoP0=0 IntGTp=1.
 FoFCou: FMM=F IPFlag=           0 FMFlag=      100000 FMFlg1=           0
         NFxFlg=           0 DoJE=T BraDBF=F KetDBF=F FulRan=T
         wScrn=  0.000000 ICntrl=       500 IOpCl=  0 I1Cent=           0 NGrid=           0
         NMat0=    1 NMatS0=      1 NMatT0=    0 NMatD0=    1 NMtDS0=    0 NMtDT0=    0
 Symmetry not used in FoFCou.
 Inv3:  Mode=1 IEnd=    14231052.
 Iteration    1 A*A^-1 deviation from unit magnitude is 3.77D-15 for   2160.
 Iteration    1 A*A^-1 deviation from orthogonality  is 1.67D-15 for   1099    648.
 Iteration    1 A^-1*A deviation from unit magnitude is 3.77D-15 for   2160.
 Iteration    1 A^-1*A deviation from orthogonality  is 1.24D-15 for   2174    126.
 E= -1028.59125080500    
 DIIS: error= 3.16D-02 at cycle   1 NSaved=   1.
 NSaved= 1 IEnMin= 1 EnMin= -1028.59125080500     IErMin= 1 ErrMin= 3.16D-02
 ErrMax= 3.16D-02  0.00D+00 EMaxC= 1.00D-01 BMatC= 3.78D-01 BMatP= 3.78D-01
 IDIUse=3 WtCom= 6.84D-01 WtEn= 3.16D-01
 Coeff-Com:  0.100D+01
 Coeff-En:   0.100D+01
 Coeff:      0.100D+01
 Gap=     0.347 Goal=   None    Shift=    0.000
 GapD=    0.347 DampG=1.000 DampE=0.500 DampFc=0.5000 IDamp=-1.
 Damping current iteration by 5.00D-01
 RMSDP=3.41D-03 MaxDP=2.18D-01              OVMax= 1.63D-01

 Cycle   2  Pass 1  IDiag  1:
 RMSU=  1.70D-03    CP:  9.93D-01
 E= -1028.70134445490     Delta-E=       -0.110093649902 Rises=F Damp=T
 DIIS: error= 9.82D-03 at cycle   2 NSaved=   2.
 NSaved= 2 IEnMin= 2 EnMin= -1028.70134445490     IErMin= 2 ErrMin= 9.82D-03
 ErrMax= 9.82D-03  0.00D+00 EMaxC= 1.00D-01 BMatC= 5.73D-02 BMatP= 3.78D-01
 IDIUse=3 WtCom= 9.02D-01 WtEn= 9.82D-02
 Coeff-Com: -0.322D+00 0.132D+01
 Coeff-En:   0.000D+00 0.100D+01
 Coeff:     -0.290D+00 0.129D+01
 Gap=     0.306 Goal=   None    Shift=    0.000
 RMSDP=1.10D-03 MaxDP=2.19D-02 DE=-1.10D-01 OVMax= 1.06D-01

 Cycle   3  Pass 1  IDiag  1:
 RMSU=  1.04D-03    CP:  9.91D-01  1.21D+00
 E= -1028.79744294603     Delta-E=       -0.096098491129 Rises=F Damp=F
 DIIS: error= 5.50D-03 at cycle   3 NSaved=   3.
 NSaved= 3 IEnMin= 3 EnMin= -1028.79744294603     IErMin= 3 ErrMin= 5.50D-03
 ErrMax= 5.50D-03  0.00D+00 EMaxC= 1.00D-01 BMatC= 1.20D-02 BMatP= 5.73D-02
 IDIUse=3 WtCom= 9.45D-01 WtEn= 5.50D-02
 Coeff-Com: -0.208D+00 0.483D+00 0.725D+00
 Coeff-En:   0.000D+00 0.000D+00 0.100D+01
 Coeff:     -0.197D+00 0.456D+00 0.740D+00
 Gap=     0.265 Goal=   None    Shift=    0.000
 RMSDP=4.90D-04 MaxDP=1.69D-02 DE=-9.61D-02 OVMax= 3.74D-02

 Cycle   4  Pass 1  IDiag  1:
 RMSU=  3.65D-04    CP:  9.89D-01  1.38D+00  8.57D-01
 E= -1028.80903758104     Delta-E=       -0.011594635005 Rises=F Damp=F
 DIIS: error= 1.89D-03 at cycle   4 NSaved=   4.
 NSaved= 4 IEnMin= 4 EnMin= -1028.80903758104     IErMin= 4 ErrMin= 1.89D-03
 ErrMax= 1.89D-03  0.00D+00 EMaxC= 1.00D-01 BMatC= 1.31D-03 BMatP= 1.20D-02
 IDIUse=3 WtCom= 9.81D-01 WtEn= 1.89D-02
 Coeff-Com: -0.739D-01 0.146D+00 0.347D+00 0.580D+00
 Coeff-En:   0.000D+00 0.000D+00 0.000D+00 0.100D+01
 Coeff:     -0.725D-01 0.143D+00 0.341D+00 0.588D+00
 Gap=     0.263 Goal=   None    Shift=    0.000
 RMSDP=1.46D-04 MaxDP=7.78D-03 DE=-1.16D-02 OVMax= 1.08D-02

 Cycle   5  Pass 1  IDiag  1:
 RMSU=  9.60D-05    CP:  9.89D-01  1.38D+00  9.19D-01  7.58D-01
 E= -1028.81042226071     Delta-E=       -0.001384679675 Rises=F Damp=F
 DIIS: error= 3.91D-04 at cycle   5 NSaved=   5.
 NSaved= 5 IEnMin= 5 EnMin= -1028.81042226071     IErMin= 5 ErrMin= 3.91D-04
 ErrMax= 3.91D-04  0.00D+00 EMaxC= 1.00D-01 BMatC= 5.04D-05 BMatP= 1.31D-03
 IDIUse=3 WtCom= 9.96D-01 WtEn= 3.91D-03
 Coeff-Com: -0.152D-02-0.266D-02 0.388D-01 0.175D+00 0.791D+00
 Coeff-En:   0.000D+00 0.000D+00 0.000D+00 0.000D+00 0.100D+01
 Coeff:     -0.151D-02-0.265D-02 0.386D-01 0.174D+00 0.792D+00
 Gap=     0.264 Goal=   None    Shift=    0.000
 RMSDP=4.98D-05 MaxDP=1.49D-03 DE=-1.38D-03 OVMax= 4.72D-03

 Cycle   6  Pass 1  IDiag  1:
 RMSU=  3.24D-05    CP:  9.89D-01  1.39D+00  9.38D-01  8.43D-01  1.05D+00
 E= -1028.81051835314     Delta-E=       -0.000096092434 Rises=F Damp=F
 DIIS: error= 1.50D-04 at cycle   6 NSaved=   6.
 NSaved= 6 IEnMin= 6 EnMin= -1028.81051835314     IErMin= 6 ErrMin= 1.50D-04
 ErrMax= 1.50D-04  0.00D+00 EMaxC= 1.00D-01 BMatC= 7.76D-06 BMatP= 5.04D-05
 IDIUse=3 WtCom= 9.99D-01 WtEn= 1.50D-03
 Coeff-Com:  0.146D-01-0.302D-01-0.529D-01-0.495D-01 0.223D+00 0.895D+00
 Coeff-En:   0.000D+00 0.000D+00 0.000D+00 0.000D+00 0.000D+00 0.100D+01
 Coeff:      0.146D-01-0.302D-01-0.529D-01-0.494D-01 0.223D+00 0.895D+00
 Gap=     0.264 Goal=   None    Shift=    0.000
 RMSDP=2.68D-05 MaxDP=1.52D-03 DE=-9.61D-05 OVMax= 2.44D-03

 Cycle   7  Pass 1  IDiag  1:
 RMSU=  1.46D-05    CP:  9.89D-01  1.39D+00  9.49D-01  8.72D-01  1.21D+00
                    CP:  1.16D+00
 E= -1028.81054093420     Delta-E=       -0.000022581055 Rises=F Damp=F
 DIIS: error= 6.84D-05 at cycle   7 NSaved=   7.
 NSaved= 7 IEnMin= 7 EnMin= -1028.81054093420     IErMin= 7 ErrMin= 6.84D-05
 ErrMax= 6.84D-05  0.00D+00 EMaxC= 1.00D-01 BMatC= 1.81D-06 BMatP= 7.76D-06
 IDIUse=1 WtCom= 1.00D+00 WtEn= 0.00D+00
 Coeff-Com:  0.651D-02-0.125D-01-0.280D-01-0.449D-01-0.188D-01 0.384D+00
 Coeff-Com:  0.714D+00
 Coeff:      0.651D-02-0.125D-01-0.280D-01-0.449D-01-0.188D-01 0.384D+00
 Coeff:      0.714D+00
 Gap=     0.264 Goal=   None    Shift=    0.000
 RMSDP=9.45D-06 MaxDP=4.41D-04 DE=-2.26D-05 OVMax= 1.04D-03

 Cycle   8  Pass 1  IDiag  1:
 RMSU=  5.45D-06    CP:  9.89D-01  1.39D+00  9.51D-01  8.80D-01  1.24D+00
                    CP:  1.34D+00  1.11D+00
 E= -1028.81054439935     Delta-E=       -0.000003465151 Rises=F Damp=F
 DIIS: error= 2.90D-05 at cycle   8 NSaved=   8.
 NSaved= 8 IEnMin= 8 EnMin= -1028.81054439935     IErMin= 8 ErrMin= 2.90D-05
 ErrMax= 2.90D-05  0.00D+00 EMaxC= 1.00D-01 BMatC= 1.81D-07 BMatP= 1.81D-06
 IDIUse=1 WtCom= 1.00D+00 WtEn= 0.00D+00
 Coeff-Com: -0.136D-02 0.294D-02 0.404D-02 0.133D-02-0.409D-01-0.679D-01
 Coeff-Com:  0.186D+00 0.916D+00
 Coeff:     -0.136D-02 0.294D-02 0.404D-02 0.133D-02-0.409D-01-0.679D-01
 Coeff:      0.186D+00 0.916D+00
 Gap=     0.264 Goal=   None    Shift=    0.000
 RMSDP=4.13D-06 MaxDP=1.47D-04 DE=-3.47D-06 OVMax= 5.22D-04

 Cycle   9  Pass 1  IDiag  1:
 RMSU=  1.86D-06    CP:  9.89D-01  1.39D+00  9.51D-01  8.79D-01  1.25D+00
                    CP:  1.39D+00  1.31D+00  1.15D+00
 E= -1028.81054495045     Delta-E=       -0.000000551101 Rises=F Damp=F
 DIIS: error= 1.13D-05 at cycle   9 NSaved=   9.
 NSaved= 9 IEnMin= 9 EnMin= -1028.81054495045     IErMin= 9 ErrMin= 1.13D-05
 ErrMax= 1.13D-05  0.00D+00 EMaxC= 1.00D-01 BMatC= 2.07D-08 BMatP= 1.81D-07
 IDIUse=1 WtCom= 1.00D+00 WtEn= 0.00D+00
 Coeff-Com: -0.963D-03 0.191D-02 0.377D-02 0.540D-02-0.781D-02-0.616D-01
 Coeff-Com: -0.344D-01 0.191D+00 0.903D+00
 Coeff:     -0.963D-03 0.191D-02 0.377D-02 0.540D-02-0.781D-02-0.616D-01
 Coeff:     -0.344D-01 0.191D+00 0.903D+00
 Gap=     0.264 Goal=   None    Shift=    0.000
 RMSDP=1.67D-06 MaxDP=6.20D-05 DE=-5.51D-07 OVMax= 2.17D-04

 Cycle  10  Pass 1  IDiag  1:
 RMSU=  7.53D-07    CP:  9.89D-01  1.39D+00  9.51D-01  8.79D-01  1.26D+00
                    CP:  1.41D+00  1.38D+00  1.29D+00  1.23D+00
 E= -1028.81054503579     Delta-E=       -0.000000085343 Rises=F Damp=F
 DIIS: error= 6.27D-06 at cycle  10 NSaved=  10.
 NSaved=10 IEnMin=10 EnMin= -1028.81054503579     IErMin=10 ErrMin= 6.27D-06
 ErrMax= 6.27D-06  0.00D+00 EMaxC= 1.00D-01 BMatC= 4.02D-09 BMatP= 2.07D-08
 IDIUse=1 WtCom= 1.00D+00 WtEn= 0.00D+00
 Coeff-Com: -0.242D-04 0.142D-04 0.301D-03 0.139D-02 0.397D-02-0.938D-02
 Coeff-Com: -0.308D-01-0.821D-01 0.247D+00 0.870D+00
 Coeff:     -0.242D-04 0.142D-04 0.301D-03 0.139D-02 0.397D-02-0.938D-02
 Coeff:     -0.308D-01-0.821D-01 0.247D+00 0.870D+00
 Gap=     0.264 Goal=   None    Shift=    0.000
 RMSDP=6.95D-07 MaxDP=2.24D-05 DE=-8.53D-08 OVMax= 1.17D-04

 Cycle  11  Pass 1  IDiag  1:
 RMSU=  2.73D-07    CP:  9.89D-01  1.39D+00  9.51D-01  8.79D-01  1.26D+00
                    CP:  1.42D+00  1.40D+00  1.34D+00  1.46D+00  1.25D+00
 E= -1028.81054505293     Delta-E=       -0.000000017136 Rises=F Damp=F
 DIIS: error= 2.19D-06 at cycle  11 NSaved=  11.
 NSaved=11 IEnMin=11 EnMin= -1028.81054505293     IErMin=11 ErrMin= 2.19D-06
 ErrMax= 2.19D-06  0.00D+00 EMaxC= 1.00D-01 BMatC= 7.27D-10 BMatP= 4.02D-09
 IDIUse=1 WtCom= 1.00D+00 WtEn= 0.00D+00
 Coeff-Com:  0.176D-03-0.354D-03-0.664D-03-0.694D-03 0.244D-02 0.798D-02
 Coeff-Com:  0.437D-02-0.495D-01-0.132D+00 0.133D+00 0.104D+01
 Coeff:      0.176D-03-0.354D-03-0.664D-03-0.694D-03 0.244D-02 0.798D-02
 Coeff:      0.437D-02-0.495D-01-0.132D+00 0.133D+00 0.104D+01
 Gap=     0.264 Goal=   None    Shift=    0.000
 RMSDP=3.82D-07 MaxDP=8.61D-06 DE=-1.71D-08 OVMax= 6.48D-05

 Cycle  12  Pass 1  IDiag  1:
 RMSU=  1.19D-07    CP:  9.89D-01  1.39D+00  9.51D-01  8.79D-01  1.26D+00
                    CP:  1.42D+00  1.41D+00  1.36D+00  1.57D+00  1.55D+00
                    CP:  1.39D+00
 E= -1028.81054505701     Delta-E=       -0.000000004078 Rises=F Damp=F
 DIIS: error= 7.57D-07 at cycle  12 NSaved=  12.
 NSaved=12 IEnMin=12 EnMin= -1028.81054505701     IErMin=12 ErrMin= 7.57D-07
 ErrMax= 7.57D-07  0.00D+00 EMaxC= 1.00D-01 BMatC= 1.58D-10 BMatP= 7.27D-10
 IDIUse=1 WtCom= 1.00D+00 WtEn= 0.00D+00
 Coeff-Com:  0.586D-04-0.113D-03-0.267D-03-0.472D-03 0.272D-03 0.392D-02
 Coeff-Com:  0.820D-02-0.130D-02-0.890D-01-0.128D+00 0.314D+00 0.893D+00
 Coeff:      0.586D-04-0.113D-03-0.267D-03-0.472D-03 0.272D-03 0.392D-02
 Coeff:      0.820D-02-0.130D-02-0.890D-01-0.128D+00 0.314D+00 0.893D+00
 Gap=     0.264 Goal=   None    Shift=    0.000
 RMSDP=1.55D-07 MaxDP=3.55D-06 DE=-4.08D-09 OVMax= 2.30D-05

 Cycle  13  Pass 1  IDiag  1:
 RMSU=  5.67D-08    CP:  9.89D-01  1.39D+00  9.51D-01  8.79D-01  1.26D+00
                    CP:  1.42D+00  1.41D+00  1.36D+00  1.61D+00  1.66D+00
                    CP:  1.65D+00  1.21D+00
 E= -1028.81054505761     Delta-E=       -0.000000000601 Rises=F Damp=F
 DIIS: error= 3.46D-07 at cycle  13 NSaved=  13.
 NSaved=13 IEnMin=13 EnMin= -1028.81054505761     IErMin=13 ErrMin= 3.46D-07
 ErrMax= 3.46D-07  0.00D+00 EMaxC= 1.00D-01 BMatC= 3.00D-11 BMatP= 1.58D-10
 IDIUse=1 WtCom= 1.00D+00 WtEn= 0.00D+00
 Coeff-Com: -0.766D-05 0.176D-04 0.873D-05-0.686D-04-0.219D-03 0.164D-03
 Coeff-Com:  0.292D-02 0.737D-02-0.121D-01-0.708D-01-0.438D-01 0.374D+00
 Coeff-Com:  0.743D+00
 Coeff:     -0.766D-05 0.176D-04 0.873D-05-0.686D-04-0.219D-03 0.164D-03
 Coeff:      0.292D-02 0.737D-02-0.121D-01-0.708D-01-0.438D-01 0.374D+00
 Coeff:      0.743D+00
 Gap=     0.264 Goal=   None    Shift=    0.000
 RMSDP=4.34D-08 MaxDP=1.65D-06 DE=-6.01D-10 OVMax= 6.25D-06

 Cycle  14  Pass 1  IDiag  1:
 RMSU=  2.18D-08    CP:  9.89D-01  1.39D+00  9.51D-01  8.79D-01  1.26D+00
                    CP:  1.42D+00  1.41D+00  1.36D+00  1.62D+00  1.69D+00
                    CP:  1.72D+00  1.39D+00  9.84D-01
 E= -1028.81054505768     Delta-E=       -0.000000000073 Rises=F Damp=F
 DIIS: error= 9.34D-08 at cycle  14 NSaved=  14.
 NSaved=14 IEnMin=14 EnMin= -1028.81054505768     IErMin=14 ErrMin= 9.34D-08
 ErrMax= 9.34D-08  0.00D+00 EMaxC= 1.00D-01 BMatC= 3.98D-12 BMatP= 3.00D-11
 IDIUse=1 WtCom= 1.00D+00 WtEn= 0.00D+00
 Coeff-Com: -0.997D-05 0.201D-04 0.369D-04 0.305D-04-0.117D-03-0.473D-03
 Coeff-Com:  0.120D-03 0.291D-02 0.640D-02-0.114D-01-0.542D-01 0.284D-01
 Coeff-Com:  0.282D+00 0.747D+00
 Coeff:     -0.997D-05 0.201D-04 0.369D-04 0.305D-04-0.117D-03-0.473D-03
 Coeff:      0.120D-03 0.291D-02 0.640D-02-0.114D-01-0.542D-01 0.284D-01
 Coeff:      0.282D+00 0.747D+00
 Gap=     0.264 Goal=   None    Shift=    0.000
 RMSDP=1.45D-08 MaxDP=3.88D-07 DE=-7.34D-11 OVMax= 1.82D-06

 Cycle  15  Pass 1  IDiag  1:
 RMSU=  7.86D-09    CP:  9.89D-01  1.39D+00  9.51D-01  8.79D-01  1.26D+00
                    CP:  1.42D+00  1.41D+00  1.36D+00  1.62D+00  1.69D+00
                    CP:  1.74D+00  1.44D+00  1.12D+00  1.05D+00
 E= -1028.81054505768     Delta-E=        0.000000000002 Rises=F Damp=F
 DIIS: error= 6.02D-08 at cycle  15 NSaved=  15.
 NSaved=15 IEnMin=14 EnMin= -1028.81054505768     IErMin=15 ErrMin= 6.02D-08
 ErrMax= 6.02D-08  0.00D+00 EMaxC= 1.00D-01 BMatC= 7.31D-13 BMatP= 3.98D-12
 IDIUse=1 WtCom= 1.00D+00 WtEn= 0.00D+00
 Coeff-Com: -0.243D-05 0.441D-05 0.140D-04 0.271D-04-0.163D-05-0.255D-03
 Coeff-Com: -0.639D-03-0.445D-03 0.553D-02 0.112D-01-0.151D-01-0.735D-01
 Coeff-Com: -0.400D-01 0.306D+00 0.807D+00
 Coeff:     -0.243D-05 0.441D-05 0.140D-04 0.271D-04-0.163D-05-0.255D-03
 Coeff:     -0.639D-03-0.445D-03 0.553D-02 0.112D-01-0.151D-01-0.735D-01
 Coeff:     -0.400D-01 0.306D+00 0.807D+00
 Gap=     0.264 Goal=   None    Shift=    0.000
 RMSDP=7.46D-09 MaxDP=2.15D-07 DE= 1.59D-12 OVMax= 8.27D-07

 Error on total polarization charges =  0.00795
 SCF Done:  E(RwB97XD) =  -1028.81054506     A.U. after   15 cycles
            NFock= 15  Conv=0.75D-08     -V/T= 2.0051
 KE= 1.023615388662D+03 PE=-4.612044456637D+03 EE= 1.459627641743D+03
 Leave Link  502 at Wed Oct 28 01:48:20 2020, MaxMem=  7784628224 cpu:             821.0 elap:              83.0
 (Enter /gpfs/loomis/apps/avx/software/Gaussian/16-C.01_AVX/g16/l601.exe)
 Copying SCF densities to generalized density rwf, IOpCl= 0 IROHF=0.

 **********************************************************************

            Population analysis using the SCF Density.

 **********************************************************************

 Alpha  occ. eigenvalues --  -89.08519 -19.28198 -14.47153 -10.39293 -10.38464
 Alpha  occ. eigenvalues --  -10.35446 -10.34470 -10.32624 -10.32525 -10.32239
 Alpha  occ. eigenvalues --  -10.32182 -10.31996 -10.31605 -10.31553 -10.31204
 Alpha  occ. eigenvalues --  -10.30964  -8.10657  -6.05482  -6.05143  -6.04724
 Alpha  occ. eigenvalues --   -1.18310  -1.07979  -0.96664  -0.95591  -0.92139
 Alpha  occ. eigenvalues --   -0.88607  -0.85022  -0.84557  -0.82234  -0.76029
 Alpha  occ. eigenvalues --   -0.71539  -0.70186  -0.69688  -0.67916  -0.64182
 Alpha  occ. eigenvalues --   -0.60313  -0.59190  -0.58567  -0.55956  -0.54510
 Alpha  occ. eigenvalues --   -0.53932  -0.53512  -0.52702  -0.50483  -0.50363
 Alpha  occ. eigenvalues --   -0.49175  -0.47308  -0.45975  -0.45726  -0.44752
 Alpha  occ. eigenvalues --   -0.44000  -0.42978  -0.42088  -0.39854  -0.37293
 Alpha  occ. eigenvalues --   -0.36352  -0.31863  -0.31585  -0.28273
 Alpha virt. eigenvalues --   -0.01825   0.05015   0.06674   0.06881   0.08093
 Alpha virt. eigenvalues --    0.11000   0.14445   0.15219   0.17254   0.17862
 Alpha virt. eigenvalues --    0.18599   0.21137   0.21431   0.22159   0.22374
 Alpha virt. eigenvalues --    0.23679   0.23890   0.23951   0.27962   0.30045
 Alpha virt. eigenvalues --    0.32286   0.33247   0.34666   0.35593   0.36982
 Alpha virt. eigenvalues --    0.37846   0.39008   0.40623   0.43093   0.44180
 Alpha virt. eigenvalues --    0.46518   0.48731   0.50502   0.51188   0.51371
 Alpha virt. eigenvalues --    0.52146   0.53470   0.54260   0.54600   0.55552
 Alpha virt. eigenvalues --    0.56054   0.56311   0.56875   0.57777   0.57807
 Alpha virt. eigenvalues --    0.58357   0.58566   0.58846   0.59302   0.60253
 Alpha virt. eigenvalues --    0.60888   0.60892   0.61356   0.62841   0.63243
 Alpha virt. eigenvalues --    0.65194   0.66024   0.66604   0.67385   0.69202
 Alpha virt. eigenvalues --    0.70130   0.71349   0.72234   0.72506   0.72671
 Alpha virt. eigenvalues --    0.73296   0.74219   0.75323   0.75865   0.78565
 Alpha virt. eigenvalues --    0.78590   0.79090   0.80010   0.81210   0.82203
 Alpha virt. eigenvalues --    0.85646   0.88905   0.91426   0.92311   0.94066
 Alpha virt. eigenvalues --    0.94960   0.95104   0.95267   0.97027   0.97326
 Alpha virt. eigenvalues --    0.97776   0.98533   1.00516   1.00713   1.01953
 Alpha virt. eigenvalues --    1.02445   1.05842   1.06526   1.07188   1.07603
 Alpha virt. eigenvalues --    1.07875   1.08811   1.09965   1.10138   1.11140
 Alpha virt. eigenvalues --    1.12077   1.12264   1.14351   1.14688   1.15606
 Alpha virt. eigenvalues --    1.15844   1.19821   1.20277   1.21507   1.22013
 Alpha virt. eigenvalues --    1.24974   1.30066   1.32365   1.33973   1.34904
 Alpha virt. eigenvalues --    1.36784   1.37167   1.39327   1.40208   1.46792
 Alpha virt. eigenvalues --    1.48608   1.48725   1.51211   1.52073   1.53175
 Alpha virt. eigenvalues --    1.54510   1.56055   1.56244   1.56795   1.56935
 Alpha virt. eigenvalues --    1.58211   1.59267   1.61745   1.65398   1.66142
 Alpha virt. eigenvalues --    1.66910   1.68930   1.69073   1.69887   1.70821
 Alpha virt. eigenvalues --    1.71760   1.72312   1.72443   1.73359   1.75267
 Alpha virt. eigenvalues --    1.75661   1.77330   1.79391   1.80576   1.81560
 Alpha virt. eigenvalues --    1.82475   1.82611   1.84113   1.84177   1.84638
 Alpha virt. eigenvalues --    1.85806   1.87737   1.88513   1.88938   1.91611
 Alpha virt. eigenvalues --    1.91692   1.92714   1.93031   1.94215   1.96856
 Alpha virt. eigenvalues --    1.99630   2.00256   2.00904   2.02608   2.03211
 Alpha virt. eigenvalues --    2.04791   2.07307   2.08107   2.11191   2.12224
 Alpha virt. eigenvalues --    2.17125   2.17780   2.19450   2.23290   2.23390
 Alpha virt. eigenvalues --    2.25154   2.28714   2.35178   2.37088   2.37948
 Alpha virt. eigenvalues --    2.41548   2.41655   2.43998   2.44548   2.46180
 Alpha virt. eigenvalues --    2.46522   2.48616   2.50167   2.52867   2.60955
 Alpha virt. eigenvalues --    2.62541   2.71554   2.72764   2.74618   2.77767
 Alpha virt. eigenvalues --    2.79936   2.82502   2.85445   2.88467   2.91216
 Alpha virt. eigenvalues --    3.00107   3.03650   3.09669   3.11554   3.31429
 Alpha virt. eigenvalues --    3.44381   3.53194   3.67796   3.97884
          Condensed to atoms (all electrons):
               1          2          3          4          5          6
     1  C    4.765172   0.458001   0.012569  -0.054070  -0.016248   0.518016
     2  C    0.458001   5.305723   0.343670  -0.027477  -0.067367  -0.007176
     3  C    0.012569   0.343670   4.782153   0.475837  -0.004290  -0.061185
     4  C   -0.054070  -0.027477   0.475837   4.799562   0.522389  -0.011192
     5  C   -0.016248  -0.067367  -0.004290   0.522389   4.747489   0.488489
     6  C    0.518016  -0.007176  -0.061185  -0.011192   0.488489   4.748252
     7  H    0.399895  -0.035771   0.007995  -0.000561   0.007716  -0.039648
     8  H   -0.000946   0.011697  -0.037646   0.395291  -0.042176   0.007759
     9  H    0.009055  -0.000923   0.008540  -0.038746   0.404064  -0.045543
    10  H   -0.042350   0.009162  -0.000471   0.007991  -0.042023   0.405663
    11  N    0.007957  -0.063203   0.486339  -0.039998   0.003109  -0.000203
    12  S   -0.074460   0.336609  -0.100785   0.007573   0.000272   0.004111
    13  C   -0.000210   0.003275   0.006251  -0.000477   0.000007   0.000006
    14  C   -0.000018   0.000130   0.000395   0.000007  -0.000000  -0.000000
    15  C    0.000008  -0.000158  -0.000684   0.000008  -0.000000  -0.000000
    16  C    0.000000  -0.000011   0.000007  -0.000000   0.000000  -0.000000
    17  H   -0.000015   0.000271  -0.000011   0.000001   0.000000   0.000000
    18  C    0.000000   0.000008  -0.000023  -0.000000   0.000000  -0.000000
    19  C   -0.000000   0.000001   0.000002   0.000000  -0.000000   0.000000
    20  H   -0.000000  -0.000000  -0.000000  -0.000000  -0.000000  -0.000000
    21  H   -0.000000  -0.000000   0.000000   0.000000  -0.000000   0.000000
    22  H    0.000000  -0.000000  -0.000000  -0.000000   0.000000  -0.000000
    23  C    0.004769  -0.054014  -0.127028  -0.001281   0.000287  -0.000204
    24  O    0.000001  -0.000027  -0.001822  -0.000031   0.000000  -0.000000
    25  H   -0.000064   0.002215  -0.003937  -0.000254  -0.000018   0.000009
               7          8          9         10         11         12
     1  C    0.399895  -0.000946   0.009055  -0.042350   0.007957  -0.074460
     2  C   -0.035771   0.011697  -0.000923   0.009162  -0.063203   0.336609
     3  C    0.007995  -0.037646   0.008540  -0.000471   0.486339  -0.100785
     4  C   -0.000561   0.395291  -0.038746   0.007991  -0.039998   0.007573
     5  C    0.007716  -0.042176   0.404064  -0.042023   0.003109   0.000272
     6  C   -0.039648   0.007759  -0.045543   0.405663  -0.000203   0.004111
     7  H    0.656930   0.000032  -0.000161  -0.010598  -0.000092  -0.007839
     8  H    0.000032   0.656041  -0.012598  -0.000102  -0.001174  -0.000136
     9  H   -0.000161  -0.012598   0.664850  -0.011765  -0.000080   0.000018
    10  H   -0.010598  -0.000102  -0.011765   0.660647   0.000000  -0.000178
    11  N   -0.000092  -0.001174  -0.000080   0.000000   6.513568  -0.074149
    12  S   -0.007839  -0.000136   0.000018  -0.000178  -0.074149  15.504653
    13  C   -0.000003   0.000028  -0.000000  -0.000000  -0.015845  -0.061913
    14  C    0.000002   0.000001   0.000000  -0.000000   0.003791  -0.015882
    15  C   -0.000000  -0.000018   0.000000   0.000000  -0.022397   0.005970
    16  C    0.000000   0.000000  -0.000000  -0.000000  -0.000061   0.000591
    17  H    0.000001   0.000000   0.000000  -0.000000   0.000214   0.009447
    18  C    0.000000  -0.000000   0.000000  -0.000000  -0.000583  -0.000251
    19  C   -0.000000   0.000000  -0.000000  -0.000000   0.000028   0.000027
    20  H    0.000000   0.000000   0.000000   0.000000   0.000001   0.000022
    21  H   -0.000000   0.000000  -0.000000   0.000000   0.000007   0.000004
    22  H    0.000000  -0.000000  -0.000000  -0.000000  -0.000000  -0.000000
    23  C    0.000158  -0.000861   0.000007   0.000005   0.531189   0.304524
    24  O   -0.000000  -0.000071   0.000000  -0.000000  -0.051785  -0.000144
    25  H    0.000001   0.000809  -0.000002   0.000000   0.090027   0.003134
              13         14         15         16         17         18
     1  C   -0.000210  -0.000018   0.000008   0.000000  -0.000015   0.000000
     2  C    0.003275   0.000130  -0.000158  -0.000011   0.000271   0.000008
     3  C    0.006251   0.000395  -0.000684   0.000007  -0.000011  -0.000023
     4  C   -0.000477   0.000007   0.000008  -0.000000   0.000001  -0.000000
     5  C    0.000007  -0.000000  -0.000000   0.000000   0.000000   0.000000
     6  C    0.000006  -0.000000  -0.000000  -0.000000   0.000000  -0.000000
     7  H   -0.000003   0.000002  -0.000000   0.000000   0.000001   0.000000
     8  H    0.000028   0.000001  -0.000018   0.000000   0.000000  -0.000000
     9  H   -0.000000   0.000000   0.000000  -0.000000   0.000000   0.000000
    10  H   -0.000000  -0.000000   0.000000  -0.000000  -0.000000  -0.000000
    11  N   -0.015845   0.003791  -0.022397  -0.000061   0.000214  -0.000583
    12  S   -0.061913  -0.015882   0.005970   0.000591   0.009447  -0.000251
    13  C    5.298619   0.482651   0.284328  -0.012344  -0.033161  -0.055769
    14  C    0.482651   4.830358  -0.012046   0.530772   0.397951  -0.052918
    15  C    0.284328  -0.012046   4.802507  -0.055537   0.006183   0.480608
    16  C   -0.012344   0.530772  -0.055537   4.733056  -0.032403  -0.018653
    17  H   -0.033161   0.397951   0.006183  -0.032403   0.647463  -0.000581
    18  C   -0.055769  -0.052918   0.480608  -0.018653  -0.000581   4.836927
    19  C   -0.051713  -0.022163  -0.009407   0.494542   0.007565   0.515999
    20  H    0.008548  -0.034756  -0.000223   0.401317  -0.011485   0.007858
    21  H    0.012233  -0.000481  -0.025124   0.006828   0.000038   0.380283
    22  H   -0.001289   0.009493   0.008715  -0.042504  -0.000159  -0.042059
    23  C    0.337597  -0.084160  -0.078364   0.006560  -0.023374   0.008039
    24  O   -0.097090   0.004113   0.535871  -0.000053  -0.000053  -0.052894
    25  H   -0.033863  -0.001134  -0.007903   0.000003  -0.000006   0.005029
              19         20         21         22         23         24
     1  C   -0.000000  -0.000000  -0.000000   0.000000   0.004769   0.000001
     2  C    0.000001  -0.000000  -0.000000  -0.000000  -0.054014  -0.000027
     3  C    0.000002  -0.000000   0.000000  -0.000000  -0.127028  -0.001822
     4  C    0.000000  -0.000000   0.000000  -0.000000  -0.001281  -0.000031
     5  C   -0.000000  -0.000000  -0.000000   0.000000   0.000287   0.000000
     6  C    0.000000  -0.000000   0.000000  -0.000000  -0.000204  -0.000000
     7  H   -0.000000   0.000000  -0.000000   0.000000   0.000158  -0.000000
     8  H    0.000000   0.000000   0.000000  -0.000000  -0.000861  -0.000071
     9  H   -0.000000   0.000000  -0.000000  -0.000000   0.000007   0.000000
    10  H   -0.000000   0.000000   0.000000  -0.000000   0.000005  -0.000000
    11  N    0.000028   0.000001   0.000007  -0.000000   0.531189  -0.051785
    12  S    0.000027   0.000022   0.000004  -0.000000   0.304524  -0.000144
    13  C   -0.051713   0.008548   0.012233  -0.001289   0.337597  -0.097090
    14  C   -0.022163  -0.034756  -0.000481   0.009493  -0.084160   0.004113
    15  C   -0.009407  -0.000223  -0.025124   0.008715  -0.078364   0.535871
    16  C    0.494542   0.401317   0.006828  -0.042504   0.006560  -0.000053
    17  H    0.007565  -0.011485   0.000038  -0.000159  -0.023374  -0.000053
    18  C    0.515999   0.007858   0.380283  -0.042059   0.008039  -0.052894
    19  C    4.726582  -0.045078  -0.042303   0.405932   0.000957   0.002381
    20  H   -0.045078   0.669651  -0.000121  -0.011434  -0.000365   0.000002
    21  H   -0.042303  -0.000121   0.652018  -0.011592  -0.000413   0.001984
    22  H    0.405932  -0.011434  -0.011592   0.656380  -0.000012  -0.000045
    23  C    0.000957  -0.000365  -0.000413  -0.000012   5.087488  -0.001203
    24  O    0.002381   0.000002   0.001984  -0.000045  -0.001203   7.440297
    25  H   -0.000081  -0.000001   0.000024   0.000007  -0.001810   0.367439
              25
     1  C   -0.000064
     2  C    0.002215
     3  C   -0.003937
     4  C   -0.000254
     5  C   -0.000018
     6  C    0.000009
     7  H    0.000001
     8  H    0.000809
     9  H   -0.000002
    10  H    0.000000
    11  N    0.090027
    12  S    0.003134
    13  C   -0.033863
    14  C   -0.001134
    15  C   -0.007903
    16  C    0.000003
    17  H   -0.000006
    18  C    0.005029
    19  C   -0.000081
    20  H   -0.000001
    21  H    0.000024
    22  H    0.000007
    23  C   -0.001810
    24  O    0.367439
    25  H    0.458109
 Mulliken charges:
               1
     1  C    0.012937
     2  C   -0.214633
     3  C    0.214125
     4  C   -0.034573
     5  C   -0.001700
     6  C   -0.007152
     7  H    0.021942
     8  H    0.024071
     9  H    0.023284
    10  H    0.024018
    11  N   -0.366661
    12  S    0.158782
    13  C   -0.069866
    14  C   -0.036104
    15  C    0.087662
    16  C   -0.012110
    17  H    0.032115
    18  C   -0.011018
    19  C    0.016730
    20  H    0.016063
    21  H    0.026614
    22  H    0.028568
    23  C    0.091508
    24  O   -0.146870
    25  H    0.122269
 Sum of Mulliken charges =  -0.00000
 Mulliken charges with hydrogens summed into heavy atoms:
               1
     1  C    0.034878
     2  C   -0.214633
     3  C    0.214125
     4  C   -0.010502
     5  C    0.021584
     6  C    0.016866
    11  N   -0.366661
    12  S    0.158782
    13  C   -0.069866
    14  C   -0.003990
    15  C    0.087662
    16  C    0.003953
    18  C    0.015596
    19  C    0.045297
    23  C    0.091508
    24  O   -0.024602
 Electronic spatial extent (au):  <R**2>=           4325.6427
 Charge=             -0.0000 electrons
 Dipole moment (field-independent basis, Debye):
    X=             -0.9104    Y=             -2.0563    Z=             -0.0000  Tot=              2.2488
 Quadrupole moment (field-independent basis, Debye-Ang):
   XX=            -83.0697   YY=            -88.9728   ZZ=           -104.4690
   XY=             -7.1246   XZ=             -0.0001   YZ=             -0.0001
 Traceless Quadrupole moment (field-independent basis, Debye-Ang):
   XX=              9.1008   YY=              3.1977   ZZ=            -12.2985
   XY=             -7.1246   XZ=             -0.0001   YZ=             -0.0001
 Octapole moment (field-independent basis, Debye-Ang**2):
  XXX=              2.8207  YYY=            -18.0505  ZZZ=              0.0001  XYY=             -8.5923
  XXY=              5.2046  XXZ=              0.0002  XZZ=              0.8345  YZZ=              4.4006
  YYZ=              0.0000  XYZ=             -0.0003
 Hexadecapole moment (field-independent basis, Debye-Ang**3):
 XXXX=          -2590.1039 YYYY=          -2588.5165 ZZZZ=           -113.7309 XXXY=            803.0004
 XXXZ=              0.0100 YYYX=            769.2474 YYYZ=             -0.0152 ZZZX=              0.0143
 ZZZY=             -0.0167 XXYY=           -836.8971 XXZZ=           -573.2905 YYZZ=           -545.3988
 XXYZ=             -0.0044 YYXZ=              0.0031 ZZXY=            359.2983
 N-N= 1.099990881174D+03 E-N=-4.612044459985D+03  KE= 1.023615388662D+03
 No NMR shielding tensors so no spin-rotation constants.
 Leave Link  601 at Wed Oct 28 01:48:21 2020, MaxMem=  7784628224 cpu:               2.8 elap:               0.5
 (Enter /gpfs/loomis/apps/avx/software/Gaussian/16-C.01_AVX/g16/l701.exe)
 ... and contract with generalized density number  0.
 Compute integral first derivatives.
 R6Disp: Adding Grimme-D2 dispersion energy 1st derivatives to the gradient.
 D1PCM: PCM CHGder 1st derivatives, ID1Alg=3 FixD1E=F DoIter=F DoCFld=F I1PDM=0.
 GePol: Maximum number of non-zero 1st derivatives   =     238
 Leave Link  701 at Wed Oct 28 01:48:24 2020, MaxMem=  7784628224 cpu:              18.6 elap:               3.0
 (Enter /gpfs/loomis/apps/avx/software/Gaussian/16-C.01_AVX/g16/l702.exe)
 L702 exits ... SP integral derivatives will be done elsewhere.
 Leave Link  702 at Wed Oct 28 01:48:24 2020, MaxMem=  7784628224 cpu:               0.2 elap:               0.1
 (Enter /gpfs/loomis/apps/avx/software/Gaussian/16-C.01_AVX/g16/l703.exe)
 Integral derivatives from FoFJK, PRISM(SPDF).
 Compute integral first derivatives, UseDBF=F ICtDFT=           0.
 Calling FoFJK, ICntrl=      2127 FMM=F ISym2X=0 I1Cent= 0 IOpClX= 0 NMat=1 NMatS=1 NMatT=0.
 FoFJK:  IHMeth= 1 ICntrl=    2127 DoSepK=T KAlg= 0 I1Cent=           0 FoldK=F
 IRaf=         1 NMat=       1 IRICut=       1 DoRegI=T DoRafI=F ISym2E= 0 IDoP0=0 IntGTp=1.
 FoFCou: FMM=F IPFlag=           0 FMFlag=      100000 FMFlg1=         800
         NFxFlg=           0 DoJE=F BraDBF=F KetDBF=F FulRan=T
         wScrn=  0.000000 ICntrl=      2527 IOpCl=  0 I1Cent=           0 NGrid=           0
         NMat0=    1 NMatS0=      1 NMatT0=    0 NMatD0=    1 NMtDS0=    0 NMtDT0=    0
 Symmetry not used in FoFCou.
 Leave Link  703 at Wed Oct 28 01:48:39 2020, MaxMem=  7784628224 cpu:             138.0 elap:              14.8
 (Enter /gpfs/loomis/apps/avx/software/Gaussian/16-C.01_AVX/g16/l716.exe)
 Dipole        =-3.58169775D-01-8.08993549D-01-2.44481860D-06
 -------------------------------------------------------------------
 Center     Atomic                   Forces (Hartrees/Bohr)
 Number     Number              X              Y              Z
 -------------------------------------------------------------------
      1        6           0.007713958   -0.003442399   -0.000000056
      2        6           0.011134192    0.000380296   -0.000000244
      3        6           0.012224705   -0.042096460   -0.000000893
      4        6          -0.014724663    0.003588328    0.000000116
      5        6          -0.001812506    0.001968545    0.000000119
      6        6          -0.003292951    0.008856908   -0.000000202
      7        1           0.004609108    0.004344118   -0.000000051
      8        1          -0.004493072   -0.004762396    0.000000059
      9        1          -0.004461535    0.001291783    0.000000002
     10        1          -0.001464664    0.004277079   -0.000000022
     11        7          -0.048666410   -0.002733913    0.000001360
     12       16           0.008047749   -0.001784988    0.000000019
     13        6          -0.034767669    0.052723542    0.000000701
     14        6           0.009160523    0.013547704   -0.000001627
     15        6          -0.018218474   -0.042783449   -0.000000604
     16        6           0.001660464    0.007574423    0.000000134
     17        1          -0.000873656    0.005561885   -0.000000036
     18        6          -0.003048442   -0.004259318    0.000001149
     19        6           0.014546567   -0.011865303    0.000000324
     20        1           0.003741241    0.001173670    0.000000056
     21        1          -0.001202975   -0.005816991   -0.000000395
     22        1           0.003235977   -0.002015397    0.000000020
     23        6           0.055334816   -0.020288930    0.000000417
     24        8          -0.014292806    0.067943063    0.000000849
     25        1           0.019910520   -0.031381801   -0.000001194
 -------------------------------------------------------------------
 Cartesian Forces:  Max     0.067943063 RMS     0.016987281
 Leave Link  716 at Wed Oct 28 01:48:39 2020, MaxMem=  7784628224 cpu:               0.3 elap:               0.1
 (Enter /gpfs/loomis/apps/avx/software/Gaussian/16-C.01_AVX/g16/l103.exe)

 GradGradGradGradGradGradGradGradGradGradGradGradGradGradGradGradGradGrad
 Berny optimization.
 FormGI is forming the generalized inverse of G from B-inverse, IUseBI=4.
 GSVD:  received Info=                   1 from GESDD.
 Internal  Forces:  Max     0.053190507 RMS     0.009175868
 Search for a local minimum.
 Step number   1 out of a maximum of  143
 All quantities printed in internal units (Hartrees-Bohrs-Radians)
 RMS Force = .92456D-02 SwitMx=.10000D-02 MixMth= 1
 Mixed Optimization -- RFO/linear search
 Second derivative matrix not updated -- first step.
 ITU=  0
     Eigenvalues ---    0.01494   0.01502   0.01712   0.01733   0.01806
     Eigenvalues ---    0.01845   0.01852   0.01877   0.01881   0.01894
     Eigenvalues ---    0.01931   0.01943   0.01968   0.01971   0.01976
     Eigenvalues ---    0.02002   0.02032   0.02054   0.02067   0.02085
     Eigenvalues ---    0.02130   0.02859   0.16000   0.16000   0.16000
     Eigenvalues ---    0.16000   0.16000   0.16000   0.16000   0.16003
     Eigenvalues ---    0.16221   0.22000   0.22023   0.22535   0.22588
     Eigenvalues ---    0.24479   0.24549   0.25000   0.25000   0.25000
     Eigenvalues ---    0.29610   0.31336   0.33633   0.33683   0.33766
     Eigenvalues ---    0.33832   0.33871   0.34028   0.34041   0.34099
     Eigenvalues ---    0.34116   0.36560   0.38560   0.39448   0.40689
     Eigenvalues ---    0.41928   0.42412   0.43238   0.43740   0.45008
     Eigenvalues ---    0.45541   0.45935   0.46091   0.48903   0.50979
     Eigenvalues ---    0.55680   0.639021000.000001000.000001000.00000
     Eigenvalues --- 1000.000001000.000001000.000001000.000001000.00000
     Eigenvalues --- 1000.000001000.000001000.000001000.000001000.00000
     Eigenvalues --- 1000.000001000.000001000.000001000.000001000.00000
     Eigenvalues --- 1000.000001000.000001000.000001000.000001000.00000
     Eigenvalues --- 1000.000001000.000001000.000001000.000001000.00000
     Eigenvalues --- 1000.000001000.000001000.000001000.000001000.00000
     Eigenvalues --- 1000.000001000.000001000.000001000.000001000.00000
     Eigenvalues --- 1000.000001000.000001000.000001000.000001000.00000
     Eigenvalues --- 1000.000001000.000001000.000001000.000001000.00000
     Eigenvalues --- 1000.000001000.000001000.000001000.000001000.00000
     Eigenvalues --- 1000.000001000.000001000.000001000.000001000.00000
     Eigenvalues --- 1000.000001000.000001000.000001000.000001000.00000
     Eigenvalues --- 1000.000001000.000001000.00000
 RFO step:  Lambda=-2.44434467D-02 EMin= 1.49448316D-02
 Linear search not attempted -- first point.
 Iteration  1 RMS(Cart)=  0.02558874 RMS(Int)=  0.00029073
 Iteration  2 RMS(Cart)=  0.00055854 RMS(Int)=  0.00004328
 Iteration  3 RMS(Cart)=  0.00000018 RMS(Int)=  0.00004328
 Iteration  1 RMS(Cart)=  0.00000000 RMS(Int)=  0.00000000
 ITry= 1 IFail=0 DXMaxC= 1.03D-01 DCOld= 1.00D+10 DXMaxT= 3.00D-01 DXLimC= 3.00D+00 Rises=F
 Variable       Old X    -DE/DX   Delta X   Delta X   Delta X     New X
                                 (Linear)    (Quad)   (Total)
    R1        2.63986  -0.00640   0.00000  -0.01392  -0.01392   2.62594
    R2        2.63965  -0.01233   0.00000  -0.02572  -0.02576   2.61388
    R3        2.07869  -0.00630   0.00000  -0.01745  -0.01745   2.06123
    R4        2.71411  -0.02471   0.00000  -0.05652  -0.05637   2.65774
    R5        3.27449  -0.00142   0.00000  -0.00342  -0.00344   3.27105
    R6        2.71054  -0.02016   0.00000  -0.04677  -0.04673   2.66382
    R7        2.57192   0.02296   0.00000   0.04337   0.04347   2.61539
    R8        2.64458  -0.00729   0.00000  -0.01407  -0.01407   2.63051
    R9        2.07954  -0.00649   0.00000  -0.01798  -0.01798   2.06156
   R10        2.67517  -0.01058   0.00000  -0.02305  -0.02309   2.65208
   R11        2.07548  -0.00461   0.00000  -0.01271  -0.01271   2.06277
   R12        2.07262  -0.00444   0.00000  -0.01216  -0.01216   2.06046
   R13        2.58038  -0.04084   0.00000  -0.07609  -0.07612   2.50426
   R14        3.29420  -0.00566   0.00000  -0.02428  -0.02443   3.26977
   R15        2.69260  -0.01760   0.00000  -0.04150  -0.04146   2.65114
   R16        2.76178  -0.02809   0.00000  -0.07736  -0.07738   2.68441
   R17        2.64613   0.03702   0.00000   0.07467   0.07465   2.72079
   R18        2.63048  -0.01099   0.00000  -0.02211  -0.02208   2.60840
   R19        2.07615  -0.00509   0.00000  -0.01402  -0.01402   2.06213
   R20        2.67300  -0.00664   0.00000  -0.01313  -0.01316   2.65984
   R21        2.47883   0.00842   0.00000   0.01197   0.01197   2.49080
   R22        2.68702  -0.02239   0.00000  -0.04984  -0.04985   2.63717
   R23        2.07137  -0.00376   0.00000  -0.01025  -0.01025   2.06112
   R24        2.66069  -0.01443   0.00000  -0.02894  -0.02898   2.63171
   R25        2.07726  -0.00601   0.00000  -0.01661  -0.01661   2.06065
   R26        2.07165  -0.00360   0.00000  -0.00981  -0.00981   2.06184
   R27        1.79949   0.05319   0.00000   0.09190   0.09192   1.89141
    A1        2.06347  -0.00238   0.00000  -0.00726  -0.00725   2.05622
    A2        2.09846   0.00153   0.00000   0.00513   0.00512   2.10358
    A3        2.12126   0.00086   0.00000   0.00213   0.00213   2.12339
    A4        2.16869   0.00161   0.00000   0.00494   0.00497   2.17366
    A5        2.17587   0.00705   0.00000   0.01917   0.01903   2.19490
    A6        1.93862  -0.00866   0.00000  -0.02411  -0.02400   1.91462
    A7        2.02660   0.00332   0.00000   0.00798   0.00796   2.03457
    A8        1.98735  -0.00186   0.00000  -0.00473  -0.00460   1.98274
    A9        2.26923  -0.00147   0.00000  -0.00325  -0.00336   2.26588
   A10        2.08264  -0.00007   0.00000   0.00005   0.00010   2.08274
   A11        2.09409  -0.00003   0.00000  -0.00012  -0.00014   2.09395
   A12        2.10645   0.00010   0.00000   0.00007   0.00004   2.10650
   A13        2.14074  -0.00203   0.00000  -0.00587  -0.00589   2.13485
   A14        2.07115   0.00073   0.00000   0.00157   0.00158   2.07274
   A15        2.07130   0.00130   0.00000   0.00430   0.00431   2.07560
   A16        2.08422  -0.00045   0.00000   0.00016   0.00011   2.08433
   A17        2.09969   0.00021   0.00000  -0.00035  -0.00033   2.09936
   A18        2.09927   0.00024   0.00000   0.00019   0.00022   2.09949
   A19        1.93560   0.00874   0.00000   0.02795   0.02799   1.96359
   A20        1.54786   0.00860   0.00000   0.02944   0.02928   1.57714
   A21        2.08334   0.00223   0.00000   0.01100   0.01108   2.09442
   A22        2.13644  -0.00759   0.00000  -0.02314  -0.02322   2.11322
   A23        2.06341   0.00536   0.00000   0.01215   0.01214   2.07555
   A24        2.09493   0.00567   0.00000   0.02050   0.02060   2.11553
   A25        2.08752  -0.00097   0.00000  -0.00031  -0.00036   2.08717
   A26        2.10073  -0.00471   0.00000  -0.02019  -0.02024   2.08049
   A27        2.08325  -0.00566   0.00000  -0.02140  -0.02144   2.06181
   A28        2.02730   0.01521   0.00000   0.04500   0.04499   2.07229
   A29        2.17264  -0.00955   0.00000  -0.02360  -0.02355   2.14909
   A30        2.10558  -0.00670   0.00000  -0.02854  -0.02852   2.07706
   A31        2.09066   0.00316   0.00000   0.01309   0.01308   2.10374
   A32        2.08694   0.00354   0.00000   0.01545   0.01544   2.10238
   A33        2.08970   0.00332   0.00000   0.01305   0.01295   2.10265
   A34        2.07714  -0.00148   0.00000  -0.00530  -0.00525   2.07189
   A35        2.11635  -0.00184   0.00000  -0.00775  -0.00770   2.10865
   A36        2.10957   0.00115   0.00000   0.00540   0.00533   2.11490
   A37        2.08453  -0.00043   0.00000  -0.00226  -0.00223   2.08230
   A38        2.08909  -0.00071   0.00000  -0.00314  -0.00311   2.08598
   A39        2.01535  -0.00683   0.00000  -0.02855  -0.02866   1.98669
   A40        2.21299  -0.00121   0.00000  -0.00163  -0.00150   2.21148
   A41        2.05484   0.00804   0.00000   0.03018   0.03016   2.08501
   A42        1.96020  -0.01138   0.00000  -0.06660  -0.06661   1.89359
    D1       -0.00000   0.00000   0.00000   0.00000   0.00000  -0.00000
    D2        3.14159   0.00000   0.00000   0.00000   0.00000  -3.14159
    D3        3.14159  -0.00000   0.00000  -0.00000  -0.00000   3.14159
    D4       -0.00000   0.00000   0.00000   0.00000   0.00000  -0.00000
    D5       -0.00000   0.00000   0.00000   0.00000   0.00000  -0.00000
    D6        3.14159  -0.00000   0.00000  -0.00000  -0.00000   3.14159
    D7        3.14159   0.00000   0.00000   0.00000   0.00000   3.14159
    D8       -0.00000  -0.00000   0.00000  -0.00000  -0.00000  -0.00000
    D9        0.00000  -0.00000   0.00000  -0.00000  -0.00000   0.00000
   D10       -3.14159   0.00000   0.00000   0.00000   0.00000  -3.14159
   D11       -3.14159  -0.00000   0.00000  -0.00000  -0.00000  -3.14159
   D12        0.00000   0.00000   0.00000   0.00000   0.00000   0.00000
   D13        3.14159   0.00000   0.00000   0.00000   0.00000   3.14159
   D14       -0.00001   0.00000   0.00000   0.00000   0.00000  -0.00000
   D15       -0.00000   0.00000   0.00000   0.00000   0.00000  -0.00000
   D16        3.14159   0.00000   0.00000   0.00000   0.00000   3.14159
   D17        3.14159  -0.00000   0.00000  -0.00000  -0.00000   3.14159
   D18        0.00000  -0.00000   0.00000  -0.00000  -0.00000  -0.00000
   D19        0.00001  -0.00000   0.00000  -0.00001  -0.00001   0.00000
   D20       -3.14159  -0.00000   0.00000  -0.00000  -0.00000  -3.14159
   D21        0.00000   0.00000   0.00000   0.00000   0.00000   0.00000
   D22       -3.14159   0.00000   0.00000   0.00000   0.00000  -3.14159
   D23        3.14159  -0.00000   0.00000  -0.00000  -0.00000   3.14159
   D24        0.00000  -0.00000   0.00000  -0.00000  -0.00000   0.00000
   D25        0.00000  -0.00000   0.00000  -0.00000  -0.00000   0.00000
   D26       -3.14159   0.00000   0.00000   0.00000   0.00000  -3.14159
   D27       -3.14159  -0.00000   0.00000  -0.00000  -0.00000  -3.14159
   D28        0.00000   0.00000   0.00000   0.00000   0.00000   0.00000
   D29       -0.00001   0.00000   0.00000   0.00001   0.00001  -0.00001
   D30        3.14156   0.00000   0.00000   0.00002   0.00002   3.14158
   D31        0.00001  -0.00000   0.00000  -0.00001  -0.00001   0.00001
   D32       -3.14156  -0.00000   0.00000  -0.00002  -0.00002  -3.14158
   D33        0.00003  -0.00000   0.00000  -0.00001  -0.00001   0.00002
   D34       -3.14157  -0.00000   0.00000  -0.00000  -0.00000  -3.14158
   D35       -3.14157  -0.00000   0.00000  -0.00001  -0.00001  -3.14157
   D36        0.00002   0.00000   0.00000  -0.00000  -0.00000   0.00002
   D37       -0.00003   0.00000   0.00000   0.00001   0.00001  -0.00002
   D38        3.14156   0.00000   0.00000   0.00002   0.00002   3.14157
   D39        3.14156   0.00000   0.00000   0.00001   0.00001   3.14157
   D40       -0.00004   0.00000   0.00000   0.00001   0.00001  -0.00002
   D41       -3.14159   0.00000   0.00000   0.00000   0.00000  -3.14158
   D42       -0.00001   0.00000   0.00000   0.00002   0.00002   0.00000
   D43        0.00001   0.00000   0.00000   0.00000   0.00000   0.00001
   D44        3.14158   0.00000   0.00000   0.00002   0.00002  -3.14159
   D45       -0.00001   0.00000   0.00000   0.00001   0.00001   0.00000
   D46        3.14158   0.00000   0.00000   0.00001   0.00001   3.14159
   D47       -3.14159   0.00000   0.00000  -0.00000  -0.00000  -3.14159
   D48        0.00000  -0.00000   0.00000  -0.00000  -0.00000   0.00000
   D49        0.00002  -0.00000   0.00000  -0.00000  -0.00000   0.00001
   D50       -3.14159   0.00000   0.00000   0.00000   0.00000  -3.14159
   D51       -3.14157  -0.00000   0.00000  -0.00001  -0.00001  -3.14158
[...]
 00002,0.00115049,-0.00014062,0.00000004,-0.00007969,-0.00005446,0.,0.0
 0005959,0.00003959,0.,0.00009600,-0.00005396,0.,0.00007209,-0.00004377
 ,0.,0.00534581,0.00386638,-0.00000040,-0.00218701,-0.00193176,0.000000
 33,0.05882981,0.04500141,-0.00000203,0.08845024,-0.24108799,0.00000067
 ,0.03236204,-0.06959859,0.00000057,0.01194366,0.68473453,0.00000007,-0
 .00000007,0.00011450,-0.00000016,-0.00000003,0.00071269,-0.00000009,0.
 00000019,-0.00063813,0.00000010,-0.00000005,-0.00019250,0.,0.00000010,
 0.00006792,-0.00000009,-0.00000004,-0.00003987,0.,0.,0.00001084,0.,0.,
 0.00002652,0.,0.,0.00002211,0.,0.,-0.00004617,0.00000031,-0.00000024,0
 .00017118,-0.00000003,0.00000030,-0.00123508,0.00000046,-0.00000119,0.
 00829091,0.00000401,-0.00000086,-0.06267129,-0.00000075,0.00000073,-0.
 00500181,-0.00001966,-0.00001360,0.12719496,0.00039285,-0.00002264,0.0
 0000001,-0.00091360,0.00045979,-0.00000034,0.00021350,-0.00002923,0.00
 000002,0.00009379,0.00003166,0.00000003,0.00007001,0.00011094,0.,-0.00
 013013,-0.00013050,0.00000001,-0.00002369,-0.00001867,-0.00000001,0.00
 004971,0.00000081,0.,0.00001639,-0.00000254,0.,0.00004047,-0.00001703,
 0.,0.00059126,0.00054084,-0.00000002,-0.00217160,0.00240137,0.00000030
 ,-0.00135345,-0.02781355,0.00000073,-0.07495497,-0.06789742,0.00000291
 ,-0.00510094,0.00095131,0.00000035,0.00993424,0.02292091,-0.00000066,0
 .07618229,0.00005614,0.00005909,0.,0.00011353,0.00089444,-0.00000007,0
 .00050540,-0.00042586,0.,0.00003932,0.00016411,0.00000003,0.00001523,0
 .00004422,0.,-0.00006159,-0.00002559,0.,-0.00002912,0.00000360,0.,0.00
 004961,-0.00000617,0.,0.00000082,0.00000375,0.,0.00001682,-0.00000217,
 0.,-0.00079821,0.00028490,-0.00000009,0.00193042,-0.00121888,-0.000000
 30,0.00072324,-0.00475744,0.00000025,-0.06686746,-0.32514535,0.0000097
 2,-0.00064253,0.00210267,0.00000021,-0.00909330,-0.01561354,0.00000075
 ,0.06913672,0.34611724,-0.00000008,0.00000002,-0.00002549,0.00000016,-
 0.00000005,-0.00090203,0.00000002,-0.00000009,0.00020286,-0.00000005,0
 .,0.00010728,0.,-0.00000004,-0.00003518,0.00000004,0.00000004,0.000038
 35,0.,0.,-0.00001790,0.,0.,-0.00003291,0.,0.,-0.00000256,0.,0.,0.00003
 228,-0.00000030,-0.00000007,0.00002475,0.00000011,-0.00000051,0.002082
 56,-0.00000038,0.00000102,0.00268453,0.00000335,0.00001025,-0.03744399
 ,0.00000023,0.00000011,0.00623454,-0.00000002,-0.00000026,0.00528968,-
 0.00000331,-0.00001041,0.02393054,0.00012125,0.00044107,0.00000003,0.0
 0038356,0.00011393,-0.00000013,0.00156572,0.00002307,-0.00000013,-0.00
 046850,0.00004413,-0.00000001,-0.00008657,-0.00050254,-0.00000001,0.00
 043288,-0.00006282,0.00000002,-0.00004714,0.00001870,0.,0.00007484,-0.
 00000397,0.,0.00003554,-0.00001927,0.,0.00003013,-0.00000673,0.,0.0011
 5177,0.00621271,-0.00000061,-0.00047801,0.00003324,0.00000026,0.053911
 35,0.04249104,-0.00000206,-0.06781369,0.01926469,0.00000110,-0.1977582
 2,0.05399209,0.00000256,0.00849821,-0.08900807,0.00000184,-0.00089598,
 0.00033495,0.00000010,0.69580438,0.00049489,-0.00036657,-0.00000004,-0
 .00107547,-0.00004531,-0.00000002,-0.00016773,0.00018185,0.00000004,0.
 00046157,-0.00011450,0.00000001,0.00012143,0.00053932,0.00000002,-0.00
 052368,-0.00010245,-0.00000001,0.00000057,0.00003050,0.,0.00000755,-0.
 00001233,0.,-0.00001876,0.00001886,0.,0.00001045,0.00000119,0.,-0.0006
 9594,-0.00035897,0.00000012,0.00167064,-0.00035738,-0.00000005,0.00837
 239,-0.03465028,0.00000080,0.01521803,-0.00637258,-0.00000030,0.117133
 27,-0.23422794,0.00000069,-0.03697152,0.00448309,0.00000102,0.00014191
 ,0.00058255,-0.00000004,0.04585138,0.73720013,-0.00000004,0.,-0.000116
 46,0.00000006,0.00000005,-0.00011747,0.,-0.00000009,-0.00090311,-0.000
 00002,0.00000001,0.00000298,0.,-0.00000001,0.00003751,0.,0.00000002,0.
 00002992,0.,0.,-0.00003659,0.,0.,-0.00002733,0.,0.,-0.00000222,0.,0.,0
 .00002824,0.00000014,0.00000003,0.00148434,-0.00000017,0.,-0.00034172,
 -0.00000139,-0.00000061,0.00872124,0.00000118,-0.00000046,-0.00316471,
 0.00000064,0.00000273,-0.07086644,0.00000101,0.00000245,0.00773592,0.,
 -0.00000005,-0.00083348,-0.00001619,-0.00001637,0.12755974,0.00036068,
 -0.00078935,-0.00000006,-0.00116298,0.00038587,0.00000011,-0.00070752,
 0.00006144,0.00000011,0.00078851,-0.00017368,0.00000001,0.00013218,0.0
 0095461,0.00000002,-0.00093335,0.00000150,-0.00000003,0.00004986,0.000
 03805,0.,-0.00004564,-0.00003369,0.,-0.00006847,0.00004515,0.,-0.00004
 553,0.00002866,0.,-0.00236442,-0.00261016,0.00000027,0.00148759,0.0006
 6646,-0.00000017,-0.03661915,-0.02260269,0.00000121,0.05905427,0.00746
 600,-0.00000140,-0.05794951,0.05091586,0.00000042,-0.14208972,-0.01538
 674,0.00000273,-0.00313070,0.00417358,0.00000026,-0.34384381,-0.102289
 99,0.00000922,0.72227781,0.00011037,-0.00029676,-0.00000001,-0.0002780
 1,0.00023945,0.00000009,0.00001182,-0.00095567,0.00000003,0.00009313,0
 .00009745,0.,0.00007340,0.00024951,0.,-0.00032572,0.00010053,0.,0.0000
 2490,0.00000713,0.,-0.00001541,-0.00000937,0.,-0.00003521,0.00002228,0
 .,-0.00001403,0.00001185,0.,-0.00378892,-0.00209121,0.00000029,0.00109
 415,0.00032188,-0.00000022,-0.04133592,-0.03130179,0.00000156,0.064339
 27,-0.05313435,0.,-0.00363409,0.06960508,-0.00000172,-0.09015270,-0.32
 778784,0.00000913,0.00336574,-0.00129622,0.00000002,-0.02974480,-0.152
 69023,0.00000299,-0.03196593,0.71566148,0.,0.00000003,0.00001314,0.000
 00003,-0.00000006,-0.00000367,-0.00000001,0.00000007,0.00021280,-0.000
 00002,-0.00000001,0.00001254,0.,-0.00000003,-0.00001738,0.00000003,0.,
 0.00000267,0.,0.,-0.00000010,0.,0.,0.00001419,0.,0.,-0.00000263,0.,0.,
 -0.00000800,0.00000020,0.00000010,-0.00023502,-0.00000004,0.00000001,0
 .00002444,0.00000197,0.00000122,-0.00430604,-0.00000304,0.00000115,0.0
 0747239,0.00000152,-0.00000311,-0.00036841,0.00000431,0.00000675,-0.06
 402511,0.00000025,0.00000009,0.00748633,0.00000728,0.00000482,-0.05971
 439,-0.00001314,-0.00001332,0.14406517,0.00000839,-0.00007893,0.,-0.00
 005091,0.00013803,0.,-0.00006804,-0.00005859,-0.00000001,0.00006844,0.
 00002567,0.,-0.00000820,0.00007652,0.,-0.00008402,0.00001277,0.,0.0000
 0567,0.00000775,0.,-0.00000200,-0.00000659,0.,-0.00001034,0.00000888,0
 .,-0.00000961,0.00000681,0.,-0.00040092,0.00034114,0.00000001,0.000053
 36,0.00002936,0.,-0.00074620,0.00398467,0.00000019,-0.01568990,-0.0099
 6550,0.00000076,0.00040311,0.00041335,-0.00000004,-0.32562338,-0.07946
 148,0.00001080,0.00072502,0.00002770,-0.00000015,0.00163803,-0.0010495
 3,0.00000018,-0.00263536,0.00218478,0.00000008,0.34243164,0.00000364,0
 .00001467,0.,0.00001461,-0.00006577,0.,0.00007050,0.00006299,0.,-0.000
 01087,-0.00003987,0.,0.00000956,-0.00000768,0.,0.00001249,-0.00000639,
 0.,0.00000057,-0.00000269,0.,-0.00000018,0.00000116,0.,0.00000232,-0.0
 0000401,0.,0.00000178,-0.00000091,0.,0.00030450,-0.00023650,-0.0000000
 2,0.00000791,0.00005628,0.,0.00279526,-0.00272465,0.00000010,0.0222981
 1,0.00945660,-0.00000084,0.00067973,-0.00144201,0.,-0.08031420,-0.0816
 8449,0.00000370,-0.00021468,0.00094154,-0.00000012,-0.00014889,-0.0052
 1146,0.00000029,-0.02974534,-0.00280140,0.00000096,0.08476560,0.081877
 31,0.,0.,0.00000132,0.,0.,-0.00001451,0.,-0.00000002,-0.00018476,0.,0.
 ,-0.00000812,0.,0.,0.00001758,0.,0.,-0.00000573,0.,0.,0.00000225,0.,0.
 ,-0.00000690,0.,0.,0.00000262,0.,0.,0.00000362,-0.00000003,-0.00000003
 ,-0.00014455,0.00000001,-0.00000003,0.00005742,0.00000008,0.00000017,0
 .00741267,0.00000017,0.00000011,0.00170518,-0.00000016,0.00000008,-0.0
 0065251,0.00001075,0.00000388,-0.03354845,-0.00000015,-0.00000015,-0.0
 0451581,0.00000030,0.00000026,0.00626452,0.00000069,-0.00000020,0.0016
 4080,-0.00001171,-0.00000398,0.02505943,-0.00005622,-0.00001613,0.,0.0
 0005803,0.00010471,0.,-0.00007295,-0.00001975,0.,-0.00000136,0.0000072
 6,0.,-0.00000902,-0.00000469,0.,0.00000457,0.00001503,0.,0.00000238,-0
 .00000400,0.,-0.00000600,0.00000076,0.,-0.00000101,0.00000044,0.,-0.00
 000529,0.00000041,0.,0.00018507,-0.00030321,0.00000003,-0.00026913,0.0
 0015702,0.,-0.00314276,0.00290849,0.00000016,-0.00145797,0.00035091,0.
 ,0.00947316,0.02292505,-0.00000071,-0.00503639,-0.00075446,0.00000032,
 0.00010415,-0.00005502,-0.00000002,-0.07282008,-0.06496427,0.00000260,
 -0.00150288,-0.02949197,0.00000090,-0.00025010,-0.00140871,0.00000005,
 0.07125994,0.00002910,0.00008581,0.,-0.00003062,-0.00013215,0.,0.00009
 246,0.00004086,0.,-0.00005932,-0.00000490,0.,0.00000671,-0.00006996,0.
 ,0.00007081,-0.00002037,0.,-0.00000608,-0.00000136,0.,0.00000818,0.000
 00484,0.,0.00000986,-0.00000580,0.,0.00001127,-0.00000549,0.,0.0001638
 5,0.00024970,0.,0.00015652,-0.00023940,-0.00000001,0.00380051,-0.00157
 126,0.00000008,0.00079747,0.00055209,-0.00000006,-0.01042559,-0.015975
 53,0.00000081,-0.00129983,0.00185612,0.00000021,-0.00004093,-0.0000914
 4,-0.00000002,-0.06430037,-0.33209530,0.00000965,0.00169745,-0.0036380
 2,0.00000011,0.00005640,-0.00026324,0.00000002,0.07072772,0.34929975,0
 .,0.,0.00001281,0.,0.00000002,-0.00002613,0.,0.,-0.00000045,0.,0.,-0.0
 0000032,0.,0.,-0.00000382,0.,0.,0.00000363,0.,0.,0.00000083,0.,0.,0.00
 000361,0.,0.,0.00000192,0.,0.,-0.00000176,-0.00000003,0.,-0.00002755,-
 0.00000002,-0.00000002,-0.00005923,0.00000017,0.00000009,0.00567435,0.
 00000003,-0.00000004,-0.00085785,0.00000013,-0.00000004,0.00460352,0.0
 0000030,0.00000022,0.00761638,-0.00000003,-0.00000001,-0.00076858,0.00
 000281,0.00000969,-0.03486202,-0.00000004,0.00000081,0.00238760,0.0000
 0002,0.00000004,0.00041850,-0.00000300,-0.00001053,0.02455757,0.000010
 91,-0.00003219,0.,-0.00001236,0.00009907,0.,0.00008128,-0.00005575,0.,
 0.00002482,0.00000975,0.,-0.00000060,0.00003537,0.,-0.00004047,0.00000
 840,0.,0.00000148,0.00000453,0.,0.00000196,-0.00000451,0.,-0.00000643,
 0.00000413,0.,-0.00000435,0.00000416,0.,-0.00017471,0.00023680,-0.0000
 0003,0.00001037,0.00013392,0.00000002,-0.00056772,-0.00070497,0.000000
 01,0.00127087,-0.00203909,0.00000016,-0.00356971,-0.00319452,0.0000003
 7,0.00849019,-0.00724051,0.00000007,0.00029504,-0.00037036,-0.00000001
 ,-0.01524676,0.02254966,-0.00000010,-0.20667564,0.14281823,0.00000029,
 0.00063717,0.00033811,-0.00000010,0.00101634,-0.00014397,-0.00000014,0
 .21570793,0.00003310,0.00001441,0.,-0.00008134,0.00006123,-0.00000002,
 0.00003936,0.00001586,0.,-0.00000116,0.00000206,0.,0.00001077,-0.00000
 227,0.,0.00000121,-0.00001469,0.,-0.00000615,-0.00000211,0.,0.00000648
 ,0.00000191,0.,0.00000492,-0.00000200,0.,0.00000676,-0.00000396,0.,0.0
 0010504,-0.00004017,0.,-0.00004512,0.00000534,0.00000003,-0.00106315,0
 .00003479,0.,-0.00257236,-0.00536972,0.00000039,-0.00290999,0.00032880
 ,0.00000030,0.02418290,-0.01363311,-0.00000017,0.00115844,-0.00095325,
 -0.00000004,-0.00875223,0.00882047,0.00000007,0.14310138,-0.19784952,0
 .00000065,-0.00019152,0.00105352,-0.00000012,0.00019926,0.00073920,-0.
 00000014,-0.15314498,0.20622117,-0.00000001,0.00000001,-0.00002632,0.0
 0000003,0.,-0.00011794,0.00000001,-0.00000002,0.00013224,-0.00000002,0
 .,0.00001701,0.,-0.00000002,-0.00000882,0.00000002,0.,0.00000287,0.,0.
 ,0.00000260,0.,0.,-0.00000550,0.,0.,-0.00000066,0.,0.,0.00000950,-0.00
 000005,-0.00000003,-0.00018145,0.00000002,-0.00000005,0.00026061,0.000
 00007,0.00000006,-0.00108060,0.00000022,0.00000035,0.00657039,0.000000
 42,0.00000011,0.00861491,-0.00000067,0.00000055,0.00469204,-0.00000006
 ,0.00000006,-0.00022840,0.00000054,-0.00000060,0.00454989,0.00000036,0
 .00000076,-0.04050724,-0.00000013,-0.00000012,-0.00367517,-0.00000014,
 -0.00000015,-0.00473298,-0.00000057,-0.00000092,0.02682608,-0.00500856
 ,-0.00526270,-0.00000012,-0.00281095,0.01686684,0.00000068,-0.08681305
 ,0.05313428,-0.00000010,0.01465590,-0.00609106,0.,-0.00247518,0.009631
 01,0.00000026,-0.00517108,-0.00473082,-0.00000040,0.00018033,-0.001063
 71,0.,-0.00049346,-0.00006334,-0.00000002,0.00024164,-0.00000858,0.000
 00004,-0.00074806,0.00003252,-0.00000005,-0.43185700,-0.05003517,-0.00
 000966,-0.04964870,-0.03952978,-0.00000206,-0.16813039,0.07538410,0.00
 000328,-0.04679503,0.02819422,0.00000063,0.03020010,0.01521135,-0.0000
 0051,0.00068931,-0.01529754,0.00000042,0.00047138,0.00113207,0.,-0.004
 07867,-0.00118382,0.00000008,0.00489106,0.00536518,-0.00000035,-0.0004
 1861,0.00078681,0.00000006,0.00053708,-0.00113948,0.00000004,0.0002553
 9,0.00001905,0.00000001,0.76841324,0.00189480,-0.00152928,-0.00000008,
 0.02912962,-0.03379092,-0.00000118,0.02044413,0.00647249,0.00000057,0.
 00606795,-0.01007870,-0.00000037,-0.00120027,0.00518302,0.00000011,-0.
 00284446,-0.00410221,-0.00000024,-0.00001266,-0.00073265,0.,-0.0004851
 0,0.00011761,0.,0.00022449,-0.00046957,0.00000002,-0.00035374,0.000105
 34,0.00000002,-0.07009497,-0.12599396,-0.00000224,-0.01423296,-0.16088
 708,-0.00000541,0.07422387,-0.18808094,-0.00000251,0.01516723,0.011737
 72,-0.00000012,0.01588395,-0.03492592,-0.00000048,-0.00874810,0.010359
 04,0.00000011,-0.00264574,-0.00090246,0.00000003,0.00134570,-0.0075920
 9,0.00000045,-0.00693531,-0.00632020,0.00000036,-0.00123002,0.00081666
 ,-0.00000003,0.00121836,-0.00030608,-0.00000003,-0.00031843,0.00004951
 ,0.,-0.05876691,0.54005346,0.00000005,-0.00000036,0.00082357,0.0000006
 7,-0.00000086,0.00489749,-0.00000127,0.00000165,0.00305808,0.00000071,
 -0.00000080,0.00289196,-0.00000009,0.00000064,0.00073149,-0.00000049,-
 0.00000034,0.00101066,0.00000002,-0.00000004,-0.00062035,-0.00000002,0
 .00000001,-0.00039000,0.00000003,0.,-0.00047682,-0.00000003,0.00000001
 ,-0.00013693,-0.00000858,-0.00000355,-0.06461786,-0.00000075,-0.000006
 01,-0.03714421,0.00000273,-0.00000263,-0.05389085,0.00000092,-0.000000
 94,-0.00217507,-0.00000048,0.00000007,0.00392409,0.00000021,0.00000065
 ,0.00656016,-0.00000014,-0.00000005,-0.00344939,0.00000019,0.00000003,
 0.00478142,-0.00000024,-0.00000004,-0.00101289,0.00000003,0.,0.0009466
 4,-0.00000002,0.00000003,-0.00005533,-0.00000003,-0.00000002,-0.000706
 57,0.00000625,0.00001158,0.13550591,-0.00020958,0.00216381,0.00000023,
 0.00153393,0.00157867,0.00000018,0.01021891,-0.00120866,-0.00000041,-0
 .00203360,0.00068717,-0.00000008,-0.00024937,-0.00222767,-0.00000006,0
 .00203525,0.00031573,0.00000006,-0.00017997,0.00020650,0.,0.00023664,-
 0.00006651,0.,0.00001394,-0.00000426,0.,0.00005495,0.00004186,-0.00000
 002,0.00342752,0.03490333,-0.00000268,-0.00065452,0.00064691,0.0000000
 1,-0.01939873,-0.03566257,0.00000228,-0.00644469,0.00219613,-0.0000000
 5,-0.34973155,-0.09268557,0.00001218,-0.00425410,-0.01374683,0.0000003
 4,-0.00110549,-0.00064381,0.00000012,-0.06163709,0.00153321,0.00000245
 ,0.01310490,0.01151952,-0.00000035,-0.00003777,-0.00026245,0.00000007,
 0.00225842,-0.00031287,-0.00000026,-0.00143146,0.00006711,0.,-0.025420
 99,0.01375194,0.00000002,0.55141425,-0.00064954,-0.00049844,-0.0000001
 7,0.00060173,-0.00281474,-0.00000007,-0.00936333,-0.00133627,0.0000008
 0,-0.00005914,-0.00037166,-0.00000002,0.00040475,0.00023228,-0.0000000
 1,-0.00010500,-0.00009637,0.,0.00011078,-0.00027744,0.,0.00007614,0.00
 015304,0.00000004,0.00011856,-0.00011512,0.,0.00006801,-0.00007784,0.,
 0.01929787,-0.03868097,0.00000191,-0.00080707,-0.00239858,-0.00000013,
 -0.05142503,-0.01416629,0.00000215,0.00914817,-0.00706140,0.00000004,-
 0.06136274,-0.13825043,0.00000252,-0.00278778,0.00706392,-0.00000009,-
 0.00165562,-0.00043698,0.00000003,0.03769527,0.02087008,-0.00000137,-0
 .00214417,-0.01130103,0.00000050,-0.00010300,0.00043240,-0.00000004,-0
 .00203724,0.00181550,-0.00000005,0.00161169,0.00052121,-0.00000002,0.0
 0589158,0.00446679,0.00000011,-0.03156255,0.42908970,0.00000007,-0.000
 00003,-0.00017687,-0.00000016,0.00000004,-0.00006296,-0.00000010,0.000
 00040,0.00158953,0.00000012,-0.00000005,0.00008164,-0.00000001,0.00000
 010,-0.00006406,-0.00000007,-0.00000004,0.00003959,0.,0.,-0.00000075,0
 .,0.,0.00000856,0.,0.,-0.00001323,0.,0.,-0.00000181,-0.00000138,-0.000
 00005,0.00425301,0.00000015,0.00000021,-0.00036704,0.00000214,0.000001
 80,0.01427579,0.00000041,0.00000022,0.00686733,0.00001332,0.00000416,-
 0.05346081,0.00000011,0.00000036,-0.00097380,0.00000008,0.,0.00017901,
 0.00000171,-0.00000020,0.00760964,-0.00000023,-0.00000012,0.00516884,-
 0.00000001,-0.00000001,-0.00075132,-0.00000017,-0.00000011,-0.00351974
 ,0.00000004,0.,-0.00016510,0.00000099,-0.00000107,-0.00363858,-0.00002
 134,0.00000032,0.04760490,-0.00003748,-0.00067644,-0.00000003,-0.00120
 419,-0.00048128,-0.00000008,-0.00386916,0.00283876,-0.00000011,0.00080
 002,-0.00019186,0.00000006,0.00008625,0.00056146,0.00000005,-0.0005228
 9,-0.00008803,-0.00000002,0.00007418,-0.00008092,0.,-0.00027971,0.0000
 4333,-0.00000003,0.00003046,-0.00002110,0.,-0.00000555,-0.00004976,0.,
 -0.01257337,-0.01064091,0.00000231,-0.00158306,-0.00289727,-0.00000041
 ,-0.00048116,0.00491327,-0.00000024,0.00057169,0.00092841,0.00000003,-
 0.05186449,0.02991238,0.00000244,0.00071354,0.00203982,-0.00000005,0.0
 0060042,0.00030581,-0.00000006,0.00152685,-0.00462625,0.00000034,-0.00
 237217,-0.00021776,0.00000011,0.00006453,0.00001382,-0.00000002,-0.000
 26801,0.00013075,0.,-0.00007353,-0.00016778,-0.00000004,0.00933431,-0.
 01148335,0.00000033,-0.11150978,0.08903764,0.00000435,0.17284231,0.000
 59279,0.00126583,0.00000023,0.00066818,0.00447999,0.00000036,0.0154759
 8,-0.00257772,-0.00000093,-0.00100860,0.00132944,-0.00000002,-0.000626
 17,-0.00120735,-0.00000003,0.00079783,0.00049029,0.00000002,-0.0001933
 4,0.00042563,0.00000002,0.00006225,-0.00024683,-0.00000004,-0.00019209
 ,0.00018226,0.,-0.00007855,0.00012886,-0.00000001,-0.01014293,0.010443
 98,-0.00000337,0.00125819,0.00526043,0.00000056,0.00074927,-0.00873690
 ,0.00000014,-0.00419638,-0.00071126,-0.00000012,0.02683762,0.02314867,
 -0.00000107,-0.00019918,-0.00644811,0.00000012,-0.00073191,-0.00032275
 ,0.00000010,-0.01531225,0.00146933,0.00000023,0.00514106,0.00515696,-0
 .00000027,0.00006573,-0.00022206,0.00000006,0.00044402,-0.00022359,-0.
 00000001,-0.00060453,0.00000132,0.00000003,-0.02847610,-0.00364955,0.0
 0000085,0.10877184,-0.24676134,-0.00000593,-0.09910273,0.21732445,-0.0
 0000014,-0.00000012,0.00031257,0.00000016,-0.00000044,0.00039627,-0.00
 000107,-0.00000056,-0.00174592,-0.00000003,0.,-0.00021897,0.00000005,0
 .,0.00004266,-0.00000002,0.00000002,-0.00006148,0.00000002,-0.00000004
 ,0.00002973,-0.00000002,0.00000003,0.00002013,0.00000001,-0.00000001,0
 .00001866,0.,0.,-0.00001113,0.00000215,0.00000025,-0.00975592,-0.00000
 026,-0.00000051,0.00104240,-0.00000017,0.00000022,-0.00202277,0.000000
 03,-0.00000010,-0.00042289,0.00000002,-0.00000210,-0.00091538,0.000000
 07,0.00000017,-0.00013357,0.,0.,-0.00003700,0.00000041,0.00000012,0.00
 218057,-0.00000014,-0.00000007,0.00169999,0.,0.,-0.00002471,-0.0000000
 1,0.,-0.00036496,0.,0.,-0.00024138,0.00000053,0.00000052,0.00318337,0.
 00000730,-0.00000646,-0.02448179,-0.00000890,0.00000910,0.03151151\\-0
 .00165932,0.00196588,-0.00000003,0.00253664,0.00500992,-0.00000007,0.0
 0587174,0.00074999,0.00000049,0.00097427,-0.00135198,-0.00000004,-0.00
 084293,-0.00452264,-0.00000008,-0.00190051,-0.00160770,0.00000005,-0.0
 0045070,0.00034015,0.,0.00041102,-0.00029303,0.00000003,-0.00007707,-0
 .00042554,0.00000001,-0.00031582,-0.00022907,0.00000002,-0.00370202,0.
 00626623,0.00000139,0.00308044,0.01160328,0.00000046,-0.00276678,0.003
 29737,0.00000004,0.00534631,-0.00218091,-0.00000054,0.00613630,0.00247
 714,0.00000135,-0.00141820,0.00025121,0.00000025,0.00037282,-0.0001940
 9,0.,-0.00387805,-0.00020905,0.00000017,-0.00439431,-0.00315776,-0.000
 00029,-0.00004236,-0.00037904,0.00000007,-0.00045865,0.00005048,-0.000
 00007,-0.00047326,-0.00035066,-0.00000014,-0.00193757,-0.00087096,-0.0
 0000123,-0.00449575,-0.00307533,0.00000160,0.00408374,-0.01316390,-0.0
 0000343\\\@
 The archive entry for this job was punched.


     "IF I COULD JUST GET IT ON PAPER"
 LIFE AND INK, THEY RUN OUT AT THE SAME TIME,
 OR SO SAID MY OLD FRIEND THE SQUID.
     -- JIMMY BUFFETT, 1981
 Job cpu time:       0 days  1 hours  2 minutes  6.6 seconds.
 Elapsed time:       0 days  0 hours  6 minutes 31.1 seconds.
 File lengths (MBytes):  RWF=    544 Int=      0 D2E=      0 Chk=     40 Scr=      8
 Normal termination of Gaussian 16 at Wed Oct 28 02:02:45 2020.
