NM 2D-scan of HBT TD-WB97XD pVDZ in CTC Relaxed.                        
Freq      RwB97XD                                                     CC-pVDZ             
Number of atoms                            I               25
Info1-9                                    I   N=           9
          89          88        1002           0           0         100
           6          18       -5802
Full Title                                 C   N=           4
NM 2D-scan of HBT TD-WB97XD pVDZ in CTC Relaxed.
Route                                      C   N=           8
#p opt=addgic freq wb97xd/cc-pvdz nosymm int=ultrafine scrf=
(solvent=CarbonTetraChloride)       
Charge                                     I                0
Multiplicity                               I                1
Number of electrons                        I              118
Number of alpha electrons                  I               59
Number of beta electrons                   I               59
Number of basis functions                  I              273
Number of independent functions            I              273
Number of point charges in /Mol/           I                0
Number of translation vectors              I                0
Atomic numbers                             I   N=          25
           6           6           6           6           6           6
           1           1           1           1           7          16
           6           6           6           6           1           6
           6           1           1           1           6           8
           1
Nuclear charges                            R   N=          25
  6.00000000E+00  6.00000000E+00  6.00000000E+00  6.00000000E+00  6.00000000E+00
  6.00000000E+00  1.00000000E+00  1.00000000E+00  1.00000000E+00  1.00000000E+00
  7.00000000E+00  1.60000000E+01  6.00000000E+00  6.00000000E+00  6.00000000E+00
  6.00000000E+00  1.00000000E+00  6.00000000E+00  6.00000000E+00  1.00000000E+00
  1.00000000E+00  1.00000000E+00  6.00000000E+00  8.00000000E+00  1.00000000E+00
Current cartesian coordinates              R   N=          75
  2.89058929E+00 -6.10911569E+00 -1.23052795E-04  1.91565994E+00 -3.67265596E+00
 -9.03309154E-05  3.40182433E+00 -1.47886815E+00 -1.58033235E-05  6.03850331E+00
 -1.77866812E+00  1.28759845E-05  7.03473765E+00 -4.22532870E+00 -1.63164212E-05
  5.49288632E+00 -6.37982767E+00 -8.06581392E-05  1.63047491E+00 -7.73923648E+00
 -1.72758239E-04  7.28747672E+00 -1.39443885E-01  6.67908638E-05  9.08341379E+00
 -4.45852254E+00  1.46877089E-05  6.33720150E+00 -8.25977282E+00 -9.66568125E-05
  1.88956893E+00  7.01713071E-01  2.75150919E-05 -1.28704431E+00 -2.94980426E+00
 -1.11801254E-04 -2.49911007E+00  2.09423179E+00  7.65710568E-05 -5.04931532E+00
  1.40445406E+00  1.36692037E-04 -1.67630072E+00  4.64084602E+00  3.96840398E-05
 -6.91587932E+00  3.23350137E+00  1.20451670E-04 -5.57182381E+00 -5.92996234E-01
  1.94644192E-04 -3.63514410E+00  6.49039237E+00 -4.47184145E-06 -6.16969903E+00
  5.77697434E+00  3.01368492E-05 -8.90771037E+00  2.70927182E+00  1.66036746E-04
 -3.11680400E+00  8.48624890E+00 -6.10346355E-05 -7.61647779E+00  7.24962562E+00
 -5.65335184E-06 -5.51040360E-01  1.97431386E-01  1.53079979E-05  7.50321236E-01
  5.09299580E+00  3.66214137E-05  1.78268125E+00  3.19989903E+00  4.67890584E-05
Number of symbols in /Mol/                 I                0
Int Atom Types                             I   N=          25
           0           0           0           0           0           0
           0           0           0           0           0           0
           0           0           0           0           0           0
           0           0           0           0           0           0
           0
Force Field                                I                0
Atom Types                                 C   N=          25
                                                            
                                                            
                                                            
                                                            
                                                            
MM charges                                 R   N=          25
  0.00000000E+00  0.00000000E+00  0.00000000E+00  0.00000000E+00  0.00000000E+00
  0.00000000E+00  0.00000000E+00  0.00000000E+00  0.00000000E+00  0.00000000E+00
  0.00000000E+00  0.00000000E+00  0.00000000E+00  0.00000000E+00  0.00000000E+00
  0.00000000E+00  0.00000000E+00  0.00000000E+00  0.00000000E+00  0.00000000E+00
  0.00000000E+00  0.00000000E+00  0.00000000E+00  0.00000000E+00  0.00000000E+00
Integer atomic weights                     I   N=          25
          12          12          12          12          12          12
           1           1           1           1          14          32
          12          12          12          12           1          12
          12           1           1           1          12          16
           1
Real atomic weights                        R   N=          25
  1.20000000E+01  1.20000000E+01  1.20000000E+01  1.20000000E+01  1.20000000E+01
  1.20000000E+01  1.00782504E+00  1.00782504E+00  1.00782504E+00  1.00782504E+00
  1.40030740E+01  3.19720718E+01  1.20000000E+01  1.20000000E+01  1.20000000E+01
  1.20000000E+01  1.00782504E+00  1.20000000E+01  1.20000000E+01  1.00782504E+00
  1.00782504E+00  1.00782504E+00  1.20000000E+01  1.59949146E+01  1.00782504E+00
Atom fragment info                         I   N=          25
           0           0           0           0           0           0
           0           0           0           0           0           0
           0           0           0           0           0           0
           0           0           0           0           0           0
           0
Atom residue num                           I   N=          25
           0           0           0           0           0           0
           0           0           0           0           0           0
           0           0           0           0           0           0
           0           0           0           0           0           0
           0
Nuclear spins                              I   N=          25
           0           0           0           0           0           0
           1           1           1           1           2           0
           0           0           0           0           1           0
           0           1           1           1           0           0
           1
Nuclear ZEff                               R   N=          25
 -3.60000000E+00 -3.60000000E+00 -3.60000000E+00 -3.60000000E+00 -3.60000000E+00
 -3.60000000E+00 -1.00000000E+00 -1.00000000E+00 -1.00000000E+00 -1.00000000E+00
 -4.55000000E+00 -1.36000000E+01 -3.60000000E+00 -3.60000000E+00 -3.60000000E+00
 -3.60000000E+00 -1.00000000E+00 -3.60000000E+00 -3.60000000E+00 -1.00000000E+00
 -1.00000000E+00 -1.00000000E+00 -3.60000000E+00 -5.60000000E+00 -1.00000000E+00
Nuclear ZNuc                               R   N=          25
  6.00000000E+00  6.00000000E+00  6.00000000E+00  6.00000000E+00  6.00000000E+00
  6.00000000E+00  1.00000000E+00  1.00000000E+00  1.00000000E+00  1.00000000E+00
  7.00000000E+00  1.60000000E+01  6.00000000E+00  6.00000000E+00  6.00000000E+00
  6.00000000E+00  1.00000000E+00  6.00000000E+00  6.00000000E+00  1.00000000E+00
  1.00000000E+00  1.00000000E+00  6.00000000E+00  8.00000000E+00  1.00000000E+00
Nuclear QMom                               R   N=          25
  0.00000000E+00  0.00000000E+00  0.00000000E+00  0.00000000E+00  0.00000000E+00
  0.00000000E+00  0.00000000E+00  0.00000000E+00  0.00000000E+00  0.00000000E+00
  2.04400000E+00  0.00000000E+00  0.00000000E+00  0.00000000E+00  0.00000000E+00
  0.00000000E+00  0.00000000E+00  0.00000000E+00  0.00000000E+00  0.00000000E+00
  0.00000000E+00  0.00000000E+00  0.00000000E+00  0.00000000E+00  0.00000000E+00
Nuclear GFac                               R   N=          25
  0.00000000E+00  0.00000000E+00  0.00000000E+00  0.00000000E+00  0.00000000E+00
  0.00000000E+00  2.79284600E+00  2.79284600E+00  2.79284600E+00  2.79284600E+00
  4.03761000E-01  0.00000000E+00  0.00000000E+00  0.00000000E+00  0.00000000E+00
  0.00000000E+00  2.79284600E+00  0.00000000E+00  0.00000000E+00  2.79284600E+00
  2.79284600E+00  2.79284600E+00  0.00000000E+00  0.00000000E+00  2.79284600E+00
MicOpt                                     I   N=          25
          -1          -1          -1          -1          -1          -1
          -1          -1          -1          -1          -1          -1
          -1          -1          -1          -1          -1          -1
          -1          -1          -1          -1          -1          -1
          -1
Number of residues                         I                0
Number of secondary structures             I                0
Redundant internal dimensions              I   N=           4
         144           0           0           0
CrData-IFlags                              I   N=          16
          -2        2859           1         144        5704         228
           1           0           0           1           0           0
           0           0           0           0
CrData-InfCrd                              I   N=       34308
         100          -1           1           4           1           0
           1          -1          -1           0           0           1
          62          -1           5           1           1           0
           1          -1          -1           0           0           2
           2           0           6           3           1           0
           1           0           3           1           0           3
         100          -1           9           4           1           0
           1          -1          -1           0           0           1
          62          -1          13           1           1           0
           1          -1          -1           0           0           2
           2           0          14           3           1           0
           1          10          13           1           0           3
         100          -1          17           4           1           0
           1          -1          -1           0           0           1
          62          -1          21           1           1           0
           1          -1          -1           0           0           2
           2           0          22           3           1           0
           1          20          23           1           0           3
         100          -1          25           4           1           0
           1          -1          -1           0           0           1
          62          -1          29           1           1           0
           1          -1          -1           0           0           2
           2           0          30           3           1           0
           1          30          33           1           0           3
         100          -1          33           4           1           0
           1          -1          -1           0           0           1
          62          -1          37           1           1           0
           1          -1          -1           0           0           2
           2           0          38           3           1           0
           1          40          43           1           0           3
         100          -1          41           4           1           0
           1          -1          -1           0           0           1
          62          -1          45           1           1           0
           1          -1          -1           0           0           2
           2           0          46           3           1           0
           1          51          54           1           0           3
         100          -1          49           4           1           0
           1          -1          -1           0           0           1
          62          -1          53           1           1           0
           1          -1          -1           0           0           2
           2           0          54           3           1           0
           1          61          64           1           0           3
         100          -1          57           4           1           0
           1          -1          -1           0           0           1
          62          -1          61           1           1           0
           1          -1          -1           0           0           2
           2           0          62           3           1           0
           1          72          75           1           0           3
         100          -1          65           4           1           0
           1          -1          -1           0           0           1
          62          -1          69           1           1           0
           1          -1          -1           0           0           2
           2           0          70           3           1           0
           1          82          85           1           0           3
         100          -1          73           4           1           0
           1          -1          -1           0           0           1
          62          -1          77           1           1           0
           1          -1          -1           0           0           2
           2           0          78           3           1           0
           1          92          96           1           0           3
         100          -1          81           4           1           0
           1          -1          -1           0           0           1
          62          -1          85           1           1           0
           1          -1          -1           0           0           2
           2           0          86           3           1           0
           1         103         107           1           0           3
         100          -1          89           4           1           0
           1          -1          -1           0           0           1
          62          -1          93           1           1           0
           1          -1          -1           0           0           2
           2           0          94           3           1           0
           1         114         118           1           0           3
         100          -1          97           4           1           0
           1          -1          -1           0           0           1
          62          -1         101           1           1           0
           1          -1          -1           0           0           2
           2           0         102           3           1           0
           1         126         130           1           0           3
         100          -1         105           4           1           0
           1          -1          -1           0           0           1
          62          -1         109           1           1           0
           1          -1          -1           0           0           2
           2           0         110           3           1           0
           1         139         143           1           0           3
         100          -1         113           4           1           0
           1          -1          -1           0           0           1
          62          -1         117           1           1           0
           1          -1          -1           0           0           2
           2           0         118           3           1           0
           1         152         156           1           0           3
         100          -1         121           4           1           0
           1          -1          -1           0           0           1
          62          -1         125           1           1           0
           1          -1          -1           0           0           2
           2           0         126           3           1           0
           1         165         169           1           0           3
         100          -1         129           4           1           0
           1          -1          -1           0           0           1
          62          -1         133           1           1           0
           1          -1          -1           0           0           2
           2           0         134           3           1           0
           1         178         182           1           0           3
         100          -1         137           4           1           0
           1          -1          -1           0           0           1
          62          -1         141           1           1           0
           1          -1          -1           0           0           2
           2           0         142           3           1           0
           1         191         195           1           0           3
         100          -1         145           4           1           0
           1          -1          -1           0           0           1
          62          -1         149           1           1           0
           1          -1          -1           0           0           2
           2           0         150           3           1           0
           1         204         208           1           0           3
         100          -1         153           4           1           0
           1          -1          -1           0           0           1
          62          -1         157           1           1           0
           1          -1          -1           0           0           2
           2           0         158           3           1           0
           1         217         221           1           0           3
         100          -1         161           4           1           0
           1          -1          -1           0           0           1
          62          -1         165           1           1           0
           1          -1          -1           0           0           2
           2           0         166           3           1           0
           1         230         234           1           0           3
         100          -1         169           4           1           0
           1          -1          -1           0           0           1
          62          -1         173           1           1           0
           1          -1          -1           0           0           2
           2           0         174           3           1           0
           1         243         247           1           0           3
         100          -1         177           4           1           0
           1          -1          -1           0           0           1
          62          -1         181           1           1           0
           1          -1          -1           0           0           2
           2           0         182           3           1           0
           1         256         260           1           0           3
         100          -1         185           4           1           0
           1          -1          -1           0           0           1
          62          -1         189           1           1           0
           1          -1          -1           0           0           2
           2           0         190           3           1           0
           1         269         273           1           0           3
         100          -1         193           4           1           0
           1          -1          -1           0           0           1
          62          -1         197           1           1           0
           1          -1          -1           0           0           2
           2           0         198           3           1           0
           1         282         286           1           0           3
         100          -1         201           4           1           0
           1          -1          -1           0           0           1
          62          -1         205           1           1           0
           1          -1          -1           0           0           2
           2           0         206           3           1           0
           1         295         299           1           0           3
         100          -1         209           4           1           0
           1          -1          -1           0           0           1
          62          -1         213           1           1           0
           1          -1          -1           0           0           2
           2           0         214           3           1           0
           1         308         312           1           0           3
         100          -1         217           4           1           0
           1          -1          -1           0           0           1
          62          -1         221           1           1           0
           1          -1          -1           0           0           2
           2           0         222           3           1           0
           1         321         325           1           0           3
         100          -1         225           4           1           0
           1          -1          -1           0           0           1
          61          -1         229           1           1           0
           1          -1          -1           0           0           3
          61          -1         230           1           1           0
           1          -1          -1           0           0           3
          52          -1         231           2           1           0
           1          -1          -1           0           0           4
          52          -1         233           2           1           0
           1          -1          -1           0           0           5
          73          -1         235           1           1           0
           1          -1          -1           0           0           6
           3           0         236           4           1           0
           1         334         337           2           1           7
         100          -1         240           4           1           0
           1          -1          -1           0           0           1
          61          -1         244           1           1           0
           1          -1          -1           0           0           3
          52          -1         245           2           1           0
           1          -1          -1           0           0           4
          52          -1         247           2           1           0
           1          -1          -1           0           0           5
          73          -1         249           1           1           0
           1          -1          -1           0           0           6
           3           0         250           4           1           0
           1         346         349           2           1           7
         100          -1         254           4           1           0
           1          -1          -1           0           0           1
          52          -1         258           2           1           0
           1          -1          -1           0           0           4
          52          -1         260           2           1           0
           1          -1          -1           0           0           5
          73          -1         262           1           1           0
           1          -1          -1           0           0           6
           3           0         263           4           1           0
           1         358         361           2           1           7
         100          -1         267           4           1           0
           1          -1          -1           0           0           1
          61          -1         271           1           1           0
           1          -1          -1           0           0           3
          52          -1         272           2           1           0
           1          -1          -1           0           0           4
          52          -1         274           2           1           0
           1          -1          -1           0           0           5
          58          -1         276           0           1           1
           1          -1          -1           0           0           1
          52          -1         276           2           2           0
           1          -1          -1           0           0           6
          73          -1         278           1           2           0
           1          -1          -1           0           0           7
           3           0         279           4           2           0
           1         370         373           2           1           8
         100          -1         283           4           2           0
           1          -1          -1           0           0           1
          61          -1         287           1           2           0
           1          -1          -1           0           0           3
          52          -1         288           2           2           0
           1          -1          -1           0           0           4
          52          -1         290           2           2           0
           1          -1          -1           0           0           5
          52          -1         292           2           2           0
           1          -1          -1           0           0           6
          73          -1         294           1           2           0
           1          -1          -1           0           0           7
           3           0         295           4           2           0
           1         382         385           2           1           8
         100          -1         299           4           2           0
           1          -1          -1           0           0           1
          52          -1         303           2           2           0
           1          -1          -1           0           0           4
          52          -1         305           2           2           0
           1          -1          -1           0           0           5
          73          -1         307           1           2           0
           1          -1          -1           0           0           6
           3           0         308           4           2           0
           1         395         398           2           1           7
         100          -1         312           4           2           0
           1          -1          -1           0           0           1
          61          -1         316           1           2           0
           1          -1          -1           0           0           3
          52          -1         317           2           2           0
           1          -1          -1           0           0           4
          52          -1         319           2           2           0
           1          -1          -1           0           0           5
          52          -1         321           2           2           0
           1          -1          -1           0           0           6
          73          -1         323           1           2           0
           1          -1          -1           0           0           7
           3           0         324           4           2           0
           1         408         411           2           1           8
         100          -1         328           4           2           0
           1          -1          -1           0           0           1
          61          -1         332           1           2           0
           1          -1          -1           0           0           3
          52          -1         333           2           2           0
           1          -1          -1           0           0           4
          52          -1         335           2           2           0
           1          -1          -1           0           0           5
          52          -1         337           2           2           0
           1          -1          -1           0           0           6
          73          -1         339           1           2           0
           1          -1          -1           0           0           7
           3           0         340           4           2           0
           1         420         423           2           1           8
         100          -1         344           4           2           0
           1          -1          -1           0           0           1
          52          -1         348           2           2           0
           1          -1          -1           0           0           4
          52          -1         350           2           2           0
           1          -1          -1           0           0           5
          73          -1         352           1           2           0
           1          -1          -1           0           0           6
           3           0         353           4           2           0
           1         433         436           2           1           7