 Entering Gaussian System, Link 0=g16
 Initial command:
 /gpfs/loomis/apps/avx/software/Gaussian/16-C.01_AVX/g16/l1.exe "/home/fas/batista/pev4/scratch60/gauss-scratch/Gau-237011.inp" -scrdir="/home/fas/batista/pev4/scratch60/gauss-scratch/"
 Entering Link 1 = /gpfs/loomis/apps/avx/software/Gaussian/16-C.01_AVX/g16/l1.exe PID=    237012.
  
 Copyright (c) 1988-2019, Gaussian, Inc.  All Rights Reserved.
  
 This is part of the Gaussian(R) 16 program.  It is based on
 the Gaussian(R) 09 system (copyright 2009, Gaussian, Inc.),
 the Gaussian(R) 03 system (copyright 2003, Gaussian, Inc.),
 the Gaussian(R) 98 system (copyright 1998, Gaussian, Inc.),
 the Gaussian(R) 94 system (copyright 1995, Gaussian, Inc.),
 the Gaussian 92(TM) system (copyright 1992, Gaussian, Inc.),
 the Gaussian 90(TM) system (copyright 1990, Gaussian, Inc.),
 the Gaussian 88(TM) system (copyright 1988, Gaussian, Inc.),
 the Gaussian 86(TM) system (copyright 1986, Carnegie Mellon
 University), and the Gaussian 82(TM) system (copyright 1983,
 Carnegie Mellon University). Gaussian is a federally registered
 trademark of Gaussian, Inc.
  
 This software contains proprietary and confidential information,
 including trade secrets, belonging to Gaussian, Inc.
  
 This software is provided under written license and may be
 used, copied, transmitted, or stored only in accord with that
 written license.
  
 The following legend is applicable only to US Government
 contracts under FAR:
  
                    RESTRICTED RIGHTS LEGEND
  
 Use, reproduction and disclosure by the US Government is
 subject to restrictions as set forth in subparagraphs (a)
 and (c) of the Commercial Computer Software - Restricted
 Rights clause in FAR 52.227-19.
  
 Gaussian, Inc.
 340 Quinnipiac St., Bldg. 40, Wallingford CT 06492
  
  
 ---------------------------------------------------------------
 Warning -- This program may not be used in any manner that
 competes with the business of Gaussian, Inc. or will provide
 assistance to any competitor of Gaussian, Inc.  The licensee
 of this program is prohibited from giving any competitor of
 Gaussian, Inc. access to this program.  By using this program,
 the user acknowledges that Gaussian, Inc. is engaged in the
 business of creating and licensing software in the field of
 computational chemistry and represents and warrants to the
 licensee that it is not a competitor of Gaussian, Inc. and that
 it will not use this program in any manner prohibited above.
 ---------------------------------------------------------------
  

 Cite this work as:
 Gaussian 16, Revision C.01,
 M. J. Frisch, G. W. Trucks, H. B. Schlegel, G. E. Scuseria, 
 M. A. Robb, J. R. Cheeseman, G. Scalmani, V. Barone, 
 G. A. Petersson, H. Nakatsuji, X. Li, M. Caricato, A. V. Marenich, 
 J. Bloino, B. G. Janesko, R. Gomperts, B. Mennucci, H. P. Hratchian, 
 J. V. Ortiz, A. F. Izmaylov, J. L. Sonnenberg, D. Williams-Young, 
 F. Ding, F. Lipparini, F. Egidi, J. Goings, B. Peng, A. Petrone, 
 T. Henderson, D. Ranasinghe, V. G. Zakrzewski, J. Gao, N. Rega, 
 G. Zheng, W. Liang, M. Hada, M. Ehara, K. Toyota, R. Fukuda, 
 J. Hasegawa, M. Ishida, T. Nakajima, Y. Honda, O. Kitao, H. Nakai, 
 T. Vreven, K. Throssell, J. A. Montgomery, Jr., J. E. Peralta, 
 F. Ogliaro, M. J. Bearpark, J. J. Heyd, E. N. Brothers, K. N. Kudin, 
 V. N. Staroverov, T. A. Keith, R. Kobayashi, J. Normand, 
 K. Raghavachari, A. P. Rendell, J. C. Burant, S. S. Iyengar, 
 J. Tomasi, M. Cossi, J. M. Millam, M. Klene, C. Adamo, R. Cammi, 
 J. W. Ochterski, R. L. Martin, K. Morokuma, O. Farkas, 
 J. B. Foresman, and D. J. Fox, Gaussian, Inc., Wallingford CT, 2019.
 
 ******************************************
 Gaussian 16:  ES64L-G16RevC.01  3-Jul-2019
                27-Oct-2020 
 ******************************************
 %chk=config_10_7.chk
 %mem=58GB
 %nprocshared=10
 Will use up to   10 processors via shared memory.
 ----------------------------------------------------------------------
 #p opt=addgic freq wb97xd/cc-pvdz nosymm int=ultrafine scrf=(solvent=C
 arbonTetraChloride)
 ----------------------------------------------------------------------
 1/18=20,19=15,26=6,38=1,145=903/1,3;
 2/9=110,12=2,15=1,17=6,18=5,40=1/2;
 3/5=16,11=2,25=1,30=1,70=2201,71=1,72=11,74=-58,75=-5/1,2,3;
 4//1;
 5/5=2,38=5,53=11/2;
 6/7=2,8=2,9=2,10=2,28=1/1;
 7/30=1/1,2,3,16;
 1/18=20,19=15,26=6,145=903/3(2);
 2/9=110,15=1/2;
 99//99;
 2/9=110,15=1/2;
 3/5=16,11=2,25=1,30=1,70=2205,71=1,72=11,74=-58,75=-5/1,2,3;
 4/5=5,16=3,69=1/1;
 5/5=2,38=5,53=11/2;
 7/30=1/1,2,3,16;
 1/18=20,19=15,26=6,145=903/3(-5);
 2/9=110,15=1/2;
 6/7=2,8=2,9=2,10=2,19=2,28=1/1;
 99/9=1/99;
 Leave Link    1 at Tue Oct 27 21:54:57 2020, MaxMem=  7784628224 cpu:               5.0 elap:               0.6
 (Enter /gpfs/loomis/apps/avx/software/Gaussian/16-C.01_AVX/g16/l101.exe)
 ------------------------------------------------
 NM 2D-scan of HBT TD-WB97XD pVDZ in CTC Relaxed.
 ------------------------------------------------
 Symbolic Z-matrix:
 Charge =  0 Multiplicity = 1
 C                     1.67793  -3.26075  -0.00002 
 C                     1.00726  -2.0383   -0.00002 
 C                     1.71794  -0.8109   -0.00002 
 C                     3.1151   -0.81475  -0.00002 
 C                     3.7767   -2.03749  -0.00002 
 C                     3.07294  -3.24884  -0.00002 
 H                     1.12602  -4.20155  -0.00002 
 H                     3.66284   0.128    -0.00002 
 H                     4.86785  -2.05002  -0.00002 
 H                     3.61834  -4.19325  -0.00002 
 N                     0.89444   0.29061  -0.00002 
 S                    -0.7322   -1.7544   -0.00002 
 C                    -1.3935    1.02904   0. 
 C                    -2.76535   0.83489  0. 
 C                    -0.86125   2.42078   0.00003 
 C                    -3.65036   1.94224   0.00003 
 H                    -3.18107  -0.17567  -0.00002 
 C                    -1.79971   3.49298   0.00006 
 C                    -3.174     3.25607   0.00005 
 H                    -4.72492   1.753     0.00002 
 H                    -1.38289   4.50116   0.00008 
 H                    -3.87561   4.09051   0.00008 
 C                    -0.42757  -0.02324  -0.00002 
 O                     0.38601   2.63188   0.00004 
 H                     1.03768   1.16481  0. 
 
 Initializing the GIC definitions file.
 Number of initial coordinates =   134
 Number of input entries/lines =    52
 Number of additional coordinates =     2
 Number of removed coordinates =     0
 Number of frozen coordinates =     2
 Number of final active and frozen coordinates =   136
 ITRead=  0  0  0  0  0  0  0  0  0  0  0  0  0  0  0  0  0  0  0  0
 ITRead=  0  0  0  0  0
 MicOpt= -1 -1 -1 -1 -1 -1 -1 -1 -1 -1 -1 -1 -1 -1 -1 -1 -1 -1 -1 -1
 MicOpt= -1 -1 -1 -1 -1
 NAtoms=     25 NQM=       25 NQMF=       0 NMMI=      0 NMMIF=      0
                NMic=       0 NMicF=      0.
                    Isotopes and Nuclear Properties:
 (Nuclear quadrupole moments (NQMom) in fm**2, nuclear magnetic moments (NMagM)
  in nuclear magnetons)

  Atom         1           2           3           4           5           6           7           8           9          10
 IAtWgt=          12          12          12          12          12          12           1           1           1           1
 AtmWgt=  12.0000000  12.0000000  12.0000000  12.0000000  12.0000000  12.0000000   1.0078250   1.0078250   1.0078250   1.0078250
 NucSpn=           0           0           0           0           0           0           1           1           1           1
 AtZEff=  -0.0000000  -0.0000000  -0.0000000  -0.0000000  -0.0000000  -0.0000000  -0.0000000  -0.0000000  -0.0000000  -0.0000000
 NQMom=    0.0000000   0.0000000   0.0000000   0.0000000   0.0000000   0.0000000   0.0000000   0.0000000   0.0000000   0.0000000
 NMagM=    0.0000000   0.0000000   0.0000000   0.0000000   0.0000000   0.0000000   2.7928460   2.7928460   2.7928460   2.7928460
 AtZNuc=   6.0000000   6.0000000   6.0000000   6.0000000   6.0000000   6.0000000   1.0000000   1.0000000   1.0000000   1.0000000

  Atom        11          12          13          14          15          16          17          18          19          20
 IAtWgt=          14          32          12          12          12          12           1          12          12           1
 AtmWgt=  14.0030740  31.9720718  12.0000000  12.0000000  12.0000000  12.0000000   1.0078250  12.0000000  12.0000000   1.0078250
 NucSpn=           2           0           0           0           0           0           1           0           0           1
 AtZEff=  -0.0000000  -0.0000000  -0.0000000  -0.0000000  -0.0000000  -0.0000000  -0.0000000  -0.0000000  -0.0000000  -0.0000000
 NQMom=    2.0440000   0.0000000   0.0000000   0.0000000   0.0000000   0.0000000   0.0000000   0.0000000   0.0000000   0.0000000
 NMagM=    0.4037610   0.0000000   0.0000000   0.0000000   0.0000000   0.0000000   2.7928460   0.0000000   0.0000000   2.7928460
 AtZNuc=   7.0000000  16.0000000   6.0000000   6.0000000   6.0000000   6.0000000   1.0000000   6.0000000   6.0000000   1.0000000

  Atom        21          22          23          24          25
 IAtWgt=           1           1          12          16           1
 AtmWgt=   1.0078250   1.0078250  12.0000000  15.9949146   1.0078250
 NucSpn=           1           1           0           0           1
 AtZEff=  -0.0000000  -0.0000000  -0.0000000  -0.0000000  -0.0000000
 NQMom=    0.0000000   0.0000000   0.0000000   0.0000000   0.0000000
 NMagM=    2.7928460   2.7928460   0.0000000   0.0000000   2.7928460
 AtZNuc=   1.0000000   1.0000000   6.0000000   8.0000000   1.0000000
 Leave Link  101 at Tue Oct 27 21:55:00 2020, MaxMem=  7784628224 cpu:              30.3 elap:               3.4
 (Enter /gpfs/loomis/apps/avx/software/Gaussian/16-C.01_AVX/g16/l103.exe)

 GradGradGradGradGradGradGradGradGradGradGradGradGradGradGradGradGradGrad
 Berny optimization.
 Initialization pass.
                           ----------------------------
                           !    Initial Parameters    !
                           ! (Angstroms and Degrees)  !
 --------------------------                            --------------------------
 ! Name  Definition              Value          Derivative Info.                !
 --------------------------------------------------------------------------------
 ! R1    R(1,2)                  1.3943         estimate D2E/DX2                !
 ! R2    R(1,6)                  1.3951         estimate D2E/DX2                !
 ! R3    R(1,7)                  1.0907         estimate D2E/DX2                !
 ! R4    R(2,3)                  1.4183         estimate D2E/DX2                !
 ! R5    R(2,12)                 1.7625         estimate D2E/DX2                !
 ! R6    R(3,4)                  1.3972         estimate D2E/DX2                !
 ! R7    R(3,11)                 1.3753         estimate D2E/DX2                !
 ! R8    R(4,5)                  1.3903         estimate D2E/DX2                !
 ! R9    R(4,8)                  1.0903         estimate D2E/DX2                !
 ! R10   R(5,6)                  1.4009         estimate D2E/DX2                !
 ! R11   R(5,9)                  1.0912         estimate D2E/DX2                !
 ! R12   R(6,10)                 1.0906         estimate D2E/DX2                !
 ! R13   R(11,23)                1.3588         estimate D2E/DX2                !
 ! R14   R(11,25)                0.8859         estimate D2E/DX2                !
 ! R15   R(12,23)                1.7578         estimate D2E/DX2                !
 ! R16   R(13,14)                1.3855         estimate D2E/DX2                !
 ! R17   R(13,15)                1.49           estimate D2E/DX2                !
 ! R18   R(13,23)                1.4284         estimate D2E/DX2                !
 ! R19   R(14,16)                1.4176         estimate D2E/DX2                !
 ! R20   R(14,17)                1.0927         estimate D2E/DX2                !
 ! R21   R(15,18)                1.4249         estimate D2E/DX2                !
 ! R22   R(15,24)                1.265          estimate D2E/DX2                !
 ! R23   R(16,19)                1.3975         estimate D2E/DX2                !
 ! R24   R(16,20)                1.0911         estimate D2E/DX2                !
 ! R25   R(18,19)                1.3946         estimate D2E/DX2                !
 ! R26   R(18,21)                1.0909         estimate D2E/DX2                !
 ! R27   R(19,22)                1.0902         estimate D2E/DX2                !
 ! A1    A(2,1,6)              118.2608         estimate D2E/DX2                !
 ! A2    A(2,1,7)              120.8524         estimate D2E/DX2                !
 ! A3    A(6,1,7)              120.8868         estimate D2E/DX2                !
 ! A4    A(1,2,3)              121.1781         estimate D2E/DX2                !
 ! A5    A(1,2,12)             128.0199         estimate D2E/DX2                !
 ! A6    A(3,2,12)             110.8019         estimate D2E/DX2                !
 ! A7    A(2,3,4)              119.9137         estimate D2E/DX2                !
 ! A8    A(2,3,11)             113.1461         estimate D2E/DX2                !
 ! A9    A(4,3,11)             126.9403         estimate D2E/DX2                !
 ! A10   A(3,4,5)              118.5746         estimate D2E/DX2                !
 ! A11   A(3,4,8)              119.9987         estimate D2E/DX2                !
 ! A12   A(5,4,8)              121.4266         estimate D2E/DX2                !
 ! A13   A(4,5,6)              121.4278         estimate D2E/DX2                !
 ! A14   A(4,5,9)              119.0747         estimate D2E/DX2                !
 ! A15   A(6,5,9)              119.4976         estimate D2E/DX2                !
 ! A16   A(1,6,5)              120.645          estimate D2E/DX2                !
 ! A17   A(1,6,10)             119.5172         estimate D2E/DX2                !
 ! A18   A(5,6,10)             119.8378         estimate D2E/DX2                !
 ! A19   A(3,11,23)            113.4276         estimate D2E/DX2                !
 ! A20   A(3,11,25)            133.9121         estimate D2E/DX2                !
 ! A21   A(23,11,25)           112.6602         estimate D2E/DX2                !
 ! A22   A(2,12,23)             89.2898         estimate D2E/DX2                !
 ! A23   A(14,13,15)           118.9843         estimate D2E/DX2                !
 ! A24   A(14,13,23)           124.4942         estimate D2E/DX2                !
 ! A25   A(15,13,23)           116.5215         estimate D2E/DX2                !
 ! A26   A(13,14,16)           120.5767         estimate D2E/DX2                !
 ! A27   A(13,14,17)           120.4167         estimate D2E/DX2                !
 ! A28   A(16,14,17)           119.0066         estimate D2E/DX2                !
 ! A29   A(13,15,18)           117.8768         estimate D2E/DX2                !
 ! A30   A(13,15,24)           120.5351         estimate D2E/DX2                !
 ! A31   A(18,15,24)           121.5881         estimate D2E/DX2                !
 ! A32   A(14,16,19)           121.4384         estimate D2E/DX2                !
 ! A33   A(14,16,20)           118.644          estimate D2E/DX2                !
 ! A34   A(19,16,20)           119.9177         estimate D2E/DX2                !
 ! A35   A(15,18,19)           121.4136         estimate D2E/DX2                !
 ! A36   A(15,18,21)           116.3434         estimate D2E/DX2                !
 ! A37   A(19,18,21)           122.243          estimate D2E/DX2                !
 ! A38   A(16,19,18)           119.7103         estimate D2E/DX2                !
 ! A39   A(16,19,22)           120.013          estimate D2E/DX2                !
 ! A40   A(18,19,22)           120.2767         estimate D2E/DX2                !
 ! A41   A(11,23,12)           113.3346         estimate D2E/DX2                !
 ! A42   A(11,23,13)           119.1951         estimate D2E/DX2                !
 ! A43   A(12,23,13)           127.4703         estimate D2E/DX2                !
 ! D1    D(6,1,2,3)              0.0            estimate D2E/DX2                !
 ! D2    D(6,1,2,12)          -179.9999         estimate D2E/DX2                !
 ! D3    D(7,1,2,3)            179.9999         estimate D2E/DX2                !
 ! D4    D(7,1,2,12)             0.0            estimate D2E/DX2                !
 ! D5    D(2,1,6,5)              0.0            estimate D2E/DX2                !
 ! D6    D(2,1,6,10)           180.0            estimate D2E/DX2                !
 ! D7    D(7,1,6,5)           -180.0            estimate D2E/DX2                !
 ! D8    D(7,1,6,10)             0.0            estimate D2E/DX2                !
 ! D9    D(1,2,3,4)              0.0            estimate D2E/DX2                !
 ! D10   D(1,2,3,11)           180.0            estimate D2E/DX2                !
 ! D11   D(12,2,3,4)          -180.0            estimate D2E/DX2                !
 ! D12   D(12,2,3,11)           -0.0001         estimate D2E/DX2                !
 ! D13   D(1,2,12,23)          179.9999         estimate D2E/DX2                !
 ! D14   D(3,2,12,23)           -0.0001         estimate D2E/DX2                !
 ! D15   D(2,3,4,5)             -0.0001         estimate D2E/DX2                !
 ! D16   D(2,3,4,8)            180.0            estimate D2E/DX2                !
 ! D17   D(11,3,4,5)          -180.0            estimate D2E/DX2                !
 ! D18   D(11,3,4,8)             0.0            estimate D2E/DX2                !
 ! D19   D(2,3,11,23)            0.0002         estimate D2E/DX2                !
 ! D20   D(2,3,11,25)          179.9984         estimate D2E/DX2                !
 ! D21   D(4,3,11,23)         -179.9998         estimate D2E/DX2                !
 ! D22   D(4,3,11,25)           -0.0017         estimate D2E/DX2                !
 ! D23   D(3,4,5,6)              0.0            estimate D2E/DX2                !
 ! D24   D(3,4,5,9)           -180.0            estimate D2E/DX2                !
 ! D25   D(8,4,5,6)           -180.0            estimate D2E/DX2                !
 ! D26   D(8,4,5,9)              0.0            estimate D2E/DX2                !
 ! D27   D(4,5,6,1)              0.0            estimate D2E/DX2                !
 ! D28   D(4,5,6,10)          -180.0            estimate D2E/DX2                !
 ! D29   D(9,5,6,1)           -180.0            estimate D2E/DX2                !
 ! D30   D(9,5,6,10)             0.0            estimate D2E/DX2                !
 ! D31   D(3,11,23,12)          -0.0003         estimate D2E/DX2                !
 ! D32   D(3,11,23,13)         179.9991         estimate D2E/DX2                !
 ! D33   D(25,11,23,12)       -179.9989         estimate D2E/DX2                !
 ! D34   D(25,11,23,13)          0.0006         estimate D2E/DX2                !
 ! D35   D(2,12,23,11)           0.0002         estimate D2E/DX2                !
 ! D36   D(2,12,23,13)        -179.9992         estimate D2E/DX2                !
 ! D37   D(15,13,14,16)         -0.0001         estimate D2E/DX2                !
 ! D38   D(15,13,14,17)        179.9999         estimate D2E/DX2                !
 ! D39   D(23,13,14,16)        179.9998         estimate D2E/DX2                !
 ! D40   D(23,13,14,17)         -0.0002         estimate D2E/DX2                !
 ! D41   D(14,13,15,18)          0.0001         estimate D2E/DX2                !
 ! D42   D(14,13,15,24)        180.0            estimate D2E/DX2                !
 ! D43   D(23,13,15,18)       -179.9998         estimate D2E/DX2                !
 ! D44   D(23,13,15,24)          0.0001         estimate D2E/DX2                !
 ! D45   D(14,13,23,11)        179.9995         estimate D2E/DX2                !
 ! D46   D(14,13,23,12)         -0.0012         estimate D2E/DX2                !
 ! D47   D(15,13,23,11)         -0.0006         estimate D2E/DX2                !
 ! D48   D(15,13,23,12)        179.9987         estimate D2E/DX2                !
 ! D49   D(13,14,16,19)          0.0            estimate D2E/DX2                !
 ! D50   D(13,14,16,20)       -179.9999         estimate D2E/DX2                !
 ! D51   D(17,14,16,19)       -180.0            estimate D2E/DX2                !
 ! D52   D(17,14,16,20)          0.0001         estimate D2E/DX2                !
 ! D53   D(13,15,18,19)          0.0001         estimate D2E/DX2                !
 ! D54   D(13,15,18,21)        179.9998         estimate D2E/DX2                !
 ! D55   D(24,15,18,19)       -179.9998         estimate D2E/DX2                !
 ! D56   D(24,15,18,21)         -0.0001         estimate D2E/DX2                !
 ! D57   D(14,16,19,18)          0.0001         estimate D2E/DX2                !
 ! D58   D(14,16,19,22)       -179.9999         estimate D2E/DX2                !
 ! D59   D(20,16,19,18)       -179.9999         estimate D2E/DX2                !
 ! D60   D(20,16,19,22)          0.0001         estimate D2E/DX2                !
 ! D61   D(15,18,19,16)         -0.0002         estimate D2E/DX2                !
 ! D62   D(15,18,19,22)        179.9999         estimate D2E/DX2                !
 ! D63   D(21,18,19,16)       -179.9999         estimate D2E/DX2                !
 ! D64   D(21,18,19,22)          0.0001         estimate D2E/DX2                !
 ! Qtot  GIC-1                  40.0            Frozen                          !
 ! Ptot  GIC-2                 -20.0            Frozen                          !
 --------------------------------------------------------------------------------
 NOTE: GIC-type coordinates are in arbitrary units.
 Trust Radius=3.00D-01 FncErr=5.00D-06 GrdErr=5.00D-06 EigMax=2.50D+02 EigMin=1.00D-04
 Number of steps in this run=    146 maximum allowed number of steps=    150.
 GradGradGradGradGradGradGradGradGradGradGradGradGradGradGradGradGradGrad

 Leave Link  103 at Tue Oct 27 21:55:00 2020, MaxMem=  7784628224 cpu:               0.2 elap:               0.1
 (Enter /gpfs/loomis/apps/avx/software/Gaussian/16-C.01_AVX/g16/l202.exe)
                          Input orientation:                          
 ---------------------------------------------------------------------
 Center     Atomic      Atomic             Coordinates (Angstroms)
 Number     Number       Type             X           Y           Z
 ---------------------------------------------------------------------
      1          6           0        1.677929   -3.260754   -0.000022
      2          6           0        1.007259   -2.038300   -0.000021
      3          6           0        1.717944   -0.810900   -0.000021
      4          6           0        3.115103   -0.814750   -0.000022
      5          6           0        3.776698   -2.037492   -0.000022
      6          6           0        3.072938   -3.248836   -0.000022
      7          1           0        1.126024   -4.201553   -0.000021
      8          1           0        3.662841    0.127998   -0.000022
      9          1           0        4.867848   -2.050023   -0.000023
     10          1           0        3.618339   -4.193246   -0.000022
     11          7           0        0.894440    0.290608   -0.000021
     12         16           0       -0.732197   -1.754399   -0.000020
     13          6           0       -1.393497    1.029044    0.000003
     14          6           0       -2.765349    0.834885   -0.000001
     15          6           0       -0.861248    2.420776    0.000032
     16          6           0       -3.650364    1.942244    0.000025
     17          1           0       -3.181066   -0.175667   -0.000024
     18          6           0       -1.799712    3.492982    0.000056
     19          6           0       -3.174004    3.256071    0.000054
     20          1           0       -4.724918    1.752997    0.000022
     21          1           0       -1.382893    4.501160    0.000080
     22          1           0       -3.875614    4.090511    0.000075
     23          6           0       -0.427574   -0.023237   -0.000016
     24          8           0        0.386013    2.631877    0.000037
     25          1           0        1.037682    1.164811   -0.000003
 ---------------------------------------------------------------------
                    Distance matrix (angstroms):
                    1          2          3          4          5
     1  C    0.000000
     2  C    1.394343   0.000000
     3  C    2.450181   1.418303   0.000000
     4  C    2.836971   2.437228   1.397164   0.000000
     5  C    2.429239   2.769440   2.396456   1.390254   0.000000
     6  C    1.395060   2.394249   2.789183   2.434451   1.400940
     7  H    1.090734   2.166511   3.441933   3.927705   3.421876
     8  H    3.927279   3.427093   2.159665   1.090317   2.168481
     9  H    3.411958   3.860607   3.384867   2.144298   1.091222
    10  H    2.152843   3.385489   3.879661   3.415769   2.161562
    11  N    3.636760   2.331638   1.375310   2.480557   3.705059
    12  S    2.842149   1.762472   2.625526   3.960387   4.517774
    13  C    5.275985   3.895153   3.614755   4.871042   6.011203
    14  C    6.042928   4.742126   4.775827   6.107455   7.144854
    15  C    6.223118   4.834735   4.134725   5.126402   6.433249
    16  C    7.447274   6.126841   6.033120   7.305653   8.426124
    17  H    5.755657   4.583826   4.940023   6.328521   7.202561
    18  C    7.596508   6.202754   5.558534   6.535439   7.853821
    19  C    8.124670   6.746356   6.361714   7.491626   8.736938
    20  H    8.132290   6.872538   6.934265   8.249803   9.308345
    21  H    8.343616   6.962568   6.150867   6.963539   8.329187
    22  H    9.213193   7.836119   7.437185   8.540007   9.803587
    23  C    3.861950   2.473706   2.285533   3.630022   4.661881
    24  O    6.032590   4.711316   3.691443   4.396268   5.770594
    25  H    4.471637   3.203255   2.089542   2.869554   4.213900
                    6          7          8          9         10
     6  C    0.000000
     7  H    2.167520   0.000000
     8  H    3.427972   5.018013   0.000000
     9  H    2.158438   4.316286   2.489140   0.000000
    10  H    1.090584   2.492329   4.321473   2.480862   0.000000
    11  N    4.156142   4.498126   2.773173   4.611564   5.246386
    12  S    4.088080   3.072711   4.781191   5.607843   4.987499
    13  C    6.184601   5.805784   5.135994   6.977470   7.238149
    14  C    7.124771   6.364628   6.466940   8.160171   8.126105
    15  C    6.900892   6.914079   5.071904   7.267089   7.988240
    16  C    8.494122   7.782039   7.534883   9.407345   9.512008
    17  H    6.968281   5.895658   6.850641   8.264274   7.897649
    18  C    8.318343   8.231999   6.415809   8.670713   9.403902
    19  C    9.018764   8.608508   7.518464   9.634626  10.081084
    20  H    9.264172   8.348065   8.543718  10.319114  10.245377
    21  H    8.939623   9.057145   6.677124   9.054820  10.030205
    22  H   10.106849   9.683735   8.516444  10.684301  11.170495
    23  C    4.760050   4.457802   4.093210   5.670041   5.810197
    24  O    6.465474   6.873382   4.123956   6.481283   7.551837
    25  H    4.860303   5.367091   2.822488   5.000533   5.947147
                   11         12         13         14         15
    11  N    0.000000
    12  S    2.613045   0.000000
    13  C    2.404151   2.860921   0.000000
    14  C    3.700039   3.292127   1.385524   0.000000
    15  C    2.760445   4.177169   1.490036   2.478033   0.000000
    16  C    4.835612   4.709657   2.434622   1.417567   2.829870
    17  H    4.102093   2.913650   2.155628   1.092720   3.481820
    18  C    4.184932   5.354866   2.497199   2.828061   1.424901
    19  C    5.034502   5.573799   2.851291   2.455431   2.458975
    20  H    5.806528   5.314475   3.409175   2.163987   3.920953
    21  H    4.786961   6.289310   3.472132   3.918259   2.144787
    22  H    6.098580   6.636569   3.941255   3.439737   3.445928
    23  C    1.358757   1.757759   1.428391   2.490294   2.482191
    24  O    2.395838   4.526568   2.394938   3.627707   1.264999
    25  H    0.885861   3.413834   2.434967   3.817315   2.276704
                   16         17         18         19         20
    16  C    0.000000
    17  H    2.169283   0.000000
    18  C    2.414477   3.920092   0.000000
    19  C    1.397519   3.431746   1.394562   0.000000
    20  H    1.091091   2.470470   3.403582   2.159760   0.000000
    21  H    3.418987   5.010602   1.090945   2.181358   4.326837
    22  H    2.160043   4.322346   2.160187   1.090205   2.487023
    23  C    3.774850   2.757708   3.774461   4.277469   4.649964
    24  O    4.094867   4.539423   2.349233   3.614324   5.185946
    25  H    4.752071   4.426592   3.670312   4.702305   5.792540
                   21         22         23         24         25
    21  H    0.000000
    22  H    2.526319   0.000000
    23  C    4.624154   5.367672   0.000000
    24  O    2.573567   4.504340   2.776969   0.000000
    25  H    4.121943   5.718409   1.886381   1.605290   0.000000
 Symmetry turned off by external request.
 Stoichiometry    C13H9NOS
 Framework group  C1[X(C13H9NOS)]
 Deg. of freedom    69
 Full point group                 C1      NOp   1
 Rotational constants (GHZ):           1.3833984           0.2858054           0.2368691
 Leave Link  202 at Tue Oct 27 21:55:00 2020, MaxMem=  7784628224 cpu:               0.3 elap:               0.1
 (Enter /gpfs/loomis/apps/avx/software/Gaussian/16-C.01_AVX/g16/l301.exe)
 Standard basis: CC-pVDZ (5D, 7F)
 Ernie: Thresh=  0.10000D-02 Tol=  0.10000D-05 Strict=F.
 Ernie:  40 primitive shells out of 425 were deleted.
   273 basis functions,   629 primitive gaussians,   289 cartesian basis functions
    59 alpha electrons       59 beta electrons
       nuclear repulsion energy      1099.4896504352 Hartrees.
 IExCor= 4639 DFT=T Ex+Corr=wB97XD ExCW=0 ScaHFX=  1.000000
 ScaDFX=  1.000000  1.000000  1.000000  1.000000 ScalE2=  1.000000  1.000000
 IRadAn=      5 IRanWt=     -1 IRanGd=            0 ICorTp=0 IEmpDi=121
 HFx  wShort=  0.000000 wLong=  0.200000 cFull=  0.222036 cShort=  0.000000 cLong=  0.777964
 DFx  wShort=  0.000000 wLong=  0.200000 cFull=  0.000000 cShort=  0.000000 cLong=  1.000000
 NAtoms=   25 NActive=   25 NUniq=   25 SFac= 1.00D+00 NAtFMM=   60 NAOKFM=F Big=F
 Integral buffers will be    131072 words long.
 Raffenetti 2 integral format.
 Two-electron integral symmetry is turned off.
 R6Disp:  Grimme-D2 Dispersion energy=       -0.0140691132 Hartrees.
 Nuclear repulsion after empirical dispersion term =     1099.4755813220 Hartrees.
 ------------------------------------------------------------------------------
 Polarizable Continuum Model (PCM)
 =================================
 Model                : PCM.
 Atomic radii         : UFF (Universal Force Field).
 Polarization charges : Total charges.
 Charge compensation  : None.
 Solution method      : On-the-fly selection.
 Cavity type          : Scaled VdW (van der Waals Surface) (Alpha=1.100).
 Cavity algorithm     : GePol (No added spheres)
                        Default sphere list used, NSphG=   25.
                        Lebedev-Laikov grids with approx.  5.0 points / Ang**2.
                        Smoothing algorithm: York/Karplus (Gamma=1.0000).
                        Polarization charges: spherical gaussians, with
                                              point-specific exponents (IZeta= 3).
                        Self-potential: point-specific (ISelfS= 7).
                        Self-field    : sphere-specific E.n sum rule (ISelfD= 2).
 1st derivatives      : Analytical E(r).r(x)/FMM algorithm (CHGder, D1EAlg=3).
                        Cavity 1st derivative terms included.
 Solvent              : CarbonTetraChloride, Eps=   2.228000 Eps(inf)=   2.131892
 ------------------------------------------------------------------------------
 GePol: Number of generator spheres                  =      25
 GePol: Total number of spheres                      =      25
 GePol: Number of exposed spheres                    =      25 (100.00%)
 GePol: Number of points                             =    2201
 GePol: Average weight of points                     =       0.12
 GePol: Minimum weight of points                     =   0.25D-10
 GePol: Maximum weight of points                     =    0.20577
 GePol: Number of points with low weight             =     155
 GePol: Fraction of low-weight points (<1% of avg)   =       7.04%
 GePol: Cavity surface area                          =    273.837 Ang**2
 GePol: Cavity volume                                =    292.983 Ang**3
 Leave Link  301 at Tue Oct 27 21:55:00 2020, MaxMem=  7784628224 cpu:               0.8 elap:               0.1
 (Enter /gpfs/loomis/apps/avx/software/Gaussian/16-C.01_AVX/g16/l302.exe)
 NPDir=0 NMtPBC=     1 NCelOv=     1 NCel=       1 NClECP=     1 NCelD=      1
         NCelK=      1 NCelE2=     1 NClLst=     1 CellRange=     0.0.
 One-electron integrals computed using PRISM.
 NBasis=   273 RedAO= T EigKep=  3.03D-04  NBF=   273
 NBsUse=   273 1.00D-06 EigRej= -1.00D+00 NBFU=   273
 Precomputing XC quadrature grid using
 IXCGrd= 4 IRadAn=           5 IRanWt=          -1 IRanGd=           0 AccXCQ= 0.00D+00.
 Generated NRdTot=       0 NPtTot=           0 NUsed=           0 NTot=          32
 NSgBfM=   288   288   288   288   288 MxSgAt=    25 MxSgA2=    25.
 Leave Link  302 at Tue Oct 27 21:55:01 2020, MaxMem=  7784628224 cpu:               2.8 elap:               0.3
 (Enter /gpfs/loomis/apps/avx/software/Gaussian/16-C.01_AVX/g16/l303.exe)
 DipDrv:  MaxL=1.
 Leave Link  303 at Tue Oct 27 21:55:01 2020, MaxMem=  7784628224 cpu:               1.0 elap:               0.1
 (Enter /gpfs/loomis/apps/avx/software/Gaussian/16-C.01_AVX/g16/l401.exe)
 ExpMin= 1.22D-01 ExpMax= 1.11D+05 ExpMxC= 1.07D+03 IAcc=3 IRadAn=         5 AccDes= 0.00D+00
 Harris functional with IExCor= 4639 and IRadAn=       5 diagonalized for initial guess.
 HarFok:  IExCor= 4639 AccDes= 0.00D+00 IRadAn=         5 IDoV= 1 UseB2=F ITyADJ=14
 ICtDFT=  3500011 ScaDFX=  1.000000  1.000000  1.000000  1.000000
 FoFCou: FMM=F IPFlag=           0 FMFlag=      100000 FMFlg1=           0
         NFxFlg=           0 DoJE=T BraDBF=F KetDBF=T FulRan=T
         wScrn=  0.000000 ICntrl=       500 IOpCl=  0 I1Cent=   200000004 NGrid=           0
         NMat0=    1 NMatS0=      1 NMatT0=    0 NMatD0=    1 NMtDS0=    0 NMtDT0=    0
 Symmetry not used in FoFCou.
 Harris En= -994.422178705362    
 JPrj=0 DoOrth=F DoCkMO=F.
 Leave Link  401 at Tue Oct 27 21:55:03 2020, MaxMem=  7784628224 cpu:              16.2 elap:               1.8
 (Enter /gpfs/loomis/apps/avx/software/Gaussian/16-C.01_AVX/g16/l502.exe)
 Two-electron integral symmetry not used.
 Closed shell SCF:
 Using DIIS extrapolation, IDIIS=  1040.
 NGot=  7784628224 LenX=  7784455381 LenY=  7784371419
 Requested convergence on RMS density matrix=1.00D-08 within 128 cycles.
 Requested convergence on MAX density matrix=1.00D-06.
 Requested convergence on             energy=1.00D-06.
 No special actions if energy rises.
 Fock matrices will be formed incrementally for  20 cycles.

 Cycle   1  Pass 1  IDiag  1:
 FoFJK:  IHMeth= 1 ICntrl=       0 DoSepK=T KAlg= 0 I1Cent=           0 FoldK=F
 IRaf=         1 NMat=       1 IRICut=       1 DoRegI=T DoRafI=F ISym2E= 0 IDoP0=0 IntGTp=1.
 FoFCou: FMM=F IPFlag=           0 FMFlag=      100000 FMFlg1=           0
         NFxFlg=           0 DoJE=T BraDBF=F KetDBF=F FulRan=T
         wScrn=  0.000000 ICntrl=       500 IOpCl=  0 I1Cent=           0 NGrid=           0
         NMat0=    1 NMatS0=      1 NMatT0=    0 NMatD0=    1 NMtDS0=    0 NMtDT0=    0
 Symmetry not used in FoFCou.
 Inv3:  Mode=1 IEnd=    14533203.
 Iteration    1 A*A^-1 deviation from unit magnitude is 7.33D-15 for   2184.
 Iteration    1 A*A^-1 deviation from orthogonality  is 2.80D-15 for   2184   2010.
 Iteration    1 A^-1*A deviation from unit magnitude is 7.33D-15 for   2184.
 Iteration    1 A^-1*A deviation from orthogonality  is 2.16D-15 for   2188   2112.
 E= -1028.52913875709    
 DIIS: error= 3.91D-02 at cycle   1 NSaved=   1.
 NSaved= 1 IEnMin= 1 EnMin= -1028.52913875709     IErMin= 1 ErrMin= 3.91D-02
 ErrMax= 3.91D-02  0.00D+00 EMaxC= 1.00D-01 BMatC= 3.94D-01 BMatP= 3.94D-01
 IDIUse=3 WtCom= 6.09D-01 WtEn= 3.91D-01
 Coeff-Com:  0.100D+01
 Coeff-En:   0.100D+01
 Coeff:      0.100D+01
 Gap=     0.311 Goal=   None    Shift=    0.000
 GapD=    0.311 DampG=1.000 DampE=0.500 DampFc=0.5000 IDamp=-1.
 Damping current iteration by 5.00D-01
 RMSDP=3.66D-03 MaxDP=2.45D-01              OVMax= 2.08D-01

 Cycle   2  Pass 1  IDiag  1:
 RMSU=  1.83D-03    CP:  9.94D-01
 E= -1028.65068217673     Delta-E=       -0.121543419644 Rises=F Damp=T
 DIIS: error= 1.17D-02 at cycle   2 NSaved=   2.
 NSaved= 2 IEnMin= 2 EnMin= -1028.65068217673     IErMin= 2 ErrMin= 1.17D-02
 ErrMax= 1.17D-02  0.00D+00 EMaxC= 1.00D-01 BMatC= 5.84D-02 BMatP= 3.94D-01
 IDIUse=3 WtCom= 8.83D-01 WtEn= 1.17D-01
 Coeff-Com: -0.281D+00 0.128D+01
 Coeff-En:   0.000D+00 0.100D+01
 Coeff:     -0.248D+00 0.125D+01
 Gap=     0.280 Goal=   None    Shift=    0.000
 RMSDP=1.17D-03 MaxDP=2.68D-02 DE=-1.22D-01 OVMax= 1.47D-01

 Cycle   3  Pass 1  IDiag  1:
 RMSU=  1.13D-03    CP:  9.93D-01  1.16D+00
 E= -1028.76067174227     Delta-E=       -0.109989565542 Rises=F Damp=F
 DIIS: error= 6.85D-03 at cycle   3 NSaved=   3.
 NSaved= 3 IEnMin= 3 EnMin= -1028.76067174227     IErMin= 3 ErrMin= 6.85D-03
 ErrMax= 6.85D-03  0.00D+00 EMaxC= 1.00D-01 BMatC= 1.57D-02 BMatP= 5.84D-02
 IDIUse=3 WtCom= 9.31D-01 WtEn= 6.85D-02
 Coeff-Com: -0.204D+00 0.501D+00 0.704D+00
 Coeff-En:   0.000D+00 0.000D+00 0.100D+01
 Coeff:     -0.190D+00 0.466D+00 0.724D+00
 Gap=     0.237 Goal=   None    Shift=    0.000
 RMSDP=5.60D-04 MaxDP=1.88D-02 DE=-1.10D-01 OVMax= 4.70D-02

 Cycle   4  Pass 1  IDiag  1:
 RMSU=  4.43D-04    CP:  9.91D-01  1.32D+00  8.41D-01
 E= -1028.77615400668     Delta-E=       -0.015482264407 Rises=F Damp=F
 DIIS: error= 2.29D-03 at cycle   4 NSaved=   4.
 NSaved= 4 IEnMin= 4 EnMin= -1028.77615400668     IErMin= 4 ErrMin= 2.29D-03
 ErrMax= 2.29D-03  0.00D+00 EMaxC= 1.00D-01 BMatC= 1.93D-03 BMatP= 1.57D-02
 IDIUse=3 WtCom= 9.77D-01 WtEn= 2.29D-02
 Coeff-Com: -0.716D-01 0.141D+00 0.341D+00 0.589D+00
 Coeff-En:   0.000D+00 0.000D+00 0.000D+00 0.100D+01
 Coeff:     -0.700D-01 0.138D+00 0.333D+00 0.599D+00
 Gap=     0.238 Goal=   None    Shift=    0.000
 RMSDP=1.77D-04 MaxDP=1.00D-02 DE=-1.55D-02 OVMax= 1.40D-02

 Cycle   5  Pass 1  IDiag  1:
 RMSU=  1.13D-04    CP:  9.91D-01  1.33D+00  9.16D-01  7.66D-01
 E= -1028.77827984873     Delta-E=       -0.002125842048 Rises=F Damp=F
 DIIS: error= 5.61D-04 at cycle   5 NSaved=   5.
 NSaved= 5 IEnMin= 5 EnMin= -1028.77827984873     IErMin= 5 ErrMin= 5.61D-04
 ErrMax= 5.61D-04  0.00D+00 EMaxC= 1.00D-01 BMatC= 6.04D-05 BMatP= 1.93D-03
 IDIUse=3 WtCom= 9.94D-01 WtEn= 5.61D-03
 Coeff-Com:  0.440D-04-0.652D-02 0.229D-01 0.150D+00 0.833D+00
 Coeff-En:   0.000D+00 0.000D+00 0.000D+00 0.000D+00 0.100D+01
 Coeff:      0.437D-04-0.649D-02 0.228D-01 0.149D+00 0.834D+00
 Gap=     0.239 Goal=   None    Shift=    0.000
 RMSDP=6.04D-05 MaxDP=1.96D-03 DE=-2.13D-03 OVMax= 6.45D-03

 Cycle   6  Pass 1  IDiag  1:
 RMSU=  3.82D-05    CP:  9.91D-01  1.33D+00  9.33D-01  8.55D-01  1.12D+00
 E= -1028.77842558013     Delta-E=       -0.000145731399 Rises=F Damp=F
 DIIS: error= 2.55D-04 at cycle   6 NSaved=   6.
 NSaved= 6 IEnMin= 6 EnMin= -1028.77842558013     IErMin= 6 ErrMin= 2.55D-04
 ErrMax= 2.55D-04  0.00D+00 EMaxC= 1.00D-01 BMatC= 1.05D-05 BMatP= 6.04D-05
 IDIUse=3 WtCom= 9.97D-01 WtEn= 2.55D-03
 Coeff-Com:  0.175D-01-0.355D-01-0.695D-01-0.891D-01 0.183D+00 0.994D+00
 Coeff-En:   0.000D+00 0.000D+00 0.000D+00 0.000D+00 0.000D+00 0.100D+01
 Coeff:      0.175D-01-0.354D-01-0.694D-01-0.889D-01 0.182D+00 0.994D+00
 Gap=     0.240 Goal=   None    Shift=    0.000
 RMSDP=3.98D-05 MaxDP=1.85D-03 DE=-1.46D-04 OVMax= 4.85D-03

 Cycle   7  Pass 1  IDiag  1:
 RMSU=  1.83D-05    CP:  9.91D-01  1.33D+00  9.46D-01  8.92D-01  1.34D+00
                    CP:  1.37D+00
 E= -1028.77846634286     Delta-E=       -0.000040762736 Rises=F Damp=F
 DIIS: error= 7.66D-05 at cycle   7 NSaved=   7.
 NSaved= 7 IEnMin= 7 EnMin= -1028.77846634286     IErMin= 7 ErrMin= 7.66D-05
 ErrMax= 7.66D-05  0.00D+00 EMaxC= 1.00D-01 BMatC= 2.04D-06 BMatP= 1.05D-05
 IDIUse=1 WtCom= 1.00D+00 WtEn= 0.00D+00
 Coeff-Com:  0.597D-02-0.112D-01-0.245D-01-0.475D-01-0.266D-01 0.369D+00
 Coeff-Com:  0.735D+00
 Coeff:      0.597D-02-0.112D-01-0.245D-01-0.475D-01-0.266D-01 0.369D+00
 Coeff:      0.735D+00
 Gap=     0.240 Goal=   None    Shift=    0.000
 RMSDP=1.23D-05 MaxDP=4.39D-04 DE=-4.08D-05 OVMax= 1.45D-03

 Cycle   8  Pass 1  IDiag  1:
 RMSU=  7.33D-06    CP:  9.90D-01  1.33D+00  9.47D-01  8.97D-01  1.37D+00
                    CP:  1.58D+00  1.18D+00
 E= -1028.77847167427     Delta-E=       -0.000005331410 Rises=F Damp=F
 DIIS: error= 5.98D-05 at cycle   8 NSaved=   8.
 NSaved= 8 IEnMin= 8 EnMin= -1028.77847167427     IErMin= 8 ErrMin= 5.98D-05
 ErrMax= 5.98D-05  0.00D+00 EMaxC= 1.00D-01 BMatC= 3.78D-07 BMatP= 2.04D-06
 IDIUse=1 WtCom= 1.00D+00 WtEn= 0.00D+00
 Coeff-Com: -0.170D-02 0.364D-02 0.776D-02 0.391D-02-0.411D-01-0.106D+00
 Coeff-Com:  0.214D+00 0.920D+00
 Coeff:     -0.170D-02 0.364D-02 0.776D-02 0.391D-02-0.411D-01-0.106D+00
 Coeff:      0.214D+00 0.920D+00
 Gap=     0.240 Goal=   None    Shift=    0.000
 RMSDP=7.55D-06 MaxDP=1.89D-04 DE=-5.33D-06 OVMax= 1.27D-03

 Cycle   9  Pass 1  IDiag  1:
 RMSU=  3.11D-06    CP:  9.90D-01  1.33D+00  9.47D-01  8.96D-01  1.39D+00
                    CP:  1.69D+00  1.44D+00  1.18D+00
 E= -1028.77847333207     Delta-E=       -0.000001657792 Rises=F Damp=F
 DIIS: error= 1.73D-05 at cycle   9 NSaved=   9.
 NSaved= 9 IEnMin= 9 EnMin= -1028.77847333207     IErMin= 9 ErrMin= 1.73D-05
 ErrMax= 1.73D-05  0.00D+00 EMaxC= 1.00D-01 BMatC= 1.02D-07 BMatP= 3.78D-07
 IDIUse=1 WtCom= 1.00D+00 WtEn= 0.00D+00
 Coeff-Com: -0.135D-02 0.265D-02 0.624D-02 0.786D-02-0.108D-01-0.958D-01
 Coeff-Com: -0.673D-01 0.328D+00 0.830D+00
 Coeff:     -0.135D-02 0.265D-02 0.624D-02 0.786D-02-0.108D-01-0.958D-01
 Coeff:     -0.673D-01 0.328D+00 0.830D+00
 Gap=     0.240 Goal=   None    Shift=    0.000
 RMSDP=3.94D-06 MaxDP=1.20D-04 DE=-1.66D-06 OVMax= 5.65D-04

 Cycle  10  Pass 1  IDiag  1:
 RMSU=  1.55D-06    CP:  9.90D-01  1.33D+00  9.47D-01  8.96D-01  1.40D+00
                    CP:  1.74D+00  1.55D+00  1.45D+00  1.22D+00
 E= -1028.77847369495     Delta-E=       -0.000000362880 Rises=F Damp=F
 DIIS: error= 1.15D-05 at cycle  10 NSaved=  10.
 NSaved=10 IEnMin=10 EnMin= -1028.77847369495     IErMin=10 ErrMin= 1.15D-05
 ErrMax= 1.15D-05  0.00D+00 EMaxC= 1.00D-01 BMatC= 2.20D-08 BMatP= 1.02D-07
 IDIUse=1 WtCom= 1.00D+00 WtEn= 0.00D+00
 Coeff-Com:  0.721D-04-0.216D-03 0.698D-04 0.131D-02 0.769D-02-0.748D-02
 Coeff-Com: -0.886D-01-0.776D-01 0.346D+00 0.819D+00
 Coeff:      0.721D-04-0.216D-03 0.698D-04 0.131D-02 0.769D-02-0.748D-02
 Coeff:     -0.886D-01-0.776D-01 0.346D+00 0.819D+00
 Gap=     0.240 Goal=   None    Shift=    0.000
 RMSDP=1.72D-06 MaxDP=5.55D-05 DE=-3.63D-07 OVMax= 3.17D-04

 Cycle  11  Pass 1  IDiag  1:
 RMSU=  6.02D-07    CP:  9.90D-01  1.33D+00  9.47D-01  8.96D-01  1.40D+00
                    CP:  1.76D+00  1.59D+00  1.55D+00  1.53D+00  1.11D+00
 E= -1028.77847377517     Delta-E=       -0.000000080220 Rises=F Damp=F
 DIIS: error= 3.79D-06 at cycle  11 NSaved=  11.
 NSaved=11 IEnMin=11 EnMin= -1028.77847377517     IErMin=11 ErrMin= 3.79D-06
 ErrMax= 3.79D-06  0.00D+00 EMaxC= 1.00D-01 BMatC= 4.84D-09 BMatP= 2.20D-08
 IDIUse=1 WtCom= 1.00D+00 WtEn= 0.00D+00
 Coeff-Com:  0.293D-03-0.604D-03-0.109D-02-0.102D-02 0.543D-02 0.147D-01
 Coeff-Com: -0.262D-01-0.859D-01-0.361D-01 0.313D+00 0.818D+00
 Coeff:      0.293D-03-0.604D-03-0.109D-02-0.102D-02 0.543D-02 0.147D-01
 Coeff:     -0.262D-01-0.859D-01-0.361D-01 0.313D+00 0.818D+00
 Gap=     0.240 Goal=   None    Shift=    0.000
 RMSDP=7.93D-07 MaxDP=2.09D-05 DE=-8.02D-08 OVMax= 1.24D-04

 Cycle  12  Pass 1  IDiag  1:
 RMSU=  2.49D-07    CP:  9.90D-01  1.33D+00  9.47D-01  8.97D-01  1.40D+00
                    CP:  1.77D+00  1.60D+00  1.60D+00  1.64D+00  1.36D+00
                    CP:  1.14D+00
 E= -1028.77847378925     Delta-E=       -0.000000014081 Rises=F Damp=F
 DIIS: error= 1.47D-06 at cycle  12 NSaved=  12.
 NSaved=12 IEnMin=12 EnMin= -1028.77847378925     IErMin=12 ErrMin= 1.47D-06
 ErrMax= 1.47D-06  0.00D+00 EMaxC= 1.00D-01 BMatC= 6.24D-10 BMatP= 4.84D-09
 IDIUse=1 WtCom= 1.00D+00 WtEn= 0.00D+00
 Coeff-Com:  0.124D-03-0.240D-03-0.508D-03-0.855D-03 0.933D-03 0.830D-02
 Coeff-Com:  0.630D-02-0.168D-01-0.879D-01-0.364D-01 0.284D+00 0.844D+00
 Coeff:      0.124D-03-0.240D-03-0.508D-03-0.855D-03 0.933D-03 0.830D-02
 Coeff:      0.630D-02-0.168D-01-0.879D-01-0.364D-01 0.284D+00 0.844D+00
 Gap=     0.240 Goal=   None    Shift=    0.000
 RMSDP=3.06D-07 MaxDP=7.53D-06 DE=-1.41D-08 OVMax= 5.00D-05

 Cycle  13  Pass 1  IDiag  1:
 RMSU=  9.26D-08    CP:  9.90D-01  1.33D+00  9.47D-01  8.97D-01  1.40D+00
                    CP:  1.77D+00  1.60D+00  1.62D+00  1.69D+00  1.45D+00
                    CP:  1.35D+00  1.07D+00
 E= -1028.77847379140     Delta-E=       -0.000000002151 Rises=F Damp=F
 DIIS: error= 4.28D-07 at cycle  13 NSaved=  13.
 NSaved=13 IEnMin=13 EnMin= -1028.77847379140     IErMin=13 ErrMin= 4.28D-07
 ErrMax= 4.28D-07  0.00D+00 EMaxC= 1.00D-01 BMatC= 6.39D-11 BMatP= 6.24D-10
 IDIUse=1 WtCom= 1.00D+00 WtEn= 0.00D+00
 Coeff-Com: -0.161D-04 0.348D-04 0.585D-04-0.255D-04-0.328D-03-0.808D-04
 Coeff-Com:  0.338D-02 0.738D-02-0.120D-01-0.408D-01-0.715D-01 0.167D+00
 Coeff-Com:  0.947D+00
 Coeff:     -0.161D-04 0.348D-04 0.585D-04-0.255D-04-0.328D-03-0.808D-04
 Coeff:      0.338D-02 0.738D-02-0.120D-01-0.408D-01-0.715D-01 0.167D+00
 Coeff:      0.947D+00
 Gap=     0.240 Goal=   None    Shift=    0.000
 RMSDP=9.71D-08 MaxDP=2.06D-06 DE=-2.15D-09 OVMax= 1.28D-05

 Cycle  14  Pass 1  IDiag  1:
 RMSU=  3.33D-08    CP:  9.90D-01  1.33D+00  9.47D-01  8.97D-01  1.40D+00
                    CP:  1.77D+00  1.60D+00  1.62D+00  1.70D+00  1.48D+00
                    CP:  1.41D+00  1.24D+00  1.19D+00
 E= -1028.77847379159     Delta-E=       -0.000000000192 Rises=F Damp=F
 DIIS: error= 1.37D-07 at cycle  14 NSaved=  14.
 NSaved=14 IEnMin=14 EnMin= -1028.77847379159     IErMin=14 ErrMin= 1.37D-07
 ErrMax= 1.37D-07  0.00D+00 EMaxC= 1.00D-01 BMatC= 5.81D-12 BMatP= 6.39D-11
 IDIUse=1 WtCom= 1.00D+00 WtEn= 0.00D+00
 Coeff-Com: -0.120D-04 0.241D-04 0.496D-04 0.517D-04-0.149D-03-0.626D-03
 Coeff-Com:  0.186D-03 0.333D-02 0.425D-02-0.415D-02-0.398D-01-0.259D-01
 Coeff-Com:  0.255D+00 0.808D+00
 Coeff:     -0.120D-04 0.241D-04 0.496D-04 0.517D-04-0.149D-03-0.626D-03
 Coeff:      0.186D-03 0.333D-02 0.425D-02-0.415D-02-0.398D-01-0.259D-01
 Coeff:      0.255D+00 0.808D+00
 Gap=     0.240 Goal=   None    Shift=    0.000
 RMSDP=1.74D-08 MaxDP=4.12D-07 DE=-1.92D-10 OVMax= 1.93D-06

 Cycle  15  Pass 1  IDiag  1:
 RMSU=  1.13D-08    CP:  9.90D-01  1.33D+00  9.47D-01  8.97D-01  1.40D+00
                    CP:  1.77D+00  1.60D+00  1.62D+00  1.70D+00  1.49D+00
                    CP:  1.41D+00  1.26D+00  1.30D+00  1.13D+00
 E= -1028.77847379160     Delta-E=       -0.000000000010 Rises=F Damp=F
 DIIS: error= 7.97D-08 at cycle  15 NSaved=  15.
 NSaved=15 IEnMin=15 EnMin= -1028.77847379160     IErMin=15 ErrMin= 7.97D-08
 ErrMax= 7.97D-08  0.00D+00 EMaxC= 1.00D-01 BMatC= 8.68D-13 BMatP= 5.81D-12
 IDIUse=1 WtCom= 1.00D+00 WtEn= 0.00D+00
 Coeff-Com: -0.233D-05 0.419D-05 0.113D-04 0.298D-04-0.714D-05-0.272D-03
 Coeff-Com: -0.583D-03-0.784D-04 0.350D-02 0.594D-02-0.216D-02-0.448D-01
 Coeff-Com: -0.797D-01 0.215D+00 0.903D+00
 Coeff:     -0.233D-05 0.419D-05 0.113D-04 0.298D-04-0.714D-05-0.272D-03
 Coeff:     -0.583D-03-0.784D-04 0.350D-02 0.594D-02-0.216D-02-0.448D-01
 Coeff:     -0.797D-01 0.215D+00 0.903D+00
 Gap=     0.240 Goal=   None    Shift=    0.000
 RMSDP=1.13D-08 MaxDP=3.38D-07 DE=-9.78D-12 OVMax= 1.60D-06

 Cycle  16  Pass 1  IDiag  1:
 RMSU=  4.44D-09    CP:  9.90D-01  1.33D+00  9.47D-01  8.97D-01  1.40D+00
                    CP:  1.77D+00  1.60D+00  1.62D+00  1.70D+00  1.49D+00
                    CP:  1.42D+00  1.28D+00  1.36D+00  1.30D+00  1.13D+00
 E= -1028.77847379160     Delta-E=       -0.000000000004 Rises=F Damp=F
 DIIS: error= 2.70D-08 at cycle  16 NSaved=  16.
 NSaved=16 IEnMin=16 EnMin= -1028.77847379160     IErMin=16 ErrMin= 2.70D-08
 ErrMax= 2.70D-08  0.00D+00 EMaxC= 1.00D-01 BMatC= 1.31D-13 BMatP= 8.68D-13
 IDIUse=1 WtCom= 1.00D+00 WtEn= 0.00D+00
 Coeff-Com:  0.696D-06-0.147D-05-0.239D-05 0.124D-05 0.101D-04-0.225D-06
 Coeff-Com: -0.145D-03-0.304D-03 0.298D-03 0.173D-02 0.340D-02-0.817D-02
 Coeff-Com: -0.375D-01-0.623D-01 0.230D+00 0.873D+00
 Coeff:      0.696D-06-0.147D-05-0.239D-05 0.124D-05 0.101D-04-0.225D-06
 Coeff:     -0.145D-03-0.304D-03 0.298D-03 0.173D-02 0.340D-02-0.817D-02
 Coeff:     -0.375D-01-0.623D-01 0.230D+00 0.873D+00
 Gap=     0.240 Goal=   None    Shift=    0.000
 RMSDP=3.18D-09 MaxDP=1.17D-07 DE=-4.09D-12 OVMax= 3.55D-07

 Error on total polarization charges =  0.00847
 SCF Done:  E(RwB97XD) =  -1028.77847379     A.U. after   16 cycles
            NFock= 16  Conv=0.32D-08     -V/T= 2.0046
 KE= 1.024078630457D+03 PE=-4.610995732838D+03 EE= 1.458663047267D+03
 Leave Link  502 at Tue Oct 27 21:56:32 2020, MaxMem=  7784628224 cpu:             879.5 elap:              88.7
 (Enter /gpfs/loomis/apps/avx/software/Gaussian/16-C.01_AVX/g16/l601.exe)
 Copying SCF densities to generalized density rwf, IOpCl= 0 IROHF=0.

 **********************************************************************

            Population analysis using the SCF Density.

 **********************************************************************

 Alpha  occ. eigenvalues --  -89.10691 -19.20828 -14.51018 -10.41780 -10.37591
 Alpha  occ. eigenvalues --  -10.36423 -10.35821 -10.33440 -10.32870 -10.32534
 Alpha  occ. eigenvalues --  -10.32397 -10.31496 -10.30969 -10.30780 -10.29264
 Alpha  occ. eigenvalues --  -10.28404  -8.12656  -6.07533  -6.07169  -6.06670
 Alpha  occ. eigenvalues --   -1.13958  -1.09295  -0.98663  -0.95552  -0.93425
 Alpha  occ. eigenvalues --   -0.89237  -0.86865  -0.83898  -0.81264  -0.76425
 Alpha  occ. eigenvalues --   -0.74472  -0.72146  -0.69175  -0.67828  -0.65570
 Alpha  occ. eigenvalues --   -0.60851  -0.59743  -0.56758  -0.56032  -0.55937
 Alpha  occ. eigenvalues --   -0.54984  -0.53724  -0.53130  -0.50714  -0.49199
 Alpha  occ. eigenvalues --   -0.48842  -0.48635  -0.46925  -0.45425  -0.44868
 Alpha  occ. eigenvalues --   -0.44291  -0.43044  -0.42323  -0.40196  -0.36800
 Alpha  occ. eigenvalues --   -0.33685  -0.31701  -0.31538  -0.25990
 Alpha virt. eigenvalues --   -0.01943   0.03690   0.05698   0.06117   0.09295
 Alpha virt. eigenvalues --    0.10532   0.13355   0.14643   0.16315   0.17441
 Alpha virt. eigenvalues --    0.18955   0.20231   0.21275   0.21279   0.23102
 Alpha virt. eigenvalues --    0.23637   0.24023   0.25558   0.28762   0.29829
 Alpha virt. eigenvalues --    0.30929   0.33717   0.35642   0.35866   0.36604
 Alpha virt. eigenvalues --    0.38339   0.39228   0.39958   0.41961   0.44475
 Alpha virt. eigenvalues --    0.46530   0.48579   0.50699   0.51000   0.51408
 Alpha virt. eigenvalues --    0.52821   0.52885   0.53019   0.54351   0.55546
 Alpha virt. eigenvalues --    0.56286   0.56393   0.56481   0.56709   0.57790
 Alpha virt. eigenvalues --    0.58016   0.58980   0.59490   0.59598   0.60198
 Alpha virt. eigenvalues --    0.60703   0.61515   0.61737   0.62497   0.62992
 Alpha virt. eigenvalues --    0.64703   0.66488   0.67097   0.68660   0.68983
 Alpha virt. eigenvalues --    0.70216   0.70755   0.72028   0.72201   0.72967
 Alpha virt. eigenvalues --    0.74266   0.75141   0.76161   0.76178   0.78325
 Alpha virt. eigenvalues --    0.79001   0.79399   0.81127   0.81652   0.83149
 Alpha virt. eigenvalues --    0.83339   0.88065   0.89002   0.91437   0.92445
 Alpha virt. eigenvalues --    0.93761   0.94495   0.95875   0.96826   0.97419
 Alpha virt. eigenvalues --    0.98677   0.99317   1.00168   1.00592   1.01215
 Alpha virt. eigenvalues --    1.02639   1.05073   1.05975   1.05988   1.07295
 Alpha virt. eigenvalues --    1.08181   1.08872   1.10251   1.11237   1.11331
 Alpha virt. eigenvalues --    1.12441   1.12590   1.13353   1.14646   1.15348
 Alpha virt. eigenvalues --    1.17044   1.18825   1.20222   1.23632   1.24023
 Alpha virt. eigenvalues --    1.26969   1.27142   1.32196   1.33268   1.33760
 Alpha virt. eigenvalues --    1.34737   1.36590   1.38270   1.40958   1.45361
 Alpha virt. eigenvalues --    1.49217   1.49350   1.53227   1.54840   1.54855
 Alpha virt. eigenvalues --    1.56511   1.57207   1.57520   1.57884   1.59740
 Alpha virt. eigenvalues --    1.60222   1.61945   1.63130   1.65255   1.67704
 Alpha virt. eigenvalues --    1.68532   1.69966   1.71247   1.71565   1.71928
 Alpha virt. eigenvalues --    1.72046   1.73339   1.73572   1.74309   1.74977
 Alpha virt. eigenvalues --    1.78491   1.79089   1.80399   1.81887   1.81958
 Alpha virt. eigenvalues --    1.83007   1.84580   1.84745   1.85420   1.86456
 Alpha virt. eigenvalues --    1.86650   1.89650   1.91362   1.92013   1.92343
 Alpha virt. eigenvalues --    1.93606   1.93639   1.95372   1.96412   1.98140
 Alpha virt. eigenvalues --    2.00254   2.00421   2.01743   2.04771   2.05054
 Alpha virt. eigenvalues --    2.06470   2.07027   2.10007   2.10154   2.13539
 Alpha virt. eigenvalues --    2.17262   2.17578   2.22202   2.24016   2.25191
 Alpha virt. eigenvalues --    2.27292   2.29860   2.34749   2.38282   2.40143
 Alpha virt. eigenvalues --    2.40527   2.42584   2.46669   2.48794   2.50273
 Alpha virt. eigenvalues --    2.52456   2.54113   2.55953   2.60512   2.62940
 Alpha virt. eigenvalues --    2.64053   2.69689   2.73869   2.76198   2.80059
 Alpha virt. eigenvalues --    2.81951   2.82489   2.84623   2.87406   2.90478
 Alpha virt. eigenvalues --    2.93137   3.01891   3.16165   3.31959   3.48301
 Alpha virt. eigenvalues --    3.51420   3.57761   3.62045   3.76902
          Condensed to atoms (all electrons):
               1          2          3          4          5          6
     1  C    4.726885   0.486152   0.007279  -0.050953  -0.011785   0.514041
     2  C    0.486152   5.367567   0.281069  -0.062369  -0.069695  -0.006463
     3  C    0.007279   0.281069   4.871854   0.523436  -0.002326  -0.067274
     4  C   -0.050953  -0.062369   0.523436   4.787712   0.520034  -0.014856
     5  C   -0.011785  -0.069695  -0.002326   0.520034   4.719141   0.500194
     6  C    0.514041  -0.006463  -0.067274  -0.014856   0.500194   4.735028
     7  H    0.404773  -0.040766   0.009102  -0.000548   0.008151  -0.038302
     8  H   -0.000594   0.010769  -0.024919   0.393583  -0.041023   0.007356
     9  H    0.008604  -0.000356   0.008206  -0.038285   0.405526  -0.043642
    10  H   -0.042393   0.009592  -0.000565   0.008699  -0.042844   0.407548
    11  N    0.003797  -0.036257   0.401565  -0.054819   0.002448   0.000386
    12  S   -0.064916   0.336466  -0.130038   0.003983   0.000188   0.003939
    13  C   -0.000213   0.000460   0.014722  -0.000377   0.000013  -0.000001
    14  C   -0.000005   0.000033   0.000340   0.000007  -0.000000  -0.000000
    15  C    0.000002  -0.000201   0.000399   0.000037  -0.000001   0.000000
    16  C    0.000000  -0.000002   0.000004  -0.000000   0.000000   0.000000
    17  H   -0.000004   0.000086  -0.000002   0.000000   0.000000   0.000000
    18  C    0.000000   0.000010  -0.000045  -0.000001  -0.000000   0.000000
    19  C   -0.000000   0.000000   0.000002  -0.000000   0.000000   0.000000
    20  H   -0.000000  -0.000000  -0.000000   0.000000   0.000000  -0.000000
    21  H   -0.000000   0.000000  -0.000001  -0.000000  -0.000000   0.000000
    22  H    0.000000  -0.000000  -0.000000  -0.000000   0.000000  -0.000000
    23  C    0.003334  -0.051175  -0.100799   0.003790   0.000298  -0.000301
    24  O    0.000002  -0.000223  -0.000721   0.000065   0.000000  -0.000000
    25  H    0.000218   0.012534  -0.033518  -0.011358  -0.000224  -0.000019
               7          8          9         10         11         12
     1  C    0.404773  -0.000594   0.008604  -0.042393   0.003797  -0.064916
     2  C   -0.040766   0.010769  -0.000356   0.009592  -0.036257   0.336466
     3  C    0.009102  -0.024919   0.008206  -0.000565   0.401565  -0.130038
     4  C   -0.000548   0.393583  -0.038285   0.008699  -0.054819   0.003983
     5  C    0.008151  -0.041023   0.405526  -0.042844   0.002448   0.000188
     6  C   -0.038302   0.007356  -0.043642   0.407548   0.000386   0.003939
     7  H    0.649671   0.000028  -0.000140  -0.011740  -0.000100  -0.006883
     8  H    0.000028   0.638724  -0.011676  -0.000118  -0.005119  -0.000244
     9  H   -0.000140  -0.011676   0.656639  -0.012228  -0.000107   0.000022
    10  H   -0.011740  -0.000118  -0.012228   0.657364   0.000005  -0.000134
    11  N   -0.000100  -0.005119  -0.000107   0.000005   5.897642  -0.046506
    12  S   -0.006883  -0.000244   0.000022  -0.000134  -0.046506  15.437456
    13  C    0.000005   0.000050  -0.000000  -0.000000  -0.029248  -0.066024
    14  C    0.000000   0.000001   0.000000  -0.000000   0.003422  -0.006661
    15  C   -0.000000  -0.000004   0.000000   0.000000  -0.003272   0.004123
    16  C   -0.000000  -0.000000  -0.000000  -0.000000  -0.000090   0.000011
    17  H    0.000001   0.000000  -0.000000  -0.000000   0.000254   0.006265
    18  C    0.000000  -0.000000  -0.000000  -0.000000  -0.000587  -0.000102
    19  C    0.000000   0.000000  -0.000000   0.000000   0.000038   0.000017
    20  H    0.000000  -0.000000   0.000000   0.000000   0.000001   0.000000
    21  H   -0.000000   0.000000  -0.000000   0.000000   0.000011   0.000003
    22  H    0.000000  -0.000000  -0.000000  -0.000000  -0.000000  -0.000000
    23  C    0.000169  -0.000648   0.000007   0.000004   0.513663   0.315689
    24  O    0.000000  -0.000230   0.000000  -0.000000  -0.047597  -0.000196
    25  H    0.000006   0.000982  -0.000014  -0.000000   0.371975   0.005078
              13         14         15         16         17         18
     1  C   -0.000213  -0.000005   0.000002   0.000000  -0.000004   0.000000
     2  C    0.000460   0.000033  -0.000201  -0.000002   0.000086   0.000010
     3  C    0.014722   0.000340   0.000399   0.000004  -0.000002  -0.000045
     4  C   -0.000377   0.000007   0.000037  -0.000000   0.000000  -0.000001
     5  C    0.000013  -0.000000  -0.000001   0.000000   0.000000  -0.000000
     6  C   -0.000001  -0.000000   0.000000   0.000000   0.000000   0.000000
     7  H    0.000005   0.000000  -0.000000  -0.000000   0.000001   0.000000
     8  H    0.000050   0.000001  -0.000004  -0.000000   0.000000  -0.000000
     9  H   -0.000000   0.000000   0.000000  -0.000000  -0.000000  -0.000000
    10  H   -0.000000  -0.000000   0.000000  -0.000000  -0.000000  -0.000000
    11  N   -0.029248   0.003422  -0.003272  -0.000090   0.000254  -0.000587
    12  S   -0.066024  -0.006661   0.004123   0.000011   0.006265  -0.000102
    13  C    5.485915   0.429491   0.176147  -0.004781  -0.042711  -0.039893
    14  C    0.429491   4.851294   0.012772   0.537980   0.400265  -0.062686
    15  C    0.176147   0.012772   4.733490  -0.057219   0.006599   0.469979
    16  C   -0.004781   0.537980  -0.057219   4.770679  -0.032956  -0.018264
    17  H   -0.042711   0.400265   0.006599  -0.032956   0.683522  -0.000943
    18  C   -0.039893  -0.062686   0.469979  -0.018264  -0.000943   4.890050
    19  C   -0.051645  -0.017008  -0.007580   0.474453   0.008484   0.497509
    20  H    0.009193  -0.036566  -0.000177   0.400228  -0.012404   0.008367
    21  H    0.015645  -0.000663  -0.023158   0.007712   0.000054   0.371284
    22  H   -0.001573   0.009566   0.008767  -0.046797  -0.000195  -0.039048
    23  C    0.343732  -0.098818  -0.073055   0.006679  -0.020252   0.010505
    24  O   -0.092446   0.006247   0.646681  -0.000153  -0.000074  -0.067011
    25  H   -0.044996  -0.000710  -0.010541   0.000063  -0.000075   0.004104
              19         20         21         22         23         24
     1  C   -0.000000  -0.000000  -0.000000   0.000000   0.003334   0.000002
     2  C    0.000000  -0.000000   0.000000  -0.000000  -0.051175  -0.000223
     3  C    0.000002  -0.000000  -0.000001  -0.000000  -0.100799  -0.000721
     4  C   -0.000000   0.000000  -0.000000  -0.000000   0.003790   0.000065
     5  C    0.000000   0.000000  -0.000000   0.000000   0.000298   0.000000
     6  C    0.000000  -0.000000   0.000000  -0.000000  -0.000301  -0.000000
     7  H    0.000000   0.000000  -0.000000   0.000000   0.000169   0.000000
     8  H    0.000000  -0.000000   0.000000  -0.000000  -0.000648  -0.000230
     9  H   -0.000000   0.000000  -0.000000  -0.000000   0.000007   0.000000
    10  H    0.000000   0.000000   0.000000  -0.000000   0.000004  -0.000000
    11  N    0.000038   0.000001   0.000011  -0.000000   0.513663  -0.047597
    12  S    0.000017   0.000000   0.000003  -0.000000   0.315689  -0.000196
    13  C   -0.051645   0.009193   0.015645  -0.001573   0.343732  -0.092446
    14  C   -0.017008  -0.036566  -0.000663   0.009566  -0.098818   0.006247
    15  C   -0.007580  -0.000177  -0.023158   0.008767  -0.073055   0.646681
    16  C    0.474453   0.400228   0.007712  -0.046797   0.006679  -0.000153
    17  H    0.008484  -0.012404   0.000054  -0.000195  -0.020252  -0.000074
    18  C    0.497509   0.008367   0.371284  -0.039048   0.010505  -0.067011
    19  C    4.750680  -0.047619  -0.047854   0.402877   0.000252   0.004817
    20  H   -0.047619   0.690022  -0.000173  -0.012615  -0.000378   0.000001
    21  H   -0.047854  -0.000173   0.682817  -0.012829  -0.000469   0.005868
    22  H    0.402877  -0.012615  -0.012829   0.677818   0.000011  -0.000085
    23  C    0.000252  -0.000378  -0.000469   0.000011   5.115758  -0.016929
    24  O    0.004817   0.000001   0.005868  -0.000085  -0.016929   7.868837
    25  H   -0.000403  -0.000001   0.000009   0.000006   0.019701   0.095302
              25
     1  C    0.000218
     2  C    0.012534
     3  C   -0.033518
     4  C   -0.011358
     5  C   -0.000224
     6  C   -0.000019
     7  H    0.000006
     8  H    0.000982
     9  H   -0.000014
    10  H   -0.000000
    11  N    0.371975
    12  S    0.005078
    13  C   -0.044996
    14  C   -0.000710
    15  C   -0.010541
    16  C    0.000063
    17  H   -0.000075
    18  C    0.004104
    19  C   -0.000403
    20  H   -0.000001
    21  H    0.000009
    22  H    0.000006
    23  C    0.019701
    24  O    0.095302
    25  H    0.577783
 Mulliken charges:
               1
     1  C    0.015776
     2  C   -0.237231
     3  C    0.242229
     4  C   -0.007780
     5  C    0.011905
     6  C    0.002366
     7  H    0.026573
     8  H    0.033082
     9  H    0.027443
    10  H    0.026811
    11  N    0.028494
    12  S    0.208463
    13  C   -0.101464
    14  C   -0.028302
    15  C    0.116211
    16  C   -0.037546
    17  H    0.004085
    18  C   -0.023229
    19  C    0.032981
    20  H    0.002119
    21  H    0.001741
    22  H    0.014097
    23  C    0.029232
    24  O   -0.402155
    25  H    0.014097
 Sum of Mulliken charges =  -0.00000
 Mulliken charges with hydrogens summed into heavy atoms:
               1
     1  C    0.042349
     2  C   -0.237231
     3  C    0.242229
     4  C    0.025302
     5  C    0.039348
     6  C    0.029177
    11  N    0.042591
    12  S    0.208463
    13  C   -0.101464
    14  C   -0.024217
    15  C    0.116211
    16  C   -0.035426
    18  C   -0.021488
    19  C    0.047078
    23  C    0.029232
    24  O   -0.402155
 Electronic spatial extent (au):  <R**2>=           4342.6563
 Charge=             -0.0000 electrons
 Dipole moment (field-independent basis, Debye):
    X=              1.5740    Y=             -5.5599    Z=             -0.0001  Tot=              5.7784
 Quadrupole moment (field-independent basis, Debye-Ang):
   XX=            -82.6353   YY=            -94.3526   ZZ=           -104.0404
   XY=             -6.7813   XZ=             -0.0001   YZ=              0.0000
 Traceless Quadrupole moment (field-independent basis, Debye-Ang):
   XX=             11.0409   YY=             -0.6765   ZZ=            -10.3643
   XY=             -6.7813   XZ=             -0.0001   YZ=              0.0000
 Octapole moment (field-independent basis, Debye-Ang**2):
  XXX=             36.1644  YYY=            -56.3735  ZZZ=             -0.0001  XYY=              1.8439
  XXY=             -9.6903  XXZ=             -0.0001  XZZ=              2.4132  YZZ=              1.7545
  YYZ=              0.0001  XYZ=             -0.0006
 Hexadecapole moment (field-independent basis, Debye-Ang**3):
 XXXX=          -2607.4253 YYYY=          -2659.2500 ZZZZ=           -112.9745 XXXY=            814.0659
 XXXZ=              0.0097 YYYX=            772.7382 YYYZ=             -0.0131 ZZZX=              0.0133
 ZZZY=             -0.0183 XXYY=           -850.5001 XXZZ=           -572.5881 YYZZ=           -548.2902
 XXYZ=             -0.0033 YYXZ=              0.0008 ZZXY=            358.3624
 N-N= 1.099475581322D+03 E-N=-4.610995732177D+03  KE= 1.024078630457D+03
 No NMR shielding tensors so no spin-rotation constants.
 Leave Link  601 at Tue Oct 27 21:56:32 2020, MaxMem=  7784628224 cpu:               2.8 elap:               0.4
 (Enter /gpfs/loomis/apps/avx/software/Gaussian/16-C.01_AVX/g16/l701.exe)
 ... and contract with generalized density number  0.
 Compute integral first derivatives.
 R6Disp: Adding Grimme-D2 dispersion energy 1st derivatives to the gradient.
 D1PCM: PCM CHGder 1st derivatives, ID1Alg=3 FixD1E=F DoIter=F DoCFld=F I1PDM=0.
 GePol: Maximum number of non-zero 1st derivatives   =     264
 Leave Link  701 at Tue Oct 27 21:56:35 2020, MaxMem=  7784628224 cpu:              23.9 elap:               2.7
 (Enter /gpfs/loomis/apps/avx/software/Gaussian/16-C.01_AVX/g16/l702.exe)
 L702 exits ... SP integral derivatives will be done elsewhere.
 Leave Link  702 at Tue Oct 27 21:56:35 2020, MaxMem=  7784628224 cpu:               0.2 elap:               0.1
 (Enter /gpfs/loomis/apps/avx/software/Gaussian/16-C.01_AVX/g16/l703.exe)
 Integral derivatives from FoFJK, PRISM(SPDF).
 Compute integral first derivatives, UseDBF=F ICtDFT=           0.
 Calling FoFJK, ICntrl=      2127 FMM=F ISym2X=0 I1Cent= 0 IOpClX= 0 NMat=1 NMatS=1 NMatT=0.
 FoFJK:  IHMeth= 1 ICntrl=    2127 DoSepK=T KAlg= 0 I1Cent=           0 FoldK=F
 IRaf=         1 NMat=       1 IRICut=       1 DoRegI=T DoRafI=F ISym2E= 0 IDoP0=0 IntGTp=1.
 FoFCou: FMM=F IPFlag=           0 FMFlag=      100000 FMFlg1=         800
         NFxFlg=           0 DoJE=F BraDBF=F KetDBF=F FulRan=T
         wScrn=  0.000000 ICntrl=      2527 IOpCl=  0 I1Cent=           0 NGrid=           0
         NMat0=    1 NMatS0=      1 NMatT0=    0 NMatD0=    1 NMtDS0=    0 NMtDT0=    0
 Symmetry not used in FoFCou.
 Leave Link  703 at Tue Oct 27 21:56:52 2020, MaxMem=  7784628224 cpu:             138.8 elap:              16.6
 (Enter /gpfs/loomis/apps/avx/software/Gaussian/16-C.01_AVX/g16/l716.exe)
 Dipole        = 6.19243131D-01-2.18744333D+00-2.82909150D-05
 -------------------------------------------------------------------
 Center     Atomic                   Forces (Hartrees/Bohr)
 Number     Number              X              Y              Z
 -------------------------------------------------------------------
      1        6           0.001137344    0.001689403    0.000000006
      2        6           0.007352793    0.007740563   -0.000000111
      3        6           0.007056619   -0.014306035   -0.000000182
      4        6          -0.002156503    0.001333941    0.000000046
      5        6           0.000807619   -0.001112212    0.000000013
      6        6          -0.002210386    0.001515352   -0.000000020
      7        1           0.000056584    0.000330747   -0.000000046
      8        1           0.000239471   -0.000148920    0.000000006
      9        1          -0.000316821   -0.000036673   -0.000000002
     10        1          -0.000176115    0.000064180    0.000000003
     11        7          -0.064043619   -0.219146563   -0.000003547
     12       16           0.005970337    0.011412702   -0.000000134
     13        6           0.026884428    0.012385959   -0.000000076
     14        6          -0.041261529    0.022896209    0.000000705
     15        6           0.013875958   -0.015427038   -0.000000341
     16        6           0.005350141   -0.040830880   -0.000000903
     17        1          -0.001027791   -0.000371611    0.000000014
     18        6          -0.023628633    0.001796832    0.000000420
     19        6           0.029663213    0.006731742   -0.000000004
     20        1           0.000160086   -0.000460859   -0.000000036
     21        1          -0.000643140    0.000023788   -0.000000092
     22        1          -0.000521901    0.001075960   -0.000000022
     23        6          -0.001701754    0.018934400    0.000000518
     24        8          -0.006770404    0.012826057    0.000000110
     25        1           0.045904003    0.191082955    0.000003675
 -------------------------------------------------------------------
 Cartesian Forces:  Max     0.219146563 RMS     0.036256868
 Leave Link  716 at Tue Oct 27 21:56:52 2020, MaxMem=  7784628224 cpu:               0.5 elap:               0.1
 (Enter /gpfs/loomis/apps/avx/software/Gaussian/16-C.01_AVX/g16/l103.exe)

 GradGradGradGradGradGradGradGradGradGradGradGradGradGradGradGradGradGrad
 Berny optimization.
 FormGI is forming the generalized inverse of G from B-inverse, IUseBI=4.
 Internal  Forces:  Max     0.139875648 RMS     0.015681720
 Search for a local minimum.
 Step number   1 out of a maximum of  146
 All quantities printed in internal units (Hartrees-Bohrs-Radians)
 RMS Force = .15798D-01 SwitMx=.10000D-02 MixMth= 1
 Mixed Optimization -- RFO/linear search
 Second derivative matrix not updated -- first step.
 ITU=  0
     Eigenvalues ---    0.01273   0.01476   0.01499   0.01687   0.01705
     Eigenvalues ---    0.01713   0.01815   0.01952   0.01974   0.02001
     Eigenvalues ---    0.02024   0.02026   0.02053   0.02109   0.02110
     Eigenvalues ---    0.02128   0.02128   0.02142   0.02145   0.02159
     Eigenvalues ---    0.02168   0.02179   0.16000   0.16000   0.16000
     Eigenvalues ---    0.16000   0.16000   0.16000   0.16000   0.16003
     Eigenvalues ---    0.17475   0.22004   0.22012   0.22536   0.22587
     Eigenvalues ---    0.24372   0.24474   0.24600   0.25000   0.25000
     Eigenvalues ---    0.28403   0.28748   0.32221   0.34500   0.34672
     Eigenvalues ---    0.34686   0.34703   0.34725   0.34745   0.34776
     Eigenvalues ---    0.34788   0.35651   0.39159   0.40686   0.41736
     Eigenvalues ---    0.42089   0.43654   0.43827   0.45330   0.46044
     Eigenvalues ---    0.46303   0.46962   0.47471   0.47502   0.50823
     Eigenvalues ---    0.60521   0.776201000.000001000.000001000.00000
     Eigenvalues --- 1000.000001000.000001000.000001000.000001000.00000
     Eigenvalues --- 1000.000001000.000001000.000001000.000001000.00000
     Eigenvalues --- 1000.000001000.000001000.000001000.000001000.00000
     Eigenvalues --- 1000.000001000.000001000.000001000.000001000.00000
     Eigenvalues --- 1000.000001000.000001000.000001000.000001000.00000
     Eigenvalues --- 1000.000001000.000001000.000001000.000001000.00000
     Eigenvalues --- 1000.000001000.000001000.000001000.000001000.00000
     Eigenvalues --- 1000.000001000.000001000.000001000.000001000.00000
     Eigenvalues --- 1000.000001000.000001000.000001000.000001000.00000
     Eigenvalues --- 1000.000001000.000001000.000001000.000001000.00000
     Eigenvalues --- 1000.000001000.000001000.000001000.000001000.00000
     Eigenvalues --- 1000.000001000.000001000.000001000.000001000.00000
     Eigenvalues --- 1000.000001000.000001000.000001000.000001000.00000
     Eigenvalues --- 1000.00000
 RFO step:  Lambda=-5.80616351D-02 EMin= 1.27294988D-02
 Linear search not attempted -- first point.
 Maximum step size (   0.300) exceeded in Quadratic search.
    -- Step size scaled by   0.894
 Iteration  1 RMS(Cart)=  0.03091063 RMS(Int)=  0.00163166
 Iteration  2 RMS(Cart)=  0.00225223 RMS(Int)=  0.00120888
 Iteration  3 RMS(Cart)=  0.00001259 RMS(Int)=  0.00125233
 Iteration  4 RMS(Cart)=  0.00000022 RMS(Int)=  0.00125176
 Iteration  1 RMS(Cart)=  0.00001972 RMS(Int)=  0.00001573
 Iteration  2 RMS(Cart)=  0.00000025 RMS(Int)=  0.00001094
 ITry= 1 IFail=0 DXMaxC= 1.93D-01 DCOld= 1.00D+10 DXMaxT= 3.00D-01 DXLimC= 3.00D+00 Rises=F
 Variable       Old X    -DE/DX   Delta X   Delta X   Delta X     New X
                                 (Linear)    (Quad)   (Total)
    R1        2.63493  -0.00608   0.00000  -0.00473  -0.00427   2.63066
    R2        2.63628  -0.00079   0.00000   0.00186   0.00193   2.63821
    R3        2.06119  -0.00101   0.00000  -0.00138  -0.00131   2.05988
    R4        2.68020  -0.04092   0.00000  -0.05312  -0.05101   2.62919
    R5        3.33059   0.01381   0.00000   0.02569   0.02459   3.35518
    R6        2.64026  -0.00247   0.00000  -0.00672  -0.00676   2.63350
    R7        2.59896  -0.00565   0.00000  -0.00802  -0.00744   2.59152
    R8        2.62720  -0.00016   0.00000  -0.00367  -0.00389   2.62331
    R9        2.06040   0.00014   0.00000   0.00019   0.00018   2.06058
   R10        2.64739  -0.00729   0.00000  -0.00496  -0.00438   2.64301
   R11        2.06211  -0.00040   0.00000  -0.00072  -0.00071   2.06140
   R12        2.06090  -0.00028   0.00000  -0.00049  -0.00048   2.06043
   R13        2.56768  -0.00400   0.00000  -0.01717  -0.01809   2.54959
   R14        1.67403   0.13988   0.00000   0.19229   0.19740   1.87143
   R15        3.32168  -0.02448   0.00000  -0.02113  -0.01886   3.30283
   R16        2.61826   0.01784   0.00000   0.03979   0.04070   2.65896
   R17        2.81576  -0.01382   0.00000  -0.01169  -0.01033   2.80543
   R18        2.69927   0.01230   0.00000   0.00945   0.00829   2.70755
   R19        2.67881  -0.02144   0.00000  -0.05268  -0.05387   2.62494
   R20        2.06494   0.00046   0.00000   0.00130   0.00132   2.06626
   R21        2.69267   0.01920   0.00000   0.01865   0.01717   2.70984
   R22        2.39050  -0.02474   0.00000  -0.01310  -0.01107   2.37944
   R23        2.64093   0.00503   0.00000   0.01591   0.01661   2.65754
   R24        2.06186   0.00016   0.00000  -0.00003  -0.00006   2.06181
   R25        2.63534  -0.00973   0.00000  -0.02732  -0.02825   2.60709
   R26        2.06159  -0.00033   0.00000  -0.00049  -0.00047   2.06112
   R27        2.06019   0.00165   0.00000   0.00305   0.00300   2.06319
    A1        2.06404   0.00378   0.00000   0.00349   0.00291   2.06695
    A2        2.10927  -0.00291   0.00000  -0.00302  -0.00263   2.10665
    A3        2.10987  -0.00088   0.00000  -0.00048  -0.00028   2.10959
    A4        2.11496  -0.00466   0.00000  -0.01556  -0.01525   2.09970
    A5        2.23437   0.00594   0.00000   0.02891   0.02943   2.26380
    A6        1.93386  -0.00128   0.00000  -0.01335  -0.01418   1.91968
    A7        2.09289   0.01318   0.00000   0.03010   0.02961   2.12249
    A8        1.97477  -0.01878   0.00000  -0.02905  -0.02754   1.94723
    A9        2.21553   0.00560   0.00000  -0.00104  -0.00206   2.21346
   A10        2.06952  -0.00431   0.00000  -0.00928  -0.00893   2.06059
   A11        2.09437   0.00301   0.00000   0.00603   0.00578   2.10016
   A12        2.11929   0.00130   0.00000   0.00325   0.00315   2.12244
   A13        2.11931  -0.00633   0.00000  -0.01228  -0.01198   2.10733
   A14        2.07825   0.00321   0.00000   0.00553   0.00537   2.08361
   A15        2.08563   0.00312   0.00000   0.00675   0.00662   2.09224
   A16        2.10565  -0.00167   0.00000   0.00353   0.00365   2.10931
   A17        2.08597   0.00078   0.00000  -0.00139  -0.00144   2.08453
   A18        2.09156   0.00088   0.00000  -0.00215  -0.00221   2.08935
   A19        1.97969   0.04249   0.00000   0.08276   0.08086   2.06054
   A20        2.33721  -0.05610   0.00000  -0.12757  -0.12365   2.21356
   A21        1.96629   0.01362   0.00000   0.04481   0.04279   2.00909
   A22        1.55840   0.01632   0.00000   0.03646   0.03517   1.59357
   A23        2.07667   0.00283   0.00000   0.00391   0.00363   2.08030
   A24        2.17283  -0.00283   0.00000  -0.01772  -0.01850   2.15434
   A25        2.03368   0.00000   0.00000   0.01381   0.01487   2.04855
   A26        2.10446   0.00730   0.00000   0.01584   0.01551   2.11997
   A27        2.10167  -0.00312   0.00000  -0.00435  -0.00413   2.09753
   A28        2.07706  -0.00417   0.00000  -0.01149  -0.01138   2.06568
   A29        2.05734  -0.01236   0.00000  -0.02620  -0.02576   2.03158
   A30        2.10373  -0.00259   0.00000   0.02861   0.03060   2.13434
   A31        2.12211   0.01495   0.00000  -0.00241  -0.00484   2.11727
   A32        2.11950  -0.00718   0.00000  -0.02174  -0.02162   2.09788
   A33        2.07073   0.00343   0.00000   0.01015   0.01010   2.08082
   A34        2.09296   0.00375   0.00000   0.01159   0.01153   2.10449
   A35        2.11907   0.00566   0.00000   0.01156   0.01128   2.13035
   A36        2.03058  -0.00181   0.00000  -0.00322  -0.00315   2.02743
   A37        2.13354  -0.00385   0.00000  -0.00834  -0.00813   2.12541
   A38        2.08934   0.00375   0.00000   0.01663   0.01696   2.10630
   A39        2.09462  -0.00241   0.00000  -0.00764  -0.00769   2.08694
   A40        2.09923  -0.00135   0.00000  -0.00899  -0.00927   2.08995
   A41        1.97806  -0.03874   0.00000  -0.07681  -0.07430   1.90376
   A42        2.08035   0.02289   0.00000   0.04157   0.04018   2.12053
   A43        2.22478   0.01585   0.00000   0.03524   0.03412   2.25889
    D1        0.00000   0.00000   0.00000   0.00000   0.00000   0.00000
    D2       -3.14159  -0.00000   0.00000  -0.00000  -0.00000  -3.14159
    D3        3.14159   0.00000   0.00000   0.00000   0.00000   3.14159
    D4       -0.00000  -0.00000   0.00000  -0.00000  -0.00000  -0.00000
    D5       -0.00000  -0.00000   0.00000   0.00000   0.00000  -0.00000
    D6        3.14159   0.00000   0.00000   0.00000   0.00000   3.14159
    D7       -3.14159  -0.00000   0.00000  -0.00000  -0.00000  -3.14159
    D8        0.00000  -0.00000   0.00000  -0.00000  -0.00000   0.00000
    D9        0.00000   0.00000   0.00000  -0.00000  -0.00000   0.00000
   D10        3.14159  -0.00000   0.00000  -0.00000  -0.00000   3.14159
   D11       -3.14159   0.00000   0.00000   0.00000   0.00000  -3.14159
   D12       -0.00000  -0.00000   0.00000  -0.00000  -0.00000  -0.00000
   D13        3.14159   0.00000   0.00000   0.00000   0.00000   3.14159
   D14       -0.00000  -0.00000   0.00000   0.00000   0.00000  -0.00000
   D15       -0.00000  -0.00000   0.00000   0.00000   0.00000  -0.00000
   D16        3.14159  -0.00000   0.00000  -0.00000  -0.00000   3.14159
   D17       -3.14159   0.00000   0.00000   0.00000   0.00000  -3.14159
   D18        0.00000   0.00000   0.00000   0.00000   0.00000   0.00000
   D19        0.00000   0.00000   0.00000   0.00000   0.00000   0.00000
   D20        3.14156   0.00000   0.00000   0.00001   0.00001   3.14157
   D21       -3.14159   0.00000   0.00000  -0.00000  -0.00000  -3.14159
   D22       -0.00003   0.00000   0.00000   0.00001   0.00001  -0.00002
   D23        0.00000   0.00000   0.00000   0.00000   0.00000   0.00000
   D24       -3.14159   0.00000   0.00000  -0.00000  -0.00000  -3.14159
   D25       -3.14159   0.00000   0.00000   0.00000   0.00000  -3.14159
   D26        0.00000   0.00000   0.00000   0.00000   0.00000   0.00000
   D27        0.00000  -0.00000   0.00000  -0.00000  -0.00000  -0.00000
   D28       -3.14159  -0.00000   0.00000  -0.00000  -0.00000  -3.14159
[...]
 03,0.00000002,0.00064292,0.00000010,-0.00000003,-0.00154075,-0.0000000
 4,0.00000001,-0.00011801,0.,-0.00000004,0.00015988,0.00000003,0.000000
 01,-0.00014984,0.,0.,0.00003448,0.,0.,-0.00008746,0.,0.,0.00004309,0.,
 0.,-0.00008978,0.00000009,0.00000032,-0.00001709,-0.00000004,-0.000000
 04,0.00215680,0.00000064,-0.00000198,-0.07341682,-0.00000141,0.0000005
 4,0.00030185,-0.00000728,0.00000502,0.19981211,0.00056573,-0.00067704,
 0.,-0.00104166,0.00116365,0.00000001,0.00017836,-0.00132572,-0.0000000
 2,0.00041063,0.00017271,0.,-0.00004073,0.00075247,0.,-0.00088694,-0.00
 008359,0.,0.00002411,0.00003596,0.,0.00002908,-0.00003760,0.,-0.000068
 06,0.00005039,0.,-0.00004207,0.00002546,0.,-0.00652479,0.00009579,0.00
 000003,0.00058962,0.00179902,0.,-0.04653410,0.02520068,0.00000060,-0.2
 4099931,0.16992745,0.00000378,0.00087865,0.01433311,0.00000019,0.76952
 872,-0.00153507,0.00220718,0.00000001,0.00277613,-0.00176901,-0.000000
 02,0.00038186,0.00172004,0.00000002,-0.00173964,0.00024834,0.00000002,
 -0.00002165,-0.00253759,-0.00000003,0.00272713,0.00032349,0.,-0.000118
 21,-0.00007144,0.,0.00006094,0.00008163,0.,0.00016978,-0.00010028,0.,0
 .00013432,-0.00005065,0.,0.01496844,0.00631024,0.,-0.00349305,-0.00453
 296,-0.00000002,0.06411464,0.00526113,-0.00000016,0.10847360,-0.289041
 43,-0.00000455,0.02858160,-0.04708127,-0.00000109,-0.02538692,0.669803
 99,-0.00000003,0.00000004,0.00003883,0.00000006,-0.00000004,0.00035888
 ,0.00000001,0.00000003,-0.00055850,-0.00000004,0.,-0.00010167,0.,-0.00
 000005,0.00004742,0.00000005,0.,-0.00001189,0.,0.,-0.00000177,0.,0.,-0
 .00000382,0.,0.,0.00001474,0.,0.,-0.00002147,0.00000027,0.00000012,0.0
 0000670,-0.00000006,-0.00000010,-0.00075577,0.00000130,-0.00000015,0.0
 0931790,0.00000281,-0.00000497,-0.06224159,0.00000047,-0.00000080,-0.0
 0613799,-0.00000291,0.00001102,0.12080107,0.00027808,-0.00000103,0.,-0
 .00062826,0.00031244,0.00000001,0.00036247,-0.00024836,0.,0.00002999,0
 .00004707,0.,0.00004278,0.00008858,0.,-0.00010847,-0.00007651,0.,-0.00
 001287,-0.00000427,0.,0.00003584,0.00000159,0.,0.00000462,0.00000169,0
 .,0.00002586,-0.00000297,0.,-0.00006900,0.00033281,0.,-0.00093577,0.00
 189633,0.,-0.00601710,-0.02830759,-0.00000046,-0.09334976,-0.09365562,
 -0.00000146,-0.00474677,0.00341418,0.00000005,0.01105290,0.01973147,0.
 00000034,0.09497591,0.00007795,-0.00009018,0.,-0.00025282,0.00060896,0
 .,0.00030306,-0.00024877,0.,0.00004538,0.00006119,0.,0.00001201,0.0001
 1524,0.,-0.00014753,-0.00000482,0.,-0.00000777,0.00001348,0.,0.0000218
 9,-0.00000467,0.,-0.00000772,0.00000660,0.,-0.00000304,0.00000303,0.,-
 0.00107922,0.00009529,0.00000001,-0.00004667,-0.00031247,0.,0.00039815
 ,-0.00086673,-0.00000007,-0.09031161,-0.30135271,-0.00000428,0.0003909
 0,0.00231215,-0.00000007,-0.01313089,-0.01717338,-0.00000035,0.0979874
 5,0.32009672,0.,0.,-0.00000615,0.,0.00000001,-0.00049865,0.,0.,0.00012
 515,0.,0.,0.00006862,0.,0.,-0.00001583,0.,0.,0.00002345,0.,0.,-0.00000
 930,0.,0.,-0.00001125,0.,0.,-0.00000419,0.,0.,0.00001434,0.00000001,0.
 ,-0.00020356,-0.00000002,0.00000001,0.00084302,0.00000015,0.00000001,0
 .00298671,-0.00000153,-0.00000418,-0.03732956,0.00000007,-0.00000007,0
 .00481242,-0.00000019,-0.00000062,0.00582631,0.00000147,0.00000479,0.0
 2443093,-0.00051296,0.00121795,0.00000001,0.00119758,-0.00073025,0.,0.
 00185059,0.00066630,-0.00000001,-0.00105476,0.00007549,0.,0.00003856,-
 0.00135704,-0.00000001,0.00137028,0.00018397,0.,-0.00008662,0.00001376
 ,0.,0.00014264,0.00002366,0.,0.00007258,-0.00004476,0.,0.00007297,-0.0
 0000498,0.,0.00847798,0.00835754,0.00000003,-0.00100742,-0.00180478,-0
 .00000002,0.04698871,0.00212610,0.00000007,-0.04750291,0.02294768,0.00
 000061,-0.13397555,0.04219998,0.00000104,-0.00644361,-0.07438545,-0.00
 000126,-0.00020239,0.00050682,-0.00000006,0.75148041,0.00083010,-0.000
 71072,0.,-0.00154615,0.00018390,0.00000001,-0.00029986,-0.00044372,0.0
 0000001,0.00069547,-0.00009232,0.,0.00005876,0.00098039,0.00000001,-0.
 00101755,-0.00021838,0.,0.00001630,0.00003414,0.,-0.00001496,-0.000018
 58,0.,-0.00004534,0.00003581,0.,-0.00001021,0.00000598,0.,-0.00520583,
 -0.00126054,-0.00000002,0.00222168,0.00073444,0.00000001,0.00164850,-0
 .02321881,-0.00000074,0.01384074,-0.00866896,-0.00000019,0.06941190,-0
 .21633773,-0.00000319,-0.03752985,0.01099222,0.00000022,0.00002190,0.0
 0055040,0.00000006,0.08844631,0.67711262,0.00000003,-0.00000003,-0.000
 16341,-0.00000006,0.,-0.00024357,-0.00000003,0.,-0.00089174,0.00000003
 ,0.,0.00006853,0.,0.00000003,0.00002429,-0.00000004,0.,0.00005205,0.,0
 .,-0.00005681,0.,0.,-0.00004330,0.,0.,-0.00001261,0.,0.,0.00004369,-0.
 00000018,-0.00000011,0.00140283,0.00000006,0.,-0.00083671,-0.00000013,
 -0.00000041,0.00971890,0.00000045,-0.00000026,-0.00111097,0.00000153,-
 0.00000331,-0.07668274,-0.00000063,0.00000035,0.00788903,0.,0.00000002
 ,-0.00022907,-0.00000351,0.00000969,0.11939146,0.00103755,-0.00145064,
 0.,-0.00197968,0.00104461,0.,-0.00065377,-0.00092513,0.,0.00123739,-0.
 00013547,0.,0.00000424,0.00173594,0.00000002,-0.00182834,-0.00025571,0
 .,0.00007520,0.00004422,0.,-0.00006049,-0.00005175,0.,-0.00011027,0.00
 007004,0.,-0.00008108,0.00002847,0.,-0.00959815,-0.00396647,-0.0000000
 1,0.00233622,0.00252960,0.00000001,-0.03624093,0.00393668,0.00000009,0
 .05431517,-0.00474559,-0.00000030,-0.05059137,0.03489910,0.00000113,-0
 .14721869,-0.02923632,-0.00000036,-0.00247127,0.00447933,0.00000018,-0
 .42199224,-0.08236060,0.00000112,0.76484969,0.00085342,-0.00121702,0.,
 -0.00142203,0.00101121,0.,-0.00033926,-0.00146052,-0.00000002,0.000811
 18,-0.00002792,0.,-0.00000115,0.00133085,0.00000002,-0.00149531,-0.000
 16491,0.,0.00007032,0.00002317,0.,-0.00005570,-0.00003721,0.,-0.000092
 00,0.00005763,0.,-0.00006780,0.00002299,0.,-0.01052128,-0.00463669,0.,
 0.00190660,0.00216595,0.00000001,-0.03772855,-0.00280055,0.00000003,0.
 04223398,-0.05853518,-0.00000143,0.00090583,0.05093563,0.00000099,-0.0
 9550321,-0.27877730,-0.00000424,0.00293919,-0.00236818,-0.00000016,-0.
 02102690,-0.14273532,-0.00000120,-0.02692258,0.68016715,0.,-0.00000001
 ,-0.00000311,-0.00000001,0.00000001,0.00012708,0.,-0.00000003,0.000361
 09,0.,0.,-0.00000685,0.,0.00000001,-0.00002814,-0.00000002,0.,-0.00000
 054,0.,0.,0.00001051,0.,0.,0.00002588,0.,0.,-0.00000216,0.,0.,-0.00001
 051,-0.00000016,-0.00000009,-0.00024475,0.00000002,0.00000003,-0.00011
 451,-0.00000055,0.,-0.00443537,0.00000056,-0.00000118,0.00682305,0.000
 00041,0.00000075,-0.00046231,-0.00000157,-0.00000451,-0.06219005,0.000
 00010,-0.00000021,0.00834388,0.00000197,-0.00000102,-0.05804115,-0.000
 00428,0.00001096,0.14422710,0.00002138,-0.00007891,0.,-0.00003664,0.00
 012967,0.,-0.00000713,-0.00015201,0.,0.00003545,0.00003262,0.,-0.00001
 135,0.00006295,0.,-0.00008240,0.00000742,0.,0.00000498,0.00000607,0.,0
 .00000275,-0.00000561,0.,-0.00000993,0.00000701,0.,-0.00000937,0.00000
 482,0.,-0.00046567,0.00039896,0.,0.00002638,0.00009450,0.,0.00016472,0
 .00362977,0.00000009,-0.01435634,-0.00709304,-0.00000008,0.00058606,0.
 00004808,0.,-0.34043103,-0.04695683,0.00000035,0.00077441,0.00014024,-
 0.00000002,0.00132737,-0.00186008,-0.00000003,-0.00599804,0.00273703,0
 .00000009,0.35867877,-0.00000479,0.00003100,0.,0.00002495,-0.00006520,
 0.,0.00007851,0.00009854,0.,-0.00001432,-0.00004123,0.,0.00001423,-0.0
 0002111,0.,0.00003069,-0.00000319,0.,-0.00000104,-0.00000299,0.,0.0000
 0129,0.00000200,0.,0.00000463,-0.00000494,0.,0.00000355,-0.00000150,0.
 ,0.00038216,-0.00028871,0.00000001,0.00000306,0.00003522,0.,0.00209149
 ,-0.00349427,-0.00000022,0.02564975,0.00720789,0.00000002,0.00045234,-
 0.00147316,-0.00000002,-0.04811992,-0.06498606,-0.00000054,-0.00018707
 ,0.00096552,0.00000013,-0.00052440,-0.00516034,-0.00000020,-0.02961014
 ,0.00009005,0.00000012,0.05006247,0.06513046,0.,0.,-0.00000064,0.,0.,-
 0.00007513,0.,0.,-0.00036526,0.,0.,-0.00002600,0.,0.,0.00003591,0.,0.,
 -0.00000612,0.,0.,-0.00000147,0.,0.,-0.00001559,0.,0.,0.00000832,0.,0.
 ,0.00000635,0.,0.,-0.00054174,0.,0.,0.00018166,0.00000009,-0.00000020,
 0.00800549,0.00000050,0.00000016,0.00146379,0.,-0.00000005,-0.00073142
 ,0.00000037,-0.00000054,-0.03081645,-0.00000002,0.00000011,-0.00543236
 ,0.,-0.00000019,0.00448273,-0.00000057,0.,0.00061279,-0.00000039,0.000
 00064,0.02377889,-0.00007383,0.00001813,0.,0.00009243,0.00007466,0.,-0
 .00004320,0.00001173,0.,-0.00002401,0.00000805,0.,-0.00000851,-0.00004
 633,0.,0.00004999,0.00001787,0.,0.00000087,-0.00000441,0.,-0.00000550,
 0.00000145,0.,0.00000240,-0.00000144,0.,-0.00000263,-0.00000170,0.,0.0
 0039029,-0.00016916,0.,-0.00030861,0.00008644,0.,-0.00207928,0.0022706
 2,0.00000010,-0.00132749,0.00046204,0.,0.00942401,0.02043982,0.0000003
 3,-0.00489078,0.00031098,0.00000011,0.00011023,-0.00010473,-0.00000001
 ,-0.09043135,-0.09438789,-0.00000115,-0.00533975,-0.02953239,-0.000000
 48,-0.00044501,-0.00140621,-0.00000003,0.09224829,0.00002404,0.0001054
 5,0.,-0.00007015,-0.00019025,0.,0.00002674,0.00016691,0.,-0.00004095,-
 0.00001641,0.,0.00001726,-0.00006665,0.,0.00008114,-0.00001820,0.,-0.0
 0000843,0.00000082,0.,0.00000527,0.00000504,0.,0.00001081,-0.00000589,
 0.,0.00001424,-0.00000370,0.,0.00024727,0.00024725,0.,0.00023686,-0.00
 037762,0.,0.00393143,-0.00274976,-0.00000015,0.00116400,0.00034690,0.0
 0000002,-0.01444251,-0.01756769,-0.00000025,-0.00055172,0.00223707,-0.
 00000011,-0.00007228,-0.00007646,0.00000002,-0.09401226,-0.31003386,-0
 .00000423,0.00223925,-0.00064773,-0.00000008,0.00005940,-0.00013560,-0
 .00000001,0.10251902,0.32574795,0.,0.,0.00004773,0.,0.,0.00001936,0.,0
 .,-0.00005596,0.,0.,-0.00000115,0.,0.,0.00000340,0.,0.,-0.00000640,0.,
 0.,0.00000362,0.,0.,0.00000063,0.,0.,0.00000309,0.,0.,-0.00000819,0.,0
 .00000001,-0.00004222,0.,0.,0.00007956,0.00000007,-0.00000016,0.004047
 82,0.00000010,0.,-0.00075883,-0.00000039,-0.00000045,0.00453223,0.0000
 0007,-0.00000007,0.00889094,0.,0.00000002,-0.00096208,-0.00000105,-0.0
 0000418,-0.03424982,0.,0.00000008,0.00304930,0.,0.,0.00054648,0.000001
 36,0.00000461,0.02432900,0.00004728,-0.00007447,0.,-0.00006152,0.00013
 899,0.,0.00011315,-0.00014325,0.,0.00003525,0.00000708,0.,-0.00000149,
 0.00007541,0.,-0.00009264,-0.00000041,0.,0.00000354,0.00000450,0.,0.00
 000592,-0.00000497,0.,-0.00000921,0.00000534,0.,-0.00000704,0.00000426
 ,0.,-0.00039244,0.00022794,0.,0.00003955,0.00027958,0.,-0.00093640,0.0
 0030069,0.,0.00063105,-0.00268839,-0.00000003,-0.00312645,-0.00387306,
 0.,0.00979418,-0.00970153,-0.00000023,0.00036715,-0.00051927,0.,-0.014
 04270,0.02635498,0.00000062,-0.17409667,0.13782472,0.00000342,0.000619
 72,0.00046753,0.,0.00097078,-0.00031436,-0.00000005,0.18126424,0.00000
 988,0.00003321,0.,-0.00006444,-0.00000645,0.,-0.00000344,0.00007793,0.
 ,-0.00000267,-0.00000522,0.,0.00000819,-0.00001696,0.,0.00002582,-0.00
 000991,0.,-0.00000497,-0.00000150,0.,0.00000126,0.00000306,0.,0.000005
 62,-0.00000241,0.,0.00000675,-0.00000310,0.,0.00019918,-0.00009124,0.,
 -0.00007013,-0.00003100,0.,-0.00063717,0.00057140,0.00000004,-0.003712
 84,-0.00466379,-0.00000018,-0.00231063,0.00059402,-0.00000019,0.021551
 21,-0.01516877,-0.00000049,0.00099501,-0.00115085,-0.00000002,-0.00600
 847,0.00705908,0.00000004,0.13865042,-0.22575836,-0.00000442,-0.000206
 89,0.00102570,0.00000007,0.00010857,0.00084510,0.00000013,-0.14879570,
 0.23615661,0.,0.,0.00000084,0.,0.,-0.00003886,0.,0.,0.00014845,0.,0.,-
 0.00000163,0.,0.,-0.00000578,0.,0.,-0.00000574,0.,0.,0.00000680,0.,0.,
 0.00000333,0.,0.,0.00000086,0.,0.,0.00000194,0.00000001,0.,-0.00018759
 ,0.,0.,0.00025077,-0.00000003,0.00000003,-0.00113782,-0.00000009,-0.00
 000019,0.00480865,0.00000009,-0.00000016,0.01113704,0.00000042,-0.0000
 0038,0.00465598,0.00000002,-0.00000002,-0.00032486,0.00000008,-0.00000
 013,0.00698079,0.00000338,-0.00000436,-0.04226988,-0.00000002,0.000000
 07,-0.00253301,-0.00000005,0.00000012,-0.00586896,-0.00000376,0.000004
 97,0.02683072,-0.00778534,-0.00161475,-0.00000007,0.00521055,0.0169089
 8,0.00000008,-0.06772980,0.04379678,0.00000027,0.00923705,-0.00306910,
 0.00000006,-0.00318056,0.00204816,-0.00000002,0.00159048,-0.00303869,-
 0.00000002,0.00013762,-0.00096197,-0.00000002,-0.00053813,-0.00005708,
 0.00000001,0.00051264,-0.00021820,0.,-0.00058700,-0.00017255,0.0000000
 1,-0.37258018,-0.04618869,-0.00000054,-0.06099557,-0.04550157,-0.00000
 014,-0.16381394,0.07691661,0.00000089,-0.05808930,0.03679502,0.0000005
 5,0.05008075,0.01939645,-0.00000031,0.00382873,-0.02874832,-0.00000053
 ,0.00152550,0.00166125,0.,-0.01290109,0.00469939,0.00000018,0.01471444
 ,0.01370577,0.00000018,-0.00024531,0.00089106,0.00000004,0.00007811,-0
 .00149325,-0.00000002,0.00076694,-0.00008111,0.,0.70773076,0.00280471,
 -0.00357872,0.00000001,0.02103611,-0.02049877,-0.00000008,0.01221655,0
 .01647549,0.00000003,0.00816995,-0.00896043,-0.00000004,-0.00118076,0.
 00680344,0.00000005,-0.00481027,-0.00401205,-0.00000006,0.00031766,-0.
 00054926,0.,-0.00058869,-0.00007307,0.,0.00009616,-0.00032770,0.,-0.00
 047541,0.00008574,0.,-0.05727142,-0.15451932,-0.00000061,0.00098940,-0
 .15773877,-0.00000064,0.07495082,-0.20951127,-0.00000153,0.03246138,0.
 00192862,0.00000003,-0.00207486,-0.04131587,-0.00000022,-0.01155528,0.
 02364358,0.00000040,-0.00239182,-0.00071402,0.00000003,0.00797201,-0.0
 1183526,-0.00000033,-0.01481526,-0.01337909,-0.00000017,-0.00103071,0.
 00076227,0.,0.00142103,-0.00046479,-0.00000003,-0.00061999,0.00022174,
 0.00000002,-0.05728188,0.56039968,0.00000006,-0.00000004,-0.00045764,0
 .00000005,-0.00000024,0.00161021,-0.00000005,0.00000015,0.00152131,0.0
 0000009,-0.00000005,0.00154069,-0.00000001,0.00000007,0.00115224,-0.00
 000006,-0.00000005,0.00092292,0.,0.,-0.00041830,0.,0.,-0.00043525,0.,0
 .,-0.00032520,0.,0.,-0.00001754,-0.00000027,-0.00000078,-0.05778647,0.
 00000015,-0.00000056,-0.03412989,0.00000072,-0.00000119,-0.05676011,0.
 00000047,0.00000002,-0.00612237,-0.00000015,-0.00000062,0.00355895,-0.
 00000009,0.00000020,0.00535020,-0.00000003,0.00000004,-0.00240121,0.00
 000014,-0.00000020,0.00373040,-0.00000018,-0.00000016,-0.00078525,0.,-
 0.00000003,0.00165621,0.00000001,0.,-0.00034193,-0.00000001,0.00000002
 ,-0.00068460,-0.00000085,0.00000324,0.13957622,-0.00134993,0.00324989,
 0.00000002,0.00262303,-0.00022374,-0.00000002,0.00860627,0.00102863,0.
 00000007,-0.00302720,0.00035920,0.00000002,0.00014370,-0.00353187,-0.0
 0000004,0.00344030,0.00073238,0.,-0.00023165,0.00014051,0.,0.00036269,
 0.00004905,0.,0.00010520,-0.00007093,0.,0.00014437,0.00003547,0.,0.023
 56332,0.03996517,0.00000026,-0.00219014,-0.00408183,-0.00000002,-0.012
 19350,-0.06666784,-0.00000012,-0.01527548,0.00400220,0.00000015,-0.533
 21411,-0.07761103,0.00000530,-0.00182892,-0.02289402,-0.00000040,-0.00
 130230,-0.00051374,-0.00000006,-0.08595521,0.01746308,0.00000184,0.021
 21525,0.02222773,0.00000031,-0.00021557,-0.00029789,0.,0.00164965,0.00
 042266,-0.00000009,-0.00199447,0.00039165,-0.00000005,-0.04404170,0.02
 727806,0.00000033,0.63732659,-0.00033373,-0.00054616,-0.00000001,0.000
 22180,-0.00226756,-0.00000001,-0.00778194,-0.00293298,0.,0.00013331,-0
 .00035577,0.,0.00034731,0.00042529,0.,-0.00017439,-0.00016686,0.,0.000
 11251,-0.00021595,0.,0.00010381,0.00007552,0.,0.00011019,-0.00009599,0
 .,0.00006952,-0.00005924,0.,0.01393473,-0.03982579,-0.00000025,0.00004
 602,-0.00203757,0.,-0.05284650,-0.00650203,0.00000024,0.01026321,-0.00
 955867,-0.00000020,-0.09311542,-0.11664139,0.00000059,-0.00296197,0.00
 854812,0.00000017,-0.00224917,-0.00047367,-0.00000002,0.04044171,0.019
 16852,-0.00000036,-0.00289454,-0.01173325,-0.00000030,-0.00003729,0.00
 056019,0.00000002,-0.00233374,0.00288810,0.00000006,0.00143054,0.00026
 339,0.00000003,0.00513749,0.00373707,0.00000006,0.10235196,0.16044648,
 0.,-0.00000002,-0.00024460,0.,0.,-0.00017635,-0.00000009,0.,0.00195042
 ,0.00000003,0.,0.00003802,0.,0.00000003,-0.00009425,-0.00000003,0.,0.0
 0004041,0.,0.,0.00002804,0.,0.,0.00002442,0.,0.,-0.00001153,0.,0.,0.00
 000476,-0.00000009,-0.00000043,0.00341289,0.00000003,0.00000011,-0.000
 13994,-0.00000046,0.00000024,0.01751121,0.00000040,-0.00000025,0.00487
 364,0.00000554,0.00000074,-0.06901226,-0.00000005,0.00000042,-0.000410
 81,0.,0.,0.00000082,0.00000198,-0.00000017,0.01736360,-0.00000028,-0.0
 0000055,0.00478633,0.,0.00000002,-0.00044982,-0.00000020,0.00000006,-0
 .00324413,0.00000004,0.00000003,-0.00155326,0.00000036,-0.00000023,-0.
 00187108,-0.00000718,-0.00000011,0.03652904,0.00139118,0.00029937,0.,-
 0.00427343,0.00455134,0.00000001,0.01316985,0.02038910,0.00000021,0.00
 160710,0.00019676,0.,-0.00014377,0.00028998,0.,-0.00051409,-0.00012649
 ,0.,-0.00018957,0.00030911,0.,-0.00029514,-0.00054226,0.,-0.00001226,-
 0.00000134,0.,-0.00004946,-0.00006018,0.,-0.10871765,-0.11699144,-0.00
 000112,-0.00388098,-0.00226919,-0.00000002,-0.00115637,0.00447840,0.00
 000007,0.00132841,-0.00014877,0.,-0.01664893,0.00284990,0.00000015,0.0
 0006997,0.00178613,0.00000003,0.00025824,0.00010058,0.,0.00308915,-0.0
 0143078,-0.00000009,-0.00152442,-0.00150758,-0.00000002,0.00007179,0.0
 0000804,0.,-0.00003710,0.00000651,0.,0.00010229,-0.00005511,0.,-0.0029
 2563,-0.03561748,-0.00000032,0.00363982,-0.00997542,0.,0.11564101,-0.0
 0094796,0.00153469,0.00000002,0.00385912,0.00204988,-0.00000004,0.0062
 0439,-0.01044427,-0.00000008,-0.00250144,0.00233133,0.00000003,-0.0003
 8404,-0.00243162,-0.00000002,0.00153511,0.00102876,0.00000001,-0.00007
 895,0.00018020,0.,0.00035542,0.00015538,0.,-0.00015797,0.00015505,0.,-
 0.00001133,0.00009629,0.,-0.09948181,-0.34960768,-0.00000288,0.0006020
 0,0.00480064,-0.00000004,0.00984527,-0.01870795,-0.00000014,-0.0097042
 6,0.00043440,0.00000001,0.04127307,0.01579091,-0.00000042,0.00175581,-
 0.01008690,-0.00000019,-0.00057300,0.00000833,-0.00000002,-0.01528000,
 0.00387703,0.00000031,0.00771252,0.00847458,0.00000013,0.00000035,-0.0
 0023056,0.,0.00023759,-0.00023597,0.,-0.00038617,0.00005834,-0.0000000
 1,-0.03352979,0.01342076,0.00000011,-0.04380476,-0.00269978,0.00000011
 ,0.13346083,0.34004816,0.,0.00000002,0.00086349,0.,0.,0.00216895,0.000
 00009,0.00000008,-0.00304580,0.,0.00000003,-0.00073228,0.,-0.00000003,
 -0.00024052,0.00000002,0.,-0.00008480,0.,0.,-0.00000444,0.,0.,0.000061
 18,0.,0.,0.00005765,0.,0.,0.00000305,-0.00000113,-0.00000337,-0.016859
 00,0.00000003,0.00000001,0.00443584,0.00000003,-0.00000004,-0.00337743
 ,-0.00000005,0.00000003,-0.00097658,0.00000033,-0.00000004,0.00070110,
 0.,-0.00000007,0.00005377,0.,0.,-0.00004759,-0.00000003,0.00000003,0.0
 0141358,0.00000007,0.00000003,0.00022756,0.,0.,0.00021639,0.,0.,-0.000
 01349,0.,0.,-0.00021417,-0.00000010,0.00000011,0.00191750,-0.00000031,
 0.00000008,-0.00935556,0.00000108,0.00000311,0.02283160\\0.00128793,0.
 00263943,-0.00000009,0.00375528,0.00523616,-0.00000009,0.00652873,-0.0
 0021968,0.00000030,-0.00085795,0.00144153,0.00000008,-0.00009000,-0.00
 134053,0.,0.00128404,0.00132680,-0.00000005,-0.00004854,0.00033988,0.,
 0.00013250,0.00002549,0.,0.00000297,0.00009199,-0.00000001,0.00007757,
 0.00011229,0.00000001,-0.01011897,0.00570333,-0.00000019,0.00201596,0.
 00510704,0.00000034,-0.00614874,0.00329959,0.00000007,0.00568373,-0.00
 035985,-0.00000046,0.00994884,0.00221403,0.00000069,-0.00199472,0.0060
 9444,0.00000003,0.00001621,0.00006647,0.00000004,-0.00176940,0.0001315
 1,-0.00000002,-0.00363748,-0.00053951,0.00000027,-0.00009330,0.0000162
 0,0.00000003,-0.00014674,0.00000782,-0.00000004,-0.00027742,-0.0000300
 7,-0.00000003,-0.00616074,-0.00422105,-0.00000033,-0.00520801,-0.00815
 552,-0.00000073,0.00581826,-0.01898780,0.00000015\\\@
 The archive entry for this job was punched.


 I WANT TO KNOW HOW GOD CREATED THE WORLD.  I AM NOT INTERESTED IN
 THIS OR THAT PHENOMENON, IN THE SPECTRUM OF THIS OR THAT ELEMENT.
 I WANT TO KNOW HIS THOUGHTS, THE REST ARE DETAILS.
     -- ALBERT EINSTEIN
 Job cpu time:       0 days  1 hours  0 minutes 43.1 seconds.
 Elapsed time:       0 days  0 hours  6 minutes 17.3 seconds.
 File lengths (MBytes):  RWF=    544 Int=      0 D2E=      0 Chk=     40 Scr=      8
 Normal termination of Gaussian 16 at Tue Oct 27 22:10:46 2020.
