 Entering Gaussian System, Link 0=g16
 Initial command:
 /gpfs/loomis/apps/avx/software/Gaussian/16-C.01_AVX/g16/l1.exe "/home/fas/batista/pev4/scratch60/gauss-scratch/Gau-163936.inp" -scrdir="/home/fas/batista/pev4/scratch60/gauss-scratch/"
 Entering Link 1 = /gpfs/loomis/apps/avx/software/Gaussian/16-C.01_AVX/g16/l1.exe PID=    163937.
  
 Copyright (c) 1988-2019, Gaussian, Inc.  All Rights Reserved.
  
 This is part of the Gaussian(R) 16 program.  It is based on
 the Gaussian(R) 09 system (copyright 2009, Gaussian, Inc.),
 the Gaussian(R) 03 system (copyright 2003, Gaussian, Inc.),
 the Gaussian(R) 98 system (copyright 1998, Gaussian, Inc.),
 the Gaussian(R) 94 system (copyright 1995, Gaussian, Inc.),
 the Gaussian 92(TM) system (copyright 1992, Gaussian, Inc.),
 the Gaussian 90(TM) system (copyright 1990, Gaussian, Inc.),
 the Gaussian 88(TM) system (copyright 1988, Gaussian, Inc.),
 the Gaussian 86(TM) system (copyright 1986, Carnegie Mellon
 University), and the Gaussian 82(TM) system (copyright 1983,
 Carnegie Mellon University). Gaussian is a federally registered
 trademark of Gaussian, Inc.
  
 This software contains proprietary and confidential information,
 including trade secrets, belonging to Gaussian, Inc.
  
 This software is provided under written license and may be
 used, copied, transmitted, or stored only in accord with that
 written license.
  
 The following legend is applicable only to US Government
 contracts under FAR:
  
                    RESTRICTED RIGHTS LEGEND
  
 Use, reproduction and disclosure by the US Government is
 subject to restrictions as set forth in subparagraphs (a)
 and (c) of the Commercial Computer Software - Restricted
 Rights clause in FAR 52.227-19.
  
 Gaussian, Inc.
 340 Quinnipiac St., Bldg. 40, Wallingford CT 06492
  
  
 ---------------------------------------------------------------
 Warning -- This program may not be used in any manner that
 competes with the business of Gaussian, Inc. or will provide
 assistance to any competitor of Gaussian, Inc.  The licensee
 of this program is prohibited from giving any competitor of
 Gaussian, Inc. access to this program.  By using this program,
 the user acknowledges that Gaussian, Inc. is engaged in the
 business of creating and licensing software in the field of
 computational chemistry and represents and warrants to the
 licensee that it is not a competitor of Gaussian, Inc. and that
 it will not use this program in any manner prohibited above.
 ---------------------------------------------------------------
  

 Cite this work as:
 Gaussian 16, Revision C.01,
 M. J. Frisch, G. W. Trucks, H. B. Schlegel, G. E. Scuseria, 
 M. A. Robb, J. R. Cheeseman, G. Scalmani, V. Barone, 
 G. A. Petersson, H. Nakatsuji, X. Li, M. Caricato, A. V. Marenich, 
 J. Bloino, B. G. Janesko, R. Gomperts, B. Mennucci, H. P. Hratchian, 
 J. V. Ortiz, A. F. Izmaylov, J. L. Sonnenberg, D. Williams-Young, 
 F. Ding, F. Lipparini, F. Egidi, J. Goings, B. Peng, A. Petrone, 
 T. Henderson, D. Ranasinghe, V. G. Zakrzewski, J. Gao, N. Rega, 
 G. Zheng, W. Liang, M. Hada, M. Ehara, K. Toyota, R. Fukuda, 
 J. Hasegawa, M. Ishida, T. Nakajima, Y. Honda, O. Kitao, H. Nakai, 
 T. Vreven, K. Throssell, J. A. Montgomery, Jr., J. E. Peralta, 
 F. Ogliaro, M. J. Bearpark, J. J. Heyd, E. N. Brothers, K. N. Kudin, 
 V. N. Staroverov, T. A. Keith, R. Kobayashi, J. Normand, 
 K. Raghavachari, A. P. Rendell, J. C. Burant, S. S. Iyengar, 
 J. Tomasi, M. Cossi, J. M. Millam, M. Klene, C. Adamo, R. Cammi, 
 J. W. Ochterski, R. L. Martin, K. Morokuma, O. Farkas, 
 J. B. Foresman, and D. J. Fox, Gaussian, Inc., Wallingford CT, 2019.
 
 ******************************************
 Gaussian 16:  ES64L-G16RevC.01  3-Jul-2019
                27-Oct-2020 
 ******************************************
 %chk=config_7_6.chk
 %mem=58GB
 %nprocshared=10
 Will use up to   10 processors via shared memory.
 ----------------------------------------------------------------------
 #p opt=addgic freq wb97xd/cc-pvdz nosymm int=ultrafine scrf=(solvent=C
 arbonTetraChloride)
 ----------------------------------------------------------------------
 1/18=20,19=15,26=6,38=1,145=903/1,3;
 2/9=110,12=2,15=1,17=6,18=5,40=1/2;
 3/5=16,11=2,25=1,30=1,70=2201,71=1,72=11,74=-58,75=-5/1,2,3;
 4//1;
 5/5=2,38=5,53=11/2;
 6/7=2,8=2,9=2,10=2,28=1/1;
 7/30=1/1,2,3,16;
 1/18=20,19=15,26=6,145=903/3(2);
 2/9=110,15=1/2;
 99//99;
 2/9=110,15=1/2;
 3/5=16,11=2,25=1,30=1,70=2205,71=1,72=11,74=-58,75=-5/1,2,3;
 4/5=5,16=3,69=1/1;
 5/5=2,38=5,53=11/2;
 7/30=1/1,2,3,16;
 1/18=20,19=15,26=6,145=903/3(-5);
 2/9=110,15=1/2;
 6/7=2,8=2,9=2,10=2,19=2,28=1/1;
 99/9=1/99;
 Leave Link    1 at Tue Oct 27 21:41:10 2020, MaxMem=  7784628224 cpu:               5.7 elap:               0.7
 (Enter /gpfs/loomis/apps/avx/software/Gaussian/16-C.01_AVX/g16/l101.exe)
 ------------------------------------------------
 NM 2D-scan of HBT TD-WB97XD pVDZ in CTC Relaxed.
 ------------------------------------------------
 Symbolic Z-matrix:
 Charge =  0 Multiplicity = 1
 C                     1.69119  -3.26603  -0.00002 
 C                     1.002    -2.05498  -0.00002 
 C                     1.69891  -0.81443  -0.00002 
 C                     3.10718  -0.80356  -0.00002 
 C                     3.78121  -2.01399  -0.00002 
 C                     3.08675  -3.2362   -0.00002 
 H                     1.15457  -4.2159   -0.00002 
 H                     3.63867   0.1489   -0.00002 
 H                     4.87279  -2.01847  -0.00002 
 H                     3.64308  -4.17462  -0.00002 
 N                     0.89249   0.27256  -0.00002 
 S                    -0.73699  -1.77527  -0.00002 
 C                    -1.39244   1.01897   0. 
 C                    -2.78358   0.84711  0. 
 C                    -0.87253   2.41104   0.00003 
 C                    -3.64673   1.95519   0.00002 
 H                    -3.20449  -0.16059  -0.00003 
 C                    -1.78219   3.4948    0.00006 
 C                    -3.15642   3.27382   0.00006 
 H                    -4.72431   1.78226   0.00002 
 H                    -1.35448   4.49834   0.00008 
 H                    -3.85005   4.11502   0.00008 
 C                    -0.43203  -0.0297   -0.00002 
 O                     0.396     2.63057   0.00003 
 H                     0.93118   1.49577   0.00001 
 
 Add virtual bond connecting atoms H25        and N11        Dist= 2.31D+00.
 Add virtual bond connecting atoms H25        and O24        Dist= 2.37D+00.
 Initializing the GIC definitions file.
 Number of initial coordinates =   142
 Number of input entries/lines =    52
 Number of additional coordinates =     2
 Number of removed coordinates =     0
 Number of frozen coordinates =     2
 Number of final active and frozen coordinates =   144
 ITRead=  0  0  0  0  0  0  0  0  0  0  0  0  0  0  0  0  0  0  0  0
 ITRead=  0  0  0  0  0
 MicOpt= -1 -1 -1 -1 -1 -1 -1 -1 -1 -1 -1 -1 -1 -1 -1 -1 -1 -1 -1 -1
 MicOpt= -1 -1 -1 -1 -1
 NAtoms=     25 NQM=       25 NQMF=       0 NMMI=      0 NMMIF=      0
                NMic=       0 NMicF=      0.
                    Isotopes and Nuclear Properties:
 (Nuclear quadrupole moments (NQMom) in fm**2, nuclear magnetic moments (NMagM)
  in nuclear magnetons)

  Atom         1           2           3           4           5           6           7           8           9          10
 IAtWgt=          12          12          12          12          12          12           1           1           1           1
 AtmWgt=  12.0000000  12.0000000  12.0000000  12.0000000  12.0000000  12.0000000   1.0078250   1.0078250   1.0078250   1.0078250
 NucSpn=           0           0           0           0           0           0           1           1           1           1
 AtZEff=  -0.0000000  -0.0000000  -0.0000000  -0.0000000  -0.0000000  -0.0000000  -0.0000000  -0.0000000  -0.0000000  -0.0000000
 NQMom=    0.0000000   0.0000000   0.0000000   0.0000000   0.0000000   0.0000000   0.0000000   0.0000000   0.0000000   0.0000000
 NMagM=    0.0000000   0.0000000   0.0000000   0.0000000   0.0000000   0.0000000   2.7928460   2.7928460   2.7928460   2.7928460
 AtZNuc=   6.0000000   6.0000000   6.0000000   6.0000000   6.0000000   6.0000000   1.0000000   1.0000000   1.0000000   1.0000000

  Atom        11          12          13          14          15          16          17          18          19          20
 IAtWgt=          14          32          12          12          12          12           1          12          12           1
 AtmWgt=  14.0030740  31.9720718  12.0000000  12.0000000  12.0000000  12.0000000   1.0078250  12.0000000  12.0000000   1.0078250
 NucSpn=           2           0           0           0           0           0           1           0           0           1
 AtZEff=  -0.0000000  -0.0000000  -0.0000000  -0.0000000  -0.0000000  -0.0000000  -0.0000000  -0.0000000  -0.0000000  -0.0000000
 NQMom=    2.0440000   0.0000000   0.0000000   0.0000000   0.0000000   0.0000000   0.0000000   0.0000000   0.0000000   0.0000000
 NMagM=    0.4037610   0.0000000   0.0000000   0.0000000   0.0000000   0.0000000   2.7928460   0.0000000   0.0000000   2.7928460
 AtZNuc=   7.0000000  16.0000000   6.0000000   6.0000000   6.0000000   6.0000000   1.0000000   6.0000000   6.0000000   1.0000000

  Atom        21          22          23          24          25
 IAtWgt=           1           1          12          16           1
 AtmWgt=   1.0078250   1.0078250  12.0000000  15.9949146   1.0078250
 NucSpn=           1           1           0           0           1
 AtZEff=  -0.0000000  -0.0000000  -0.0000000  -0.0000000  -0.0000000
 NQMom=    0.0000000   0.0000000   0.0000000   0.0000000   0.0000000
 NMagM=    2.7928460   2.7928460   0.0000000   0.0000000   2.7928460
 AtZNuc=   1.0000000   1.0000000   6.0000000   8.0000000   1.0000000
 Leave Link  101 at Tue Oct 27 21:41:14 2020, MaxMem=  7784628224 cpu:              19.6 elap:               3.3
 (Enter /gpfs/loomis/apps/avx/software/Gaussian/16-C.01_AVX/g16/l103.exe)

 GradGradGradGradGradGradGradGradGradGradGradGradGradGradGradGradGradGrad
 Berny optimization.
 Initialization pass.
                           ----------------------------
                           !    Initial Parameters    !
                           ! (Angstroms and Degrees)  !
 --------------------------                            --------------------------
 ! Name  Definition              Value          Derivative Info.                !
 --------------------------------------------------------------------------------
 ! R1    R(1,2)                  1.3934         estimate D2E/DX2                !
 ! R2    R(1,6)                  1.3959         estimate D2E/DX2                !
 ! R3    R(1,7)                  1.091          estimate D2E/DX2                !
 ! R4    R(2,3)                  1.4229         estimate D2E/DX2                !
 ! R5    R(2,12)                 1.7613         estimate D2E/DX2                !
 ! R6    R(3,4)                  1.4083         estimate D2E/DX2                !
 ! R7    R(3,11)                 1.3535         estimate D2E/DX2                !
 ! R8    R(4,5)                  1.3854         estimate D2E/DX2                !
 ! R9    R(4,8)                  1.0907         estimate D2E/DX2                !
 ! R10   R(5,6)                  1.4057         estimate D2E/DX2                !
 ! R11   R(5,9)                  1.0916         estimate D2E/DX2                !
 ! R12   R(6,10)                 1.0909         estimate D2E/DX2                !
 ! R13   R(11,23)                1.3586         estimate D2E/DX2                !
 ! R14   R(11,25)                1.2238         estimate D2E/DX2                !
 ! R15   R(12,23)                1.772          estimate D2E/DX2                !
 ! R16   R(13,14)                1.4017         estimate D2E/DX2                !
 ! R17   R(13,15)                1.486          estimate D2E/DX2                !
 ! R18   R(13,23)                1.422          estimate D2E/DX2                !
 ! R19   R(14,16)                1.4046         estimate D2E/DX2                !
 ! R20   R(14,17)                1.0921         estimate D2E/DX2                !
 ! R21   R(15,18)                1.4149         estimate D2E/DX2                !
 ! R22   R(15,24)                1.2874         estimate D2E/DX2                !
 ! R23   R(16,19)                1.4068         estimate D2E/DX2                !
 ! R24   R(16,20)                1.0914         estimate D2E/DX2                !
 ! R25   R(18,19)                1.3919         estimate D2E/DX2                !
 ! R26   R(18,21)                1.0909         estimate D2E/DX2                !
 ! R27   R(19,22)                1.0903         estimate D2E/DX2                !
 ! R28   R(24,25)                1.2547         estimate D2E/DX2                !
 ! A1    A(2,1,6)              118.4187         estimate D2E/DX2                !
 ! A2    A(2,1,7)              120.8927         estimate D2E/DX2                !
 ! A3    A(6,1,7)              120.6886         estimate D2E/DX2                !
 ! A4    A(1,2,3)              121.0301         estimate D2E/DX2                !
 ! A5    A(1,2,12)             128.7809         estimate D2E/DX2                !
 ! A6    A(3,2,12)             110.189          estimate D2E/DX2                !
 ! A7    A(2,3,4)              119.7688         estimate D2E/DX2                !
 ! A8    A(2,3,11)             114.1024         estimate D2E/DX2                !
 ! A9    A(4,3,11)             126.1288         estimate D2E/DX2                !
 ! A10   A(3,4,5)              118.6689         estimate D2E/DX2                !
 ! A11   A(3,4,8)              119.6043         estimate D2E/DX2                !
 ! A12   A(5,4,8)              121.7268         estimate D2E/DX2                !
 ! A13   A(4,5,6)              121.2833         estimate D2E/DX2                !
 ! A14   A(4,5,9)              119.3463         estimate D2E/DX2                !
 ! A15   A(6,5,9)              119.3703         estimate D2E/DX2                !
 ! A16   A(1,6,5)              120.8302         estimate D2E/DX2                !
 ! A17   A(1,6,10)             119.4361         estimate D2E/DX2                !
 ! A18   A(5,6,10)             119.7337         estimate D2E/DX2                !
 ! A19   A(3,11,23)            113.7165         estimate D2E/DX2                !
 ! A20   A(3,11,25)            141.6174         estimate D2E/DX2                !
 ! A21   A(23,11,25)           104.6661         estimate D2E/DX2                !
 ! A22   A(2,12,23)             89.2276         estimate D2E/DX2                !
 ! A23   A(14,13,15)           117.5222         estimate D2E/DX2                !
 ! A24   A(14,13,23)           125.4422         estimate D2E/DX2                !
 ! A25   A(15,13,23)           117.0357         estimate D2E/DX2                !
 ! A26   A(13,14,16)           120.8742         estimate D2E/DX2                !
 ! A27   A(13,14,17)           119.7125         estimate D2E/DX2                !
 ! A28   A(16,14,17)           119.4132         estimate D2E/DX2                !
 ! A29   A(13,15,18)           119.5121         estimate D2E/DX2                !
 ! A30   A(13,15,24)           120.2979         estimate D2E/DX2                !
 ! A31   A(18,15,24)           120.19           estimate D2E/DX2                !
 ! A32   A(14,16,19)           121.6864         estimate D2E/DX2                !
 ! A33   A(14,16,20)           118.7998         estimate D2E/DX2                !
 ! A34   A(19,16,20)           119.5138         estimate D2E/DX2                !
 ! A35   A(15,18,19)           120.8733         estimate D2E/DX2                !
 ! A36   A(15,18,21)           116.908          estimate D2E/DX2                !
 ! A37   A(19,18,21)           122.2186         estimate D2E/DX2                !
 ! A38   A(16,19,18)           119.5318         estimate D2E/DX2                !
 ! A39   A(16,19,22)           120.0954         estimate D2E/DX2                !
 ! A40   A(18,19,22)           120.3729         estimate D2E/DX2                !
 ! A41   A(11,23,12)           112.7644         estimate D2E/DX2                !
 ! A42   A(11,23,13)           119.6302         estimate D2E/DX2                !
 ! A43   A(12,23,13)           127.6054         estimate D2E/DX2                !
 ! A44   A(15,24,25)           105.4303         estimate D2E/DX2                !
 ! A45   A(11,25,24)           152.9399         estimate D2E/DX2                !
 ! D1    D(6,1,2,3)              0.0            estimate D2E/DX2                !
 ! D2    D(6,1,2,12)          -179.9999         estimate D2E/DX2                !
 ! D3    D(7,1,2,3)            179.9999         estimate D2E/DX2                !
 ! D4    D(7,1,2,12)             0.0            estimate D2E/DX2                !
 ! D5    D(2,1,6,5)              0.0            estimate D2E/DX2                !
 ! D6    D(2,1,6,10)           180.0            estimate D2E/DX2                !
 ! D7    D(7,1,6,5)           -180.0            estimate D2E/DX2                !
 ! D8    D(7,1,6,10)             0.0            estimate D2E/DX2                !
 ! D9    D(1,2,3,4)              0.0            estimate D2E/DX2                !
 ! D10   D(1,2,3,11)           180.0            estimate D2E/DX2                !
 ! D11   D(12,2,3,4)           180.0            estimate D2E/DX2                !
 ! D12   D(12,2,3,11)           -0.0001         estimate D2E/DX2                !
 ! D13   D(1,2,12,23)          179.9999         estimate D2E/DX2                !
 ! D14   D(3,2,12,23)           -0.0001         estimate D2E/DX2                !
 ! D15   D(2,3,4,5)              0.0            estimate D2E/DX2                !
 ! D16   D(2,3,4,8)            180.0            estimate D2E/DX2                !
 ! D17   D(11,3,4,5)          -180.0            estimate D2E/DX2                !
 ! D18   D(11,3,4,8)             0.0            estimate D2E/DX2                !
 ! D19   D(2,3,11,23)            0.0002         estimate D2E/DX2                !
 ! D20   D(2,3,11,25)          179.998          estimate D2E/DX2                !
 ! D21   D(4,3,11,23)         -179.9998         estimate D2E/DX2                !
 ! D22   D(4,3,11,25)           -0.002          estimate D2E/DX2                !
 ! D23   D(3,4,5,6)              0.0            estimate D2E/DX2                !
 ! D24   D(3,4,5,9)           -180.0            estimate D2E/DX2                !
 ! D25   D(8,4,5,6)           -180.0            estimate D2E/DX2                !
 ! D26   D(8,4,5,9)              0.0            estimate D2E/DX2                !
 ! D27   D(4,5,6,1)              0.0            estimate D2E/DX2                !
 ! D28   D(4,5,6,10)          -180.0            estimate D2E/DX2                !
 ! D29   D(9,5,6,1)           -180.0            estimate D2E/DX2                !
 ! D30   D(9,5,6,10)             0.0            estimate D2E/DX2                !
 ! D31   D(3,11,23,12)          -0.0003         estimate D2E/DX2                !
 ! D32   D(3,11,23,13)         179.9992         estimate D2E/DX2                !
 ! D33   D(25,11,23,12)       -179.9989         estimate D2E/DX2                !
 ! D34   D(25,11,23,13)          0.0006         estimate D2E/DX2                !
 ! D35   D(3,11,25,24)        -179.998          estimate D2E/DX2                !
 ! D36   D(23,11,25,24)         -0.0001         estimate D2E/DX2                !
 ! D37   D(2,12,23,11)           0.0002         estimate D2E/DX2                !
 ! D38   D(2,12,23,13)        -179.9993         estimate D2E/DX2                !
 ! D39   D(15,13,14,16)         -0.0003         estimate D2E/DX2                !
 ! D40   D(15,13,14,17)        179.9998         estimate D2E/DX2                !
 ! D41   D(23,13,14,16)        179.9996         estimate D2E/DX2                !
 ! D42   D(23,13,14,17)         -0.0003         estimate D2E/DX2                !
 ! D43   D(14,13,15,18)          0.0003         estimate D2E/DX2                !
 ! D44   D(14,13,15,24)       -179.9999         estimate D2E/DX2                !
 ! D45   D(23,13,15,18)       -179.9996         estimate D2E/DX2                !
 ! D46   D(23,13,15,24)          0.0003         estimate D2E/DX2                !
 ! D47   D(14,13,23,11)        179.9994         estimate D2E/DX2                !
 ! D48   D(14,13,23,12)         -0.0012         estimate D2E/DX2                !
 ! D49   D(15,13,23,11)         -0.0007         estimate D2E/DX2                !
 ! D50   D(15,13,23,12)        179.9987         estimate D2E/DX2                !
 ! D51   D(13,14,16,19)          0.0001         estimate D2E/DX2                !
 ! D52   D(13,14,16,20)       -179.9999         estimate D2E/DX2                !
 ! D53   D(17,14,16,19)       -180.0            estimate D2E/DX2                !
 ! D54   D(17,14,16,20)          0.0            estimate D2E/DX2                !
 ! D55   D(13,15,18,19)          0.0            estimate D2E/DX2                !
 ! D56   D(13,15,18,21)        179.9998         estimate D2E/DX2                !
 ! D57   D(24,15,18,19)       -179.9999         estimate D2E/DX2                !
 ! D58   D(24,15,18,21)         -0.0001         estimate D2E/DX2                !
 ! D59   D(13,15,24,25)          0.0002         estimate D2E/DX2                !
 ! D60   D(18,15,24,25)       -179.9999         estimate D2E/DX2                !
 ! D61   D(14,16,19,18)          0.0002         estimate D2E/DX2                !
 ! D62   D(14,16,19,22)       -179.9999         estimate D2E/DX2                !
 ! D63   D(20,16,19,18)       -179.9999         estimate D2E/DX2                !
 ! D64   D(20,16,19,22)          0.0001         estimate D2E/DX2                !
 ! D65   D(15,18,19,16)         -0.0002         estimate D2E/DX2                !
 ! D66   D(15,18,19,22)        179.9999         estimate D2E/DX2                !
 ! D67   D(21,18,19,16)        180.0            estimate D2E/DX2                !
 ! D68   D(21,18,19,22)          0.0            estimate D2E/DX2                !
 ! D69   D(15,24,25,11)         -0.0003         estimate D2E/DX2                !
 ! Qtot  GIC-1                  10.0            Frozen                          !
 ! Ptot  GIC-2                 -40.0            Frozen                          !
 --------------------------------------------------------------------------------
 NOTE: GIC-type coordinates are in arbitrary units.
 Trust Radius=3.00D-01 FncErr=5.00D-06 GrdErr=5.00D-06 EigMax=2.50D+02 EigMin=1.00D-04
 Number of steps in this run=    150 maximum allowed number of steps=    150.
 GradGradGradGradGradGradGradGradGradGradGradGradGradGradGradGradGradGrad

 Leave Link  103 at Tue Oct 27 21:41:14 2020, MaxMem=  7784628224 cpu:               0.2 elap:               0.1
 (Enter /gpfs/loomis/apps/avx/software/Gaussian/16-C.01_AVX/g16/l202.exe)
                          Input orientation:                          
 ---------------------------------------------------------------------
 Center     Atomic      Atomic             Coordinates (Angstroms)
 Number     Number       Type             X           Y           Z
 ---------------------------------------------------------------------
      1          6           0        1.691189   -3.266034   -0.000023
      2          6           0        1.001996   -2.054978   -0.000021
      3          6           0        1.698911   -0.814431   -0.000021
      4          6           0        3.107184   -0.803559   -0.000021
      5          6           0        3.781213   -2.013990   -0.000022
      6          6           0        3.086752   -3.236196   -0.000023
      7          1           0        1.154573   -4.215900   -0.000022
      8          1           0        3.638666    0.148903   -0.000021
      9          1           0        4.872785   -2.018468   -0.000022
     10          1           0        3.643081   -4.174620   -0.000023
     11          7           0        0.892491    0.272558   -0.000020
     12         16           0       -0.736986   -1.775275   -0.000019
     13          6           0       -1.392440    1.018968    0.000002
     14          6           0       -2.783583    0.847105   -0.000003
     15          6           0       -0.872534    2.411039    0.000032
     16          6           0       -3.646732    1.955193    0.000024
     17          1           0       -3.204487   -0.160588   -0.000028
     18          6           0       -1.782191    3.494803    0.000058
     19          6           0       -3.156424    3.273823    0.000056
     20          1           0       -4.724314    1.782262    0.000020
     21          1           0       -1.354485    4.498345    0.000082
     22          1           0       -3.850050    4.115021    0.000079
     23          6           0       -0.432028   -0.029695   -0.000015
     24          8           0        0.395999    2.630571    0.000035
     25          1           0        0.931175    1.495769    0.000006
 ---------------------------------------------------------------------
                    Distance matrix (angstroms):
                    1          2          3          4          5
     1  C    0.000000
     2  C    1.393428   0.000000
     3  C    2.451615   1.422901   0.000000
     4  C    2.840568   2.449054   1.408315   0.000000
     5  C    2.436353   2.779519   2.403107   1.385446   0.000000
     6  C    1.395882   2.396139   2.791245   2.432723   1.405726
     7  H    1.090964   2.166302   3.444749   3.931509   3.427484
     8  H    3.931216   3.436440   2.165794   1.090714   2.167585
     9  H    3.417451   3.870961   3.394581   2.143211   1.091581
    10  H    2.153000   3.386474   3.882095   3.413391   2.165041
    11  N    3.627609   2.330111   1.353462   2.462294   3.684158
    12  S    2.849280   1.761333   2.618552   3.965082   4.524501
    13  C    5.279205   3.896469   3.594134   4.854711   5.997126
    14  C    6.077952   4.769979   4.780529   6.117665   7.161174
    15  C    6.229111   4.843467   4.125043   5.115837   6.421701
    16  C    7.466901   6.139393   6.020525   7.295621   8.421923
    17  H    5.797537   4.613374   4.946799   6.344336   7.227386
    18  C    7.600874   6.209008   5.539637   6.510138   7.829321
    19  C    8.140583   6.759334   6.347291   7.473810   8.723061
    20  H    8.163576   6.893116   6.928249   8.247353   9.314265
    21  H    8.340366   6.964126   6.127709   6.929406   8.293727
    22  H    9.229588   7.849283   7.422295   8.520301   9.787796
    23  C    3.870651   2.481571   2.270839   3.622828   4.657126
    24  O    6.037174   4.724575   3.683154   4.375360   5.747315
    25  H    4.822073   3.551453   2.434429   3.165742   4.521186
                    6          7          8          9         10
     6  C    0.000000
     7  H    2.166364   0.000000
     8  H    3.429797   5.022173   0.000000
     9  H    2.161661   4.319005   2.494102   0.000000
    10  H    1.090935   2.488850   4.323525   2.482169   0.000000
    11  N    4.138374   4.496103   2.748958   4.592553   5.229066
    12  S    4.093319   3.087822   4.780041   5.615040   4.994180
    13  C    6.178153   5.821608   5.105785   6.962690   7.233935
    14  C    7.150817   6.414288   6.460091   8.175052   8.155962
    15  C    6.896898   6.930042   5.046601   7.254600   7.985090
    16  C    8.502372   7.818883   7.505978   9.400646   9.524493
    17  H    7.002789   5.953735   6.850148   8.288187   7.937357
    18  C    8.307404   8.251032   6.370302   8.642041   9.394340
    19  C    9.019845   8.641797   7.479197   9.616473  10.085265
    20  H    9.284270   8.398766   8.520992  10.322299  10.271209
    21  H    8.918952   9.068265   6.621873   9.013753  10.009794
    22  H   10.107404   9.718564   8.474135  10.663373  11.174307
    23  C    4.760615   4.476786   4.074610   5.665356   5.812650
    24  O    6.454387   6.888367   4.083328   6.454082   7.540170
    25  H    5.199808   5.716036   3.023997   5.280734   6.285518
                   11         12         13         14         15
    11  N    0.000000
    12  S    2.617024   0.000000
    13  C    2.403754   2.870089   0.000000
    14  C    3.720702   3.326475   1.401719   0.000000
    15  C    2.772799   4.188508   1.485989   2.469413   0.000000
    16  C    4.841054   4.731069   2.440974   1.404595   2.811400
    17  H    4.119811   2.948860   2.162144   1.092065   3.471494
    18  C    4.187695   5.372725   2.506326   2.830740   1.414928
    19  C    5.039971   5.598846   2.862868   2.455193   2.441425
    20  H    5.816159   5.343674   3.418187   2.154288   3.902765
    21  H    4.786040   6.303936   3.479584   3.920953   2.142224
    22  H    6.103787   6.662338   3.952897   3.437532   3.430621
    23  C    1.358567   1.772018   1.422001   2.509700   2.480167
    24  O    2.409716   4.549191   2.407443   3.645613   1.287389
    25  H    1.223823   3.671851   2.372030   3.770967   2.022643
                   16         17         18         19         20
    16  C    0.000000
    17  H    2.161507   0.000000
    18  C    2.418039   3.922348   0.000000
    19  C    1.406836   3.434748   1.391887   0.000000
    20  H    1.091370   2.466686   3.404245   2.164032   0.000000
    21  H    3.423743   5.012800   1.090884   2.178632   4.328147
    22  H    2.169376   4.324070   2.158868   1.090289   2.491205
    23  C    3.778109   2.775548   3.774259   4.282006   4.659068
    24  O    4.098757   4.555664   2.343376   3.610192   5.190109
    25  H    4.600903   4.455022   3.370237   4.457572   5.662741
                   21         22         23         24         25
    21  H    0.000000
    22  H    2.524833   0.000000
    23  C    4.621047   5.372294   0.000000
    24  O    2.559838   4.498057   2.786153   0.000000
    25  H    3.773553   5.451660   2.045816   1.254667   0.000000
 Symmetry turned off by external request.
 Stoichiometry    C13H9NOS
 Framework group  C1[X(C13H9NOS)]
 Deg. of freedom    69
 Full point group                 C1      NOp   1
 Rotational constants (GHZ):           1.3715370           0.2857907           0.2365088
 Leave Link  202 at Tue Oct 27 21:41:14 2020, MaxMem=  7784628224 cpu:               0.3 elap:               0.1
 (Enter /gpfs/loomis/apps/avx/software/Gaussian/16-C.01_AVX/g16/l301.exe)
 Standard basis: CC-pVDZ (5D, 7F)
 Ernie: Thresh=  0.10000D-02 Tol=  0.10000D-05 Strict=F.
 Ernie:  40 primitive shells out of 425 were deleted.
   273 basis functions,   629 primitive gaussians,   289 cartesian basis functions
    59 alpha electrons       59 beta electrons
       nuclear repulsion energy      1097.4619280378 Hartrees.
 IExCor= 4639 DFT=T Ex+Corr=wB97XD ExCW=0 ScaHFX=  1.000000
 ScaDFX=  1.000000  1.000000  1.000000  1.000000 ScalE2=  1.000000  1.000000
 IRadAn=      5 IRanWt=     -1 IRanGd=            0 ICorTp=0 IEmpDi=121
 HFx  wShort=  0.000000 wLong=  0.200000 cFull=  0.222036 cShort=  0.000000 cLong=  0.777964
 DFx  wShort=  0.000000 wLong=  0.200000 cFull=  0.000000 cShort=  0.000000 cLong=  1.000000
 NAtoms=   25 NActive=   25 NUniq=   25 SFac= 1.00D+00 NAtFMM=   60 NAOKFM=F Big=F
 Integral buffers will be    131072 words long.
 Raffenetti 2 integral format.
 Two-electron integral symmetry is turned off.
 R6Disp:  Grimme-D2 Dispersion energy=       -0.0139889167 Hartrees.
 Nuclear repulsion after empirical dispersion term =     1097.4479391211 Hartrees.
 ------------------------------------------------------------------------------
 Polarizable Continuum Model (PCM)
 =================================
 Model                : PCM.
 Atomic radii         : UFF (Universal Force Field).
 Polarization charges : Total charges.
 Charge compensation  : None.
 Solution method      : On-the-fly selection.
 Cavity type          : Scaled VdW (van der Waals Surface) (Alpha=1.100).
 Cavity algorithm     : GePol (No added spheres)
                        Default sphere list used, NSphG=   25.
                        Lebedev-Laikov grids with approx.  5.0 points / Ang**2.
                        Smoothing algorithm: York/Karplus (Gamma=1.0000).
                        Polarization charges: spherical gaussians, with
                                              point-specific exponents (IZeta= 3).
                        Self-potential: point-specific (ISelfS= 7).
                        Self-field    : sphere-specific E.n sum rule (ISelfD= 2).
 1st derivatives      : Analytical E(r).r(x)/FMM algorithm (CHGder, D1EAlg=3).
                        Cavity 1st derivative terms included.
 Solvent              : CarbonTetraChloride, Eps=   2.228000 Eps(inf)=   2.131892
 ------------------------------------------------------------------------------
 GePol: Number of generator spheres                  =      25
 GePol: Total number of spheres                      =      25
 GePol: Number of exposed spheres                    =      25 (100.00%)
 GePol: Number of points                             =    2196
 GePol: Average weight of points                     =       0.13
 GePol: Minimum weight of points                     =   0.15D-08
 GePol: Maximum weight of points                     =    0.20577
 GePol: Number of points with low weight             =     159
 GePol: Fraction of low-weight points (<1% of avg)   =       7.24%
 GePol: Cavity surface area                          =    274.574 Ang**2
 GePol: Cavity volume                                =    293.798 Ang**3
 Leave Link  301 at Tue Oct 27 21:41:14 2020, MaxMem=  7784628224 cpu:               1.0 elap:               0.2
 (Enter /gpfs/loomis/apps/avx/software/Gaussian/16-C.01_AVX/g16/l302.exe)
 NPDir=0 NMtPBC=     1 NCelOv=     1 NCel=       1 NClECP=     1 NCelD=      1
         NCelK=      1 NCelE2=     1 NClLst=     1 CellRange=     0.0.
 One-electron integrals computed using PRISM.
 NBasis=   273 RedAO= T EigKep=  3.10D-04  NBF=   273
 NBsUse=   273 1.00D-06 EigRej= -1.00D+00 NBFU=   273
 Precomputing XC quadrature grid using
 IXCGrd= 4 IRadAn=           5 IRanWt=          -1 IRanGd=           0 AccXCQ= 0.00D+00.
 Generated NRdTot=       0 NPtTot=           0 NUsed=           0 NTot=          32
 NSgBfM=   288   288   288   288   288 MxSgAt=    25 MxSgA2=    25.
 Leave Link  302 at Tue Oct 27 21:41:15 2020, MaxMem=  7784628224 cpu:               6.4 elap:               1.1
 (Enter /gpfs/loomis/apps/avx/software/Gaussian/16-C.01_AVX/g16/l303.exe)
 DipDrv:  MaxL=1.
 Leave Link  303 at Tue Oct 27 21:41:15 2020, MaxMem=  7784628224 cpu:               0.5 elap:               0.1
 (Enter /gpfs/loomis/apps/avx/software/Gaussian/16-C.01_AVX/g16/l401.exe)
 ExpMin= 1.22D-01 ExpMax= 1.11D+05 ExpMxC= 1.07D+03 IAcc=3 IRadAn=         5 AccDes= 0.00D+00
 Harris functional with IExCor= 4639 and IRadAn=       5 diagonalized for initial guess.
 HarFok:  IExCor= 4639 AccDes= 0.00D+00 IRadAn=         5 IDoV= 1 UseB2=F ITyADJ=14
 ICtDFT=  3500011 ScaDFX=  1.000000  1.000000  1.000000  1.000000
 FoFCou: FMM=F IPFlag=           0 FMFlag=      100000 FMFlg1=           0
         NFxFlg=           0 DoJE=T BraDBF=F KetDBF=T FulRan=T
         wScrn=  0.000000 ICntrl=       500 IOpCl=  0 I1Cent=   200000004 NGrid=           0
         NMat0=    1 NMatS0=      1 NMatT0=    0 NMatD0=    1 NMtDS0=    0 NMtDT0=    0
 Symmetry not used in FoFCou.
 Harris En= -994.460366298001    
 JPrj=0 DoOrth=F DoCkMO=F.
 Leave Link  401 at Tue Oct 27 21:41:17 2020, MaxMem=  7784628224 cpu:              15.4 elap:               1.9
 (Enter /gpfs/loomis/apps/avx/software/Gaussian/16-C.01_AVX/g16/l502.exe)
 Two-electron integral symmetry not used.
 Closed shell SCF:
 Using DIIS extrapolation, IDIIS=  1040.
 NGot=  7784628224 LenX=  7784455381 LenY=  7784371419
 Requested convergence on RMS density matrix=1.00D-08 within 128 cycles.
 Requested convergence on MAX density matrix=1.00D-06.
 Requested convergence on             energy=1.00D-06.
 No special actions if energy rises.
 Fock matrices will be formed incrementally for  20 cycles.

 Cycle   1  Pass 1  IDiag  1:
 FoFJK:  IHMeth= 1 ICntrl=       0 DoSepK=T KAlg= 0 I1Cent=           0 FoldK=F
 IRaf=         1 NMat=       1 IRICut=       1 DoRegI=T DoRafI=F ISym2E= 0 IDoP0=0 IntGTp=1.
 FoFCou: FMM=F IPFlag=           0 FMFlag=      100000 FMFlg1=           0
         NFxFlg=           0 DoJE=T BraDBF=F KetDBF=F FulRan=T
         wScrn=  0.000000 ICntrl=       500 IOpCl=  0 I1Cent=           0 NGrid=           0
         NMat0=    1 NMatS0=      1 NMatT0=    0 NMatD0=    1 NMtDS0=    0 NMtDT0=    0
 Symmetry not used in FoFCou.
 Inv3:  Mode=1 IEnd=    14467248.
 Iteration    1 A*A^-1 deviation from unit magnitude is 6.33D-15 for   2185.
 Iteration    1 A*A^-1 deviation from orthogonality  is 1.72D-15 for   2196   2081.
 Iteration    1 A^-1*A deviation from unit magnitude is 6.55D-15 for   2185.
 Iteration    1 A^-1*A deviation from orthogonality  is 2.01D-15 for   1878   1489.
 E= -1028.56886814411    
 DIIS: error= 3.78D-02 at cycle   1 NSaved=   1.
 NSaved= 1 IEnMin= 1 EnMin= -1028.56886814411     IErMin= 1 ErrMin= 3.78D-02
 ErrMax= 3.78D-02  0.00D+00 EMaxC= 1.00D-01 BMatC= 3.94D-01 BMatP= 3.94D-01
 IDIUse=3 WtCom= 6.22D-01 WtEn= 3.78D-01
 Coeff-Com:  0.100D+01
 Coeff-En:   0.100D+01
 Coeff:      0.100D+01
 Gap=     0.339 Goal=   None    Shift=    0.000
 GapD=    0.339 DampG=1.000 DampE=0.500 DampFc=0.5000 IDamp=-1.
 Damping current iteration by 5.00D-01
 RMSDP=3.56D-03 MaxDP=2.28D-01              OVMax= 1.81D-01

 Cycle   2  Pass 1  IDiag  1:
 RMSU=  1.77D-03    CP:  9.93D-01
 E= -1028.68865004472     Delta-E=       -0.119781900612 Rises=F Damp=T
 DIIS: error= 1.16D-02 at cycle   2 NSaved=   2.
 NSaved= 2 IEnMin= 2 EnMin= -1028.68865004472     IErMin= 2 ErrMin= 1.16D-02
 ErrMax= 1.16D-02  0.00D+00 EMaxC= 1.00D-01 BMatC= 5.80D-02 BMatP= 3.94D-01
 IDIUse=3 WtCom= 8.84D-01 WtEn= 1.16D-01
 Coeff-Com: -0.286D+00 0.129D+01
 Coeff-En:   0.000D+00 0.100D+01
 Coeff:     -0.253D+00 0.125D+01
 Gap=     0.298 Goal=   None    Shift=    0.000
 RMSDP=1.15D-03 MaxDP=2.47D-02 DE=-1.20D-01 OVMax= 1.19D-01

 Cycle   3  Pass 1  IDiag  1:
 RMSU=  1.10D-03    CP:  9.92D-01  1.19D+00
 E= -1028.79526630064     Delta-E=       -0.106616255918 Rises=F Damp=F
 DIIS: error= 6.05D-03 at cycle   3 NSaved=   3.
 NSaved= 3 IEnMin= 3 EnMin= -1028.79526630064     IErMin= 3 ErrMin= 6.05D-03
 ErrMax= 6.05D-03  0.00D+00 EMaxC= 1.00D-01 BMatC= 1.41D-02 BMatP= 5.80D-02
 IDIUse=3 WtCom= 9.40D-01 WtEn= 6.05D-02
 Coeff-Com: -0.201D+00 0.484D+00 0.717D+00
 Coeff-En:   0.000D+00 0.000D+00 0.100D+01
 Coeff:     -0.189D+00 0.455D+00 0.734D+00
 Gap=     0.254 Goal=   None    Shift=    0.000
 RMSDP=5.33D-04 MaxDP=1.68D-02 DE=-1.07D-01 OVMax= 3.86D-02

 Cycle   4  Pass 1  IDiag  1:
 RMSU=  4.22D-04    CP:  9.89D-01  1.35D+00  8.44D-01
 E= -1028.80853604932     Delta-E=       -0.013269748678 Rises=F Damp=F
 DIIS: error= 2.06D-03 at cycle   4 NSaved=   4.
 NSaved= 4 IEnMin= 4 EnMin= -1028.80853604932     IErMin= 4 ErrMin= 2.06D-03
 ErrMax= 2.06D-03  0.00D+00 EMaxC= 1.00D-01 BMatC= 1.76D-03 BMatP= 1.41D-02
 IDIUse=3 WtCom= 9.79D-01 WtEn= 2.06D-02
 Coeff-Com: -0.716D-01 0.142D+00 0.350D+00 0.579D+00
 Coeff-En:   0.000D+00 0.000D+00 0.000D+00 0.100D+01
 Coeff:     -0.701D-01 0.139D+00 0.343D+00 0.588D+00
 Gap=     0.252 Goal=   None    Shift=    0.000
 RMSDP=1.70D-04 MaxDP=1.01D-02 DE=-1.33D-02 OVMax= 1.34D-02

 Cycle   5  Pass 1  IDiag  1:
 RMSU=  1.07D-04    CP:  9.89D-01  1.36D+00  9.14D-01  7.49D-01
 E= -1028.81039601164     Delta-E=       -0.001859962327 Rises=F Damp=F
 DIIS: error= 4.31D-04 at cycle   5 NSaved=   5.
 NSaved= 5 IEnMin= 5 EnMin= -1028.81039601164     IErMin= 5 ErrMin= 4.31D-04
 ErrMax= 4.31D-04  0.00D+00 EMaxC= 1.00D-01 BMatC= 5.37D-05 BMatP= 1.76D-03
 IDIUse=3 WtCom= 9.96D-01 WtEn= 4.31D-03
 Coeff-Com: -0.213D-02-0.182D-02 0.361D-01 0.161D+00 0.807D+00
 Coeff-En:   0.000D+00 0.000D+00 0.000D+00 0.000D+00 0.100D+01
 Coeff:     -0.212D-02-0.182D-02 0.360D-01 0.160D+00 0.808D+00
 Gap=     0.253 Goal=   None    Shift=    0.000
 RMSDP=5.23D-05 MaxDP=1.54D-03 DE=-1.86D-03 OVMax= 5.08D-03

 Cycle   6  Pass 1  IDiag  1:
 RMSU=  3.36D-05    CP:  9.89D-01  1.36D+00  9.32D-01  8.28D-01  1.07D+00
 E= -1028.81050898085     Delta-E=       -0.000112969208 Rises=F Damp=F
 DIIS: error= 1.85D-04 at cycle   6 NSaved=   6.
 NSaved= 6 IEnMin= 6 EnMin= -1028.81050898085     IErMin= 6 ErrMin= 1.85D-04
 ErrMax= 1.85D-04  0.00D+00 EMaxC= 1.00D-01 BMatC= 1.00D-05 BMatP= 5.37D-05
 IDIUse=3 WtCom= 9.98D-01 WtEn= 1.85D-03
 Coeff-Com:  0.147D-01-0.305D-01-0.579D-01-0.599D-01 0.229D+00 0.905D+00
 Coeff-En:   0.000D+00 0.000D+00 0.000D+00 0.000D+00 0.000D+00 0.100D+01
 Coeff:      0.147D-01-0.304D-01-0.578D-01-0.598D-01 0.228D+00 0.905D+00
 Gap=     0.254 Goal=   None    Shift=    0.000
 RMSDP=3.03D-05 MaxDP=1.49D-03 DE=-1.13D-04 OVMax= 3.04D-03

 Cycle   7  Pass 1  IDiag  1:
 RMSU=  1.56D-05    CP:  9.89D-01  1.36D+00  9.42D-01  8.58D-01  1.24D+00
                    CP:  1.26D+00
 E= -1028.81053755452     Delta-E=       -0.000028573670 Rises=F Damp=F
 DIIS: error= 1.29D-04 at cycle   7 NSaved=   7.
 NSaved= 7 IEnMin= 7 EnMin= -1028.81053755452     IErMin= 7 ErrMin= 1.29D-04
 ErrMax= 1.29D-04  0.00D+00 EMaxC= 1.00D-01 BMatC= 2.26D-06 BMatP= 1.00D-05
 IDIUse=3 WtCom= 9.99D-01 WtEn= 1.29D-03
 Coeff-Com:  0.667D-02-0.127D-01-0.298D-01-0.483D-01-0.107D-01 0.398D+00
 Coeff-Com:  0.697D+00
 Coeff-En:   0.000D+00 0.000D+00 0.000D+00 0.000D+00 0.000D+00 0.000D+00
 Coeff-En:   0.100D+01
 Coeff:      0.666D-02-0.127D-01-0.298D-01-0.483D-01-0.106D-01 0.397D+00
 Coeff:      0.698D+00
 Gap=     0.254 Goal=   None    Shift=    0.000
 RMSDP=1.08D-05 MaxDP=4.53D-04 DE=-2.86D-05 OVMax= 1.35D-03

 Cycle   8  Pass 1  IDiag  1:
 RMSU=  6.52D-06    CP:  9.89D-01  1.36D+00  9.44D-01  8.64D-01  1.28D+00
                    CP:  1.45D+00  1.13D+00
 E= -1028.81054233916     Delta-E=       -0.000004784642 Rises=F Damp=F
 DIIS: error= 4.57D-05 at cycle   8 NSaved=   8.
 NSaved= 8 IEnMin= 8 EnMin= -1028.81054233916     IErMin= 8 ErrMin= 4.57D-05
 ErrMax= 4.57D-05  0.00D+00 EMaxC= 1.00D-01 BMatC= 3.42D-07 BMatP= 2.26D-06
 IDIUse=1 WtCom= 1.00D+00 WtEn= 0.00D+00
 Coeff-Com: -0.123D-02 0.274D-02 0.428D-02 0.104D-02-0.400D-01-0.787D-01
 Coeff-Com:  0.218D+00 0.894D+00
 Coeff:     -0.123D-02 0.274D-02 0.428D-02 0.104D-02-0.400D-01-0.787D-01
 Coeff:      0.218D+00 0.894D+00
 Gap=     0.254 Goal=   None    Shift=    0.000
 RMSDP=5.62D-06 MaxDP=1.58D-04 DE=-4.78D-06 OVMax= 8.41D-04

 Cycle   9  Pass 1  IDiag  1:
 RMSU=  2.54D-06    CP:  9.89D-01  1.36D+00  9.44D-01  8.64D-01  1.29D+00
                    CP:  1.54D+00  1.36D+00  1.20D+00
 E= -1028.81054341168     Delta-E=       -0.000001072520 Rises=F Damp=F
 DIIS: error= 2.01D-05 at cycle   9 NSaved=   9.
 NSaved= 9 IEnMin= 9 EnMin= -1028.81054341168     IErMin= 9 ErrMin= 2.01D-05
 ErrMax= 2.01D-05  0.00D+00 EMaxC= 1.00D-01 BMatC= 5.19D-08 BMatP= 3.42D-07
 IDIUse=1 WtCom= 1.00D+00 WtEn= 0.00D+00
 Coeff-Com: -0.118D-02 0.235D-02 0.509D-02 0.681D-02-0.970D-02-0.865D-01
 Coeff-Com: -0.254D-01 0.254D+00 0.855D+00
 Coeff:     -0.118D-02 0.235D-02 0.509D-02 0.681D-02-0.970D-02-0.865D-01
 Coeff:     -0.254D-01 0.254D+00 0.855D+00
 Gap=     0.254 Goal=   None    Shift=    0.000
 RMSDP=2.66D-06 MaxDP=6.53D-05 DE=-1.07D-06 OVMax= 4.52D-04

 Cycle  10  Pass 1  IDiag  1:
 RMSU=  1.21D-06    CP:  9.89D-01  1.36D+00  9.44D-01  8.64D-01  1.29D+00
                    CP:  1.57D+00  1.46D+00  1.38D+00  1.26D+00
 E= -1028.81054364247     Delta-E=       -0.000000230785 Rises=F Damp=F
 DIIS: error= 8.75D-06 at cycle  10 NSaved=  10.
 NSaved=10 IEnMin=10 EnMin= -1028.81054364247     IErMin=10 ErrMin= 8.75D-06
 ErrMax= 8.75D-06  0.00D+00 EMaxC= 1.00D-01 BMatC= 1.71D-08 BMatP= 5.19D-08
 IDIUse=1 WtCom= 1.00D+00 WtEn= 0.00D+00
 Coeff-Com: -0.157D-03 0.251D-03 0.991D-03 0.247D-02 0.533D-02-0.195D-01
 Coeff-Com: -0.524D-01-0.116D+00 0.347D+00 0.832D+00
 Coeff:     -0.157D-03 0.251D-03 0.991D-03 0.247D-02 0.533D-02-0.195D-01
 Coeff:     -0.524D-01-0.116D+00 0.347D+00 0.832D+00
 Gap=     0.254 Goal=   None    Shift=    0.000
 RMSDP=1.50D-06 MaxDP=3.49D-05 DE=-2.31D-07 OVMax= 2.46D-04

 Cycle  11  Pass 1  IDiag  1:
 RMSU=  5.67D-07    CP:  9.89D-01  1.36D+00  9.44D-01  8.64D-01  1.29D+00
                    CP:  1.59D+00  1.50D+00  1.48D+00  1.60D+00  1.19D+00
 E= -1028.81054370540     Delta-E=       -0.000000062933 Rises=F Damp=F
 DIIS: error= 4.82D-06 at cycle  11 NSaved=  11.
 NSaved=11 IEnMin=11 EnMin= -1028.81054370540     IErMin=11 ErrMin= 4.82D-06
 ErrMax= 4.82D-06  0.00D+00 EMaxC= 1.00D-01 BMatC= 2.46D-09 BMatP= 1.71D-08
 IDIUse=1 WtCom= 1.00D+00 WtEn= 0.00D+00
 Coeff-Com:  0.258D-03-0.531D-03-0.951D-03-0.891D-03 0.467D-02 0.117D-01
 Coeff-Com: -0.635D-02-0.928D-01-0.508D-01 0.228D+00 0.908D+00
 Coeff:      0.258D-03-0.531D-03-0.951D-03-0.891D-03 0.467D-02 0.117D-01
 Coeff:     -0.635D-02-0.928D-01-0.508D-01 0.228D+00 0.908D+00
 Gap=     0.254 Goal=   None    Shift=    0.000
 RMSDP=6.37D-07 MaxDP=1.92D-05 DE=-6.29D-08 OVMax= 1.23D-04

 Cycle  12  Pass 1  IDiag  1:
 RMSU=  2.21D-07    CP:  9.89D-01  1.36D+00  9.44D-01  8.64D-01  1.29D+00
                    CP:  1.59D+00  1.51D+00  1.51D+00  1.75D+00  1.46D+00
                    CP:  1.15D+00
 E= -1028.81054371720     Delta-E=       -0.000000011804 Rises=F Damp=F
 DIIS: error= 1.24D-06 at cycle  12 NSaved=  12.
 NSaved=12 IEnMin=12 EnMin= -1028.81054371720     IErMin=12 ErrMin= 1.24D-06
 ErrMax= 1.24D-06  0.00D+00 EMaxC= 1.00D-01 BMatC= 7.12D-10 BMatP= 2.46D-09
 IDIUse=1 WtCom= 1.00D+00 WtEn= 0.00D+00
 Coeff-Com:  0.128D-03-0.251D-03-0.551D-03-0.867D-03 0.108D-02 0.839D-02
 Coeff-Com:  0.871D-02-0.177D-01-0.937D-01-0.110D+00 0.360D+00 0.845D+00
 Coeff:      0.128D-03-0.251D-03-0.551D-03-0.867D-03 0.108D-02 0.839D-02
 Coeff:      0.871D-02-0.177D-01-0.937D-01-0.110D+00 0.360D+00 0.845D+00
 Gap=     0.254 Goal=   None    Shift=    0.000
 RMSDP=3.36D-07 MaxDP=7.66D-06 DE=-1.18D-08 OVMax= 5.31D-05

 Cycle  13  Pass 1  IDiag  1:
 RMSU=  8.81D-08    CP:  9.89D-01  1.36D+00  9.44D-01  8.64D-01  1.30D+00
                    CP:  1.59D+00  1.52D+00  1.52D+00  1.83D+00  1.58D+00
                    CP:  1.43D+00  1.12D+00
 E= -1028.81054371947     Delta-E=       -0.000000002269 Rises=F Damp=F
 DIIS: error= 5.53D-07 at cycle  13 NSaved=  13.
 NSaved=13 IEnMin=13 EnMin= -1028.81054371947     IErMin=13 ErrMin= 5.53D-07
 ErrMax= 5.53D-07  0.00D+00 EMaxC= 1.00D-01 BMatC= 5.17D-11 BMatP= 7.12D-10
 IDIUse=1 WtCom= 1.00D+00 WtEn= 0.00D+00
 Coeff-Com:  0.157D-05 0.194D-06-0.270D-04-0.143D-03-0.184D-03 0.843D-03
 Coeff-Com:  0.352D-02 0.711D-02-0.164D-01-0.637D-01-0.143D-01 0.237D+00
 Coeff-Com:  0.846D+00
 Coeff:      0.157D-05 0.194D-06-0.270D-04-0.143D-03-0.184D-03 0.843D-03
 Coeff:      0.352D-02 0.711D-02-0.164D-01-0.637D-01-0.143D-01 0.237D+00
 Coeff:      0.846D+00
 Gap=     0.254 Goal=   None    Shift=    0.000
 RMSDP=7.26D-08 MaxDP=1.99D-06 DE=-2.27D-09 OVMax= 1.06D-05

 Cycle  14  Pass 1  IDiag  1:
 RMSU=  3.55D-08    CP:  9.89D-01  1.36D+00  9.44D-01  8.64D-01  1.30D+00
                    CP:  1.59D+00  1.52D+00  1.52D+00  1.84D+00  1.60D+00
                    CP:  1.48D+00  1.26D+00  1.07D+00
 E= -1028.81054371962     Delta-E=       -0.000000000146 Rises=F Damp=F
 DIIS: error= 1.82D-07 at cycle  14 NSaved=  14.
 NSaved=14 IEnMin=14 EnMin= -1028.81054371962     IErMin=14 ErrMin= 1.82D-07
 ErrMax= 1.82D-07  0.00D+00 EMaxC= 1.00D-01 BMatC= 1.29D-11 BMatP= 5.17D-11
 IDIUse=1 WtCom= 1.00D+00 WtEn= 0.00D+00
 Coeff-Com: -0.133D-04 0.276D-04 0.488D-04 0.266D-04-0.190D-03-0.487D-03
 Coeff-Com:  0.730D-03 0.514D-02 0.265D-02-0.179D-01-0.450D-01 0.126D-01
 Coeff-Com:  0.396D+00 0.646D+00
 Coeff:     -0.133D-04 0.276D-04 0.488D-04 0.266D-04-0.190D-03-0.487D-03
 Coeff:      0.730D-03 0.514D-02 0.265D-02-0.179D-01-0.450D-01 0.126D-01
 Coeff:      0.396D+00 0.646D+00
 Gap=     0.254 Goal=   None    Shift=    0.000
 RMSDP=2.17D-08 MaxDP=5.72D-07 DE=-1.46D-10 OVMax= 2.00D-06

 Cycle  15  Pass 1  IDiag  1:
 RMSU=  1.34D-08    CP:  9.89D-01  1.36D+00  9.44D-01  8.64D-01  1.30D+00
                    CP:  1.59D+00  1.52D+00  1.52D+00  1.85D+00  1.61D+00
                    CP:  1.49D+00  1.29D+00  1.20D+00  9.08D-01
 E= -1028.81054371963     Delta-E=       -0.000000000009 Rises=F Damp=F
 DIIS: error= 6.99D-08 at cycle  15 NSaved=  15.
 NSaved=15 IEnMin=15 EnMin= -1028.81054371963     IErMin=15 ErrMin= 6.99D-08
 ErrMax= 6.99D-08  0.00D+00 EMaxC= 1.00D-01 BMatC= 9.63D-13 BMatP= 1.29D-11
 IDIUse=1 WtCom= 1.00D+00 WtEn= 0.00D+00
 Coeff-Com: -0.384D-05 0.727D-05 0.191D-04 0.321D-04-0.249D-04-0.337D-03
 Coeff-Com: -0.504D-03 0.357D-04 0.401D-02 0.727D-02-0.878D-02-0.418D-01
 Coeff-Com: -0.356D-01 0.168D+00 0.908D+00
 Coeff:     -0.384D-05 0.727D-05 0.191D-04 0.321D-04-0.249D-04-0.337D-03
 Coeff:     -0.504D-03 0.357D-04 0.401D-02 0.727D-02-0.878D-02-0.418D-01
 Coeff:     -0.356D-01 0.168D+00 0.908D+00
 Gap=     0.254 Goal=   None    Shift=    0.000
 RMSDP=8.98D-09 MaxDP=2.12D-07 DE=-8.87D-12 OVMax= 9.88D-07

 Error on total polarization charges =  0.00828
 SCF Done:  E(RwB97XD) =  -1028.81054372     A.U. after   15 cycles
            NFock= 15  Conv=0.90D-08     -V/T= 2.0050
 KE= 1.023685091349D+03 PE=-4.606945842290D+03 EE= 1.457002268100D+03
 Leave Link  502 at Tue Oct 27 21:42:42 2020, MaxMem=  7784628224 cpu:             837.7 elap:              84.7
 (Enter /gpfs/loomis/apps/avx/software/Gaussian/16-C.01_AVX/g16/l601.exe)
 Copying SCF densities to generalized density rwf, IOpCl= 0 IROHF=0.

 **********************************************************************

            Population analysis using the SCF Density.

 **********************************************************************

 Alpha  occ. eigenvalues --  -89.09981 -19.24206 -14.49412 -10.40982 -10.37031
 Alpha  occ. eigenvalues --  -10.36322 -10.35657 -10.32879 -10.32191 -10.31981
 Alpha  occ. eigenvalues --  -10.31930 -10.31928 -10.31752 -10.31389 -10.29767
 Alpha  occ. eigenvalues --  -10.29287  -8.11923  -6.06788  -6.06433  -6.05961
 Alpha  occ. eigenvalues --   -1.13641  -1.09723  -0.97398  -0.95293  -0.92589
 Alpha  occ. eigenvalues --   -0.88970  -0.85727  -0.83853  -0.82049  -0.75913
 Alpha  occ. eigenvalues --   -0.71503  -0.70990  -0.68528  -0.68119  -0.63781
 Alpha  occ. eigenvalues --   -0.60835  -0.59300  -0.57640  -0.55379  -0.54808
 Alpha  occ. eigenvalues --   -0.54364  -0.53436  -0.52691  -0.51062  -0.49947
 Alpha  occ. eigenvalues --   -0.49424  -0.47456  -0.46427  -0.45456  -0.45036
 Alpha  occ. eigenvalues --   -0.44060  -0.43095  -0.42023  -0.40686  -0.36610
 Alpha  occ. eigenvalues --   -0.34658  -0.32902  -0.31221  -0.27216
 Alpha virt. eigenvalues --   -0.01827   0.04375   0.06522   0.06757   0.08217
 Alpha virt. eigenvalues --    0.10589   0.13432   0.14898   0.16146   0.17734
 Alpha virt. eigenvalues --    0.18834   0.20690   0.21483   0.21973   0.22697
 Alpha virt. eigenvalues --    0.23636   0.23872   0.24767   0.28413   0.29814
 Alpha virt. eigenvalues --    0.31934   0.33169   0.35354   0.35866   0.36787
 Alpha virt. eigenvalues --    0.38395   0.38702   0.40516   0.42761   0.43282
 Alpha virt. eigenvalues --    0.46769   0.47976   0.49988   0.51397   0.51600
 Alpha virt. eigenvalues --    0.52464   0.53144   0.53635   0.54725   0.55086
 Alpha virt. eigenvalues --    0.56053   0.56076   0.56529   0.57103   0.58195
 Alpha virt. eigenvalues --    0.58300   0.58404   0.58987   0.59525   0.60170
 Alpha virt. eigenvalues --    0.60325   0.60936   0.62136   0.62295   0.62991
 Alpha virt. eigenvalues --    0.65192   0.65232   0.66860   0.67739   0.68866
 Alpha virt. eigenvalues --    0.70260   0.70561   0.71985   0.72530   0.72634
 Alpha virt. eigenvalues --    0.72937   0.74679   0.75205   0.76197   0.77261
 Alpha virt. eigenvalues --    0.79104   0.79232   0.79965   0.81942   0.82072
 Alpha virt. eigenvalues --    0.83004   0.88300   0.88982   0.90848   0.92901
 Alpha virt. eigenvalues --    0.94343   0.94961   0.95991   0.96422   0.96900
 Alpha virt. eigenvalues --    0.98650   0.98775   0.99985   1.00230   1.01447
 Alpha virt. eigenvalues --    1.02593   1.05094   1.06008   1.07007   1.07471
 Alpha virt. eigenvalues --    1.08077   1.08568   1.10208   1.11093   1.11747
 Alpha virt. eigenvalues --    1.12039   1.12393   1.13144   1.15111   1.15159
 Alpha virt. eigenvalues --    1.16111   1.19122   1.20128   1.23088   1.23645
 Alpha virt. eigenvalues --    1.26329   1.27808   1.33333   1.33802   1.34534
 Alpha virt. eigenvalues --    1.34765   1.36491   1.38363   1.41061   1.46501
 Alpha virt. eigenvalues --    1.49140   1.49619   1.51120   1.53841   1.55165
 Alpha virt. eigenvalues --    1.56611   1.56714   1.57332   1.58883   1.59353
 Alpha virt. eigenvalues --    1.59886   1.59922   1.64974   1.66656   1.67356
 Alpha virt. eigenvalues --    1.68581   1.69531   1.69980   1.70050   1.71035
 Alpha virt. eigenvalues --    1.71787   1.72448   1.73392   1.73563   1.75164
 Alpha virt. eigenvalues --    1.77341   1.79553   1.80574   1.80798   1.83092
 Alpha virt. eigenvalues --    1.83146   1.83816   1.84757   1.84988   1.85219
 Alpha virt. eigenvalues --    1.87315   1.88725   1.89351   1.90219   1.92130
 Alpha virt. eigenvalues --    1.92332   1.93091   1.93425   1.94854   1.95971
 Alpha virt. eigenvalues --    1.97929   2.00272   2.01543   2.02861   2.04072
 Alpha virt. eigenvalues --    2.04746   2.07660   2.09316   2.10730   2.13159
 Alpha virt. eigenvalues --    2.14855   2.15995   2.17083   2.20929   2.24071
 Alpha virt. eigenvalues --    2.26941   2.30879   2.31317   2.38799   2.40161
 Alpha virt. eigenvalues --    2.41191   2.42481   2.42970   2.45709   2.47059
 Alpha virt. eigenvalues --    2.48442   2.50699   2.52629   2.53145   2.61905
 Alpha virt. eigenvalues --    2.62299   2.70986   2.73945   2.74573   2.80163
 Alpha virt. eigenvalues --    2.81799   2.83851   2.85521   2.89787   2.91060
 Alpha virt. eigenvalues --    2.92859   3.02596   3.10935   3.21535   3.39556
 Alpha virt. eigenvalues --    3.47708   3.56944   3.60819   3.85262
          Condensed to atoms (all electrons):
               1          2          3          4          5          6
     1  C    4.725682   0.482233   0.003783  -0.050404  -0.013179   0.522808
     2  C    0.482233   5.321128   0.331305  -0.049273  -0.064975  -0.010748
     3  C    0.003783   0.331305   4.787730   0.510572  -0.005094  -0.063626
     4  C   -0.050404  -0.049273   0.510572   4.771816   0.523387  -0.015444
     5  C   -0.013179  -0.064975  -0.005094   0.523387   4.722966   0.495554
     6  C    0.522808  -0.010748  -0.063626  -0.015444   0.495554   4.739049
     7  H    0.403385  -0.040012   0.008597  -0.000513   0.008125  -0.038473
     8  H   -0.000682   0.011070  -0.027408   0.393159  -0.042311   0.007543
     9  H    0.008652  -0.000456   0.008402  -0.038666   0.405105  -0.044426
    10  H   -0.042071   0.009588  -0.000556   0.008701  -0.043375   0.406660
    11  N    0.005329  -0.050357   0.411488  -0.042742   0.002922   0.000251
    12  S   -0.063214   0.337625  -0.114413   0.005434   0.000246   0.003558
    13  C   -0.000174   0.002645   0.010120  -0.000703   0.000009   0.000000
    14  C   -0.000004   0.000075   0.000153   0.000005  -0.000000  -0.000000
    15  C    0.000002  -0.000348   0.000851   0.000083  -0.000000   0.000000
    16  C    0.000000  -0.000002   0.000004  -0.000000   0.000000   0.000000
    17  H   -0.000003   0.000065   0.000001  -0.000000   0.000000  -0.000000
    18  C    0.000000   0.000007  -0.000026  -0.000000  -0.000000  -0.000000
    19  C   -0.000000   0.000000   0.000001  -0.000000   0.000000   0.000000
    20  H   -0.000000  -0.000000  -0.000000   0.000000   0.000000  -0.000000
    21  H   -0.000000   0.000000   0.000001  -0.000000   0.000000   0.000000
    22  H    0.000000  -0.000000  -0.000000  -0.000000   0.000000  -0.000000
    23  C    0.003607  -0.049903  -0.113628   0.001727   0.000227  -0.000172
    24  O    0.000002  -0.000115  -0.001371  -0.000069  -0.000001  -0.000000
    25  H    0.000012   0.005313  -0.018580  -0.002665  -0.000047   0.000005
               7          8          9         10         11         12
     1  C    0.403385  -0.000682   0.008652  -0.042071   0.005329  -0.063214
     2  C   -0.040012   0.011070  -0.000456   0.009588  -0.050357   0.337625
     3  C    0.008597  -0.027408   0.008402  -0.000556   0.411488  -0.114413
     4  C   -0.000513   0.393159  -0.038666   0.008701  -0.042742   0.005434
     5  C    0.008125  -0.042311   0.405105  -0.043375   0.002922   0.000246
     6  C   -0.038473   0.007543  -0.044426   0.406660   0.000251   0.003558
     7  H    0.654805   0.000031  -0.000142  -0.011917  -0.000107  -0.006667
     8  H    0.000031   0.647544  -0.011943  -0.000125  -0.003015  -0.000210
     9  H   -0.000142  -0.011943   0.662243  -0.012274  -0.000115   0.000022
    10  H   -0.011917  -0.000125  -0.012274   0.661555   0.000002  -0.000138
    11  N   -0.000107  -0.003015  -0.000115   0.000002   6.380506  -0.060750
    12  S   -0.006667  -0.000210   0.000022  -0.000138  -0.060750  15.444518
    13  C    0.000005   0.000051  -0.000000  -0.000000  -0.024341  -0.061420
    14  C    0.000000   0.000001   0.000000  -0.000000   0.003083  -0.006192
    15  C   -0.000000  -0.000010   0.000000   0.000000  -0.007880   0.003693
    16  C   -0.000000  -0.000000  -0.000000   0.000000  -0.000095  -0.000041
    17  H    0.000001   0.000000  -0.000000  -0.000000   0.000230   0.006225
    18  C   -0.000000  -0.000000  -0.000000  -0.000000  -0.000589  -0.000111
    19  C    0.000000   0.000000  -0.000000  -0.000000   0.000056   0.000020
    20  H   -0.000000  -0.000000   0.000000   0.000000   0.000001   0.000000
    21  H   -0.000000   0.000000  -0.000000   0.000000   0.000026   0.000004
    22  H    0.000000  -0.000000  -0.000000  -0.000000  -0.000000  -0.000000
    23  C    0.000105  -0.000763   0.000007   0.000004   0.530280   0.324791
    24  O   -0.000000  -0.000270   0.000000  -0.000000  -0.086268  -0.000352
    25  H    0.000002   0.001238  -0.000008  -0.000000   0.219491   0.002881
              13         14         15         16         17         18
     1  C   -0.000174  -0.000004   0.000002   0.000000  -0.000003   0.000000
     2  C    0.002645   0.000075  -0.000348  -0.000002   0.000065   0.000007
     3  C    0.010120   0.000153   0.000851   0.000004   0.000001  -0.000026
     4  C   -0.000703   0.000005   0.000083  -0.000000  -0.000000  -0.000000
     5  C    0.000009  -0.000000  -0.000000   0.000000   0.000000  -0.000000
     6  C    0.000000  -0.000000   0.000000   0.000000  -0.000000  -0.000000
     7  H    0.000005   0.000000  -0.000000  -0.000000   0.000001  -0.000000
     8  H    0.000051   0.000001  -0.000010  -0.000000   0.000000  -0.000000
     9  H   -0.000000   0.000000   0.000000  -0.000000  -0.000000  -0.000000
    10  H   -0.000000  -0.000000   0.000000   0.000000  -0.000000  -0.000000
    11  N   -0.024341   0.003083  -0.007880  -0.000095   0.000230  -0.000589
    12  S   -0.061420  -0.006192   0.003693  -0.000041   0.006225  -0.000111
    13  C    5.364884   0.460846   0.243112  -0.007247  -0.040405  -0.040928
    14  C    0.460846   4.815257   0.005033   0.533114   0.400478  -0.056584
    15  C    0.243112   0.005033   4.753711  -0.059746   0.007201   0.499561
    16  C   -0.007247   0.533114  -0.059746   4.761206  -0.034294  -0.019790
    17  H   -0.040405   0.400478   0.007201  -0.034294   0.678124  -0.000767
    18  C   -0.040928  -0.056584   0.499561  -0.019790  -0.000767   4.822625
    19  C   -0.050637  -0.017788  -0.010813   0.485764   0.008399   0.512928
    20  H    0.008981  -0.036110  -0.000207   0.400836  -0.012616   0.008339
    21  H    0.013903  -0.000583  -0.022594   0.007461   0.000048   0.375352
    22  H   -0.001278   0.009291   0.009029  -0.045344  -0.000171  -0.040611
    23  C    0.343785  -0.093057  -0.079360   0.006988  -0.019808   0.007552
    24  O   -0.083665   0.005058   0.562828  -0.000033  -0.000065  -0.061218
    25  H   -0.023674  -0.000535  -0.027358   0.000002  -0.000026   0.003963
              19         20         21         22         23         24
     1  C   -0.000000  -0.000000  -0.000000   0.000000   0.003607   0.000002
     2  C    0.000000  -0.000000   0.000000  -0.000000  -0.049903  -0.000115
     3  C    0.000001  -0.000000   0.000001  -0.000000  -0.113628  -0.001371
     4  C   -0.000000   0.000000  -0.000000  -0.000000   0.001727  -0.000069
     5  C    0.000000   0.000000   0.000000   0.000000   0.000227  -0.000001
     6  C    0.000000  -0.000000   0.000000  -0.000000  -0.000172  -0.000000
     7  H    0.000000  -0.000000  -0.000000   0.000000   0.000105  -0.000000
     8  H    0.000000  -0.000000   0.000000  -0.000000  -0.000763  -0.000270
     9  H   -0.000000   0.000000  -0.000000  -0.000000   0.000007   0.000000
    10  H   -0.000000   0.000000   0.000000  -0.000000   0.000004  -0.000000
    11  N    0.000056   0.000001   0.000026  -0.000000   0.530280  -0.086268
    12  S    0.000020   0.000000   0.000004  -0.000000   0.324791  -0.000352
    13  C   -0.050637   0.008981   0.013903  -0.001278   0.343785  -0.083665
    14  C   -0.017788  -0.036110  -0.000583   0.009291  -0.093057   0.005058
    15  C   -0.010813  -0.000207  -0.022594   0.009029  -0.079360   0.562828
    16  C    0.485764   0.400836   0.007461  -0.045344   0.006988  -0.000033
    17  H    0.008399  -0.012616   0.000048  -0.000171  -0.019808  -0.000065
    18  C    0.512928   0.008339   0.375352  -0.040611   0.007552  -0.061218
    19  C    4.727765  -0.047287  -0.046361   0.404858   0.000474   0.003720
    20  H   -0.047287   0.684597  -0.000167  -0.012283  -0.000360   0.000002
    21  H   -0.046361  -0.000167   0.671234  -0.012338  -0.000422   0.004520
    22  H    0.404858  -0.012283  -0.012338   0.670272   0.000006  -0.000078
    23  C    0.000474  -0.000360  -0.000422   0.000006   5.075738  -0.007594
    24  O    0.003720   0.000002   0.004520  -0.000078  -0.007594   7.802433
    25  H   -0.000321  -0.000001   0.000011   0.000010  -0.000468   0.217395
              25
     1  C    0.000012
     2  C    0.005313
     3  C   -0.018580
     4  C   -0.002665
     5  C   -0.000047
     6  C    0.000005
     7  H    0.000002
     8  H    0.001238
     9  H   -0.000008
    10  H   -0.000000
    11  N    0.219491
    12  S    0.002881
    13  C   -0.023674
    14  C   -0.000535
    15  C   -0.027358
    16  C    0.000002
    17  H   -0.000026
    18  C    0.003963
    19  C   -0.000321
    20  H   -0.000001
    21  H    0.000011
    22  H    0.000010
    23  C   -0.000468
    24  O    0.217395
    25  H    0.407559
 Mulliken charges:
               1
     1  C    0.014237
     2  C   -0.234865
     3  C    0.271694
     4  C   -0.014405
     5  C    0.010441
     6  C   -0.002539
     7  H    0.022774
     8  H    0.026100
     9  H    0.023599
    10  H    0.023947
    11  N   -0.277407
    12  S    0.184493
    13  C   -0.113869
    14  C   -0.021540
    15  C    0.123212
    16  C   -0.028784
    17  H    0.007383
    18  C   -0.009702
    19  C    0.029221
    20  H    0.006276
    21  H    0.009906
    22  H    0.018639
    23  C    0.070246
    24  O   -0.354859
    25  H    0.215802
 Sum of Mulliken charges =  -0.00000
 Mulliken charges with hydrogens summed into heavy atoms:
               1
     1  C    0.037011
     2  C   -0.234865
     3  C    0.271694
     4  C    0.011695
     5  C    0.034040
     6  C    0.021408
    11  N   -0.061605
    12  S    0.184493
    13  C   -0.113869
    14  C   -0.014157
    15  C    0.123212
    16  C   -0.022508
    18  C    0.000204
    19  C    0.047861
    23  C    0.070246
    24  O   -0.354859
 Electronic spatial extent (au):  <R**2>=           4348.5690
 Charge=             -0.0000 electrons
 Dipole moment (field-independent basis, Debye):
    X=              0.6456    Y=             -3.8733    Z=             -0.0000  Tot=              3.9267
 Quadrupole moment (field-independent basis, Debye-Ang):
   XX=            -83.1604   YY=            -91.8691   ZZ=           -104.3007
   XY=             -6.8859   XZ=             -0.0001   YZ=              0.0001
 Traceless Quadrupole moment (field-independent basis, Debye-Ang):
   XX=              9.9497   YY=              1.2410   ZZ=            -11.1906
   XY=             -6.8859   XZ=             -0.0001   YZ=              0.0001
 Octapole moment (field-independent basis, Debye-Ang**2):
  XXX=             23.6803  YYY=            -37.4127  ZZZ=             -0.0001  XYY=             -2.5600
  XXY=             -3.8868  XXZ=             -0.0000  XZZ=              1.6309  YZZ=              2.0502
  YYZ=              0.0004  XYZ=             -0.0006
 Hexadecapole moment (field-independent basis, Debye-Ang**3):
 XXXX=          -2609.6380 YYYY=          -2637.8895 ZZZZ=           -113.3437 XXXY=            810.1521
 XXXZ=              0.0097 YYYX=            766.7137 YYYZ=             -0.0121 ZZZX=              0.0132
 ZZZY=             -0.0184 XXYY=           -849.5392 XXZZ=           -572.5601 YYZZ=           -550.3197
 XXYZ=             -0.0031 YYXZ=              0.0004 ZZXY=            357.4627
 N-N= 1.097447939121D+03 E-N=-4.606945842701D+03  KE= 1.023685091349D+03
 No NMR shielding tensors so no spin-rotation constants.
 Leave Link  601 at Tue Oct 27 21:42:42 2020, MaxMem=  7784628224 cpu:               2.0 elap:               0.3
 (Enter /gpfs/loomis/apps/avx/software/Gaussian/16-C.01_AVX/g16/l701.exe)
 ... and contract with generalized density number  0.
 Compute integral first derivatives.
 R6Disp: Adding Grimme-D2 dispersion energy 1st derivatives to the gradient.
 D1PCM: PCM CHGder 1st derivatives, ID1Alg=3 FixD1E=F DoIter=F DoCFld=F I1PDM=0.
 GePol: Maximum number of non-zero 1st derivatives   =     268
 Leave Link  701 at Tue Oct 27 21:42:44 2020, MaxMem=  7784628224 cpu:              16.7 elap:               1.9
 (Enter /gpfs/loomis/apps/avx/software/Gaussian/16-C.01_AVX/g16/l702.exe)
 L702 exits ... SP integral derivatives will be done elsewhere.
 Leave Link  702 at Tue Oct 27 21:42:44 2020, MaxMem=  7784628224 cpu:               0.3 elap:               0.1
 (Enter /gpfs/loomis/apps/avx/software/Gaussian/16-C.01_AVX/g16/l703.exe)
 Integral derivatives from FoFJK, PRISM(SPDF).
 Compute integral first derivatives, UseDBF=F ICtDFT=           0.
 Calling FoFJK, ICntrl=      2127 FMM=F ISym2X=0 I1Cent= 0 IOpClX= 0 NMat=1 NMatS=1 NMatT=0.
 FoFJK:  IHMeth= 1 ICntrl=    2127 DoSepK=T KAlg= 0 I1Cent=           0 FoldK=F
 IRaf=         1 NMat=       1 IRICut=       1 DoRegI=T DoRafI=F ISym2E= 0 IDoP0=0 IntGTp=1.
 FoFCou: FMM=F IPFlag=           0 FMFlag=      100000 FMFlg1=         800
         NFxFlg=           0 DoJE=F BraDBF=F KetDBF=F FulRan=T
         wScrn=  0.000000 ICntrl=      2527 IOpCl=  0 I1Cent=           0 NGrid=           0
         NMat0=    1 NMatS0=      1 NMatT0=    0 NMatD0=    1 NMtDS0=    0 NMtDT0=    0
 Symmetry not used in FoFCou.
 Leave Link  703 at Tue Oct 27 21:43:00 2020, MaxMem=  7784628224 cpu:             138.5 elap:              15.0
 (Enter /gpfs/loomis/apps/avx/software/Gaussian/16-C.01_AVX/g16/l716.exe)
 Dipole        = 2.53998618D-01-1.52386876D+00-1.46650381D-05
 -------------------------------------------------------------------
 Center     Atomic                   Forces (Hartrees/Bohr)
 Number     Number              X              Y              Z
 -------------------------------------------------------------------
      1        6           0.003290386   -0.001666870    0.000000005
      2        6           0.005715292    0.010363321   -0.000000089
      3        6           0.014695715   -0.025720307   -0.000000175
      4        6          -0.008205363    0.001391084   -0.000000002
      5        6           0.000370812   -0.003776091    0.000000006
      6        6          -0.003376067    0.002403933   -0.000000012
      7        1           0.000186398    0.000236192   -0.000000040
      8        1          -0.000023505   -0.000251559    0.000000000
      9        1          -0.000415277   -0.000047865   -0.000000001
     10        1          -0.000307935    0.000155440    0.000000007
     11        7          -0.046519507    0.003118708    0.000000593
     12       16           0.005788584    0.012387646    0.000000016
     13        6           0.000554268    0.034658770    0.000000368
     14        6          -0.013675743    0.014917278    0.000000596
     15        6          -0.001539528   -0.024656763   -0.000000491
     16        6           0.001073144   -0.017703208   -0.000000410
     17        1          -0.001119171   -0.000520247    0.000000020
     18        6          -0.013036679   -0.001416561    0.000000234
     19        6           0.017251844   -0.006877814   -0.000000314
     20        1           0.000335323   -0.000334997   -0.000000024
     21        1          -0.000391676   -0.000189068   -0.000000040
     22        1          -0.000368533    0.000567746   -0.000000049
     23        6           0.029453131   -0.002828426   -0.000000081
     24        8           0.014199667   -0.007884636   -0.000000353
     25        1          -0.003935580    0.013674294    0.000000237
 -------------------------------------------------------------------
 Cartesian Forces:  Max     0.046519507 RMS     0.010256848
 Leave Link  716 at Tue Oct 27 21:43:00 2020, MaxMem=  7784628224 cpu:               0.2 elap:               0.1
 (Enter /gpfs/loomis/apps/avx/software/Gaussian/16-C.01_AVX/g16/l103.exe)

 GradGradGradGradGradGradGradGradGradGradGradGradGradGradGradGradGradGrad
 Berny optimization.
 FormGI is forming the generalized inverse of G from B-inverse, IUseBI=4.
 Internal  Forces:  Max     0.028436387 RMS     0.004937098
 Search for a local minimum.
 Step number   1 out of a maximum of  150
 All quantities printed in internal units (Hartrees-Bohrs-Radians)
 RMS Force = .49717D-02 SwitMx=.10000D-02 MixMth= 1
 Mixed Optimization -- RFO/linear search
 Second derivative matrix not updated -- first step.
 ITU=  0
     Eigenvalues ---    0.00388   0.01432   0.01561   0.01661   0.01714
     Eigenvalues ---    0.01789   0.01811   0.01967   0.02002   0.02012
     Eigenvalues ---    0.02044   0.02048   0.02050   0.02064   0.02068
     Eigenvalues ---    0.02083   0.02115   0.02126   0.02131   0.02144
     Eigenvalues ---    0.02160   0.02186   0.16000   0.16000   0.16000
     Eigenvalues ---    0.16000   0.16000   0.16000   0.16001   0.16017
     Eigenvalues ---    0.20742   0.20938   0.21987   0.22003   0.22429
     Eigenvalues ---    0.22582   0.22775   0.23408   0.24529   0.24767
     Eigenvalues ---    0.24989   0.27193   0.28759   0.31759   0.34575
     Eigenvalues ---    0.34631   0.34655   0.34700   0.34705   0.34711
     Eigenvalues ---    0.34730   0.34779   0.36175   0.38285   0.40357
     Eigenvalues ---    0.41457   0.42574   0.43107   0.43859   0.44503
     Eigenvalues ---    0.45063   0.46102   0.46369   0.47569   0.48046
     Eigenvalues ---    0.51431   0.673351000.000001000.000001000.00000
     Eigenvalues --- 1000.000001000.000001000.000001000.000001000.00000
     Eigenvalues --- 1000.000001000.000001000.000001000.000001000.00000
     Eigenvalues --- 1000.000001000.000001000.000001000.000001000.00000
     Eigenvalues --- 1000.000001000.000001000.000001000.000001000.00000
     Eigenvalues --- 1000.000001000.000001000.000001000.000001000.00000
     Eigenvalues --- 1000.000001000.000001000.000001000.000001000.00000
     Eigenvalues --- 1000.000001000.000001000.000001000.000001000.00000
     Eigenvalues --- 1000.000001000.000001000.000001000.000001000.00000
     Eigenvalues --- 1000.000001000.000001000.000001000.000001000.00000
     Eigenvalues --- 1000.000001000.000001000.000001000.000001000.00000
     Eigenvalues --- 1000.000001000.000001000.000001000.000001000.00000
     Eigenvalues --- 1000.000001000.000001000.000001000.000001000.00000
     Eigenvalues --- 1000.000001000.000001000.000001000.000001000.00000
     Eigenvalues --- 1000.000001000.000001000.000001000.000001000.00000
     Eigenvalues --- 1000.000001000.000001000.000001000.00000
 RFO step:  Lambda=-9.33146333D-03 EMin= 3.87875139D-03
 Linear search not attempted -- first point.
 Iteration  1 RMS(Cart)=  0.01881832 RMS(Int)=  0.00017400
 Iteration  2 RMS(Cart)=  0.00019019 RMS(Int)=  0.00005812
 Iteration  3 RMS(Cart)=  0.00000005 RMS(Int)=  0.00005812
 Iteration  1 RMS(Cart)=  0.00000002 RMS(Int)=  0.00000001
 ITry= 1 IFail=0 DXMaxC= 7.20D-02 DCOld= 1.00D+10 DXMaxT= 3.00D-01 DXLimC= 3.00D+00 Rises=F
 Variable       Old X    -DE/DX   Delta X   Delta X   Delta X     New X
                                 (Linear)    (Quad)   (Total)
    R1        2.63320   0.00164   0.00000   0.00294   0.00297   2.63617
    R2        2.63783  -0.00322   0.00000  -0.00707  -0.00706   2.63077
    R3        2.06162  -0.00028   0.00000  -0.00077  -0.00077   2.06086
    R4        2.68889  -0.01448   0.00000  -0.03077  -0.03064   2.65826
    R5        3.32844  -0.00122   0.00000  -0.00364  -0.00364   3.32480
    R6        2.66133  -0.00808   0.00000  -0.01791  -0.01791   2.64341
    R7        2.55767   0.01713   0.00000   0.03283   0.03284   2.59051
    R8        2.61811  -0.00001   0.00000   0.00084   0.00082   2.61893
    R9        2.06115  -0.00020   0.00000  -0.00060  -0.00060   2.06055
   R10        2.65644  -0.00238   0.00000  -0.00451  -0.00449   2.65194
   R11        2.06279  -0.00039   0.00000  -0.00111  -0.00111   2.06168
   R12        2.06157  -0.00030   0.00000  -0.00084  -0.00084   2.06073
   R13        2.56732  -0.02844   0.00000  -0.05778  -0.05786   2.50946
   R14        2.31269   0.00387   0.00000   0.01985   0.02012   2.33281
   R15        3.34863  -0.00459   0.00000  -0.02132  -0.02125   3.32738
   R16        2.64887   0.00745   0.00000   0.01578   0.01592   2.66479
   R17        2.80811  -0.02142   0.00000  -0.06049  -0.06046   2.74765
   R18        2.68719   0.00730   0.00000   0.01179   0.01171   2.69890
   R19        2.65430  -0.02205   0.00000  -0.04956  -0.04950   2.60480
   R20        2.06370   0.00089   0.00000   0.00253   0.00253   2.06624
   R21        2.67383  -0.00191   0.00000  -0.00362  -0.00378   2.67005
   R22        2.43281   0.00626   0.00000   0.01185   0.01192   2.44473
   R23        2.65853   0.00002   0.00000  -0.00043  -0.00041   2.65812
   R24        2.06239  -0.00031   0.00000  -0.00087  -0.00087   2.06152
   R25        2.63029  -0.01011   0.00000  -0.02054  -0.02069   2.60960
   R26        2.06147  -0.00028   0.00000  -0.00080  -0.00080   2.06067
   R27        2.06035   0.00067   0.00000   0.00186   0.00186   2.06221
   R28        2.37098  -0.01632   0.00000  -0.06709  -0.06705   2.30393
    A1        2.06680  -0.00192   0.00000  -0.00637  -0.00638   2.06042
    A2        2.10998   0.00119   0.00000   0.00443   0.00444   2.11442
    A3        2.10641   0.00072   0.00000   0.00194   0.00194   2.10835
    A4        2.11237   0.00093   0.00000   0.00318   0.00317   2.11554
    A5        2.24765   0.00496   0.00000   0.01332   0.01330   2.26095
    A6        1.92316  -0.00589   0.00000  -0.01649  -0.01647   1.90669
    A7        2.09036   0.00314   0.00000   0.00738   0.00738   2.09773
    A8        1.99146  -0.00047   0.00000  -0.00093  -0.00082   1.99064
    A9        2.20136  -0.00267   0.00000  -0.00645  -0.00655   2.19481
   A10        2.07116  -0.00021   0.00000  -0.00131  -0.00129   2.06987
   A11        2.08749   0.00003   0.00000   0.00039   0.00038   2.08787
   A12        2.12453   0.00018   0.00000   0.00092   0.00091   2.12545
   A13        2.11679  -0.00172   0.00000  -0.00453  -0.00453   2.11226
   A14        2.08299   0.00075   0.00000   0.00182   0.00182   2.08480
   A15        2.08341   0.00097   0.00000   0.00272   0.00272   2.08612
   A16        2.10888  -0.00022   0.00000   0.00166   0.00166   2.11055
   A17        2.08455   0.00007   0.00000  -0.00125  -0.00125   2.08330
   A18        2.08975   0.00015   0.00000  -0.00041  -0.00041   2.08934
   A19        1.98473   0.00332   0.00000   0.00913   0.00902   1.99375
   A20        2.47169  -0.00784   0.00000  -0.02271  -0.02260   2.44909
   A21        1.82677   0.00452   0.00000   0.01358   0.01358   1.84034
   A22        1.55732   0.00458   0.00000   0.01454   0.01447   1.57179
   A23        2.05115   0.00757   0.00000   0.03482   0.03496   2.08611
   A24        2.18938  -0.00352   0.00000  -0.01688  -0.01688   2.17250
   A25        2.04266  -0.00404   0.00000  -0.01794  -0.01808   2.02458
   A26        2.10965   0.00044   0.00000   0.00208   0.00226   2.11191
   A27        2.08938   0.00079   0.00000   0.00478   0.00470   2.09407
   A28        2.08415  -0.00123   0.00000  -0.00686  -0.00695   2.07720
   A29        2.08588  -0.00742   0.00000  -0.03283  -0.03288   2.05300
   A30        2.09959   0.00592   0.00000   0.02869   0.02877   2.12837
   A31        2.09771   0.00150   0.00000   0.00414   0.00411   2.10182
   A32        2.12383  -0.00786   0.00000  -0.03624  -0.03615   2.08767
   A33        2.07345   0.00368   0.00000   0.01644   0.01639   2.08984
   A34        2.08591   0.00418   0.00000   0.01981   0.01976   2.10567
   A35        2.10964   0.00033   0.00000   0.00205   0.00181   2.11145
   A36        2.04043  -0.00003   0.00000  -0.00006   0.00006   2.04049
   A37        2.13312  -0.00031   0.00000  -0.00199  -0.00187   2.13125
   A38        2.08622   0.00694   0.00000   0.03013   0.03001   2.11623
   A39        2.09606  -0.00318   0.00000  -0.01351  -0.01345   2.08261
   A40        2.10090  -0.00376   0.00000  -0.01661  -0.01656   2.08434
   A41        1.96811  -0.00154   0.00000  -0.00624  -0.00620   1.96191
   A42        2.08794   0.00052   0.00000  -0.00177  -0.00187   2.08607
   A43        2.22713   0.00103   0.00000   0.00801   0.00807   2.23521
   A44        1.84011  -0.00761   0.00000  -0.02291  -0.02285   1.81725
   A45        2.66930   0.00069   0.00000   0.00036   0.00046   2.66976
    D1        0.00000   0.00000   0.00000   0.00000   0.00000   0.00000
    D2       -3.14159  -0.00000   0.00000  -0.00000  -0.00000  -3.14159
    D3        3.14159   0.00000   0.00000   0.00000   0.00000  -3.14159
    D4       -0.00000  -0.00000   0.00000   0.00000   0.00000   0.00000
    D5       -0.00000   0.00000   0.00000   0.00000   0.00000  -0.00000
    D6        3.14159   0.00000   0.00000   0.00000   0.00000   3.14159
    D7       -3.14159  -0.00000   0.00000  -0.00000  -0.00000  -3.14159
    D8        0.00000  -0.00000   0.00000  -0.00000  -0.00000   0.00000
    D9        0.00000   0.00000   0.00000  -0.00000  -0.00000  -0.00000
   D10        3.14159  -0.00000   0.00000  -0.00000  -0.00000   3.14159
   D11        3.14159   0.00000   0.00000   0.00000   0.00000   3.14159
   D12       -0.00000  -0.00000   0.00000  -0.00000  -0.00000  -0.00000
   D13        3.14159   0.00000   0.00000   0.00000   0.00000  -3.14159
   D14       -0.00000   0.00000   0.00000   0.00000   0.00000   0.00000
   D15       -0.00000  -0.00000   0.00000   0.00000   0.00000  -0.00000
   D16        3.14159  -0.00000   0.00000  -0.00000  -0.00000   3.14159
   D17       -3.14159   0.00000   0.00000   0.00000   0.00000  -3.14159
   D18        0.00000   0.00000   0.00000   0.00000   0.00000   0.00000
   D19        0.00000   0.00000   0.00000  -0.00000  -0.00000   0.00000
   D20        3.14156   0.00000   0.00000   0.00001   0.00001   3.14157
   D21       -3.14159  -0.00000   0.00000  -0.00000  -0.00000  -3.14159
   D22       -0.00003   0.00000   0.00000   0.00001   0.00001  -0.00003
   D23        0.00000   0.00000   0.00000   0.00000   0.00000   0.00000
   D24       -3.14159   0.00000   0.00000  -0.00000  -0.00000  -3.14159
   D25       -3.14159   0.00000   0.00000   0.00000   0.00000  -3.14159
   D26        0.00000   0.00000   0.00000   0.00000   0.00000   0.00000
   D27        0.00000  -0.00000   0.00000  -0.00000  -0.00000  -0.00000
   D28       -3.14159  -0.00000   0.00000  -0.00000  -0.00000   3.14159
   D29       -3.14159   0.00000   0.00000   0.00000   0.00000  -3.14159
[...]
 1,0.,-0.00001772,0.00000398,0.,-0.00966716,-0.01359715,-0.00000009,0.0
 0149066,0.00254335,0.00000007,-0.01382527,-0.24229352,-0.00000237,-0.0
 7924897,0.02316042,0.00000055,-0.01566995,0.64329903,0.,0.,0.00031690,
 0.,-0.00000002,0.00045647,0.00000003,0.,-0.00116418,-0.00000001,0.,-0.
 00009200,0.,-0.00000001,0.00008550,0.,0.,-0.00010249,0.,0.,0.00002569,
 0.,0.,-0.00005860,0.,0.,0.00003060,0.,0.,-0.00004597,-0.00000007,0.000
 00006,0.00144560,0.00000004,0.00000001,0.00149117,0.00000019,-0.000002
 27,-0.07351966,-0.00000125,0.00000047,0.00072774,-0.00000299,0.0000061
 0,0.18637617,0.00025804,-0.00023698,0.,-0.00057309,0.00077873,0.,0.000
 28105,-0.00077929,-0.00000001,0.00008305,0.00020765,0.,-0.00002785,0.0
 0024787,0.,-0.00034411,0.00000078,0.,-0.00000061,0.00002919,0.,0.00003
 429,-0.00002237,0.,-0.00003782,0.00002936,0.,-0.00001597,0.00001635,0.
 ,-0.00382025,0.00096369,0.00000003,0.00006524,0.00088203,0.00000002,-0
 .04408501,0.01972716,0.00000043,-0.22584330,0.15519940,0.00000272,0.00
 335331,0.01458404,0.00000015,0.76678319,-0.00102910,0.00159029,0.00000
 002,0.00214031,-0.00114384,0.,0.00050134,0.00122340,0.00000005,-0.0012
 3090,0.00012167,0.,-0.00007899,-0.00177014,-0.00000002,0.00192580,0.00
 013620,0.,-0.00009065,-0.00006135,0.,0.00005219,0.00005289,0.,0.000132
 71,-0.00006751,0.,0.00009352,-0.00003831,0.,0.00949757,0.00819303,-0.0
 0000003,-0.00239997,-0.00249620,-0.00000007,0.07086695,0.02446078,0.00
 000015,0.08463638,-0.27268769,-0.00000341,0.02706045,-0.06829268,-0.00
 000103,-0.00071161,0.67189972,-0.00000001,0.00000002,0.00004708,0.0000
 0003,-0.00000002,0.00034879,0.,0.00000003,-0.00071082,-0.00000002,0.,-
 0.00012344,0.,-0.00000002,0.00006236,0.00000003,0.,-0.00001562,0.,0.,-
 0.00000183,0.,0.,0.00000030,0.,0.,0.00001627,0.,0.,-0.00002310,0.00000
 014,0.00000012,0.00023821,-0.00000004,-0.00000003,-0.00070613,0.000001
 11,0.00000020,0.00849017,0.00000176,-0.00000359,-0.06322518,0.00000035
 ,-0.00000096,-0.00511240,-0.00000183,0.00000799,0.12478935,0.00025756,
 0.00003492,0.,-0.00061777,0.00029963,-0.00000002,0.00032633,-0.0001468
 5,0.,0.00002280,0.00004296,0.,0.00004123,0.00006239,0.,-0.00007046,-0.
 00008249,0.,-0.00001626,-0.00000690,0.,0.00003686,0.00000390,0.,0.0000
 0893,-0.00000016,0.,0.00002845,-0.00000498,0.,0.00023546,0.00054446,0.
 ,-0.00063047,0.00151405,0.00000006,-0.00567550,-0.02865995,-0.00000041
 ,-0.09596797,-0.09558495,-0.00000129,-0.00499535,0.00218020,0.00000005
 ,0.01137888,0.01888943,0.00000026,0.09707197,0.00003049,-0.00005560,0.
 ,-0.00019248,0.00050778,0.00000002,0.00026606,-0.00010204,0.,0.0000301
 4,0.00005210,0.,0.00000995,0.00007065,0.,-0.00009232,0.00000732,0.,-0.
 00000857,0.00001398,0.,0.00001781,-0.00000534,0.,-0.00000559,0.0000041
 0,0.,-0.00000347,0.00000240,0.,-0.00072203,0.00018184,0.,-0.00027349,-
 0.00011711,0.00000002,0.00076821,-0.00092901,-0.00000005,-0.09362199,-
 0.30151774,-0.00000377,0.00037544,0.00214592,-0.00000006,-0.01317009,-
 0.01661728,-0.00000028,0.10140342,0.31926921,0.,0.,-0.00000607,0.,0.00
 000002,-0.00051774,0.,0.,0.00020799,0.,0.,0.00007997,0.,0.,-0.00002163
 ,0.,0.,0.00002444,0.,0.,-0.00001037,0.,0.,-0.00001482,0.,0.,-0.0000058
 1,0.,0.,0.00001629,0.,0.,-0.00019170,0.00000003,0.00000003,0.00079141,
 0.00000002,0.,0.00312817,-0.00000126,-0.00000374,-0.03761027,0.0000000
 2,-0.00000005,0.00605464,-0.00000021,-0.00000039,0.00504476,0.00000132
 ,0.00000416,0.02495108,-0.00014612,0.00087656,0.00000001,0.00090011,-0
 .00006275,0.,0.00247954,0.00006437,0.,-0.00086925,0.00004185,0.,-0.000
 00815,-0.00095320,0.,0.00088101,0.00009583,0.,-0.00007733,0.00003067,0
 .,0.00011359,0.00000754,0.,0.00004536,-0.00002233,0.,0.00004758,0.0000
 0276,0.,0.00446024,0.01310024,0.00000006,-0.00017928,-0.00039949,-0.00
 000002,0.05644963,0.01959832,0.00000022,-0.05910828,0.02704244,0.00000
 054,-0.16234475,0.04819302,0.00000079,-0.00867180,-0.08556270,-0.00000
 114,-0.00066965,0.00052612,0.,0.72978946,0.00062974,-0.00054874,0.,-0.
 00139034,-0.00007194,-0.00000001,-0.00067519,-0.00001720,0.,0.00067052
 ,-0.00006498,0.,0.00006709,0.00081962,0.,-0.00079386,-0.00018012,0.,0.
 00001253,0.00002734,0.,-0.00001857,-0.00000967,0.,-0.00003549,0.000025
 62,0.,-0.00000177,0.00000219,0.,-0.00262789,-0.00295833,0.,0.00179027,
 0.00000880,0.00000003,-0.00373446,-0.03282032,-0.00000058,0.02075495,-
 0.01181954,-0.00000018,0.09882698,-0.24718093,-0.00000257,-0.03595275,
 0.01979918,0.00000026,0.00024186,0.00052061,0.00000003,0.05912232,0.70
 874609,0.,0.,-0.00012172,-0.00000002,0.,-0.00014118,-0.00000001,0.,-0.
 00099974,0.00000001,0.,0.00005104,0.,0.00000001,0.00002218,-0.00000001
 ,0.,0.00003469,0.,0.,-0.00004737,0.,0.,-0.00003542,0.,0.,-0.00001181,0
 .,0.,0.00003686,-0.00000007,-0.00000011,0.00207202,0.00000001,0.,-0.00
 050674,-0.00000020,-0.00000062,0.00843886,0.00000044,-0.00000021,-0.00
 274885,0.00000147,-0.00000246,-0.07209000,-0.00000044,0.00000039,0.008
 00412,0.,0.00000002,-0.00070007,-0.00000129,0.00000753,0.12398779,0.00
 072537,-0.00113586,-0.00000001,-0.00176839,0.00059760,0.,-0.00107659,-
 0.00029339,-0.00000002,0.00110443,-0.00008010,0.,0.00003927,0.00139578
 ,0.00000001,-0.00141255,-0.00016639,0.,0.00006313,0.00004052,0.,-0.000
 05779,-0.00003877,0.,-0.00009357,0.00005239,0.,-0.00006119,0.00002288,
 0.,-0.00568553,-0.00631068,0.00000001,0.00167568,0.00116451,0.00000005
 ,-0.04351554,-0.01170428,-0.00000015,0.06426350,-0.00927746,-0.0000002
 7,-0.05273899,0.05786014,0.00000105,-0.15675859,-0.03509708,-0.0000002
 5,-0.00218261,0.00437640,0.00000011,-0.37842566,-0.07627989,0.00000006
 ,0.73017981,0.00039394,-0.00062878,0.,-0.00078655,0.00040859,0.,-0.000
 39043,-0.00082013,-0.00000002,0.00038387,0.00003220,0.,0.00002575,0.00
 064054,0.,-0.00073703,-0.00004294,0.,0.00004134,0.00000868,0.,-0.00003
 162,-0.00001539,0.,-0.00004948,0.00002718,0.,-0.00003114,0.00001108,0.
 ,-0.00585882,-0.00533206,0.,0.00093797,0.00082110,0.00000003,-0.039925
 69,-0.01648104,-0.00000014,0.04700684,-0.06052012,-0.00000107,0.007954
 32,0.05831456,0.00000078,-0.10925000,-0.30101379,-0.00000309,0.0033581
 6,-0.00239506,-0.00000015,-0.00530083,-0.13999699,-0.00000100,-0.02990
 309,0.71106874,0.,0.,0.00000328,0.,0.,0.00005160,0.,-0.00000001,0.0002
 7755,0.,0.,0.00000097,0.,0.,-0.00002064,0.,0.,0.00000190,0.,0.,0.00000
 475,0.,0.,0.00001365,0.,0.,-0.00000115,0.,0.,-0.00000772,-0.00000006,-
 0.00000005,-0.00045604,0.,0.,-0.00000839,-0.00000044,-0.00000012,-0.00
 409807,0.00000050,-0.00000095,0.00695062,0.00000026,0.00000063,-0.0008
 6396,-0.00000126,-0.00000326,-0.06309137,0.00000008,-0.00000017,0.0076
 3602,0.00000097,-0.00000083,-0.05880945,-0.00000226,0.00000802,0.14425
 840,0.00002096,-0.00007623,0.,-0.00006204,0.00012567,0.,-0.00002807,-0
 .00008041,0.,0.00004986,0.00002987,0.,-0.00001019,0.00006868,0.,-0.000
 08246,0.00000740,0.,0.00000438,0.00000793,0.,0.00000097,-0.00000581,0.
 ,-0.00001077,0.00000687,0.,-0.00000933,0.00000518,0.,-0.00044168,0.000
 33446,0.,0.00002834,0.00006978,0.,0.00012110,0.00363409,0.00000008,-0.
 01369906,-0.00679426,-0.00000007,0.00051393,0.00010358,0.,-0.34199087,
 -0.04308381,0.00000021,0.00076144,0.00008945,-0.00000001,0.00139512,-0
 .00200807,-0.00000002,-0.00657206,0.00265849,0.00000006,0.36007197,-0.
 00000251,0.00003016,0.,0.00003324,-0.00006303,0.,0.00009516,0.00006357
 ,0.,-0.00001765,-0.00003959,0.,0.00001298,-0.00002126,0.,0.00002935,-0
 .00000415,0.,-0.00000095,-0.00000343,0.,0.00000145,0.00000210,0.,0.000
 00476,-0.00000471,0.,0.00000359,-0.00000160,0.,0.00040096,-0.00016311,
 0.,0.00000464,0.00004426,0.,0.00227411,-0.00364995,-0.00000017,0.02561
 050,0.00716177,0.00000003,0.00043214,-0.00148881,-0.00000001,-0.043798
 21,-0.06410561,-0.00000037,-0.00031400,0.00096274,0.00000009,-0.000886
 11,-0.00499918,-0.00000015,-0.02954387,0.00067770,0.00000007,0.0460494
 9,0.06375430,0.,0.,-0.00000362,0.,0.,-0.00003536,0.,0.,-0.00024512,0.,
 0.,-0.00001413,0.,0.,0.00002141,0.,0.,-0.00000433,0.,0.,-0.00000005,0.
 ,0.,-0.00000787,0.,0.,0.00000472,0.,0.,0.00000480,0.,0.,-0.00020191,0.
 ,0.,0.00006233,0.00000007,-0.00000016,0.00738175,0.00000040,0.00000012
 ,0.00129806,0.,-0.00000003,-0.00074702,0.00000017,-0.00000039,-0.03205
 854,-0.00000001,0.00000009,-0.00469875,0.,-0.00000015,0.00587281,-0.00
 000040,0.,0.00119085,-0.00000022,0.00000046,0.02447055,-0.00005822,-0.
 00000166,0.,0.00005647,0.00007841,0.,-0.00005736,-0.00001475,0.,-0.000
 01543,0.00000599,0.,-0.00000779,-0.00002828,0.,0.00002775,0.00001473,0
 .,0.00000243,-0.00000449,0.,-0.00000657,0.00000194,0.,0.00000162,-0.00
 000077,0.,-0.00000311,-0.00000166,0.,0.00024596,-0.00040341,0.,-0.0002
 6954,0.00006016,0.,-0.00201142,0.00260174,0.00000006,-0.00127958,0.000
 58097,0.,0.01003607,0.01961648,0.00000025,-0.00510170,0.00028387,0.000
 00005,0.00009633,-0.00009435,0.,-0.09513793,-0.09848703,-0.00000108,-0
 .00538742,-0.02928459,-0.00000036,-0.00044995,-0.00138830,-0.00000002,
 0.09622960,0.00002947,0.00009825,0.,-0.00004570,-0.00014536,0.,0.00009
 904,0.00011097,0.,-0.00004708,-0.00001683,0.,0.00001350,-0.00006043,0.
 ,0.00006943,-0.00001969,0.,-0.00000772,0.00000096,0.,0.00000831,0.0000
 0341,0.,0.00000966,-0.00000492,0.,0.00001220,-0.00000271,0.,0.00010797
 ,0.00061029,0.,0.00022772,-0.00028187,0.,0.00384504,-0.00258683,-0.000
 00011,0.00112157,0.00031204,0.00000001,-0.01436878,-0.01777529,-0.0000
 0026,-0.00035157,0.00214732,-0.00000007,-0.00007257,-0.00006659,0.,-0.
 09753309,-0.30784954,-0.00000324,0.00198948,0.00010913,-0.00000004,0.0
 0007990,-0.00009085,0.,0.10646149,0.32333168,0.,0.,0.00002660,0.,0.,-0
 .00000727,0.,0.,-0.00003664,0.,0.,0.00000169,0.,0.,-0.00000196,0.,0.,-
 0.00000039,0.,0.,0.00000211,0.,0.,0.00000311,0.,0.,0.00000264,0.,0.,-0
 .00000434,0.,0.00000001,0.00004541,0.,0.,-0.00001399,0.00000004,-0.000
 00012,0.00522568,0.00000004,0.,-0.00081387,-0.00000024,-0.00000029,0.0
 0467694,0.00000004,-0.00000007,0.00790630,0.,0.00000001,-0.00085435,-0
 .00000102,-0.00000331,-0.03432708,0.00000002,0.00000006,0.00234460,0.,
 0.,0.00051379,0.00000117,0.00000356,0.02436932,0.00002732,-0.00004340,
 0.,-0.00004247,0.00011487,0.,0.00011323,-0.00007395,0.,0.00002458,0.00
 000973,0.,-0.00000213,0.00004702,0.,-0.00005737,0.00000366,0.,0.000001
 37,0.00000527,0.,0.00000383,-0.00000385,0.,-0.00000774,0.00000416,0.,-
 0.00000532,0.00000380,0.,-0.00016232,0.00036617,0.,0.00001504,0.000207
 42,0.,-0.00088336,-0.00035687,0.,0.00062593,-0.00286224,-0.00000003,-0
 .00410522,-0.00283430,0.00000002,0.01019753,-0.01026135,-0.00000016,0.
 00037809,-0.00055024,-0.00000001,-0.01299118,0.02602555,0.00000040,-0.
 16866948,0.13755510,0.00000229,0.00066795,0.00040719,0.,0.00103379,-0.
 00024672,-0.00000003,0.17498696,0.00001678,0.00002207,0.,-0.00006096,-
 0.00000384,0.,-0.00000399,0.00004093,0.,-0.00000277,-0.00000564,0.,0.0
 0000752,-0.00000821,0.,0.00001342,-0.00001176,0.,-0.00000401,-0.000002
 42,0.,0.00000169,0.00000281,0.,0.00000529,-0.00000196,0.,0.00000605,-0
 .00000309,0.,0.00013007,-0.00013696,0.,-0.00004260,-0.00001059,0.,-0.0
 0085921,0.00038154,0.00000002,-0.00346481,-0.00456183,-0.00000014,-0.0
 0232780,0.00102305,-0.00000010,0.02100133,-0.01542484,-0.00000034,0.00
 098292,-0.00108520,-0.00000002,-0.00562999,0.00655059,0.00000003,0.138
 02866,-0.23340160,-0.00000308,-0.00017681,0.00101714,0.00000006,0.0001
 6556,0.00075182,0.00000008,-0.14807484,0.24433925,0.,0.,-0.00001476,0.
 ,0.,-0.00004932,0.,0.,0.00017536,0.,0.,0.00000147,0.,0.,-0.00000605,0.
 ,0.,-0.00000292,0.,0.,0.00000572,0.,0.,0.00000216,0.,0.,0.00000039,0.,
 0.,0.00000468,0.,0.,-0.00031747,0.,0.,0.00020256,0.,0.00000003,-0.0010
 6938,-0.00000006,-0.00000014,0.00619966,0.00000003,-0.00000012,0.00931
 652,0.00000027,-0.00000029,0.00466495,0.00000001,0.,-0.00021093,-0.000
 00004,-0.00000005,0.00522950,0.00000231,-0.00000305,-0.04116296,-0.000
 00001,0.00000006,-0.00343791,-0.00000002,0.00000008,-0.00498483,-0.000
 00248,0.00000346,0.02690476,-0.00493003,-0.00490060,-0.00000010,-0.002
 04074,0.01816997,0.00000032,-0.08338435,0.04330692,0.00000049,0.014008
 60,-0.00329986,0.,-0.00354144,0.00731188,0.00000004,-0.00286077,-0.004
 71796,-0.00000006,0.00028034,-0.00097329,0.,-0.00042975,-0.00015812,0.
 ,0.00030802,-0.00000343,0.,-0.00070740,-0.00010326,0.,-0.41692487,-0.0
 5614376,-0.00000035,-0.05160553,-0.03234020,-0.00000069,-0.15304864,0.
 07066238,0.00000110,-0.04601806,0.03338656,0.00000056,0.04320986,0.013
 30605,-0.00000003,-0.00023199,-0.02047163,-0.00000029,0.00101588,0.001
 22699,0.00000001,-0.00873161,0.00169696,0.00000006,0.00955973,0.007864
 41,0.00000008,-0.00023999,0.00085601,0.00000002,0.00028691,-0.00135697
 ,-0.00000001,0.00037321,-0.00000343,0.,0.73660357,0.00249672,-0.002841
 51,-0.00000010,0.02717615,-0.02527384,-0.00000036,0.01257798,0.0115363
 9,-0.00000002,0.00848925,-0.00894375,-0.00000011,-0.00170647,0.0063457
 6,0.00000004,-0.00385699,-0.00459675,-0.00000005,0.00025847,-0.0007445
 2,0.,-0.00053646,0.00001676,0.,0.00020391,-0.00035390,0.,-0.00044052,0
 .00005887,0.00000001,-0.07935412,-0.14341476,-0.00000049,0.00091033,-0
 .15680092,-0.00000199,0.06398654,-0.19172111,-0.00000200,0.02202295,0.
 00472689,0.00000011,0.00513096,-0.03929272,-0.00000052,-0.00767438,0.0
 1671365,0.00000017,-0.00204262,-0.00034036,0.00000002,0.00360351,-0.00
 956723,-0.00000021,-0.01089323,-0.00796946,-0.00000006,-0.00104643,0.0
 0077551,0.,0.00126838,-0.00048056,-0.00000001,-0.00041242,0.00014719,0
 .00000002,-0.03880441,0.54489841,0.00000009,-0.00000011,-0.00001384,0.
 00000018,-0.00000014,0.00407496,-0.00000011,0.00000018,0.00359152,0.00
 000018,-0.00000016,0.00277334,-0.00000003,0.00000016,0.00074505,-0.000
 00014,-0.00000009,0.00091991,0.00000001,0.,-0.00045995,0.,0.,-0.000366
 02,0.,0.,-0.00046320,0.,0.,-0.00004775,-0.00000029,-0.00000095,-0.0661
 9151,-0.00000010,-0.00000216,-0.03644084,0.00000086,-0.00000179,-0.054
 36974,0.00000044,0.00000004,-0.00421715,-0.00000001,-0.00000065,0.0034
 9858,-0.00000009,0.00000021,0.00648717,-0.00000003,0.00000004,-0.00323
 421,0.00000010,-0.00000022,0.00422275,-0.00000020,-0.00000013,-0.00093
 583,-0.00000001,-0.00000001,0.00124365,0.00000002,0.,-0.00019459,0.,0.
 00000001,-0.00071794,-0.00000097,0.00000554,0.13836273,-0.00072172,0.0
 0285843,0.00000003,0.00249013,0.00203496,0.00000005,0.01260140,-0.0006
 4836,0.00000006,-0.00280615,0.00045501,0.,-0.00008766,-0.00291604,-0.0
 0000003,0.00265825,0.00063840,0.00000001,-0.00025300,0.00023766,0.,0.0
 0032246,-0.00002868,0.,0.00000709,0.00000018,0.,0.00006044,0.00007830,
 0.,0.02078065,0.06806824,0.00000043,-0.00056285,0.00065382,-0.00000007
 ,-0.01958739,-0.04820803,-0.00000025,-0.01110089,0.00405650,0.00000011
 ,-0.40426747,-0.06068781,0.00000116,-0.00552950,-0.01917215,-0.0000002
 5,-0.00138072,-0.00059582,-0.00000001,-0.07249595,0.01660244,0.0000007
 4,0.01999011,0.01454708,0.00000016,-0.00010386,-0.00030465,0.,0.002013
 65,-0.00032671,-0.00000003,-0.00150277,0.00042910,-0.00000001,-0.03877
 538,0.02203044,0.00000038,0.53630139,-0.00075402,-0.00153207,-0.000000
 02,0.00046733,-0.00491885,-0.00000004,-0.01692569,-0.00514466,-0.00000
 011,0.00037803,-0.00069956,0.,0.00062662,0.00100394,0.00000001,-0.0006
 4295,-0.00028545,0.,0.00028431,-0.00045523,0.,0.00007994,0.00024723,0.
 ,0.00019900,-0.00016291,0.,0.00010691,-0.00011335,0.,0.02450723,-0.106
 59934,-0.00000109,-0.00076423,-0.00493010,-0.00000004,-0.04924130,0.00
 021327,0.,0.01147245,-0.00893074,-0.00000022,-0.06493621,-0.12214005,-
 0.00000043,-0.00124585,0.01184156,0.00000019,-0.00145858,-0.00016105,-
 0.00000001,0.05171198,0.01375380,-0.00000018,-0.00739642,-0.01379924,-
 0.00000023,-0.00002084,0.00057584,0.00000002,-0.00227092,0.00276728,0.
 00000008,0.00184717,0.00017028,0.,0.01818357,0.00125520,0.00000003,0.0
 4562977,0.28816979,0.,-0.00000004,-0.00028880,0.,-0.00000007,-0.000289
 70,-0.00000030,-0.00000008,0.00219658,0.00000002,-0.00000001,0.0001234
 7,0.,0.00000003,-0.00007302,-0.00000003,0.,0.00005185,0.,0.,0.00001566
 ,0.,0.,0.00001855,0.,0.,-0.00001049,0.,0.,0.00000084,0.00000023,-0.000
 00178,0.01025632,0.,-0.00000004,-0.00061930,-0.00000055,0.00000002,0.0
 1559656,0.00000029,-0.00000024,0.00638380,0.00000132,-0.00000033,-0.06
 137227,0.,0.00000032,-0.00090348,0.,0.,0.00015751,0.00000114,-0.000000
 04,0.01044821,-0.00000022,-0.00000035,0.00531357,0.,0.00000002,-0.0006
 6657,-0.00000006,0.00000007,-0.00359633,0.00000003,0.,-0.00047832,0.00
 000047,-0.00000010,-0.00239992,-0.00000224,0.00000258,0.05169100,0.000
 55138,-0.00053708,0.,-0.00278842,0.00045151,-0.00000001,0.00024937,0.0
 0806803,0.00000005,0.00126921,-0.00015123,0.,0.00001297,0.00064625,0.,
 -0.00061020,-0.00019718,0.,0.00000455,0.00003771,0.,-0.00053273,-0.000
 13181,0.,0.00003837,-0.00003055,0.,-0.00000916,-0.00006735,0.,-0.04439
 595,-0.02630820,-0.00000004,-0.00239653,-0.00370854,-0.00000004,-0.002
 35680,0.00615612,0.00000005,0.00203785,0.00036267,0.,-0.04624613,0.026
 18070,0.00000064,0.00059788,0.00310943,0.00000004,0.00054656,0.0002099
 4,0.,0.00329530,-0.00443591,-0.00000006,-0.00319507,-0.00117797,0.,0.0
 0006431,0.00004073,0.,-0.00024459,0.00028215,0.,-0.00001945,-0.0001371
 7,0.,0.00782440,-0.02338756,-0.00000026,-0.03805026,-0.00983729,-0.000
 00010,0.12435312,0.00032245,0.00275497,0.00000003,0.00204692,0.0075210
 4,0.00000009,0.02625949,-0.00208767,0.00000007,-0.00236108,0.00217328,
 0.00000002,-0.00089746,-0.00273873,-0.00000003,0.00172829,0.00105649,0
 .00000002,-0.00040009,0.00062541,0.,0.00019083,-0.00036810,0.,-0.00033
 277,0.00027585,0.,-0.00012712,0.00018885,0.,-0.00987754,0.00177089,-0.
 00000015,0.00143486,0.00916067,0.00000005,0.00791177,-0.02222841,-0.00
 000021,-0.01143330,0.00052460,0.00000002,0.07584724,0.02369600,-0.0000
 0014,-0.00047447,-0.01446045,-0.00000020,-0.00118426,-0.00034626,0.,-0
 .02766705,0.00783086,0.00000022,0.01259214,0.01029710,0.00000008,0.000
 02182,-0.00042980,0.,0.00084050,-0.00086165,-0.00000001,-0.00087693,0.
 00021127,0.,-0.05269477,0.00586676,0.00000020,-0.04543207,-0.05012558,
 0.00000006,0.02456259,0.01969263,0.,0.00000002,0.00055878,0.00000002,0
 .00000007,0.00102869,0.00000028,0.,-0.00268392,-0.00000003,0.00000002,
 -0.00051938,0.,-0.00000003,-0.00001920,0.00000002,0.00000001,-0.000099
 68,0.,0.,0.00002996,0.,0.,0.00009981,0.,0.,0.00003518,0.,0.,-0.0000038
 3,0.00000004,0.00000057,-0.02269699,0.,0.00000003,0.00255593,0.0000000
 9,-0.00000023,-0.00299927,-0.00000016,0.00000002,-0.00064067,0.0000010
 6,0.00000005,0.00066602,0.,-0.00000019,-0.00012791,-0.00000002,0.,-0.0
 0001554,-0.00000031,0.00000009,0.00211860,0.00000016,0.00000011,0.0014
 0782,0.,0.,0.00005646,0.,0.,-0.00028256,0.,0.,-0.00025494,-0.00000064,
 0.00000009,0.00413283,-0.00000023,-0.00000054,-0.03155572,-0.00000027,
 -0.00000011,0.04920953\\0.00061111,0.00251102,0.00000016,0.00342314,0.
 00516601,0.00000043,0.00652781,-0.00006303,0.00000011,-0.00057514,0.00
 101151,-0.00000008,-0.00024154,-0.00203474,0.00000004,0.00073945,0.000
 76593,0.,-0.00013570,0.00032210,-0.00000006,0.00018798,-0.00006531,0.0
 0000002,-0.00002538,-0.00003059,0.,-0.00002419,0.00002631,-0.00000005,
 -0.00882954,0.00620854,-0.00000022,0.00222016,0.00618106,-0.00000049,-
 0.00528476,0.00336328,0.00000020,0.00531973,-0.00064334,-0.00000028,0.
 00943603,0.00203599,0.00000061,-0.00183836,0.00470547,0.00000019,0.000
 16659,0.00001019,-0.00000003,-0.00236411,0.00023644,-0.00000019,-0.003
 58307,-0.00073674,-0.00000001,-0.00010157,0.00006841,0.00000001,-0.000
 13853,0.00000752,0.00000001,-0.00033739,-0.00010769,0.,-0.00545135,-0.
 00357890,0.00000040,-0.00520317,-0.00714714,-0.00000020,0.00550180,-0.
 01821230,-0.00000060\\\@
 The archive entry for this job was punched.


 Boundary, n.  In political geography, an imaginary
 line between two nations, separating the imaginary
 rights of one from the imaginary rights of another.
                               -- Ambrose Bierce
 Job cpu time:       0 days  1 hours  0 minutes 34.4 seconds.
 Elapsed time:       0 days  0 hours  6 minutes 11.0 seconds.
 File lengths (MBytes):  RWF=    544 Int=      0 D2E=      0 Chk=     40 Scr=      8
 Normal termination of Gaussian 16 at Tue Oct 27 21:58:06 2020.
