 Entering Gaussian System, Link 0=g16
 Initial command:
 /gpfs/loomis/apps/avx/software/Gaussian/16-C.01_AVX/g16/l1.exe "/home/fas/batista/pev4/scratch60/gauss-scratch/Gau-257960.inp" -scrdir="/home/fas/batista/pev4/scratch60/gauss-scratch/"
 Entering Link 1 = /gpfs/loomis/apps/avx/software/Gaussian/16-C.01_AVX/g16/l1.exe PID=    257961.
  
 Copyright (c) 1988-2019, Gaussian, Inc.  All Rights Reserved.
  
 This is part of the Gaussian(R) 16 program.  It is based on
 the Gaussian(R) 09 system (copyright 2009, Gaussian, Inc.),
 the Gaussian(R) 03 system (copyright 2003, Gaussian, Inc.),
 the Gaussian(R) 98 system (copyright 1998, Gaussian, Inc.),
 the Gaussian(R) 94 system (copyright 1995, Gaussian, Inc.),
 the Gaussian 92(TM) system (copyright 1992, Gaussian, Inc.),
 the Gaussian 90(TM) system (copyright 1990, Gaussian, Inc.),
 the Gaussian 88(TM) system (copyright 1988, Gaussian, Inc.),
 the Gaussian 86(TM) system (copyright 1986, Carnegie Mellon
 University), and the Gaussian 82(TM) system (copyright 1983,
 Carnegie Mellon University). Gaussian is a federally registered
 trademark of Gaussian, Inc.
  
 This software contains proprietary and confidential information,
 including trade secrets, belonging to Gaussian, Inc.
  
 This software is provided under written license and may be
 used, copied, transmitted, or stored only in accord with that
 written license.
  
 The following legend is applicable only to US Government
 contracts under FAR:
  
                    RESTRICTED RIGHTS LEGEND
  
 Use, reproduction and disclosure by the US Government is
 subject to restrictions as set forth in subparagraphs (a)
 and (c) of the Commercial Computer Software - Restricted
 Rights clause in FAR 52.227-19.
  
 Gaussian, Inc.
 340 Quinnipiac St., Bldg. 40, Wallingford CT 06492
  
  
 ---------------------------------------------------------------
 Warning -- This program may not be used in any manner that
 competes with the business of Gaussian, Inc. or will provide
 assistance to any competitor of Gaussian, Inc.  The licensee
 of this program is prohibited from giving any competitor of
 Gaussian, Inc. access to this program.  By using this program,
 the user acknowledges that Gaussian, Inc. is engaged in the
 business of creating and licensing software in the field of
 computational chemistry and represents and warrants to the
 licensee that it is not a competitor of Gaussian, Inc. and that
 it will not use this program in any manner prohibited above.
 ---------------------------------------------------------------
  

 Cite this work as:
 Gaussian 16, Revision C.01,
 M. J. Frisch, G. W. Trucks, H. B. Schlegel, G. E. Scuseria, 
 M. A. Robb, J. R. Cheeseman, G. Scalmani, V. Barone, 
 G. A. Petersson, H. Nakatsuji, X. Li, M. Caricato, A. V. Marenich, 
 J. Bloino, B. G. Janesko, R. Gomperts, B. Mennucci, H. P. Hratchian, 
 J. V. Ortiz, A. F. Izmaylov, J. L. Sonnenberg, D. Williams-Young, 
 F. Ding, F. Lipparini, F. Egidi, J. Goings, B. Peng, A. Petrone, 
 T. Henderson, D. Ranasinghe, V. G. Zakrzewski, J. Gao, N. Rega, 
 G. Zheng, W. Liang, M. Hada, M. Ehara, K. Toyota, R. Fukuda, 
 J. Hasegawa, M. Ishida, T. Nakajima, Y. Honda, O. Kitao, H. Nakai, 
 T. Vreven, K. Throssell, J. A. Montgomery, Jr., J. E. Peralta, 
 F. Ogliaro, M. J. Bearpark, J. J. Heyd, E. N. Brothers, K. N. Kudin, 
 V. N. Staroverov, T. A. Keith, R. Kobayashi, J. Normand, 
 K. Raghavachari, A. P. Rendell, J. C. Burant, S. S. Iyengar, 
 J. Tomasi, M. Cossi, J. M. Millam, M. Klene, C. Adamo, R. Cammi, 
 J. W. Ochterski, R. L. Martin, K. Morokuma, O. Farkas, 
 J. B. Foresman, and D. J. Fox, Gaussian, Inc., Wallingford CT, 2019.
 
 ******************************************
 Gaussian 16:  ES64L-G16RevC.01  3-Jul-2019
                27-Oct-2020 
 ******************************************
 %chk=config_12_11.chk
 %mem=58GB
 %nprocshared=10
 Will use up to   10 processors via shared memory.
 ----------------------------------------------------------------------
 #p opt=addgic freq wb97xd/cc-pvdz nosymm int=ultrafine scrf=(solvent=C
 arbonTetraChloride)
 ----------------------------------------------------------------------
 1/18=20,19=15,26=6,38=1,145=903/1,3;
 2/9=110,12=2,15=1,17=6,18=5,40=1/2;
 3/5=16,11=2,25=1,30=1,70=2201,71=1,72=11,74=-58,75=-5/1,2,3;
 4//1;
 5/5=2,38=5,53=11/2;
 6/7=2,8=2,9=2,10=2,28=1/1;
 7/30=1/1,2,3,16;
 1/18=20,19=15,26=6,145=903/3(2);
 2/9=110,15=1/2;
 99//99;
 2/9=110,15=1/2;
 3/5=16,11=2,25=1,30=1,70=2205,71=1,72=11,74=-58,75=-5/1,2,3;
 4/5=5,16=3,69=1/1;
 5/5=2,38=5,53=11/2;
 7/30=1/1,2,3,16;
 1/18=20,19=15,26=6,145=903/3(-5);
 2/9=110,15=1/2;
 6/7=2,8=2,9=2,10=2,19=2,28=1/1;
 99/9=1/99;
 Leave Link    1 at Tue Oct 27 23:29:20 2020, MaxMem=  7784628224 cpu:               4.0 elap:               0.4
 (Enter /gpfs/loomis/apps/avx/software/Gaussian/16-C.01_AVX/g16/l101.exe)
 ------------------------------------------------
 NM 2D-scan of HBT TD-WB97XD pVDZ in CTC Relaxed.
 ------------------------------------------------
 Symbolic Z-matrix:
 Charge =  0 Multiplicity = 1
 C                     1.62128  -3.25244  -0.00002 
 C                     1.01048  -1.998    -0.00002 
 C                     1.76101  -0.79619  -0.00002 
 C                     3.14994  -0.86472  -0.00003 
 C                     3.75976  -2.12164  -0.00002 
 C                     3.01373  -3.30363  -0.00002 
 H                     1.02042  -4.16403  -0.00002 
 H                     3.74827   0.0481   -0.00003 
 H                     4.84983  -2.17467  -0.00002 
 H                     3.52066  -4.26962  -0.00002 
 N                     0.94165   0.33577  -0.00002 
 S                    -0.71723  -1.68251  -0.00002 
 C                    -1.37046   1.05215   0.00001 
 C                    -2.71961   0.78892   0.00001 
 C                    -0.86427   2.44945   0.00003 
 C                    -3.65534   1.86558   0.00003 
 H                    -3.09566  -0.23762  -0.00001 
 C                    -1.85809   3.4846    0.00005 
 C                    -3.22629   3.18883   0.00005 
 H                    -4.72197   1.63244   0.00003 
 H                    -1.48758   4.51147   0.00007 
 H                    -3.95934   3.99652   0.00006 
 C                    -0.38174   0.02094  -0.00002 
 O                     0.36554   2.66498   0.00005 
 H                     1.13154   0.95449  -0.00001 
 
 Initializing the GIC definitions file.
 Number of initial coordinates =   134
 Number of input entries/lines =    52
 Number of additional coordinates =     2
 Number of removed coordinates =     0
 Number of frozen coordinates =     2
 Number of final active and frozen coordinates =   136
 ITRead=  0  0  0  0  0  0  0  0  0  0  0  0  0  0  0  0  0  0  0  0
 ITRead=  0  0  0  0  0
 MicOpt= -1 -1 -1 -1 -1 -1 -1 -1 -1 -1 -1 -1 -1 -1 -1 -1 -1 -1 -1 -1
 MicOpt= -1 -1 -1 -1 -1
 NAtoms=     25 NQM=       25 NQMF=       0 NMMI=      0 NMMIF=      0
                NMic=       0 NMicF=      0.
                    Isotopes and Nuclear Properties:
 (Nuclear quadrupole moments (NQMom) in fm**2, nuclear magnetic moments (NMagM)
  in nuclear magnetons)

  Atom         1           2           3           4           5           6           7           8           9          10
 IAtWgt=          12          12          12          12          12          12           1           1           1           1
 AtmWgt=  12.0000000  12.0000000  12.0000000  12.0000000  12.0000000  12.0000000   1.0078250   1.0078250   1.0078250   1.0078250
 NucSpn=           0           0           0           0           0           0           1           1           1           1
 AtZEff=  -0.0000000  -0.0000000  -0.0000000  -0.0000000  -0.0000000  -0.0000000  -0.0000000  -0.0000000  -0.0000000  -0.0000000
 NQMom=    0.0000000   0.0000000   0.0000000   0.0000000   0.0000000   0.0000000   0.0000000   0.0000000   0.0000000   0.0000000
 NMagM=    0.0000000   0.0000000   0.0000000   0.0000000   0.0000000   0.0000000   2.7928460   2.7928460   2.7928460   2.7928460
 AtZNuc=   6.0000000   6.0000000   6.0000000   6.0000000   6.0000000   6.0000000   1.0000000   1.0000000   1.0000000   1.0000000

  Atom        11          12          13          14          15          16          17          18          19          20
 IAtWgt=          14          32          12          12          12          12           1          12          12           1
 AtmWgt=  14.0030740  31.9720718  12.0000000  12.0000000  12.0000000  12.0000000   1.0078250  12.0000000  12.0000000   1.0078250
 NucSpn=           2           0           0           0           0           0           1           0           0           1
 AtZEff=  -0.0000000  -0.0000000  -0.0000000  -0.0000000  -0.0000000  -0.0000000  -0.0000000  -0.0000000  -0.0000000  -0.0000000
 NQMom=    2.0440000   0.0000000   0.0000000   0.0000000   0.0000000   0.0000000   0.0000000   0.0000000   0.0000000   0.0000000
 NMagM=    0.4037610   0.0000000   0.0000000   0.0000000   0.0000000   0.0000000   2.7928460   0.0000000   0.0000000   2.7928460
 AtZNuc=   7.0000000  16.0000000   6.0000000   6.0000000   6.0000000   6.0000000   1.0000000   6.0000000   6.0000000   1.0000000

  Atom        21          22          23          24          25
 IAtWgt=           1           1          12          16           1
 AtmWgt=   1.0078250   1.0078250  12.0000000  15.9949146   1.0078250
 NucSpn=           1           1           0           0           1
 AtZEff=  -0.0000000  -0.0000000  -0.0000000  -0.0000000  -0.0000000
 NQMom=    0.0000000   0.0000000   0.0000000   0.0000000   0.0000000
 NMagM=    2.7928460   2.7928460   0.0000000   0.0000000   2.7928460
 AtZNuc=   1.0000000   1.0000000   6.0000000   8.0000000   1.0000000
 Leave Link  101 at Tue Oct 27 23:29:23 2020, MaxMem=  7784628224 cpu:              32.0 elap:               3.2
 (Enter /gpfs/loomis/apps/avx/software/Gaussian/16-C.01_AVX/g16/l103.exe)

 GradGradGradGradGradGradGradGradGradGradGradGradGradGradGradGradGradGrad
 Berny optimization.
 Initialization pass.
                           ----------------------------
                           !    Initial Parameters    !
                           ! (Angstroms and Degrees)  !
 --------------------------                            --------------------------
 ! Name  Definition              Value          Derivative Info.                !
 --------------------------------------------------------------------------------
 ! R1    R(1,2)                  1.3952         estimate D2E/DX2                !
 ! R2    R(1,6)                  1.3934         estimate D2E/DX2                !
 ! R3    R(1,7)                  1.0918         estimate D2E/DX2                !
 ! R4    R(2,3)                  1.4169         estimate D2E/DX2                !
 ! R5    R(2,12)                 1.7563         estimate D2E/DX2                !
 ! R6    R(3,4)                  1.3906         estimate D2E/DX2                !
 ! R7    R(3,11)                 1.3974         estimate D2E/DX2                !
 ! R8    R(4,5)                  1.397          estimate D2E/DX2                !
 ! R9    R(4,8)                  1.0914         estimate D2E/DX2                !
 ! R10   R(5,6)                  1.3977         estimate D2E/DX2                !
 ! R11   R(5,9)                  1.0914         estimate D2E/DX2                !
 ! R12   R(6,10)                 1.0909         estimate D2E/DX2                !
 ! R13   R(11,23)                1.3603         estimate D2E/DX2                !
 ! R14   R(11,25)                0.6472         estimate D2E/DX2                !
 ! R15   R(12,23)                1.7362         estimate D2E/DX2                !
 ! R16   R(13,14)                1.3746         estimate D2E/DX2                !
 ! R17   R(13,15)                1.4862         estimate D2E/DX2                !
 ! R18   R(13,23)                1.4286         estimate D2E/DX2                !
 ! R19   R(14,16)                1.4265         estimate D2E/DX2                !
 ! R20   R(14,17)                1.0932         estimate D2E/DX2                !
 ! R21   R(15,18)                1.435          estimate D2E/DX2                !
 ! R22   R(15,24)                1.2485         estimate D2E/DX2                !
 ! R23   R(16,19)                1.3911         estimate D2E/DX2                !
 ! R24   R(16,20)                1.0918         estimate D2E/DX2                !
 ! R25   R(18,19)                1.3998         estimate D2E/DX2                !
 ! R26   R(18,21)                1.0917         estimate D2E/DX2                !
 ! R27   R(19,22)                1.0907         estimate D2E/DX2                !
 ! A1    A(2,1,6)              118.0672         estimate D2E/DX2                !
 ! A2    A(2,1,7)              120.6482         estimate D2E/DX2                !
 ! A3    A(6,1,7)              121.2845         estimate D2E/DX2                !
 ! A4    A(1,2,3)              122.0535         estimate D2E/DX2                !
 ! A5    A(1,2,12)             126.3105         estimate D2E/DX2                !
 ! A6    A(3,2,12)             111.636          estimate D2E/DX2                !
 ! A7    A(2,3,4)              119.1596         estimate D2E/DX2                !
 ! A8    A(2,3,11)             112.1167         estimate D2E/DX2                !
 ! A9    A(4,3,11)             128.7237         estimate D2E/DX2                !
 ! A10   A(3,4,5)              118.7062         estimate D2E/DX2                !
 ! A11   A(3,4,8)              120.419          estimate D2E/DX2                !
 ! A12   A(5,4,8)              120.8748         estimate D2E/DX2                !
 ! A13   A(4,5,6)              121.8602         estimate D2E/DX2                !
 ! A14   A(4,5,9)              118.6664         estimate D2E/DX2                !
 ! A15   A(6,5,9)              119.4734         estimate D2E/DX2                !
 ! A16   A(1,6,5)              120.1533         estimate D2E/DX2                !
 ! A17   A(1,6,10)             119.7946         estimate D2E/DX2                !
 ! A18   A(5,6,10)             120.0522         estimate D2E/DX2                !
 ! A19   A(3,11,23)            112.5173         estimate D2E/DX2                !
 ! A20   A(3,11,25)            127.0393         estimate D2E/DX2                !
 ! A21   A(23,11,25)           120.4434         estimate D2E/DX2                !
 ! A22   A(2,12,23)             89.2068         estimate D2E/DX2                !
 ! A23   A(14,13,15)           120.9534         estimate D2E/DX2                !
 ! A24   A(14,13,23)           122.7552         estimate D2E/DX2                !
 ! A25   A(15,13,23)           116.2914         estimate D2E/DX2                !
 ! A26   A(13,14,16)           119.9543         estimate D2E/DX2                !
 ! A27   A(13,14,17)           121.1587         estimate D2E/DX2                !
 ! A28   A(16,14,17)           118.887          estimate D2E/DX2                !
 ! A29   A(13,15,18)           116.2533         estimate D2E/DX2                !
 ! A30   A(13,15,24)           119.8541         estimate D2E/DX2                !
 ! A31   A(18,15,24)           123.8926         estimate D2E/DX2                !
 ! A32   A(14,16,19)           121.0411         estimate D2E/DX2                !
 ! A33   A(14,16,20)           118.6644         estimate D2E/DX2                !
 ! A34   A(19,16,20)           120.2945         estimate D2E/DX2                !
 ! A35   A(15,18,19)           121.6352         estimate D2E/DX2                !
 ! A36   A(15,18,21)           116.327          estimate D2E/DX2                !
 ! A37   A(19,18,21)           122.0378         estimate D2E/DX2                !
 ! A38   A(16,19,18)           120.1628         estimate D2E/DX2                !
 ! A39   A(16,19,22)           119.8088         estimate D2E/DX2                !
 ! A40   A(18,19,22)           120.0284         estimate D2E/DX2                !
 ! A41   A(11,23,12)           114.5232         estimate D2E/DX2                !
 ! A42   A(11,23,13)           120.4137         estimate D2E/DX2                !
 ! A43   A(12,23,13)           125.0631         estimate D2E/DX2                !
 ! D1    D(6,1,2,3)              0.0            estimate D2E/DX2                !
 ! D2    D(6,1,2,12)          -180.0            estimate D2E/DX2                !
 ! D3    D(7,1,2,3)            179.9999         estimate D2E/DX2                !
 ! D4    D(7,1,2,12)            -0.0001         estimate D2E/DX2                !
 ! D5    D(2,1,6,5)             -0.0001         estimate D2E/DX2                !
 ! D6    D(2,1,6,10)           179.9999         estimate D2E/DX2                !
 ! D7    D(7,1,6,5)            180.0            estimate D2E/DX2                !
 ! D8    D(7,1,6,10)             0.0            estimate D2E/DX2                !
 ! D9    D(1,2,3,4)              0.0002         estimate D2E/DX2                !
 ! D10   D(1,2,3,11)          -180.0            estimate D2E/DX2                !
 ! D11   D(12,2,3,4)          -179.9999         estimate D2E/DX2                !
 ! D12   D(12,2,3,11)            0.0            estimate D2E/DX2                !
 ! D13   D(1,2,12,23)          179.9998         estimate D2E/DX2                !
 ! D14   D(3,2,12,23)           -0.0002         estimate D2E/DX2                !
 ! D15   D(2,3,4,5)             -0.0002         estimate D2E/DX2                !
 ! D16   D(2,3,4,8)            179.9999         estimate D2E/DX2                !
 ! D17   D(11,3,4,5)          -180.0            estimate D2E/DX2                !
 ! D18   D(11,3,4,8)             0.0001         estimate D2E/DX2                !
 ! D19   D(2,3,11,23)            0.0003         estimate D2E/DX2                !
 ! D20   D(2,3,11,25)          179.9978         estimate D2E/DX2                !
 ! D21   D(4,3,11,23)         -179.9999         estimate D2E/DX2                !
 ! D22   D(4,3,11,25)           -0.0024         estimate D2E/DX2                !
 ! D23   D(3,4,5,6)              0.0            estimate D2E/DX2                !
 ! D24   D(3,4,5,9)           -179.9999         estimate D2E/DX2                !
 ! D25   D(8,4,5,6)            180.0            estimate D2E/DX2                !
 ! D26   D(8,4,5,9)              0.0            estimate D2E/DX2                !
 ! D27   D(4,5,6,1)              0.0001         estimate D2E/DX2                !
 ! D28   D(4,5,6,10)          -179.9999         estimate D2E/DX2                !
 ! D29   D(9,5,6,1)           -179.9999         estimate D2E/DX2                !
 ! D30   D(9,5,6,10)             0.0            estimate D2E/DX2                !
 ! D31   D(3,11,23,12)          -0.0004         estimate D2E/DX2                !
 ! D32   D(3,11,23,13)         179.9988         estimate D2E/DX2                !
 ! D33   D(25,11,23,12)       -179.9981         estimate D2E/DX2                !
 ! D34   D(25,11,23,13)          0.0011         estimate D2E/DX2                !
 ! D35   D(2,12,23,11)           0.0003         estimate D2E/DX2                !
 ! D36   D(2,12,23,13)        -179.9988         estimate D2E/DX2                !
 ! D37   D(15,13,14,16)          0.0004         estimate D2E/DX2                !
 ! D38   D(15,13,14,17)       -179.9998         estimate D2E/DX2                !
 ! D39   D(23,13,14,16)       -179.9997         estimate D2E/DX2                !
 ! D40   D(23,13,14,17)          0.0001         estimate D2E/DX2                !
 ! D41   D(14,13,15,18)         -0.0006         estimate D2E/DX2                !
 ! D42   D(14,13,15,24)        179.9993         estimate D2E/DX2                !
 ! D43   D(23,13,15,18)        179.9995         estimate D2E/DX2                !
 ! D44   D(23,13,15,24)         -0.0007         estimate D2E/DX2                !
 ! D45   D(14,13,23,11)        179.9997         estimate D2E/DX2                !
 ! D46   D(14,13,23,12)         -0.0011         estimate D2E/DX2                !
 ! D47   D(15,13,23,11)         -0.0003         estimate D2E/DX2                !
 ! D48   D(15,13,23,12)        179.9988         estimate D2E/DX2                !
 ! D49   D(13,14,16,19)         -0.0001         estimate D2E/DX2                !
 ! D50   D(13,14,16,20)        179.9999         estimate D2E/DX2                !
 ! D51   D(17,14,16,19)       -179.9999         estimate D2E/DX2                !
 ! D52   D(17,14,16,20)          0.0001         estimate D2E/DX2                !
 ! D53   D(13,15,18,19)          0.0004         estimate D2E/DX2                !
 ! D54   D(13,15,18,21)        179.9999         estimate D2E/DX2                !
 ! D55   D(24,15,18,19)       -179.9994         estimate D2E/DX2                !
 ! D56   D(24,15,18,21)          0.0001         estimate D2E/DX2                !
 ! D57   D(14,16,19,18)         -0.0001         estimate D2E/DX2                !
 ! D58   D(14,16,19,22)        180.0            estimate D2E/DX2                !
 ! D59   D(20,16,19,18)        179.9999         estimate D2E/DX2                !
 ! D60   D(20,16,19,22)          0.0            estimate D2E/DX2                !
 ! D61   D(15,18,19,16)          0.0            estimate D2E/DX2                !
 ! D62   D(15,18,19,22)        179.9999         estimate D2E/DX2                !
 ! D63   D(21,18,19,16)       -179.9995         estimate D2E/DX2                !
 ! D64   D(21,18,19,22)          0.0004         estimate D2E/DX2                !
 ! Qtot  GIC-1                  60.0            Frozen                          !
 ! Ptot  GIC-2                  60.0            Frozen                          !
 --------------------------------------------------------------------------------
 NOTE: GIC-type coordinates are in arbitrary units.
 Trust Radius=3.00D-01 FncErr=5.00D-06 GrdErr=5.00D-06 EigMax=2.50D+02 EigMin=1.00D-04
 Number of steps in this run=    146 maximum allowed number of steps=    150.
 GradGradGradGradGradGradGradGradGradGradGradGradGradGradGradGradGradGrad

 Leave Link  103 at Tue Oct 27 23:29:23 2020, MaxMem=  7784628224 cpu:               0.2 elap:               0.0
 (Enter /gpfs/loomis/apps/avx/software/Gaussian/16-C.01_AVX/g16/l202.exe)
                          Input orientation:                          
 ---------------------------------------------------------------------
 Center     Atomic      Atomic             Coordinates (Angstroms)
 Number     Number       Type             X           Y           Z
 ---------------------------------------------------------------------
      1          6           0        1.621276   -3.252441   -0.000020
      2          6           0        1.010476   -1.998004   -0.000022
      3          6           0        1.761006   -0.796185   -0.000023
      4          6           0        3.149937   -0.864722   -0.000025
      5          6           0        3.759756   -2.121642   -0.000023
      6          6           0        3.013733   -3.303628   -0.000020
      7          1           0        1.020424   -4.164034   -0.000018
      8          1           0        3.748274    0.048103   -0.000028
      9          1           0        4.849827   -2.174672   -0.000024
     10          1           0        3.520657   -4.269615   -0.000017
     11          7           0        0.941648    0.335766   -0.000025
     12         16           0       -0.717232   -1.682514   -0.000022
     13          6           0       -1.370455    1.052146    0.000007
     14          6           0       -2.719612    0.788922    0.000009
     15          6           0       -0.864265    2.449448    0.000034
     16          6           0       -3.655344    1.865583    0.000028
     17          1           0       -3.095655   -0.237616   -0.000007
     18          6           0       -1.858088    3.484596    0.000049
     19          6           0       -3.226294    3.188830    0.000046
     20          1           0       -4.721966    1.632443    0.000028
     21          1           0       -1.487583    4.511472    0.000070
     22          1           0       -3.959341    3.996521    0.000060
     23          6           0       -0.381737    0.020944   -0.000019
     24          8           0        0.365537    2.664979    0.000046
     25          1           0        1.131542    0.954489   -0.000005
 ---------------------------------------------------------------------
                    Distance matrix (angstroms):
                    1          2          3          4          5
     1  C    0.000000
     2  C    1.395238   0.000000
     3  C    2.460227   1.416920   0.000000
     4  C    2.835138   2.421078   1.390621   0.000000
     5  C    2.419050   2.752058   2.398299   1.397043   0.000000
     6  C    1.393397   2.391170   2.802962   2.442707   1.397727
     7  H    1.091798   2.166053   3.448314   3.926867   3.416914
     8  H    3.926540   3.417907   2.159179   1.091447   2.169776
     9  H    3.403694   3.843414   3.382462   2.146066   1.091361
    10  H    2.154598   3.385444   3.893725   3.425016   2.161240
    11  N    3.652003   2.334784   1.397376   2.513505   3.739062
    12  S    2.816610   1.756277   2.631965   3.952692   4.498472
    13  C    5.242130   3.869399   3.636259   4.910023   6.032578
    14  C    5.930929   4.656234   4.752736   6.098044   7.103069
    15  C    6.220085   4.826436   4.174468   5.205530   6.502033
    16  C    7.350979   6.057820   6.035053   7.332559   8.419126
    17  H    5.598090   4.467581   4.888676   6.276996   7.109586
    18  C    7.582456   6.187694   5.605616   6.633014   7.936629
    19  C    8.061570   6.697273   6.383847   7.555633   8.775307
    20  H    8.006173   6.785354   6.922944   8.258491   9.275384
    21  H    8.363215   6.972344   6.222906   7.100004   8.457705
    22  H    9.148264   7.786745   7.462734   8.612404   9.849689
    23  C    3.837592   2.452429   2.293261   3.641033   4.662900
    24  O    6.049193   4.707372   3.731888   4.495739   5.867918
    25  H    4.235339   2.954973   1.860399   2.717249   4.045997
                    6          7          8          9         10
     6  C    0.000000
     7  H    2.171077   0.000000
     8  H    3.431276   5.018293   0.000000
     9  H    2.155408   4.315309   2.480757   0.000000
    10  H    1.090919   2.502462   4.323714   2.481024   0.000000
    11  N    4.187926   4.500489   2.821329   4.645015   5.278335
    12  S    4.067937   3.029421   4.789131   5.588772   4.965159
    13  C    6.180119   5.738017   5.216272   7.007444   7.228010
    14  C    7.044161   6.206420   6.510173   8.128918   8.033042
    15  C    6.938066   6.876787   5.200190   7.350738   8.023301
    16  C    8.437851   7.630144   7.623437   9.416030   9.441169
    17  H    6.835572   5.688485   6.849890   8.178195   7.748071
    18  C    8.355515   8.172354   6.575772   8.776300   9.437092
    19  C    9.004996   8.491126   7.649101   9.694890  10.057324
    20  H    9.176373   8.159301   8.617139  10.301134  10.137807
    21  H    9.018738   9.030754   6.880106   9.212345  10.108906
    22  H   10.095342   9.559953   8.660099  10.755699  11.148066
    23  C    4.752052   4.413626   4.130100   5.673623   5.799792
    24  O    6.529717   6.860342   4.276791   6.597809   7.618621
    25  H    4.655556   5.119728   2.769263   4.859763   5.744487
                   11         12         13         14         15
    11  N    0.000000
    12  S    2.612534   0.000000
    13  C    2.420542   2.811594   0.000000
    14  C    3.689197   3.180805   1.374594   0.000000
    15  C    2.780104   4.134577   1.486163   2.489911   0.000000
    16  C    4.844861   4.606679   2.425366   1.426462   2.851494
    17  H    4.077816   2.782917   2.154020   1.093248   3.492766
    18  C    4.213508   5.291557   2.480847   2.829997   1.434996
    19  C    5.050912   5.479542   2.830116   2.452811   2.475048
    20  H    5.810154   5.198734   3.401377   2.172774   3.943266
    21  H    4.830910   6.241707   3.461309   3.921132   2.154175
    22  H    6.117256   6.539319   3.920672   3.438839   3.460191
    23  C    1.360316   1.736181   1.428615   2.460782   2.475978
    24  O    2.399404   4.480299   2.369578   3.610780   1.248547
    25  H    0.647208   3.220520   2.503903   3.854711   2.493622
                   16         17         18         19         20
    16  C    0.000000
    17  H    2.176396   0.000000
    18  C    2.418953   3.922555   0.000000
    19  C    1.391067   3.428936   1.399809   0.000000
    20  H    1.091803   2.478308   3.410611   2.158558   0.000000
    21  H    3.420514   5.013954   1.091672   2.184604   4.330131
    22  H    2.152512   4.321327   2.162714   1.090744   2.484041
    23  C    3.757552   2.726207   3.765169   4.257582   4.629742
    24  O    4.099576   4.517180   2.369869   3.629831   5.191225
    25  H    4.872820   4.392074   3.916546   4.897246   5.892637
                   21         22         23         24         25
    21  H    0.000000
    22  H    2.524829   0.000000
    23  C    4.624688   5.348314   0.000000
    24  O    2.616026   4.525215   2.747607   0.000000
    25  H    4.417233   5.930518   1.778066   1.874177   0.000000
 Symmetry turned off by external request.
 Stoichiometry    C13H9NOS
 Framework group  C1[X(C13H9NOS)]
 Deg. of freedom    69
 Full point group                 C1      NOp   1
 Rotational constants (GHZ):           1.4056137           0.2860225           0.2376617
 Leave Link  202 at Tue Oct 27 23:29:23 2020, MaxMem=  7784628224 cpu:               0.3 elap:               0.1
 (Enter /gpfs/loomis/apps/avx/software/Gaussian/16-C.01_AVX/g16/l301.exe)
 Standard basis: CC-pVDZ (5D, 7F)
 Ernie: Thresh=  0.10000D-02 Tol=  0.10000D-05 Strict=F.
 Ernie:  40 primitive shells out of 425 were deleted.
   273 basis functions,   629 primitive gaussians,   289 cartesian basis functions
    59 alpha electrons       59 beta electrons
       nuclear repulsion energy      1103.2465554737 Hartrees.
 IExCor= 4639 DFT=T Ex+Corr=wB97XD ExCW=0 ScaHFX=  1.000000
 ScaDFX=  1.000000  1.000000  1.000000  1.000000 ScalE2=  1.000000  1.000000
 IRadAn=      5 IRanWt=     -1 IRanGd=            0 ICorTp=0 IEmpDi=121
 HFx  wShort=  0.000000 wLong=  0.200000 cFull=  0.222036 cShort=  0.000000 cLong=  0.777964
 DFx  wShort=  0.000000 wLong=  0.200000 cFull=  0.000000 cShort=  0.000000 cLong=  1.000000
 NAtoms=   25 NActive=   25 NUniq=   25 SFac= 1.00D+00 NAtFMM=   60 NAOKFM=F Big=F
 Integral buffers will be    131072 words long.
 Raffenetti 2 integral format.
 Two-electron integral symmetry is turned off.
 R6Disp:  Grimme-D2 Dispersion energy=       -0.0141180188 Hartrees.
 Nuclear repulsion after empirical dispersion term =     1103.2324374548 Hartrees.
 ------------------------------------------------------------------------------
 Polarizable Continuum Model (PCM)
 =================================
 Model                : PCM.
 Atomic radii         : UFF (Universal Force Field).
 Polarization charges : Total charges.
 Charge compensation  : None.
 Solution method      : On-the-fly selection.
 Cavity type          : Scaled VdW (van der Waals Surface) (Alpha=1.100).
 Cavity algorithm     : GePol (No added spheres)
                        Default sphere list used, NSphG=   25.
                        Lebedev-Laikov grids with approx.  5.0 points / Ang**2.
                        Smoothing algorithm: York/Karplus (Gamma=1.0000).
                        Polarization charges: spherical gaussians, with
                                              point-specific exponents (IZeta= 3).
                        Self-potential: point-specific (ISelfS= 7).
                        Self-field    : sphere-specific E.n sum rule (ISelfD= 2).
 1st derivatives      : Analytical E(r).r(x)/FMM algorithm (CHGder, D1EAlg=3).
                        Cavity 1st derivative terms included.
 Solvent              : CarbonTetraChloride, Eps=   2.228000 Eps(inf)=   2.131892
 ------------------------------------------------------------------------------
 GePol: Number of generator spheres                  =      25
 GePol: Total number of spheres                      =      25
 GePol: Number of exposed spheres                    =      25 (100.00%)
 GePol: Number of points                             =    2186
 GePol: Average weight of points                     =       0.12
 GePol: Minimum weight of points                     =   0.20D-11
 GePol: Maximum weight of points                     =    0.20577
 GePol: Number of points with low weight             =     139
 GePol: Fraction of low-weight points (<1% of avg)   =       6.36%
 GePol: Cavity surface area                          =    272.279 Ang**2
 GePol: Cavity volume                                =    291.599 Ang**3
 Leave Link  301 at Tue Oct 27 23:29:23 2020, MaxMem=  7784628224 cpu:               0.5 elap:               0.1
 (Enter /gpfs/loomis/apps/avx/software/Gaussian/16-C.01_AVX/g16/l302.exe)
 NPDir=0 NMtPBC=     1 NCelOv=     1 NCel=       1 NClECP=     1 NCelD=      1
         NCelK=      1 NCelE2=     1 NClLst=     1 CellRange=     0.0.
 One-electron integrals computed using PRISM.
 NBasis=   273 RedAO= T EigKep=  2.99D-04  NBF=   273
 NBsUse=   273 1.00D-06 EigRej= -1.00D+00 NBFU=   273
 Precomputing XC quadrature grid using
 IXCGrd= 4 IRadAn=           5 IRanWt=          -1 IRanGd=           0 AccXCQ= 0.00D+00.
 Generated NRdTot=       0 NPtTot=           0 NUsed=           0 NTot=          32
 NSgBfM=   288   288   288   288   288 MxSgAt=    25 MxSgA2=    25.
 Leave Link  302 at Tue Oct 27 23:29:24 2020, MaxMem=  7784628224 cpu:               4.1 elap:               0.5
 (Enter /gpfs/loomis/apps/avx/software/Gaussian/16-C.01_AVX/g16/l303.exe)
 DipDrv:  MaxL=1.
 Leave Link  303 at Tue Oct 27 23:29:24 2020, MaxMem=  7784628224 cpu:               0.4 elap:               0.1
 (Enter /gpfs/loomis/apps/avx/software/Gaussian/16-C.01_AVX/g16/l401.exe)
 ExpMin= 1.22D-01 ExpMax= 1.11D+05 ExpMxC= 1.07D+03 IAcc=3 IRadAn=         5 AccDes= 0.00D+00
 Harris functional with IExCor= 4639 and IRadAn=       5 diagonalized for initial guess.
 HarFok:  IExCor= 4639 AccDes= 0.00D+00 IRadAn=         5 IDoV= 1 UseB2=F ITyADJ=14
 ICtDFT=  3500011 ScaDFX=  1.000000  1.000000  1.000000  1.000000
 FoFCou: FMM=F IPFlag=           0 FMFlag=      100000 FMFlg1=           0
         NFxFlg=           0 DoJE=T BraDBF=F KetDBF=T FulRan=T
         wScrn=  0.000000 ICntrl=       500 IOpCl=  0 I1Cent=   200000004 NGrid=           0
         NMat0=    1 NMatS0=      1 NMatT0=    0 NMatD0=    1 NMtDS0=    0 NMtDT0=    0
 Symmetry not used in FoFCou.
 Harris En= -994.152703954820    
 JPrj=0 DoOrth=F DoCkMO=F.
 Leave Link  401 at Tue Oct 27 23:29:25 2020, MaxMem=  7784628224 cpu:              13.8 elap:               1.4
 (Enter /gpfs/loomis/apps/avx/software/Gaussian/16-C.01_AVX/g16/l502.exe)
 Two-electron integral symmetry not used.
 Closed shell SCF:
 Using DIIS extrapolation, IDIIS=  1040.
 NGot=  7784628224 LenX=  7784455381 LenY=  7784371419
 Requested convergence on RMS density matrix=1.00D-08 within 128 cycles.
 Requested convergence on MAX density matrix=1.00D-06.
 Requested convergence on             energy=1.00D-06.
 No special actions if energy rises.
 Fock matrices will be formed incrementally for  20 cycles.

 Cycle   1  Pass 1  IDiag  1:
 FoFJK:  IHMeth= 1 ICntrl=       0 DoSepK=T KAlg= 0 I1Cent=           0 FoldK=F
 IRaf=         1 NMat=       1 IRICut=       1 DoRegI=T DoRafI=F ISym2E= 0 IDoP0=0 IntGTp=1.
 FoFCou: FMM=F IPFlag=           0 FMFlag=      100000 FMFlg1=           0
         NFxFlg=           0 DoJE=T BraDBF=F KetDBF=F FulRan=T
         wScrn=  0.000000 ICntrl=       500 IOpCl=  0 I1Cent=           0 NGrid=           0
         NMat0=    1 NMatS0=      1 NMatT0=    0 NMatD0=    1 NMtDS0=    0 NMtDT0=    0
 Symmetry not used in FoFCou.
 Inv3:  Mode=1 IEnd=    14335788.
 Iteration    1 A*A^-1 deviation from unit magnitude is 4.11D-15 for   2181.
 Iteration    1 A*A^-1 deviation from orthogonality  is 2.03D-15 for   2180    132.
 Iteration    1 A^-1*A deviation from unit magnitude is 4.11D-15 for   2181.
 Iteration    1 A^-1*A deviation from orthogonality  is 1.83D-15 for   1114    608.
 E= -1028.25313026672    
 DIIS: error= 4.24D-02 at cycle   1 NSaved=   1.
 NSaved= 1 IEnMin= 1 EnMin= -1028.25313026672     IErMin= 1 ErrMin= 4.24D-02
 ErrMax= 4.24D-02  0.00D+00 EMaxC= 1.00D-01 BMatC= 4.04D-01 BMatP= 4.04D-01
 IDIUse=3 WtCom= 5.76D-01 WtEn= 4.24D-01
 Coeff-Com:  0.100D+01
 Coeff-En:   0.100D+01
 Coeff:      0.100D+01
 Gap=     0.293 Goal=   None    Shift=    0.000
 GapD=    0.293 DampG=1.000 DampE=0.500 DampFc=0.5000 IDamp=-1.
 Damping current iteration by 5.00D-01
 RMSDP=3.76D-03 MaxDP=2.62D-01              OVMax= 2.15D-01

 Cycle   2  Pass 1  IDiag  1:
 RMSU=  1.88D-03    CP:  9.94D-01
 E= -1028.38096705341     Delta-E=       -0.127836786694 Rises=F Damp=T
 DIIS: error= 1.10D-02 at cycle   2 NSaved=   2.
 NSaved= 2 IEnMin= 2 EnMin= -1028.38096705341     IErMin= 2 ErrMin= 1.10D-02
 ErrMax= 1.10D-02  0.00D+00 EMaxC= 1.00D-01 BMatC= 5.82D-02 BMatP= 4.04D-01
 IDIUse=3 WtCom= 8.90D-01 WtEn= 1.10D-01
 Coeff-Com: -0.271D+00 0.127D+01
 Coeff-En:   0.000D+00 0.100D+01
 Coeff:     -0.241D+00 0.124D+01
 Gap=     0.365 Goal=   None    Shift=    0.000
 RMSDP=1.18D-03 MaxDP=3.03D-02 DE=-1.28D-01 OVMax= 1.45D-01

 Cycle   3  Pass 1  IDiag  1:
 RMSU=  1.14D-03    CP:  9.91D-01  1.16D+00
 E= -1028.49801556770     Delta-E=       -0.117048514284 Rises=F Damp=F
 DIIS: error= 5.50D-03 at cycle   3 NSaved=   3.
 NSaved= 3 IEnMin= 3 EnMin= -1028.49801556770     IErMin= 3 ErrMin= 5.50D-03
 ErrMax= 5.50D-03  0.00D+00 EMaxC= 1.00D-01 BMatC= 1.45D-02 BMatP= 5.82D-02
 IDIUse=3 WtCom= 9.45D-01 WtEn= 5.50D-02
 Coeff-Com: -0.194D+00 0.476D+00 0.718D+00
 Coeff-En:   0.000D+00 0.000D+00 0.100D+01
 Coeff:     -0.183D+00 0.450D+00 0.734D+00
 Gap=     0.231 Goal=   None    Shift=    0.000
 RMSDP=5.16D-04 MaxDP=2.20D-02 DE=-1.17D-01 OVMax= 4.64D-02

 Cycle   4  Pass 1  IDiag  1:
 RMSU=  4.10D-04    CP:  9.89D-01  1.31D+00  8.83D-01
 E= -1028.51219253445     Delta-E=       -0.014176966754 Rises=F Damp=F
 DIIS: error= 1.84D-03 at cycle   4 NSaved=   4.
 NSaved= 4 IEnMin= 4 EnMin= -1028.51219253445     IErMin= 4 ErrMin= 1.84D-03
 ErrMax= 1.84D-03  0.00D+00 EMaxC= 1.00D-01 BMatC= 1.69D-03 BMatP= 1.45D-02
 IDIUse=3 WtCom= 9.82D-01 WtEn= 1.84D-02
 Coeff-Com: -0.688D-01 0.136D+00 0.338D+00 0.595D+00
 Coeff-En:   0.000D+00 0.000D+00 0.000D+00 0.100D+01
 Coeff:     -0.675D-01 0.133D+00 0.331D+00 0.603D+00
 Gap=     0.234 Goal=   None    Shift=    0.000
 RMSDP=1.62D-04 MaxDP=8.59D-03 DE=-1.42D-02 OVMax= 1.22D-02

 Cycle   5  Pass 1  IDiag  1:
 RMSU=  1.13D-04    CP:  9.89D-01  1.32D+00  9.47D-01  7.85D-01
 E= -1028.51404103496     Delta-E=       -0.001848500508 Rises=F Damp=F
 DIIS: error= 6.39D-04 at cycle   5 NSaved=   5.
 NSaved= 5 IEnMin= 5 EnMin= -1028.51404103496     IErMin= 5 ErrMin= 6.39D-04
 ErrMax= 6.39D-04  0.00D+00 EMaxC= 1.00D-01 BMatC= 6.34D-05 BMatP= 1.69D-03
 IDIUse=3 WtCom= 9.94D-01 WtEn= 6.39D-03
 Coeff-Com: -0.897D-05-0.637D-02 0.238D-01 0.158D+00 0.824D+00
 Coeff-En:   0.000D+00 0.000D+00 0.000D+00 0.000D+00 0.100D+01
 Coeff:     -0.891D-05-0.633D-02 0.236D-01 0.157D+00 0.826D+00
 Gap=     0.235 Goal=   None    Shift=    0.000
 RMSDP=6.45D-05 MaxDP=2.16D-03 DE=-1.85D-03 OVMax= 7.59D-03

 Cycle   6  Pass 1  IDiag  1:
 RMSU=  4.17D-05    CP:  9.89D-01  1.32D+00  9.65D-01  8.85D-01  1.14D+00
 E= -1028.51419727515     Delta-E=       -0.000156240187 Rises=F Damp=F
 DIIS: error= 2.78D-04 at cycle   6 NSaved=   6.
 NSaved= 6 IEnMin= 6 EnMin= -1028.51419727515     IErMin= 6 ErrMin= 2.78D-04
 ErrMax= 2.78D-04  0.00D+00 EMaxC= 1.00D-01 BMatC= 1.27D-05 BMatP= 6.34D-05
 IDIUse=3 WtCom= 9.97D-01 WtEn= 2.78D-03
 Coeff-Com:  0.176D-01-0.359D-01-0.709D-01-0.871D-01 0.219D+00 0.957D+00
 Coeff-En:   0.000D+00 0.000D+00 0.000D+00 0.000D+00 0.000D+00 0.100D+01
 Coeff:      0.175D-01-0.358D-01-0.708D-01-0.869D-01 0.218D+00 0.957D+00
 Gap=     0.236 Goal=   None    Shift=    0.000
 RMSDP=4.31D-05 MaxDP=2.15D-03 DE=-1.56D-04 OVMax= 5.06D-03

 Cycle   7  Pass 1  IDiag  1:
 RMSU=  2.01D-05    CP:  9.89D-01  1.32D+00  9.79D-01  9.25D-01  1.38D+00
                    CP:  1.35D+00
 E= -1028.51424503783     Delta-E=       -0.000047762687 Rises=F Damp=F
 DIIS: error= 9.04D-05 at cycle   7 NSaved=   7.
 NSaved= 7 IEnMin= 7 EnMin= -1028.51424503783     IErMin= 7 ErrMin= 9.04D-05
 ErrMax= 9.04D-05  0.00D+00 EMaxC= 1.00D-01 BMatC= 2.49D-06 BMatP= 1.27D-05
 IDIUse=1 WtCom= 1.00D+00 WtEn= 0.00D+00
 Coeff-Com:  0.647D-02-0.121D-01-0.275D-01-0.544D-01-0.293D-01 0.359D+00
 Coeff-Com:  0.758D+00
 Coeff:      0.647D-02-0.121D-01-0.275D-01-0.544D-01-0.293D-01 0.359D+00
 Coeff:      0.758D+00
 Gap=     0.236 Goal=   None    Shift=    0.000
 RMSDP=1.58D-05 MaxDP=5.91D-04 DE=-4.78D-05 OVMax= 2.02D-03

 Cycle   8  Pass 1  IDiag  1:
 RMSU=  8.30D-06    CP:  9.89D-01  1.32D+00  9.81D-01  9.34D-01  1.43D+00
                    CP:  1.60D+00  1.19D+00
 E= -1028.51425234202     Delta-E=       -0.000007304190 Rises=F Damp=F
 DIIS: error= 6.37D-05 at cycle   8 NSaved=   8.
 NSaved= 8 IEnMin= 8 EnMin= -1028.51425234202     IErMin= 8 ErrMin= 6.37D-05
 ErrMax= 6.37D-05  0.00D+00 EMaxC= 1.00D-01 BMatC= 4.63D-07 BMatP= 2.49D-06
 IDIUse=1 WtCom= 1.00D+00 WtEn= 0.00D+00
 Coeff-Com: -0.168D-02 0.363D-02 0.762D-02 0.294D-02-0.377D-01-0.112D+00
 Coeff-Com:  0.214D+00 0.923D+00
 Coeff:     -0.168D-02 0.363D-02 0.762D-02 0.294D-02-0.377D-01-0.112D+00
 Coeff:      0.214D+00 0.923D+00
 Gap=     0.236 Goal=   None    Shift=    0.000
 RMSDP=8.33D-06 MaxDP=2.22D-04 DE=-7.30D-06 OVMax= 1.38D-03

 Cycle   9  Pass 1  IDiag  1:
 RMSU=  3.36D-06    CP:  9.89D-01  1.32D+00  9.81D-01  9.34D-01  1.46D+00
                    CP:  1.71D+00  1.45D+00  1.18D+00
 E= -1028.51425424925     Delta-E=       -0.000001907229 Rises=F Damp=F
 DIIS: error= 2.03D-05 at cycle   9 NSaved=   9.
 NSaved= 9 IEnMin= 9 EnMin= -1028.51425424925     IErMin= 9 ErrMin= 2.03D-05
 ErrMax= 2.03D-05  0.00D+00 EMaxC= 1.00D-01 BMatC= 1.38D-07 BMatP= 4.63D-07
 IDIUse=1 WtCom= 1.00D+00 WtEn= 0.00D+00
 Coeff-Com: -0.160D-02 0.316D-02 0.733D-02 0.893D-02-0.102D-01-0.113D+00
 Coeff-Com: -0.445D-01 0.381D+00 0.769D+00
 Coeff:     -0.160D-02 0.316D-02 0.733D-02 0.893D-02-0.102D-01-0.113D+00
 Coeff:     -0.445D-01 0.381D+00 0.769D+00
 Gap=     0.236 Goal=   None    Shift=    0.000
 RMSDP=4.39D-06 MaxDP=1.59D-04 DE=-1.91D-06 OVMax= 5.88D-04

 Cycle  10  Pass 1  IDiag  1:
 RMSU=  1.72D-06    CP:  9.88D-01  1.32D+00  9.81D-01  9.34D-01  1.47D+00
                    CP:  1.76D+00  1.55D+00  1.44D+00  1.14D+00
 E= -1028.51425467462     Delta-E=       -0.000000425365 Rises=F Damp=F
 DIIS: error= 1.38D-05 at cycle  10 NSaved=  10.
 NSaved=10 IEnMin=10 EnMin= -1028.51425467462     IErMin=10 ErrMin= 1.38D-05
 ErrMax= 1.38D-05  0.00D+00 EMaxC= 1.00D-01 BMatC= 2.29D-08 BMatP= 1.38D-07
 IDIUse=1 WtCom= 1.00D+00 WtEn= 0.00D+00
 Coeff-Com:  0.480D-04-0.170D-03 0.101D-03 0.145D-02 0.901D-02-0.114D-01
 Coeff-Com: -0.727D-01-0.872D-01 0.291D+00 0.870D+00
 Coeff:      0.480D-04-0.170D-03 0.101D-03 0.145D-02 0.901D-02-0.114D-01
 Coeff:     -0.727D-01-0.872D-01 0.291D+00 0.870D+00
 Gap=     0.236 Goal=   None    Shift=    0.000
 RMSDP=1.99D-06 MaxDP=5.88D-05 DE=-4.25D-07 OVMax= 3.69D-04

 Cycle  11  Pass 1  IDiag  1:
 RMSU=  6.43D-07    CP:  9.88D-01  1.32D+00  9.81D-01  9.35D-01  1.47D+00
                    CP:  1.78D+00  1.59D+00  1.54D+00  1.45D+00  1.14D+00
 E= -1028.51425476947     Delta-E=       -0.000000094852 Rises=F Damp=F
 DIIS: error= 4.19D-06 at cycle  11 NSaved=  11.
 NSaved=11 IEnMin=11 EnMin= -1028.51425476947     IErMin=11 ErrMin= 4.19D-06
 ErrMax= 4.19D-06  0.00D+00 EMaxC= 1.00D-01 BMatC= 4.84D-09 BMatP= 2.29D-08
 IDIUse=1 WtCom= 1.00D+00 WtEn= 0.00D+00
 Coeff-Com:  0.261D-03-0.537D-03-0.102D-02-0.919D-03 0.528D-02 0.123D-01
 Coeff-Com: -0.186D-01-0.842D-01-0.423D-01 0.301D+00 0.829D+00
 Coeff:      0.261D-03-0.537D-03-0.102D-02-0.919D-03 0.528D-02 0.123D-01
 Coeff:     -0.186D-01-0.842D-01-0.423D-01 0.301D+00 0.829D+00
 Gap=     0.236 Goal=   None    Shift=    0.000
 RMSDP=7.97D-07 MaxDP=2.52D-05 DE=-9.49D-08 OVMax= 1.20D-04

 Cycle  12  Pass 1  IDiag  1:
 RMSU=  2.58D-07    CP:  9.88D-01  1.32D+00  9.81D-01  9.35D-01  1.48D+00
                    CP:  1.79D+00  1.60D+00  1.58D+00  1.55D+00  1.38D+00
                    CP:  1.16D+00
 E= -1028.51425478357     Delta-E=       -0.000000014098 Rises=F Damp=F
 DIIS: error= 1.66D-06 at cycle  12 NSaved=  12.
 NSaved=12 IEnMin=12 EnMin= -1028.51425478357     IErMin=12 ErrMin= 1.66D-06
 ErrMax= 1.66D-06  0.00D+00 EMaxC= 1.00D-01 BMatC= 6.65D-10 BMatP= 4.84D-09
 IDIUse=1 WtCom= 1.00D+00 WtEn= 0.00D+00
 Coeff-Com:  0.118D-03-0.227D-03-0.515D-03-0.905D-03 0.591D-03 0.811D-02
 Coeff-Com:  0.844D-02-0.151D-01-0.860D-01-0.547D-01 0.287D+00 0.853D+00
 Coeff:      0.118D-03-0.227D-03-0.515D-03-0.905D-03 0.591D-03 0.811D-02
 Coeff:      0.844D-02-0.151D-01-0.860D-01-0.547D-01 0.287D+00 0.853D+00
 Gap=     0.236 Goal=   None    Shift=    0.000
 RMSDP=3.25D-07 MaxDP=8.69D-06 DE=-1.41D-08 OVMax= 5.08D-05

 Cycle  13  Pass 1  IDiag  1:
 RMSU=  9.77D-08    CP:  9.88D-01  1.32D+00  9.81D-01  9.35D-01  1.48D+00
                    CP:  1.79D+00  1.60D+00  1.60D+00  1.59D+00  1.47D+00
                    CP:  1.38D+00  1.07D+00
 E= -1028.51425478587     Delta-E=       -0.000000002306 Rises=F Damp=F
 DIIS: error= 6.37D-07 at cycle  13 NSaved=  13.
 NSaved=13 IEnMin=13 EnMin= -1028.51425478587     IErMin=13 ErrMin= 6.37D-07
 ErrMax= 6.37D-07  0.00D+00 EMaxC= 1.00D-01 BMatC= 6.86D-11 BMatP= 6.65D-10
 IDIUse=1 WtCom= 1.00D+00 WtEn= 0.00D+00
 Coeff-Com: -0.921D-05 0.209D-04 0.346D-04-0.701D-04-0.245D-03 0.263D-03
 Coeff-Com:  0.310D-02 0.595D-02-0.124D-01-0.370D-01-0.554D-01 0.182D+00
 Coeff-Com:  0.914D+00
 Coeff:     -0.921D-05 0.209D-04 0.346D-04-0.701D-04-0.245D-03 0.263D-03
 Coeff:      0.310D-02 0.595D-02-0.124D-01-0.370D-01-0.554D-01 0.182D+00
 Coeff:      0.914D+00
 Gap=     0.236 Goal=   None    Shift=    0.000
 RMSDP=8.90D-08 MaxDP=2.22D-06 DE=-2.31D-09 OVMax= 1.04D-05

 Cycle  14  Pass 1  IDiag  1:
 RMSU=  3.52D-08    CP:  9.88D-01  1.32D+00  9.81D-01  9.35D-01  1.48D+00
                    CP:  1.79D+00  1.60D+00  1.60D+00  1.60D+00  1.50D+00
                    CP:  1.43D+00  1.23D+00  1.17D+00
 E= -1028.51425478608     Delta-E=       -0.000000000209 Rises=F Damp=F
 DIIS: error= 1.84D-07 at cycle  14 NSaved=  14.
 NSaved=14 IEnMin=14 EnMin= -1028.51425478608     IErMin=14 ErrMin= 1.84D-07
 ErrMax= 1.84D-07  0.00D+00 EMaxC= 1.00D-01 BMatC= 1.01D-11 BMatP= 6.86D-11
 IDIUse=1 WtCom= 1.00D+00 WtEn= 0.00D+00
 Coeff-Com: -0.146D-04 0.293D-04 0.642D-04 0.615D-04-0.134D-03-0.737D-03
 Coeff-Com:  0.155D-03 0.382D-02 0.410D-02-0.600D-02-0.501D-01-0.280D-01
 Coeff-Com:  0.333D+00 0.743D+00
 Coeff:     -0.146D-04 0.293D-04 0.642D-04 0.615D-04-0.134D-03-0.737D-03
 Coeff:      0.155D-03 0.382D-02 0.410D-02-0.600D-02-0.501D-01-0.280D-01
 Coeff:      0.333D+00 0.743D+00
 Gap=     0.236 Goal=   None    Shift=    0.000
 RMSDP=2.30D-08 MaxDP=5.50D-07 DE=-2.09D-10 OVMax= 2.80D-06

 Cycle  15  Pass 1  IDiag  1:
 RMSU=  1.21D-08    CP:  9.88D-01  1.32D+00  9.81D-01  9.35D-01  1.48D+00
                    CP:  1.79D+00  1.60D+00  1.60D+00  1.60D+00  1.50D+00
                    CP:  1.44D+00  1.26D+00  1.31D+00  1.10D+00
 E= -1028.51425478611     Delta-E=       -0.000000000028 Rises=F Damp=F
 DIIS: error= 7.14D-08 at cycle  15 NSaved=  15.
 NSaved=15 IEnMin=15 EnMin= -1028.51425478611     IErMin=15 ErrMin= 7.14D-08
 ErrMax= 7.14D-08  0.00D+00 EMaxC= 1.00D-01 BMatC= 1.26D-12 BMatP= 1.01D-11
 IDIUse=1 WtCom= 1.00D+00 WtEn= 0.00D+00
 Coeff-Com: -0.218D-05 0.386D-05 0.123D-04 0.325D-04 0.214D-05-0.305D-03
 Coeff-Com: -0.639D-03 0.167D-04 0.370D-02 0.678D-02-0.192D-02-0.511D-01
 Coeff-Com: -0.873D-01 0.169D+00 0.962D+00
 Coeff:     -0.218D-05 0.386D-05 0.123D-04 0.325D-04 0.214D-05-0.305D-03
 Coeff:     -0.639D-03 0.167D-04 0.370D-02 0.678D-02-0.192D-02-0.511D-01
 Coeff:     -0.873D-01 0.169D+00 0.962D+00
 Gap=     0.236 Goal=   None    Shift=    0.000
 RMSDP=1.25D-08 MaxDP=2.96D-07 DE=-2.77D-11 OVMax= 1.41D-06

 Cycle  16  Pass 1  IDiag  1:
 RMSU=  5.10D-09    CP:  9.88D-01  1.32D+00  9.81D-01  9.35D-01  1.48D+00
                    CP:  1.79D+00  1.60D+00  1.60D+00  1.60D+00  1.51D+00
                    CP:  1.45D+00  1.27D+00  1.37D+00  1.29D+00  1.22D+00
 E= -1028.51425478611     Delta-E=        0.000000000000 Rises=F Damp=F
 DIIS: error= 2.53D-08 at cycle  16 NSaved=  16.
 NSaved=16 IEnMin=15 EnMin= -1028.51425478611     IErMin=16 ErrMin= 2.53D-08
 ErrMax= 2.53D-08  0.00D+00 EMaxC= 1.00D-01 BMatC= 1.34D-13 BMatP= 1.26D-12
 IDIUse=1 WtCom= 1.00D+00 WtEn= 0.00D+00
 Coeff-Com:  0.788D-06-0.170D-05-0.250D-05 0.216D-05 0.960D-05-0.117D-04
 Coeff-Com: -0.179D-03-0.332D-03 0.413D-03 0.211D-02 0.426D-02-0.107D-01
 Coeff-Com: -0.469D-01-0.322D-01 0.244D+00 0.840D+00
 Coeff:      0.788D-06-0.170D-05-0.250D-05 0.216D-05 0.960D-05-0.117D-04
 Coeff:     -0.179D-03-0.332D-03 0.413D-03 0.211D-02 0.426D-02-0.107D-01
 Coeff:     -0.469D-01-0.322D-01 0.244D+00 0.840D+00
 Gap=     0.236 Goal=   None    Shift=    0.000
 RMSDP=3.63D-09 MaxDP=1.17D-07 DE= 2.27D-13 OVMax= 4.96D-07

 Error on total polarization charges =  0.00881
 SCF Done:  E(RwB97XD) =  -1028.51425479     A.U. after   16 cycles
            NFock= 16  Conv=0.36D-08     -V/T= 2.0035
 KE= 1.024976607542D+03 PE=-4.618521239803D+03 EE= 1.461797940020D+03
 Leave Link  502 at Tue Oct 27 23:30:54 2020, MaxMem=  7784628224 cpu:             874.3 elap:              88.1
 (Enter /gpfs/loomis/apps/avx/software/Gaussian/16-C.01_AVX/g16/l601.exe)
 Copying SCF densities to generalized density rwf, IOpCl= 0 IROHF=0.

 **********************************************************************

            Population analysis using the SCF Density.

 **********************************************************************

 Alpha  occ. eigenvalues --  -89.10792 -19.20358 -14.50625 -10.41946 -10.37945
 Alpha  occ. eigenvalues --  -10.36530 -10.35429 -10.33555 -10.33177 -10.32733
 Alpha  occ. eigenvalues --  -10.32548 -10.31358 -10.30632 -10.30516 -10.29170
 Alpha  occ. eigenvalues --  -10.28246  -8.12824  -6.07699  -6.07330  -6.06832
 Alpha  occ. eigenvalues --   -1.16557  -1.09382  -1.00065  -0.96725  -0.93688
 Alpha  occ. eigenvalues --   -0.89313  -0.87705  -0.83859  -0.81405  -0.79513
 Alpha  occ. eigenvalues --   -0.75662  -0.72364  -0.69705  -0.67791  -0.65823
 Alpha  occ. eigenvalues --   -0.60903  -0.59803  -0.57215  -0.56420  -0.56279
 Alpha  occ. eigenvalues --   -0.55148  -0.53716  -0.53157  -0.50488  -0.49510
 Alpha  occ. eigenvalues --   -0.48848  -0.48554  -0.47046  -0.45626  -0.44973
 Alpha  occ. eigenvalues --   -0.44058  -0.43082  -0.42699  -0.40073  -0.36843
 Alpha  occ. eigenvalues --   -0.33991  -0.31693  -0.31051  -0.25631
 Alpha virt. eigenvalues --   -0.01983   0.03453   0.05285   0.06041   0.09598
 Alpha virt. eigenvalues --    0.10691   0.13911   0.14683   0.16545   0.17351
 Alpha virt. eigenvalues --    0.18906   0.20023   0.21057   0.21336   0.23216
 Alpha virt. eigenvalues --    0.23589   0.24333   0.25908   0.28131   0.30054
 Alpha virt. eigenvalues --    0.30643   0.34146   0.35570   0.35778   0.36732
 Alpha virt. eigenvalues --    0.37982   0.39530   0.39868   0.41710   0.45150
 Alpha virt. eigenvalues --    0.46858   0.48867   0.50773   0.51290   0.51477
 Alpha virt. eigenvalues --    0.52673   0.52878   0.52967   0.53987   0.55530
 Alpha virt. eigenvalues --    0.56192   0.56465   0.56541   0.57257   0.57672
 Alpha virt. eigenvalues --    0.57891   0.59009   0.59389   0.59726   0.60844
 Alpha virt. eigenvalues --    0.61437   0.61628   0.62811   0.62828   0.63624
 Alpha virt. eigenvalues --    0.64644   0.66978   0.67029   0.68692   0.70087
 Alpha virt. eigenvalues --    0.70276   0.70742   0.71983   0.72331   0.73022
 Alpha virt. eigenvalues --    0.74390   0.75408   0.75917   0.77187   0.78612
 Alpha virt. eigenvalues --    0.78888   0.79810   0.81205   0.81615   0.83622
 Alpha virt. eigenvalues --    0.86170   0.88954   0.91219   0.91906   0.93232
 Alpha virt. eigenvalues --    0.94428   0.94533   0.96368   0.97585   0.98517
 Alpha virt. eigenvalues --    0.99582   1.00368   1.00640   1.00899   1.01176
 Alpha virt. eigenvalues --    1.02716   1.05217   1.06154   1.06308   1.07230
 Alpha virt. eigenvalues --    1.09196   1.09489   1.10167   1.11141   1.11381
 Alpha virt. eigenvalues --    1.12856   1.13266   1.13797   1.14264   1.15670
 Alpha virt. eigenvalues --    1.17459   1.18968   1.20193   1.22880   1.24252
 Alpha virt. eigenvalues --    1.26781   1.27344   1.31303   1.33818   1.34193
 Alpha virt. eigenvalues --    1.34453   1.36675   1.38189   1.41742   1.45184
 Alpha virt. eigenvalues --    1.49397   1.49547   1.53232   1.54730   1.55292
 Alpha virt. eigenvalues --    1.55884   1.57222   1.57406   1.57990   1.59963
 Alpha virt. eigenvalues --    1.60475   1.61775   1.63252   1.65416   1.68006
 Alpha virt. eigenvalues --    1.68763   1.70136   1.71258   1.71886   1.71924
 Alpha virt. eigenvalues --    1.72845   1.73736   1.73796   1.75033   1.76491
 Alpha virt. eigenvalues --    1.78038   1.79186   1.80555   1.81980   1.82348
 Alpha virt. eigenvalues --    1.84490   1.84855   1.85028   1.85416   1.86470
 Alpha virt. eigenvalues --    1.87328   1.90482   1.91488   1.92225   1.92491
 Alpha virt. eigenvalues --    1.94470   1.95459   1.96006   1.96556   1.98615
 Alpha virt. eigenvalues --    2.00801   2.01345   2.02962   2.05351   2.06748
 Alpha virt. eigenvalues --    2.07249   2.08433   2.09808   2.12203   2.14852
 Alpha virt. eigenvalues --    2.17772   2.23095   2.24548   2.25033   2.27202
 Alpha virt. eigenvalues --    2.28060   2.30426   2.35255   2.36914   2.39026
 Alpha virt. eigenvalues --    2.41378   2.43131   2.46511   2.48781   2.50453
 Alpha virt. eigenvalues --    2.52143   2.55097   2.61993   2.67246   2.68887
 Alpha virt. eigenvalues --    2.71529   2.73540   2.75426   2.79243   2.81647
 Alpha virt. eigenvalues --    2.81993   2.82236   2.82889   2.89516   2.94749
 Alpha virt. eigenvalues --    2.95946   3.09991   3.18665   3.34785   3.50828
 Alpha virt. eigenvalues --    3.53845   3.60358   3.69982   5.09300
          Condensed to atoms (all electrons):
               1          2          3          4          5          6
     1  C    4.744074   0.477072   0.016436  -0.054739  -0.010257   0.503610
     2  C    0.477072   5.403696   0.254766  -0.068015  -0.078572   0.000440
     3  C    0.016436   0.254766   4.924931   0.514496  -0.001210  -0.071658
     4  C   -0.054739  -0.068015   0.514496   4.818335   0.510552  -0.012247
     5  C   -0.010257  -0.078572  -0.001210   0.510552   4.734362   0.502084
     6  C    0.503610   0.000440  -0.071658  -0.012247   0.502084   4.734191
     7  H    0.404842  -0.040103   0.009543  -0.000622   0.008138  -0.039113
     8  H   -0.000576   0.010637  -0.024861   0.394800  -0.041198   0.007349
     9  H    0.008662  -0.000338   0.008183  -0.037963   0.405528  -0.043621
    10  H   -0.042923   0.009526  -0.000544   0.008582  -0.042226   0.408005
    11  N    0.003706  -0.044605   0.424048  -0.044723   0.002892   0.000306
    12  S   -0.069661   0.339186  -0.142723   0.002988   0.000021   0.004709
    13  C   -0.000259  -0.000786   0.015039   0.000044   0.000018  -0.000002
    14  C   -0.000008   0.000039   0.000417   0.000009  -0.000000  -0.000000
    15  C    0.000005  -0.000254   0.000509   0.000005  -0.000001   0.000000
    16  C    0.000000  -0.000004   0.000003  -0.000000   0.000000   0.000000
    17  H   -0.000007   0.000145  -0.000001   0.000000   0.000000   0.000000
    18  C    0.000000   0.000011  -0.000045  -0.000001  -0.000000  -0.000000
    19  C   -0.000000  -0.000000   0.000003  -0.000000  -0.000000   0.000000
    20  H   -0.000000  -0.000000  -0.000000   0.000000   0.000000  -0.000000
    21  H   -0.000000   0.000000  -0.000002  -0.000000  -0.000000   0.000000
    22  H    0.000000  -0.000000  -0.000000  -0.000000   0.000000  -0.000000
    23  C    0.003623  -0.059680  -0.085860   0.006419   0.000530  -0.000500
    24  O    0.000001  -0.000187  -0.001187   0.000109   0.000001  -0.000000
    25  H    0.000227   0.029297  -0.023105  -0.032441  -0.001049   0.000014
               7          8          9         10         11         12
     1  C    0.404842  -0.000576   0.008662  -0.042923   0.003706  -0.069661
     2  C   -0.040103   0.010637  -0.000338   0.009526  -0.044605   0.339186
     3  C    0.009543  -0.024861   0.008183  -0.000544   0.424048  -0.142723
     4  C   -0.000622   0.394800  -0.037963   0.008582  -0.044723   0.002988
     5  C    0.008138  -0.041198   0.405528  -0.042226   0.002892   0.000021
     6  C   -0.039113   0.007349  -0.043621   0.408005   0.000306   0.004709
     7  H    0.648578   0.000027  -0.000147  -0.011371  -0.000101  -0.007662
     8  H    0.000027   0.636896  -0.011785  -0.000111  -0.006460  -0.000253
     9  H   -0.000147  -0.011785   0.654809  -0.012183  -0.000087   0.000021
    10  H   -0.011371  -0.000111  -0.012183   0.655396   0.000006  -0.000140
    11  N   -0.000101  -0.006460  -0.000087   0.000006   5.618041  -0.042098
    12  S   -0.007662  -0.000253   0.000021  -0.000140  -0.042098  15.459506
    13  C    0.000003   0.000053  -0.000000  -0.000000  -0.014282  -0.076444
    14  C    0.000001   0.000001   0.000000  -0.000000   0.003998  -0.007961
    15  C   -0.000000  -0.000014   0.000000   0.000000  -0.009007   0.004444
    16  C    0.000000  -0.000000  -0.000000  -0.000000  -0.000077   0.000169
    17  H    0.000001   0.000000   0.000000  -0.000000   0.000262   0.007195
    18  C    0.000000  -0.000000   0.000000  -0.000000  -0.000649  -0.000118
    19  C   -0.000000   0.000000  -0.000000   0.000000   0.000014   0.000013
    20  H    0.000000  -0.000000   0.000000   0.000000   0.000001   0.000003
    21  H   -0.000000   0.000000  -0.000000   0.000000  -0.000002   0.000003
    22  H    0.000000  -0.000000  -0.000000  -0.000000  -0.000000  -0.000000
    23  C    0.000262  -0.000630   0.000006   0.000004   0.487776   0.297076
    24  O    0.000000  -0.000148   0.000000  -0.000000  -0.011736   0.000046
    25  H    0.000011   0.000932  -0.000020   0.000000   0.317465   0.012988
              13         14         15         16         17         18
     1  C   -0.000259  -0.000008   0.000005   0.000000  -0.000007   0.000000
     2  C   -0.000786   0.000039  -0.000254  -0.000004   0.000145   0.000011
     3  C    0.015039   0.000417   0.000509   0.000003  -0.000001  -0.000045
     4  C    0.000044   0.000009   0.000005  -0.000000   0.000000  -0.000001
     5  C    0.000018  -0.000000  -0.000001   0.000000   0.000000  -0.000000
     6  C   -0.000002  -0.000000   0.000000   0.000000   0.000000  -0.000000
     7  H    0.000003   0.000001  -0.000000   0.000000   0.000001   0.000000
     8  H    0.000053   0.000001  -0.000014  -0.000000   0.000000  -0.000000
     9  H   -0.000000   0.000000   0.000000  -0.000000   0.000000   0.000000
    10  H   -0.000000  -0.000000   0.000000  -0.000000  -0.000000  -0.000000
    11  N   -0.014282   0.003998  -0.009007  -0.000077   0.000262  -0.000649
    12  S   -0.076444  -0.007961   0.004444   0.000169   0.007195  -0.000118
    13  C    5.542706   0.418372   0.152680  -0.003300  -0.043332  -0.041881
    14  C    0.418372   4.881640   0.012350   0.537214   0.400197  -0.067464
    15  C    0.152680   0.012350   4.719941  -0.054723   0.005882   0.438215
    16  C   -0.003300   0.537214  -0.054723   4.768326  -0.031076  -0.015568
    17  H   -0.043332   0.400197   0.005882  -0.031076   0.679688  -0.001058
    18  C   -0.041881  -0.067464   0.438215  -0.015568  -0.001058   4.958822
    19  C   -0.053668  -0.016627   0.000363   0.472753   0.008407   0.485719
    20  H    0.009241  -0.036889  -0.000147   0.399889  -0.011937   0.008426
    21  H    0.016212  -0.000573  -0.024990   0.007731   0.000057   0.370492
    22  H   -0.001822   0.009873   0.008398  -0.046797  -0.000208  -0.039279
    23  C    0.339332  -0.101920  -0.068584   0.006268  -0.021356   0.012912
    24  O   -0.107963   0.006544   0.708998  -0.000240  -0.000077  -0.071404
    25  H   -0.066730  -0.000974  -0.003702   0.000074  -0.000110   0.003613
              19         20         21         22         23         24
     1  C   -0.000000  -0.000000  -0.000000   0.000000   0.003623   0.000001
     2  C   -0.000000  -0.000000   0.000000  -0.000000  -0.059680  -0.000187
     3  C    0.000003  -0.000000  -0.000002  -0.000000  -0.085860  -0.001187
     4  C   -0.000000   0.000000  -0.000000  -0.000000   0.006419   0.000109
     5  C   -0.000000   0.000000  -0.000000   0.000000   0.000530   0.000001
     6  C    0.000000  -0.000000   0.000000  -0.000000  -0.000500  -0.000000
     7  H   -0.000000   0.000000  -0.000000   0.000000   0.000262   0.000000
     8  H    0.000000  -0.000000   0.000000  -0.000000  -0.000630  -0.000148
     9  H   -0.000000   0.000000  -0.000000  -0.000000   0.000006   0.000000
    10  H    0.000000   0.000000   0.000000  -0.000000   0.000004  -0.000000
    11  N    0.000014   0.000001  -0.000002  -0.000000   0.487776  -0.011736
    12  S    0.000013   0.000003   0.000003  -0.000000   0.297076   0.000046
    13  C   -0.053668   0.009241   0.016212  -0.001822   0.339332  -0.107963
    14  C   -0.016627  -0.036889  -0.000573   0.009873  -0.101920   0.006544
    15  C    0.000363  -0.000147  -0.024990   0.008398  -0.068584   0.708998
    16  C    0.472753   0.399889   0.007731  -0.046797   0.006268  -0.000240
    17  H    0.008407  -0.011937   0.000057  -0.000208  -0.021356  -0.000077
    18  C    0.485719   0.008426   0.370492  -0.039279   0.012912  -0.071404
    19  C    4.754683  -0.047232  -0.047471   0.402686   0.000065   0.004951
    20  H   -0.047232   0.691043  -0.000167  -0.012776  -0.000405   0.000000
    21  H   -0.047471  -0.000167   0.686902  -0.013021  -0.000514   0.005674
    22  H    0.402686  -0.012776  -0.013021   0.679812   0.000011  -0.000077
    23  C    0.000065  -0.000405  -0.000514   0.000011   5.158331  -0.017286
    24  O    0.004951   0.000000   0.005674  -0.000077  -0.017286   7.799496
    25  H   -0.000305  -0.000000  -0.000003   0.000003   0.019601   0.062590
              25
     1  C    0.000227
     2  C    0.029297
     3  C   -0.023105
     4  C   -0.032441
     5  C   -0.001049
     6  C    0.000014
     7  H    0.000011
     8  H    0.000932
     9  H   -0.000020
    10  H    0.000000
    11  N    0.317465
    12  S    0.012988
    13  C   -0.066730
    14  C   -0.000974
    15  C   -0.003702
    16  C    0.000074
    17  H   -0.000110
    18  C    0.003613
    19  C   -0.000305
    20  H   -0.000000
    21  H   -0.000003
    22  H    0.000003
    23  C    0.019601
    24  O    0.062590
    25  H    0.923529
 Mulliken charges:
               1
     1  C    0.016172
     2  C   -0.232271
     3  C    0.182822
     4  C   -0.005587
     5  C    0.010387
     6  C    0.006433
     7  H    0.027713
     8  H    0.035341
     9  H    0.028934
    10  H    0.027977
    11  N    0.315313
    12  S    0.218693
    13  C   -0.083232
    14  C   -0.038241
    15  C    0.109633
    16  C   -0.040644
    17  H    0.007327
    18  C   -0.040743
    19  C    0.035644
    20  H    0.000949
    21  H   -0.000330
    22  H    0.013197
    23  C    0.024519
    24  O   -0.378103
    25  H   -0.241903
 Sum of Mulliken charges =  -0.00000
 Mulliken charges with hydrogens summed into heavy atoms:
               1
     1  C    0.043885
     2  C   -0.232271
     3  C    0.182822
     4  C    0.029754
     5  C    0.039321
     6  C    0.034410
    11  N    0.073410
    12  S    0.218693
    13  C   -0.083232
    14  C   -0.030913
    15  C    0.109633
    16  C   -0.039694
    18  C   -0.041072
    19  C    0.048841
    23  C    0.024519
    24  O   -0.378103
 Electronic spatial extent (au):  <R**2>=           4328.8902
 Charge=             -0.0000 electrons
 Dipole moment (field-independent basis, Debye):
    X=              1.8380    Y=             -6.1650    Z=             -0.0001  Tot=              6.4331
 Quadrupole moment (field-independent basis, Debye-Ang):
   XX=            -82.1354   YY=            -95.0075   ZZ=           -103.7157
   XY=             -6.6870   XZ=             -0.0001   YZ=             -0.0001
 Traceless Quadrupole moment (field-independent basis, Debye-Ang):
   XX=             11.4842   YY=             -1.3880   ZZ=            -10.0962
   XY=             -6.6870   XZ=             -0.0001   YZ=             -0.0001
 Octapole moment (field-independent basis, Debye-Ang**2):
  XXX=             40.1498  YYY=            -62.8371  ZZZ=             -0.0001  XYY=              3.8318
  XXY=            -11.2343  XXZ=             -0.0001  XZZ=              2.9171  YZZ=              2.2111
  YYZ=             -0.0002  XYZ=             -0.0005
 Hexadecapole moment (field-independent basis, Debye-Ang**3):
 XXXX=          -2601.3990 YYYY=          -2655.2132 ZZZZ=           -112.5571 XXXY=            816.5883
 XXXZ=              0.0098 YYYX=            779.7437 YYYZ=             -0.0144 ZZZX=              0.0137
 ZZZY=             -0.0177 XXYY=           -847.6418 XXZZ=           -572.1575 YYZZ=           -544.4916
 XXYZ=             -0.0038 YYXZ=              0.0016 ZZXY=            359.6298
 N-N= 1.103232437455D+03 E-N=-4.618521240252D+03  KE= 1.024976607542D+03
 No NMR shielding tensors so no spin-rotation constants.
 Leave Link  601 at Tue Oct 27 23:30:54 2020, MaxMem=  7784628224 cpu:               2.4 elap:               0.3
 (Enter /gpfs/loomis/apps/avx/software/Gaussian/16-C.01_AVX/g16/l701.exe)
 ... and contract with generalized density number  0.
 Compute integral first derivatives.
 R6Disp: Adding Grimme-D2 dispersion energy 1st derivatives to the gradient.
 D1PCM: PCM CHGder 1st derivatives, ID1Alg=3 FixD1E=F DoIter=F DoCFld=F I1PDM=0.
 GePol: Maximum number of non-zero 1st derivatives   =     260
 Leave Link  701 at Tue Oct 27 23:30:57 2020, MaxMem=  7784628224 cpu:              24.1 elap:               2.7
 (Enter /gpfs/loomis/apps/avx/software/Gaussian/16-C.01_AVX/g16/l702.exe)
 L702 exits ... SP integral derivatives will be done elsewhere.
 Leave Link  702 at Tue Oct 27 23:30:57 2020, MaxMem=  7784628224 cpu:               0.2 elap:               0.0
 (Enter /gpfs/loomis/apps/avx/software/Gaussian/16-C.01_AVX/g16/l703.exe)
 Integral derivatives from FoFJK, PRISM(SPDF).
 Compute integral first derivatives, UseDBF=F ICtDFT=           0.
 Calling FoFJK, ICntrl=      2127 FMM=F ISym2X=0 I1Cent= 0 IOpClX= 0 NMat=1 NMatS=1 NMatT=0.
 FoFJK:  IHMeth= 1 ICntrl=    2127 DoSepK=T KAlg= 0 I1Cent=           0 FoldK=F
 IRaf=         1 NMat=       1 IRICut=       1 DoRegI=T DoRafI=F ISym2E= 0 IDoP0=0 IntGTp=1.
 FoFCou: FMM=F IPFlag=           0 FMFlag=      100000 FMFlg1=         800
         NFxFlg=           0 DoJE=F BraDBF=F KetDBF=F FulRan=T
         wScrn=  0.000000 ICntrl=      2527 IOpCl=  0 I1Cent=           0 NGrid=           0
         NMat0=    1 NMatS0=      1 NMatT0=    0 NMatD0=    1 NMtDS0=    0 NMtDT0=    0
 Symmetry not used in FoFCou.
 Leave Link  703 at Tue Oct 27 23:31:10 2020, MaxMem=  7784628224 cpu:             136.5 elap:              13.7
 (Enter /gpfs/loomis/apps/avx/software/Gaussian/16-C.01_AVX/g16/l716.exe)
 Dipole        = 7.23110044D-01-2.42548694D+00-3.57676845D-05
 -------------------------------------------------------------------
 Center     Atomic                   Forces (Hartrees/Bohr)
 Number     Number              X              Y              Z
 -------------------------------------------------------------------
      1        6          -0.000225315    0.003797853   -0.000000018
      2        6           0.009080031    0.000824734   -0.000000185
      3        6          -0.008771467   -0.009025267   -0.000000460
      4        6           0.003440476    0.001658050    0.000000142
      5        6           0.001196325    0.003188911    0.000000042
      6        6          -0.001358448    0.001456152   -0.000000060
      7        1           0.000713563    0.000826849   -0.000000047
      8        1          -0.000265420   -0.000731245    0.000000011
      9        1          -0.000400342    0.000107154   -0.000000003
     10        1          -0.000150155    0.000438395   -0.000000004
     11        7          -0.376723498   -1.225162796   -0.000035816
     12       16           0.006500685    0.005635205   -0.000000320
     13        6           0.041113682    0.003186882   -0.000000576
     14        6          -0.058503735    0.027858034    0.000000318
     15        6           0.000932499   -0.014020165   -0.000000093
     16        6           0.009500524   -0.052272790   -0.000000809
     17        1          -0.000879412    0.000111325    0.000000008
     18        6          -0.023022447    0.000685921    0.000000439
     19        6           0.035907205    0.015661256    0.000000202
     20        1           0.000681102   -0.000131797    0.000000002
     21        1          -0.001094856    0.000075218   -0.000000225
     22        1          -0.000146606    0.001181681    0.000000027
     23        6          -0.008038618    0.036702403    0.000001365
     24        8           0.001425076    0.014097243   -0.000000093
     25        1           0.369089150    1.183850794    0.000036155
 -------------------------------------------------------------------
 Cartesian Forces:  Max     1.225162796 RMS     0.206353650
 Leave Link  716 at Tue Oct 27 23:31:10 2020, MaxMem=  7784628224 cpu:               0.3 elap:               0.1
 (Enter /gpfs/loomis/apps/avx/software/Gaussian/16-C.01_AVX/g16/l103.exe)

 GradGradGradGradGradGradGradGradGradGradGradGradGradGradGradGradGradGrad
 Berny optimization.
 FormGI is forming the generalized inverse of G from B-inverse, IUseBI=4.
 Internal  Forces:  Max     0.900829973 RMS     0.090773484
 Search for a local minimum.
 Step number   1 out of a maximum of  146
 All quantities printed in internal units (Hartrees-Bohrs-Radians)
 RMS Force = .91444D-01 SwitMx=.10000D-02 MixMth= 1
 Mixed Optimization -- RFO/linear search
 Second derivative matrix not updated -- first step.
 ITU=  0
     Eigenvalues ---    0.01265   0.01459   0.01560   0.01710   0.01721
     Eigenvalues ---    0.01748   0.01841   0.01864   0.01914   0.01934
     Eigenvalues ---    0.01938   0.02001   0.02026   0.02054   0.02123
     Eigenvalues ---    0.02138   0.02146   0.02150   0.02165   0.02168
     Eigenvalues ---    0.02175   0.02187   0.16000   0.16000   0.16000
     Eigenvalues ---    0.16000   0.16000   0.16000   0.16000   0.16003
     Eigenvalues ---    0.17383   0.22005   0.22011   0.22537   0.22590
     Eigenvalues ---    0.24391   0.24480   0.24605   0.25000   0.25000
     Eigenvalues ---    0.29232   0.29870   0.32714   0.34440   0.34604
     Eigenvalues ---    0.34605   0.34620   0.34646   0.34656   0.34707
     Eigenvalues ---    0.34726   0.36014   0.38309   0.40342   0.41135
     Eigenvalues ---    0.41972   0.43612   0.44078   0.44221   0.45934
     Eigenvalues ---    0.46214   0.46348   0.47009   0.48950   0.50507
     Eigenvalues ---    0.80244   2.003731000.000001000.000001000.00000
     Eigenvalues --- 1000.000001000.000001000.000001000.000001000.00000
     Eigenvalues --- 1000.000001000.000001000.000001000.000001000.00000
     Eigenvalues --- 1000.000001000.000001000.000001000.000001000.00000
     Eigenvalues --- 1000.000001000.000001000.000001000.000001000.00000
     Eigenvalues --- 1000.000001000.000001000.000001000.000001000.00000
     Eigenvalues --- 1000.000001000.000001000.000001000.000001000.00000
     Eigenvalues --- 1000.000001000.000001000.000001000.000001000.00000
     Eigenvalues --- 1000.000001000.000001000.000001000.000001000.00000
     Eigenvalues --- 1000.000001000.000001000.000001000.000001000.00000
     Eigenvalues --- 1000.000001000.000001000.000001000.000001000.00000
     Eigenvalues --- 1000.000001000.000001000.000001000.000001000.00000
     Eigenvalues --- 1000.000001000.000001000.000001000.000001000.00000
     Eigenvalues --- 1000.000001000.000001000.000001000.000001000.00000
     Eigenvalues --- 1000.00000
 RFO step:  Lambda=-4.64024054D-01 EMin= 1.26541522D-02
 Linear search not attempted -- first point.
 Maximum step size (   0.300) exceeded in Quadratic search.
    -- Step size scaled by   0.671
 Iteration  1 RMS(Cart)=  0.02361406 RMS(Int)=  0.00361008
 Iteration  2 RMS(Cart)=  0.00370634 RMS(Int)=  0.00074310
 Iteration  3 RMS(Cart)=  0.00002598 RMS(Int)=  0.00090755
 Iteration  4 RMS(Cart)=  0.00000008 RMS(Int)=  0.00090790
 Iteration  1 RMS(Cart)=  0.00001683 RMS(Int)=  0.00001627
 Iteration  2 RMS(Cart)=  0.00000030 RMS(Int)=  0.00000935
 ITry= 1 IFail=0 DXMaxC= 1.48D-01 DCOld= 1.00D+10 DXMaxT= 3.00D-01 DXLimC= 3.00D+00 Rises=F
 Variable       Old X    -DE/DX   Delta X   Delta X   Delta X     New X
                                 (Linear)    (Quad)   (Total)
    R1        2.63662  -0.04419   0.00000  -0.01214  -0.01181   2.62480
    R2        2.63314  -0.01070   0.00000  -0.00104  -0.00097   2.63217
    R3        2.06320  -0.00498   0.00000  -0.00192  -0.00188   2.06132
    R4        2.67759  -0.15855   0.00000  -0.04792  -0.04674   2.63085
    R5        3.31888   0.05606   0.00000   0.01913   0.01852   3.33740
    R6        2.62789   0.01035   0.00000   0.00228   0.00222   2.63011
    R7        2.64066  -0.03347   0.00000  -0.01419  -0.01394   2.62671
    R8        2.64003   0.01971   0.00000   0.00172   0.00155   2.64158
    R9        2.06254   0.00014   0.00000  -0.00038  -0.00039   2.06214
   R10        2.64132  -0.03752   0.00000  -0.00773  -0.00736   2.63396
   R11        2.06237  -0.00108   0.00000  -0.00050  -0.00050   2.06188
   R12        2.06154  -0.00103   0.00000  -0.00054  -0.00053   2.06100
   R13        2.57063   0.05763   0.00000   0.00555   0.00497   2.57559
   R14        1.22305   0.90083   0.00000   0.24660   0.24956   1.47261
   R15        3.28091  -0.16457   0.00000  -0.04003  -0.03847   3.24244
   R16        2.59761  -0.02442   0.00000   0.01238   0.01295   2.61056
   R17        2.80844  -0.08690   0.00000  -0.02128  -0.02043   2.78801
   R18        2.69969   0.07407   0.00000   0.01441   0.01368   2.71338
   R19        2.69562   0.03827   0.00000  -0.01289  -0.01362   2.68200
   R20        2.06594  -0.00101   0.00000  -0.00017  -0.00016   2.06578
   R21        2.71175   0.10418   0.00000   0.02611   0.02517   2.73692
   R22        2.35941  -0.13138   0.00000  -0.01966  -0.01846   2.34095
   R23        2.62874  -0.02985   0.00000   0.00303   0.00347   2.63220
   R24        2.06321   0.00119   0.00000  -0.00007  -0.00009   2.06312
   R25        2.64526   0.03730   0.00000  -0.00304  -0.00362   2.64163
   R26        2.06296  -0.00134   0.00000  -0.00050  -0.00049   2.06247
   R27        2.06121   0.00413   0.00000   0.00163   0.00160   2.06281
    A1        2.06066   0.02800   0.00000   0.00733   0.00699   2.06765
    A2        2.10571  -0.02149   0.00000  -0.00596  -0.00573   2.09998
    A3        2.11681  -0.00651   0.00000  -0.00136  -0.00126   2.11555
    A4        2.13023  -0.00971   0.00000  -0.00649  -0.00633   2.12390
    A5        2.20453  -0.02255   0.00000   0.00347   0.00389   2.20843
    A6        1.94842   0.03225   0.00000   0.00301   0.00244   1.95086
    A7        2.07973   0.03773   0.00000   0.01658   0.01630   2.09602
    A8        1.95681  -0.11624   0.00000  -0.03520  -0.03430   1.92250
    A9        2.24665   0.07850   0.00000   0.01862   0.01801   2.26466
   A10        2.07181  -0.02079   0.00000  -0.00742  -0.00725   2.06457
   A11        2.10171   0.01590   0.00000   0.00558   0.00545   2.10716
   A12        2.10966   0.00489   0.00000   0.00184   0.00180   2.11146
   A13        2.12686  -0.02094   0.00000  -0.00769  -0.00750   2.11936
   A14        2.07112   0.01224   0.00000   0.00425   0.00415   2.07527
   A15        2.08520   0.00870   0.00000   0.00344   0.00335   2.08856
   A16        2.09707  -0.01430   0.00000  -0.00231  -0.00220   2.09487
   A17        2.09081   0.00590   0.00000   0.00090   0.00086   2.09167
   A18        2.09531   0.00840   0.00000   0.00140   0.00134   2.09665
   A19        1.96380   0.17916   0.00000   0.06704   0.06576   2.02955
   A20        2.21725  -0.23136   0.00000  -0.08346  -0.08118   2.13608
   A21        2.10213   0.05220   0.00000   0.01643   0.01542   2.11756
   A22        1.55695   0.06104   0.00000   0.02443   0.02386   1.58081
   A23        2.11104   0.02173   0.00000   0.00302   0.00280   2.11384
   A24        2.14248   0.02597   0.00000   0.00366   0.00331   2.14579
   A25        2.02967  -0.04770   0.00000  -0.00668  -0.00611   2.02356
   A26        2.09360   0.02896   0.00000   0.01085   0.01065   2.10425
   A27        2.11462  -0.01727   0.00000  -0.00560  -0.00547   2.10915
   A28        2.07497  -0.01169   0.00000  -0.00525  -0.00518   2.06979
   A29        2.02900  -0.03185   0.00000  -0.01241  -0.01215   2.01685
   A30        2.09185  -0.11852   0.00000  -0.02332  -0.02204   2.06980
   A31        2.16233   0.15037   0.00000   0.03573   0.03420   2.19653
   A32        2.11257  -0.01472   0.00000  -0.00812  -0.00804   2.10452
   A33        2.07108   0.00743   0.00000   0.00398   0.00395   2.07503
   A34        2.09954   0.00729   0.00000   0.00414   0.00410   2.10363
   A35        2.12293   0.01774   0.00000   0.00741   0.00725   2.13018
   A36        2.03029  -0.00353   0.00000  -0.00120  -0.00116   2.02913
   A37        2.12996  -0.01421   0.00000  -0.00621  -0.00608   2.12388
   A38        2.09724  -0.02187   0.00000  -0.00075  -0.00051   2.09673
   A39        2.09106   0.00435   0.00000  -0.00120  -0.00124   2.08982
   A40        2.09489   0.01751   0.00000   0.00194   0.00175   2.09664
   A41        1.99881  -0.15621   0.00000  -0.05929  -0.05776   1.94105
   A42        2.10161   0.10346   0.00000   0.03926   0.03830   2.13992
   A43        2.18276   0.05275   0.00000   0.02003   0.01946   2.20222
    D1       -0.00000   0.00000   0.00000   0.00000   0.00000  -0.00000
    D2       -3.14159  -0.00000   0.00000  -0.00000  -0.00000  -3.14159
    D3        3.14159   0.00000   0.00000   0.00000   0.00000   3.14159
    D4       -0.00000  -0.00000   0.00000  -0.00000  -0.00000  -0.00000
    D5       -0.00000  -0.00000   0.00000  -0.00000  -0.00000  -0.00000
    D6        3.14159  -0.00000   0.00000  -0.00000  -0.00000   3.14159
    D7        3.14159  -0.00000   0.00000  -0.00000  -0.00000   3.14159
    D8        0.00000  -0.00000   0.00000  -0.00000  -0.00000   0.00000
    D9        0.00000   0.00000   0.00000   0.00000   0.00000   0.00000
   D10       -3.14159  -0.00000   0.00000  -0.00000  -0.00000   3.14159
   D11       -3.14159   0.00000   0.00000   0.00000   0.00000  -3.14159
   D12       -0.00000   0.00000   0.00000   0.00000   0.00000  -0.00000
   D13        3.14159  -0.00000   0.00000  -0.00000  -0.00000   3.14159
   D14       -0.00000  -0.00000   0.00000  -0.00000  -0.00000  -0.00000
   D15       -0.00000  -0.00000   0.00000  -0.00000  -0.00000  -0.00000
   D16        3.14159  -0.00000   0.00000  -0.00000  -0.00000   3.14159
   D17       -3.14159   0.00000   0.00000   0.00000   0.00000  -3.14159
   D18        0.00000   0.00000   0.00000   0.00000   0.00000   0.00000
   D19        0.00001   0.00000   0.00000   0.00000   0.00000   0.00001
   D20        3.14155   0.00001   0.00000   0.00000   0.00000   3.14156
   D21       -3.14159   0.00000   0.00000   0.00000   0.00000  -3.14159
   D22       -0.00004   0.00000   0.00000   0.00000   0.00000  -0.00004
   D23        0.00000   0.00000   0.00000   0.00000   0.00000   0.00000
   D24       -3.14159   0.00000   0.00000   0.00000   0.00000  -3.14159
   D25        3.14159   0.00000   0.00000   0.00000   0.00000  -3.14159
   D26        0.00000   0.00000   0.00000   0.00000   0.00000   0.00000
   D27        0.00000   0.00000   0.00000  -0.00000  -0.00000   0.00000
   D28       -3.14159  -0.00000   0.00000  -0.00000  -0.00000  -3.14159
[...]
 0116,0.10809176,-0.27283353,-0.00001280,0.02766263,-0.04132457,-0.0000
 0312,-0.01463967,0.66646647,-0.00000016,0.00000019,0.00004458,0.000000
 27,-0.00000012,0.00043002,0.00000005,-0.00000003,-0.00056021,-0.000000
 18,0.00000006,-0.00010482,0.,-0.00000024,0.00004239,0.00000025,0.00000
 005,-0.00001519,0.,0.,0.00000005,0.,0.,-0.00000169,0.00000001,0.,0.000
 01643,0.,0.,-0.00002284,0.00000074,0.00000022,-0.00005820,-0.00000019,
 -0.00000068,-0.00087466,0.00000395,0.00000038,0.00962608,0.00000394,-0
 .00001282,-0.06286488,0.00000206,-0.00000238,-0.00667768,0.00001305,0.
 00004604,0.12023685,0.00029721,-0.00002828,0.,-0.00064470,0.00039138,0
 .00000018,0.00032874,-0.00023211,-0.00000001,0.00004986,0.00004586,-0.
 00000002,0.00004858,0.00010556,0.,-0.00012736,-0.00008208,0.,-0.000012
 68,-0.00000724,0.,0.00003702,0.00000031,0.,0.00000535,0.00000146,0.,0.
 00002689,-0.00000494,0.,-0.00010431,0.00022380,0.,-0.00213818,0.002425
 02,-0.00000054,-0.00494658,-0.02875392,-0.00000237,-0.08652575,-0.0848
 9479,-0.00000753,-0.00454881,0.00379395,0.00000009,0.01070230,0.021082
 85,0.00000174,0.08885576,0.00010603,-0.00009260,0.,-0.00026212,0.00073
 259,0.00000001,0.00035500,-0.00030216,-0.00000002,0.00006643,0.0000770
 3,-0.00000002,0.00001469,0.00013797,0.,-0.00017374,-0.00001649,0.,-0.0
 0000901,0.00001285,0.,0.00002991,-0.00000442,0.,-0.00000772,0.00000822
 ,0.,0.00000014,0.00000372,0.,-0.00122530,0.00003675,0.00000008,0.00070
 896,-0.00043367,0.00000047,0.00004716,-0.00223484,-0.00000054,-0.08153
 955,-0.30819611,-0.00002299,0.00022771,0.00262569,-0.00000023,-0.01196
 228,-0.01696214,-0.00000206,0.08775684,0.32794800,0.00000006,0.,-0.000
 00786,-0.00000009,0.00000005,-0.00058299,0.00000003,0.,0.00015998,0.00
 000002,0.00000001,0.00007327,0.,0.00000002,-0.00001784,-0.00000002,-0.
 00000003,0.00002765,0.,0.,-0.00001060,0.,0.,-0.00001205,0.,0.,-0.00000
 434,0.,0.,0.00001497,0.00000023,0.00000013,-0.00013054,-0.00000035,0.0
 0000075,0.00119118,0.00000058,-0.00000123,0.00308322,-0.00000821,-0.00
 002329,-0.03733587,0.00000010,-0.00000011,0.00466054,-0.00000050,-0.00
 000146,0.00596367,0.00000837,0.00002527,0.02400286,-0.00058793,0.00128
 711,-0.00000003,0.00110443,-0.00104993,0.00000007,0.00136305,0.0008331
 2,0.00000008,-0.00106898,0.00014097,0.00000005,0.00002032,-0.00144452,
 0.00000003,0.00148363,0.00017977,-0.00000003,-0.00007931,0.00000034,0.
 ,0.00012860,0.00003893,0.,0.00007854,-0.00005581,0.,0.00007766,-0.0000
 1635,0.,0.00780294,0.00278849,0.00000009,-0.00133150,-0.00235827,-0.00
 000019,0.04437012,0.00134818,0.00000103,-0.04517709,0.02036513,0.00000
 107,-0.12525000,0.02997738,0.00000291,-0.00216642,-0.07146704,-0.00000
 600,-0.00004705,0.00044609,-0.00000016,0.71747347,0.00083082,-0.000697
 17,0.00000008,-0.00143237,0.00023962,0.00000011,-0.00012496,-0.0004577
 4,0.00000005,0.00064584,-0.00012852,-0.00000005,0.00007472,0.00093156,
 -0.00000002,-0.00098270,-0.00021043,0.,0.00001358,0.00003629,0.0000000
 1,0.00000107,-0.00002388,0.,-0.00003984,0.00003700,0.,-0.00000624,0.00
 000805,-0.00000002,-0.00477764,0.00029084,0.00000004,0.00226626,0.0009
 1792,0.00000021,0.00633063,-0.02302261,-0.00000368,0.01007964,-0.00655
 000,-0.00000047,0.05149346,-0.19530826,-0.00001162,-0.03834434,0.00390
 111,-0.00000094,-0.00008833,0.00059198,0.00000001,0.10297922,0.6710178
 2,0.00000012,-0.00000009,-0.00016165,-0.00000027,-0.00000011,-0.000299
 32,-0.00000022,0.00000018,-0.00104956,0.00000016,-0.00000003,0.0000573
 5,0.,0.00000016,0.00003114,-0.00000013,-0.00000006,0.00005432,0.,0.,-0
 .00005693,0.,0.,-0.00004227,0.,0.,-0.00000482,0.,0.,0.00004540,-0.0000
 0060,-0.00000084,0.00032738,0.00000043,0.00000004,-0.00066948,0.000001
 32,-0.00000123,0.01037501,0.00000036,-0.00000025,-0.00055741,0.0000044
 9,-0.00001260,-0.07846016,-0.00000382,-0.00000155,0.00780657,-0.000000
 06,0.00000006,0.00006924,0.00001473,0.00005452,0.12027200,0.00101196,-
 0.00146147,0.00000008,-0.00175864,0.00117139,-0.00000003,-0.00054286,-
 0.00085123,-0.00000009,0.00122007,-0.00021638,-0.00000006,0.00002373,0
 .00171811,-0.00000003,-0.00181415,-0.00024701,0.00000003,0.00007132,0.
 00004939,0.,-0.00004008,-0.00005373,0.,-0.00010290,0.00007504,0.,-0.00
 007862,0.00003557,-0.00000001,-0.00892504,-0.00118855,0.00000004,0.002
 36027,0.00292912,0.00000020,-0.03288231,0.00534606,-0.00000037,0.04971
 857,0.00091767,0.00000049,-0.04793731,0.02656787,0.00000175,-0.1407707
 0,-0.02641403,-0.00000366,-0.00287014,0.00453252,0.00000004,-0.4136092
 8,-0.09078627,-0.00001202,0.76056910,0.00096935,-0.00141866,0.00000006
 ,-0.00145077,0.00133203,-0.00000007,-0.00028196,-0.00160435,-0.0000000
 7,0.00096980,-0.00010625,-0.00000005,0.00001275,0.00156140,-0.00000003
 ,-0.00173724,-0.00018923,0.00000003,0.00007578,0.00003424,0.,-0.000043
 28,-0.00004521,0.,-0.00010192,0.00007352,0.,-0.00007629,0.00003478,0.,
 -0.01084028,-0.00167690,-0.00000017,0.00230954,0.00288510,0.00000029,-
 0.03841541,-0.00105302,-0.00000083,0.04470834,-0.05628988,-0.00000497,
 -0.00251914,0.05088667,0.00000491,-0.09037864,-0.28655613,-0.00002254,
 0.00278155,-0.00206889,-0.00000065,-0.03241720,-0.14675589,-0.00000842
 ,-0.02234969,0.67966905,0.00000010,-0.00000014,-0.00000558,-0.00000017
 ,0.00000020,0.00016708,0.00000006,-0.00000021,0.00036647,0.00000007,0.
 ,-0.00000702,0.00000001,0.00000014,-0.00002846,-0.00000017,0.,-0.00000
 135,0.,0.,0.00001188,0.,0.,0.00002892,-0.00000001,0.,-0.00000365,0.,0.
 ,-0.00001187,-0.00000120,0.,0.00001208,0.00000022,0.00000012,-0.000227
 20,-0.00000386,0.00000048,-0.00475759,0.00000457,-0.00000504,0.0069658
 0,-0.00000012,0.00000469,-0.00052497,-0.00000915,-0.00002162,-0.061434
 44,-0.00000002,-0.00000068,0.00840673,-0.00000752,-0.00000915,-0.05869
 795,0.00000547,0.00004903,0.14446019,0.00001828,-0.00008385,0.,-0.0000
 2323,0.00013381,0.,-0.00002398,-0.00015395,0.00000002,0.00003907,0.000
 03038,0.,-0.00001167,0.00006537,0.,-0.00008537,0.00000758,0.,0.0000056
 0,0.00000625,0.,0.00000364,-0.00000388,0.,-0.00000949,0.00000778,0.,-0
 .00000935,0.00000532,0.,-0.00047642,0.00038804,0.,0.00002696,0.0000842
 1,0.,-0.00006204,0.00372829,0.00000004,-0.01509533,-0.00802342,-0.0000
 0099,0.00059756,0.00009637,0.00000002,-0.33482667,-0.05942464,-0.00001
 108,0.00076968,0.00013974,0.00000013,0.00137323,-0.00155334,-0.0000002
 2,-0.00474785,0.00264637,0.00000014,0.35276445,-0.00000397,0.00002779,
 0.,0.00002013,-0.00006495,0.,0.00007084,0.00009116,0.00000002,-0.00001
 553,-0.00004007,0.,0.00001351,-0.00001846,0.,0.00002672,-0.00000328,0.
 ,-0.00000054,-0.00000315,0.,0.00000084,0.00000196,0.,0.00000385,-0.000
 00482,0.,0.00000303,-0.00000137,0.,0.00032848,-0.00035564,0.00000007,0
 .00000821,0.00003484,-0.00000003,0.00218583,-0.00323807,-0.00000076,0.
 02464098,0.00795263,0.00000102,0.00052723,-0.00145849,-0.00000007,-0.0
 6050448,-0.06982003,-0.00000465,-0.00017125,0.00094063,0.00000052,-0.0
 0021810,-0.00520128,-0.00000087,-0.02971975,-0.00102662,-0.00000069,0.
 06320957,0.07018685,0.,0.00000001,0.00000516,0.00000002,-0.00000004,-0
 .00009518,-0.00000004,0.,-0.00038774,0.,0.,-0.00003197,0.,0.,0.0000394
 3,0.00000001,0.,-0.00000695,0.,0.,-0.00000231,0.,0.,-0.00001803,0.,0.,
 0.00000982,0.,0.,0.00000632,0.00000018,0.,-0.00059291,-0.00000002,0.00
 000011,0.00025070,0.00000023,-0.00000098,0.00813587,0.00000138,0.00000
 024,0.00142009,0.00000012,-0.00000005,-0.00071306,-0.00001093,-0.00000
 460,-0.03056300,0.00000012,0.00000050,-0.00553546,-0.00000016,-0.00000
 088,0.00411089,-0.00000261,0.00000006,0.00059077,0.00001194,0.00000526
 ,0.02362596,-0.00008237,0.00001875,0.,0.00011531,0.00009096,0.,-0.0000
 3089,0.00000385,0.,-0.00002693,0.00001081,0.,-0.00000944,-0.00004708,0
 .,0.00005114,0.00002088,0.,0.00000030,-0.00000443,0.,-0.00000432,0.000
 00013,0.,0.00000169,-0.00000147,0.,-0.00000379,-0.00000111,0.,0.000421
 76,-0.00005425,0.,-0.00035518,0.00012262,-0.00000003,-0.00242105,0.002
 61867,0.00000028,-0.00148657,0.00037347,0.00000003,0.01003279,0.021243
 72,0.00000206,-0.00491386,-0.00006803,-0.00000014,0.00012605,-0.000088
 98,0.,-0.08099768,-0.08092738,-0.00000807,-0.00432212,-0.03009005,-0.0
 0000289,-0.00040029,-0.00144032,-0.00000015,0.08176000,0.00001824,0.00
 011628,0.,-0.00006710,-0.00021611,0.00000001,0.00001132,0.00016010,0.,
 -0.00005066,-0.00001189,0.,0.00001674,-0.00008145,0.,0.00009769,-0.000
 01716,0.,-0.00000818,-0.00000114,0.,0.00000308,0.00000582,0.,0.0000116
 3,-0.00000741,0.,0.00001493,-0.00000515,0.,0.00038726,0.00006684,0.,0.
 00024096,-0.00035285,0.00000001,0.00395136,-0.00270119,-0.00000064,0.0
 0112778,0.00041241,0.00000014,-0.01389100,-0.01630103,-0.00000195,-0.0
 0097795,0.00224215,-0.00000072,-0.00006942,-0.00009289,0.00000010,-0.0
 8225471,-0.31934589,-0.00002881,0.00215313,-0.00231811,-0.00000044,0.0
 0003623,-0.00022383,-0.00000008,0.08956916,0.33529365,-0.00000001,0.00
 000003,0.00005305,0.00000003,-0.00000005,0.00003548,0.,0.00000002,-0.0
 0001734,-0.00000002,0.,-0.00000384,0.,-0.00000003,0.00000386,0.0000000
 3,0.,-0.00000959,0.,0.,0.00000520,0.,0.,0.00000096,0.,0.,0.00000289,0.
 ,0.,-0.00000962,0.00000015,0.00000004,-0.00007467,0.00000001,0.0000000
 2,0.00012600,0.00000014,-0.00000093,0.00391047,0.00000035,0.00000011,-
 0.00076327,-0.00000130,-0.00000146,0.00435510,-0.00000024,-0.00000039,
 0.00916233,0.00000003,0.00000007,-0.00104632,-0.00000820,-0.00002855,-
 0.03387641,-0.00000003,-0.00000096,0.00318735,0.,-0.00000007,0.0005558
 5,0.00000928,0.00003116,0.02399280,0.00005139,-0.00008876,0.,-0.000061
 95,0.00015060,0.,0.00008383,-0.00014505,0.,0.00004480,0.00000274,0.,-0
 .00000059,0.00008818,0.,-0.00010651,-0.00000200,0.,0.00000443,0.000004
 88,0.,0.00000779,-0.00000422,0.,-0.00000932,0.00000618,0.,-0.00000733,
 0.00000492,0.,-0.00053268,0.00009185,0.00000001,0.00004262,0.00027285,
 -0.00000001,-0.00088737,0.00040801,0.00000002,0.00089193,-0.00237182,-
 0.00000024,-0.00248319,-0.00443329,-0.00000067,0.00916634,-0.00862705,
 -0.00000074,0.00034713,-0.00044344,0.,-0.01494669,0.02497374,0.0000020
 8,-0.18681848,0.14011795,0.00001111,0.00059142,0.00043753,0.00000005,0
 .00095820,-0.00029907,0.00000008,0.19466049,0.00001235,0.00003390,0.,-
 0.00007332,0.00001093,0.00000002,0.00001738,0.00007567,-0.00000003,-0.
 00000299,-0.00000181,0.,0.00000878,-0.00001785,0.,0.00002587,-0.000009
 44,0.,-0.00000534,-0.00000153,0.,0.00000178,0.00000149,0.,0.00000526,-
 0.00000266,0.,0.00000656,-0.00000330,0.,0.00020337,-0.00006451,0.00000
 002,-0.00009017,-0.00002278,-0.00000004,-0.00067537,0.00061440,0.00000
 016,-0.00352983,-0.00497191,-0.00000095,-0.00241701,0.00015016,-0.0000
 0108,0.02276608,-0.01482055,-0.00000146,0.00106868,-0.00115061,0.00000
 002,-0.00701524,0.00791527,0.00000002,0.14042473,-0.21302069,-0.000014
 11,-0.00023363,0.00104325,0.00000031,0.00011311,0.00089704,0.00000065,
 -0.15074789,0.22275104,0.,0.,0.00000245,0.,0.00000002,-0.00004413,0.00
 000002,0.,0.00017165,0.,0.,0.00000260,0.,0.,-0.00000738,0.,0.,-0.00000
 486,0.,0.,0.00000645,0.,0.,0.00000225,0.,0.,-0.00000033,0.,0.,0.000001
 42,0.00000004,0.00000012,-0.00001796,-0.00000004,0.00000006,0.00024194
 ,-0.00000026,0.,-0.00115159,-0.00000032,-0.00000093,0.00447275,-0.0000
 0037,-0.00000087,0.01134203,0.00000222,-0.00000165,0.00480339,0.000000
 14,-0.00000011,-0.00037589,-0.00000044,0.00000036,0.00719225,0.0000107
 5,-0.00001432,-0.04211292,0.00000004,0.00000032,-0.00234929,0.00000008
 ,0.00000068,-0.00612445,-0.00001187,0.00001617,0.02673461,-0.00891314,
 -0.00073639,0.00000006,0.00892881,0.01513985,-0.00000080,-0.06026678,0
 .04378354,-0.00000137,0.00769228,-0.00334957,0.00000032,-0.00287967,0.
 00090254,-0.00000012,0.00249391,-0.00248190,0.00000017,0.00003999,-0.0
 0104393,-0.00000003,-0.00069253,-0.00005876,0.00000003,0.00054993,-0.0
 0032981,-0.00000006,-0.00058821,-0.00018902,0.00000008,-0.34962418,-0.
 03411865,0.00001273,-0.06263871,-0.05306326,0.00000285,-0.16636157,0.0
 7684174,-0.00000100,-0.06200795,0.03509900,0.00000194,0.04734941,0.020
 03020,0.00000028,0.00635128,-0.02956247,-0.00000235,0.00162912,0.00187
 869,0.,-0.01318247,0.00446839,0.00000074,0.01466870,0.01517930,0.00000
 154,-0.00025132,0.00086911,-0.00000009,0.00016400,-0.00156511,-0.00000
 026,0.00090409,-0.00006463,0.,0.67864589,0.00267983,-0.00372636,0.0000
 0039,0.01809976,-0.01856090,0.00000079,0.01203916,0.01581921,-0.000001
 94,0.00716954,-0.00910325,0.00000042,-0.00071309,0.00673351,-0.0000000
 9,-0.00499441,-0.00356946,0.00000019,0.00028287,-0.00046307,0.00000005
 ,-0.00047132,-0.00002440,-0.00000007,0.00005826,-0.00033148,0.,-0.0004
 5380,0.00012303,-0.00000005,-0.04087527,-0.14376891,0.00000789,-0.0041
 8070,-0.17151047,0.00001074,0.07453267,-0.20686073,-0.00000114,0.03463
 615,0.00360522,-0.00000028,0.00045543,-0.04119408,-0.00000042,-0.01382
 604,0.02437350,0.00000150,-0.00253609,-0.00097600,0.00000013,0.0089233
 6,-0.01184287,-0.00000157,-0.01478145,-0.01527404,-0.00000152,-0.00105
 355,0.00074025,0.00000012,0.00153801,-0.00039912,0.00000006,-0.0006946
 7,0.00020358,0.00000003,-0.07540410,0.55827805,0.00000042,0.00000002,-
 0.00034364,-0.00000176,0.00000061,0.00046601,0.00000041,-0.00000216,-0
 .00076887,-0.00000031,0.00000070,0.00098369,0.00000008,-0.00000008,0.0
 0132116,0.,0.00000016,0.00092718,-0.00000003,0.00000007,-0.00041984,0.
 00000004,-0.00000003,-0.00049051,-0.00000004,0.00000004,-0.00025502,0.
 00000005,0.,-0.00003591,0.00001019,0.00000755,-0.04669954,0.00000163,0
 .00001044,-0.03068695,-0.00000092,0.00000126,-0.05826743,0.00000013,0.
 00000085,-0.00606407,0.00000003,-0.00000208,0.00456316,-0.00000025,-0.
 00000016,0.00506304,0.00000009,0.00000020,-0.00228531,0.00000022,-0.00
 000066,0.00386731,-0.00000015,-0.00000025,-0.00075186,-0.00000003,-0.0
 0000014,0.00173707,0.00000004,-0.00000003,-0.00042644,0.00000001,0.000
 00007,-0.00072916,-0.00001317,-0.00001521,0.13601437,-0.00133690,0.003
 06014,-0.00000021,0.00217656,-0.00122988,-0.00000021,0.00601248,0.0015
 6624,0.00000028,-0.00272597,0.00044053,0.00000015,0.00012137,-0.003365
 77,0.00000006,0.00335271,0.00061114,-0.00000006,-0.00018640,0.00008896
 ,-0.00000001,0.00031904,0.00011582,0.,0.00012193,-0.00009402,-0.000000
 01,0.00015338,0.00000438,0.00000002,0.01604400,0.01771348,0.00000025,-
 0.00239141,-0.00462403,0.,-0.01778639,-0.06813369,-0.00000439,-0.01330
 947,0.00159107,0.00000041,-0.61919385,-0.09441779,-0.00001347,-0.00051
 814,-0.02034335,-0.00000160,-0.00143643,-0.00067701,-0.00000024,-0.079
 02761,0.01507628,0.00000081,0.01805665,0.02182786,0.00000191,-0.000230
 39,-0.00027686,-0.00000010,0.00145593,0.00158270,-0.00000002,-0.002031
 95,0.00022651,0.00000007,-0.03921128,0.02452856,0.00000076,0.72451468,
 -0.00026068,-0.00008757,0.00000010,0.00037671,-0.00118070,0.00000014,-
 0.00352322,-0.00229702,-0.00000058,-0.00019421,-0.00023958,0.00000005,
 0.00027202,0.00002786,0.00000004,0.00011349,-0.00005155,0.,0.00002966,
 -0.00013681,-0.00000002,0.00007691,0.00005196,-0.00000004,0.00007903,-
 0.00007688,0.,0.00005514,-0.00004559,0.,0.01225379,-0.01303142,-0.0000
 0026,-0.00006666,-0.00088857,-0.00000012,-0.05791126,-0.01292451,-0.00
 000280,0.00900904,-0.00975224,-0.00000059,-0.10026920,-0.11138758,-0.0
 0000477,-0.00340064,0.00664332,0.00000048,-0.00258611,-0.00066614,-0.0
 0000014,0.03449606,0.02253689,0.00000120,-0.00091563,-0.01087751,-0.00
 000134,-0.00007607,0.00052364,0.00000005,-0.00299287,0.00294937,0.0000
 0031,0.00138842,0.00039774,0.00000013,-0.00191976,0.00425235,-0.000000
 44,0.11973510,0.13530382,-0.00000006,-0.00000005,-0.00021269,0.0000002
 0,-0.00000010,-0.00013838,-0.00000029,-0.00000062,0.00184838,-0.000000
 10,0.,0.00002157,0.00000005,-0.00000005,-0.00010469,0.00000002,0.00000
 004,0.00004132,0.00000001,-0.00000002,0.00002596,0.00000002,0.00000001
 ,0.00002677,0.,0.,-0.00001428,0.,0.,0.00000218,0.00000225,-0.00000045,
 0.00110790,-0.00000007,-0.00000021,-0.00002746,-0.00000503,-0.00000212
 ,0.01975012,0.00000063,-0.00000097,0.00444435,-0.00001568,-0.00000590,
 -0.06676905,-0.00000031,0.00000050,-0.00017242,-0.00000016,-0.00000001
 ,-0.00018291,0.00000323,0.00000079,0.01814671,0.,-0.00000148,0.0044478
 1,0.,0.00000008,-0.00037024,-0.00000049,0.00000059,-0.00301005,0.00000
 021,0.00000021,-0.00182002,-0.00000016,0.00000086,-0.00252281,0.000016
 73,0.00001046,0.02915476,0.00123342,0.00035606,0.00000006,-0.00234068,
 0.00604831,-0.00000020,0.01535045,0.02350368,-0.00000256,0.00185841,0.
 00128279,0.00000037,-0.00048209,-0.00000431,0.00000003,-0.00039969,-0.
 00010637,-0.00000002,-0.00018736,0.00031685,0.00000002,-0.00187470,-0.
 00071024,-0.00000022,0.00000399,-0.00000559,0.,-0.00007598,-0.00009108
 ,0.,-0.21085971,-0.24074185,0.00003310,-0.00376417,-0.00013609,0.00000
 033,0.00112185,0.00250505,-0.00000036,0.00000273,-0.00002997,-0.000000
 12,-0.00893616,-0.00127762,0.00000020,0.00016825,0.00056090,0.00000005
 ,0.00017831,0.00007921,0.00000001,0.00219604,-0.00017024,0.00000018,-0
 .00047988,-0.00089670,-0.00000008,0.00006351,0.00000492,0.00000003,-0.
 00003269,-0.00003902,0.,0.00013159,-0.00002503,-0.00000003,-0.00279961
 ,-0.02495911,0.00000257,0.00705747,-0.00376907,-0.00000103,0.20286667,
 -0.00138250,0.00023791,0.,0.00329471,-0.00315594,0.00000029,-0.0088784
 9,-0.03008129,0.00000378,-0.00138369,0.00240702,0.00000028,-0.00048473
 ,-0.00148556,-0.00000005,0.00090924,0.00067356,-0.00000004,0.00015518,
 -0.00012221,0.,0.00078577,-0.00016005,-0.00000007,-0.00010651,0.000158
 66,0.00000001,0.00002738,0.00006091,0.00000001,-0.22172392,-0.37973732
 ,0.00005107,0.00149150,0.00264013,0.00000021,0.00533682,-0.00855383,-0
 .00000058,-0.00454274,0.00006529,0.00000014,0.01502848,0.00659806,0.00
 000077,0.00122317,-0.00435327,-0.00000027,-0.00022272,0.00008153,-0.00
 000008,-0.00550697,0.00112019,0.00000022,0.00306459,0.00380462,0.00000
 028,0.00002102,-0.00008293,-0.00000003,-0.00000817,-0.00006843,-0.0000
 0002,-0.00009059,-0.00000684,-0.00000001,-0.01030500,0.01347644,-0.000
 00075,-0.01500637,-0.00904327,-0.00000155,0.23830453,0.40552660,0.0000
 0009,0.00000004,0.00064452,-0.00000016,0.00000025,0.00227792,0.0000012
 6,0.00000149,0.00381747,0.00000024,0.00000027,-0.00098560,0.00000008,-
 0.00000006,-0.00044830,0.00000003,0.,-0.00000349,-0.00000002,0.,-0.000
 05243,-0.00000019,-0.00000020,0.00022818,0.00000002,-0.00000002,0.0000
 7155,0.,-0.00000001,0.00000484,0.00003244,0.00005535,-0.00312894,-0.00
 000045,-0.00000085,0.00524889,0.00000035,-0.00000087,-0.00325476,-0.00
 000031,0.00000006,-0.00052110,0.00000191,0.00000091,-0.00002935,0.0000
 0013,-0.00000031,0.00015461,-0.00000003,0.00000002,-0.00012532,-0.0000
 0079,-0.00000017,0.00152040,0.00000019,0.00000043,-0.00008021,-0.00000
 002,-0.00000002,0.00017822,0.00000001,0.,-0.00002932,-0.00000003,0.000
 00002,-0.00023579,-0.00000133,-0.00000087,-0.00419561,-0.00000110,-0.0
 0000186,-0.00367283,-0.00003233,-0.00005362,0.00261643\\0.00190529,0.0
 0648187,-0.00000036,0.00902274,0.01336715,-0.00000046,0.01680565,-0.00
 018214,0.00000037,-0.00141329,0.00264639,0.00000010,-0.00046004,-0.004
 92816,0.00000014,0.00192272,0.00208254,-0.00000024,-0.00015662,0.00089
 142,-0.00000028,0.00049976,0.00002138,0.00000011,0.00004139,0.00014971
 ,0.00000002,0.00015656,0.00024300,-0.00000016,-0.02309771,0.01586163,-
 0.00000090,0.00573450,0.01596429,-0.00000074,-0.01364203,0.00863795,0.
 00000109,0.01368425,-0.00172003,-0.00000025,0.02370676,0.00522212,-0.0
 0000223,-0.00491139,0.01204170,0.00000016,0.00039426,-0.00012698,0.000
 00015,-0.00595983,0.00035334,0.00000061,-0.00945896,-0.00231372,0.0000
 0027,-0.00029598,-0.00013955,0.00000003,-0.00070486,-0.00002889,0.0000
 0027,-0.00098997,-0.00038742,-0.00000008,-0.01385318,-0.00906711,0.000
 00072,-0.01302737,-0.01844910,0.00000106,0.01409738,-0.04662141,0.0000
 0060\\\@
 The archive entry for this job was punched.


 GOD DOES NOT PLAY WITH DICE.
               -- A. EINSTEIN
 Job cpu time:       0 days  0 hours 58 minutes 54.5 seconds.
 Elapsed time:       0 days  0 hours  6 minutes  6.7 seconds.
 File lengths (MBytes):  RWF=    544 Int=      0 D2E=      0 Chk=     40 Scr=      8
 Normal termination of Gaussian 16 at Tue Oct 27 23:47:26 2020.
