NM 2D-scan of HBT TD-WB97XD pVDZ in CTC Relaxed.                        
Freq      RwB97XD                                                     CC-pVDZ             
Number of atoms                            I               25
Info1-9                                    I   N=           9
          89          88        1002           0           0         100
           6          18       -5802
Full Title                                 C   N=           4
NM 2D-scan of HBT TD-WB97XD pVDZ in CTC Relaxed.
Route                                      C   N=           8
#p opt=addgic freq wb97xd/cc-pvdz nosymm int=ultrafine scrf=
(solvent=CarbonTetraChloride)       
Charge                                     I                0
Multiplicity                               I                1
Number of electrons                        I              118
Number of alpha electrons                  I               59
Number of beta electrons                   I               59
Number of basis functions                  I              273
Number of independent functions            I              273
Number of point charges in /Mol/           I                0
Number of translation vectors              I                0
Atomic numbers                             I   N=          25
           6           6           6           6           6           6
           1           1           1           1           7          16
           6           6           6           6           1           6
           6           1           1           1           6           8
           1
Nuclear charges                            R   N=          25
  6.00000000E+00  6.00000000E+00  6.00000000E+00  6.00000000E+00  6.00000000E+00
  6.00000000E+00  1.00000000E+00  1.00000000E+00  1.00000000E+00  1.00000000E+00
  7.00000000E+00  1.60000000E+01  6.00000000E+00  6.00000000E+00  6.00000000E+00
  6.00000000E+00  1.00000000E+00  6.00000000E+00  6.00000000E+00  1.00000000E+00
  1.00000000E+00  1.00000000E+00  6.00000000E+00  8.00000000E+00  1.00000000E+00
Current cartesian coordinates              R   N=          75
  3.14311624E+00 -6.18420605E+00 -8.20548161E-05  1.88380631E+00 -3.86726204E+00
 -3.57156487E-05  3.21894833E+00 -1.57873290E+00  1.49430083E-06  5.86346872E+00
 -1.56923702E+00 -2.38874734E-06  7.11688057E+00 -3.87311803E+00 -4.67105568E-05
  5.77001813E+00 -6.15862032E+00 -8.76031196E-05  2.10204104E+00 -7.96203824E+00
 -1.13377259E-04  6.88517966E+00  2.20107741E-01  2.77538208E-05  9.17804219E+00
 -3.90965272E+00 -5.11664462E-05  6.79655226E+00 -7.94629531E+00 -1.24012853E-04
  1.67606816E+00  5.20095964E-01  3.48743717E-05 -1.38053515E+00 -3.25647645E+00
 -1.68689551E-05 -2.59967283E+00  2.02807016E+00  4.59399756E-05 -5.21506140E+00
  1.60080875E+00  4.84301243E-05 -1.65218566E+00  4.54894137E+00  4.89658009E-05
 -6.91448082E+00  3.59673289E+00  5.60446565E-05 -5.91937757E+00 -3.41026128E-01
  4.30535567E-05 -3.40996610E+00  6.55113927E+00  5.29783762E-05 -5.98661008E+00
  6.07700227E+00  5.79429050E-05 -8.94235462E+00  3.23510189E+00  5.86274840E-05
 -2.67529015E+00  8.47697618E+00  5.66627794E-05 -7.30588188E+00  7.66362371E+00
  6.45802915E-05 -7.38836379E-01 -6.14219572E-03  2.99979846E-05  7.94986851E-01
  5.03822584E+00  4.98211712E-05  1.70405125E+00  3.30770493E+00  6.75080010E-05
Number of symbols in /Mol/                 I                0
Int Atom Types                             I   N=          25
           0           0           0           0           0           0
           0           0           0           0           0           0
           0           0           0           0           0           0
           0           0           0           0           0           0
           0
Force Field                                I                0
Atom Types                                 C   N=          25
                                                            
                                                            
                                                            
                                                            
                                                            
MM charges                                 R   N=          25
  0.00000000E+00  0.00000000E+00  0.00000000E+00  0.00000000E+00  0.00000000E+00
  0.00000000E+00  0.00000000E+00  0.00000000E+00  0.00000000E+00  0.00000000E+00
  0.00000000E+00  0.00000000E+00  0.00000000E+00  0.00000000E+00  0.00000000E+00
  0.00000000E+00  0.00000000E+00  0.00000000E+00  0.00000000E+00  0.00000000E+00
  0.00000000E+00  0.00000000E+00  0.00000000E+00  0.00000000E+00  0.00000000E+00
Integer atomic weights                     I   N=          25
          12          12          12          12          12          12
           1           1           1           1          14          32
          12          12          12          12           1          12
          12           1           1           1          12          16
           1
Real atomic weights                        R   N=          25
  1.20000000E+01  1.20000000E+01  1.20000000E+01  1.20000000E+01  1.20000000E+01
  1.20000000E+01  1.00782504E+00  1.00782504E+00  1.00782504E+00  1.00782504E+00
  1.40030740E+01  3.19720718E+01  1.20000000E+01  1.20000000E+01  1.20000000E+01
  1.20000000E+01  1.00782504E+00  1.20000000E+01  1.20000000E+01  1.00782504E+00
  1.00782504E+00  1.00782504E+00  1.20000000E+01  1.59949146E+01  1.00782504E+00
Atom fragment info                         I   N=          25
           0           0           0           0           0           0
           0           0           0           0           0           0
           0           0           0           0           0           0
           0           0           0           0           0           0
           0
Atom residue num                           I   N=          25
           0           0           0           0           0           0
           0           0           0           0           0           0
           0           0           0           0           0           0
           0           0           0           0           0           0
           0
Nuclear spins                              I   N=          25
           0           0           0           0           0           0
           1           1           1           1           2           0
           0           0           0           0           1           0
           0           1           1           1           0           0
           1
Nuclear ZEff                               R   N=          25
 -3.60000000E+00 -3.60000000E+00 -3.60000000E+00 -3.60000000E+00 -3.60000000E+00
 -3.60000000E+00 -1.00000000E+00 -1.00000000E+00 -1.00000000E+00 -1.00000000E+00
 -4.55000000E+00 -1.36000000E+01 -3.60000000E+00 -3.60000000E+00 -3.60000000E+00
 -3.60000000E+00 -1.00000000E+00 -3.60000000E+00 -3.60000000E+00 -1.00000000E+00
 -1.00000000E+00 -1.00000000E+00 -3.60000000E+00 -5.60000000E+00 -1.00000000E+00
Nuclear ZNuc                               R   N=          25
  6.00000000E+00  6.00000000E+00  6.00000000E+00  6.00000000E+00  6.00000000E+00
  6.00000000E+00  1.00000000E+00  1.00000000E+00  1.00000000E+00  1.00000000E+00
  7.00000000E+00  1.60000000E+01  6.00000000E+00  6.00000000E+00  6.00000000E+00
  6.00000000E+00  1.00000000E+00  6.00000000E+00  6.00000000E+00  1.00000000E+00
  1.00000000E+00  1.00000000E+00  6.00000000E+00  8.00000000E+00  1.00000000E+00
Nuclear QMom                               R   N=          25
  0.00000000E+00  0.00000000E+00  0.00000000E+00  0.00000000E+00  0.00000000E+00
  0.00000000E+00  0.00000000E+00  0.00000000E+00  0.00000000E+00  0.00000000E+00
  2.04400000E+00  0.00000000E+00  0.00000000E+00  0.00000000E+00  0.00000000E+00
  0.00000000E+00  0.00000000E+00  0.00000000E+00  0.00000000E+00  0.00000000E+00
  0.00000000E+00  0.00000000E+00  0.00000000E+00  0.00000000E+00  0.00000000E+00
Nuclear GFac                               R   N=          25
  0.00000000E+00  0.00000000E+00  0.00000000E+00  0.00000000E+00  0.00000000E+00
  0.00000000E+00  2.79284600E+00  2.79284600E+00  2.79284600E+00  2.79284600E+00
  4.03761000E-01  0.00000000E+00  0.00000000E+00  0.00000000E+00  0.00000000E+00
  0.00000000E+00  2.79284600E+00  0.00000000E+00  0.00000000E+00  2.79284600E+00
  2.79284600E+00  2.79284600E+00  0.00000000E+00  0.00000000E+00  2.79284600E+00
MicOpt                                     I   N=          25
          -1          -1          -1          -1          -1          -1
          -1          -1          -1          -1          -1          -1
          -1          -1          -1          -1          -1          -1
          -1          -1          -1          -1          -1          -1
          -1
Number of residues                         I                0
Number of secondary structures             I                0
Redundant internal dimensions              I   N=           4
         133           0           0           0
CrData-IFlags                              I   N=          16
          -2        2680           1         133        5312         228
           1           0           0           1           0           0
           0           0           0           0
CrData-InfCrd                              I   N=       32160
         100          -1           1           4           1           0
           1          -1          -1           0           0           1
          62          -1           5           1           1           0
           1          -1          -1           0           0           2
           2           0           6           3           1           0
           1           0           3           1           0           3
         100          -1           9           4           1           0
           1          -1          -1           0           0           1
          62          -1          13           1           1           0
           1          -1          -1           0           0           2
           2           0          14           3           1           0
           1          10          13           1           0           3
         100          -1          17           4           1           0
           1          -1          -1           0           0           1
          62          -1          21           1           1           0
           1          -1          -1           0           0           2
           2           0          22           3           1           0
           1          20          23           1           0           3
         100          -1          25           4           1           0
           1          -1          -1           0           0           1
          62          -1          29           1           1           0
           1          -1          -1           0           0           2
           2           0          30           3           1           0
           1          30          33           1           0           3
         100          -1          33           4           1           0
           1          -1          -1           0           0           1
          62          -1          37           1           1           0
           1          -1          -1           0           0           2
           2           0          38           3           1           0
           1          40          43           1           0           3
         100          -1          41           4           1           0
           1          -1          -1           0           0           1
          62          -1          45           1           1           0
           1          -1          -1           0           0           2
           2           0          46           3           1           0
           1          51          54           1           0           3
         100          -1          49           4           1           0
           1          -1          -1           0           0           1
          62          -1          53           1           1           0
           1          -1          -1           0           0           2
           2           0          54           3           1           0
           1          61          64           1           0           3
         100          -1          57           4           1           0
           1          -1          -1           0           0           1
          62          -1          61           1           1           0
           1          -1          -1           0           0           2
           2           0          62           3           1           0
           1          72          75           1           0           3
         100          -1          65           4           1           0
           1          -1          -1           0           0           1
          62          -1          69           1           1           0
           1          -1          -1           0           0           2
           2           0          70           3           1           0
           1          82          85           1           0           3
         100          -1          73           4           1           0
           1          -1          -1           0           0           1
          62          -1          77           1           1           0
           1          -1          -1           0           0           2
           2           0          78           3           1           0
           1          92          96           1           0           3
         100          -1          81           4           1           0
           1          -1          -1           0           0           1
          62          -1          85           1           1           0
           1          -1          -1           0           0           2
           2           0          86           3           1           0
           1         103         107           1           0           3
         100          -1          89           4           1           0
           1          -1          -1           0           0           1
          62          -1          93           1           1           0
           1          -1          -1           0           0           2
           2           0          94           3           1           0
           1         114         118           1           0           3
         100          -1          97           4           1           0
           1          -1          -1           0           0           1
          62          -1         101           1           1           0
           1          -1          -1           0           0           2
           2           0         102           3           1           0
           1         126         130           1           0           3
         100          -1         105           4           1           0
           1          -1          -1           0           0           1
          62          -1         109           1           1           0
           1          -1          -1           0           0           2
           2           0         110           3           1           0
           1         139         143           1           0           3
         100          -1         113           4           1           0
           1          -1          -1           0           0           1
          62          -1         117           1           1           0
           1          -1          -1           0           0           2
           2           0         118           3           1           0
           1         152         156           1           0           3
         100          -1         121           4           1           0
           1          -1          -1           0           0           1
          62          -1         125           1           1           0
           1          -1          -1           0           0           2
           2           0         126           3           1           0
           1         165         169           1           0           3
         100          -1         129           4           1           0
           1          -1          -1           0           0           1
          62          -1         133           1           1           0
           1          -1          -1           0           0           2
           2           0         134           3           1           0
           1         178         182           1           0           3
         100          -1         137           4           1           0
           1          -1          -1           0           0           1
          62          -1         141           1           1           0
           1          -1          -1           0           0           2
           2           0         142           3           1           0
           1         191         195           1           0           3
         100          -1         145           4           1           0
           1          -1          -1           0           0           1
          62          -1         149           1           1           0
           1          -1          -1           0           0           2
           2           0         150           3           1           0
           1         204         208           1           0           3
         100          -1         153           4           1           0
           1          -1          -1           0           0           1
          62          -1         157           1           1           0
           1          -1          -1           0           0           2
           2           0         158           3           1           0
           1         217         221           1           0           3
         100          -1         161           4           1           0
           1          -1          -1           0           0           1
          62          -1         165           1           1           0
           1          -1          -1           0           0           2
           2           0         166           3           1           0
           1         230         234           1           0           3
         100          -1         169           4           1           0
           1          -1          -1           0           0           1
          62          -1         173           1           1           0
           1          -1          -1           0           0           2
           2           0         174           3           1           0
           1         243         247           1           0           3
         100          -1         177           4           1           0
           1          -1          -1           0           0           1
          62          -1         181           1           1           0
           1          -1          -1           0           0           2
           2           0         182           3           1           0
           1         256         260           1           0           3
         100          -1         185           4           1           0
           1          -1          -1           0           0           1
          62          -1         189           1           1           0
           1          -1          -1           0           0           2
           2           0         190           3           1           0
           1         269         273           1           0           3
         100          -1         193           4           1           0
           1          -1          -1           0           0           1
          62          -1         197           1           1           0
           1          -1          -1           0           0           2
           2           0         198           3           1           0
           1         282         286           1           0           3
         100          -1         201           4           1           0
           1          -1          -1           0           0           1
          62          -1         205           1           1           0
           1          -1          -1           0           0           2
           2           0         206           3           1           0
           1         295         299           1           0           3
         100          -1         209           4           1           0
           1          -1          -1           0           0           1
          62          -1         213           1           1           0
           1          -1          -1           0           0           2
           2           0         214           3           1           0
           1         308         312           1           0           3
         100          -1         217           4           1           0
           1          -1          -1           0           0           1
          61          -1         221           1           1           0
           1          -1          -1           0           0           3
          61          -1         222           1           1           0
           1          -1          -1           0           0           3
          52          -1         223           2           1           0
           1          -1          -1           0           0           4
          52          -1         225           2           1           0
           1          -1          -1           0           0           5
          73          -1         227           1           1           0
           1          -1          -1           0           0           6
           3           0         228           4           1           0
           1         321         324           2           1           7
         100          -1         232           4           1           0
           1          -1          -1           0           0           1
          61          -1         236           1           1           0
           1          -1          -1           0           0           3
          52          -1         237           2           1           0
           1          -1          -1           0           0           4
          52          -1         239           2           1           0
           1          -1          -1           0           0           5
          73          -1         241           1           1           0
           1          -1          -1           0           0           6
           3           0         242           4           1           0
           1         333         336           2           1           7
         100          -1         246           4           1           0
           1          -1          -1           0           0           1
          52          -1         250           2           1           0
           1          -1          -1           0           0           4
          52          -1         252           2           1           0
           1          -1          -1           0           0           5
          73          -1         254           1           1           0
           1          -1          -1           0           0           6
           3           0         255           4           1           0
           1         345         348           2           1           7
         100          -1         259           4           1           0
           1          -1          -1           0           0           1
          61          -1         263           1           1           0
           1          -1          -1           0           0           3
          52          -1         264           2           1           0
           1          -1          -1           0           0           4
          52          -1         266           2           1           0
           1          -1          -1           0           0           5
          58          -1         268           0           1           1
           1          -1          -1           0           0           1
          52          -1         268           2           2           0
           1          -1          -1           0           0           6
          73          -1         270           1           2           0
           1          -1          -1           0           0           7
           3           0         271           4           2           0
           1         357         360           2           1           8
         100          -1         275           4           2           0
           1          -1          -1           0           0           1
          61          -1         279           1           2           0
           1          -1          -1           0           0           3
          52          -1         280           2           2           0
           1          -1          -1           0           0           4
          52          -1         282           2           2           0
           1          -1          -1           0           0           5
          52          -1         284           2           2           0
           1          -1          -1           0           0           6
          73          -1         286           1           2           0
           1          -1          -1           0           0           7
           3           0         287           4           2           0
           1         369         372           2           1           8
         100          -1         291           4           2           0
           1          -1          -1           0           0           1
          52          -1         295           2           2           0
           1          -1          -1           0           0           4
          52          -1         297           2           2           0
           1          -1          -1           0           0           5
          73          -1         299           1           2           0
           1          -1          -1           0           0           6
           3           0         300           4           2           0
           1         382         385           2           1           7
         100          -1         304           4           2           0
           1          -1          -1           0           0           1
          61          -1         308           1           2           0
           1          -1          -1           0           0           3
          52          -1         309           2           2           0
           1          -1          -1           0           0           4
          52          -1         311           2           2           0
           1          -1          -1           0           0           5
          52          -1         313           2           2           0
           1          -1          -1           0           0           6
          73          -1         315           1           2           0
           1          -1          -1           0           0           7
           3           0         316           4           2           0
           1         395         398           2           1           8
         100          -1         320           4           2           0
           1          -1          -1           0           0           1
          61          -1         324           1           2           0
           1          -1          -1           0           0           3
          52          -1         325           2           2           0
           1          -1          -1           0           0           4
          52          -1         327           2           2           0
           1          -1          -1           0           0           5
          52          -1         329           2           2           0
           1          -1          -1           0           0           6
          73          -1         331           1           2           0
           1          -1          -1           0           0           7
           3           0         332           4           2           0
           1         407         410           2           1           8
         100          -1         336           4           2           0
           1          -1          -1           0           0           1
          52          -1         340           2           2           0
           1          -1          -1           0           0           4
          52          -1         342           2           2           0
           1          -1          -1           0           0           5
          73          -1         344           1           2           0
           1          -1          -1           0           0           6
           3           0         345           4           2           0
           1         420         423           2           1           7
         100          -1         349           4           2           0
           1          -1          -1           0           0           1
          61          -1         353           1           2           0
           1          -1          -1           0           0           3
          52          -1         354           2           2           0
           1          -1          -1           0           0           4