 Entering Gaussian System, Link 0=g16
 Initial command:
 /gpfs/loomis/apps/avx/software/Gaussian/16-C.01_AVX/g16/l1.exe "/home/fas/batista/pev4/scratch60/gauss-scratch/Gau-244815.inp" -scrdir="/home/fas/batista/pev4/scratch60/gauss-scratch/"
 Entering Link 1 = /gpfs/loomis/apps/avx/software/Gaussian/16-C.01_AVX/g16/l1.exe PID=    244816.
  
 Copyright (c) 1988-2019, Gaussian, Inc.  All Rights Reserved.
  
 This is part of the Gaussian(R) 16 program.  It is based on
 the Gaussian(R) 09 system (copyright 2009, Gaussian, Inc.),
 the Gaussian(R) 03 system (copyright 2003, Gaussian, Inc.),
 the Gaussian(R) 98 system (copyright 1998, Gaussian, Inc.),
 the Gaussian(R) 94 system (copyright 1995, Gaussian, Inc.),
 the Gaussian 92(TM) system (copyright 1992, Gaussian, Inc.),
 the Gaussian 90(TM) system (copyright 1990, Gaussian, Inc.),
 the Gaussian 88(TM) system (copyright 1988, Gaussian, Inc.),
 the Gaussian 86(TM) system (copyright 1986, Carnegie Mellon
 University), and the Gaussian 82(TM) system (copyright 1983,
 Carnegie Mellon University). Gaussian is a federally registered
 trademark of Gaussian, Inc.
  
 This software contains proprietary and confidential information,
 including trade secrets, belonging to Gaussian, Inc.
  
 This software is provided under written license and may be
 used, copied, transmitted, or stored only in accord with that
 written license.
  
 The following legend is applicable only to US Government
 contracts under FAR:
  
                    RESTRICTED RIGHTS LEGEND
  
 Use, reproduction and disclosure by the US Government is
 subject to restrictions as set forth in subparagraphs (a)
 and (c) of the Commercial Computer Software - Restricted
 Rights clause in FAR 52.227-19.
  
 Gaussian, Inc.
 340 Quinnipiac St., Bldg. 40, Wallingford CT 06492
  
  
 ---------------------------------------------------------------
 Warning -- This program may not be used in any manner that
 competes with the business of Gaussian, Inc. or will provide
 assistance to any competitor of Gaussian, Inc.  The licensee
 of this program is prohibited from giving any competitor of
 Gaussian, Inc. access to this program.  By using this program,
 the user acknowledges that Gaussian, Inc. is engaged in the
 business of creating and licensing software in the field of
 computational chemistry and represents and warrants to the
 licensee that it is not a competitor of Gaussian, Inc. and that
 it will not use this program in any manner prohibited above.
 ---------------------------------------------------------------
  

 Cite this work as:
 Gaussian 16, Revision C.01,
 M. J. Frisch, G. W. Trucks, H. B. Schlegel, G. E. Scuseria, 
 M. A. Robb, J. R. Cheeseman, G. Scalmani, V. Barone, 
 G. A. Petersson, H. Nakatsuji, X. Li, M. Caricato, A. V. Marenich, 
 J. Bloino, B. G. Janesko, R. Gomperts, B. Mennucci, H. P. Hratchian, 
 J. V. Ortiz, A. F. Izmaylov, J. L. Sonnenberg, D. Williams-Young, 
 F. Ding, F. Lipparini, F. Egidi, J. Goings, B. Peng, A. Petrone, 
 T. Henderson, D. Ranasinghe, V. G. Zakrzewski, J. Gao, N. Rega, 
 G. Zheng, W. Liang, M. Hada, M. Ehara, K. Toyota, R. Fukuda, 
 J. Hasegawa, M. Ishida, T. Nakajima, Y. Honda, O. Kitao, H. Nakai, 
 T. Vreven, K. Throssell, J. A. Montgomery, Jr., J. E. Peralta, 
 F. Ogliaro, M. J. Bearpark, J. J. Heyd, E. N. Brothers, K. N. Kudin, 
 V. N. Staroverov, T. A. Keith, R. Kobayashi, J. Normand, 
 K. Raghavachari, A. P. Rendell, J. C. Burant, S. S. Iyengar, 
 J. Tomasi, M. Cossi, J. M. Millam, M. Klene, C. Adamo, R. Cammi, 
 J. W. Ochterski, R. L. Martin, K. Morokuma, O. Farkas, 
 J. B. Foresman, and D. J. Fox, Gaussian, Inc., Wallingford CT, 2019.
 
 ******************************************
 Gaussian 16:  ES64L-G16RevC.01  3-Jul-2019
                27-Oct-2020 
 ******************************************
 %chk=config_11_9.chk
 %mem=58GB
 %nprocshared=10
 Will use up to   10 processors via shared memory.
 ----------------------------------------------------------------------
 #p opt=addgic freq wb97xd/cc-pvdz nosymm int=ultrafine scrf=(solvent=C
 arbonTetraChloride)
 ----------------------------------------------------------------------
 1/18=20,19=15,26=6,38=1,145=903/1,3;
 2/9=110,12=2,15=1,17=6,18=5,40=1/2;
 3/5=16,11=2,25=1,30=1,70=2201,71=1,72=11,74=-58,75=-5/1,2,3;
 4//1;
 5/5=2,38=5,53=11/2;
 6/7=2,8=2,9=2,10=2,28=1/1;
 7/30=1/1,2,3,16;
 1/18=20,19=15,26=6,145=903/3(2);
 2/9=110,15=1/2;
 99//99;
 2/9=110,15=1/2;
 3/5=16,11=2,25=1,30=1,70=2205,71=1,72=11,74=-58,75=-5/1,2,3;
 4/5=5,16=3,69=1/1;
 5/5=2,38=5,53=11/2;
 7/30=1/1,2,3,16;
 1/18=20,19=15,26=6,145=903/3(-5);
 2/9=110,15=1/2;
 6/7=2,8=2,9=2,10=2,19=2,28=1/1;
 99/9=1/99;
 Leave Link    1 at Tue Oct 27 22:30:10 2020, MaxMem=  7784628224 cpu:               4.0 elap:               0.5
 (Enter /gpfs/loomis/apps/avx/software/Gaussian/16-C.01_AVX/g16/l101.exe)
 ------------------------------------------------
 NM 2D-scan of HBT TD-WB97XD pVDZ in CTC Relaxed.
 ------------------------------------------------
 Symbolic Z-matrix:
 Charge =  0 Multiplicity = 1
 C                     1.6496   -3.2566   -0.00002 
 C                     1.00887  -2.01815  -0.00002 
 C                     1.73947  -0.80354  -0.00002 
 C                     3.13252  -0.83974  -0.00002 
 C                     3.76823  -2.07957  -0.00002 
 C                     3.04334  -3.27623  -0.00002 
 H                     1.07322  -4.18279  -0.00002 
 H                     3.70556   0.08805  -0.00003 
 H                     4.85884  -2.11235  -0.00002 
 H                     3.5695   -4.23143  -0.00002 
 N                     0.91804   0.31319  -0.00002 
 S                    -0.72471  -1.71846  -0.00002 
 C                    -1.38198   1.04059   0.00001 
 C                    -2.74248   0.8119    0. 
 C                    -0.86276   2.43511   0.00003 
 C                    -3.65285   1.90391   0.00003 
 H                    -3.13836  -0.20664  -0.00002 
 C                    -1.8289    3.48879   0.00005 
 C                    -3.20015   3.22245   0.00005 
 H                    -4.72344   1.69272   0.00003 
 H                    -1.43524   4.50632   0.00007 
 H                    -3.91748   4.04352   0.00007 
 C                    -0.40466  -0.00115  -0.00002 
 O                     0.37578   2.64843   0.00004 
 H                     1.08461   1.05965  0. 
 
 Initializing the GIC definitions file.
 Number of initial coordinates =   134
 Number of input entries/lines =    52
 Number of additional coordinates =     2
 Number of removed coordinates =     0
 Number of frozen coordinates =     2
 Number of final active and frozen coordinates =   136
 ITRead=  0  0  0  0  0  0  0  0  0  0  0  0  0  0  0  0  0  0  0  0
 ITRead=  0  0  0  0  0
 MicOpt= -1 -1 -1 -1 -1 -1 -1 -1 -1 -1 -1 -1 -1 -1 -1 -1 -1 -1 -1 -1
 MicOpt= -1 -1 -1 -1 -1
 NAtoms=     25 NQM=       25 NQMF=       0 NMMI=      0 NMMIF=      0
                NMic=       0 NMicF=      0.
                    Isotopes and Nuclear Properties:
 (Nuclear quadrupole moments (NQMom) in fm**2, nuclear magnetic moments (NMagM)
  in nuclear magnetons)

  Atom         1           2           3           4           5           6           7           8           9          10
 IAtWgt=          12          12          12          12          12          12           1           1           1           1
 AtmWgt=  12.0000000  12.0000000  12.0000000  12.0000000  12.0000000  12.0000000   1.0078250   1.0078250   1.0078250   1.0078250
 NucSpn=           0           0           0           0           0           0           1           1           1           1
 AtZEff=  -0.0000000  -0.0000000  -0.0000000  -0.0000000  -0.0000000  -0.0000000  -0.0000000  -0.0000000  -0.0000000  -0.0000000
 NQMom=    0.0000000   0.0000000   0.0000000   0.0000000   0.0000000   0.0000000   0.0000000   0.0000000   0.0000000   0.0000000
 NMagM=    0.0000000   0.0000000   0.0000000   0.0000000   0.0000000   0.0000000   2.7928460   2.7928460   2.7928460   2.7928460
 AtZNuc=   6.0000000   6.0000000   6.0000000   6.0000000   6.0000000   6.0000000   1.0000000   1.0000000   1.0000000   1.0000000

  Atom        11          12          13          14          15          16          17          18          19          20
 IAtWgt=          14          32          12          12          12          12           1          12          12           1
 AtmWgt=  14.0030740  31.9720718  12.0000000  12.0000000  12.0000000  12.0000000   1.0078250  12.0000000  12.0000000   1.0078250
 NucSpn=           2           0           0           0           0           0           1           0           0           1
 AtZEff=  -0.0000000  -0.0000000  -0.0000000  -0.0000000  -0.0000000  -0.0000000  -0.0000000  -0.0000000  -0.0000000  -0.0000000
 NQMom=    2.0440000   0.0000000   0.0000000   0.0000000   0.0000000   0.0000000   0.0000000   0.0000000   0.0000000   0.0000000
 NMagM=    0.4037610   0.0000000   0.0000000   0.0000000   0.0000000   0.0000000   2.7928460   0.0000000   0.0000000   2.7928460
 AtZNuc=   7.0000000  16.0000000   6.0000000   6.0000000   6.0000000   6.0000000   1.0000000   6.0000000   6.0000000   1.0000000

  Atom        21          22          23          24          25
 IAtWgt=           1           1          12          16           1
 AtmWgt=   1.0078250   1.0078250  12.0000000  15.9949146   1.0078250
 NucSpn=           1           1           0           0           1
 AtZEff=  -0.0000000  -0.0000000  -0.0000000  -0.0000000  -0.0000000
 NQMom=    0.0000000   0.0000000   0.0000000   0.0000000   0.0000000
 NMagM=    2.7928460   2.7928460   0.0000000   0.0000000   2.7928460
 AtZNuc=   1.0000000   1.0000000   6.0000000   8.0000000   1.0000000
 Leave Link  101 at Tue Oct 27 22:30:13 2020, MaxMem=  7784628224 cpu:              32.5 elap:               3.3
 (Enter /gpfs/loomis/apps/avx/software/Gaussian/16-C.01_AVX/g16/l103.exe)

 GradGradGradGradGradGradGradGradGradGradGradGradGradGradGradGradGradGrad
 Berny optimization.
 Initialization pass.
                           ----------------------------
                           !    Initial Parameters    !
                           ! (Angstroms and Degrees)  !
 --------------------------                            --------------------------
 ! Name  Definition              Value          Derivative Info.                !
 --------------------------------------------------------------------------------
 ! R1    R(1,2)                  1.3944         estimate D2E/DX2                !
 ! R2    R(1,6)                  1.3939         estimate D2E/DX2                !
 ! R3    R(1,7)                  1.0909         estimate D2E/DX2                !
 ! R4    R(2,3)                  1.4174         estimate D2E/DX2                !
 ! R5    R(2,12)                 1.7593         estimate D2E/DX2                !
 ! R6    R(3,4)                  1.3935         estimate D2E/DX2                !
 ! R7    R(3,11)                 1.3863         estimate D2E/DX2                !
 ! R8    R(4,5)                  1.3933         estimate D2E/DX2                !
 ! R9    R(4,8)                  1.0905         estimate D2E/DX2                !
 ! R10   R(5,6)                  1.3991         estimate D2E/DX2                !
 ! R11   R(5,9)                  1.0911         estimate D2E/DX2                !
 ! R12   R(6,10)                 1.0905         estimate D2E/DX2                !
 ! R13   R(11,23)                1.3595         estimate D2E/DX2                !
 ! R14   R(11,25)                0.7648         estimate D2E/DX2                !
 ! R15   R(12,23)                1.7469         estimate D2E/DX2                !
 ! R16   R(13,14)                1.3796         estimate D2E/DX2                !
 ! R17   R(13,15)                1.488          estimate D2E/DX2                !
 ! R18   R(13,23)                1.4284         estimate D2E/DX2                !
 ! R19   R(14,16)                1.4217         estimate D2E/DX2                !
 ! R20   R(14,17)                1.0928         estimate D2E/DX2                !
 ! R21   R(15,18)                1.4296         estimate D2E/DX2                !
 ! R22   R(15,24)                1.2568         estimate D2E/DX2                !
 ! R23   R(16,19)                1.3941         estimate D2E/DX2                !
 ! R24   R(16,20)                1.0912         estimate D2E/DX2                !
 ! R25   R(18,19)                1.3969         estimate D2E/DX2                !
 ! R26   R(18,21)                1.091          estimate D2E/DX2                !
 ! R27   R(19,22)                1.0903         estimate D2E/DX2                !
 ! A1    A(2,1,6)              118.1628         estimate D2E/DX2                !
 ! A2    A(2,1,7)              120.75           estimate D2E/DX2                !
 ! A3    A(6,1,7)              121.0872         estimate D2E/DX2                !
 ! A4    A(1,2,3)              121.6167         estimate D2E/DX2                !
 ! A5    A(1,2,12)             127.1638         estimate D2E/DX2                !
 ! A6    A(3,2,12)             111.2195         estimate D2E/DX2                !
 ! A7    A(2,3,4)              119.5393         estimate D2E/DX2                !
 ! A8    A(2,3,11)             112.6353         estimate D2E/DX2                !
 ! A9    A(4,3,11)             127.8254         estimate D2E/DX2                !
 ! A10   A(3,4,5)              118.6342         estimate D2E/DX2                !
 ! A11   A(3,4,8)              120.2128         estimate D2E/DX2                !
 ! A12   A(5,4,8)              121.153          estimate D2E/DX2                !
 ! A13   A(4,5,6)              121.6483         estimate D2E/DX2                !
 ! A14   A(4,5,9)              118.8675         estimate D2E/DX2                !
 ! A15   A(6,5,9)              119.4842         estimate D2E/DX2                !
 ! A16   A(1,6,5)              120.3987         estimate D2E/DX2                !
 ! A17   A(1,6,10)             119.6549         estimate D2E/DX2                !
 ! A18   A(5,6,10)             119.9464         estimate D2E/DX2                !
 ! A19   A(3,11,23)            112.9689         estimate D2E/DX2                !
 ! A20   A(3,11,25)            131.0839         estimate D2E/DX2                !
 ! A21   A(23,11,25)           115.9472         estimate D2E/DX2                !
 ! A22   A(2,12,23)             89.2509         estimate D2E/DX2                !
 ! A23   A(14,13,15)           119.9636         estimate D2E/DX2                !
 ! A24   A(14,13,23)           123.6307         estimate D2E/DX2                !
 ! A25   A(15,13,23)           116.4057         estimate D2E/DX2                !
 ! A26   A(13,14,16)           120.2751         estimate D2E/DX2                !
 ! A27   A(13,14,17)           120.7815         estimate D2E/DX2                !
 ! A28   A(16,14,17)           118.9434         estimate D2E/DX2                !
 ! A29   A(13,15,18)           117.0597         estimate D2E/DX2                !
 ! A30   A(13,15,24)           120.1941         estimate D2E/DX2                !
 ! A31   A(18,15,24)           122.7461         estimate D2E/DX2                !
 ! A32   A(14,16,19)           121.2338         estimate D2E/DX2                !
 ! A33   A(14,16,20)           118.6575         estimate D2E/DX2                !
 ! A34   A(19,16,20)           120.1087         estimate D2E/DX2                !
 ! A35   A(15,18,19)           121.5268         estimate D2E/DX2                !
 ! A36   A(15,18,21)           116.331          estimate D2E/DX2                !
 ! A37   A(19,18,21)           122.1422         estimate D2E/DX2                !
 ! A38   A(16,19,18)           119.9411         estimate D2E/DX2                !
 ! A39   A(16,19,22)           119.9083         estimate D2E/DX2                !
 ! A40   A(18,19,22)           120.1506         estimate D2E/DX2                !
 ! A41   A(11,23,12)           113.9253         estimate D2E/DX2                !
 ! A42   A(11,23,13)           119.8044         estimate D2E/DX2                !
 ! A43   A(12,23,13)           126.2703         estimate D2E/DX2                !
 ! D1    D(6,1,2,3)              0.0            estimate D2E/DX2                !
 ! D2    D(6,1,2,12)          -180.0            estimate D2E/DX2                !
 ! D3    D(7,1,2,3)            179.9999         estimate D2E/DX2                !
 ! D4    D(7,1,2,12)             0.0            estimate D2E/DX2                !
 ! D5    D(2,1,6,5)             -0.0001         estimate D2E/DX2                !
 ! D6    D(2,1,6,10)           180.0            estimate D2E/DX2                !
 ! D7    D(7,1,6,5)           -180.0            estimate D2E/DX2                !
 ! D8    D(7,1,6,10)             0.0            estimate D2E/DX2                !
 ! D9    D(1,2,3,4)              0.0001         estimate D2E/DX2                !
 ! D10   D(1,2,3,11)           180.0            estimate D2E/DX2                !
 ! D11   D(12,2,3,4)          -179.9999         estimate D2E/DX2                !
 ! D12   D(12,2,3,11)           -0.0001         estimate D2E/DX2                !
 ! D13   D(1,2,12,23)          179.9998         estimate D2E/DX2                !
 ! D14   D(3,2,12,23)           -0.0001         estimate D2E/DX2                !
 ! D15   D(2,3,4,5)             -0.0001         estimate D2E/DX2                !
 ! D16   D(2,3,4,8)            179.9999         estimate D2E/DX2                !
 ! D17   D(11,3,4,5)          -180.0            estimate D2E/DX2                !
 ! D18   D(11,3,4,8)             0.0001         estimate D2E/DX2                !
 ! D19   D(2,3,11,23)            0.0003         estimate D2E/DX2                !
 ! D20   D(2,3,11,25)          179.9981         estimate D2E/DX2                !
 ! D21   D(4,3,11,23)         -179.9999         estimate D2E/DX2                !
 ! D22   D(4,3,11,25)           -0.002          estimate D2E/DX2                !
 ! D23   D(3,4,5,6)              0.0            estimate D2E/DX2                !
 ! D24   D(3,4,5,9)           -179.9999         estimate D2E/DX2                !
 ! D25   D(8,4,5,6)            180.0            estimate D2E/DX2                !
 ! D26   D(8,4,5,9)              0.0            estimate D2E/DX2                !
 ! D27   D(4,5,6,1)              0.0001         estimate D2E/DX2                !
 ! D28   D(4,5,6,10)          -180.0            estimate D2E/DX2                !
 ! D29   D(9,5,6,1)           -180.0            estimate D2E/DX2                !
 ! D30   D(9,5,6,10)             0.0            estimate D2E/DX2                !
 ! D31   D(3,11,23,12)          -0.0004         estimate D2E/DX2                !
 ! D32   D(3,11,23,13)         179.9989         estimate D2E/DX2                !
 ! D33   D(25,11,23,12)       -179.9985         estimate D2E/DX2                !
 ! D34   D(25,11,23,13)          0.0008         estimate D2E/DX2                !
 ! D35   D(2,12,23,11)           0.0003         estimate D2E/DX2                !
 ! D36   D(2,12,23,13)        -179.999          estimate D2E/DX2                !
 ! D37   D(15,13,14,16)          0.0001         estimate D2E/DX2                !
 ! D38   D(15,13,14,17)       -180.0            estimate D2E/DX2                !
 ! D39   D(23,13,14,16)       -180.0            estimate D2E/DX2                !
 ! D40   D(23,13,14,17)         -0.0001         estimate D2E/DX2                !
 ! D41   D(14,13,15,18)         -0.0002         estimate D2E/DX2                !
 ! D42   D(14,13,15,24)        179.9996         estimate D2E/DX2                !
 ! D43   D(23,13,15,18)        179.9998         estimate D2E/DX2                !
 ! D44   D(23,13,15,24)         -0.0003         estimate D2E/DX2                !
 ! D45   D(14,13,23,11)        179.9996         estimate D2E/DX2                !
 ! D46   D(14,13,23,12)         -0.0012         estimate D2E/DX2                !
 ! D47   D(15,13,23,11)         -0.0005         estimate D2E/DX2                !
 ! D48   D(15,13,23,12)        179.9987         estimate D2E/DX2                !
 ! D49   D(13,14,16,19)          0.0            estimate D2E/DX2                !
 ! D50   D(13,14,16,20)        180.0            estimate D2E/DX2                !
 ! D51   D(17,14,16,19)       -179.9999         estimate D2E/DX2                !
 ! D52   D(17,14,16,20)          0.0001         estimate D2E/DX2                !
 ! D53   D(13,15,18,19)          0.0002         estimate D2E/DX2                !
 ! D54   D(13,15,18,21)        179.9999         estimate D2E/DX2                !
 ! D55   D(24,15,18,19)       -179.9996         estimate D2E/DX2                !
 ! D56   D(24,15,18,21)          0.0            estimate D2E/DX2                !
 ! D57   D(14,16,19,18)          0.0            estimate D2E/DX2                !
 ! D58   D(14,16,19,22)       -180.0            estimate D2E/DX2                !
 ! D59   D(20,16,19,18)        180.0            estimate D2E/DX2                !
 ! D60   D(20,16,19,22)          0.0            estimate D2E/DX2                !
 ! D61   D(15,18,19,16)         -0.0001         estimate D2E/DX2                !
 ! D62   D(15,18,19,22)        179.9999         estimate D2E/DX2                !
 ! D63   D(21,18,19,16)       -179.9997         estimate D2E/DX2                !
 ! D64   D(21,18,19,22)          0.0002         estimate D2E/DX2                !
 ! Qtot  GIC-1                  50.0            Frozen                          !
 ! Ptot  GIC-2                  20.0            Frozen                          !
 --------------------------------------------------------------------------------
 NOTE: GIC-type coordinates are in arbitrary units.
 Trust Radius=3.00D-01 FncErr=5.00D-06 GrdErr=5.00D-06 EigMax=2.50D+02 EigMin=1.00D-04
 Number of steps in this run=    146 maximum allowed number of steps=    150.
 GradGradGradGradGradGradGradGradGradGradGradGradGradGradGradGradGradGrad

 Leave Link  103 at Tue Oct 27 22:30:13 2020, MaxMem=  7784628224 cpu:               0.2 elap:               0.0
 (Enter /gpfs/loomis/apps/avx/software/Gaussian/16-C.01_AVX/g16/l202.exe)
                          Input orientation:                          
 ---------------------------------------------------------------------
 Center     Atomic      Atomic             Coordinates (Angstroms)
 Number     Number       Type             X           Y           Z
 ---------------------------------------------------------------------
      1          6           0        1.649602   -3.256598   -0.000021
      2          6           0        1.008867   -2.018152   -0.000022
      3          6           0        1.739475   -0.803542   -0.000022
      4          6           0        3.132520   -0.839736   -0.000024
      5          6           0        3.768227   -2.079567   -0.000023
      6          6           0        3.043335   -3.276232   -0.000021
      7          1           0        1.073224   -4.182794   -0.000020
      8          1           0        3.705557    0.088051   -0.000025
      9          1           0        4.858838   -2.112348   -0.000023
     10          1           0        3.569498   -4.231431   -0.000020
     11          7           0        0.918044    0.313187   -0.000023
     12         16           0       -0.724715   -1.718456   -0.000021
     13          6           0       -1.381976    1.040595    0.000005
     14          6           0       -2.742480    0.811904    0.000004
     15          6           0       -0.862757    2.435112    0.000033
     16          6           0       -3.652854    1.903914    0.000027
     17          1           0       -3.138361   -0.206642   -0.000015
     18          6           0       -1.828900    3.488789    0.000053
     19          6           0       -3.200149    3.222451    0.000050
     20          1           0       -4.723442    1.692720    0.000025
     21          1           0       -1.435238    4.506316    0.000075
     22          1           0       -3.917477    4.043516    0.000068
     23          6           0       -0.404656   -0.001147   -0.000017
     24          8           0        0.375775    2.648428    0.000041
     25          1           0        1.084612    1.059650   -0.000004
 ---------------------------------------------------------------------
                    Distance matrix (angstroms):
                    1          2          3          4          5
     1  C    0.000000
     2  C    1.394378   0.000000
     3  C    2.454701   1.417414   0.000000
     4  C    2.835536   2.428696   1.393515   0.000000
     5  C    2.423628   2.760043   2.396680   1.393307   0.000000
     6  C    1.393871   2.392034   2.795397   2.438128   1.399098
     7  H    1.090894   2.165599   3.444304   3.926415   3.418567
     8  H    3.926019   3.421728   2.158800   1.090486   2.168524
     9  H    3.407125   3.851123   3.382809   2.144694   1.091103
    10  H    2.153207   3.384588   3.885795   3.419728   2.161020
    11  N    3.643973   2.333107   1.386302   2.496625   3.721400
    12  S    2.829003   1.759296   2.628554   3.956060   4.507430
    13  C    5.258928   3.882275   3.625507   4.890431   6.021628
    14  C    5.986910   4.699130   4.764199   6.102749   7.123898
    15  C    6.221535   4.830583   4.154574   5.165933   6.467483
    16  C    7.399116   6.092146   6.033865   7.319079   8.422622
    17  H    5.676867   4.525601   4.914221   6.302758   7.156033
    18  C    7.589481   6.195104   5.581882   6.584210   7.895215
    19  C    8.093093   6.721587   6.372480   7.523567   8.756121
    20  H    8.069166   6.828612   6.928248   8.254058   9.291856
    21  H    8.353387   6.967233   6.186550   7.031692   8.393445
    22  H    9.180634   7.811062   7.449502   8.576049   9.826607
    23  C    3.849407   2.462997   2.289353   3.635223   4.661843
    24  O    6.040858   4.709328   3.711573   4.446002   5.819164
    25  H    4.353068   3.078733   1.974925   2.793133   4.129948
                    6          7          8          9         10
     6  C    0.000000
     7  H    2.168684   0.000000
     8  H    3.428839   5.016900   0.000000
     9  H    2.156543   4.314813   2.484312   0.000000
    10  H    1.090528   2.496748   4.321624   2.480506   0.000000
    11  N    4.171425   4.498657   2.796590   4.627426   5.261536
    12  S    4.077360   3.050499   4.784431   5.597429   4.975470
    13  C    6.182101   5.771637   5.175938   6.992053   7.232659
    14  C    7.084385   6.285428   6.488540   8.144402   8.079375
    15  C    6.919321   6.895266   5.135970   7.308627   8.005478
    16  C    8.465983   7.706090   7.579154   9.411655   9.476541
    17  H    6.901866   5.791997   6.850260   8.221125   7.822679
    18  C    8.336917   8.202165   6.495786   8.723449   9.420430
    19  C    9.011879   8.549816   7.583749   9.664747  10.069184
    20  H    9.220266   8.253666   8.580384  10.310122  10.191586
    21  H    8.979180   9.043949   6.778558   9.133570  10.069539
    22  H   10.101070   9.621812   8.588153  10.719998  11.159281
    23  C    4.755505   4.435121   4.111181   5.671114   5.804240
    24  O    6.497497   6.866733   4.200355   6.539330   7.585007
    25  H    4.757780   5.242456   2.795239   4.930147   5.845527
                   11         12         13         14         15
    11  N    0.000000
    12  S    2.612705   0.000000
    13  C    2.412305   2.836257   0.000000
    14  C    3.694341   3.236371   1.379591   0.000000
    15  C    2.770165   4.155861   1.488041   2.483579   0.000000
    16  C    4.839785   4.657850   2.429446   1.421713   2.840214
    17  H    4.089577   2.848029   2.154179   1.092775   3.486723
    18  C    4.198827   5.323028   2.488653   2.828488   1.429569
    19  C    5.042155   5.526331   2.840114   2.453609   2.466436
    20  H    5.807708   5.256039   3.404506   2.167959   3.931416
    21  H    4.808354   6.265192   3.466131   3.918873   2.148865
    22  H    6.107178   6.587417   3.930178   3.438595   3.452287
    23  C    1.359537   1.746880   1.428419   2.475172   2.478954
    24  O    2.397375   4.503416   2.382187   3.618886   1.256768
    25  H    0.764822   3.315349   2.466662   3.835103   2.384144
                   16         17         18         19         20
    16  C    0.000000
    17  H    2.172360   0.000000
    18  C    2.416327   3.920573   0.000000
    19  C    1.394088   3.429649   1.396875   0.000000
    20  H    1.091219   2.473875   3.406499   2.158818   0.000000
    21  H    3.419111   5.011247   1.091023   2.182480   4.327655
    22  H    2.155904   4.320979   2.160990   1.090279   2.485119
    23  C    3.765640   2.741418   3.769366   4.266891   4.639084
    24  O    4.096847   4.527756   2.359407   3.621703   5.188004
    25  H    4.812106   4.408741   3.793319   4.799675   5.842454
                   21         22         23         24         25
    21  H    0.000000
    22  H    2.525014   0.000000
    23  C    4.623778   5.357164   0.000000
    24  O    2.594517   4.514232   2.762122   0.000000
    25  H    4.269561   5.824462   1.828444   1.739732   0.000000
 Symmetry turned off by external request.
 Stoichiometry    C13H9NOS
 Framework group  C1[X(C13H9NOS)]
 Deg. of freedom    69
 Full point group                 C1      NOp   1
 Rotational constants (GHZ):           1.3950331           0.2859300           0.2372936
 Leave Link  202 at Tue Oct 27 22:30:13 2020, MaxMem=  7784628224 cpu:               0.2 elap:               0.0
 (Enter /gpfs/loomis/apps/avx/software/Gaussian/16-C.01_AVX/g16/l301.exe)
 Standard basis: CC-pVDZ (5D, 7F)
 Ernie: Thresh=  0.10000D-02 Tol=  0.10000D-05 Strict=F.
 Ernie:  40 primitive shells out of 425 were deleted.
   273 basis functions,   629 primitive gaussians,   289 cartesian basis functions
    59 alpha electrons       59 beta electrons
       nuclear repulsion energy      1101.3302090018 Hartrees.
 IExCor= 4639 DFT=T Ex+Corr=wB97XD ExCW=0 ScaHFX=  1.000000
 ScaDFX=  1.000000  1.000000  1.000000  1.000000 ScalE2=  1.000000  1.000000
 IRadAn=      5 IRanWt=     -1 IRanGd=            0 ICorTp=0 IEmpDi=121
 HFx  wShort=  0.000000 wLong=  0.200000 cFull=  0.222036 cShort=  0.000000 cLong=  0.777964
 DFx  wShort=  0.000000 wLong=  0.200000 cFull=  0.000000 cShort=  0.000000 cLong=  1.000000
 NAtoms=   25 NActive=   25 NUniq=   25 SFac= 1.00D+00 NAtFMM=   60 NAOKFM=F Big=F
 Integral buffers will be    131072 words long.
 Raffenetti 2 integral format.
 Two-electron integral symmetry is turned off.
 R6Disp:  Grimme-D2 Dispersion energy=       -0.0140941102 Hartrees.
 Nuclear repulsion after empirical dispersion term =     1101.3161148916 Hartrees.
 ------------------------------------------------------------------------------
 Polarizable Continuum Model (PCM)
 =================================
 Model                : PCM.
 Atomic radii         : UFF (Universal Force Field).
 Polarization charges : Total charges.
 Charge compensation  : None.
 Solution method      : On-the-fly selection.
 Cavity type          : Scaled VdW (van der Waals Surface) (Alpha=1.100).
 Cavity algorithm     : GePol (No added spheres)
                        Default sphere list used, NSphG=   25.
                        Lebedev-Laikov grids with approx.  5.0 points / Ang**2.
                        Smoothing algorithm: York/Karplus (Gamma=1.0000).
                        Polarization charges: spherical gaussians, with
                                              point-specific exponents (IZeta= 3).
                        Self-potential: point-specific (ISelfS= 7).
                        Self-field    : sphere-specific E.n sum rule (ISelfD= 2).
 1st derivatives      : Analytical E(r).r(x)/FMM algorithm (CHGder, D1EAlg=3).
                        Cavity 1st derivative terms included.
 Solvent              : CarbonTetraChloride, Eps=   2.228000 Eps(inf)=   2.131892
 ------------------------------------------------------------------------------
 GePol: Number of generator spheres                  =      25
 GePol: Total number of spheres                      =      25
 GePol: Number of exposed spheres                    =      25 (100.00%)
 GePol: Number of points                             =    2183
 GePol: Average weight of points                     =       0.13
 GePol: Minimum weight of points                     =   0.72D-10
 GePol: Maximum weight of points                     =    0.20577
 GePol: Number of points with low weight             =     129
 GePol: Fraction of low-weight points (<1% of avg)   =       5.91%
 GePol: Cavity surface area                          =    273.004 Ang**2
 GePol: Cavity volume                                =    292.226 Ang**3
 Leave Link  301 at Tue Oct 27 22:30:13 2020, MaxMem=  7784628224 cpu:               0.7 elap:               0.1
 (Enter /gpfs/loomis/apps/avx/software/Gaussian/16-C.01_AVX/g16/l302.exe)
 NPDir=0 NMtPBC=     1 NCelOv=     1 NCel=       1 NClECP=     1 NCelD=      1
         NCelK=      1 NCelE2=     1 NClLst=     1 CellRange=     0.0.
 One-electron integrals computed using PRISM.
 NBasis=   273 RedAO= T EigKep=  3.00D-04  NBF=   273
 NBsUse=   273 1.00D-06 EigRej= -1.00D+00 NBFU=   273
 Precomputing XC quadrature grid using
 IXCGrd= 4 IRadAn=           5 IRanWt=          -1 IRanGd=           0 AccXCQ= 0.00D+00.
 Generated NRdTot=       0 NPtTot=           0 NUsed=           0 NTot=          32
 NSgBfM=   288   288   288   288   288 MxSgAt=    25 MxSgA2=    25.
 Leave Link  302 at Tue Oct 27 22:30:13 2020, MaxMem=  7784628224 cpu:               2.5 elap:               0.3
 (Enter /gpfs/loomis/apps/avx/software/Gaussian/16-C.01_AVX/g16/l303.exe)
 DipDrv:  MaxL=1.
 Leave Link  303 at Tue Oct 27 22:30:13 2020, MaxMem=  7784628224 cpu:               0.4 elap:               0.1
 (Enter /gpfs/loomis/apps/avx/software/Gaussian/16-C.01_AVX/g16/l401.exe)
 ExpMin= 1.22D-01 ExpMax= 1.11D+05 ExpMxC= 1.07D+03 IAcc=3 IRadAn=         5 AccDes= 0.00D+00
 Harris functional with IExCor= 4639 and IRadAn=       5 diagonalized for initial guess.
 HarFok:  IExCor= 4639 AccDes= 0.00D+00 IRadAn=         5 IDoV= 1 UseB2=F ITyADJ=14
 ICtDFT=  3500011 ScaDFX=  1.000000  1.000000  1.000000  1.000000
 FoFCou: FMM=F IPFlag=           0 FMFlag=      100000 FMFlg1=           0
         NFxFlg=           0 DoJE=T BraDBF=F KetDBF=T FulRan=T
         wScrn=  0.000000 ICntrl=       500 IOpCl=  0 I1Cent=   200000004 NGrid=           0
         NMat0=    1 NMatS0=      1 NMatT0=    0 NMatD0=    1 NMtDS0=    0 NMtDT0=    0
 Symmetry not used in FoFCou.
 Harris En= -994.339469888338    
 JPrj=0 DoOrth=F DoCkMO=F.
 Leave Link  401 at Tue Oct 27 22:30:15 2020, MaxMem=  7784628224 cpu:              13.8 elap:               1.4
 (Enter /gpfs/loomis/apps/avx/software/Gaussian/16-C.01_AVX/g16/l502.exe)
 Two-electron integral symmetry not used.
 Closed shell SCF:
 Using DIIS extrapolation, IDIIS=  1040.
 NGot=  7784628224 LenX=  7784455381 LenY=  7784371419
 Requested convergence on RMS density matrix=1.00D-08 within 128 cycles.
 Requested convergence on MAX density matrix=1.00D-06.
 Requested convergence on             energy=1.00D-06.
 No special actions if energy rises.
 Fock matrices will be formed incrementally for  20 cycles.

 Cycle   1  Pass 1  IDiag  1:
 FoFJK:  IHMeth= 1 ICntrl=       0 DoSepK=T KAlg= 0 I1Cent=           0 FoldK=F
 IRaf=         1 NMat=       1 IRICut=       1 DoRegI=T DoRafI=F ISym2E= 0 IDoP0=0 IntGTp=1.
 FoFCou: FMM=F IPFlag=           0 FMFlag=      100000 FMFlg1=           0
         NFxFlg=           0 DoJE=T BraDBF=F KetDBF=F FulRan=T
         wScrn=  0.000000 ICntrl=       500 IOpCl=  0 I1Cent=           0 NGrid=           0
         NMat0=    1 NMatS0=      1 NMatT0=    0 NMatD0=    1 NMtDS0=    0 NMtDT0=    0
 Symmetry not used in FoFCou.
 Inv3:  Mode=1 IEnd=    14296467.
 Iteration    1 A*A^-1 deviation from unit magnitude is 5.11D-15 for   2164.
 Iteration    1 A*A^-1 deviation from orthogonality  is 2.26D-15 for   2141   1396.
 Iteration    1 A^-1*A deviation from unit magnitude is 5.11D-15 for   2164.
 Iteration    1 A^-1*A deviation from orthogonality  is 2.77D-15 for   2169   1912.
 E= -1028.45095888823    
 DIIS: error= 4.13D-02 at cycle   1 NSaved=   1.
 NSaved= 1 IEnMin= 1 EnMin= -1028.45095888823     IErMin= 1 ErrMin= 4.13D-02
 ErrMax= 4.13D-02  0.00D+00 EMaxC= 1.00D-01 BMatC= 3.94D-01 BMatP= 3.94D-01
 IDIUse=3 WtCom= 5.87D-01 WtEn= 4.13D-01
 Coeff-Com:  0.100D+01
 Coeff-En:   0.100D+01
 Coeff:      0.100D+01
 Gap=     0.303 Goal=   None    Shift=    0.000
 GapD=    0.303 DampG=1.000 DampE=0.500 DampFc=0.5000 IDamp=-1.
 Damping current iteration by 5.00D-01
 RMSDP=3.69D-03 MaxDP=2.53D-01              OVMax= 2.15D-01

 Cycle   2  Pass 1  IDiag  1:
 RMSU=  1.84D-03    CP:  9.94D-01
 E= -1028.57334725898     Delta-E=       -0.122388370752 Rises=F Damp=T
 DIIS: error= 1.09D-02 at cycle   2 NSaved=   2.
 NSaved= 2 IEnMin= 2 EnMin= -1028.57334725898     IErMin= 2 ErrMin= 1.09D-02
 ErrMax= 1.09D-02  0.00D+00 EMaxC= 1.00D-01 BMatC= 5.82D-02 BMatP= 3.94D-01
 IDIUse=3 WtCom= 8.91D-01 WtEn= 1.09D-01
 Coeff-Com: -0.286D+00 0.129D+01
 Coeff-En:   0.000D+00 0.100D+01
 Coeff:     -0.255D+00 0.125D+01
 Gap=     0.370 Goal=   None    Shift=    0.000
 RMSDP=1.17D-03 MaxDP=2.93D-02 DE=-1.22D-01 OVMax= 1.50D-01

 Cycle   3  Pass 1  IDiag  1:
 RMSU=  1.14D-03    CP:  9.92D-01  1.16D+00
 E= -1028.68403679866     Delta-E=       -0.110689539674 Rises=F Damp=F
 DIIS: error= 6.42D-03 at cycle   3 NSaved=   3.
 NSaved= 3 IEnMin= 3 EnMin= -1028.68403679866     IErMin= 3 ErrMin= 6.42D-03
 ErrMax= 6.42D-03  0.00D+00 EMaxC= 1.00D-01 BMatC= 1.53D-02 BMatP= 5.82D-02
 IDIUse=3 WtCom= 9.36D-01 WtEn= 6.42D-02
 Coeff-Com: -0.204D+00 0.498D+00 0.706D+00
 Coeff-En:   0.000D+00 0.000D+00 0.100D+01
 Coeff:     -0.191D+00 0.466D+00 0.725D+00
 Gap=     0.233 Goal=   None    Shift=    0.000
 RMSDP=5.50D-04 MaxDP=2.13D-02 DE=-1.11D-01 OVMax= 4.84D-02

 Cycle   4  Pass 1  IDiag  1:
 RMSU=  4.31D-04    CP:  9.91D-01  1.32D+00  8.53D-01
 E= -1028.69924932638     Delta-E=       -0.015212527728 Rises=F Damp=F
 DIIS: error= 2.08D-03 at cycle   4 NSaved=   4.
 NSaved= 4 IEnMin= 4 EnMin= -1028.69924932638     IErMin= 4 ErrMin= 2.08D-03
 ErrMax= 2.08D-03  0.00D+00 EMaxC= 1.00D-01 BMatC= 1.84D-03 BMatP= 1.53D-02
 IDIUse=3 WtCom= 9.79D-01 WtEn= 2.08D-02
 Coeff-Com: -0.721D-01 0.142D+00 0.340D+00 0.590D+00
 Coeff-En:   0.000D+00 0.000D+00 0.000D+00 0.100D+01
 Coeff:     -0.706D-01 0.139D+00 0.333D+00 0.599D+00
 Gap=     0.236 Goal=   None    Shift=    0.000
 RMSDP=1.71D-04 MaxDP=9.24D-03 DE=-1.52D-02 OVMax= 1.33D-02

 Cycle   5  Pass 1  IDiag  1:
 RMSU=  1.13D-04    CP:  9.90D-01  1.33D+00  9.25D-01  7.73D-01
 E= -1028.70127715968     Delta-E=       -0.002027833297 Rises=F Damp=F
 DIIS: error= 5.39D-04 at cycle   5 NSaved=   5.
 NSaved= 5 IEnMin= 5 EnMin= -1028.70127715968     IErMin= 5 ErrMin= 5.39D-04
 ErrMax= 5.39D-04  0.00D+00 EMaxC= 1.00D-01 BMatC= 6.26D-05 BMatP= 1.84D-03
 IDIUse=3 WtCom= 9.95D-01 WtEn= 5.39D-03
 Coeff-Com: -0.211D-03-0.602D-02 0.243D-01 0.155D+00 0.827D+00
 Coeff-En:   0.000D+00 0.000D+00 0.000D+00 0.000D+00 0.100D+01
 Coeff:     -0.210D-03-0.599D-02 0.242D-01 0.154D+00 0.828D+00
 Gap=     0.237 Goal=   None    Shift=    0.000
 RMSDP=6.26D-05 MaxDP=2.02D-03 DE=-2.03D-03 OVMax= 6.82D-03

 Cycle   6  Pass 1  IDiag  1:
 RMSU=  4.03D-05    CP:  9.90D-01  1.33D+00  9.42D-01  8.67D-01  1.13D+00
 E= -1028.70142775192     Delta-E=       -0.000150592237 Rises=F Damp=F
 DIIS: error= 2.74D-04 at cycle   6 NSaved=   6.
 NSaved= 6 IEnMin= 6 EnMin= -1028.70142775192     IErMin= 6 ErrMin= 2.74D-04
 ErrMax= 2.74D-04  0.00D+00 EMaxC= 1.00D-01 BMatC= 1.14D-05 BMatP= 6.26D-05
 IDIUse=3 WtCom= 9.97D-01 WtEn= 2.74D-03
 Coeff-Com:  0.181D-01-0.367D-01-0.705D-01-0.882D-01 0.197D+00 0.981D+00
 Coeff-En:   0.000D+00 0.000D+00 0.000D+00 0.000D+00 0.000D+00 0.100D+01
 Coeff:      0.181D-01-0.366D-01-0.703D-01-0.880D-01 0.196D+00 0.981D+00
 Gap=     0.238 Goal=   None    Shift=    0.000
 RMSDP=4.16D-05 MaxDP=1.98D-03 DE=-1.51D-04 OVMax= 5.11D-03

 Cycle   7  Pass 1  IDiag  1:
 RMSU=  1.98D-05    CP:  9.90D-01  1.33D+00  9.56D-01  9.05D-01  1.36D+00
                    CP:  1.35D+00
 E= -1028.70147159728     Delta-E=       -0.000043845357 Rises=F Damp=F
 DIIS: error= 7.87D-05 at cycle   7 NSaved=   7.
 NSaved= 7 IEnMin= 7 EnMin= -1028.70147159728     IErMin= 7 ErrMin= 7.87D-05
 ErrMax= 7.87D-05  0.00D+00 EMaxC= 1.00D-01 BMatC= 2.65D-06 BMatP= 1.14D-05
 IDIUse=1 WtCom= 1.00D+00 WtEn= 0.00D+00
 Coeff-Com:  0.705D-02-0.133D-01-0.285D-01-0.539D-01-0.252D-01 0.409D+00
 Coeff-Com:  0.705D+00
 Coeff:      0.705D-02-0.133D-01-0.285D-01-0.539D-01-0.252D-01 0.409D+00
 Coeff:      0.705D+00
 Gap=     0.238 Goal=   None    Shift=    0.000
 RMSDP=1.40D-05 MaxDP=4.98D-04 DE=-4.38D-05 OVMax= 1.56D-03

 Cycle   8  Pass 1  IDiag  1:
 RMSU=  8.25D-06    CP:  9.90D-01  1.33D+00  9.57D-01  9.12D-01  1.40D+00
                    CP:  1.57D+00  1.13D+00
 E= -1028.70147786309     Delta-E=       -0.000006265816 Rises=F Damp=F
 DIIS: error= 6.28D-05 at cycle   8 NSaved=   8.
 NSaved= 8 IEnMin= 8 EnMin= -1028.70147786309     IErMin= 8 ErrMin= 6.28D-05
 ErrMax= 6.28D-05  0.00D+00 EMaxC= 1.00D-01 BMatC= 4.22D-07 BMatP= 2.65D-06
 IDIUse=1 WtCom= 1.00D+00 WtEn= 0.00D+00
 Coeff-Com: -0.155D-02 0.338D-02 0.707D-02 0.194D-02-0.417D-01-0.894D-01
 Coeff-Com:  0.202D+00 0.918D+00
 Coeff:     -0.155D-02 0.338D-02 0.707D-02 0.194D-02-0.417D-01-0.894D-01
 Coeff:      0.202D+00 0.918D+00
 Gap=     0.238 Goal=   None    Shift=    0.000
 RMSDP=7.99D-06 MaxDP=2.27D-04 DE=-6.27D-06 OVMax= 1.34D-03

 Cycle   9  Pass 1  IDiag  1:
 RMSU=  3.37D-06    CP:  9.90D-01  1.33D+00  9.57D-01  9.11D-01  1.42D+00
                    CP:  1.68D+00  1.39D+00  1.16D+00
 E= -1028.70147966835     Delta-E=       -0.000001805261 Rises=F Damp=F
 DIIS: error= 1.82D-05 at cycle   9 NSaved=   9.
 NSaved= 9 IEnMin= 9 EnMin= -1028.70147966835     IErMin= 9 ErrMin= 1.82D-05
 ErrMax= 1.82D-05  0.00D+00 EMaxC= 1.00D-01 BMatC= 1.39D-07 BMatP= 4.22D-07
 IDIUse=1 WtCom= 1.00D+00 WtEn= 0.00D+00
 Coeff-Com: -0.157D-02 0.309D-02 0.709D-02 0.839D-02-0.129D-01-0.104D+00
 Coeff-Com: -0.605D-01 0.382D+00 0.779D+00
 Coeff:     -0.157D-02 0.309D-02 0.709D-02 0.839D-02-0.129D-01-0.104D+00
 Coeff:     -0.605D-01 0.382D+00 0.779D+00
 Gap=     0.238 Goal=   None    Shift=    0.000
 RMSDP=4.20D-06 MaxDP=1.40D-04 DE=-1.81D-06 OVMax= 5.86D-04

 Cycle  10  Pass 1  IDiag  1:
 RMSU=  1.64D-06    CP:  9.90D-01  1.33D+00  9.57D-01  9.11D-01  1.43D+00
                    CP:  1.74D+00  1.48D+00  1.43D+00  1.17D+00
 E= -1028.70148009211     Delta-E=       -0.000000423757 Rises=F Damp=F
 DIIS: error= 1.21D-05 at cycle  10 NSaved=  10.
 NSaved=10 IEnMin=10 EnMin= -1028.70148009211     IErMin=10 ErrMin= 1.21D-05
 ErrMax= 1.21D-05  0.00D+00 EMaxC= 1.00D-01 BMatC= 2.19D-08 BMatP= 1.39D-07
 IDIUse=1 WtCom= 1.00D+00 WtEn= 0.00D+00
 Coeff-Com:  0.635D-04-0.201D-03 0.939D-04 0.137D-02 0.808D-02-0.890D-02
 Coeff-Com: -0.834D-01-0.807D-01 0.274D+00 0.890D+00
 Coeff:      0.635D-04-0.201D-03 0.939D-04 0.137D-02 0.808D-02-0.890D-02
 Coeff:     -0.834D-01-0.807D-01 0.274D+00 0.890D+00
 Gap=     0.238 Goal=   None    Shift=    0.000
 RMSDP=2.03D-06 MaxDP=5.13D-05 DE=-4.24D-07 OVMax= 3.64D-04

 Cycle  11  Pass 1  IDiag  1:
 RMSU=  6.30D-07    CP:  9.90D-01  1.33D+00  9.57D-01  9.12D-01  1.43D+00
                    CP:  1.76D+00  1.53D+00  1.54D+00  1.48D+00  1.19D+00
 E= -1028.70148018886     Delta-E=       -0.000000096752 Rises=F Damp=F
 DIIS: error= 3.92D-06 at cycle  11 NSaved=  11.
 NSaved=11 IEnMin=11 EnMin= -1028.70148018886     IErMin=11 ErrMin= 3.92D-06
 ErrMax= 3.92D-06  0.00D+00 EMaxC= 1.00D-01 BMatC= 4.65D-09 BMatP= 2.19D-08
 IDIUse=1 WtCom= 1.00D+00 WtEn= 0.00D+00
 Coeff-Com:  0.288D-03-0.593D-03-0.107D-02-0.968D-03 0.541D-02 0.136D-01
 Coeff-Com: -0.227D-01-0.806D-01-0.496D-01 0.300D+00 0.836D+00
 Coeff:      0.288D-03-0.593D-03-0.107D-02-0.968D-03 0.541D-02 0.136D-01
 Coeff:     -0.227D-01-0.806D-01-0.496D-01 0.300D+00 0.836D+00
 Gap=     0.238 Goal=   None    Shift=    0.000
 RMSDP=7.82D-07 MaxDP=2.20D-05 DE=-9.68D-08 OVMax= 1.22D-04

 Cycle  12  Pass 1  IDiag  1:
 RMSU=  2.50D-07    CP:  9.90D-01  1.33D+00  9.57D-01  9.12D-01  1.43D+00
                    CP:  1.77D+00  1.54D+00  1.59D+00  1.58D+00  1.43D+00
                    CP:  1.17D+00
 E= -1028.70148020295     Delta-E=       -0.000000014093 Rises=F Damp=F
 DIIS: error= 1.48D-06 at cycle  12 NSaved=  12.
 NSaved=12 IEnMin=12 EnMin= -1028.70148020295     IErMin=12 ErrMin= 1.48D-06
 ErrMax= 1.48D-06  0.00D+00 EMaxC= 1.00D-01 BMatC= 6.22D-10 BMatP= 4.65D-09
 IDIUse=1 WtCom= 1.00D+00 WtEn= 0.00D+00
 Coeff-Com:  0.121D-03-0.234D-03-0.498D-03-0.854D-03 0.752D-03 0.800D-02
 Coeff-Com:  0.707D-02-0.132D-01-0.801D-01-0.584D-01 0.273D+00 0.864D+00
 Coeff:      0.121D-03-0.234D-03-0.498D-03-0.854D-03 0.752D-03 0.800D-02
 Coeff:      0.707D-02-0.132D-01-0.801D-01-0.584D-01 0.273D+00 0.864D+00
 Gap=     0.238 Goal=   None    Shift=    0.000
 RMSDP=3.25D-07 MaxDP=8.34D-06 DE=-1.41D-08 OVMax= 5.19D-05

 Cycle  13  Pass 1  IDiag  1:
 RMSU=  9.43D-08    CP:  9.90D-01  1.33D+00  9.57D-01  9.12D-01  1.43D+00
                    CP:  1.77D+00  1.54D+00  1.60D+00  1.63D+00  1.52D+00
                    CP:  1.40D+00  1.09D+00
 E= -1028.70148020521     Delta-E=       -0.000000002254 Rises=F Damp=F
 DIIS: error= 5.30D-07 at cycle  13 NSaved=  13.
 NSaved=13 IEnMin=13 EnMin= -1028.70148020521     IErMin=13 ErrMin= 5.30D-07
 ErrMax= 5.30D-07  0.00D+00 EMaxC= 1.00D-01 BMatC= 6.47D-11 BMatP= 6.22D-10
 IDIUse=1 WtCom= 1.00D+00 WtEn= 0.00D+00
 Coeff-Com: -0.142D-04 0.308D-04 0.523D-04-0.374D-04-0.294D-03 0.560D-04
 Coeff-Com:  0.295D-02 0.681D-02-0.896D-02-0.396D-01-0.693D-01 0.168D+00
 Coeff-Com:  0.940D+00
 Coeff:     -0.142D-04 0.308D-04 0.523D-04-0.374D-04-0.294D-03 0.560D-04
 Coeff:      0.295D-02 0.681D-02-0.896D-02-0.396D-01-0.693D-01 0.168D+00
 Coeff:      0.940D+00
 Gap=     0.238 Goal=   None    Shift=    0.000
 RMSDP=9.34D-08 MaxDP=2.12D-06 DE=-2.25D-09 OVMax= 1.15D-05

 Cycle  14  Pass 1  IDiag  1:
 RMSU=  3.40D-08    CP:  9.90D-01  1.33D+00  9.57D-01  9.12D-01  1.43D+00
                    CP:  1.77D+00  1.54D+00  1.61D+00  1.64D+00  1.55D+00
                    CP:  1.45D+00  1.25D+00  1.19D+00
 E= -1028.70148020540     Delta-E=       -0.000000000191 Rises=F Damp=F
 DIIS: error= 1.58D-07 at cycle  14 NSaved=  14.
 NSaved=14 IEnMin=14 EnMin= -1028.70148020540     IErMin=14 ErrMin= 1.58D-07
 ErrMax= 1.58D-07  0.00D+00 EMaxC= 1.00D-01 BMatC= 7.42D-12 BMatP= 6.47D-11
 IDIUse=1 WtCom= 1.00D+00 WtEn= 0.00D+00
 Coeff-Com: -0.135D-04 0.270D-04 0.555D-04 0.536D-04-0.152D-03-0.646D-03
 Coeff-Com:  0.161D-03 0.341D-02 0.412D-02-0.512D-02-0.444D-01-0.243D-01
 Coeff-Com:  0.306D+00 0.760D+00
 Coeff:     -0.135D-04 0.270D-04 0.555D-04 0.536D-04-0.152D-03-0.646D-03
 Coeff:      0.161D-03 0.341D-02 0.412D-02-0.512D-02-0.444D-01-0.243D-01
 Coeff:      0.306D+00 0.760D+00
 Gap=     0.238 Goal=   None    Shift=    0.000
 RMSDP=1.89D-08 MaxDP=5.30D-07 DE=-1.91D-10 OVMax= 2.34D-06

 Cycle  15  Pass 1  IDiag  1:
 RMSU=  1.13D-08    CP:  9.90D-01  1.33D+00  9.57D-01  9.12D-01  1.43D+00
                    CP:  1.77D+00  1.54D+00  1.61D+00  1.64D+00  1.55D+00
                    CP:  1.46D+00  1.28D+00  1.31D+00  1.11D+00
 E= -1028.70148020541     Delta-E=       -0.000000000012 Rises=F Damp=F
 DIIS: error= 7.20D-08 at cycle  15 NSaved=  15.
 NSaved=15 IEnMin=15 EnMin= -1028.70148020541     IErMin=15 ErrMin= 7.20D-08
 ErrMax= 7.20D-08  0.00D+00 EMaxC= 1.00D-01 BMatC= 1.25D-12 BMatP= 7.42D-12
 IDIUse=1 WtCom= 1.00D+00 WtEn= 0.00D+00
 Coeff-Com: -0.238D-05 0.426D-05 0.118D-04 0.319D-04-0.361D-05-0.293D-03
 Coeff-Com: -0.619D-03-0.105D-03 0.346D-02 0.703D-02-0.151D-02-0.514D-01
 Coeff-Com: -0.884D-01 0.224D+00 0.908D+00
 Coeff:     -0.238D-05 0.426D-05 0.118D-04 0.319D-04-0.361D-05-0.293D-03
 Coeff:     -0.619D-03-0.105D-03 0.346D-02 0.703D-02-0.151D-02-0.514D-01
 Coeff:     -0.884D-01 0.224D+00 0.908D+00
 Gap=     0.238 Goal=   None    Shift=    0.000
 RMSDP=1.19D-08 MaxDP=2.92D-07 DE=-1.16D-11 OVMax= 1.42D-06

 Cycle  16  Pass 1  IDiag  1:
 RMSU=  4.93D-09    CP:  9.90D-01  1.33D+00  9.57D-01  9.12D-01  1.43D+00
                    CP:  1.77D+00  1.54D+00  1.61D+00  1.64D+00  1.55D+00
                    CP:  1.46D+00  1.29D+00  1.37D+00  1.30D+00  1.19D+00
 E= -1028.70148020541     Delta-E=       -0.000000000003 Rises=F Damp=F
 DIIS: error= 2.95D-08 at cycle  16 NSaved=  16.
 NSaved=16 IEnMin=16 EnMin= -1028.70148020541     IErMin=16 ErrMin= 2.95D-08
 ErrMax= 2.95D-08  0.00D+00 EMaxC= 1.00D-01 BMatC= 1.40D-13 BMatP= 1.25D-12
 IDIUse=1 WtCom= 1.00D+00 WtEn= 0.00D+00
 Coeff-Com:  0.567D-06-0.125D-05-0.166D-05 0.334D-05 0.918D-05-0.226D-04
 Coeff-Com: -0.173D-03-0.321D-03 0.406D-03 0.211D-02 0.384D-02-0.113D-01
 Coeff-Com: -0.459D-01-0.262D-01 0.250D+00 0.828D+00
 Coeff:      0.567D-06-0.125D-05-0.166D-05 0.334D-05 0.918D-05-0.226D-04
 Coeff:     -0.173D-03-0.321D-03 0.406D-03 0.211D-02 0.384D-02-0.113D-01
 Coeff:     -0.459D-01-0.262D-01 0.250D+00 0.828D+00
 Gap=     0.238 Goal=   None    Shift=    0.000
 RMSDP=3.46D-09 MaxDP=1.11D-07 DE=-3.41D-12 OVMax= 4.74D-07

 Error on total polarization charges =  0.00865
 SCF Done:  E(RwB97XD) =  -1028.70148021     A.U. after   16 cycles
            NFock= 16  Conv=0.35D-08     -V/T= 2.0041
 KE= 1.024454735864D+03 PE=-4.614731649765D+03 EE= 1.460259318804D+03
 Leave Link  502 at Tue Oct 27 22:31:43 2020, MaxMem=  7784628224 cpu:             878.3 elap:              88.5
 (Enter /gpfs/loomis/apps/avx/software/Gaussian/16-C.01_AVX/g16/l601.exe)
 Copying SCF densities to generalized density rwf, IOpCl= 0 IROHF=0.

 **********************************************************************

            Population analysis using the SCF Density.

 **********************************************************************

 Alpha  occ. eigenvalues --  -89.10752 -19.20463 -14.50689 -10.41847 -10.37823
 Alpha  occ. eigenvalues --  -10.36503 -10.35566 -10.33506 -10.33037 -10.32643
 Alpha  occ. eigenvalues --  -10.32480 -10.31399 -10.30713 -10.30676 -10.29193
 Alpha  occ. eigenvalues --  -10.28286  -8.12751  -6.07627  -6.07261  -6.06761
 Alpha  occ. eigenvalues --   -1.15056  -1.09215  -0.99266  -0.96100  -0.93591
 Alpha  occ. eigenvalues --   -0.89301  -0.87299  -0.83890  -0.81197  -0.77737
 Alpha  occ. eigenvalues --   -0.75476  -0.72297  -0.69475  -0.67805  -0.65804
 Alpha  occ. eigenvalues --   -0.60873  -0.59798  -0.56873  -0.56382  -0.56151
 Alpha  occ. eigenvalues --   -0.55086  -0.53744  -0.53148  -0.50587  -0.49306
 Alpha  occ. eigenvalues --   -0.48831  -0.48612  -0.47012  -0.45531  -0.44909
 Alpha  occ. eigenvalues --   -0.44180  -0.43044  -0.42528  -0.40086  -0.36832
 Alpha  occ. eigenvalues --   -0.33859  -0.31631  -0.31258  -0.25767
 Alpha virt. eigenvalues --   -0.01954   0.03556   0.05465   0.06069   0.09492
 Alpha virt. eigenvalues --    0.10618   0.13662   0.14639   0.16431   0.17388
 Alpha virt. eigenvalues --    0.18930   0.20126   0.21151   0.21302   0.23185
 Alpha virt. eigenvalues --    0.23612   0.24194   0.25772   0.28466   0.30162
 Alpha virt. eigenvalues --    0.30625   0.33963   0.35665   0.35819   0.36676
 Alpha virt. eigenvalues --    0.38138   0.39432   0.39889   0.41810   0.44902
 Alpha virt. eigenvalues --    0.46697   0.48739   0.50881   0.51104   0.51390
 Alpha virt. eigenvalues --    0.52798   0.52888   0.52943   0.54164   0.55569
 Alpha virt. eigenvalues --    0.56274   0.56431   0.56484   0.57061   0.57723
 Alpha virt. eigenvalues --    0.57941   0.59031   0.59475   0.59654   0.60755
 Alpha virt. eigenvalues --    0.61231   0.61605   0.62065   0.62658   0.63060
 Alpha virt. eigenvalues --    0.64662   0.66790   0.67093   0.68670   0.69576
 Alpha virt. eigenvalues --    0.70256   0.70759   0.72006   0.72253   0.73001
 Alpha virt. eigenvalues --    0.74384   0.75268   0.76066   0.76792   0.78765
 Alpha virt. eigenvalues --    0.78822   0.79609   0.81434   0.81499   0.83378
 Alpha virt. eigenvalues --    0.85615   0.88427   0.90621   0.91552   0.92487
 Alpha virt. eigenvalues --    0.93871   0.94487   0.96133   0.97445   0.97791
 Alpha virt. eigenvalues --    0.98862   0.99490   1.00442   1.00798   1.01248
 Alpha virt. eigenvalues --    1.02677   1.05156   1.05987   1.06115   1.07263
 Alpha virt. eigenvalues --    1.08590   1.09169   1.10184   1.11209   1.11354
 Alpha virt. eigenvalues --    1.12692   1.12925   1.13545   1.14543   1.15447
 Alpha virt. eigenvalues --    1.17285   1.18972   1.20254   1.23263   1.24195
 Alpha virt. eigenvalues --    1.26866   1.27224   1.31545   1.33647   1.33668
 Alpha virt. eigenvalues --    1.34605   1.36714   1.38178   1.41229   1.45077
 Alpha virt. eigenvalues --    1.49293   1.49352   1.53221   1.54777   1.55257
 Alpha virt. eigenvalues --    1.55879   1.57337   1.57424   1.57745   1.59827
 Alpha virt. eigenvalues --    1.60370   1.62222   1.62589   1.65367   1.67776
 Alpha virt. eigenvalues --    1.68690   1.70094   1.71437   1.71774   1.71979
 Alpha virt. eigenvalues --    1.72412   1.73609   1.73722   1.74988   1.75429
 Alpha virt. eigenvalues --    1.78538   1.78849   1.80516   1.81923   1.82299
 Alpha virt. eigenvalues --    1.83658   1.84676   1.84756   1.85452   1.86568
 Alpha virt. eigenvalues --    1.86961   1.90019   1.91459   1.92135   1.92431
 Alpha virt. eigenvalues --    1.94113   1.94398   1.95745   1.96392   1.98430
 Alpha virt. eigenvalues --    2.00559   2.01209   2.02361   2.05058   2.06005
 Alpha virt. eigenvalues --    2.06993   2.07705   2.09949   2.11057   2.14244
 Alpha virt. eigenvalues --    2.17723   2.20131   2.22705   2.24228   2.27307
 Alpha virt. eigenvalues --    2.27945   2.29965   2.35026   2.37752   2.39529
 Alpha virt. eigenvalues --    2.40903   2.42854   2.46620   2.48868   2.50494
 Alpha virt. eigenvalues --    2.52402   2.54857   2.61772   2.63109   2.65150
 Alpha virt. eigenvalues --    2.68623   2.71970   2.73935   2.78629   2.80290
 Alpha virt. eigenvalues --    2.81860   2.82360   2.83566   2.88804   2.93277
 Alpha virt. eigenvalues --    2.93928   3.03754   3.17544   3.32960   3.49709
 Alpha virt. eigenvalues --    3.52827   3.59061   3.69639   4.10159
          Condensed to atoms (all electrons):
               1          2          3          4          5          6
     1  C    4.733923   0.482784   0.011500  -0.052701  -0.010841   0.508518
     2  C    0.482784   5.389709   0.260449  -0.065201  -0.074214  -0.002758
     3  C    0.011500   0.260449   4.908064   0.521556  -0.001216  -0.069786
     4  C   -0.052701  -0.065201   0.521556   4.799317   0.516503  -0.013354
     5  C   -0.010841  -0.074214  -0.001216   0.516503   4.724751   0.501140
     6  C    0.508518  -0.002758  -0.069786  -0.013354   0.501140   4.734537
     7  H    0.404884  -0.040473   0.009380  -0.000587   0.008164  -0.038773
     8  H   -0.000591   0.010804  -0.024794   0.394052  -0.041133   0.007361
     9  H    0.008657  -0.000356   0.008197  -0.038155   0.405594  -0.043638
    10  H   -0.042667   0.009579  -0.000554   0.008650  -0.042569   0.407828
    11  N    0.003606  -0.036468   0.412293  -0.053629   0.002419   0.000383
    12  S   -0.067197   0.338489  -0.137739   0.003535   0.000109   0.004320
    13  C   -0.000239  -0.000453   0.015706  -0.000159   0.000016  -0.000002
    14  C   -0.000007   0.000031   0.000409   0.000008  -0.000000  -0.000000
    15  C    0.000003  -0.000179   0.000327   0.000004  -0.000001   0.000000
    16  C    0.000000  -0.000003   0.000003  -0.000000   0.000000   0.000000
    17  H   -0.000005   0.000112  -0.000001   0.000000   0.000000   0.000000
    18  C    0.000000   0.000011  -0.000047  -0.000001  -0.000000  -0.000000
    19  C   -0.000000  -0.000000   0.000002  -0.000000  -0.000000   0.000000
    20  H   -0.000000  -0.000000  -0.000000   0.000000   0.000000  -0.000000
    21  H   -0.000000   0.000000  -0.000001  -0.000000  -0.000000   0.000000
    22  H    0.000000  -0.000000  -0.000000  -0.000000   0.000000  -0.000000
    23  C    0.003403  -0.055237  -0.093230   0.004752   0.000397  -0.000403
    24  O    0.000002  -0.000217  -0.000896   0.000100   0.000001  -0.000000
    25  H    0.000276   0.018805  -0.034202  -0.018932  -0.000457  -0.000016
               7          8          9         10         11         12
     1  C    0.404884  -0.000591   0.008657  -0.042667   0.003606  -0.067197
     2  C   -0.040473   0.010804  -0.000356   0.009579  -0.036468   0.338489
     3  C    0.009380  -0.024794   0.008197  -0.000554   0.412293  -0.137739
     4  C   -0.000587   0.394052  -0.038155   0.008650  -0.053629   0.003535
     5  C    0.008164  -0.041133   0.405594  -0.042569   0.002419   0.000109
     6  C   -0.038773   0.007361  -0.043638   0.407828   0.000383   0.004320
     7  H    0.649216   0.000028  -0.000143  -0.011580  -0.000101  -0.007279
     8  H    0.000028   0.637807  -0.011751  -0.000114  -0.005759  -0.000247
     9  H   -0.000143  -0.011751   0.655735  -0.012225  -0.000098   0.000022
    10  H   -0.011580  -0.000114  -0.012225   0.656423   0.000005  -0.000137
    11  N   -0.000101  -0.005759  -0.000098   0.000005   5.727796  -0.043128
    12  S   -0.007279  -0.000247   0.000022  -0.000137  -0.043128  15.447527
    13  C    0.000004   0.000049  -0.000000  -0.000000  -0.022872  -0.071022
    14  C    0.000001   0.000001   0.000000  -0.000000   0.003731  -0.007427
    15  C   -0.000000  -0.000009   0.000000   0.000000  -0.006302   0.004451
    16  C    0.000000  -0.000000  -0.000000  -0.000000  -0.000084   0.000078
    17  H    0.000001   0.000000   0.000000  -0.000000   0.000261   0.006736
    18  C    0.000000  -0.000000  -0.000000  -0.000000  -0.000651  -0.000109
    19  C    0.000000   0.000000  -0.000000   0.000000   0.000025   0.000016
    20  H    0.000000  -0.000000   0.000000   0.000000   0.000001   0.000001
    21  H   -0.000000   0.000000  -0.000000   0.000000   0.000005   0.000003
    22  H    0.000000  -0.000000  -0.000000  -0.000000  -0.000000  -0.000000
    23  C    0.000217  -0.000641   0.000007   0.000004   0.499603   0.307133
    24  O    0.000000  -0.000187   0.000000  -0.000000  -0.028095  -0.000080
    25  H    0.000009   0.000931  -0.000017  -0.000000   0.378924   0.007851
              13         14         15         16         17         18
     1  C   -0.000239  -0.000007   0.000003   0.000000  -0.000005   0.000000
     2  C   -0.000453   0.000031  -0.000179  -0.000003   0.000112   0.000011
     3  C    0.015706   0.000409   0.000327   0.000003  -0.000001  -0.000047
     4  C   -0.000159   0.000008   0.000004  -0.000000   0.000000  -0.000001
     5  C    0.000016  -0.000000  -0.000001   0.000000   0.000000  -0.000000
     6  C   -0.000002  -0.000000   0.000000   0.000000   0.000000  -0.000000
     7  H    0.000004   0.000001  -0.000000   0.000000   0.000001   0.000000
     8  H    0.000049   0.000001  -0.000009  -0.000000   0.000000  -0.000000
     9  H   -0.000000   0.000000   0.000000  -0.000000   0.000000  -0.000000
    10  H   -0.000000  -0.000000   0.000000  -0.000000  -0.000000  -0.000000
    11  N   -0.022872   0.003731  -0.006302  -0.000084   0.000261  -0.000651
    12  S   -0.071022  -0.007427   0.004451   0.000078   0.006736  -0.000109
    13  C    5.522650   0.423228   0.159675  -0.003801  -0.043095  -0.040906
    14  C    0.423228   4.866940   0.012892   0.538000   0.400179  -0.065308
    15  C    0.159675   0.012892   4.727507  -0.056036   0.006253   0.453395
    16  C   -0.003801   0.538000  -0.056036   4.769456  -0.032034  -0.016838
    17  H   -0.043095   0.400179   0.006253  -0.032034   0.682171  -0.001006
    18  C   -0.040906  -0.065308   0.453395  -0.016838  -0.001006   4.925094
    19  C   -0.052800  -0.016770  -0.003585   0.473066   0.008465   0.490867
    20  H    0.009235  -0.036734  -0.000161   0.400071  -0.012199   0.008404
    21  H    0.016030  -0.000628  -0.024056   0.007745   0.000056   0.370734
    22  H   -0.001702   0.009737   0.008595  -0.046901  -0.000203  -0.039072
    23  C    0.337440  -0.101012  -0.068619   0.006485  -0.020805   0.011960
    24  O   -0.099813   0.006468   0.679209  -0.000200  -0.000076  -0.069198
    25  H   -0.056695  -0.000872  -0.004745   0.000071  -0.000093   0.003972
              19         20         21         22         23         24
     1  C   -0.000000  -0.000000  -0.000000   0.000000   0.003403   0.000002
     2  C   -0.000000  -0.000000   0.000000  -0.000000  -0.055237  -0.000217
     3  C    0.000002  -0.000000  -0.000001  -0.000000  -0.093230  -0.000896
     4  C   -0.000000   0.000000  -0.000000  -0.000000   0.004752   0.000100
     5  C   -0.000000   0.000000  -0.000000   0.000000   0.000397   0.000001
     6  C    0.000000  -0.000000   0.000000  -0.000000  -0.000403  -0.000000
     7  H    0.000000   0.000000  -0.000000   0.000000   0.000217   0.000000
     8  H    0.000000  -0.000000   0.000000  -0.000000  -0.000641  -0.000187
     9  H   -0.000000   0.000000  -0.000000  -0.000000   0.000007   0.000000
    10  H    0.000000   0.000000   0.000000  -0.000000   0.000004  -0.000000
    11  N    0.000025   0.000001   0.000005  -0.000000   0.499603  -0.028095
    12  S    0.000016   0.000001   0.000003  -0.000000   0.307133  -0.000080
    13  C   -0.052800   0.009235   0.016030  -0.001702   0.337440  -0.099813
    14  C   -0.016770  -0.036734  -0.000628   0.009737  -0.101012   0.006468
    15  C   -0.003585  -0.000161  -0.024056   0.008595  -0.068619   0.679209
    16  C    0.473066   0.400071   0.007745  -0.046901   0.006485  -0.000200
    17  H    0.008465  -0.012199   0.000056  -0.000203  -0.020805  -0.000076
    18  C    0.490867   0.008404   0.370734  -0.039072   0.011960  -0.069198
    19  C    4.754246  -0.047487  -0.047805   0.402694   0.000170   0.004946
    20  H   -0.047487   0.690859  -0.000170  -0.012718  -0.000392   0.000001
    21  H   -0.047805  -0.000170   0.685458  -0.012969  -0.000496   0.005820
    22  H    0.402694  -0.012718  -0.012969   0.679256   0.000011  -0.000082
    23  C    0.000170  -0.000392  -0.000496   0.000011   5.140507  -0.017855
    24  O    0.004946   0.000001   0.005820  -0.000082  -0.017855   7.836517
    25  H   -0.000361  -0.000000  -0.000000   0.000005   0.026620   0.075191
              25
     1  C    0.000276
     2  C    0.018805
     3  C   -0.034202
     4  C   -0.018932
     5  C   -0.000457
     6  C   -0.000016
     7  H    0.000009
     8  H    0.000931
     9  H   -0.000017
    10  H   -0.000000
    11  N    0.378924
    12  S    0.007851
    13  C   -0.056695
    14  C   -0.000872
    15  C   -0.004745
    16  C    0.000071
    17  H   -0.000093
    18  C    0.003972
    19  C   -0.000361
    20  H   -0.000000
    21  H   -0.000000
    22  H    0.000005
    23  C    0.026620
    24  O    0.075191
    25  H    0.709596
 Mulliken charges:
               1
     1  C    0.016691
     2  C   -0.235213
     3  C    0.214580
     4  C   -0.005759
     5  C    0.011337
     6  C    0.004642
     7  H    0.027034
     8  H    0.034195
     9  H    0.028173
    10  H    0.027358
    11  N    0.168134
    12  S    0.214092
    13  C   -0.090475
    14  C   -0.032866
    15  C    0.111383
    16  C   -0.039078
    17  H    0.005281
    18  C   -0.031302
    19  C    0.034310
    20  H    0.001289
    21  H    0.000276
    22  H    0.013349
    23  C    0.019983
    24  O   -0.391555
    25  H   -0.105859
 Sum of Mulliken charges =  -0.00000
 Mulliken charges with hydrogens summed into heavy atoms:
               1
     1  C    0.043725
     2  C   -0.235213
     3  C    0.214580
     4  C    0.028435
     5  C    0.039510
     6  C    0.032000
    11  N    0.062275
    12  S    0.214092
    13  C   -0.090475
    14  C   -0.027584
    15  C    0.111383
    16  C   -0.037788
    18  C   -0.031026
    19  C    0.047658
    23  C    0.019983
    24  O   -0.391555
 Electronic spatial extent (au):  <R**2>=           4335.3109
 Charge=             -0.0000 electrons
 Dipole moment (field-independent basis, Debye):
    X=              1.7391    Y=             -5.9173    Z=             -0.0001  Tot=              6.1676
 Quadrupole moment (field-independent basis, Debye-Ang):
   XX=            -82.3760   YY=            -94.7898   ZZ=           -103.8757
   XY=             -6.7476   XZ=             -0.0001   YZ=             -0.0000
 Traceless Quadrupole moment (field-independent basis, Debye-Ang):
   XX=             11.3045   YY=             -1.1093   ZZ=            -10.1952
   XY=             -6.7476   XZ=             -0.0001   YZ=             -0.0000
 Octapole moment (field-independent basis, Debye-Ang**2):
  XXX=             38.4725  YYY=            -60.2995  ZZZ=             -0.0001  XYY=              2.9365
  XXY=            -10.6307  XXZ=             -0.0001  XZZ=              2.6761  YZZ=              1.9615
  YYZ=             -0.0000  XYZ=             -0.0005
 Hexadecapole moment (field-independent basis, Debye-Ang**3):
 XXXX=          -2604.2121 YYYY=          -2657.9249 ZZZZ=           -112.7524 XXXY=            815.3353
 XXXZ=              0.0097 YYYX=            776.1926 YYYZ=             -0.0138 ZZZX=              0.0135
 ZZZY=             -0.0180 XXYY=           -849.0139 XXZZ=           -572.2528 YYZZ=           -546.2476
 XXYZ=             -0.0035 YYXZ=              0.0012 ZZXY=            358.9394
 N-N= 1.101316114892D+03 E-N=-4.614731650046D+03  KE= 1.024454735864D+03
 No NMR shielding tensors so no spin-rotation constants.
 Leave Link  601 at Tue Oct 27 22:31:44 2020, MaxMem=  7784628224 cpu:               3.6 elap:               0.4
 (Enter /gpfs/loomis/apps/avx/software/Gaussian/16-C.01_AVX/g16/l701.exe)
 ... and contract with generalized density number  0.
 Compute integral first derivatives.
 R6Disp: Adding Grimme-D2 dispersion energy 1st derivatives to the gradient.
 D1PCM: PCM CHGder 1st derivatives, ID1Alg=3 FixD1E=F DoIter=F DoCFld=F I1PDM=0.
 GePol: Maximum number of non-zero 1st derivatives   =     260
 Leave Link  701 at Tue Oct 27 22:31:45 2020, MaxMem=  7784628224 cpu:              14.1 elap:               1.4
 (Enter /gpfs/loomis/apps/avx/software/Gaussian/16-C.01_AVX/g16/l702.exe)
 L702 exits ... SP integral derivatives will be done elsewhere.
 Leave Link  702 at Tue Oct 27 22:31:45 2020, MaxMem=  7784628224 cpu:               0.2 elap:               0.0
 (Enter /gpfs/loomis/apps/avx/software/Gaussian/16-C.01_AVX/g16/l703.exe)
 Integral derivatives from FoFJK, PRISM(SPDF).
 Compute integral first derivatives, UseDBF=F ICtDFT=           0.
 Calling FoFJK, ICntrl=      2127 FMM=F ISym2X=0 I1Cent= 0 IOpClX= 0 NMat=1 NMatS=1 NMatT=0.
 FoFJK:  IHMeth= 1 ICntrl=    2127 DoSepK=T KAlg= 0 I1Cent=           0 FoldK=F
 IRaf=         1 NMat=       1 IRICut=       1 DoRegI=T DoRafI=F ISym2E= 0 IDoP0=0 IntGTp=1.
 FoFCou: FMM=F IPFlag=           0 FMFlag=      100000 FMFlg1=         800
         NFxFlg=           0 DoJE=F BraDBF=F KetDBF=F FulRan=T
         wScrn=  0.000000 ICntrl=      2527 IOpCl=  0 I1Cent=           0 NGrid=           0
         NMat0=    1 NMatS0=      1 NMatT0=    0 NMatD0=    1 NMtDS0=    0 NMtDT0=    0
 Symmetry not used in FoFCou.
 Leave Link  703 at Tue Oct 27 22:31:59 2020, MaxMem=  7784628224 cpu:             137.1 elap:              13.8
 (Enter /gpfs/loomis/apps/avx/software/Gaussian/16-C.01_AVX/g16/l716.exe)
 Dipole        = 6.84208898D-01-2.32805486D+00-3.26176001D-05
 -------------------------------------------------------------------
 Center     Atomic                   Forces (Hartrees/Bohr)
 Number     Number              X              Y              Z
 -------------------------------------------------------------------
      1        6           0.000388651    0.002711593   -0.000000006
      2        6           0.008067941    0.004761327   -0.000000149
      3        6          -0.000284425   -0.011096655   -0.000000284
      4        6           0.000590306    0.001589415    0.000000087
      5        6           0.001102846    0.000871927    0.000000029
      6        6          -0.001562531    0.001460666   -0.000000040
      7        1           0.000224877    0.000391983   -0.000000046
      8        1           0.000141773   -0.000217145    0.000000009
      9        1          -0.000232230    0.000027136   -0.000000002
     10        1          -0.000086708    0.000120093   -0.000000000
     11        7          -0.141242492   -0.552469356   -0.000012299
     12       16           0.006037412    0.008667540   -0.000000212
     13        6           0.034679002    0.007181766   -0.000000330
     14        6          -0.050346569    0.025399902    0.000000507
     15        6           0.009432081   -0.014338819   -0.000000199
     16        6           0.007367661   -0.046936927   -0.000000881
     17        1          -0.000997877   -0.000283643    0.000000002
     18        6          -0.023898644    0.001435716    0.000000443
     19        6           0.033027598    0.011490924    0.000000111
     20        1           0.000269812   -0.000339143   -0.000000016
     21        1          -0.000780413    0.000227523   -0.000000153
     22        1          -0.000441921    0.001236216    0.000000004
     23        6          -0.006835145    0.026982176    0.000000924
     24        8          -0.004461921    0.013974181    0.000000023
     25        1           0.129840917    0.517151604    0.000012481
 -------------------------------------------------------------------
 Cartesian Forces:  Max     0.552469356 RMS     0.090891279
 Leave Link  716 at Tue Oct 27 22:31:59 2020, MaxMem=  7784628224 cpu:               0.3 elap:               0.0
 (Enter /gpfs/loomis/apps/avx/software/Gaussian/16-C.01_AVX/g16/l103.exe)

 GradGradGradGradGradGradGradGradGradGradGradGradGradGradGradGradGradGrad
 Berny optimization.
 FormGI is forming the generalized inverse of G from B-inverse, IUseBI=4.
 Internal  Forces:  Max     0.379594636 RMS     0.039221746
 Search for a local minimum.
 Step number   1 out of a maximum of  146
 All quantities printed in internal units (Hartrees-Bohrs-Radians)
 RMS Force = .39512D-01 SwitMx=.10000D-02 MixMth= 1
 Mixed Optimization -- RFO/linear search
 Second derivative matrix not updated -- first step.
 ITU=  0
     Eigenvalues ---    0.01273   0.01472   0.01532   0.01708   0.01713
     Eigenvalues ---    0.01734   0.01832   0.01913   0.01958   0.01960
     Eigenvalues ---    0.01981   0.02018   0.02055   0.02056   0.02127
     Eigenvalues ---    0.02142   0.02145   0.02148   0.02161   0.02167
     Eigenvalues ---    0.02171   0.02176   0.16000   0.16000   0.16000
     Eigenvalues ---    0.16000   0.16000   0.16000   0.16000   0.16003
     Eigenvalues ---    0.17442   0.22004   0.22011   0.22537   0.22589
     Eigenvalues ---    0.24383   0.24477   0.24603   0.25000   0.25000
     Eigenvalues ---    0.28984   0.29161   0.32478   0.34494   0.34672
     Eigenvalues ---    0.34685   0.34695   0.34708   0.34752   0.34756
     Eigenvalues ---    0.34779   0.35954   0.38784   0.40632   0.41441
     Eigenvalues ---    0.42082   0.43745   0.44016   0.45576   0.45856
     Eigenvalues ---    0.46259   0.46661   0.46682   0.48245   0.50671
     Eigenvalues ---    0.76375   1.052831000.000001000.000001000.00000
     Eigenvalues --- 1000.000001000.000001000.000001000.000001000.00000
     Eigenvalues --- 1000.000001000.000001000.000001000.000001000.00000
     Eigenvalues --- 1000.000001000.000001000.000001000.000001000.00000
     Eigenvalues --- 1000.000001000.000001000.000001000.000001000.00000
     Eigenvalues --- 1000.000001000.000001000.000001000.000001000.00000
     Eigenvalues --- 1000.000001000.000001000.000001000.000001000.00000
     Eigenvalues --- 1000.000001000.000001000.000001000.000001000.00000
     Eigenvalues --- 1000.000001000.000001000.000001000.000001000.00000
     Eigenvalues --- 1000.000001000.000001000.000001000.000001000.00000
     Eigenvalues --- 1000.000001000.000001000.000001000.000001000.00000
     Eigenvalues --- 1000.000001000.000001000.000001000.000001000.00000
     Eigenvalues --- 1000.000001000.000001000.000001000.000001000.00000
     Eigenvalues --- 1000.000001000.000001000.000001000.000001000.00000
     Eigenvalues --- 1000.00000
 RFO step:  Lambda=-1.82690410D-01 EMin= 1.27315972D-02
 Linear search not attempted -- first point.
 Maximum step size (   0.300) exceeded in Quadratic search.
    -- Step size scaled by   0.722
 Iteration  1 RMS(Cart)=  0.02557898 RMS(Int)=  0.00236788
 Iteration  2 RMS(Cart)=  0.00219027 RMS(Int)=  0.00097745
 Iteration  3 RMS(Cart)=  0.00001221 RMS(Int)=  0.00112075
 Iteration  4 RMS(Cart)=  0.00000008 RMS(Int)=  0.00112064
 Iteration  1 RMS(Cart)=  0.00001947 RMS(Int)=  0.00001750
 Iteration  2 RMS(Cart)=  0.00000030 RMS(Int)=  0.00001081
 ITry= 1 IFail=0 DXMaxC= 1.70D-01 DCOld= 1.00D+10 DXMaxT= 3.00D-01 DXLimC= 3.00D+00 Rises=F
 Variable       Old X    -DE/DX   Delta X   Delta X   Delta X     New X
                                 (Linear)    (Quad)   (Total)
    R1        2.63499  -0.01853   0.00000  -0.00900  -0.00860   2.62639
    R2        2.63404  -0.00344   0.00000   0.00088   0.00095   2.63499
    R3        2.06149  -0.00224   0.00000  -0.00154  -0.00149   2.06000
    R4        2.67852  -0.08009   0.00000  -0.05044  -0.04885   2.62967
    R5        3.32459   0.02809   0.00000   0.02266   0.02181   3.34640
    R6        2.63336   0.00258   0.00000  -0.00065  -0.00072   2.63265
    R7        2.61973  -0.01700   0.00000  -0.01367  -0.01328   2.60645
    R8        2.63297   0.00587   0.00000  -0.00069  -0.00089   2.63208
    R9        2.06072   0.00024   0.00000   0.00006   0.00005   2.06077
   R10        2.64391  -0.01703   0.00000  -0.00619  -0.00572   2.63820
   R11        2.06189  -0.00053   0.00000  -0.00044  -0.00043   2.06145
   R12        2.06080  -0.00043   0.00000  -0.00037  -0.00037   2.06043
   R13        2.56915   0.01846   0.00000  -0.00179  -0.00253   2.56662
   R14        1.44530   0.37959   0.00000   0.22832   0.23235   1.67765
   R15        3.30113  -0.06881   0.00000  -0.03196  -0.03001   3.27112
   R16        2.60705   0.00645   0.00000   0.02519   0.02594   2.63298
   R17        2.81199  -0.03600   0.00000  -0.01572  -0.01462   2.79737
   R18        2.69932   0.03191   0.00000   0.01211   0.01116   2.71048
   R19        2.68665  -0.00327   0.00000  -0.02984  -0.03080   2.65585
   R20        2.06504   0.00003   0.00000   0.00051   0.00052   2.06557
   R21        2.70149   0.04702   0.00000   0.02332   0.02211   2.72361
   R22        2.37495  -0.05991   0.00000  -0.01659  -0.01500   2.35994
   R23        2.63445  -0.00499   0.00000   0.00947   0.01002   2.64447
   R24        2.06211   0.00055   0.00000   0.00007   0.00004   2.06215
   R25        2.63971   0.00500   0.00000  -0.01353  -0.01429   2.62542
   R26        2.06173  -0.00051   0.00000  -0.00026  -0.00024   2.06149
   R27        2.06033   0.00255   0.00000   0.00235   0.00231   2.06264
    A1        2.06233   0.01181   0.00000   0.00616   0.00570   2.06803
    A2        2.10749  -0.00901   0.00000  -0.00517  -0.00486   2.10263
    A3        2.11337  -0.00280   0.00000  -0.00099  -0.00084   2.11253
    A4        2.12261  -0.00662   0.00000  -0.01078  -0.01055   2.11206
    A5        2.21943  -0.00223   0.00000   0.01442   0.01493   2.23436
    A6        1.94115   0.00884   0.00000  -0.00365  -0.00438   1.93677
    A7        2.08635   0.02157   0.00000   0.02268   0.02230   2.10866
    A8        1.96586  -0.04969   0.00000  -0.03377  -0.03261   1.93325
    A9        2.23097   0.02812   0.00000   0.01109   0.01030   2.24127
   A10        2.07056  -0.00973   0.00000  -0.00833  -0.00808   2.06248
   A11        2.09811   0.00724   0.00000   0.00599   0.00580   2.10391
   A12        2.11452   0.00249   0.00000   0.00234   0.00228   2.11679
   A13        2.12316  -0.01126   0.00000  -0.00962  -0.00938   2.11379
   A14        2.07463   0.00623   0.00000   0.00489   0.00476   2.07939
   A15        2.08539   0.00503   0.00000   0.00473   0.00462   2.09001
   A16        2.10135  -0.00577   0.00000  -0.00012  -0.00000   2.10135
   A17        2.08837   0.00247   0.00000   0.00006   0.00001   2.08838
   A18        2.09346   0.00330   0.00000   0.00006  -0.00001   2.09345
   A19        1.97168   0.08827   0.00000   0.07650   0.07490   2.04658
   A20        2.28785  -0.11633   0.00000  -0.10692  -0.10386   2.18399
   A21        2.02366   0.02806   0.00000   0.03042   0.02895   2.05261
   A22        1.55772   0.03172   0.00000   0.03036   0.02947   1.58720
   A23        2.09376   0.00777   0.00000   0.00158   0.00133   2.09509
   A24        2.15776   0.00667   0.00000  -0.00398  -0.00453   2.15323
   A25        2.03166  -0.01445   0.00000   0.00240   0.00320   2.03486
   A26        2.09920   0.01491   0.00000   0.01344   0.01317   2.11237
   A27        2.10804  -0.00802   0.00000  -0.00571  -0.00554   2.10250
   A28        2.07595  -0.00690   0.00000  -0.00772  -0.00763   2.06832
   A29        2.04308  -0.01848   0.00000  -0.01718  -0.01683   2.02625
   A30        2.09778  -0.04018   0.00000  -0.00453  -0.00289   2.09490
   A31        2.14232   0.05866   0.00000   0.02172   0.01972   2.16204
   A32        2.11593  -0.00971   0.00000  -0.01288  -0.01279   2.10314
   A33        2.07096   0.00479   0.00000   0.00619   0.00615   2.07711
   A34        2.09629   0.00492   0.00000   0.00668   0.00664   2.10293
   A35        2.12104   0.00982   0.00000   0.00951   0.00930   2.13034
   A36        2.03036  -0.00242   0.00000  -0.00201  -0.00196   2.02840
   A37        2.13178  -0.00740   0.00000  -0.00749  -0.00734   2.12445
   A38        2.09337  -0.00432   0.00000   0.00553   0.00582   2.09919
   A39        2.09280  -0.00030   0.00000  -0.00364  -0.00369   2.08911
   A40        2.09702   0.00463   0.00000  -0.00189  -0.00213   2.09489
   A41        1.98837  -0.07914   0.00000  -0.06943  -0.06739   1.92098
   A42        2.09098   0.05078   0.00000   0.04289   0.04170   2.13268
   A43        2.20383   0.02836   0.00000   0.02654   0.02569   2.22952
    D1       -0.00000   0.00000   0.00000   0.00000   0.00000  -0.00000
    D2       -3.14159  -0.00000   0.00000  -0.00000  -0.00000  -3.14159
    D3        3.14159   0.00000   0.00000   0.00000   0.00000   3.14159
    D4       -0.00000  -0.00000   0.00000  -0.00000  -0.00000  -0.00000
    D5       -0.00000  -0.00000   0.00000  -0.00000  -0.00000  -0.00000
    D6        3.14159  -0.00000   0.00000  -0.00000  -0.00000   3.14159
    D7       -3.14159  -0.00000   0.00000  -0.00000  -0.00000  -3.14159
    D8        0.00000  -0.00000   0.00000  -0.00000  -0.00000   0.00000
    D9        0.00000   0.00000   0.00000  -0.00000  -0.00000   0.00000
   D10        3.14159  -0.00000   0.00000  -0.00000  -0.00000   3.14159
   D11       -3.14159   0.00000   0.00000   0.00000   0.00000  -3.14159
   D12       -0.00000   0.00000   0.00000  -0.00000  -0.00000  -0.00000
   D13        3.14159  -0.00000   0.00000   0.00000   0.00000   3.14159
   D14       -0.00000  -0.00000   0.00000  -0.00000  -0.00000  -0.00000
   D15       -0.00000  -0.00000   0.00000  -0.00000  -0.00000  -0.00000
   D16        3.14159  -0.00000   0.00000  -0.00000  -0.00000   3.14159
   D17       -3.14159   0.00000   0.00000   0.00000   0.00000  -3.14159
   D18        0.00000   0.00000   0.00000   0.00000   0.00000   0.00000
   D19        0.00000   0.00000   0.00000   0.00000   0.00000   0.00001
   D20        3.14156   0.00000   0.00000   0.00000   0.00000   3.14156
   D21       -3.14159   0.00000   0.00000   0.00000   0.00000  -3.14159
   D22       -0.00004   0.00000   0.00000   0.00000   0.00000  -0.00003
   D23        0.00000   0.00000   0.00000   0.00000   0.00000   0.00000
   D24       -3.14159   0.00000   0.00000  -0.00000  -0.00000  -3.14159
   D25        3.14159   0.00000   0.00000   0.00000   0.00000  -3.14159
   D26        0.00000   0.00000   0.00000   0.00000   0.00000   0.00000
   D27        0.00000   0.00000   0.00000  -0.00000  -0.00000   0.00000
   D28       -3.14159  -0.00000   0.00000  -0.00000  -0.00000  -3.14159
[...]
 .,0.,0.00004469,0.,0.,-0.00009454,0.00000003,0.00000010,-0.00035398,-0
 .00000009,0.00000008,0.00223245,0.00000050,-0.00000312,-0.07367702,-0.
 00000174,0.00000056,0.00048657,-0.00000733,0.00000636,0.20022082,0.000
 64450,-0.00080354,0.,-0.00113381,0.00133154,0.,0.00012636,-0.00140560,
 0.,0.00052215,0.00014340,0.,-0.00003720,0.00089619,0.,-0.00103640,-0.0
 0010582,0.,0.00003013,0.00003754,0.,0.00002099,-0.00003751,0.,-0.00007
 371,0.00005804,0.,-0.00004740,0.00002906,0.,-0.00706181,0.00032324,-0.
 00000002,0.00073546,0.00207762,0.00000003,-0.04841686,0.02509776,0.000
 00056,-0.24648796,0.16901983,0.00000414,-0.00022486,0.01504927,0.00000
 031,0.76843756,-0.00154385,0.00226394,0.,0.00267055,-0.00187083,0.,0.0
 0039243,0.00162004,0.00000004,-0.00179886,0.00033113,0.00000003,-0.000
 02981,-0.00259969,-0.00000002,0.00277897,0.00033811,0.,-0.00012024,-0.
 00007021,0.,0.00006282,0.00007769,0.,0.00016713,-0.00010726,0.,0.00013
 633,-0.00005643,0.,0.01465771,0.00424750,0.,-0.00360733,-0.00493522,-0
 .00000009,0.06148300,0.00520379,0.00000003,0.10966299,-0.28146905,-0.0
 0000528,0.02792544,-0.04340283,-0.00000124,-0.02108668,0.66722030,-0.0
 0000004,0.00000005,0.00004140,0.00000007,-0.00000005,0.00039128,0.0000
 0001,0.00000002,-0.00055163,-0.00000005,0.00000001,-0.00010210,0.,-0.0
 0000007,0.00004443,0.00000007,0.00000001,-0.00001326,0.,0.,-0.00000093
 ,0.,0.,-0.00000311,0.,0.,0.00001543,0.,0.,-0.00002208,0.00000030,0.000
 00010,-0.00003058,-0.00000007,-0.00000016,-0.00080968,0.00000149,-0.00
 000007,0.00948044,0.00000288,-0.00000555,-0.06251348,0.00000053,-0.000
 00089,-0.00644896,-0.00000123,0.00001359,0.12046702,0.00028960,-0.0000
 1502,0.,-0.00063946,0.00034472,0.00000003,0.00034605,-0.00024567,0.,0.
 00004045,0.00004617,0.,0.00004533,0.00009838,0.,-0.00011932,-0.0000794
 8,0.,-0.00001275,-0.00000500,0.,0.00003615,0.00000079,0.,0.00000480,0.
 00000165,0.,0.00002634,-0.00000378,0.,-0.00009807,0.00026760,0.,-0.001
 40541,0.00213402,-0.00000004,-0.00554347,-0.02854541,-0.00000070,-0.08
 960927,-0.08922478,-0.00000209,-0.00464441,0.00363957,0.00000007,0.010
 87319,0.02043442,0.00000048,0.09146955,0.00008457,-0.00009605,0.,-0.00
 023942,0.00066385,0.,0.00032143,-0.00027877,0.,0.00005522,0.00006582,0
 .,0.00001191,0.00012758,0.,-0.00016185,-0.00000818,0.,-0.00000738,0.00
 001354,0.,0.00002232,-0.00000441,0.,-0.00000842,0.00000756,0.,-0.00000
 282,0.00000380,0.,-0.00116139,0.00005926,0.00000002,0.00029083,-0.0004
 3288,0.00000004,0.00020420,-0.00156886,-0.00000012,-0.08586917,-0.3050
 1953,-0.00000639,0.00031842,0.00247065,-0.00000007,-0.01253374,-0.0170
 9960,-0.00000053,0.09287580,0.32433302,0.,0.,-0.00000691,0.,0.00000002
 ,-0.00054213,0.,0.,0.00013700,0.,0.,0.00007064,0.,0.,-0.00001686,0.,0.
 ,0.00002563,0.,0.,-0.00000995,0.,0.,-0.00001124,0.,0.,-0.00000417,0.,0
 .,0.00001465,0.00000002,0.00000002,-0.00017074,-0.00000004,0.00000009,
 0.00098629,0.00000013,-0.00000012,0.00304132,-0.00000217,-0.00000640,-
 0.03731983,0.00000006,-0.00000003,0.00469133,-0.00000026,-0.00000064,0
 .00591388,0.00000220,0.00000711,0.02422814,-0.00055783,0.00125140,0.,0
 .00114781,-0.00091870,0.,0.00154904,0.00076168,-0.00000001,-0.00105615
 ,0.00010731,0.00000002,0.00003266,-0.00140238,-0.00000001,0.00143159,0
 .00018427,0.,-0.00008313,0.00000900,0.,0.00011939,0.00003067,0.,0.0000
 7618,-0.00005109,0.,0.00007633,-0.00001065,0.,0.00818497,0.00508119,-0
 .00000001,-0.00117429,-0.00212806,-0.00000006,0.04528873,0.00127605,0.
 00000014,-0.04590105,0.02143099,0.00000062,-0.12869620,0.03547988,0.00
 000083,-0.00430943,-0.07240855,-0.00000156,-0.00011544,0.00046682,-0.0
 0000003,0.73598087,0.00083660,-0.00070423,0.,-0.00148843,0.00022493,0.
 00000002,-0.00018082,-0.00045977,0.,0.00066615,-0.00011342,-0.00000001
 ,0.00006670,0.00095614,0.,-0.00100240,-0.00021532,0.,0.00001490,0.0000
 3503,0.,-0.00000522,-0.00002048,0.,-0.00004263,0.00003681,0.,-0.000008
 51,0.00000715,0.,-0.00502099,-0.00026039,0.,0.00224754,0.00083247,0.00
 000004,0.00429825,-0.02296756,-0.00000090,0.01156817,-0.00754496,-0.00
 000019,0.05935956,-0.20422943,-0.00000335,-0.03821714,0.00724361,0.000
 00004,-0.00004052,0.00057580,0.00000005,0.09770451,0.67232705,0.000000
 04,-0.00000003,-0.00016511,-0.00000009,0.,-0.00027276,-0.00000005,0.00
 000002,-0.00093988,0.00000004,0.,0.00006372,0.,0.00000005,0.00002869,-
 0.00000005,-0.00000001,0.00005426,0.,0.,-0.00005700,0.,0.,-0.00004411,
 0.,0.,-0.00000928,0.,0.,0.00004440,-0.00000023,-0.00000017,0.00084785,
 0.00000010,0.,-0.00077557,0.00000005,-0.00000052,0.01014470,0.00000036
 ,-0.00000022,-0.00077781,0.00000133,-0.00000339,-0.07780600,-0.0000008
 7,0.00000011,0.00783851,0.,0.00000002,-0.00006727,-0.00000106,0.000012
 53,0.11974732,0.00103059,-0.00145739,0.,-0.00186056,0.00112944,0.,-0.0
 0056095,-0.00090316,-0.00000001,0.00122560,-0.00017994,-0.00000002,0.0
 0001213,0.00172852,0.00000001,-0.00182504,-0.00025433,0.,0.00007408,0.
 00004352,0.,-0.00005337,-0.00005072,0.,-0.00010666,0.00007332,0.,-0.00
 008078,0.00003191,0.,-0.00930488,-0.00229086,0.00000002,0.00234599,0.0
 0276007,0.00000006,-0.03421930,0.00492596,0.,0.05164321,-0.00162778,-0
 .00000015,-0.04893777,0.03005096,0.00000115,-0.14347743,-0.02789173,-0
 .00000067,-0.00267508,0.00452190,0.00000016,-0.42000865,-0.08674950,-0
 .00000047,0.76437330,0.00092313,-0.00132749,0.,-0.00144896,0.00119388,
 0.,-0.00028464,-0.00154945,-0.00000002,0.00089694,-0.00006912,-0.00000
 001,0.00000319,0.00145947,0.00000001,-0.00163180,-0.00018197,0.,0.0000
 7452,0.00002553,0.,-0.00005239,-0.00003976,0.,-0.00009799,0.00006661,0
 .,-0.00007359,0.00002867,0.,-0.01078585,-0.00298225,0.,0.00211859,0.00
 255047,0.00000007,-0.03776560,-0.00154345,-0.00000010,0.04321279,-0.05
 730699,-0.00000165,-0.00086231,0.05055044,0.00000133,-0.09248662,-0.28
 162721,-0.00000550,0.00284858,-0.00220650,-0.00000022,-0.02760174,-0.1
 4471342,-0.00000167,-0.02451231,0.67847158,0.00000002,-0.00000002,-0.0
 0000391,-0.00000003,0.00000003,0.00014840,0.00000001,-0.00000005,0.000
 36289,0.00000001,0.,-0.00000717,0.,0.00000002,-0.00002859,-0.00000003,
 0.,-0.00000111,0.,0.,0.00001132,0.,0.,0.00002785,0.,0.,-0.00000289,0.,
 0.,-0.00001129,-0.00000024,-0.00000004,-0.00010263,0.00000004,0.000000
 03,-0.00017086,-0.00000079,0.00000008,-0.00462179,0.00000090,-0.000001
 50,0.00689745,0.00000028,0.00000100,-0.00045850,-0.00000209,-0.0000055
 8,-0.06179459,0.00000008,-0.00000027,0.00840031,0.00000061,-0.00000162
 ,-0.05831703,-0.00000279,0.00001334,0.14426417,0.00001968,-0.00008131,
 0.,-0.00002879,0.00013190,0.,-0.00001505,-0.00015613,0.,0.00003691,0.0
 0003130,0.,-0.00001153,0.00006368,0.,-0.00008365,0.00000741,0.,0.00000
 538,0.00000575,0.,0.00000088,-0.00000452,0.,-0.00000968,0.00000743,0.,
 -0.00000940,0.00000503,0.,-0.00046601,0.00039643,0.,0.00002599,0.00009
 008,0.,0.00006148,0.00367103,0.00000009,-0.01473764,-0.00756054,-0.000
 00017,0.00059531,0.00007285,0.,-0.33789044,-0.05323104,-0.00000094,0.0
 0076787,0.00014194,0.,0.00134575,-0.00170554,-0.00000005,-0.00536770,0
 .00268466,0.00000007,0.35599254,-0.00000454,0.00002965,0.,0.00002221,-
 0.00006559,0.,0.00007380,0.00009682,0.,-0.00001493,-0.00004064,0.,0.00
 001398,-0.00002000,0.,0.00002904,-0.00000319,0.,-0.00000080,-0.0000030
 3,0.,0.00000116,0.00000190,0.,0.00000427,-0.00000493,0.,0.00000333,-0.
 00000146,0.,0.00035416,-0.00033421,0.00000002,0.00000482,0.00003383,0.
 ,0.00213201,-0.00335869,-0.00000027,0.02514621,0.00759090,0.00000013,0
 .00048792,-0.00146610,-0.00000002,-0.05434149,-0.06729080,-0.00000089,
 -0.00018772,0.00095593,0.00000016,-0.00036338,-0.00518890,-0.00000024,
 -0.02968069,-0.00048493,0.00000001,0.05668855,0.06755137,0.,0.,0.00000
 217,0.,0.,-0.00008652,0.,0.,-0.00037984,0.,0.,-0.00002937,0.,0.,0.0000
 3803,0.,0.,-0.00000659,0.,0.,-0.00000188,0.,0.,-0.00001701,0.,0.,0.000
 00920,0.,0.,0.00000642,0.00000003,0.,-0.00058701,0.,0.00000002,0.00022
 081,0.00000012,-0.00000028,0.00810154,0.00000055,0.00000017,0.00145392
 ,0.00000001,-0.00000004,-0.00071800,-0.00000097,-0.00000092,-0.0306912
 9,0.,0.00000016,-0.00551183,0.,-0.00000024,0.00424580,-0.00000072,0.,0
 .00060010,0.00000101,0.00000103,0.02370010,-0.00007889,0.00001940,0.,0
 .00010627,0.00008156,0.,-0.00003719,0.00000762,0.,-0.00002593,0.000009
 80,0.,-0.00000908,-0.00004752,0.,0.00005164,0.00001952,0.,0.00000049,-
 0.00000446,0.,-0.00000386,0.00000072,0.,0.00000209,-0.00000153,0.,-0.0
 0000316,-0.00000142,0.,0.00041806,-0.00009229,0.,-0.00033058,0.0001126
 2,0.,-0.00225582,0.00243461,0.00000010,-0.00140232,0.00041193,0.000000
 01,0.00968364,0.02089035,0.00000047,-0.00490256,0.00013388,0.00000007,
 0.00011810,-0.00009850,0.,-0.08560230,-0.08788267,-0.00000173,-0.00484
 126,-0.02982038,-0.00000064,-0.00042325,-0.00142460,-0.00000004,0.0868
 4420,0.00002095,0.00011130,0.,-0.00007007,-0.00020636,0.,0.00001369,0.
 00016774,0.,-0.00004545,-0.00001420,0.,0.00001723,-0.00007448,0.,0.000
 09020,-0.00001761,0.,-0.00000847,0.00000033,0.,0.00000504,0.00000529,0
 .,0.00001137,-0.00000672,0.,0.00001481,-0.00000447,0.,0.00031707,0.000
 12200,0.,0.00023892,-0.00037499,0.,0.00395711,-0.00274550,-0.00000016,
 0.00114385,0.00038523,0.00000002,-0.01416814,-0.01696855,-0.00000040,-
 0.00076695,0.00224434,-0.00000014,-0.00007075,-0.00008618,0.00000002,-
 0.08828774,-0.31470791,-0.00000604,0.00220240,-0.00147869,-0.00000012,
 0.00004625,-0.00018025,-0.00000002,0.09629621,0.33059277,0.,0.,0.00005
 084,0.,0.,0.00002781,0.,0.,-0.00003830,0.,0.,-0.00000285,0.,0.,0.00000
 381,0.,0.,-0.00000818,0.,0.,0.00000444,0.,0.,0.00000085,0.,0.,0.000003
 05,0.,0.,-0.00000896,0.,0.,-0.00007084,0.,0.,0.00010657,0.00000005,-0.
 00000020,0.00393214,0.00000011,0.,-0.00075814,-0.00000043,-0.00000042,
 0.00444989,0.00000003,-0.00000010,0.00906265,0.,0.00000002,-0.00100336
 ,-0.00000163,-0.00000608,-0.03410029,-0.00000001,-0.00000003,0.0031493
 9,0.,0.,0.00054972,0.00000193,0.00000662,0.02420144,0.00004973,-0.0000
 8224,0.,-0.00006196,0.00014545,0.,0.00009887,-0.00014710,0.,0.00004030
 ,0.00000452,0.,-0.00000102,0.00008224,0.,-0.00010027,-0.00000141,0.,0.
 00000417,0.00000424,0.,0.00000433,-0.00000435,0.,-0.00000928,0.0000058
 0,0.,-0.00000728,0.00000455,0.,-0.00046547,0.00015229,0.,0.00004102,0.
 00027859,0.,-0.00091054,0.00037615,0.,0.00075578,-0.00252615,-0.000000
 05,-0.00274478,-0.00419706,-0.00000005,0.00948112,-0.00915832,-0.00000
 024,0.00035787,-0.00047989,0.,-0.01454499,0.02569077,0.00000064,-0.180
 62659,0.13915660,0.00000388,0.00060344,0.00045675,0.,0.00096709,-0.000
 30994,-0.00000004,0.18815017,0.00001077,0.00003413,0.,-0.00006880,0.00
 000167,0.,0.00000751,0.00007829,0.,-0.00000327,-0.00000341,0.,0.000008
 46,-0.00001789,0.,0.00002653,-0.00000949,0.,-0.00000530,-0.00000117,0.
 ,0.00000298,0.00000217,0.,0.00000545,-0.00000258,0.,0.00000671,-0.0000
 0316,0.,0.00020505,-0.00007136,0.,-0.00007953,-0.00002666,0.,-0.000645
 83,0.00059787,0.00000005,-0.00363587,-0.00482377,-0.00000023,-0.002362
 81,0.00036041,-0.00000026,0.02217604,-0.01500871,-0.00000053,0.0010308
 2,-0.00115422,-0.00000002,-0.00651673,0.00752129,0.00000002,0.13972308
 ,-0.21915329,-0.00000479,-0.00021933,0.00103195,0.00000009,0.00011243,
 0.00087118,0.00000017,-0.14996396,0.22921259,0.,0.,0.00000238,0.,0.,-0
 .00004077,0.,0.,0.00015488,0.,0.,0.00000031,0.,0.,-0.00000668,0.,0.,-0
 .00000551,0.,0.,0.00000665,0.,0.,0.00000297,0.,0.,0.00000038,0.,0.,0.0
 0000162,0.00000003,0.00000002,-0.00010001,0.,0.,0.00024880,-0.00000002
 ,0.,-0.00115218,-0.00000011,-0.00000022,0.00458742,0.00000006,-0.00000
 023,0.01130577,0.00000053,-0.00000049,0.00472712,0.00000003,-0.0000000
 2,-0.00035149,-0.00000002,-0.00000003,0.00714470,0.00000385,-0.0000047
 9,-0.04219927,0.,0.00000009,-0.00240773,-0.00000003,0.00000015,-0.0060
 2956,-0.00000419,0.00000544,0.02675810,-0.00845052,-0.00106024,-0.0000
 0003,0.00708098,0.01617418,0.00000003,-0.06345939,0.04372384,0.0000000
 4,0.00831002,-0.00319519,0.00000008,-0.00300252,0.00130084,-0.00000004
 ,0.00218669,-0.00268796,0.,0.00007727,-0.00099146,-0.00000002,-0.00052
 086,-0.00006329,0.00000002,0.00053787,-0.00028249,-0.00000001,-0.00058
 109,-0.00018077,0.00000002,-0.36152320,-0.04118524,0.00000197,-0.06209
 842,-0.04992185,0.00000001,-0.16610432,0.07765369,0.00000082,-0.060244
 87,0.03609650,0.00000075,0.04856863,0.01992073,-0.00000024,0.00514706,
 -0.02918803,-0.00000068,0.00163523,0.00176035,0.00000003,-0.01299102,0
 .00457577,0.00000025,0.01468835,0.01448018,0.00000029,-0.00025412,0.00
 088314,0.00000002,0.00011592,-0.00153791,-0.00000003,0.00084476,-0.000
 07774,-0.00000003,0.69506763,0.00275242,-0.00365882,0.00000006,0.01949
 790,-0.01964555,0.00000004,0.01228943,0.01619646,-0.00000029,0.0076394
 0,-0.00903351,0.,-0.00092787,0.00677058,0.00000005,-0.00492166,-0.0037
 7391,-0.00000003,0.00030266,-0.00051813,0.,-0.00056049,-0.00004963,-0.
 00000001,0.00007436,-0.00032939,0.,-0.00046579,0.00010354,0.,-0.048457
 63,-0.14987376,0.00000084,-0.00164326,-0.16518920,0.00000049,0.0756125
 9,-0.20972686,-0.00000167,0.03380515,0.00263985,0.00000002,-0.00097053
 ,-0.04133166,-0.00000022,-0.01279370,0.02414154,0.00000048,-0.00248226
 ,-0.00079889,0.00000003,0.00851816,-0.01188743,-0.00000049,-0.01485583
 ,-0.01443580,-0.00000027,-0.00103743,0.00075222,0.00000001,0.00148050,
 -0.00043219,-0.00000002,-0.00065882,0.00021709,0.00000004,-0.06706268,
 0.56135719,0.00000013,-0.00000004,-0.00041205,-0.00000022,-0.00000007,
 0.00096556,0.00000002,-0.00000016,0.00017234,0.00000006,0.00000005,0.0
 0121375,0.,0.00000007,0.00124858,-0.00000008,-0.00000003,0.00092591,0.
 ,0.00000002,-0.00041907,0.,0.,-0.00046186,0.,0.00000001,-0.00028601,0.
 ,0.,-0.00002439,0.00000151,0.00000050,-0.05222628,0.00000030,0.0000005
 2,-0.03235491,0.00000062,-0.00000103,-0.05759188,0.00000051,0.00000009
 ,-0.00611075,-0.00000012,-0.00000088,0.00406906,-0.00000013,0.00000023
 ,0.00515863,-0.00000002,0.00000005,-0.00231344,0.00000017,-0.00000027,
 0.00375675,-0.00000021,-0.00000020,-0.00075959,0.,-0.00000004,0.001704
 22,0.00000002,0.,-0.00038259,0.,0.00000002,-0.00070262,-0.00000331,0.0
 0000103,0.13798560,-0.00136334,0.00315404,0.,0.00240932,-0.00083629,-0
 .00000005,0.00706100,0.00132116,0.00000006,-0.00287259,0.00038881,0.00
 000004,0.00014744,-0.00345534,-0.00000003,0.00341198,0.00067591,0.,-0.
 00020705,0.00011506,0.,0.00026774,0.00008424,0.,0.00011663,-0.00008612
 ,0.,0.00015268,0.00001985,0.,0.01981686,0.02667348,0.00000009,-0.00229
 859,-0.00449356,-0.00000008,-0.01468235,-0.06760429,-0.00000033,-0.014
 28685,0.00273916,0.00000016,-0.58196848,-0.08761192,0.00000580,-0.0010
 2568,-0.02152639,-0.00000043,-0.00136065,-0.00059850,-0.00000008,-0.08
 280541,0.01597361,0.00000183,0.01945620,0.02222272,0.00000043,-0.00022
 747,-0.00028625,-0.00000001,0.00163427,0.00091953,-0.00000002,-0.00205
 015,0.00030093,-0.00000009,-0.04140701,0.02601568,0.00000040,0.6863680
 4,-0.00028879,-0.00023693,0.,0.00031016,-0.00158678,0.00000002,-0.0050
 2854,-0.00249911,-0.00000004,-0.00006862,-0.00026721,0.,0.00029244,0.0
 0015871,0.,0.00002370,-0.00008927,0.,0.00005810,-0.00016020,0.,0.00009
 421,0.00005210,0.,0.00008942,-0.00008231,0.,0.00006105,-0.00004910,0.,
 0.01332308,-0.02180203,-0.00000025,0.00001546,-0.00132694,0.,-0.055168
 26,-0.01041081,0.00000003,0.00934441,-0.00965776,-0.00000024,-0.097971
 73,-0.11388876,0.00000037,-0.00318202,0.00719875,0.00000019,-0.0024623
 7,-0.00058318,-0.00000005,0.03666530,0.02119814,-0.00000015,-0.0015625
 8,-0.01098951,-0.00000035,-0.00005918,0.00053786,0.00000002,-0.0027026
 4,0.00289274,0.00000004,0.00138502,0.00033603,0.00000004,0.00048919,0.
 00457747,0.,0.11140525,0.14740412,0.,-0.00000004,-0.00022498,0.0000000
 2,-0.00000003,-0.00015107,-0.00000018,-0.00000007,0.00184614,0.0000000
 3,0.,0.00003053,0.,0.00000003,-0.00010196,-0.00000003,0.,0.00004028,0.
 ,0.,0.00002738,0.,0.,0.00002637,0.,0.,-0.00001224,0.,0.,0.00000401,0.0
 0000017,-0.00000068,0.00196950,0.00000002,0.00000006,-0.00006069,-0.00
 000083,0.00000020,0.01857087,0.00000044,-0.00000029,0.00460283,0.00000
 583,0.00000033,-0.06783547,-0.00000007,0.00000046,-0.00026968,0.,0.,-0
 .00009714,0.00000213,-0.00000002,0.01799023,-0.00000027,-0.00000066,0.
 00458178,0.,0.00000003,-0.00040255,-0.00000015,0.00000006,-0.00313000,
 0.00000007,0.00000005,-0.00172592,0.00000048,-0.00000019,-0.00216976,-
 0.00000729,0.00000045,0.03212370,0.00136771,0.00041330,0.00000002,-0.0
 0347297,0.00560726,0.,0.01506142,0.02331065,-0.00000034,0.00172174,0.0
 0079182,-0.00000003,-0.00024391,0.00011584,0.00000001,-0.00044698,-0.0
 0008761,0.,-0.00020209,0.00033496,0.,-0.00132129,-0.00089069,-0.000000
 03,-0.00001091,-0.00000131,0.,-0.00006062,-0.00006811,0.,-0.15172341,-
 0.18627932,0.00000313,-0.00398648,-0.00122362,0.00000004,0.00039302,0.
 00341209,-0.00000004,0.00059128,-0.00008916,-0.00000002,-0.01188702,-0
 .00007749,0.00000022,0.00010702,0.00108516,0.00000002,0.00021278,0.000
 08538,0.,0.00261257,-0.00065818,-0.00000004,-0.00090346,-0.00119771,-0
 .00000002,0.00006950,0.00000304,0.,-0.00002555,-0.00002923,0.,0.000123
 67,-0.00003761,0.,-0.00362309,-0.03115028,0.00000036,0.00571348,-0.005
 06206,-0.00000037,0.14993358,-0.00121150,0.00075062,0.,0.00379936,-0.0
 0078283,0.00000002,-0.00260922,-0.01919286,0.00000025,-0.00176864,0.00
 226693,0.00000002,-0.00039002,-0.00186240,-0.00000003,0.00114806,0.000
 81740,0.,0.00006494,-0.00000048,0.,0.00042231,0.00006289,-0.00000003,-
 0.00011650,0.00013884,0.,0.00001174,0.00006981,0.,-0.16892681,-0.40196
 665,0.00000675,0.00111773,0.00373604,0.,0.00715675,-0.01260183,-0.0000
 0020,-0.00665361,0.00016241,0.00000002,0.02482593,0.01066068,-0.000000
 11,0.00152132,-0.00659290,-0.00000013,-0.00035976,0.00006044,-0.000000
 02,-0.00927822,0.00205480,0.00000020,0.00482573,0.00574317,0.00000009,
 0.00001073,-0.00013973,0.,0.00006487,-0.00009485,0.,-0.00021372,0.0000
 1102,-0.00000002,-0.01962360,0.01392877,0.00000015,-0.02551073,-0.0107
 2602,0.00000033,0.19169287,0.41349673,0.,0.,0.00077872,0.00000001,-0.0
 0000003,0.00230114,0.00000016,-0.00000016,-0.00000203,-0.00000008,0.00
 000002,-0.00076060,0.00000002,-0.00000004,-0.00034088,0.00000002,0.000
 00002,-0.00004720,0.,0.,-0.00003012,-0.00000004,-0.00000003,-0.0000868
 9,0.,0.,0.00006362,0.,0.,0.00000301,0.00000337,0.00000777,-0.00868766,
 -0.00000008,-0.00000020,0.00487807,0.00000011,-0.00000021,-0.00333687,
 -0.00000012,0.00000003,-0.00080137,0.00000043,0.00000013,0.00024351,0.
 00000004,-0.00000011,0.00011059,0.,0.,-0.00008284,-0.00000014,0.,0.001
 42517,0.00000007,0.00000010,0.00003555,0.,0.,0.00020762,0.,0.,-0.00000
 953,0.,0.,-0.00021937,-0.00000040,0.00000010,-0.00098520,-0.00000040,-
 0.00000009,-0.00563215,-0.00000295,-0.00000731,0.01097573\\0.00155466,
 0.00462918,-0.00000009,0.00643576,0.00945119,-0.00000005,0.01181441,-0
 .00027404,0.00000043,-0.00116385,0.00205967,0.00000008,-0.00028785,-0.
 00322159,0.00000002,0.00160841,0.00169643,-0.00000006,-0.00012251,0.00
 061422,-0.00000005,0.00031735,0.00000691,0.00000004,0.00001097,0.00010
 014,0.,0.00009054,0.00016313,-0.00000002,-0.01658427,0.01154743,-0.000
 00004,0.00397647,0.01066857,0.00000013,-0.00976033,0.00599308,-0.00000
 017,0.00953816,-0.00100521,-0.00000039,0.01726813,0.00361266,0.0000017
 5,-0.00340827,0.00893843,0.00000018,0.00025052,-0.00003179,-0.00000002
 ,-0.00421769,0.00034948,-0.00000051,-0.00641856,-0.00123918,0.00000009
 ,-0.00021494,-0.00000739,0.,-0.00037827,-0.00001646,0.00000003,-0.0006
 5110,-0.00022413,0.00000005,-0.01021216,-0.00657192,-0.00000020,-0.009
 36901,-0.01344939,-0.00000074,0.00992342,-0.03378943,-0.00000046\\\@
 The archive entry for this job was punched.


 I WANT TO KNOW HOW GOD CREATED THE WORLD.  I AM NOT INTERESTED IN
 THIS OR THAT PHENOMENON, IN THE SPECTRUM OF THIS OR THAT ELEMENT.
 I WANT TO KNOW HIS THOUGHTS, THE REST ARE DETAILS.
     -- ALBERT EINSTEIN
 Job cpu time:       0 days  0 hours 59 minutes 12.4 seconds.
 Elapsed time:       0 days  0 hours  5 minutes 57.4 seconds.
 File lengths (MBytes):  RWF=    544 Int=      0 D2E=      0 Chk=     40 Scr=      8
 Normal termination of Gaussian 16 at Tue Oct 27 22:46:30 2020.
