 Entering Gaussian System, Link 0=g16
 Initial command:
 /gpfs/loomis/apps/avx/software/Gaussian/16-C.01_AVX/g16/l1.exe "/home/fas/batista/pev4/scratch60/gauss-scratch/Gau-259730.inp" -scrdir="/home/fas/batista/pev4/scratch60/gauss-scratch/"
 Entering Link 1 = /gpfs/loomis/apps/avx/software/Gaussian/16-C.01_AVX/g16/l1.exe PID=    259731.
  
 Copyright (c) 1988-2019, Gaussian, Inc.  All Rights Reserved.
  
 This is part of the Gaussian(R) 16 program.  It is based on
 the Gaussian(R) 09 system (copyright 2009, Gaussian, Inc.),
 the Gaussian(R) 03 system (copyright 2003, Gaussian, Inc.),
 the Gaussian(R) 98 system (copyright 1998, Gaussian, Inc.),
 the Gaussian(R) 94 system (copyright 1995, Gaussian, Inc.),
 the Gaussian 92(TM) system (copyright 1992, Gaussian, Inc.),
 the Gaussian 90(TM) system (copyright 1990, Gaussian, Inc.),
 the Gaussian 88(TM) system (copyright 1988, Gaussian, Inc.),
 the Gaussian 86(TM) system (copyright 1986, Carnegie Mellon
 University), and the Gaussian 82(TM) system (copyright 1983,
 Carnegie Mellon University). Gaussian is a federally registered
 trademark of Gaussian, Inc.
  
 This software contains proprietary and confidential information,
 including trade secrets, belonging to Gaussian, Inc.
  
 This software is provided under written license and may be
 used, copied, transmitted, or stored only in accord with that
 written license.
  
 The following legend is applicable only to US Government
 contracts under FAR:
  
                    RESTRICTED RIGHTS LEGEND
  
 Use, reproduction and disclosure by the US Government is
 subject to restrictions as set forth in subparagraphs (a)
 and (c) of the Commercial Computer Software - Restricted
 Rights clause in FAR 52.227-19.
  
 Gaussian, Inc.
 340 Quinnipiac St., Bldg. 40, Wallingford CT 06492
  
  
 ---------------------------------------------------------------
 Warning -- This program may not be used in any manner that
 competes with the business of Gaussian, Inc. or will provide
 assistance to any competitor of Gaussian, Inc.  The licensee
 of this program is prohibited from giving any competitor of
 Gaussian, Inc. access to this program.  By using this program,
 the user acknowledges that Gaussian, Inc. is engaged in the
 business of creating and licensing software in the field of
 computational chemistry and represents and warrants to the
 licensee that it is not a competitor of Gaussian, Inc. and that
 it will not use this program in any manner prohibited above.
 ---------------------------------------------------------------
  

 Cite this work as:
 Gaussian 16, Revision C.01,
 M. J. Frisch, G. W. Trucks, H. B. Schlegel, G. E. Scuseria, 
 M. A. Robb, J. R. Cheeseman, G. Scalmani, V. Barone, 
 G. A. Petersson, H. Nakatsuji, X. Li, M. Caricato, A. V. Marenich, 
 J. Bloino, B. G. Janesko, R. Gomperts, B. Mennucci, H. P. Hratchian, 
 J. V. Ortiz, A. F. Izmaylov, J. L. Sonnenberg, D. Williams-Young, 
 F. Ding, F. Lipparini, F. Egidi, J. Goings, B. Peng, A. Petrone, 
 T. Henderson, D. Ranasinghe, V. G. Zakrzewski, J. Gao, N. Rega, 
 G. Zheng, W. Liang, M. Hada, M. Ehara, K. Toyota, R. Fukuda, 
 J. Hasegawa, M. Ishida, T. Nakajima, Y. Honda, O. Kitao, H. Nakai, 
 T. Vreven, K. Throssell, J. A. Montgomery, Jr., J. E. Peralta, 
 F. Ogliaro, M. J. Bearpark, J. J. Heyd, E. N. Brothers, K. N. Kudin, 
 V. N. Staroverov, T. A. Keith, R. Kobayashi, J. Normand, 
 K. Raghavachari, A. P. Rendell, J. C. Burant, S. S. Iyengar, 
 J. Tomasi, M. Cossi, J. M. Millam, M. Klene, C. Adamo, R. Cammi, 
 J. W. Ochterski, R. L. Martin, K. Morokuma, O. Farkas, 
 J. B. Foresman, and D. J. Fox, Gaussian, Inc., Wallingford CT, 2019.
 
 ******************************************
 Gaussian 16:  ES64L-G16RevC.01  3-Jul-2019
                27-Oct-2020 
 ******************************************
 %chk=config_11_13.chk
 %mem=58GB
 %nprocshared=10
 Will use up to   10 processors via shared memory.
 ----------------------------------------------------------------------
 #p opt=addgic freq wb97xd/cc-pvdz nosymm int=ultrafine scrf=(solvent=C
 arbonTetraChloride)
 ----------------------------------------------------------------------
 1/18=20,19=15,26=6,38=1,145=903/1,3;
 2/9=110,12=2,15=1,17=6,18=5,40=1/2;
 3/5=16,11=2,25=1,30=1,70=2201,71=1,72=11,74=-58,75=-5/1,2,3;
 4//1;
 5/5=2,38=5,53=11/2;
 6/7=2,8=2,9=2,10=2,28=1/1;
 7/30=1/1,2,3,16;
 1/18=20,19=15,26=6,145=903/3(2);
 2/9=110,15=1/2;
 99//99;
 2/9=110,15=1/2;
 3/5=16,11=2,25=1,30=1,70=2205,71=1,72=11,74=-58,75=-5/1,2,3;
 4/5=5,16=3,69=1/1;
 5/5=2,38=5,53=11/2;
 7/30=1/1,2,3,16;
 1/18=20,19=15,26=6,145=903/3(-5);
 2/9=110,15=1/2;
 6/7=2,8=2,9=2,10=2,19=2,28=1/1;
 99/9=1/99;
 Leave Link    1 at Tue Oct 27 23:37:03 2020, MaxMem=  7784628224 cpu:               3.9 elap:               0.4
 (Enter /gpfs/loomis/apps/avx/software/Gaussian/16-C.01_AVX/g16/l101.exe)
 ------------------------------------------------
 NM 2D-scan of HBT TD-WB97XD pVDZ in CTC Relaxed.
 ------------------------------------------------
 Symbolic Z-matrix:
 Charge =  0 Multiplicity = 1
 C                     1.59223  -3.25085  -0.00002 
 C                     1.00852  -1.98314  -0.00002 
 C                     1.77592  -0.78871  -0.00002 
 C                     3.16798  -0.89075  -0.00003 
 C                     3.75151  -2.16175  -0.00002 
 C                     2.98334  -3.33187  -0.00002 
 H                     0.96934  -4.14925  -0.00002 
 H                     3.78874   0.0089   -0.00003 
 H                     4.84116  -2.23668  -0.00002 
 H                     3.47207  -4.30817  -0.00001 
 N                     0.97313   0.35294  -0.00003 
 S                    -0.71059  -1.64889  -0.00002 
 C                    -1.35348   1.06026   0.00001 
 C                    -2.70218   0.76652   0.00001 
 C                    -0.87541   2.46173   0.00003 
 C                    -3.65593   1.82228   0.00003 
 H                    -3.0546   -0.26892   0. 
 C                    -1.88493   3.48018   0.00005 
 C                    -3.24883   3.15596   0.00004 
 H                    -4.71942   1.57147   0.00003 
 H                    -1.53814   4.51644   0.00007 
 H                    -3.9975    3.95034   0.00005 
 C                    -0.35321   0.0467   -0.00002 
 O                     0.35919   2.68711   0.00005 
 H                     1.11204   1.07203  0. 
 
 Initializing the GIC definitions file.
 Number of initial coordinates =   134
 Number of input entries/lines =    52
 Number of additional coordinates =     2
 Number of removed coordinates =     0
 Number of frozen coordinates =     2
 Number of final active and frozen coordinates =   136
 ITRead=  0  0  0  0  0  0  0  0  0  0  0  0  0  0  0  0  0  0  0  0
 ITRead=  0  0  0  0  0
 MicOpt= -1 -1 -1 -1 -1 -1 -1 -1 -1 -1 -1 -1 -1 -1 -1 -1 -1 -1 -1 -1
 MicOpt= -1 -1 -1 -1 -1
 NAtoms=     25 NQM=       25 NQMF=       0 NMMI=      0 NMMIF=      0
                NMic=       0 NMicF=      0.
                    Isotopes and Nuclear Properties:
 (Nuclear quadrupole moments (NQMom) in fm**2, nuclear magnetic moments (NMagM)
  in nuclear magnetons)

  Atom         1           2           3           4           5           6           7           8           9          10
 IAtWgt=          12          12          12          12          12          12           1           1           1           1
 AtmWgt=  12.0000000  12.0000000  12.0000000  12.0000000  12.0000000  12.0000000   1.0078250   1.0078250   1.0078250   1.0078250
 NucSpn=           0           0           0           0           0           0           1           1           1           1
 AtZEff=  -0.0000000  -0.0000000  -0.0000000  -0.0000000  -0.0000000  -0.0000000  -0.0000000  -0.0000000  -0.0000000  -0.0000000
 NQMom=    0.0000000   0.0000000   0.0000000   0.0000000   0.0000000   0.0000000   0.0000000   0.0000000   0.0000000   0.0000000
 NMagM=    0.0000000   0.0000000   0.0000000   0.0000000   0.0000000   0.0000000   2.7928460   2.7928460   2.7928460   2.7928460
 AtZNuc=   6.0000000   6.0000000   6.0000000   6.0000000   6.0000000   6.0000000   1.0000000   1.0000000   1.0000000   1.0000000

  Atom        11          12          13          14          15          16          17          18          19          20
 IAtWgt=          14          32          12          12          12          12           1          12          12           1
 AtmWgt=  14.0030740  31.9720718  12.0000000  12.0000000  12.0000000  12.0000000   1.0078250  12.0000000  12.0000000   1.0078250
 NucSpn=           2           0           0           0           0           0           1           0           0           1
 AtZEff=  -0.0000000  -0.0000000  -0.0000000  -0.0000000  -0.0000000  -0.0000000  -0.0000000  -0.0000000  -0.0000000  -0.0000000
 NQMom=    2.0440000   0.0000000   0.0000000   0.0000000   0.0000000   0.0000000   0.0000000   0.0000000   0.0000000   0.0000000
 NMagM=    0.4037610   0.0000000   0.0000000   0.0000000   0.0000000   0.0000000   2.7928460   0.0000000   0.0000000   2.7928460
 AtZNuc=   7.0000000  16.0000000   6.0000000   6.0000000   6.0000000   6.0000000   1.0000000   6.0000000   6.0000000   1.0000000

  Atom        21          22          23          24          25
 IAtWgt=           1           1          12          16           1
 AtmWgt=   1.0078250   1.0078250  12.0000000  15.9949146   1.0078250
 NucSpn=           1           1           0           0           1
 AtZEff=  -0.0000000  -0.0000000  -0.0000000  -0.0000000  -0.0000000
 NQMom=    0.0000000   0.0000000   0.0000000   0.0000000   0.0000000
 NMagM=    2.7928460   2.7928460   0.0000000   0.0000000   2.7928460
 AtZNuc=   1.0000000   1.0000000   6.0000000   8.0000000   1.0000000
 Leave Link  101 at Tue Oct 27 23:37:06 2020, MaxMem=  7784628224 cpu:              31.7 elap:               3.2
 (Enter /gpfs/loomis/apps/avx/software/Gaussian/16-C.01_AVX/g16/l103.exe)

 GradGradGradGradGradGradGradGradGradGradGradGradGradGradGradGradGradGrad
 Berny optimization.
 Initialization pass.
                           ----------------------------
                           !    Initial Parameters    !
                           ! (Angstroms and Degrees)  !
 --------------------------                            --------------------------
 ! Name  Definition              Value          Derivative Info.                !
 --------------------------------------------------------------------------------
 ! R1    R(1,2)                  1.3956         estimate D2E/DX2                !
 ! R2    R(1,6)                  1.3935         estimate D2E/DX2                !
 ! R3    R(1,7)                  1.0932         estimate D2E/DX2                !
 ! R4    R(2,3)                  1.4197         estimate D2E/DX2                !
 ! R5    R(2,12)                 1.7513         estimate D2E/DX2                !
 ! R6    R(3,4)                  1.3958         estimate D2E/DX2                !
 ! R7    R(3,11)                 1.3956         estimate D2E/DX2                !
 ! R8    R(4,5)                  1.3985         estimate D2E/DX2                !
 ! R9    R(4,8)                  1.093          estimate D2E/DX2                !
 ! R10   R(5,6)                  1.3997         estimate D2E/DX2                !
 ! R11   R(5,9)                  1.0922         estimate D2E/DX2                !
 ! R12   R(6,10)                 1.0918         estimate D2E/DX2                !
 ! R13   R(11,23)                1.3612         estimate D2E/DX2                !
 ! R14   R(11,25)                0.7324         estimate D2E/DX2                !
 ! R15   R(12,23)                1.7328         estimate D2E/DX2                !
 ! R16   R(13,14)                1.3803         estimate D2E/DX2                !
 ! R17   R(13,15)                1.4808         estimate D2E/DX2                !
 ! R18   R(13,23)                1.424          estimate D2E/DX2                !
 ! R19   R(14,16)                1.4228         estimate D2E/DX2                !
 ! R20   R(14,17)                1.0938         estimate D2E/DX2                !
 ! R21   R(15,18)                1.434          estimate D2E/DX2                !
 ! R22   R(15,24)                1.255          estimate D2E/DX2                !
 ! R23   R(16,19)                1.3944         estimate D2E/DX2                !
 ! R24   R(16,20)                1.0927         estimate D2E/DX2                !
 ! R25   R(18,19)                1.4019         estimate D2E/DX2                !
 ! R26   R(18,21)                1.0927         estimate D2E/DX2                !
 ! R27   R(19,22)                1.0916         estimate D2E/DX2                !
 ! A1    A(2,1,6)              118.0569         estimate D2E/DX2                !
 ! A2    A(2,1,7)              120.542          estimate D2E/DX2                !
 ! A3    A(6,1,7)              121.4011         estimate D2E/DX2                !
 ! A4    A(1,2,3)              122.5564         estimate D2E/DX2                !
 ! A5    A(1,2,12)             125.7262         estimate D2E/DX2                !
 ! A6    A(3,2,12)             111.7174         estimate D2E/DX2                !
 ! A7    A(2,3,4)              118.5279         estimate D2E/DX2                !
 ! A8    A(2,3,11)             112.1655         estimate D2E/DX2                !
 ! A9    A(4,3,11)             129.3066         estimate D2E/DX2                !
 ! A10   A(3,4,5)              118.8525         estimate D2E/DX2                !
 ! A11   A(3,4,8)              120.4131         estimate D2E/DX2                !
 ! A12   A(5,4,8)              120.7344         estimate D2E/DX2                !
 ! A13   A(4,5,6)              122.0556         estimate D2E/DX2                !
 ! A14   A(4,5,9)              118.5943         estimate D2E/DX2                !
 ! A15   A(6,5,9)              119.3501         estimate D2E/DX2                !
 ! A16   A(1,6,5)              119.9508         estimate D2E/DX2                !
 ! A17   A(1,6,10)             119.9258         estimate D2E/DX2                !
 ! A18   A(5,6,10)             120.1234         estimate D2E/DX2                !
 ! A19   A(3,11,23)            112.1134         estimate D2E/DX2                !
 ! A20   A(3,11,25)            133.9527         estimate D2E/DX2                !
 ! A21   A(23,11,25)           113.9338         estimate D2E/DX2                !
 ! A22   A(2,12,23)             89.101          estimate D2E/DX2                !
 ! A23   A(14,13,15)           121.1222         estimate D2E/DX2                !
 ! A24   A(14,13,23)           122.3355         estimate D2E/DX2                !
 ! A25   A(15,13,23)           116.5423         estimate D2E/DX2                !
 ! A26   A(13,14,16)           119.8073         estimate D2E/DX2                !
 ! A27   A(13,14,17)           121.0829         estimate D2E/DX2                !
 ! A28   A(16,14,17)           119.1098         estimate D2E/DX2                !
 ! A29   A(13,15,18)           116.4166         estimate D2E/DX2                !
 ! A30   A(13,15,24)           119.1811         estimate D2E/DX2                !
 ! A31   A(18,15,24)           124.4023         estimate D2E/DX2                !
 ! A32   A(14,16,19)           120.9319         estimate D2E/DX2                !
 ! A33   A(14,16,20)           118.8237         estimate D2E/DX2                !
 ! A34   A(19,16,20)           120.2443         estimate D2E/DX2                !
 ! A35   A(15,18,19)           121.3758         estimate D2E/DX2                !
 ! A36   A(15,18,21)           116.7489         estimate D2E/DX2                !
 ! A37   A(19,18,21)           121.8753         estimate D2E/DX2                !
 ! A38   A(16,19,18)           120.3462         estimate D2E/DX2                !
 ! A39   A(16,19,22)           119.7225         estimate D2E/DX2                !
 ! A40   A(18,19,22)           119.9313         estimate D2E/DX2                !
 ! A41   A(11,23,12)           114.9026         estimate D2E/DX2                !
 ! A42   A(11,23,13)           121.6211         estimate D2E/DX2                !
 ! A43   A(12,23,13)           123.4762         estimate D2E/DX2                !
 ! D1    D(6,1,2,3)              0.0            estimate D2E/DX2                !
 ! D2    D(6,1,2,12)          -180.0            estimate D2E/DX2                !
 ! D3    D(7,1,2,3)            179.9999         estimate D2E/DX2                !
 ! D4    D(7,1,2,12)            -0.0001         estimate D2E/DX2                !
 ! D5    D(2,1,6,5)             -0.0001         estimate D2E/DX2                !
 ! D6    D(2,1,6,10)           179.9999         estimate D2E/DX2                !
 ! D7    D(7,1,6,5)            180.0            estimate D2E/DX2                !
 ! D8    D(7,1,6,10)             0.0            estimate D2E/DX2                !
 ! D9    D(1,2,3,4)              0.0002         estimate D2E/DX2                !
 ! D10   D(1,2,3,11)          -180.0            estimate D2E/DX2                !
 ! D11   D(12,2,3,4)          -179.9999         estimate D2E/DX2                !
 ! D12   D(12,2,3,11)            0.0            estimate D2E/DX2                !
 ! D13   D(1,2,12,23)          179.9997         estimate D2E/DX2                !
 ! D14   D(3,2,12,23)           -0.0002         estimate D2E/DX2                !
 ! D15   D(2,3,4,5)             -0.0002         estimate D2E/DX2                !
 ! D16   D(2,3,4,8)            179.9999         estimate D2E/DX2                !
 ! D17   D(11,3,4,5)           180.0            estimate D2E/DX2                !
 ! D18   D(11,3,4,8)             0.0001         estimate D2E/DX2                !
 ! D19   D(2,3,11,23)            0.0003         estimate D2E/DX2                !
 ! D20   D(2,3,11,25)          179.9969         estimate D2E/DX2                !
 ! D21   D(4,3,11,23)         -179.9999         estimate D2E/DX2                !
 ! D22   D(4,3,11,25)           -0.0032         estimate D2E/DX2                !
 ! D23   D(3,4,5,6)              0.0001         estimate D2E/DX2                !
 ! D24   D(3,4,5,9)           -179.9999         estimate D2E/DX2                !
 ! D25   D(8,4,5,6)            180.0            estimate D2E/DX2                !
 ! D26   D(8,4,5,9)              0.0            estimate D2E/DX2                !
 ! D27   D(4,5,6,1)              0.0001         estimate D2E/DX2                !
 ! D28   D(4,5,6,10)          -179.9999         estimate D2E/DX2                !
 ! D29   D(9,5,6,1)           -179.9999         estimate D2E/DX2                !
 ! D30   D(9,5,6,10)             0.0            estimate D2E/DX2                !
 ! D31   D(3,11,23,12)          -0.0005         estimate D2E/DX2                !
 ! D32   D(3,11,23,13)         179.9986         estimate D2E/DX2                !
 ! D33   D(25,11,23,12)       -179.9978         estimate D2E/DX2                !
 ! D34   D(25,11,23,13)          0.0013         estimate D2E/DX2                !
 ! D35   D(2,12,23,11)           0.0004         estimate D2E/DX2                !
 ! D36   D(2,12,23,13)        -179.9987         estimate D2E/DX2                !
 ! D37   D(15,13,14,16)          0.0007         estimate D2E/DX2                !
 ! D38   D(15,13,14,17)       -179.9996         estimate D2E/DX2                !
 ! D39   D(23,13,14,16)       -179.9994         estimate D2E/DX2                !
 ! D40   D(23,13,14,17)          0.0003         estimate D2E/DX2                !
 ! D41   D(14,13,15,18)         -0.0009         estimate D2E/DX2                !
 ! D42   D(14,13,15,24)        179.9989         estimate D2E/DX2                !
 ! D43   D(23,13,15,18)        179.9992         estimate D2E/DX2                !
 ! D44   D(23,13,15,24)         -0.001          estimate D2E/DX2                !
 ! D45   D(14,13,23,11)        179.9999         estimate D2E/DX2                !
 ! D46   D(14,13,23,12)         -0.0011         estimate D2E/DX2                !
 ! D47   D(15,13,23,11)         -0.0002         estimate D2E/DX2                !
 ! D48   D(15,13,23,12)        179.9988         estimate D2E/DX2                !
 ! D49   D(13,14,16,19)         -0.0001         estimate D2E/DX2                !
 ! D50   D(13,14,16,20)        179.9998         estimate D2E/DX2                !
 ! D51   D(17,14,16,19)       -179.9998         estimate D2E/DX2                !
 ! D52   D(17,14,16,20)          0.0001         estimate D2E/DX2                !
 ! D53   D(13,15,18,19)          0.0005         estimate D2E/DX2                !
 ! D54   D(13,15,18,21)        180.0            estimate D2E/DX2                !
 ! D55   D(24,15,18,19)       -179.9993         estimate D2E/DX2                !
 ! D56   D(24,15,18,21)          0.0002         estimate D2E/DX2                !
 ! D57   D(14,16,19,18)         -0.0003         estimate D2E/DX2                !
 ! D58   D(14,16,19,22)        179.9999         estimate D2E/DX2                !
 ! D59   D(20,16,19,18)        179.9998         estimate D2E/DX2                !
 ! D60   D(20,16,19,22)         -0.0001         estimate D2E/DX2                !
 ! D61   D(15,18,19,16)          0.0001         estimate D2E/DX2                !
 ! D62   D(15,18,19,22)        179.9999         estimate D2E/DX2                !
 ! D63   D(21,18,19,16)       -179.9994         estimate D2E/DX2                !
 ! D64   D(21,18,19,22)          0.0005         estimate D2E/DX2                !
 ! Qtot  GIC-1                  50.0            Frozen                          !
 ! Ptot  GIC-2                 100.0            Frozen                          !
 --------------------------------------------------------------------------------
 NOTE: GIC-type coordinates are in arbitrary units.
 Trust Radius=3.00D-01 FncErr=5.00D-06 GrdErr=5.00D-06 EigMax=2.50D+02 EigMin=1.00D-04
 Number of steps in this run=    146 maximum allowed number of steps=    150.
 GradGradGradGradGradGradGradGradGradGradGradGradGradGradGradGradGradGrad

 Leave Link  103 at Tue Oct 27 23:37:06 2020, MaxMem=  7784628224 cpu:               0.1 elap:               0.0
 (Enter /gpfs/loomis/apps/avx/software/Gaussian/16-C.01_AVX/g16/l202.exe)
                          Input orientation:                          
 ---------------------------------------------------------------------
 Center     Atomic      Atomic             Coordinates (Angstroms)
 Number     Number       Type             X           Y           Z
 ---------------------------------------------------------------------
      1          6           0        1.592227   -3.250846   -0.000019
      2          6           0        1.008518   -1.983139   -0.000022
      3          6           0        1.775923   -0.788710   -0.000024
      4          6           0        3.167985   -0.890748   -0.000027
      5          6           0        3.751508   -2.161745   -0.000023
      6          6           0        2.983340   -3.331871   -0.000018
      7          1           0        0.969343   -4.149248   -0.000016
      8          1           0        3.788736    0.008901   -0.000031
      9          1           0        4.841163   -2.236683   -0.000024
     10          1           0        3.472073   -4.308173   -0.000015
     11          7           0        0.973134    0.352936   -0.000027
     12         16           0       -0.710587   -1.648894   -0.000024
     13          6           0       -1.353481    1.060257    0.000009
     14          6           0       -2.702183    0.766524    0.000014
     15          6           0       -0.875407    2.461729    0.000035
     16          6           0       -3.655925    1.822280    0.000030
     17          1           0       -3.054604   -0.268917    0.000002
     18          6           0       -1.884933    3.480184    0.000046
     19          6           0       -3.248833    3.155963    0.000043
     20          1           0       -4.719417    1.571467    0.000031
     21          1           0       -1.538139    4.516440    0.000065
     22          1           0       -3.997498    3.950335    0.000053
     23          6           0       -0.353214    0.046704   -0.000020
     24          8           0        0.359193    2.687106    0.000050
     25          1           0        1.112038    1.072030   -0.000000
 ---------------------------------------------------------------------
                    Distance matrix (angstroms):
                    1          2          3          4          5
     1  C    0.000000
     2  C    1.395635   0.000000
     3  C    2.468979   1.419708   0.000000
     4  C    2.837794   2.420044   1.395797   0.000000
     5  C    2.418395   2.748798   2.405860   1.398546   0.000000
     6  C    1.393471   2.391442   2.815231   2.448096   1.399741
     7  H    1.093211   2.166463   3.455978   3.930883   3.419153
     8  H    3.930726   3.420210   2.165087   1.093024   2.170965
     9  H    3.403544   3.841021   3.390033   2.147339   1.092229
    10  H    2.156794   3.387459   3.906859   3.430927   2.164541
    11  N    3.656573   2.336344   1.395645   2.522721   3.747397
    12  S    2.805210   1.751298   2.631092   3.951975   4.491471
    13  C    5.221380   3.852441   3.634810   4.924437   6.036738
    14  C    5.880581   4.618437   4.740484   6.099625   7.086952
    15  C    6.222759   4.827632   4.194628   5.252439   6.541013
    16  C    7.299295   6.019822   6.026793   7.343451   8.410857
    17  H    5.521317   4.409934   4.858412   6.253582   7.064415
    18  C    7.576108   6.182230   5.623640   6.681095   7.975013
    19  C    8.030135   6.673486   6.388162   7.586265   8.791063
    20  H    7.943019   6.741251   6.910851   8.262784   9.257075
    21  H    8.374361   6.980687   6.255207   7.168353   8.519302
    22  H    9.116032   7.763139   7.469333   8.647556   9.869378
    23  C    3.828652   2.444295   2.287168   3.643852   4.661114
    24  O    6.064622   4.715168   3.753454   4.548665   5.917698
    25  H    4.349464   3.056922   1.975625   2.842431   4.174218
                    6          7          8          9         10
     6  C    0.000000
     7  H    2.173543   0.000000
     8  H    3.436484   5.023861   0.000000
     9  H    2.156604   4.318436   2.479969   0.000000
    10  H    1.091799   2.507771   4.328672   2.483038   0.000000
    11  N    4.197467   4.502186   2.836543   4.654866   5.288727
    12  S    4.059250   3.012297   4.795018   5.582779   4.956451
    13  C    6.172423   5.703898   5.248595   7.017366   7.218450
    14  C    7.008710   6.135546   6.534985   8.119195   7.992121
    15  C    6.961015   6.863536   5.269781   7.399611   8.045630
    16  C    8.405065   7.553294   7.662332   9.416777   9.401639
    17  H    6.770410   5.590091   6.848977   8.137274   7.675487
    18  C    8.372824   8.145866   6.651341   8.827397   9.452832
    19  C    8.996220   8.435586   7.709175   9.722585  10.044098
    20  H    9.131001   8.067748   8.650449  10.291097  10.083187
    21  H    9.057580   9.021175   6.978073   9.289788  10.147710
    22  H   10.087746   9.501198   8.726990  10.788935  11.135414
    23  C    4.748406   4.399451   4.142123   5.674099   5.796358
    24  O    6.566142   6.863528   4.351384   6.658209   7.656627
    25  H    4.784988   5.223227   2.880096   4.985373   5.875061
                   11         12         13         14         15
    11  N    0.000000
    12  S    2.615768   0.000000
    13  C    2.431757   2.784387   0.000000
    14  C    3.698515   3.130607   1.380317   0.000000
    15  C    2.804302   4.113926   1.480770   2.492154   0.000000
    16  C    4.856661   4.552369   2.425268   1.422759   2.853100
    17  H    4.075460   2.720064   2.158824   1.093773   3.493613
    18  C    4.236535   5.261799   2.477597   2.834051   1.434013
    19  C    5.067738   5.434091   2.825658   2.451172   2.472875
    20  H    5.821507   5.142124   3.404535   2.171903   3.945754
    21  H    4.862227   6.220626   3.461112   3.926431   2.158946
    22  H    6.135834   6.492700   3.917062   3.437222   3.458815
    23  C    1.361241   1.732849   1.424017   2.456786   2.470837
    24  O    2.413560   4.466019   2.362179   3.613953   1.255003
    25  H    0.732386   3.274964   2.465548   3.826437   2.425119
                   16         17         18         19         20
    16  C    0.000000
    17  H    2.175935   0.000000
    18  C    2.425914   3.927326   0.000000
    19  C    1.394430   3.430384   1.401906   0.000000
    20  H    1.092667   2.481656   3.417235   2.161768   0.000000
    21  H    3.426881   5.019891   1.092745   2.185720   4.335134
    22  H    2.155294   4.323326   2.164248   1.091571   2.485997
    23  C    3.749743   2.719766   3.759648   4.248777   4.624784
    24  O    4.107201   4.515759   2.380142   3.638362   5.199704
    25  H    4.826629   4.377105   3.844613   4.833216   5.852803
                   21         22         23         24         25
    21  H    0.000000
    22  H    2.523672   0.000000
    23  C    4.624131   5.340332   0.000000
    24  O    2.635589   4.536133   2.734821   0.000000
    25  H    4.345964   5.864470   1.788367   1.781922   0.000000
 Symmetry turned off by external request.
 Stoichiometry    C13H9NOS
 Framework group  C1[X(C13H9NOS)]
 Deg. of freedom    69
 Full point group                 C1      NOp   1
 Rotational constants (GHZ):           1.4104731           0.2861605           0.2378956
 Leave Link  202 at Tue Oct 27 23:37:06 2020, MaxMem=  7784628224 cpu:               0.1 elap:               0.0
 (Enter /gpfs/loomis/apps/avx/software/Gaussian/16-C.01_AVX/g16/l301.exe)
 Standard basis: CC-pVDZ (5D, 7F)
 Ernie: Thresh=  0.10000D-02 Tol=  0.10000D-05 Strict=F.
 Ernie:  40 primitive shells out of 425 were deleted.
   273 basis functions,   629 primitive gaussians,   289 cartesian basis functions
    59 alpha electrons       59 beta electrons
       nuclear repulsion energy      1102.9001496521 Hartrees.
 IExCor= 4639 DFT=T Ex+Corr=wB97XD ExCW=0 ScaHFX=  1.000000
 ScaDFX=  1.000000  1.000000  1.000000  1.000000 ScalE2=  1.000000  1.000000
 IRadAn=      5 IRanWt=     -1 IRanGd=            0 ICorTp=0 IEmpDi=121
 HFx  wShort=  0.000000 wLong=  0.200000 cFull=  0.222036 cShort=  0.000000 cLong=  0.777964
 DFx  wShort=  0.000000 wLong=  0.200000 cFull=  0.000000 cShort=  0.000000 cLong=  1.000000
 NAtoms=   25 NActive=   25 NUniq=   25 SFac= 1.00D+00 NAtFMM=   60 NAOKFM=F Big=F
 Integral buffers will be    131072 words long.
 Raffenetti 2 integral format.
 Two-electron integral symmetry is turned off.
 R6Disp:  Grimme-D2 Dispersion energy=       -0.0140519871 Hartrees.
 Nuclear repulsion after empirical dispersion term =     1102.8860976650 Hartrees.
 ------------------------------------------------------------------------------
 Polarizable Continuum Model (PCM)
 =================================
 Model                : PCM.
 Atomic radii         : UFF (Universal Force Field).
 Polarization charges : Total charges.
 Charge compensation  : None.
 Solution method      : On-the-fly selection.
 Cavity type          : Scaled VdW (van der Waals Surface) (Alpha=1.100).
 Cavity algorithm     : GePol (No added spheres)
                        Default sphere list used, NSphG=   25.
                        Lebedev-Laikov grids with approx.  5.0 points / Ang**2.
                        Smoothing algorithm: York/Karplus (Gamma=1.0000).
                        Polarization charges: spherical gaussians, with
                                              point-specific exponents (IZeta= 3).
                        Self-potential: point-specific (ISelfS= 7).
                        Self-field    : sphere-specific E.n sum rule (ISelfD= 2).
 1st derivatives      : Analytical E(r).r(x)/FMM algorithm (CHGder, D1EAlg=3).
                        Cavity 1st derivative terms included.
 Solvent              : CarbonTetraChloride, Eps=   2.228000 Eps(inf)=   2.131892
 ------------------------------------------------------------------------------
 GePol: Number of generator spheres                  =      25
 GePol: Total number of spheres                      =      25
 GePol: Number of exposed spheres                    =      25 (100.00%)
 GePol: Number of points                             =    2194
 GePol: Average weight of points                     =       0.12
 GePol: Minimum weight of points                     =   0.23D-10
 GePol: Maximum weight of points                     =    0.20577
 GePol: Number of points with low weight             =     142
 GePol: Fraction of low-weight points (<1% of avg)   =       6.47%
 GePol: Cavity surface area                          =    271.623 Ang**2
 GePol: Cavity volume                                =    291.360 Ang**3
 Leave Link  301 at Tue Oct 27 23:37:06 2020, MaxMem=  7784628224 cpu:               0.8 elap:               0.1
 (Enter /gpfs/loomis/apps/avx/software/Gaussian/16-C.01_AVX/g16/l302.exe)
 NPDir=0 NMtPBC=     1 NCelOv=     1 NCel=       1 NClECP=     1 NCelD=      1
         NCelK=      1 NCelE2=     1 NClLst=     1 CellRange=     0.0.
 One-electron integrals computed using PRISM.
 NBasis=   273 RedAO= T EigKep=  3.04D-04  NBF=   273
 NBsUse=   273 1.00D-06 EigRej= -1.00D+00 NBFU=   273
 Precomputing XC quadrature grid using
 IXCGrd= 4 IRadAn=           5 IRanWt=          -1 IRanGd=           0 AccXCQ= 0.00D+00.
 Generated NRdTot=       0 NPtTot=           0 NUsed=           0 NTot=          32
 NSgBfM=   288   288   288   288   288 MxSgAt=    25 MxSgA2=    25.
 Leave Link  302 at Tue Oct 27 23:37:07 2020, MaxMem=  7784628224 cpu:               2.5 elap:               0.3
 (Enter /gpfs/loomis/apps/avx/software/Gaussian/16-C.01_AVX/g16/l303.exe)
 DipDrv:  MaxL=1.
 Leave Link  303 at Tue Oct 27 23:37:07 2020, MaxMem=  7784628224 cpu:               0.4 elap:               0.1
 (Enter /gpfs/loomis/apps/avx/software/Gaussian/16-C.01_AVX/g16/l401.exe)
 ExpMin= 1.22D-01 ExpMax= 1.11D+05 ExpMxC= 1.07D+03 IAcc=3 IRadAn=         5 AccDes= 0.00D+00
 Harris functional with IExCor= 4639 and IRadAn=       5 diagonalized for initial guess.
 HarFok:  IExCor= 4639 AccDes= 0.00D+00 IRadAn=         5 IDoV= 1 UseB2=F ITyADJ=14
 ICtDFT=  3500011 ScaDFX=  1.000000  1.000000  1.000000  1.000000
 FoFCou: FMM=F IPFlag=           0 FMFlag=      100000 FMFlg1=           0
         NFxFlg=           0 DoJE=T BraDBF=F KetDBF=T FulRan=T
         wScrn=  0.000000 ICntrl=       500 IOpCl=  0 I1Cent=   200000004 NGrid=           0
         NMat0=    1 NMatS0=      1 NMatT0=    0 NMatD0=    1 NMtDS0=    0 NMtDT0=    0
 Symmetry not used in FoFCou.
 Harris En= -994.299657088508    
 JPrj=0 DoOrth=F DoCkMO=F.
 Leave Link  401 at Tue Oct 27 23:37:08 2020, MaxMem=  7784628224 cpu:              14.1 elap:               1.4
 (Enter /gpfs/loomis/apps/avx/software/Gaussian/16-C.01_AVX/g16/l502.exe)
 Two-electron integral symmetry not used.
 Closed shell SCF:
 Using DIIS extrapolation, IDIIS=  1040.
 NGot=  7784628224 LenX=  7784455381 LenY=  7784371419
 Requested convergence on RMS density matrix=1.00D-08 within 128 cycles.
 Requested convergence on MAX density matrix=1.00D-06.
 Requested convergence on             energy=1.00D-06.
 No special actions if energy rises.
 Fock matrices will be formed incrementally for  20 cycles.

 Cycle   1  Pass 1  IDiag  1:
 FoFJK:  IHMeth= 1 ICntrl=       0 DoSepK=T KAlg= 0 I1Cent=           0 FoldK=F
 IRaf=         1 NMat=       1 IRICut=       1 DoRegI=T DoRafI=F ISym2E= 0 IDoP0=0 IntGTp=1.
 FoFCou: FMM=F IPFlag=           0 FMFlag=      100000 FMFlg1=           0
         NFxFlg=           0 DoJE=T BraDBF=F KetDBF=F FulRan=T
         wScrn=  0.000000 ICntrl=       500 IOpCl=  0 I1Cent=           0 NGrid=           0
         NMat0=    1 NMatS0=      1 NMatT0=    0 NMatD0=    1 NMtDS0=    0 NMtDT0=    0
 Symmetry not used in FoFCou.
 Inv3:  Mode=1 IEnd=    14440908.
 Iteration    1 A*A^-1 deviation from unit magnitude is 4.11D-15 for   2178.
 Iteration    1 A*A^-1 deviation from orthogonality  is 1.45D-15 for   2179   2105.
 Iteration    1 A^-1*A deviation from unit magnitude is 4.00D-15 for   2177.
 Iteration    1 A^-1*A deviation from orthogonality  is 1.57D-15 for   1130    616.
 E= -1028.41443463158    
 DIIS: error= 3.75D-02 at cycle   1 NSaved=   1.
 NSaved= 1 IEnMin= 1 EnMin= -1028.41443463158     IErMin= 1 ErrMin= 3.75D-02
 ErrMax= 3.75D-02  0.00D+00 EMaxC= 1.00D-01 BMatC= 3.92D-01 BMatP= 3.92D-01
 IDIUse=3 WtCom= 6.25D-01 WtEn= 3.75D-01
 Coeff-Com:  0.100D+01
 Coeff-En:   0.100D+01
 Coeff:      0.100D+01
 Gap=     0.300 Goal=   None    Shift=    0.000
 GapD=    0.300 DampG=1.000 DampE=0.500 DampFc=0.5000 IDamp=-1.
 Damping current iteration by 5.00D-01
 RMSDP=3.67D-03 MaxDP=2.53D-01              OVMax= 2.11D-01

 Cycle   2  Pass 1  IDiag  1:
 RMSU=  1.83D-03    CP:  9.94D-01
 E= -1028.53607114921     Delta-E=       -0.121636517629 Rises=F Damp=T
 DIIS: error= 1.04D-02 at cycle   2 NSaved=   2.
 NSaved= 2 IEnMin= 2 EnMin= -1028.53607114921     IErMin= 2 ErrMin= 1.04D-02
 ErrMax= 1.04D-02  0.00D+00 EMaxC= 1.00D-01 BMatC= 5.82D-02 BMatP= 3.92D-01
 IDIUse=3 WtCom= 8.96D-01 WtEn= 1.04D-01
 Coeff-Com: -0.291D+00 0.129D+01
 Coeff-En:   0.000D+00 0.100D+01
 Coeff:     -0.260D+00 0.126D+01
 Gap=     0.371 Goal=   None    Shift=    0.000
 RMSDP=1.17D-03 MaxDP=2.83D-02 DE=-1.22D-01 OVMax= 1.47D-01

 Cycle   3  Pass 1  IDiag  1:
 RMSU=  1.13D-03    CP:  9.93D-01  1.16D+00
 E= -1028.64566313032     Delta-E=       -0.109591981115 Rises=F Damp=F
 DIIS: error= 6.12D-03 at cycle   3 NSaved=   3.
 NSaved= 3 IEnMin= 3 EnMin= -1028.64566313032     IErMin= 3 ErrMin= 6.12D-03
 ErrMax= 6.12D-03  0.00D+00 EMaxC= 1.00D-01 BMatC= 1.50D-02 BMatP= 5.82D-02
 IDIUse=3 WtCom= 9.39D-01 WtEn= 6.12D-02
 Coeff-Com: -0.205D+00 0.499D+00 0.706D+00
 Coeff-En:   0.000D+00 0.000D+00 0.100D+01
 Coeff:     -0.192D+00 0.468D+00 0.724D+00
 Gap=     0.234 Goal=   None    Shift=    0.000
 RMSDP=5.43D-04 MaxDP=2.06D-02 DE=-1.10D-01 OVMax= 4.77D-02

 Cycle   4  Pass 1  IDiag  1:
 RMSU=  4.24D-04    CP:  9.91D-01  1.32D+00  8.55D-01
 E= -1028.66064029944     Delta-E=       -0.014977169111 Rises=F Damp=F
 DIIS: error= 1.95D-03 at cycle   4 NSaved=   4.
 NSaved= 4 IEnMin= 4 EnMin= -1028.66064029944     IErMin= 4 ErrMin= 1.95D-03
 ErrMax= 1.95D-03  0.00D+00 EMaxC= 1.00D-01 BMatC= 1.80D-03 BMatP= 1.50D-02
 IDIUse=3 WtCom= 9.80D-01 WtEn= 1.95D-02
 Coeff-Com: -0.727D-01 0.144D+00 0.339D+00 0.589D+00
 Coeff-En:   0.000D+00 0.000D+00 0.000D+00 0.100D+01
 Coeff:     -0.712D-01 0.141D+00 0.333D+00 0.597D+00
 Gap=     0.236 Goal=   None    Shift=    0.000
 RMSDP=1.69D-04 MaxDP=8.86D-03 DE=-1.50D-02 OVMax= 1.28D-02

 Cycle   5  Pass 1  IDiag  1:
 RMSU=  1.12D-04    CP:  9.90D-01  1.33D+00  9.25D-01  7.73D-01
 E= -1028.66260153152     Delta-E=       -0.001961232082 Rises=F Damp=F
 DIIS: error= 5.28D-04 at cycle   5 NSaved=   5.
 NSaved= 5 IEnMin= 5 EnMin= -1028.66260153152     IErMin= 5 ErrMin= 5.28D-04
 ErrMax= 5.28D-04  0.00D+00 EMaxC= 1.00D-01 BMatC= 6.38D-05 BMatP= 1.80D-03
 IDIUse=3 WtCom= 9.95D-01 WtEn= 5.28D-03
 Coeff-Com: -0.766D-03-0.488D-02 0.280D-01 0.161D+00 0.817D+00
 Coeff-En:   0.000D+00 0.000D+00 0.000D+00 0.000D+00 0.100D+01
 Coeff:     -0.762D-03-0.486D-02 0.278D-01 0.160D+00 0.818D+00
 Gap=     0.237 Goal=   None    Shift=    0.000
 RMSDP=6.30D-05 MaxDP=2.05D-03 DE=-1.96D-03 OVMax= 6.73D-03

 Cycle   6  Pass 1  IDiag  1:
 RMSU=  4.13D-05    CP:  9.90D-01  1.33D+00  9.42D-01  8.69D-01  1.13D+00
 E= -1028.66275037077     Delta-E=       -0.000148839251 Rises=F Damp=F
 DIIS: error= 2.91D-04 at cycle   6 NSaved=   6.
 NSaved= 6 IEnMin= 6 EnMin= -1028.66275037077     IErMin= 6 ErrMin= 2.91D-04
 ErrMax= 2.91D-04  0.00D+00 EMaxC= 1.00D-01 BMatC= 1.20D-05 BMatP= 6.38D-05
 IDIUse=3 WtCom= 9.97D-01 WtEn= 2.91D-03
 Coeff-Com:  0.182D-01-0.370D-01-0.690D-01-0.828D-01 0.209D+00 0.961D+00
 Coeff-En:   0.000D+00 0.000D+00 0.000D+00 0.000D+00 0.000D+00 0.100D+01
 Coeff:      0.181D-01-0.369D-01-0.688D-01-0.826D-01 0.209D+00 0.962D+00
 Gap=     0.238 Goal=   None    Shift=    0.000
 RMSDP=4.16D-05 MaxDP=2.03D-03 DE=-1.49D-04 OVMax= 5.25D-03

 Cycle   7  Pass 1  IDiag  1:
 RMSU=  2.07D-05    CP:  9.90D-01  1.33D+00  9.56D-01  9.07D-01  1.35D+00
                    CP:  1.31D+00
 E= -1028.66279482386     Delta-E=       -0.000044453094 Rises=F Damp=F
 DIIS: error= 8.84D-05 at cycle   7 NSaved=   7.
 NSaved= 7 IEnMin= 7 EnMin= -1028.66279482386     IErMin= 7 ErrMin= 8.84D-05
 ErrMax= 8.84D-05  0.00D+00 EMaxC= 1.00D-01 BMatC= 3.28D-06 BMatP= 1.20D-05
 IDIUse=1 WtCom= 1.00D+00 WtEn= 0.00D+00
 Coeff-Com:  0.793D-02-0.151D-01-0.317D-01-0.581D-01-0.252D-01 0.442D+00
 Coeff-Com:  0.680D+00
 Coeff:      0.793D-02-0.151D-01-0.317D-01-0.581D-01-0.252D-01 0.442D+00
 Coeff:      0.680D+00
 Gap=     0.238 Goal=   None    Shift=    0.000
 RMSDP=1.52D-05 MaxDP=5.65D-04 DE=-4.45D-05 OVMax= 1.63D-03

 Cycle   8  Pass 1  IDiag  1:
 RMSU=  8.78D-06    CP:  9.90D-01  1.33D+00  9.57D-01  9.16D-01  1.40D+00
                    CP:  1.56D+00  1.10D+00
 E= -1028.66280202285     Delta-E=       -0.000007198990 Rises=F Damp=F
 DIIS: error= 6.53D-05 at cycle   8 NSaved=   8.
 NSaved= 8 IEnMin= 8 EnMin= -1028.66280202285     IErMin= 8 ErrMin= 6.53D-05
 ErrMax= 6.53D-05  0.00D+00 EMaxC= 1.00D-01 BMatC= 4.20D-07 BMatP= 3.28D-06
 IDIUse=1 WtCom= 1.00D+00 WtEn= 0.00D+00
 Coeff-Com: -0.143D-02 0.319D-02 0.642D-02 0.630D-03-0.441D-01-0.767D-01
 Coeff-Com:  0.173D+00 0.939D+00
 Coeff:     -0.143D-02 0.319D-02 0.642D-02 0.630D-03-0.441D-01-0.767D-01
 Coeff:      0.173D+00 0.939D+00
 Gap=     0.238 Goal=   None    Shift=    0.000
 RMSDP=8.40D-06 MaxDP=2.26D-04 DE=-7.20D-06 OVMax= 1.42D-03

 Cycle   9  Pass 1  IDiag  1:
 RMSU=  3.44D-06    CP:  9.90D-01  1.33D+00  9.57D-01  9.16D-01  1.42D+00
                    CP:  1.67D+00  1.35D+00  1.19D+00
 E= -1028.66280397160     Delta-E=       -0.000001948747 Rises=F Damp=F
 DIIS: error= 1.94D-05 at cycle   9 NSaved=   9.
 NSaved= 9 IEnMin= 9 EnMin= -1028.66280397160     IErMin= 9 ErrMin= 1.94D-05
 ErrMax= 1.94D-05  0.00D+00 EMaxC= 1.00D-01 BMatC= 1.50D-07 BMatP= 4.20D-07
 IDIUse=1 WtCom= 1.00D+00 WtEn= 0.00D+00
 Coeff-Com: -0.162D-02 0.319D-02 0.718D-02 0.846D-02-0.129D-01-0.103D+00
 Coeff-Com: -0.747D-01 0.384D+00 0.789D+00
 Coeff:     -0.162D-02 0.319D-02 0.718D-02 0.846D-02-0.129D-01-0.103D+00
 Coeff:     -0.747D-01 0.384D+00 0.789D+00
 Gap=     0.238 Goal=   None    Shift=    0.000
 RMSDP=4.39D-06 MaxDP=1.47D-04 DE=-1.95D-06 OVMax= 6.26D-04

 Cycle  10  Pass 1  IDiag  1:
 RMSU=  1.63D-06    CP:  9.90D-01  1.33D+00  9.57D-01  9.16D-01  1.43D+00
                    CP:  1.73D+00  1.44D+00  1.45D+00  1.18D+00
 E= -1028.66280443601     Delta-E=       -0.000000464414 Rises=F Damp=F
 DIIS: error= 1.16D-05 at cycle  10 NSaved=  10.
 NSaved=10 IEnMin=10 EnMin= -1028.66280443601     IErMin=10 ErrMin= 1.16D-05
 ErrMax= 1.16D-05  0.00D+00 EMaxC= 1.00D-01 BMatC= 2.16D-08 BMatP= 1.50D-07
 IDIUse=1 WtCom= 1.00D+00 WtEn= 0.00D+00
 Coeff-Com:  0.606D-04-0.196D-03 0.116D-03 0.145D-02 0.837D-02-0.830D-02
 Coeff-Com: -0.797D-01-0.874D-01 0.249D+00 0.916D+00
 Coeff:      0.606D-04-0.196D-03 0.116D-03 0.145D-02 0.837D-02-0.830D-02
 Coeff:     -0.797D-01-0.874D-01 0.249D+00 0.916D+00
 Gap=     0.238 Goal=   None    Shift=    0.000
 RMSDP=2.15D-06 MaxDP=5.33D-05 DE=-4.64D-07 OVMax= 3.78D-04

 Cycle  11  Pass 1  IDiag  1:
 RMSU=  6.27D-07    CP:  9.90D-01  1.33D+00  9.57D-01  9.16D-01  1.43D+00
                    CP:  1.75D+00  1.48D+00  1.57D+00  1.50D+00  1.22D+00
 E= -1028.66280453809     Delta-E=       -0.000000102073 Rises=F Damp=F
 DIIS: error= 3.96D-06 at cycle  11 NSaved=  11.
 NSaved=11 IEnMin=11 EnMin= -1028.66280453809     IErMin=11 ErrMin= 3.96D-06
 ErrMax= 3.96D-06  0.00D+00 EMaxC= 1.00D-01 BMatC= 4.36D-09 BMatP= 2.16D-08
 IDIUse=1 WtCom= 1.00D+00 WtEn= 0.00D+00
 Coeff-Com:  0.284D-03-0.585D-03-0.104D-02-0.931D-03 0.524D-02 0.134D-01
 Coeff-Com: -0.185D-01-0.772D-01-0.574D-01 0.285D+00 0.852D+00
 Coeff:      0.284D-03-0.585D-03-0.104D-02-0.931D-03 0.524D-02 0.134D-01
 Coeff:     -0.185D-01-0.772D-01-0.574D-01 0.285D+00 0.852D+00
 Gap=     0.238 Goal=   None    Shift=    0.000
 RMSDP=7.71D-07 MaxDP=2.21D-05 DE=-1.02D-07 OVMax= 1.21D-04

 Cycle  12  Pass 1  IDiag  1:
 RMSU=  2.47D-07    CP:  9.90D-01  1.33D+00  9.57D-01  9.17D-01  1.44D+00
                    CP:  1.76D+00  1.49D+00  1.61D+00  1.60D+00  1.46D+00
                    CP:  1.19D+00
 E= -1028.66280455190     Delta-E=       -0.000000013808 Rises=F Damp=F
 DIIS: error= 1.42D-06 at cycle  12 NSaved=  12.
 NSaved=12 IEnMin=12 EnMin= -1028.66280455190     IErMin=12 ErrMin= 1.42D-06
 ErrMax= 1.42D-06  0.00D+00 EMaxC= 1.00D-01 BMatC= 6.28D-10 BMatP= 4.36D-09
 IDIUse=1 WtCom= 1.00D+00 WtEn= 0.00D+00
 Coeff-Com:  0.120D-03-0.231D-03-0.494D-03-0.854D-03 0.589D-03 0.786D-02
 Coeff-Com:  0.786D-02-0.107D-01-0.783D-01-0.701D-01 0.284D+00 0.860D+00
 Coeff:      0.120D-03-0.231D-03-0.494D-03-0.854D-03 0.589D-03 0.786D-02
 Coeff:      0.786D-02-0.107D-01-0.783D-01-0.701D-01 0.284D+00 0.860D+00
 Gap=     0.238 Goal=   None    Shift=    0.000
 RMSDP=3.25D-07 MaxDP=9.16D-06 DE=-1.38D-08 OVMax= 5.11D-05

 Cycle  13  Pass 1  IDiag  1:
 RMSU=  9.37D-08    CP:  9.90D-01  1.33D+00  9.57D-01  9.17D-01  1.44D+00
                    CP:  1.76D+00  1.49D+00  1.62D+00  1.64D+00  1.55D+00
                    CP:  1.42D+00  1.09D+00
 E= -1028.66280455414     Delta-E=       -0.000000002246 Rises=F Damp=F
 DIIS: error= 5.36D-07 at cycle  13 NSaved=  13.
 NSaved=13 IEnMin=13 EnMin= -1028.66280455414     IErMin=13 ErrMin= 5.36D-07
 ErrMax= 5.36D-07  0.00D+00 EMaxC= 1.00D-01 BMatC= 6.14D-11 BMatP= 6.28D-10
 IDIUse=1 WtCom= 1.00D+00 WtEn= 0.00D+00
 Coeff-Com: -0.141D-04 0.307D-04 0.495D-04-0.404D-04-0.303D-03 0.630D-04
 Coeff-Com:  0.258D-02 0.680D-02-0.759D-02-0.396D-01-0.667D-01 0.163D+00
 Coeff-Com:  0.942D+00
 Coeff:     -0.141D-04 0.307D-04 0.495D-04-0.404D-04-0.303D-03 0.630D-04
 Coeff:      0.258D-02 0.680D-02-0.759D-02-0.396D-01-0.667D-01 0.163D+00
 Coeff:      0.942D+00
 Gap=     0.238 Goal=   None    Shift=    0.000
 RMSDP=9.13D-08 MaxDP=2.20D-06 DE=-2.25D-09 OVMax= 1.11D-05

 Cycle  14  Pass 1  IDiag  1:
 RMSU=  3.36D-08    CP:  9.90D-01  1.33D+00  9.57D-01  9.17D-01  1.44D+00
                    CP:  1.76D+00  1.49D+00  1.63D+00  1.65D+00  1.58D+00
                    CP:  1.47D+00  1.25D+00  1.19D+00
 E= -1028.66280455433     Delta-E=       -0.000000000193 Rises=F Damp=F
 DIIS: error= 1.62D-07 at cycle  14 NSaved=  14.
 NSaved=14 IEnMin=14 EnMin= -1028.66280455433     IErMin=14 ErrMin= 1.62D-07
 ErrMax= 1.62D-07  0.00D+00 EMaxC= 1.00D-01 BMatC= 7.19D-12 BMatP= 6.14D-11
 IDIUse=1 WtCom= 1.00D+00 WtEn= 0.00D+00
 Coeff-Com: -0.137D-04 0.274D-04 0.559D-04 0.566D-04-0.139D-03-0.653D-03
 Coeff-Com: -0.692D-04 0.316D-02 0.469D-02-0.389D-02-0.438D-01-0.312D-01
 Coeff-Com:  0.294D+00 0.777D+00
 Coeff:     -0.137D-04 0.274D-04 0.559D-04 0.566D-04-0.139D-03-0.653D-03
 Coeff:     -0.692D-04 0.316D-02 0.469D-02-0.389D-02-0.438D-01-0.312D-01
 Coeff:      0.294D+00 0.777D+00
 Gap=     0.238 Goal=   None    Shift=    0.000
 RMSDP=1.96D-08 MaxDP=4.70D-07 DE=-1.93D-10 OVMax= 2.51D-06

 Cycle  15  Pass 1  IDiag  1:
 RMSU=  1.13D-08    CP:  9.90D-01  1.33D+00  9.57D-01  9.17D-01  1.44D+00
                    CP:  1.76D+00  1.49D+00  1.63D+00  1.65D+00  1.58D+00
                    CP:  1.48D+00  1.28D+00  1.32D+00  1.12D+00
 E= -1028.66280455434     Delta-E=       -0.000000000009 Rises=F Damp=F
 DIIS: error= 7.25D-08 at cycle  15 NSaved=  15.
 NSaved=15 IEnMin=15 EnMin= -1028.66280455434     IErMin=15 ErrMin= 7.25D-08
 ErrMax= 7.25D-08  0.00D+00 EMaxC= 1.00D-01 BMatC= 1.30D-12 BMatP= 7.19D-12
 IDIUse=1 WtCom= 1.00D+00 WtEn= 0.00D+00
 Coeff-Com: -0.243D-05 0.436D-05 0.123D-04 0.328D-04 0.227D-05-0.295D-03
 Coeff-Com: -0.623D-03-0.194D-03 0.339D-02 0.735D-02-0.157D-02-0.527D-01
 Coeff-Com: -0.905D-01 0.239D+00 0.896D+00
 Coeff:     -0.243D-05 0.436D-05 0.123D-04 0.328D-04 0.227D-05-0.295D-03
 Coeff:     -0.623D-03-0.194D-03 0.339D-02 0.735D-02-0.157D-02-0.527D-01
 Coeff:     -0.905D-01 0.239D+00 0.896D+00
 Gap=     0.238 Goal=   None    Shift=    0.000
 RMSDP=1.18D-08 MaxDP=2.96D-07 DE=-8.87D-12 OVMax= 1.38D-06

 Cycle  16  Pass 1  IDiag  1:
 RMSU=  4.94D-09    CP:  9.90D-01  1.33D+00  9.57D-01  9.17D-01  1.44D+00
                    CP:  1.76D+00  1.49D+00  1.63D+00  1.65D+00  1.58D+00
                    CP:  1.49D+00  1.30D+00  1.38D+00  1.31D+00  1.18D+00
 E= -1028.66280455434     Delta-E=       -0.000000000002 Rises=F Damp=F
 DIIS: error= 2.70D-08 at cycle  16 NSaved=  16.
 NSaved=16 IEnMin=16 EnMin= -1028.66280455434     IErMin=16 ErrMin= 2.70D-08
 ErrMax= 2.70D-08  0.00D+00 EMaxC= 1.00D-01 BMatC= 1.38D-13 BMatP= 1.30D-12
 IDIUse=1 WtCom= 1.00D+00 WtEn= 0.00D+00
 Coeff-Com:  0.625D-06-0.137D-05-0.180D-05 0.300D-05 0.102D-04-0.201D-04
 Coeff-Com: -0.151D-03-0.335D-03 0.331D-03 0.206D-02 0.405D-02-0.110D-01
 Coeff-Com: -0.463D-01-0.243D-01 0.244D+00 0.832D+00
 Coeff:      0.625D-06-0.137D-05-0.180D-05 0.300D-05 0.102D-04-0.201D-04
 Coeff:     -0.151D-03-0.335D-03 0.331D-03 0.206D-02 0.405D-02-0.110D-01
 Coeff:     -0.463D-01-0.243D-01 0.244D+00 0.832D+00
 Gap=     0.238 Goal=   None    Shift=    0.000
 RMSDP=3.47D-09 MaxDP=1.12D-07 DE=-2.05D-12 OVMax= 4.76D-07

 Error on total polarization charges =  0.00870
 SCF Done:  E(RwB97XD) =  -1028.66280455     A.U. after   16 cycles
            NFock= 16  Conv=0.35D-08     -V/T= 2.0040
 KE= 1.024548200820D+03 PE=-4.617845869593D+03 EE= 1.461748766554D+03
 Leave Link  502 at Tue Oct 27 23:38:37 2020, MaxMem=  7784628224 cpu:             880.6 elap:              89.0
 (Enter /gpfs/loomis/apps/avx/software/Gaussian/16-C.01_AVX/g16/l601.exe)
 Copying SCF densities to generalized density rwf, IOpCl= 0 IROHF=0.

 **********************************************************************

            Population analysis using the SCF Density.

 **********************************************************************

 Alpha  occ. eigenvalues --  -89.10576 -19.20400 -14.50731 -10.41671 -10.38148
 Alpha  occ. eigenvalues --  -10.36489 -10.35504 -10.33529 -10.33238 -10.32736
 Alpha  occ. eigenvalues --  -10.32565 -10.31451 -10.30778 -10.30484 -10.29268
 Alpha  occ. eigenvalues --  -10.28409  -8.12641  -6.07508  -6.07145  -6.06654
 Alpha  occ. eigenvalues --   -1.15382  -1.09190  -0.99543  -0.96381  -0.93591
 Alpha  occ. eigenvalues --   -0.89356  -0.87459  -0.83751  -0.81242  -0.78283
 Alpha  occ. eigenvalues --   -0.75373  -0.72333  -0.69445  -0.67887  -0.65904
 Alpha  occ. eigenvalues --   -0.60908  -0.59757  -0.56985  -0.56390  -0.56184
 Alpha  occ. eigenvalues --   -0.55105  -0.53791  -0.53118  -0.50430  -0.49290
 Alpha  occ. eigenvalues --   -0.48833  -0.48658  -0.47045  -0.45541  -0.44946
 Alpha  occ. eigenvalues --   -0.44062  -0.43123  -0.42625  -0.40053  -0.36820
 Alpha  occ. eigenvalues --   -0.33885  -0.31601  -0.31204  -0.25775
 Alpha virt. eigenvalues --   -0.01946   0.03493   0.05260   0.06247   0.09479
 Alpha virt. eigenvalues --    0.10671   0.14082   0.14775   0.16615   0.17363
 Alpha virt. eigenvalues --    0.18786   0.20042   0.20999   0.21297   0.23157
 Alpha virt. eigenvalues --    0.23517   0.24406   0.25824   0.28046   0.30113
 Alpha virt. eigenvalues --    0.30607   0.34083   0.35548   0.35650   0.36647
 Alpha virt. eigenvalues --    0.37799   0.39415   0.40022   0.41676   0.44816
 Alpha virt. eigenvalues --    0.46869   0.48511   0.50768   0.51324   0.51571
 Alpha virt. eigenvalues --    0.52675   0.52838   0.53031   0.54169   0.55444
 Alpha virt. eigenvalues --    0.56264   0.56485   0.56521   0.57146   0.57680
 Alpha virt. eigenvalues --    0.58023   0.58892   0.59470   0.59639   0.60764
 Alpha virt. eigenvalues --    0.61221   0.61574   0.62312   0.62904   0.62957
 Alpha virt. eigenvalues --    0.64723   0.66772   0.67044   0.68671   0.69757
 Alpha virt. eigenvalues --    0.70385   0.70752   0.71951   0.72484   0.73023
 Alpha virt. eigenvalues --    0.74340   0.75372   0.75886   0.77268   0.78545
 Alpha virt. eigenvalues --    0.78572   0.79902   0.81049   0.81754   0.83703
 Alpha virt. eigenvalues --    0.85803   0.89332   0.91215   0.91582   0.92673
 Alpha virt. eigenvalues --    0.94119   0.94437   0.96233   0.97341   0.98217
 Alpha virt. eigenvalues --    0.98897   0.99390   1.00593   1.00974   1.01274
 Alpha virt. eigenvalues --    1.02698   1.05238   1.05780   1.06248   1.07274
 Alpha virt. eigenvalues --    1.08730   1.09580   1.10021   1.10868   1.11228
 Alpha virt. eigenvalues --    1.12629   1.13477   1.13821   1.14523   1.15247
 Alpha virt. eigenvalues --    1.17247   1.19383   1.20086   1.22710   1.24221
 Alpha virt. eigenvalues --    1.26297   1.27617   1.31432   1.33445   1.34319
 Alpha virt. eigenvalues --    1.34734   1.36746   1.38385   1.41179   1.45343
 Alpha virt. eigenvalues --    1.49164   1.49459   1.53123   1.54599   1.55216
 Alpha virt. eigenvalues --    1.55891   1.57242   1.57348   1.57740   1.59611
 Alpha virt. eigenvalues --    1.60527   1.61867   1.62560   1.65366   1.67797
 Alpha virt. eigenvalues --    1.68543   1.70077   1.71068   1.71654   1.71922
 Alpha virt. eigenvalues --    1.72638   1.73626   1.73654   1.75006   1.75424
 Alpha virt. eigenvalues --    1.78149   1.79151   1.80413   1.81829   1.82043
 Alpha virt. eigenvalues --    1.83824   1.84498   1.84699   1.85345   1.86175
 Alpha virt. eigenvalues --    1.87471   1.89947   1.91420   1.91740   1.92213
 Alpha virt. eigenvalues --    1.94535   1.94590   1.95754   1.96511   1.98558
 Alpha virt. eigenvalues --    2.00441   2.00535   2.02800   2.04905   2.05529
 Alpha virt. eigenvalues --    2.06909   2.08159   2.09905   2.11253   2.15621
 Alpha virt. eigenvalues --    2.17487   2.19911   2.22558   2.24093   2.26984
 Alpha virt. eigenvalues --    2.27462   2.29747   2.34746   2.37609   2.38770
 Alpha virt. eigenvalues --    2.41370   2.42715   2.46283   2.48557   2.49942
 Alpha virt. eigenvalues --    2.51798   2.55418   2.61458   2.65347   2.65911
 Alpha virt. eigenvalues --    2.69039   2.73122   2.73837   2.78668   2.80450
 Alpha virt. eigenvalues --    2.81501   2.81777   2.83430   2.88646   2.93127
 Alpha virt. eigenvalues --    2.94457   3.04878   3.17994   3.32206   3.50087
 Alpha virt. eigenvalues --    3.52703   3.59076   3.69840   4.30599
          Condensed to atoms (all electrons):
               1          2          3          4          5          6
     1  C    4.741047   0.484522   0.012313  -0.054179  -0.010736   0.504046
     2  C    0.484522   5.376484   0.259361  -0.059994  -0.076752  -0.001271
     3  C    0.012313   0.259361   4.937725   0.517777  -0.000108  -0.069941
     4  C   -0.054179  -0.059994   0.517777   4.802428   0.512883  -0.010981
     5  C   -0.010736  -0.076752  -0.000108   0.512883   4.733030   0.500089
     6  C    0.504046  -0.001271  -0.069941  -0.010981   0.500089   4.735432
     7  H    0.404559  -0.039523   0.009413  -0.000652   0.008101  -0.039238
     8  H   -0.000576   0.010670  -0.026802   0.395098  -0.040952   0.007351
     9  H    0.008804  -0.000479   0.008238  -0.038059   0.405592  -0.043816
    10  H   -0.042821   0.009446  -0.000519   0.008452  -0.042072   0.407917
    11  N    0.003463  -0.034092   0.401183  -0.053197   0.002151   0.000371
    12  S   -0.070412   0.336706  -0.138948   0.003848   0.000061   0.004647
    13  C   -0.000264  -0.001124   0.016460  -0.000089   0.000016  -0.000001
    14  C   -0.000010   0.000056   0.000496   0.000009  -0.000000  -0.000000
    15  C    0.000005  -0.000186   0.000079   0.000003  -0.000001   0.000000
    16  C    0.000000  -0.000005   0.000003  -0.000000   0.000000   0.000000
    17  H   -0.000009   0.000177   0.000005   0.000001   0.000000   0.000000
    18  C    0.000000   0.000011  -0.000040  -0.000001  -0.000000  -0.000000
    19  C   -0.000000   0.000000   0.000002   0.000000  -0.000000   0.000000
    20  H   -0.000000  -0.000000  -0.000000   0.000000   0.000000  -0.000000
    21  H   -0.000000   0.000000  -0.000001  -0.000000  -0.000000   0.000000
    22  H    0.000000  -0.000000  -0.000000  -0.000000   0.000000  -0.000000
    23  C    0.003364  -0.054809  -0.094464   0.003885   0.000435  -0.000444
    24  O    0.000002  -0.000186  -0.000621   0.000076   0.000001  -0.000000
    25  H    0.000304   0.020915  -0.048220  -0.017966  -0.000499  -0.000007
               7          8          9         10         11         12
     1  C    0.404559  -0.000576   0.008804  -0.042821   0.003463  -0.070412
     2  C   -0.039523   0.010670  -0.000479   0.009446  -0.034092   0.336706
     3  C    0.009413  -0.026802   0.008238  -0.000519   0.401183  -0.138948
     4  C   -0.000652   0.395098  -0.038059   0.008452  -0.053197   0.003848
     5  C    0.008101  -0.040952   0.405592  -0.042072   0.002151   0.000061
     6  C   -0.039238   0.007351  -0.043816   0.407917   0.000371   0.004647
     7  H    0.647902   0.000027  -0.000147  -0.011164  -0.000096  -0.007810
     8  H    0.000027   0.636940  -0.011922  -0.000106  -0.005386  -0.000245
     9  H   -0.000147  -0.011922   0.654709  -0.012103  -0.000092   0.000020
    10  H   -0.011164  -0.000106  -0.012103   0.654621   0.000006  -0.000146
    11  N   -0.000096  -0.005386  -0.000092   0.000006   5.705839  -0.043680
    12  S   -0.007810  -0.000245   0.000020  -0.000146  -0.043680  15.459746
    13  C    0.000002   0.000039  -0.000000  -0.000000  -0.017532  -0.075184
    14  C    0.000001   0.000001   0.000000  -0.000000   0.004030  -0.009717
    15  C   -0.000000  -0.000009   0.000000   0.000000  -0.009031   0.005092
    16  C    0.000000  -0.000000  -0.000000  -0.000000  -0.000079   0.000263
    17  H    0.000001   0.000000   0.000000  -0.000000   0.000259   0.007785
    18  C    0.000000  -0.000000   0.000000  -0.000000  -0.000589  -0.000146
    19  C   -0.000000   0.000000  -0.000000   0.000000   0.000017   0.000017
    20  H    0.000000  -0.000000   0.000000   0.000000   0.000001   0.000006
    21  H   -0.000000   0.000000  -0.000000   0.000000   0.000003   0.000004
    22  H    0.000000  -0.000000  -0.000000  -0.000000  -0.000000  -0.000000
    23  C    0.000265  -0.000620   0.000007   0.000004   0.496630   0.303676
    24  O    0.000000  -0.000138   0.000000  -0.000000  -0.022545   0.000015
    25  H    0.000009   0.000852  -0.000015  -0.000000   0.371324   0.009617
              13         14         15         16         17         18
     1  C   -0.000264  -0.000010   0.000005   0.000000  -0.000009   0.000000
     2  C   -0.001124   0.000056  -0.000186  -0.000005   0.000177   0.000011
     3  C    0.016460   0.000496   0.000079   0.000003   0.000005  -0.000040
     4  C   -0.000089   0.000009   0.000003  -0.000000   0.000001  -0.000001
     5  C    0.000016  -0.000000  -0.000001   0.000000   0.000000  -0.000000
     6  C   -0.000001  -0.000000   0.000000   0.000000   0.000000  -0.000000
     7  H    0.000002   0.000001  -0.000000   0.000000   0.000001   0.000000
     8  H    0.000039   0.000001  -0.000009  -0.000000   0.000000  -0.000000
     9  H   -0.000000   0.000000   0.000000  -0.000000   0.000000   0.000000
    10  H   -0.000000  -0.000000   0.000000  -0.000000  -0.000000  -0.000000
    11  N   -0.017532   0.004030  -0.009031  -0.000079   0.000259  -0.000589
    12  S   -0.075184  -0.009717   0.005092   0.000263   0.007785  -0.000146
    13  C    5.532161   0.418885   0.151646  -0.004183  -0.041878  -0.042124
    14  C    0.418885   4.883862   0.010426   0.538017   0.399047  -0.065308
    15  C    0.151646   0.010426   4.728639  -0.054099   0.005766   0.442594
    16  C   -0.004183   0.538017  -0.054099   4.765078  -0.030621  -0.016938
    17  H   -0.041878   0.399047   0.005766  -0.030621   0.675515  -0.000970
    18  C   -0.042124  -0.065308   0.442594  -0.016938  -0.000970   4.945374
    19  C   -0.053765  -0.017749  -0.000873   0.474234   0.008218   0.490724
    20  H    0.009167  -0.036726  -0.000151   0.399997  -0.011814   0.008313
    21  H    0.016132  -0.000612  -0.025342   0.007697   0.000056   0.371119
    22  H   -0.001824   0.009916   0.008436  -0.046542  -0.000206  -0.039441
    23  C    0.339945  -0.099829  -0.065428   0.006180  -0.021764   0.012249
    24  O   -0.106783   0.006636   0.693169  -0.000219  -0.000077  -0.069033
    25  H   -0.063354  -0.001047  -0.002972   0.000076  -0.000112   0.003705
              19         20         21         22         23         24
     1  C   -0.000000  -0.000000  -0.000000   0.000000   0.003364   0.000002
     2  C    0.000000  -0.000000   0.000000  -0.000000  -0.054809  -0.000186
     3  C    0.000002  -0.000000  -0.000001  -0.000000  -0.094464  -0.000621
     4  C    0.000000   0.000000  -0.000000  -0.000000   0.003885   0.000076
     5  C   -0.000000   0.000000  -0.000000   0.000000   0.000435   0.000001
     6  C    0.000000  -0.000000   0.000000  -0.000000  -0.000444  -0.000000
     7  H   -0.000000   0.000000  -0.000000   0.000000   0.000265   0.000000
     8  H    0.000000  -0.000000   0.000000  -0.000000  -0.000620  -0.000138
     9  H   -0.000000   0.000000  -0.000000  -0.000000   0.000007   0.000000
    10  H    0.000000   0.000000   0.000000  -0.000000   0.000004  -0.000000
    11  N    0.000017   0.000001   0.000003  -0.000000   0.496630  -0.022545
    12  S    0.000017   0.000006   0.000004  -0.000000   0.303676   0.000015
    13  C   -0.053765   0.009167   0.016132  -0.001824   0.339945  -0.106783
    14  C   -0.017749  -0.036726  -0.000612   0.009916  -0.099829   0.006636
    15  C   -0.000873  -0.000151  -0.025342   0.008436  -0.065428   0.693169
    16  C    0.474234   0.399997   0.007697  -0.046542   0.006180  -0.000219
    17  H    0.008218  -0.011814   0.000056  -0.000206  -0.021764  -0.000077
    18  C    0.490724   0.008313   0.371119  -0.039441   0.012249  -0.069033
    19  C    4.752599  -0.046950  -0.047152   0.402720   0.000236   0.004650
    20  H   -0.046950   0.689499  -0.000160  -0.012648  -0.000402   0.000001
    21  H   -0.047152  -0.000160   0.684941  -0.012935  -0.000514   0.005413
    22  H    0.402720  -0.012648  -0.012935   0.678129   0.000008  -0.000073
    23  C    0.000236  -0.000402  -0.000514   0.000008   5.138390  -0.016605
    24  O    0.004650   0.000001   0.005413  -0.000073  -0.016605   7.824715
    25  H   -0.000330  -0.000000  -0.000007   0.000004   0.041031   0.070936
              25
     1  C    0.000304
     2  C    0.020915
     3  C   -0.048220
     4  C   -0.017966
     5  C   -0.000499
     6  C   -0.000007
     7  H    0.000009
     8  H    0.000852
     9  H   -0.000015
    10  H   -0.000000
    11  N    0.371324
    12  S    0.009617
    13  C   -0.063354
    14  C   -0.001047
    15  C   -0.002972
    16  C    0.000076
    17  H   -0.000112
    18  C    0.003705
    19  C   -0.000330
    20  H   -0.000000
    21  H   -0.000007
    22  H    0.000004
    23  C    0.041031
    24  O    0.070936
    25  H    0.760084
 Mulliken charges:
               1
     1  C    0.016580
     2  C   -0.229927
     3  C    0.216608
     4  C   -0.009343
     5  C    0.008760
     6  C    0.005847
     7  H    0.028348
     8  H    0.035777
     9  H    0.029264
    10  H    0.028486
    11  N    0.201041
    12  S    0.214786
    13  C   -0.076346
    14  C   -0.040383
    15  C    0.112238
    16  C   -0.038859
    17  H    0.010622
    18  C   -0.039498
    19  C    0.033403
    20  H    0.001867
    21  H    0.001358
    22  H    0.014456
    23  C    0.008575
    24  O   -0.389332
    25  H   -0.144328
 Sum of Mulliken charges =  -0.00000
 Mulliken charges with hydrogens summed into heavy atoms:
               1
     1  C    0.044928
     2  C   -0.229927
     3  C    0.216608
     4  C    0.026433
     5  C    0.038023
     6  C    0.034333
    11  N    0.056713
    12  S    0.214786
    13  C   -0.076346
    14  C   -0.029761
    15  C    0.112238
    16  C   -0.036992
    18  C   -0.038140
    19  C    0.047860
    23  C    0.008575
    24  O   -0.389332
 Electronic spatial extent (au):  <R**2>=           4325.5892
 Charge=             -0.0000 electrons
 Dipole moment (field-independent basis, Debye):
    X=              1.7574    Y=             -6.0751    Z=             -0.0001  Tot=              6.3242
 Quadrupole moment (field-independent basis, Debye-Ang):
   XX=            -82.1274   YY=            -95.1661   ZZ=           -103.8413
   XY=             -6.7687   XZ=             -0.0001   YZ=             -0.0001
 Traceless Quadrupole moment (field-independent basis, Debye-Ang):
   XX=             11.5842   YY=             -1.4545   ZZ=            -10.1297
   XY=             -6.7687   XZ=             -0.0001   YZ=             -0.0001
 Octapole moment (field-independent basis, Debye-Ang**2):
  XXX=             38.2547  YYY=            -63.1985  ZZZ=             -0.0000  XYY=              3.2159
  XXY=            -10.4024  XXZ=             -0.0001  XZZ=              2.7819  YZZ=              2.3954
  YYZ=             -0.0003  XYZ=             -0.0005
 Hexadecapole moment (field-independent basis, Debye-Ang**3):
 XXXX=          -2598.6429 YYYY=          -2653.5565 ZZZZ=           -112.6926 XXXY=            814.7055
 XXXZ=              0.0099 YYYX=            777.5656 YYYZ=             -0.0150 ZZZX=              0.0138
 ZZZY=             -0.0175 XXYY=           -845.2442 XXZZ=           -572.2860 YYZZ=           -543.9850
 XXYZ=             -0.0040 YYXZ=              0.0019 ZZXY=            359.7067
 N-N= 1.102886097665D+03 E-N=-4.617845870062D+03  KE= 1.024548200820D+03
 No NMR shielding tensors so no spin-rotation constants.
 Leave Link  601 at Tue Oct 27 23:38:37 2020, MaxMem=  7784628224 cpu:               1.2 elap:               0.1
 (Enter /gpfs/loomis/apps/avx/software/Gaussian/16-C.01_AVX/g16/l701.exe)
 ... and contract with generalized density number  0.
 Compute integral first derivatives.
 R6Disp: Adding Grimme-D2 dispersion energy 1st derivatives to the gradient.
 D1PCM: PCM CHGder 1st derivatives, ID1Alg=3 FixD1E=F DoIter=F DoCFld=F I1PDM=0.
 GePol: Maximum number of non-zero 1st derivatives   =     260
 Leave Link  701 at Tue Oct 27 23:38:39 2020, MaxMem=  7784628224 cpu:              14.1 elap:               1.4
 (Enter /gpfs/loomis/apps/avx/software/Gaussian/16-C.01_AVX/g16/l702.exe)
 L702 exits ... SP integral derivatives will be done elsewhere.
 Leave Link  702 at Tue Oct 27 23:38:39 2020, MaxMem=  7784628224 cpu:               0.2 elap:               0.0
 (Enter /gpfs/loomis/apps/avx/software/Gaussian/16-C.01_AVX/g16/l703.exe)
 Integral derivatives from FoFJK, PRISM(SPDF).
 Compute integral first derivatives, UseDBF=F ICtDFT=           0.
 Calling FoFJK, ICntrl=      2127 FMM=F ISym2X=0 I1Cent= 0 IOpClX= 0 NMat=1 NMatS=1 NMatT=0.
 FoFJK:  IHMeth= 1 ICntrl=    2127 DoSepK=T KAlg= 0 I1Cent=           0 FoldK=F
 IRaf=         1 NMat=       1 IRICut=       1 DoRegI=T DoRafI=F ISym2E= 0 IDoP0=0 IntGTp=1.
 FoFCou: FMM=F IPFlag=           0 FMFlag=      100000 FMFlg1=         800
         NFxFlg=           0 DoJE=F BraDBF=F KetDBF=F FulRan=T
         wScrn=  0.000000 ICntrl=      2527 IOpCl=  0 I1Cent=           0 NGrid=           0
         NMat0=    1 NMatS0=      1 NMatT0=    0 NMatD0=    1 NMtDS0=    0 NMtDT0=    0
 Symmetry not used in FoFCou.
 Leave Link  703 at Tue Oct 27 23:38:53 2020, MaxMem=  7784628224 cpu:             137.8 elap:              13.8
 (Enter /gpfs/loomis/apps/avx/software/Gaussian/16-C.01_AVX/g16/l716.exe)
 Dipole        = 6.91400781D-01-2.39011918D+00-3.65788604D-05
 -------------------------------------------------------------------
 Center     Atomic                   Forces (Hartrees/Bohr)
 Number     Number              X              Y              Z
 -------------------------------------------------------------------
      1        6           0.001102134    0.003759474   -0.000000050
      2        6           0.009282021    0.001410942   -0.000000237
      3        6          -0.000752217   -0.010358538   -0.000000257
      4        6           0.001242188    0.001964302    0.000000133
      5        6           0.000629431    0.003218811    0.000000055
      6        6          -0.001180770    0.002649991   -0.000000085
      7        1           0.001295070    0.001604366   -0.000000048
      8        1          -0.001055582   -0.001574779    0.000000027
      9        1          -0.000950969    0.000303460   -0.000000002
     10        1          -0.000368562    0.001062845   -0.000000006
     11        7          -0.161108308   -0.700754557   -0.000023443
     12       16           0.005893746    0.003463078   -0.000000373
     13        6           0.033352255    0.006510150   -0.000000632
     14        6          -0.052105585    0.026649973   -0.000000011
     15        6           0.006097043   -0.013823858    0.000000121
     16        6           0.009703565   -0.047186720   -0.000000558
     17        1          -0.000978834    0.000653777    0.000000009
     18        6          -0.023331103    0.000126407    0.000000453
     19        6           0.035060955    0.014495172    0.000000213
     20        1           0.001287587    0.000084893    0.000000024
     21        1          -0.001079212   -0.000785584   -0.000000288
     22        1           0.000241144    0.000736514    0.000000035
     23        6          -0.009563990    0.026294610    0.000001354
     24        8          -0.004234997    0.016234853   -0.000000227
     25        1           0.151522991    0.663260417    0.000023795
 -------------------------------------------------------------------
 Cartesian Forces:  Max     0.700754557 RMS     0.114912242
 Leave Link  716 at Tue Oct 27 23:38:53 2020, MaxMem=  7784628224 cpu:               0.2 elap:               0.0
 (Enter /gpfs/loomis/apps/avx/software/Gaussian/16-C.01_AVX/g16/l103.exe)

 GradGradGradGradGradGradGradGradGradGradGradGradGradGradGradGradGradGrad
 Berny optimization.
 FormGI is forming the generalized inverse of G from B-inverse, IUseBI=4.
 Internal  Forces:  Max     0.475776347 RMS     0.049355818
 Search for a local minimum.
 Step number   1 out of a maximum of  146
 All quantities printed in internal units (Hartrees-Bohrs-Radians)
 RMS Force = .49720D-01 SwitMx=.10000D-02 MixMth= 1
 Mixed Optimization -- RFO/linear search
 Second derivative matrix not updated -- first step.
 ITU=  0
     Eigenvalues ---    0.01312   0.01488   0.01580   0.01736   0.01771
     Eigenvalues ---    0.01778   0.01849   0.01856   0.01903   0.01911
     Eigenvalues ---    0.01943   0.01987   0.02004   0.02041   0.02100
     Eigenvalues ---    0.02113   0.02114   0.02126   0.02134   0.02149
     Eigenvalues ---    0.02149   0.02162   0.16000   0.16000   0.16000
     Eigenvalues ---    0.16000   0.16000   0.16000   0.16000   0.16003
     Eigenvalues ---    0.17243   0.22006   0.22010   0.22536   0.22589
     Eigenvalues ---    0.24395   0.24480   0.24602   0.25000   0.25000
     Eigenvalues ---    0.29632   0.30040   0.33167   0.34380   0.34443
     Eigenvalues ---    0.34465   0.34497   0.34506   0.34556   0.34606
     Eigenvalues ---    0.34631   0.35887   0.38421   0.40696   0.41692
     Eigenvalues ---    0.41828   0.43288   0.43779   0.44445   0.45448
     Eigenvalues ---    0.45908   0.46172   0.46550   0.48015   0.50303
     Eigenvalues ---    0.77294   1.213521000.000001000.000001000.00000
     Eigenvalues --- 1000.000001000.000001000.000001000.000001000.00000
     Eigenvalues --- 1000.000001000.000001000.000001000.000001000.00000
     Eigenvalues --- 1000.000001000.000001000.000001000.000001000.00000
     Eigenvalues --- 1000.000001000.000001000.000001000.000001000.00000
     Eigenvalues --- 1000.000001000.000001000.000001000.000001000.00000
     Eigenvalues --- 1000.000001000.000001000.000001000.000001000.00000
     Eigenvalues --- 1000.000001000.000001000.000001000.000001000.00000
     Eigenvalues --- 1000.000001000.000001000.000001000.000001000.00000
     Eigenvalues --- 1000.000001000.000001000.000001000.000001000.00000
     Eigenvalues --- 1000.000001000.000001000.000001000.000001000.00000
     Eigenvalues --- 1000.000001000.000001000.000001000.000001000.00000
     Eigenvalues --- 1000.000001000.000001000.000001000.000001000.00000
     Eigenvalues --- 1000.000001000.000001000.000001000.000001000.00000
     Eigenvalues --- 1000.00000
 RFO step:  Lambda=-2.42170516D-01 EMin= 1.31222244D-02
 Linear search not attempted -- first point.
 Maximum step size (   0.300) exceeded in Quadratic search.
    -- Step size scaled by   0.685
 Iteration  1 RMS(Cart)=  0.02634858 RMS(Int)=  0.00241995
 Iteration  2 RMS(Cart)=  0.00222096 RMS(Int)=  0.00110713
 Iteration  3 RMS(Cart)=  0.00001316 RMS(Int)=  0.00128175
 Iteration  4 RMS(Cart)=  0.00000018 RMS(Int)=  0.00128168
 Iteration  1 RMS(Cart)=  0.00002344 RMS(Int)=  0.00002359
 Iteration  2 RMS(Cart)=  0.00000043 RMS(Int)=  0.00001293
 ITry= 1 IFail=0 DXMaxC= 1.69D-01 DCOld= 1.00D+10 DXMaxT= 3.00D-01 DXLimC= 3.00D+00 Rises=F
 Variable       Old X    -DE/DX   Delta X   Delta X   Delta X     New X
                                 (Linear)    (Quad)   (Total)
    R1        2.63737  -0.02707   0.00000  -0.01232  -0.01189   2.62547
    R2        2.63328  -0.00553   0.00000  -0.00064  -0.00057   2.63271
    R3        2.06587  -0.00418   0.00000  -0.00331  -0.00326   2.06261
    R4        2.68286  -0.09759   0.00000  -0.05056  -0.04901   2.63385
    R5        3.30947   0.03604   0.00000   0.02267   0.02181   3.33129
    R6        2.63767   0.00239   0.00000  -0.00159  -0.00166   2.63602
    R7        2.63739  -0.02422   0.00000  -0.01619  -0.01579   2.62159
    R8        2.64287   0.00663   0.00000  -0.00232  -0.00254   2.64033
    R9        2.06552  -0.00130   0.00000  -0.00195  -0.00197   2.06355
   R10        2.64513  -0.02265   0.00000  -0.00800  -0.00753   2.63760
   R11        2.06401  -0.00132   0.00000  -0.00127  -0.00126   2.06275
   R12        2.06320  -0.00143   0.00000  -0.00145  -0.00144   2.06176
   R13        2.57237   0.03014   0.00000   0.00362   0.00287   2.57524
   R14        1.38401   0.47578   0.00000   0.22863   0.23282   1.61683
   R15        3.27461  -0.09054   0.00000  -0.03243  -0.03034   3.24427
   R16        2.60842  -0.00296   0.00000   0.01826   0.01901   2.62744
   R17        2.79825  -0.04584   0.00000  -0.01511  -0.01397   2.78428
   R18        2.69100   0.04591   0.00000   0.01711   0.01613   2.70713
   R19        2.68862   0.00644   0.00000  -0.02395  -0.02495   2.66367
   R20        2.06693  -0.00093   0.00000  -0.00064  -0.00063   2.06630
   R21        2.70989   0.05909   0.00000   0.02313   0.02188   2.73177
   R22        2.37161  -0.07811   0.00000  -0.01851  -0.01687   2.35474
   R23        2.63509  -0.01178   0.00000   0.00551   0.00607   2.64116
   R24        2.06484  -0.00024   0.00000  -0.00107  -0.00110   2.06374
   R25        2.64922   0.00885   0.00000  -0.01276  -0.01350   2.63572
   R26        2.06499  -0.00163   0.00000  -0.00148  -0.00146   2.06353
   R27        2.06277   0.00223   0.00000   0.00121   0.00117   2.06394
    A1        2.06048   0.01595   0.00000   0.00713   0.00666   2.06715
    A2        2.10386  -0.01214   0.00000  -0.00580  -0.00548   2.09838
    A3        2.11885  -0.00381   0.00000  -0.00133  -0.00119   2.11766
    A4        2.13901  -0.00900   0.00000  -0.01107  -0.01083   2.12818
    A5        2.19434  -0.00763   0.00000   0.01089   0.01147   2.20581
    A6        1.94984   0.01663   0.00000   0.00017  -0.00064   1.94919
    A7        2.06870   0.02670   0.00000   0.02213   0.02174   2.09044
    A8        1.95766  -0.06626   0.00000  -0.03489  -0.03368   1.92398
    A9        2.25683   0.03956   0.00000   0.01277   0.01194   2.26876
   A10        2.07437  -0.01257   0.00000  -0.00827  -0.00802   2.06634
   A11        2.10161   0.00926   0.00000   0.00584   0.00565   2.10725
   A12        2.10721   0.00331   0.00000   0.00244   0.00237   2.10959
   A13        2.13027  -0.01423   0.00000  -0.00966  -0.00941   2.12086
   A14        2.06986   0.00787   0.00000   0.00487   0.00472   2.07459
   A15        2.08305   0.00636   0.00000   0.00480   0.00468   2.08774
   A16        2.09354  -0.00684   0.00000  -0.00026  -0.00015   2.09339
   A17        2.09310   0.00288   0.00000   0.00012   0.00007   2.09317
   A18        2.09655   0.00396   0.00000   0.00014   0.00008   2.09663
   A19        1.95675   0.11002   0.00000   0.07509   0.07343   2.03018
   A20        2.33792  -0.14472   0.00000  -0.10943  -0.10645   2.23146
   A21        1.98852   0.03470   0.00000   0.03434   0.03302   2.02154
   A22        1.55511   0.03702   0.00000   0.02824   0.02746   1.58256
   A23        2.11398   0.00808   0.00000  -0.00160  -0.00187   2.11211
   A24        2.13516   0.01009   0.00000  -0.00205  -0.00257   2.13259
   A25        2.03405  -0.01817   0.00000   0.00366   0.00444   2.03849
   A26        2.09103   0.01849   0.00000   0.01404   0.01378   2.10481
   A27        2.11330  -0.01014   0.00000  -0.00616  -0.00598   2.10731
   A28        2.07886  -0.00835   0.00000  -0.00788  -0.00780   2.07106
   A29        2.03185  -0.01948   0.00000  -0.01375  -0.01343   2.01843
   A30        2.08010  -0.05549   0.00000  -0.00843  -0.00675   2.07335
   A31        2.17123   0.07497   0.00000   0.02218   0.02018   2.19141
   A32        2.11066  -0.00899   0.00000  -0.00982  -0.00976   2.10090
   A33        2.07387   0.00451   0.00000   0.00481   0.00478   2.07865
   A34        2.09866   0.00448   0.00000   0.00501   0.00498   2.10364
   A35        2.11841   0.01164   0.00000   0.00927   0.00907   2.12748
   A36        2.03765  -0.00262   0.00000  -0.00193  -0.00189   2.03576
   A37        2.12713  -0.00903   0.00000  -0.00734  -0.00719   2.11994
   A38        2.10044  -0.00974   0.00000   0.00187   0.00220   2.10264
   A39        2.08955   0.00150   0.00000  -0.00207  -0.00214   2.08741
   A40        2.09320   0.00824   0.00000   0.00020  -0.00006   2.09314
   A41        2.00543  -0.09742   0.00000  -0.06860  -0.06656   1.93887
   A42        2.12269   0.06225   0.00000   0.04214   0.04093   2.16362
   A43        2.15507   0.03517   0.00000   0.02646   0.02564   2.18070
    D1       -0.00000   0.00000   0.00000   0.00000   0.00000  -0.00000
    D2       -3.14159  -0.00000   0.00000  -0.00000  -0.00000   3.14159
    D3        3.14159   0.00000   0.00000   0.00000   0.00000   3.14159
    D4       -0.00000  -0.00000   0.00000  -0.00000  -0.00000  -0.00000
    D5       -0.00000  -0.00000   0.00000  -0.00000  -0.00000  -0.00000
    D6        3.14159  -0.00000   0.00000  -0.00000  -0.00000   3.14159
    D7        3.14159  -0.00000   0.00000  -0.00000  -0.00000   3.14159
    D8        0.00000  -0.00000   0.00000  -0.00000  -0.00000   0.00000
    D9        0.00000   0.00000   0.00000   0.00000   0.00000   0.00000
   D10       -3.14159  -0.00000   0.00000  -0.00000  -0.00000  -3.14159
   D11       -3.14159   0.00000   0.00000   0.00000   0.00000  -3.14159
   D12       -0.00000   0.00000   0.00000   0.00000   0.00000   0.00000
   D13        3.14159  -0.00000   0.00000  -0.00000  -0.00000   3.14159
   D14       -0.00000  -0.00000   0.00000  -0.00000  -0.00000  -0.00000
   D15       -0.00000  -0.00000   0.00000  -0.00000  -0.00000  -0.00000
   D16        3.14159  -0.00000   0.00000  -0.00000  -0.00000   3.14159
   D17        3.14159   0.00000   0.00000   0.00000   0.00000  -3.14159
   D18        0.00000   0.00000   0.00000   0.00000   0.00000   0.00000
   D19        0.00001   0.00000   0.00000   0.00000   0.00000   0.00001
   D20        3.14154   0.00000   0.00000   0.00000   0.00000   3.14154
   D21       -3.14159   0.00000   0.00000   0.00000   0.00000  -3.14159
   D22       -0.00006   0.00000   0.00000   0.00000   0.00000  -0.00005
   D23        0.00000   0.00000   0.00000   0.00000   0.00000   0.00000
   D24       -3.14159   0.00000   0.00000   0.00000   0.00000  -3.14159
   D25        3.14159   0.00000   0.00000   0.00000   0.00000   3.14159
   D26        0.00000  -0.00000   0.00000  -0.00000  -0.00000   0.00000
   D27        0.00000   0.00000   0.00000  -0.00000  -0.00000   0.00000
   D28       -3.14159  -0.00000   0.00000  -0.00000  -0.00000  -3.14159
[...]
 -0.00005113,0.,-0.00009884,0.00008139,0.,-0.00009137,0.00003853,0.,-0.
 01161527,-0.00622803,0.00000006,0.00159440,0.00594854,0.,-0.01219634,-
 0.21332790,-0.00000242,-0.05501914,0.01188101,0.00000027,0.06342111,0.
 55708743,-0.00000002,0.00000002,0.00057230,0.00000006,-0.00000001,0.00
 072793,0.00000001,-0.00000004,-0.00133636,-0.00000002,0.00000002,-0.00
 015449,0.,-0.00000003,0.00016500,0.00000003,0.,-0.00017980,0.,0.,0.000
 04516,0.,0.,-0.00007040,0.,0.,0.00004604,0.,0.,-0.00009296,-0.00000002
 ,0.,-0.00066468,-0.00000002,0.00000009,0.00238241,0.00000019,-0.000002
 51,-0.07369649,-0.00000088,0.00000039,0.00051191,-0.00000420,0.0000032
 6,0.20066678,0.00069269,-0.00091971,0.,-0.00117967,0.00151979,0.,0.000
 08232,-0.00153656,-0.00000002,0.00063343,0.00011464,0.,-0.00001221,0.0
 0103193,0.,-0.00116925,-0.00010373,0.,0.00003401,0.00003863,0.,0.00002
 838,-0.00004553,0.,-0.00007746,0.00006656,0.,-0.00004745,0.00003476,0.
 ,-0.00763031,0.00045015,0.00000004,0.00097280,0.00232908,0.00000004,-0
 .05184485,0.02342344,0.00000045,-0.26067185,0.17274742,0.00000268,-0.0
 0208706,0.01647180,0.00000016,0.77225268,-0.00142080,0.00226569,0.,0.0
 0242955,-0.00177543,-0.00000001,0.00049427,0.00147451,0.00000006,-0.00
 179853,0.00044842,0.00000002,-0.00007834,-0.00258437,-0.00000003,0.002
 73049,0.00028365,0.,-0.00012347,-0.00006758,0.,0.00005954,0.00008312,0
 .,0.00015946,-0.00011082,0.,0.00013101,-0.00006699,0.,0.01401058,0.003
 54468,-0.00000010,-0.00394877,-0.00516329,-0.00000011,0.05843909,0.007
 55860,-0.00000003,0.11439195,-0.27289469,-0.00000321,0.02873441,-0.040
 53417,-0.00000068,-0.02059951,0.66673598,-0.00000002,0.00000003,0.0000
 5533,0.00000003,-0.00000002,0.00049986,0.,0.00000002,-0.00052455,-0.00
 000002,0.,-0.00011778,0.,-0.00000004,0.00004424,0.00000004,0.,-0.00002
 071,0.,0.,0.00000267,0.,0.,0.00000238,0.,0.,0.00001699,0.,0.,-0.000026
 74,0.00000016,0.00000005,-0.00007161,-0.00000005,-0.00000009,-0.000968
 84,0.00000085,0.,0.00970054,0.00000193,-0.00000326,-0.06191482,0.00000
 021,-0.00000049,-0.00660304,-0.00000176,0.00000649,0.12000202,0.000330
 92,-0.00002850,0.,-0.00072396,0.00041223,0.00000001,0.00034350,-0.0002
 4926,0.,0.00005818,0.00005180,0.,0.00005580,0.00010973,0.,-0.00013379,
 -0.00009151,0.,-0.00001522,-0.00000933,0.,0.00004055,0.00000013,0.,0.0
 0000698,0.00000119,0.,0.00003083,-0.00000720,0.,-0.00007342,0.00027899
 ,0.,-0.00165745,0.00227255,0.,-0.00430476,-0.02836897,-0.00000045,-0.0
 8299236,-0.08061302,-0.00000108,-0.00473532,0.00348096,0.00000009,0.01
 048261,0.02172802,0.00000028,0.08462361,0.00010966,-0.00007840,0.,-0.0
 0020824,0.00081119,0.00000002,0.00040018,-0.00036914,0.,0.00006686,0.0
 0009427,0.,0.00001817,0.00013598,0.,-0.00017091,-0.00001974,0.,-0.0000
 1307,0.00001183,0.,0.00003343,-0.00000536,0.,-0.00000651,0.00000827,0.
 ,0.00000360,0.00000295,0.,-0.00124786,0.00008103,0.00000002,0.00058287
 ,-0.00042386,-0.00000002,0.00002575,-0.00279479,-0.00000009,-0.0772446
 1,-0.31184342,-0.00000398,0.00008022,0.00265492,-0.00000002,-0.0113848
 8,-0.01683728,-0.00000030,0.08302802,0.33192107,0.,0.,-0.00001205,0.,0
 .00000002,-0.00062570,0.,0.,0.00013080,0.,0.,0.00007740,0.,0.,-0.00001
 918,0.,0.,0.00002951,0.,0.,-0.00001150,0.,0.,-0.00001507,0.,0.,-0.0000
 0351,0.,0.,0.00001751,-0.00000002,0.,-0.00014164,0.,0.00000002,0.00136
 336,-0.00000008,-0.00000007,0.00288602,-0.00000098,-0.00000405,-0.0372
 1143,-0.00000001,0.00000006,0.00456964,-0.00000024,-0.00000027,0.00606
 871,0.00000117,0.00000444,0.02382858,-0.00053538,0.00125472,0.,0.00107
 115,-0.00094064,0.,0.00143353,0.00077173,0.00000002,-0.00104204,0.0001
 7305,0.00000001,-0.00000678,-0.00141326,-0.00000001,0.00144147,0.00015
 451,0.,-0.00008094,0.00000728,0.,0.00012094,0.00003160,0.,0.00007605,-
 0.00005533,0.,0.00007397,-0.00001866,0.,0.00787285,0.00380927,-0.00000
 004,-0.00152663,-0.00223440,-0.00000006,0.04419918,0.00319848,-0.00000
 009,-0.04600205,0.01943938,0.00000037,-0.13079047,0.03604655,-0.000000
 11,0.00029655,-0.07141328,-0.00000067,-0.00006046,0.00041784,0.0000000
 6,0.72196709,0.00079396,-0.00067989,0.,-0.00138511,0.00021276,0.,-0.00
 011445,-0.00041726,-0.00000001,0.00062322,-0.00013855,0.,0.00008721,0.
 00089663,0.,-0.00094112,-0.00019096,0.,0.00001249,0.00003454,0.,0.0000
 0206,-0.00002291,0.,-0.00003723,0.00003545,0.,-0.00000446,0.00000818,0
 .,-0.00458614,0.00005073,0.00000005,0.00228227,0.00082134,0.00000002,0
 .00775868,-0.02259493,-0.00000028,0.00962412,-0.00569352,-0.00000010,0
 .05815788,-0.19794319,-0.00000089,-0.03813216,0.00209034,-0.00000003,-
 0.00008178,0.00057583,0.00000002,0.10119005,0.67928530,0.00000002,-0.0
 0000002,-0.00015555,-0.00000005,0.,-0.00029255,-0.00000002,0.00000003,
 -0.00095405,0.00000002,0.,0.00004460,0.,0.00000002,0.00003542,-0.00000
 002,0.,0.00005249,0.,0.,-0.00005652,0.,0.,-0.00004009,0.,0.,-0.0000057
 9,0.,0.,0.00004272,-0.00000011,-0.00000008,0.00063133,0.00000005,0.,-0
 .00074390,0.00000003,-0.00000047,0.01042673,0.00000013,-0.00000010,-0.
 00063351,0.00000004,-0.00000059,-0.07830390,-0.00000032,0.00000002,0.0
 0774378,0.,0.,-0.00000542,0.00000031,0.00000437,0.12007778,0.00093883,
 -0.00142341,0.,-0.00168362,0.00109120,0.,-0.00056531,-0.00080514,-0.00
 000003,0.00118814,-0.00024422,-0.00000002,0.00004599,0.00167171,0.0000
 0002,-0.00175109,-0.00021466,0.,0.00007301,0.00004090,0.,-0.00004827,-
 0.00005313,0.,-0.00009885,0.00007374,0.,-0.00007513,0.00003759,0.,-0.0
 0864895,-0.00169085,0.00000008,0.00246097,0.00283230,0.00000006,-0.032
 22483,0.00467114,0.,0.04898900,0.00307555,-0.00000004,-0.04941271,0.02
 494391,0.00000064,-0.13880696,-0.02241160,-0.00000017,-0.00300833,0.00
 449463,0.00000009,-0.41409234,-0.09780702,-0.00000056,0.76582285,0.000
 91009,-0.00140146,0.,-0.00140321,0.00127581,0.,-0.00030007,-0.00162807
 ,-0.00000003,0.00095249,-0.00012430,-0.00000001,0.00003734,0.00153880,
 0.00000002,-0.00170281,-0.00015570,0.,0.00007823,0.00002634,0.,-0.0000
 5029,-0.00004582,0.,-0.00010037,0.00007433,0.,-0.00007320,0.00003760,0
 .,-0.01093116,-0.00229705,0.00000006,0.00249493,0.00277574,0.00000008,
 -0.03869011,-0.00219595,-0.00000002,0.04682691,-0.05537419,-0.00000078
 ,-0.00435723,0.05123144,0.00000069,-0.08620969,-0.28461179,-0.00000207
 ,0.00275974,-0.00189732,-0.00000018,-0.03934290,-0.14988117,-0.0000006
 2,-0.02082345,0.67538883,0.,-0.00000001,-0.00000368,-0.00000001,0.0000
 0002,0.00017262,0.,-0.00000002,0.00036006,0.,0.,-0.00000385,0.,0.00000
 001,-0.00002966,-0.00000001,0.,-0.00000093,0.,0.,0.00001123,0.,0.,0.00
 003018,0.,0.,-0.00000375,0.,0.,-0.00001251,-0.00000010,0.,-0.00003432,
 0.00000001,0.,-0.00023090,-0.00000032,0.00000006,-0.00474889,0.0000004
 5,-0.00000077,0.00700487,-0.00000004,0.00000036,-0.00035919,-0.0000007
 0,-0.00000199,-0.06197696,0.00000006,-0.00000018,0.00847509,-0.0000000
 3,-0.00000061,-0.05851281,-0.00000094,0.00000499,0.14465014,0.00001508
 ,-0.00008381,0.,-0.00001792,0.00013431,0.,-0.00002849,-0.00016173,0.,0
 .00004153,0.00003087,0.,-0.00001205,0.00006686,0.,-0.00008550,0.000008
 58,0.,0.00000602,0.00000548,0.,0.00000157,-0.00000488,0.,-0.00000950,0
 .00000810,0.,-0.00000935,0.00000568,0.,-0.00047601,0.00040220,0.,0.000
 03480,0.00008869,0.,-0.00016419,0.00380977,0.00000007,-0.01542818,-0.0
 0851739,-0.00000010,0.00058252,0.00014321,0.,-0.33274389,-0.06393200,-
 0.00000025,0.00077576,0.00014082,-0.00000001,0.00139394,-0.00141052,0.
 ,-0.00421391,0.00258081,0.00000002,0.35055815,-0.00000256,0.00002570,0
 .,0.00001705,-0.00006570,0.,0.00007094,0.00009565,0.,-0.00001470,-0.00
 004005,0.,0.00001285,-0.00001718,0.,0.00002471,-0.00000359,0.,-0.00000
 048,-0.00000279,0.,0.00000088,0.00000168,0.,0.00000348,-0.00000473,0.,
 0.00000273,-0.00000127,0.,0.00032248,-0.00033983,0.,0.00001059,0.00003
 289,0.,0.00226039,-0.00311701,-0.00000014,0.02418777,0.00834077,0.0000
 0006,0.00058049,-0.00144527,-0.00000001,-0.06509873,-0.07194450,-0.000
 00038,-0.00013805,0.00093671,0.00000008,-0.00008434,-0.00523884,-0.000
 00009,-0.02975721,-0.00158128,0.,0.06805534,0.07238523,0.,0.,0.0000059
 6,0.,0.,-0.00009548,0.,0.,-0.00037796,0.,0.,-0.00003144,0.,0.,0.000039
 29,0.,0.,-0.00000748,0.,0.,-0.00000145,0.,0.,-0.00001830,0.,0.,0.00000
 969,0.,0.,0.00000608,0.00000001,0.,-0.00061553,0.,0.,0.00026393,0.0000
 0008,-0.00000017,0.00819175,0.00000030,0.00000011,0.00153700,0.0000000
 1,0.,-0.00070953,-0.00000036,-0.00000043,-0.03076405,0.,0.00000010,-0.
 00555521,0.00000002,-0.00000009,0.00413726,-0.00000032,-0.00000002,0.0
 0058504,0.00000028,0.00000047,0.02369318,-0.00007790,0.00001425,0.,0.0
 0010862,0.00009562,0.,-0.00003261,-0.00000086,0.,-0.00002331,0.0000109
 6,0.,-0.00000986,-0.00004008,0.,0.00004359,0.00001932,0.,0.00000065,-0
 .00000430,0.,-0.00000339,0.00000014,0.,0.00000106,-0.00000122,0.,-0.00
 000425,-0.00000070,0.,0.00038679,-0.00007075,0.,-0.00034812,0.00014174
 ,0.,-0.00261005,0.00258022,0.00000003,-0.00146779,0.00032863,0.0000000
 1,0.00967338,0.02182568,0.00000018,-0.00484417,-0.00015018,0.,0.000128
 22,-0.00008435,0.,-0.07820020,-0.07677856,-0.00000065,-0.00372981,-0.0
 3002152,-0.00000023,-0.00036593,-0.00143305,-0.00000002,0.07859120,0.0
 0001938,0.00011348,0.,-0.00006811,-0.00020596,0.,0.00001642,0.00016196
 ,0.,-0.00005157,-0.00001010,0.,0.00001559,-0.00008354,0.,0.00009722,-0
 .00001697,0.,-0.00000842,-0.00000014,0.,0.00000420,0.00000611,0.,0.000
 01155,-0.00000726,0.,0.00001450,-0.00000579,0.,0.00038096,0.00007613,0
 .,0.00021351,-0.00037309,0.,0.00399877,-0.00254817,-0.00000004,0.00106
 346,0.00044764,0.,-0.01318424,-0.01632296,-0.00000020,-0.00107326,0.00
 218433,-0.00000002,-0.00006055,-0.00009902,0.,-0.07765879,-0.32252417,
 -0.00000212,0.00213526,-0.00274915,-0.00000007,0.00003436,-0.00024417,
 0.,0.08467815,0.33893974,0.,0.,0.00004869,0.,0.,0.00002752,0.,0.,-0.00
 002392,0.,0.,-0.00000259,0.,0.,0.00000300,0.,0.,-0.00000817,0.,0.,0.00
 000477,0.,0.,0.00000064,0.,0.,0.00000277,0.,0.,-0.00000862,0.,0.,-0.00
 007293,0.,0.,0.00011352,0.,-0.00000006,0.00390470,0.00000001,0.,-0.000
 75705,-0.00000007,-0.00000006,0.00440352,0.00000002,-0.00000006,0.0091
 4810,0.,0.00000002,-0.00102452,-0.00000059,-0.00000228,-0.03407916,0.,
 -0.00000001,0.00320074,0.,0.,0.00053635,0.00000068,0.00000235,0.024138
 77,0.00004807,-0.00008747,0.,-0.00005491,0.00014844,0.,0.00008624,-0.0
 0015344,0.,0.00004566,0.00000342,0.,-0.00000030,0.00008786,0.,-0.00010
 481,-0.00000051,0.,0.00000459,0.00000410,0.,0.00000557,-0.00000516,0.,
 -0.00000930,0.00000631,0.,-0.00000709,0.00000524,0.,-0.00051542,0.0001
 2157,0.,0.00005465,0.00027848,0.,-0.00088110,0.00036380,0.,0.00098233,
 -0.00226437,-0.00000003,-0.00244851,-0.00442160,0.,0.00889270,-0.00819
 185,-0.00000008,0.00033124,-0.00041688,0.,-0.01541323,0.02464472,0.000
 00016,-0.19260176,0.14057825,0.00000151,0.00058810,0.00042404,0.,0.000
 95557,-0.00030019,-0.00000002,0.20109837,0.00001725,0.00003095,0.,-0.0
 0008006,0.00002299,0.,0.00002127,0.00007232,0.,-0.00000186,-0.00000121
 ,0.,0.00000955,-0.00001514,0.,0.00002175,-0.00001065,0.,-0.00000574,-0
 .00000106,0.,0.00000353,0.00000193,0.,0.00000519,-0.00000262,0.,0.0000
 0660,-0.00000355,0.,0.00018817,-0.00006462,0.,-0.00009587,-0.00001702,
 0.,-0.00071545,0.00060011,0.00000003,-0.00340922,-0.00510945,-0.000000
 08,-0.00246701,0.00003262,-0.00000010,0.02318436,-0.01450715,-0.000000
 19,0.00109718,-0.00113424,-0.00000003,-0.00751445,0.00828015,-0.000000
 02,0.14107617,-0.20756414,-0.00000160,-0.00023791,0.00104922,0.0000000
 3,0.00010523,0.00088837,0.00000006,-0.15132155,0.21685233,0.,0.,0.0000
 0010,0.,0.,-0.00005796,0.,0.,0.00015146,0.,0.,0.00000482,0.,0.,-0.0000
 0753,0.,0.,-0.00000401,0.,0.,0.00000606,0.,0.,0.00000101,0.,0.,-0.0000
 0008,0.,0.,0.00000247,0.00000003,0.00000001,-0.00006135,0.,0.,0.000268
 52,0.00000005,-0.00000001,-0.00116009,-0.00000007,-0.00000005,0.004475
 13,0.00000007,-0.00000015,0.01138241,0.00000018,-0.00000027,0.00476737
 ,0.,0.,-0.00037804,-0.00000015,0.00000003,0.00723539,0.00000158,-0.000
 00157,-0.04224894,0.,0.00000003,-0.00234425,0.,0.00000004,-0.00610835,
 -0.00000157,0.00000188,0.02677144,-0.00892349,-0.00032766,0.,0.0080268
 9,0.01542601,0.00000010,-0.06135390,0.04565131,0.00000050,0.00752649,-
 0.00354221,0.00000004,-0.00290198,0.00085858,-0.00000003,0.00248844,-0
 .00251919,0.,0.00001343,-0.00100396,-0.00000002,-0.00061217,-0.0000028
 9,0.00000001,0.00053577,-0.00032979,-0.00000001,-0.00058882,-0.0001652
 3,0.00000001,-0.35540267,-0.03633080,0.00000216,-0.06360257,-0.0550689
 8,-0.00000028,-0.17336342,0.08300881,0.00000127,-0.06343559,0.03422687
 ,0.00000066,0.04677625,0.02187003,-0.00000007,0.00666839,-0.02924115,-
 0.00000035,0.00156040,0.00196245,0.00000006,-0.01295535,0.00419818,0.0
 0000012,0.01423263,0.01520550,0.00000012,-0.00028493,0.00085587,0.,0.0
 0020394,-0.00154611,0.,0.00088987,-0.00004615,-0.00000004,0.69814606,0
 .00262144,-0.00350201,0.,0.01880059,-0.02045148,-0.00000014,0.01389590
 ,0.01613402,-0.00000028,0.00694063,-0.00937852,-0.00000005,-0.00068822
 ,0.00658358,0.00000005,-0.00482048,-0.00353078,-0.00000003,0.00025871,
 -0.00048631,0.,-0.00055560,-0.00003792,0.,0.00006182,-0.00034957,0.,-0
 .00043967,0.00013410,0.,-0.04259544,-0.14811354,0.00000031,-0.00602512
 ,-0.16977098,-0.00000049,0.08132306,-0.21230743,-0.00000218,0.03401742
 ,0.00505380,0.00000002,0.00135018,-0.04116653,-0.00000033,-0.01426712,
 0.02353554,0.00000023,-0.00275934,-0.00106663,0.,0.00886946,-0.0116062
 0,-0.00000028,-0.01426961,-0.01524003,-0.00000010,-0.00109547,0.000762
 59,0.,0.00149735,-0.00035963,0.,-0.00069353,0.00018470,0.00000005,-0.0
 7655707,0.56640935,0.00000012,-0.00000006,-0.00024192,-0.00000010,-0.0
 0000011,0.00089359,0.00000016,-0.00000016,-0.00008360,0.00000006,0.,0.
 00102389,0.,0.00000008,0.00128840,-0.00000009,-0.00000003,0.00096513,0
 .,0.00000001,-0.00045600,0.,0.,-0.00046239,0.,0.,-0.00026557,0.,0.,-0.
 00005074,0.00000219,0.,-0.05080545,0.00000021,-0.00000041,-0.03185267,
 0.00000122,-0.00000173,-0.05799749,0.00000064,0.,-0.00584265,-0.000000
 14,-0.00000077,0.00444477,-0.00000019,0.00000037,0.00503020,-0.0000000
 4,0.,-0.00222657,0.00000020,-0.00000023,0.00381292,-0.00000026,-0.0000
 0027,-0.00076614,0.,-0.00000002,0.00171095,0.00000002,0.,-0.00039412,-
 0.00000001,0.,-0.00069132,-0.00000442,0.00000309,0.13729391,-0.0012527
 4,0.00308292,0.00000001,0.00214699,-0.00103240,-0.00000003,0.00650645,
 0.00123848,0.00000008,-0.00274472,0.00056368,0.00000003,0.00005890,-0.
 00341971,-0.00000003,0.00336703,0.00058974,0.,-0.00019482,0.00010794,0
 .,0.00027697,0.00008563,0.,0.00011764,-0.00009055,0.,0.00015113,-0.000
 00146,0.,0.01687740,0.02064428,0.00000002,-0.00270189,-0.00485559,-0.0
 0000010,-0.01297965,-0.06779918,-0.00000038,-0.01389747,0.00191285,0.0
 0000014,-0.58761327,-0.10341542,0.00000388,-0.00000941,-0.02090402,-0.
 00000015,-0.00125859,-0.00067250,-0.00000002,-0.08170676,0.01223738,0.
 00000086,0.01791689,0.02272053,0.00000021,-0.00022459,-0.00030694,-0.0
 0000001,0.00164607,0.00130676,-0.00000005,-0.00207642,0.00018536,-0.00
 000009,-0.03974049,0.02487704,0.00000045,0.69057545,-0.00029332,-0.000
 02948,0.00000001,0.00030995,-0.00135385,0.,-0.00383602,-0.00174011,-0.
 00000008,-0.00018797,-0.00023233,0.,0.00027598,-0.00002774,0.,0.000180
 26,-0.00005249,0.,0.00002712,-0.00013269,0.,0.00010038,0.00004782,0.,0
 .00008321,-0.00008254,0.,0.00005744,-0.00004871,0.,0.01222905,-0.01433
 388,-0.00000022,-0.00012731,-0.00122580,-0.00000001,-0.05710756,-0.015
 12958,0.00000001,0.00906349,-0.00925500,-0.00000016,-0.11193500,-0.119
 55084,0.00000041,-0.00356559,0.00614959,0.00000011,-0.00252629,-0.0007
 2282,-0.00000004,0.03245693,0.02338686,-0.00000011,-0.00029060,-0.0103
 6005,-0.00000012,-0.00009128,0.00052473,0.,-0.00273667,0.00280848,0.00
 000004,0.00133812,0.00042158,0.00000002,-0.00205596,0.00479883,0.00000
 005,0.13262917,0.14435748,0.,-0.00000003,-0.00020937,0.,0.,-0.00009255
 ,-0.00000013,-0.00000007,0.00174352,0.00000002,-0.00000001,0.00003279,
 0.,0.00000003,-0.00010254,-0.00000003,0.,0.00004359,0.,0.,0.00002420,0
 .,0.,0.00002435,0.,0.,-0.00001390,0.,0.,0.00000209,0.00000012,-0.00000
 040,0.00115308,0.00000002,0.00000002,-0.00005282,-0.00000064,0.0000000
 9,0.01920457,0.00000027,-0.00000022,0.00454372,0.00000409,0.00000035,-
 0.06786584,-0.00000002,0.00000029,-0.00020529,-0.00000002,0.,-0.000131
 33,0.00000088,0.00000001,0.01820518,-0.00000018,-0.00000033,0.00446003
 ,0.,0.00000001,-0.00038735,-0.00000004,0.00000005,-0.00303628,0.000000
 03,0.00000002,-0.00180026,0.00000034,-0.00000015,-0.00254491,-0.000004
 46,0.00000017,0.03156450,0.00134039,0.00036123,0.00000001,-0.00311719,
 0.00573501,0.00000003,0.01557677,0.02215272,-0.00000011,0.00165893,0.0
 0053919,-0.00000001,-0.00026588,0.00009259,0.,-0.00042717,-0.00005857,
 0.,-0.00018447,0.00033645,0.,-0.00152781,-0.00100512,0.,-0.00001441,0.
 00000023,0.,-0.00006353,-0.00006405,0.,-0.16586753,-0.19879355,0.00000
 135,-0.00392493,-0.00093350,0.00000006,0.00051896,0.00317157,-0.000000
 02,0.00039289,-0.00006257,-0.00000001,-0.01043872,-0.00108374,0.000000
 12,0.00008799,0.00090512,0.,0.00019506,0.00008531,0.,0.00246592,-0.000
 33368,0.,-0.00070644,-0.00113882,0.,0.00006700,0.00000646,0.,-0.000021
 73,-0.00003884,0.,0.00012989,-0.00002638,0.,-0.00390317,-0.02974694,0.
 ,0.00675991,-0.00399753,-0.00000025,0.16126929,-0.00125594,0.00051394,
 0.,0.00358610,-0.00168329,-0.00000001,-0.00594858,-0.02031718,0.000000
 07,-0.00153286,0.00221978,0.00000002,-0.00037222,-0.00160155,-0.000000
 02,0.00099402,0.00071716,0.,0.00011277,-0.00006238,0.,0.00026771,0.000
 04439,0.,-0.00009511,0.00012893,0.,0.00002253,0.00006097,0.,-0.1845805
 8,-0.40004793,0.00000211,0.00120645,0.00312747,-0.00000002,0.00673457,
 -0.01016935,-0.00000014,-0.00545103,-0.00008643,0.00000002,0.01898903,
 0.00920755,-0.00000005,0.00152389,-0.00525638,-0.00000005,-0.00028676,
 0.00005795,0.,-0.00714482,0.00125349,0.00000006,0.00364679,0.00475859,
 0.00000002,0.00001991,-0.00010898,0.,0.00002493,-0.00007612,0.,-0.0001
 4778,-0.00000643,-0.00000001,-0.01452647,0.01377106,0.00000017,-0.0196
 8398,-0.00821747,0.00000018,0.20389744,0.41177221,0.,0.,0.00076291,0.,
 -0.00000004,0.00227033,0.00000002,-0.00000013,0.00004717,-0.00000004,0
 .,-0.00079490,0.,-0.00000002,-0.00034124,0.00000002,0.,-0.00004496,0.,
 0.,-0.00003166,0.,0.,0.00009859,0.,0.,0.00006172,0.,0.,0.00000348,0.00
 000138,0.00000246,-0.00672873,0.,-0.00000013,0.00483341,0.00000008,-0.
 00000014,-0.00318465,-0.00000008,0.00000001,-0.00065927,0.00000037,0.0
 0000012,0.00011881,0.00000003,-0.00000007,0.00011222,0.,0.,-0.00008546
 ,-0.00000012,0.,0.00133764,0.00000004,0.00000007,-0.00001747,0.,0.,0.0
 0019155,0.,0.,-0.00001741,0.,0.,-0.00020399,-0.00000015,0.00000030,-0.
 00178221,-0.00000035,-0.00000008,-0.00455917,-0.00000118,-0.00000237,0
 .00861328\\0.00090126,0.00466543,-0.00000004,0.00642864,0.00976497,0.,
 0.01214729,-0.00000736,0.00000038,-0.00074619,0.00148701,0.00000001,-0
 .00046880,-0.00407744,0.00000002,0.00097194,0.00109382,-0.00000002,-0.
 00019445,0.00065108,-0.00000003,0.00039462,-0.00004640,0.00000002,0.00
 001169,0.00002116,0.,0.00002928,0.00011517,0.,-0.01584316,0.01168537,-
 0.00000031,0.00440860,0.01267848,0.00000004,-0.00947503,0.00622932,-0.
 00000058,0.01001368,-0.00155321,-0.00000025,0.01691757,0.00392708,0.00
 000310,-0.00344570,0.00808458,0.00000026,0.00031545,-0.00009844,-0.000
 00005,-0.00474930,0.00020765,-0.00000107,-0.00699046,-0.00207088,-0.00
 000017,-0.00022233,-0.00016123,0.,-0.00050827,-0.00002285,0.00000001,-
 0.00073528,-0.00032810,0.00000011,-0.00961708,-0.00612584,0.00000009,-
 0.00949641,-0.01278904,-0.00000106,0.00995243,-0.03333034,-0.00000045\
 \\@
 The archive entry for this job was punched.


 I HAVE NOT FAILED, I HAVE ONLY DISCOVERED 10,000
 WAYS THAT DIDN'T WORK.  -- THOMAS A. EDISON
 Job cpu time:       0 days  0 hours 58 minutes 17.6 seconds.
 Elapsed time:       0 days  0 hours  5 minutes 51.7 seconds.
 File lengths (MBytes):  RWF=    544 Int=      0 D2E=      0 Chk=     40 Scr=      8
 Normal termination of Gaussian 16 at Tue Oct 27 23:53:04 2020.
