 Entering Gaussian System, Link 0=g16
 Initial command:
 /gpfs/loomis/apps/avx/software/Gaussian/16-C.01_AVX/g16/l1.exe "/home/fas/batista/pev4/scratch60/gauss-scratch/Gau-61152.inp" -scrdir="/home/fas/batista/pev4/scratch60/gauss-scratch/"
 Entering Link 1 = /gpfs/loomis/apps/avx/software/Gaussian/16-C.01_AVX/g16/l1.exe PID=     61153.
  
 Copyright (c) 1988-2019, Gaussian, Inc.  All Rights Reserved.
  
 This is part of the Gaussian(R) 16 program.  It is based on
 the Gaussian(R) 09 system (copyright 2009, Gaussian, Inc.),
 the Gaussian(R) 03 system (copyright 2003, Gaussian, Inc.),
 the Gaussian(R) 98 system (copyright 1998, Gaussian, Inc.),
 the Gaussian(R) 94 system (copyright 1995, Gaussian, Inc.),
 the Gaussian 92(TM) system (copyright 1992, Gaussian, Inc.),
 the Gaussian 90(TM) system (copyright 1990, Gaussian, Inc.),
 the Gaussian 88(TM) system (copyright 1988, Gaussian, Inc.),
 the Gaussian 86(TM) system (copyright 1986, Carnegie Mellon
 University), and the Gaussian 82(TM) system (copyright 1983,
 Carnegie Mellon University). Gaussian is a federally registered
 trademark of Gaussian, Inc.
  
 This software contains proprietary and confidential information,
 including trade secrets, belonging to Gaussian, Inc.
  
 This software is provided under written license and may be
 used, copied, transmitted, or stored only in accord with that
 written license.
  
 The following legend is applicable only to US Government
 contracts under FAR:
  
                    RESTRICTED RIGHTS LEGEND
  
 Use, reproduction and disclosure by the US Government is
 subject to restrictions as set forth in subparagraphs (a)
 and (c) of the Commercial Computer Software - Restricted
 Rights clause in FAR 52.227-19.
  
 Gaussian, Inc.
 340 Quinnipiac St., Bldg. 40, Wallingford CT 06492
  
  
 ---------------------------------------------------------------
 Warning -- This program may not be used in any manner that
 competes with the business of Gaussian, Inc. or will provide
 assistance to any competitor of Gaussian, Inc.  The licensee
 of this program is prohibited from giving any competitor of
 Gaussian, Inc. access to this program.  By using this program,
 the user acknowledges that Gaussian, Inc. is engaged in the
 business of creating and licensing software in the field of
 computational chemistry and represents and warrants to the
 licensee that it is not a competitor of Gaussian, Inc. and that
 it will not use this program in any manner prohibited above.
 ---------------------------------------------------------------
  

 Cite this work as:
 Gaussian 16, Revision C.01,
 M. J. Frisch, G. W. Trucks, H. B. Schlegel, G. E. Scuseria, 
 M. A. Robb, J. R. Cheeseman, G. Scalmani, V. Barone, 
 G. A. Petersson, H. Nakatsuji, X. Li, M. Caricato, A. V. Marenich, 
 J. Bloino, B. G. Janesko, R. Gomperts, B. Mennucci, H. P. Hratchian, 
 J. V. Ortiz, A. F. Izmaylov, J. L. Sonnenberg, D. Williams-Young, 
 F. Ding, F. Lipparini, F. Egidi, J. Goings, B. Peng, A. Petrone, 
 T. Henderson, D. Ranasinghe, V. G. Zakrzewski, J. Gao, N. Rega, 
 G. Zheng, W. Liang, M. Hada, M. Ehara, K. Toyota, R. Fukuda, 
 J. Hasegawa, M. Ishida, T. Nakajima, Y. Honda, O. Kitao, H. Nakai, 
 T. Vreven, K. Throssell, J. A. Montgomery, Jr., J. E. Peralta, 
 F. Ogliaro, M. J. Bearpark, J. J. Heyd, E. N. Brothers, K. N. Kudin, 
 V. N. Staroverov, T. A. Keith, R. Kobayashi, J. Normand, 
 K. Raghavachari, A. P. Rendell, J. C. Burant, S. S. Iyengar, 
 J. Tomasi, M. Cossi, J. M. Millam, M. Klene, C. Adamo, R. Cammi, 
 J. W. Ochterski, R. L. Martin, K. Morokuma, O. Farkas, 
 J. B. Foresman, and D. J. Fox, Gaussian, Inc., Wallingford CT, 2019.
 
 ******************************************
 Gaussian 16:  ES64L-G16RevC.01  3-Jul-2019
                28-Oct-2020 
 ******************************************
 %chk=config_9_17.chk
 %mem=58GB
 %nprocshared=10
 Will use up to   10 processors via shared memory.
 ----------------------------------------------------------------------
 #p opt=addgic freq wb97xd/cc-pvdz nosymm int=ultrafine scrf=(solvent=C
 arbonTetraChloride)
 ----------------------------------------------------------------------
 1/18=20,19=15,26=6,38=1,145=903/1,3;
 2/9=110,12=2,15=1,17=6,18=5,40=1/2;
 3/5=16,11=2,25=1,30=1,70=2201,71=1,72=11,74=-58,75=-5/1,2,3;
 4//1;
 5/5=2,38=5,53=11/2;
 6/7=2,8=2,9=2,10=2,28=1/1;
 7/30=1/1,2,3,16;
 1/18=20,19=15,26=6,145=903/3(2);
 2/9=110,15=1/2;
 99//99;
 2/9=110,15=1/2;
 3/5=16,11=2,25=1,30=1,70=2205,71=1,72=11,74=-58,75=-5/1,2,3;
 4/5=5,16=3,69=1/1;
 5/5=2,38=5,53=11/2;
 7/30=1/1,2,3,16;
 1/18=20,19=15,26=6,145=903/3(-5);
 2/9=110,15=1/2;
 6/7=2,8=2,9=2,10=2,19=2,28=1/1;
 99/9=1/99;
 Leave Link    1 at Wed Oct 28 00:38:32 2020, MaxMem=  7784628224 cpu:               3.8 elap:               0.4
 (Enter /gpfs/loomis/apps/avx/software/Gaussian/16-C.01_AVX/g16/l101.exe)
 ------------------------------------------------
 NM 2D-scan of HBT TD-WB97XD pVDZ in CTC Relaxed.
 ------------------------------------------------
 Symbolic Z-matrix:
 Charge =  0 Multiplicity = 1
 C                     1.53413  -3.24766  -0.00002 
 C                     1.0046   -1.95341  -0.00002 
 C                     1.80576  -0.77376  -0.00003 
 C                     3.20408  -0.9428   -0.00003 
 C                     3.73501  -2.24195  -0.00002 
 C                     2.92256  -3.38836  -0.00002 
 H                     0.86718  -4.11968  -0.00001 
 H                     3.86966  -0.0695   -0.00004 
 H                     4.82383  -2.3607   -0.00002 
 H                     3.3749   -4.38529  -0.00001 
 N                     1.03611   0.38728  -0.00003 
 S                    -0.6973   -1.58166  -0.00003 
 C                    -1.31953   1.07648   0.00001 
 C                    -2.66733   0.72173   0.00002 
 C                    -0.89769   2.48629   0.00004 
 C                    -3.65709   1.73567   0.00003 
 H                    -2.9725   -0.33152   0.00002 
 C                    -1.93863   3.47136   0.00004 
 C                    -3.29391   3.09023   0.00003 
 H                    -4.71432   1.44951   0.00004 
 H                    -1.63925   4.52637   0.00006 
 H                    -4.07381   3.85796   0.00004 
 C                    -0.29617   0.09822  -0.00002 
 O                     0.3465    2.73136   0.00006 
 H                     1.07303   1.30711   0.00001 
 
 Initializing the GIC definitions file.
 Number of initial coordinates =   134
 Number of input entries/lines =    52
 Number of additional coordinates =     2
 Number of removed coordinates =     0
 Number of frozen coordinates =     2
 Number of final active and frozen coordinates =   136
 ITRead=  0  0  0  0  0  0  0  0  0  0  0  0  0  0  0  0  0  0  0  0
 ITRead=  0  0  0  0  0
 MicOpt= -1 -1 -1 -1 -1 -1 -1 -1 -1 -1 -1 -1 -1 -1 -1 -1 -1 -1 -1 -1
 MicOpt= -1 -1 -1 -1 -1
 NAtoms=     25 NQM=       25 NQMF=       0 NMMI=      0 NMMIF=      0
                NMic=       0 NMicF=      0.
                    Isotopes and Nuclear Properties:
 (Nuclear quadrupole moments (NQMom) in fm**2, nuclear magnetic moments (NMagM)
  in nuclear magnetons)

  Atom         1           2           3           4           5           6           7           8           9          10
 IAtWgt=          12          12          12          12          12          12           1           1           1           1
 AtmWgt=  12.0000000  12.0000000  12.0000000  12.0000000  12.0000000  12.0000000   1.0078250   1.0078250   1.0078250   1.0078250
 NucSpn=           0           0           0           0           0           0           1           1           1           1
 AtZEff=  -0.0000000  -0.0000000  -0.0000000  -0.0000000  -0.0000000  -0.0000000  -0.0000000  -0.0000000  -0.0000000  -0.0000000
 NQMom=    0.0000000   0.0000000   0.0000000   0.0000000   0.0000000   0.0000000   0.0000000   0.0000000   0.0000000   0.0000000
 NMagM=    0.0000000   0.0000000   0.0000000   0.0000000   0.0000000   0.0000000   2.7928460   2.7928460   2.7928460   2.7928460
 AtZNuc=   6.0000000   6.0000000   6.0000000   6.0000000   6.0000000   6.0000000   1.0000000   1.0000000   1.0000000   1.0000000

  Atom        11          12          13          14          15          16          17          18          19          20
 IAtWgt=          14          32          12          12          12          12           1          12          12           1
 AtmWgt=  14.0030740  31.9720718  12.0000000  12.0000000  12.0000000  12.0000000   1.0078250  12.0000000  12.0000000   1.0078250
 NucSpn=           2           0           0           0           0           0           1           0           0           1
 AtZEff=  -0.0000000  -0.0000000  -0.0000000  -0.0000000  -0.0000000  -0.0000000  -0.0000000  -0.0000000  -0.0000000  -0.0000000
 NQMom=    2.0440000   0.0000000   0.0000000   0.0000000   0.0000000   0.0000000   0.0000000   0.0000000   0.0000000   0.0000000
 NMagM=    0.4037610   0.0000000   0.0000000   0.0000000   0.0000000   0.0000000   2.7928460   0.0000000   0.0000000   2.7928460
 AtZNuc=   7.0000000  16.0000000   6.0000000   6.0000000   6.0000000   6.0000000   1.0000000   6.0000000   6.0000000   1.0000000

  Atom        21          22          23          24          25
 IAtWgt=           1           1          12          16           1
 AtmWgt=   1.0078250   1.0078250  12.0000000  15.9949146   1.0078250
 NucSpn=           1           1           0           0           1
 AtZEff=  -0.0000000  -0.0000000  -0.0000000  -0.0000000  -0.0000000
 NQMom=    0.0000000   0.0000000   0.0000000   0.0000000   0.0000000
 NMagM=    2.7928460   2.7928460   0.0000000   0.0000000   2.7928460
 AtZNuc=   1.0000000   1.0000000   6.0000000   8.0000000   1.0000000
 Leave Link  101 at Wed Oct 28 00:38:35 2020, MaxMem=  7784628224 cpu:              31.4 elap:               3.2
 (Enter /gpfs/loomis/apps/avx/software/Gaussian/16-C.01_AVX/g16/l103.exe)

 GradGradGradGradGradGradGradGradGradGradGradGradGradGradGradGradGradGrad
 Berny optimization.
 Initialization pass.
                           ----------------------------
                           !    Initial Parameters    !
                           ! (Angstroms and Degrees)  !
 --------------------------                            --------------------------
 ! Name  Definition              Value          Derivative Info.                !
 --------------------------------------------------------------------------------
 ! R1    R(1,2)                  1.3984         estimate D2E/DX2                !
 ! R2    R(1,6)                  1.3955         estimate D2E/DX2                !
 ! R3    R(1,7)                  1.0978         estimate D2E/DX2                !
 ! R4    R(2,3)                  1.426          estimate D2E/DX2                !
 ! R5    R(2,12)                 1.742          estimate D2E/DX2                !
 ! R6    R(3,4)                  1.4085         estimate D2E/DX2                !
 ! R7    R(3,11)                 1.393          estimate D2E/DX2                !
 ! R8    R(4,5)                  1.4035         estimate D2E/DX2                !
 ! R9    R(4,8)                  1.098          estimate D2E/DX2                !
 ! R10   R(5,6)                  1.4051         estimate D2E/DX2                !
 ! R11   R(5,9)                  1.0953         estimate D2E/DX2                !
 ! R12   R(6,10)                 1.0948         estimate D2E/DX2                !
 ! R13   R(11,23)                1.3633         estimate D2E/DX2                !
 ! R14   R(11,25)                0.9206         estimate D2E/DX2                !
 ! R15   R(12,23)                1.7271         estimate D2E/DX2                !
 ! R16   R(13,14)                1.3937         estimate D2E/DX2                !
 ! R17   R(13,15)                1.4716         estimate D2E/DX2                !
 ! R18   R(13,23)                1.4157         estimate D2E/DX2                !
 ! R19   R(14,16)                1.4169         estimate D2E/DX2                !
 ! R20   R(14,17)                1.0966         estimate D2E/DX2                !
 ! R21   R(15,18)                1.4331         estimate D2E/DX2                !
 ! R22   R(15,24)                1.2681         estimate D2E/DX2                !
 ! R23   R(16,19)                1.4024         estimate D2E/DX2                !
 ! R24   R(16,20)                1.0953         estimate D2E/DX2                !
 ! R25   R(18,19)                1.4079         estimate D2E/DX2                !
 ! R26   R(18,21)                1.0967         estimate D2E/DX2                !
 ! R27   R(19,22)                1.0944         estimate D2E/DX2                !
 ! A1    A(2,1,6)              118.0379         estimate D2E/DX2                !
 ! A2    A(2,1,7)              120.3387         estimate D2E/DX2                !
 ! A3    A(6,1,7)              121.6234         estimate D2E/DX2                !
 ! A4    A(1,2,3)              123.5665         estimate D2E/DX2                !
 ! A5    A(1,2,12)             124.5733         estimate D2E/DX2                !
 ! A6    A(3,2,12)             111.8602         estimate D2E/DX2                !
 ! A7    A(2,3,4)              117.2892         estimate D2E/DX2                !
 ! A8    A(2,3,11)             112.2775         estimate D2E/DX2                !
 ! A9    A(4,3,11)             130.4333         estimate D2E/DX2                !
 ! A10   A(3,4,5)              119.1216         estimate D2E/DX2                !
 ! A11   A(3,4,8)              120.4197         estimate D2E/DX2                !
 ! A12   A(5,4,8)              120.4586         estimate D2E/DX2                !
 ! A13   A(4,5,6)              122.4461         estimate D2E/DX2                !
 ! A14   A(4,5,9)              118.4531         estimate D2E/DX2                !
 ! A15   A(6,5,9)              119.1008         estimate D2E/DX2                !
 ! A16   A(1,6,5)              119.5387         estimate D2E/DX2                !
 ! A17   A(1,6,10)             120.1922         estimate D2E/DX2                !
 ! A18   A(5,6,10)             120.2691         estimate D2E/DX2                !
 ! A19   A(3,11,23)            111.299          estimate D2E/DX2                !
 ! A20   A(3,11,25)            144.1609         estimate D2E/DX2                !
 ! A21   A(23,11,25)           104.5401         estimate D2E/DX2                !
 ! A22   A(2,12,23)             88.892          estimate D2E/DX2                !
 ! A23   A(14,13,15)           121.4045         estimate D2E/DX2                !
 ! A24   A(14,13,23)           121.5448         estimate D2E/DX2                !
 ! A25   A(15,13,23)           117.0507         estimate D2E/DX2                !
 ! A26   A(13,14,16)           119.5622         estimate D2E/DX2                !
 ! A27   A(13,14,17)           120.905          estimate D2E/DX2                !
 ! A28   A(16,14,17)           119.5328         estimate D2E/DX2                !
 ! A29   A(13,15,18)           116.7622         estimate D2E/DX2                !
 ! A30   A(13,15,24)           117.801          estimate D2E/DX2                !
 ! A31   A(18,15,24)           125.4367         estimate D2E/DX2                !
 ! A32   A(14,16,19)           120.6827         estimate D2E/DX2                !
 ! A33   A(14,16,20)           119.1633         estimate D2E/DX2                !
 ! A34   A(19,16,20)           120.154          estimate D2E/DX2                !
 ! A35   A(15,18,19)           120.8726         estimate D2E/DX2                !
 ! A36   A(15,18,21)           117.5784         estimate D2E/DX2                !
 ! A37   A(19,18,21)           121.5489         estimate D2E/DX2                !
 ! A38   A(16,19,18)           120.7157         estimate D2E/DX2                !
 ! A39   A(16,19,22)           119.5409         estimate D2E/DX2                !
 ! A40   A(18,19,22)           119.7434         estimate D2E/DX2                !
 ! A41   A(11,23,12)           115.6713         estimate D2E/DX2                !
 ! A42   A(11,23,13)           124.0497         estimate D2E/DX2                !
 ! A43   A(12,23,13)           120.279          estimate D2E/DX2                !
 ! D1    D(6,1,2,3)             -0.0001         estimate D2E/DX2                !
 ! D2    D(6,1,2,12)           180.0            estimate D2E/DX2                !
 ! D3    D(7,1,2,3)            179.9999         estimate D2E/DX2                !
 ! D4    D(7,1,2,12)            -0.0001         estimate D2E/DX2                !
 ! D5    D(2,1,6,5)             -0.0001         estimate D2E/DX2                !
 ! D6    D(2,1,6,10)           179.9999         estimate D2E/DX2                !
 ! D7    D(7,1,6,5)            179.9999         estimate D2E/DX2                !
 ! D8    D(7,1,6,10)             0.0            estimate D2E/DX2                !
 ! D9    D(1,2,3,4)              0.0003         estimate D2E/DX2                !
 ! D10   D(1,2,3,11)          -179.9999         estimate D2E/DX2                !
 ! D11   D(12,2,3,4)          -179.9998         estimate D2E/DX2                !
 ! D12   D(12,2,3,11)            0.0            estimate D2E/DX2                !
 ! D13   D(1,2,12,23)          179.9996         estimate D2E/DX2                !
 ! D14   D(3,2,12,23)           -0.0003         estimate D2E/DX2                !
 ! D15   D(2,3,4,5)             -0.0002         estimate D2E/DX2                !
 ! D16   D(2,3,4,8)            179.9998         estimate D2E/DX2                !
 ! D17   D(11,3,4,5)           180.0            estimate D2E/DX2                !
 ! D18   D(11,3,4,8)             0.0001         estimate D2E/DX2                !
 ! D19   D(2,3,11,23)            0.0004         estimate D2E/DX2                !
 ! D20   D(2,3,11,25)          179.9952         estimate D2E/DX2                !
 ! D21   D(4,3,11,23)         -179.9998         estimate D2E/DX2                !
 ! D22   D(4,3,11,25)           -0.005          estimate D2E/DX2                !
 ! D23   D(3,4,5,6)              0.0001         estimate D2E/DX2                !
 ! D24   D(3,4,5,9)           -179.9999         estimate D2E/DX2                !
 ! D25   D(8,4,5,6)            180.0            estimate D2E/DX2                !
 ! D26   D(8,4,5,9)              0.0            estimate D2E/DX2                !
 ! D27   D(4,5,6,1)              0.0001         estimate D2E/DX2                !
 ! D28   D(4,5,6,10)          -179.9999         estimate D2E/DX2                !
 ! D29   D(9,5,6,1)           -179.9999         estimate D2E/DX2                !
 ! D30   D(9,5,6,10)             0.0            estimate D2E/DX2                !
 ! D31   D(3,11,23,12)          -0.0007         estimate D2E/DX2                !
 ! D32   D(3,11,23,13)         179.9982         estimate D2E/DX2                !
 ! D33   D(25,11,23,12)       -179.9976         estimate D2E/DX2                !
 ! D34   D(25,11,23,13)          0.0013         estimate D2E/DX2                !
 ! D35   D(2,12,23,11)           0.0006         estimate D2E/DX2                !
 ! D36   D(2,12,23,13)        -179.9984         estimate D2E/DX2                !
 ! D37   D(15,13,14,16)          0.0013         estimate D2E/DX2                !
 ! D38   D(15,13,14,17)       -179.9992         estimate D2E/DX2                !
 ! D39   D(23,13,14,16)       -179.9988         estimate D2E/DX2                !
 ! D40   D(23,13,14,17)          0.0007         estimate D2E/DX2                !
 ! D41   D(14,13,15,18)         -0.0016         estimate D2E/DX2                !
 ! D42   D(14,13,15,24)        179.9982         estimate D2E/DX2                !
 ! D43   D(23,13,15,18)        179.9985         estimate D2E/DX2                !
 ! D44   D(23,13,15,24)         -0.0017         estimate D2E/DX2                !
 ! D45   D(14,13,23,11)       -179.9998         estimate D2E/DX2                !
 ! D46   D(14,13,23,12)         -0.0009         estimate D2E/DX2                !
 ! D47   D(15,13,23,11)          0.0001         estimate D2E/DX2                !
 ! D48   D(15,13,23,12)        179.999          estimate D2E/DX2                !
 ! D49   D(13,14,16,19)         -0.0003         estimate D2E/DX2                !
 ! D50   D(13,14,16,20)        179.9997         estimate D2E/DX2                !
 ! D51   D(17,14,16,19)       -179.9998         estimate D2E/DX2                !
 ! D52   D(17,14,16,20)          0.0001         estimate D2E/DX2                !
 ! D53   D(13,15,18,19)          0.0008         estimate D2E/DX2                !
 ! D54   D(13,15,18,21)       -180.0            estimate D2E/DX2                !
 ! D55   D(24,15,18,19)       -179.9989         estimate D2E/DX2                !
 ! D56   D(24,15,18,21)          0.0004         estimate D2E/DX2                !
 ! D57   D(14,16,19,18)         -0.0005         estimate D2E/DX2                !
 ! D58   D(14,16,19,22)        179.9998         estimate D2E/DX2                !
 ! D59   D(20,16,19,18)        179.9996         estimate D2E/DX2                !
 ! D60   D(20,16,19,22)         -0.0001         estimate D2E/DX2                !
 ! D61   D(15,18,19,16)          0.0002         estimate D2E/DX2                !
 ! D62   D(15,18,19,22)        179.9999         estimate D2E/DX2                !
 ! D63   D(21,18,19,16)       -179.999          estimate D2E/DX2                !
 ! D64   D(21,18,19,22)          0.0007         estimate D2E/DX2                !
 ! Qtot  GIC-1                  30.0            Frozen                          !
 ! Ptot  GIC-2                 180.0            Frozen                          !
 --------------------------------------------------------------------------------
 NOTE: GIC-type coordinates are in arbitrary units.
 Trust Radius=3.00D-01 FncErr=5.00D-06 GrdErr=5.00D-06 EigMax=2.50D+02 EigMin=1.00D-04
 Number of steps in this run=    146 maximum allowed number of steps=    150.
 GradGradGradGradGradGradGradGradGradGradGradGradGradGradGradGradGradGrad

 Leave Link  103 at Wed Oct 28 00:38:35 2020, MaxMem=  7784628224 cpu:               0.2 elap:               0.0
 (Enter /gpfs/loomis/apps/avx/software/Gaussian/16-C.01_AVX/g16/l202.exe)
                          Input orientation:                          
 ---------------------------------------------------------------------
 Center     Atomic      Atomic             Coordinates (Angstroms)
 Number     Number       Type             X           Y           Z
 ---------------------------------------------------------------------
      1          6           0        1.534130   -3.247656   -0.000017
      2          6           0        1.004603   -1.953411   -0.000023
      3          6           0        1.805756   -0.773760   -0.000027
      4          6           0        3.204081   -0.942802   -0.000030
      5          6           0        3.735012   -2.241951   -0.000024
      6          6           0        2.922555   -3.388356   -0.000016
      7          1           0        0.867181   -4.119676   -0.000012
      8          1           0        3.869661   -0.069503   -0.000036
      9          1           0        4.823833   -2.360703   -0.000025
     10          1           0        3.374904   -4.385288   -0.000010
     11          7           0        1.036106    0.387278   -0.000031
     12         16           0       -0.697297   -1.581655   -0.000026
     13          6           0       -1.319533    1.076479    0.000012
     14          6           0       -2.667327    0.721728    0.000025
     15          6           0       -0.897690    2.486292    0.000036
     16          6           0       -3.657087    1.735673    0.000033
     17          1           0       -2.972502   -0.331520    0.000020
     18          6           0       -1.938625    3.471359    0.000039
     19          6           0       -3.293912    3.090229    0.000035
     20          1           0       -4.714318    1.449515    0.000037
     21          1           0       -1.639251    4.526374    0.000056
     22          1           0       -4.073812    3.857965    0.000038
     23          6           0       -0.296167    0.098223   -0.000022
     24          8           0        0.346505    2.731359    0.000059
     25          1           0        1.073031    1.307112    0.000010
 ---------------------------------------------------------------------
                    Distance matrix (angstroms):
                    1          2          3          4          5
     1  C    0.000000
     2  C    1.398381   0.000000
     3  C    2.488763   1.425982   0.000000
     4  C    2.846241   2.420544   1.408505   0.000000
     5  C    2.419778   2.745612   2.424379   1.403452   0.000000
     6  C    1.395536   2.395330   2.843124   2.461706   1.405109
     7  H    1.097834   2.170619   3.475065   3.943809   3.427872
     8  H    3.944028   3.428945   2.180753   1.098020   2.176616
     9  H    3.407173   3.840886   3.409865   2.152683   1.095278
    10  H    2.163944   3.395931   3.937685   3.446722   2.173378
    11  N    3.668892   2.340901   1.392971   2.543467   3.767882
    12  S    2.784749   1.742030   2.630204   3.953339   4.481223
    13  C    5.180882   3.818618   3.631916   4.953844   6.046520
    14  C    5.779987   4.543065   4.716456   6.102793   7.055022
    15  C    6.228315   4.830081   4.235157   5.346326   6.619532
    16  C    7.195992   5.944804   6.011648   7.365450   8.394321
    17  H    5.367828   4.295101   4.798679   6.206757   6.974273
    18  C    7.563412   6.171769   5.660515   6.777333   8.051837
    19  C    7.967357   6.626880   6.398204   7.647826   8.822580
    20  H    7.817066   6.654771   6.888710   8.271893   9.220526
    21  H    8.396778   6.998398   6.321352   7.305460   8.642506
    22  H    9.052009   7.717668   7.484798   8.718663   9.908921
    23  C    3.813777   2.429240   2.275618   3.651776   4.661204
    24  O    6.095824   4.730768   3.796745   4.654589   6.017956
    25  H    4.578048   3.261241   2.206108   3.098949   4.436439
                    6          7          8          9         10
     6  C    0.000000
     7  H    2.181603   0.000000
     8  H    3.451347   5.041705   0.000000
     9  H    2.161233   4.330021   2.481943   0.000000
    10  H    1.094757   2.521750   4.344051   2.489646   0.000000
    11  N    4.220675   4.510118   2.870137   4.679559   5.314825
    12  S    4.045677   2.981466   4.810792   5.575823   4.944005
    13  C    6.158739   5.637530   5.314228   7.039543   7.201988
    14  C    6.938269   5.994326   6.584699   8.100547   7.911395
    15  C    7.007550   6.837659   5.409226   7.498612   8.091580
    16  C    8.339506   7.399602   7.740194   9.418402   9.322825
    17  H    6.640478   5.393819   6.847178   8.056080   7.531440
    18  C    8.407543   8.092982   6.802492   8.929938   9.484751
    19  C    8.978671   8.324507   7.829476   9.778059  10.017807
    20  H    9.040289   7.884733   8.717346  10.271032   9.973988
    21  H    9.135263   9.002021   7.174274   9.444749  10.225432
    22  H   10.072652   9.383825   8.861365  10.855410  11.110112
    23  C    4.745146   4.375392   4.169204   5.679853   5.794708
    24  O    6.639801   6.870792   4.500829   6.780529   7.734201
    25  H    5.046599   5.430690   3.117084   5.246083   6.140199
                   11         12         13         14         15
    11  N    0.000000
    12  S    2.623239   0.000000
    13  C    2.454391   2.729992   0.000000
    14  C    3.718504   3.030939   1.393698   0.000000
    15  C    2.854019   4.072880   1.471572   2.499060   0.000000
    16  C    4.883055   4.445787   2.428723   1.416937   2.859668
    17  H    4.072543   2.596034   2.171351   1.096569   3.499272
    18  C    4.284925   5.203254   2.473606   2.844552   1.433145
    19  C    5.104410   5.344989   2.820170   2.449980   2.471158
    20  H    5.847711   5.032340   3.415219   2.172521   3.954942
    21  H    4.928453   6.180234   3.464678   3.941100   2.170679
    22  H    6.177130   6.402368   3.914425   3.437176   3.459659
    23  C    1.363270   1.727107   1.415719   2.451766   2.462661
    24  O    2.443413   4.437524   2.348257   3.622402   1.268100
    25  H    0.920575   3.388073   2.403654   3.785888   2.296563
                   16         17         18         19         20
    16  C    0.000000
    17  H    2.177600   0.000000
    18  C    2.442482   3.940913   0.000000
    19  C    1.402397   3.436811   1.407858   0.000000
    20  H    1.095274   2.491186   3.433996   2.170138   0.000000
    21  H    3.443788   5.037528   1.096668   2.190985   4.350069
    22  H    2.162818   4.331820   2.169905   1.094378   2.492164
    23  C    3.738586   2.710617   3.751762   4.235395   4.620178
    24  O    4.125547   4.516307   2.401961   3.658062   5.220637
    25  H    4.749492   4.364796   3.708644   4.716958   5.789101
                   21         22         23         24         25
    21  H    0.000000
    22  H    2.524651   0.000000
    23  C    4.627352   5.329752   0.000000
    24  O    2.676808   4.561627   2.710430   0.000000
    25  H    4.209527   5.744288   1.826503   1.598850   0.000000
 Symmetry turned off by external request.
 Stoichiometry    C13H9NOS
 Framework group  C1[X(C13H9NOS)]
 Deg. of freedom    69
 Full point group                 C1      NOp   1
 Rotational constants (GHZ):           1.4163893           0.2863438           0.2381902
 Leave Link  202 at Wed Oct 28 00:38:36 2020, MaxMem=  7784628224 cpu:               0.4 elap:               0.1
 (Enter /gpfs/loomis/apps/avx/software/Gaussian/16-C.01_AVX/g16/l301.exe)
 Standard basis: CC-pVDZ (5D, 7F)
 Ernie: Thresh=  0.10000D-02 Tol=  0.10000D-05 Strict=F.
 Ernie:  40 primitive shells out of 425 were deleted.
   273 basis functions,   629 primitive gaussians,   289 cartesian basis functions
    59 alpha electrons       59 beta electrons
       nuclear repulsion energy      1101.9842717191 Hartrees.
 IExCor= 4639 DFT=T Ex+Corr=wB97XD ExCW=0 ScaHFX=  1.000000
 ScaDFX=  1.000000  1.000000  1.000000  1.000000 ScalE2=  1.000000  1.000000
 IRadAn=      5 IRanWt=     -1 IRanGd=            0 ICorTp=0 IEmpDi=121
 HFx  wShort=  0.000000 wLong=  0.200000 cFull=  0.222036 cShort=  0.000000 cLong=  0.777964
 DFx  wShort=  0.000000 wLong=  0.200000 cFull=  0.000000 cShort=  0.000000 cLong=  1.000000
 NAtoms=   25 NActive=   25 NUniq=   25 SFac= 1.00D+00 NAtFMM=   60 NAOKFM=F Big=F
 Integral buffers will be    131072 words long.
 Raffenetti 2 integral format.
 Two-electron integral symmetry is turned off.
 R6Disp:  Grimme-D2 Dispersion energy=       -0.0139096486 Hartrees.
 Nuclear repulsion after empirical dispersion term =     1101.9703620706 Hartrees.
 ------------------------------------------------------------------------------
 Polarizable Continuum Model (PCM)
 =================================
 Model                : PCM.
 Atomic radii         : UFF (Universal Force Field).
 Polarization charges : Total charges.
 Charge compensation  : None.
 Solution method      : On-the-fly selection.
 Cavity type          : Scaled VdW (van der Waals Surface) (Alpha=1.100).
 Cavity algorithm     : GePol (No added spheres)
                        Default sphere list used, NSphG=   25.
                        Lebedev-Laikov grids with approx.  5.0 points / Ang**2.
                        Smoothing algorithm: York/Karplus (Gamma=1.0000).
                        Polarization charges: spherical gaussians, with
                                              point-specific exponents (IZeta= 3).
                        Self-potential: point-specific (ISelfS= 7).
                        Self-field    : sphere-specific E.n sum rule (ISelfD= 2).
 1st derivatives      : Analytical E(r).r(x)/FMM algorithm (CHGder, D1EAlg=3).
                        Cavity 1st derivative terms included.
 Solvent              : CarbonTetraChloride, Eps=   2.228000 Eps(inf)=   2.131892
 ------------------------------------------------------------------------------
 GePol: Number of generator spheres                  =      25
 GePol: Total number of spheres                      =      25
 GePol: Number of exposed spheres                    =      25 (100.00%)
 GePol: Number of points                             =    2191
 GePol: Average weight of points                     =       0.12
 GePol: Minimum weight of points                     =   0.90D-08
 GePol: Maximum weight of points                     =    0.20577
 GePol: Number of points with low weight             =     149
 GePol: Fraction of low-weight points (<1% of avg)   =       6.80%
 GePol: Cavity surface area                          =    271.564 Ang**2
 GePol: Cavity volume                                =    291.976 Ang**3
 Leave Link  301 at Wed Oct 28 00:38:36 2020, MaxMem=  7784628224 cpu:               0.8 elap:               0.1
 (Enter /gpfs/loomis/apps/avx/software/Gaussian/16-C.01_AVX/g16/l302.exe)
 NPDir=0 NMtPBC=     1 NCelOv=     1 NCel=       1 NClECP=     1 NCelD=      1
         NCelK=      1 NCelE2=     1 NClLst=     1 CellRange=     0.0.
 One-electron integrals computed using PRISM.
 NBasis=   273 RedAO= T EigKep=  3.18D-04  NBF=   273
 NBsUse=   273 1.00D-06 EigRej= -1.00D+00 NBFU=   273
 Precomputing XC quadrature grid using
 IXCGrd= 4 IRadAn=           5 IRanWt=          -1 IRanGd=           0 AccXCQ= 0.00D+00.
 Generated NRdTot=       0 NPtTot=           0 NUsed=           0 NTot=          32
 NSgBfM=   288   288   288   288   288 MxSgAt=    25 MxSgA2=    25.
 Leave Link  302 at Wed Oct 28 00:38:36 2020, MaxMem=  7784628224 cpu:               4.3 elap:               0.5
 (Enter /gpfs/loomis/apps/avx/software/Gaussian/16-C.01_AVX/g16/l303.exe)
 DipDrv:  MaxL=1.
 Leave Link  303 at Wed Oct 28 00:38:36 2020, MaxMem=  7784628224 cpu:               0.8 elap:               0.1
 (Enter /gpfs/loomis/apps/avx/software/Gaussian/16-C.01_AVX/g16/l401.exe)
 ExpMin= 1.22D-01 ExpMax= 1.11D+05 ExpMxC= 1.07D+03 IAcc=3 IRadAn=         5 AccDes= 0.00D+00
 Harris functional with IExCor= 4639 and IRadAn=       5 diagonalized for initial guess.
 HarFok:  IExCor= 4639 AccDes= 0.00D+00 IRadAn=         5 IDoV= 1 UseB2=F ITyADJ=14
 ICtDFT=  3500011 ScaDFX=  1.000000  1.000000  1.000000  1.000000
 FoFCou: FMM=F IPFlag=           0 FMFlag=      100000 FMFlg1=           0
         NFxFlg=           0 DoJE=T BraDBF=F KetDBF=T FulRan=T
         wScrn=  0.000000 ICntrl=       500 IOpCl=  0 I1Cent=   200000004 NGrid=           0
         NMat0=    1 NMatS0=      1 NMatT0=    0 NMatD0=    1 NMtDS0=    0 NMtDT0=    0
 Symmetry not used in FoFCou.
 Harris En= -994.427565252568    
 JPrj=0 DoOrth=F DoCkMO=F.
 Leave Link  401 at Wed Oct 28 00:38:38 2020, MaxMem=  7784628224 cpu:              14.2 elap:               1.5
 (Enter /gpfs/loomis/apps/avx/software/Gaussian/16-C.01_AVX/g16/l502.exe)
 Two-electron integral symmetry not used.
 Closed shell SCF:
 Using DIIS extrapolation, IDIIS=  1040.
 NGot=  7784628224 LenX=  7784455381 LenY=  7784371419
 Requested convergence on RMS density matrix=1.00D-08 within 128 cycles.
 Requested convergence on MAX density matrix=1.00D-06.
 Requested convergence on             energy=1.00D-06.
 No special actions if energy rises.
 Fock matrices will be formed incrementally for  20 cycles.

 Cycle   1  Pass 1  IDiag  1:
 FoFJK:  IHMeth= 1 ICntrl=       0 DoSepK=T KAlg= 0 I1Cent=           0 FoldK=F
 IRaf=         1 NMat=       1 IRICut=       1 DoRegI=T DoRafI=F ISym2E= 0 IDoP0=0 IntGTp=1.
 FoFCou: FMM=F IPFlag=           0 FMFlag=      100000 FMFlg1=           0
         NFxFlg=           0 DoJE=T BraDBF=F KetDBF=F FulRan=T
         wScrn=  0.000000 ICntrl=       500 IOpCl=  0 I1Cent=           0 NGrid=           0
         NMat0=    1 NMatS0=      1 NMatT0=    0 NMatD0=    1 NMtDS0=    0 NMtDT0=    0
 Symmetry not used in FoFCou.
 Inv3:  Mode=1 IEnd=    14401443.
 Iteration    1 A*A^-1 deviation from unit magnitude is 4.11D-15 for   2175.
 Iteration    1 A*A^-1 deviation from orthogonality  is 2.59D-15 for   2189   2082.
 Iteration    1 A^-1*A deviation from unit magnitude is 4.44D-15 for   2173.
 Iteration    1 A^-1*A deviation from orthogonality  is 1.99D-15 for   2176   2076.
 E= -1028.53948163404    
 DIIS: error= 3.46D-02 at cycle   1 NSaved=   1.
 NSaved= 1 IEnMin= 1 EnMin= -1028.53948163404     IErMin= 1 ErrMin= 3.46D-02
 ErrMax= 3.46D-02  0.00D+00 EMaxC= 1.00D-01 BMatC= 3.90D-01 BMatP= 3.90D-01
 IDIUse=3 WtCom= 6.54D-01 WtEn= 3.46D-01
 Coeff-Com:  0.100D+01
 Coeff-En:   0.100D+01
 Coeff:      0.100D+01
 Gap=     0.311 Goal=   None    Shift=    0.000
 GapD=    0.311 DampG=1.000 DampE=0.500 DampFc=0.5000 IDamp=-1.
 Damping current iteration by 5.00D-01
 RMSDP=3.58D-03 MaxDP=2.37D-01              OVMax= 1.96D-01

 Cycle   2  Pass 1  IDiag  1:
 RMSU=  1.78D-03    CP:  9.95D-01
 E= -1028.65710897808     Delta-E=       -0.117627344045 Rises=F Damp=T
 DIIS: error= 1.17D-02 at cycle   2 NSaved=   2.
 NSaved= 2 IEnMin= 2 EnMin= -1028.65710897808     IErMin= 2 ErrMin= 1.17D-02
 ErrMax= 1.17D-02  0.00D+00 EMaxC= 1.00D-01 BMatC= 5.86D-02 BMatP= 3.90D-01
 IDIUse=3 WtCom= 8.83D-01 WtEn= 1.17D-01
 Coeff-Com: -0.288D+00 0.129D+01
 Coeff-En:   0.000D+00 0.100D+01
 Coeff:     -0.254D+00 0.125D+01
 Gap=     0.283 Goal=   None    Shift=    0.000
 RMSDP=1.15D-03 MaxDP=2.55D-02 DE=-1.18D-01 OVMax= 1.40D-01

 Cycle   3  Pass 1  IDiag  1:
 RMSU=  1.12D-03    CP:  9.94D-01  1.16D+00
 E= -1028.76265036711     Delta-E=       -0.105541389025 Rises=F Damp=F
 DIIS: error= 6.78D-03 at cycle   3 NSaved=   3.
 NSaved= 3 IEnMin= 3 EnMin= -1028.76265036711     IErMin= 3 ErrMin= 6.78D-03
 ErrMax= 6.78D-03  0.00D+00 EMaxC= 1.00D-01 BMatC= 1.61D-02 BMatP= 5.86D-02
 IDIUse=3 WtCom= 9.32D-01 WtEn= 6.78D-02
 Coeff-Com: -0.209D+00 0.511D+00 0.698D+00
 Coeff-En:   0.000D+00 0.000D+00 0.100D+01
 Coeff:     -0.195D+00 0.476D+00 0.719D+00
 Gap=     0.240 Goal=   None    Shift=    0.000
 RMSDP=5.66D-04 MaxDP=1.98D-02 DE=-1.06D-01 OVMax= 4.50D-02

 Cycle   4  Pass 1  IDiag  1:
 RMSU=  4.44D-04    CP:  9.92D-01  1.32D+00  8.23D-01
 E= -1028.77829725836     Delta-E=       -0.015646891255 Rises=F Damp=F
 DIIS: error= 2.01D-03 at cycle   4 NSaved=   4.
 NSaved= 4 IEnMin= 4 EnMin= -1028.77829725836     IErMin= 4 ErrMin= 2.01D-03
 ErrMax= 2.01D-03  0.00D+00 EMaxC= 1.00D-01 BMatC= 1.97D-03 BMatP= 1.61D-02
 IDIUse=3 WtCom= 9.80D-01 WtEn= 2.01D-02
 Coeff-Com: -0.730D-01 0.145D+00 0.341D+00 0.587D+00
 Coeff-En:   0.000D+00 0.000D+00 0.000D+00 0.100D+01
 Coeff:     -0.715D-01 0.142D+00 0.334D+00 0.595D+00
 Gap=     0.240 Goal=   None    Shift=    0.000
 RMSDP=1.80D-04 MaxDP=1.01D-02 DE=-1.56D-02 OVMax= 1.38D-02

 Cycle   5  Pass 1  IDiag  1:
 RMSU=  1.11D-04    CP:  9.92D-01  1.34D+00  9.03D-01  7.57D-01
 E= -1028.78042155362     Delta-E=       -0.002124295251 Rises=F Damp=F
 DIIS: error= 4.90D-04 at cycle   5 NSaved=   5.
 NSaved= 5 IEnMin= 5 EnMin= -1028.78042155362     IErMin= 5 ErrMin= 4.90D-04
 ErrMax= 4.90D-04  0.00D+00 EMaxC= 1.00D-01 BMatC= 6.02D-05 BMatP= 1.97D-03
 IDIUse=3 WtCom= 9.95D-01 WtEn= 4.90D-03
 Coeff-Com: -0.115D-02-0.410D-02 0.310D-01 0.157D+00 0.817D+00
 Coeff-En:   0.000D+00 0.000D+00 0.000D+00 0.000D+00 0.100D+01
 Coeff:     -0.115D-02-0.408D-02 0.308D-01 0.157D+00 0.818D+00
 Gap=     0.242 Goal=   None    Shift=    0.000
 RMSDP=5.87D-05 MaxDP=1.94D-03 DE=-2.12D-03 OVMax= 5.65D-03

 Cycle   6  Pass 1  IDiag  1:
 RMSU=  3.83D-05    CP:  9.91D-01  1.34D+00  9.18D-01  8.43D-01  1.11D+00
 E= -1028.78055705543     Delta-E=       -0.000135501819 Rises=F Damp=F
 DIIS: error= 2.86D-04 at cycle   6 NSaved=   6.
 NSaved= 6 IEnMin= 6 EnMin= -1028.78055705543     IErMin= 6 ErrMin= 2.86D-04
 ErrMax= 2.86D-04  0.00D+00 EMaxC= 1.00D-01 BMatC= 1.09D-05 BMatP= 6.02D-05
 IDIUse=3 WtCom= 9.97D-01 WtEn= 2.86D-03
 Coeff-Com:  0.173D-01-0.353D-01-0.647D-01-0.782D-01 0.200D+00 0.961D+00
 Coeff-En:   0.000D+00 0.000D+00 0.000D+00 0.000D+00 0.000D+00 0.100D+01
 Coeff:      0.172D-01-0.352D-01-0.645D-01-0.780D-01 0.199D+00 0.961D+00
 Gap=     0.242 Goal=   None    Shift=    0.000
 RMSDP=3.82D-05 MaxDP=1.81D-03 DE=-1.36D-04 OVMax= 5.09D-03

 Cycle   7  Pass 1  IDiag  1:
 RMSU=  1.94D-05    CP:  9.91D-01  1.34D+00  9.31D-01  8.78D-01  1.31D+00
                    CP:  1.31D+00
 E= -1028.78059597365     Delta-E=       -0.000038918213 Rises=F Damp=F
 DIIS: error= 9.94D-05 at cycle   7 NSaved=   7.
 NSaved= 7 IEnMin= 7 EnMin= -1028.78059597365     IErMin= 7 ErrMin= 9.94D-05
 ErrMax= 9.94D-05  0.00D+00 EMaxC= 1.00D-01 BMatC= 3.13D-06 BMatP= 1.09D-05
 IDIUse=1 WtCom= 1.00D+00 WtEn= 0.00D+00
 Coeff-Com:  0.769D-02-0.147D-01-0.305D-01-0.543D-01-0.226D-01 0.455D+00
 Coeff-Com:  0.660D+00
 Coeff:      0.769D-02-0.147D-01-0.305D-01-0.543D-01-0.226D-01 0.455D+00
 Coeff:      0.660D+00
 Gap=     0.243 Goal=   None    Shift=    0.000
 RMSDP=1.34D-05 MaxDP=5.23D-04 DE=-3.89D-05 OVMax= 1.35D-03

 Cycle   8  Pass 1  IDiag  1:
 RMSU=  8.31D-06    CP:  9.91D-01  1.34D+00  9.32D-01  8.85D-01  1.35D+00
                    CP:  1.53D+00  1.08D+00
 E= -1028.78060249155     Delta-E=       -0.000006517907 Rises=F Damp=F
 DIIS: error= 6.41D-05 at cycle   8 NSaved=   8.
 NSaved= 8 IEnMin= 8 EnMin= -1028.78060249155     IErMin= 8 ErrMin= 6.41D-05
 ErrMax= 6.41D-05  0.00D+00 EMaxC= 1.00D-01 BMatC= 3.68D-07 BMatP= 3.13D-06
 IDIUse=1 WtCom= 1.00D+00 WtEn= 0.00D+00
 Coeff-Com: -0.135D-02 0.301D-02 0.597D-02 0.107D-02-0.479D-01-0.725D-01
 Coeff-Com:  0.153D+00 0.959D+00
 Coeff:     -0.135D-02 0.301D-02 0.597D-02 0.107D-02-0.479D-01-0.725D-01
 Coeff:      0.153D+00 0.959D+00
 Gap=     0.243 Goal=   None    Shift=    0.000
 RMSDP=8.18D-06 MaxDP=2.22D-04 DE=-6.52D-06 OVMax= 1.40D-03

 Cycle   9  Pass 1  IDiag  1:
 RMSU=  3.24D-06    CP:  9.91D-01  1.34D+00  9.32D-01  8.85D-01  1.37D+00
                    CP:  1.65D+00  1.35D+00  1.22D+00
 E= -1028.78060439560     Delta-E=       -0.000001904041 Rises=F Damp=F
 DIIS: error= 2.09D-05 at cycle   9 NSaved=   9.
 NSaved= 9 IEnMin= 9 EnMin= -1028.78060439560     IErMin= 9 ErrMin= 2.09D-05
 ErrMax= 2.09D-05  0.00D+00 EMaxC= 1.00D-01 BMatC= 1.31D-07 BMatP= 3.68D-07
 IDIUse=1 WtCom= 1.00D+00 WtEn= 0.00D+00
 Coeff-Com: -0.145D-02 0.286D-02 0.648D-02 0.805D-02-0.142D-01-0.929D-01
 Coeff-Com: -0.932D-01 0.361D+00 0.823D+00
 Coeff:     -0.145D-02 0.286D-02 0.648D-02 0.805D-02-0.142D-01-0.929D-01
 Coeff:     -0.932D-01 0.361D+00 0.823D+00
 Gap=     0.243 Goal=   None    Shift=    0.000
 RMSDP=4.17D-06 MaxDP=1.17D-04 DE=-1.90D-06 OVMax= 6.44D-04

 Cycle  10  Pass 1  IDiag  1:
 RMSU=  1.56D-06    CP:  9.91D-01  1.34D+00  9.32D-01  8.85D-01  1.38D+00
                    CP:  1.71D+00  1.44D+00  1.49D+00  1.23D+00
 E= -1028.78060483643     Delta-E=       -0.000000440836 Rises=F Damp=F
 DIIS: error= 1.32D-05 at cycle  10 NSaved=  10.
 NSaved=10 IEnMin=10 EnMin= -1028.78060483643     IErMin=10 ErrMin= 1.32D-05
 ErrMax= 1.32D-05  0.00D+00 EMaxC= 1.00D-01 BMatC= 2.43D-08 BMatP= 1.31D-07
 IDIUse=1 WtCom= 1.00D+00 WtEn= 0.00D+00
 Coeff-Com:  0.365D-04-0.149D-03 0.257D-03 0.168D-02 0.767D-02-0.612D-02
 Coeff-Com: -0.902D-01-0.897D-01 0.296D+00 0.881D+00
 Coeff:      0.365D-04-0.149D-03 0.257D-03 0.168D-02 0.767D-02-0.612D-02
 Coeff:     -0.902D-01-0.897D-01 0.296D+00 0.881D+00
 Gap=     0.243 Goal=   None    Shift=    0.000
 RMSDP=2.05D-06 MaxDP=5.21D-05 DE=-4.41D-07 OVMax= 3.51D-04

 Cycle  11  Pass 1  IDiag  1:
 RMSU=  5.95D-07    CP:  9.91D-01  1.34D+00  9.32D-01  8.86D-01  1.38D+00
                    CP:  1.74D+00  1.48D+00  1.61D+00  1.55D+00  1.21D+00
 E= -1028.78060493696     Delta-E=       -0.000000100530 Rises=F Damp=F
 DIIS: error= 3.82D-06 at cycle  11 NSaved=  11.
 NSaved=11 IEnMin=11 EnMin= -1028.78060493696     IErMin=11 ErrMin= 3.82D-06
 ErrMax= 3.82D-06  0.00D+00 EMaxC= 1.00D-01 BMatC= 4.13D-09 BMatP= 2.43D-08
 IDIUse=1 WtCom= 1.00D+00 WtEn= 0.00D+00
 Coeff-Com:  0.294D-03-0.608D-03-0.105D-02-0.968D-03 0.525D-02 0.152D-01
 Coeff-Com: -0.206D-01-0.790D-01-0.492D-01 0.261D+00 0.869D+00
 Coeff:      0.294D-03-0.608D-03-0.105D-02-0.968D-03 0.525D-02 0.152D-01
 Coeff:     -0.206D-01-0.790D-01-0.492D-01 0.261D+00 0.869D+00
 Gap=     0.243 Goal=   None    Shift=    0.000
 RMSDP=7.81D-07 MaxDP=1.75D-05 DE=-1.01D-07 OVMax= 1.30D-04

 Cycle  12  Pass 1  IDiag  1:
 RMSU=  2.44D-07    CP:  9.91D-01  1.34D+00  9.32D-01  8.86D-01  1.38D+00
                    CP:  1.75D+00  1.49D+00  1.65D+00  1.67D+00  1.45D+00
                    CP:  1.19D+00
 E= -1028.78060495117     Delta-E=       -0.000000014204 Rises=F Damp=F
 DIIS: error= 1.49D-06 at cycle  12 NSaved=  12.
 NSaved=12 IEnMin=12 EnMin= -1028.78060495117     IErMin=12 ErrMin= 1.49D-06
 ErrMax= 1.49D-06  0.00D+00 EMaxC= 1.00D-01 BMatC= 7.22D-10 BMatP= 4.13D-09
 IDIUse=1 WtCom= 1.00D+00 WtEn= 0.00D+00
 Coeff-Com:  0.126D-03-0.245D-03-0.509D-03-0.860D-03 0.776D-03 0.843D-02
 Coeff-Com:  0.727D-02-0.118D-01-0.804D-01-0.746D-01 0.317D+00 0.835D+00
 Coeff:      0.126D-03-0.245D-03-0.509D-03-0.860D-03 0.776D-03 0.843D-02
 Coeff:      0.727D-02-0.118D-01-0.804D-01-0.746D-01 0.317D+00 0.835D+00
 Gap=     0.243 Goal=   None    Shift=    0.000
 RMSDP=3.20D-07 MaxDP=8.85D-06 DE=-1.42D-08 OVMax= 5.07D-05

 Cycle  13  Pass 1  IDiag  1:
 RMSU=  9.13D-08    CP:  9.91D-01  1.34D+00  9.32D-01  8.86D-01  1.38D+00
                    CP:  1.75D+00  1.49D+00  1.67D+00  1.72D+00  1.55D+00
                    CP:  1.42D+00  1.10D+00
 E= -1028.78060495348     Delta-E=       -0.000000002312 Rises=F Damp=F
 DIIS: error= 4.29D-07 at cycle  13 NSaved=  13.
 NSaved=13 IEnMin=13 EnMin= -1028.78060495348     IErMin=13 ErrMin= 4.29D-07
 ErrMax= 4.29D-07  0.00D+00 EMaxC= 1.00D-01 BMatC= 5.99D-11 BMatP= 7.22D-10
 IDIUse=1 WtCom= 1.00D+00 WtEn= 0.00D+00
 Coeff-Com: -0.111D-04 0.253D-04 0.311D-04-0.668D-04-0.373D-03 0.211D-03
 Coeff-Com:  0.298D-02 0.739D-02-0.108D-01-0.472D-01-0.497D-01 0.177D+00
 Coeff-Com:  0.921D+00
 Coeff:     -0.111D-04 0.253D-04 0.311D-04-0.668D-04-0.373D-03 0.211D-03
 Coeff:      0.298D-02 0.739D-02-0.108D-01-0.472D-01-0.497D-01 0.177D+00
 Coeff:      0.921D+00
 Gap=     0.243 Goal=   None    Shift=    0.000
 RMSDP=9.53D-08 MaxDP=2.27D-06 DE=-2.31D-09 OVMax= 1.28D-05

 Cycle  14  Pass 1  IDiag  1:
 RMSU=  3.45D-08    CP:  9.91D-01  1.34D+00  9.32D-01  8.86D-01  1.38D+00
                    CP:  1.75D+00  1.49D+00  1.67D+00  1.73D+00  1.57D+00
                    CP:  1.48D+00  1.26D+00  1.18D+00
 E= -1028.78060495367     Delta-E=       -0.000000000191 Rises=F Damp=F
 DIIS: error= 2.14D-07 at cycle  14 NSaved=  14.
 NSaved=14 IEnMin=14 EnMin= -1028.78060495367     IErMin=14 ErrMin= 2.14D-07
 ErrMax= 2.14D-07  0.00D+00 EMaxC= 1.00D-01 BMatC= 8.62D-12 BMatP= 5.99D-11
 IDIUse=1 WtCom= 1.00D+00 WtEn= 0.00D+00
 Coeff-Com: -0.144D-04 0.291D-04 0.552D-04 0.546D-04-0.184D-03-0.626D-03
 Coeff-Com:  0.145D-03 0.377D-02 0.425D-02-0.719D-02-0.434D-01-0.251D-01
 Coeff-Com:  0.313D+00 0.755D+00
 Coeff:     -0.144D-04 0.291D-04 0.552D-04 0.546D-04-0.184D-03-0.626D-03
 Coeff:      0.145D-03 0.377D-02 0.425D-02-0.719D-02-0.434D-01-0.251D-01
 Coeff:      0.313D+00 0.755D+00
 Gap=     0.243 Goal=   None    Shift=    0.000
 RMSDP=2.08D-08 MaxDP=4.27D-07 DE=-1.91D-10 OVMax= 2.40D-06

 Cycle  15  Pass 1  IDiag  1:
 RMSU=  1.38D-08    CP:  9.91D-01  1.34D+00  9.32D-01  8.86D-01  1.38D+00
                    CP:  1.75D+00  1.49D+00  1.67D+00  1.73D+00  1.58D+00
                    CP:  1.49D+00  1.29D+00  1.30D+00  1.07D+00
 E= -1028.78060495369     Delta-E=       -0.000000000023 Rises=F Damp=F
 DIIS: error= 8.40D-08 at cycle  15 NSaved=  15.
 NSaved=15 IEnMin=15 EnMin= -1028.78060495369     IErMin=15 ErrMin= 8.40D-08
 ErrMax= 8.40D-08  0.00D+00 EMaxC= 1.00D-01 BMatC= 1.51D-12 BMatP= 8.62D-12
 IDIUse=1 WtCom= 1.00D+00 WtEn= 0.00D+00
 Coeff-Com: -0.354D-05 0.651D-05 0.163D-04 0.383D-04-0.530D-05-0.338D-03
 Coeff-Com: -0.689D-03-0.138D-03 0.400D-02 0.775D-02-0.452D-02-0.533D-01
 Coeff-Com: -0.712D-01 0.264D+00 0.855D+00
 Coeff:     -0.354D-05 0.651D-05 0.163D-04 0.383D-04-0.530D-05-0.338D-03
 Coeff:     -0.689D-03-0.138D-03 0.400D-02 0.775D-02-0.452D-02-0.533D-01
 Coeff:     -0.712D-01 0.264D+00 0.855D+00
 Gap=     0.243 Goal=   None    Shift=    0.000
 RMSDP=1.17D-08 MaxDP=2.85D-07 DE=-2.30D-11 OVMax= 1.52D-06

 Cycle  16  Pass 1  IDiag  1:
 RMSU=  5.42D-09    CP:  9.91D-01  1.34D+00  9.32D-01  8.86D-01  1.38D+00
                    CP:  1.75D+00  1.49D+00  1.67D+00  1.73D+00  1.58D+00
                    CP:  1.49D+00  1.30D+00  1.36D+00  1.26D+00  1.08D+00
 E= -1028.78060495369     Delta-E=       -0.000000000000 Rises=F Damp=F
 DIIS: error= 3.06D-08 at cycle  16 NSaved=  16.
 NSaved=16 IEnMin=16 EnMin= -1028.78060495369     IErMin=16 ErrMin= 3.06D-08
 ErrMax= 3.06D-08  0.00D+00 EMaxC= 1.00D-01 BMatC= 1.91D-13 BMatP= 1.51D-12
 IDIUse=1 WtCom= 1.00D+00 WtEn= 0.00D+00
 Coeff-Com:  0.216D-06-0.596D-06-0.191D-06 0.632D-05 0.121D-04-0.452D-04
 Coeff-Com: -0.191D-03-0.377D-03 0.627D-03 0.254D-02 0.295D-02-0.145D-01
 Coeff-Com: -0.482D-01-0.272D-01 0.246D+00 0.838D+00
 Coeff:      0.216D-06-0.596D-06-0.191D-06 0.632D-05 0.121D-04-0.452D-04
 Coeff:     -0.191D-03-0.377D-03 0.627D-03 0.254D-02 0.295D-02-0.145D-01
 Coeff:     -0.482D-01-0.272D-01 0.246D+00 0.838D+00
 Gap=     0.243 Goal=   None    Shift=    0.000
 RMSDP=4.35D-09 MaxDP=1.28D-07 DE=-2.27D-13 OVMax= 5.21D-07

 Error on total polarization charges =  0.00842
 SCF Done:  E(RwB97XD) =  -1028.78060495     A.U. after   16 cycles
            NFock= 16  Conv=0.43D-08     -V/T= 2.0048
 KE= 1.023864994091D+03 PE=-4.615843840901D+03 EE= 1.461227879786D+03
 Leave Link  502 at Wed Oct 28 00:40:07 2020, MaxMem=  7784628224 cpu:             885.2 elap:              89.2
 (Enter /gpfs/loomis/apps/avx/software/Gaussian/16-C.01_AVX/g16/l601.exe)
 Copying SCF densities to generalized density rwf, IOpCl= 0 IROHF=0.

 **********************************************************************

            Population analysis using the SCF Density.

 **********************************************************************

 Alpha  occ. eigenvalues --  -89.10130 -19.21017 -14.51519 -10.41257 -10.38282
 Alpha  occ. eigenvalues --  -10.36286 -10.35895 -10.33448 -10.33324 -10.32725
 Alpha  occ. eigenvalues --  -10.32567 -10.31750 -10.31205 -10.30561 -10.29584
 Alpha  occ. eigenvalues --  -10.28914  -8.12257  -6.07109  -6.06754  -6.06279
 Alpha  occ. eigenvalues --   -1.13546  -1.09235  -0.98509  -0.95975  -0.93307
 Alpha  occ. eigenvalues --   -0.89175  -0.86914  -0.83484  -0.81463  -0.76460
 Alpha  occ. eigenvalues --   -0.73686  -0.72077  -0.68501  -0.68016  -0.65632
 Alpha  occ. eigenvalues --   -0.60909  -0.59587  -0.56871  -0.55830  -0.55734
 Alpha  occ. eigenvalues --   -0.54902  -0.53940  -0.52976  -0.50265  -0.49157
 Alpha  occ. eigenvalues --   -0.48840  -0.48675  -0.46917  -0.45326  -0.44943
 Alpha  occ. eigenvalues --   -0.44088  -0.43250  -0.42407  -0.40184  -0.36724
 Alpha  occ. eigenvalues --   -0.33544  -0.31987  -0.31392  -0.26223
 Alpha virt. eigenvalues --   -0.01944   0.03625   0.05314   0.06673   0.09068
 Alpha virt. eigenvalues --    0.10576   0.14291   0.14902   0.16794   0.17451
 Alpha virt. eigenvalues --    0.18617   0.20108   0.20930   0.21209   0.22918
 Alpha virt. eigenvalues --    0.23405   0.24332   0.25480   0.27822   0.28883
 Alpha virt. eigenvalues --    0.31289   0.33758   0.35249   0.35451   0.36411
 Alpha virt. eigenvalues --    0.37611   0.38890   0.40405   0.41531   0.43694
 Alpha virt. eigenvalues --    0.47030   0.47704   0.50787   0.51238   0.51565
 Alpha virt. eigenvalues --    0.52496   0.52753   0.53185   0.54304   0.54846
 Alpha virt. eigenvalues --    0.56271   0.56408   0.56538   0.56756   0.57687
 Alpha virt. eigenvalues --    0.57981   0.58560   0.59248   0.59631   0.59703
 Alpha virt. eigenvalues --    0.61265   0.61347   0.61914   0.62737   0.63186
 Alpha virt. eigenvalues --    0.64921   0.66287   0.66968   0.68648   0.68708
 Alpha virt. eigenvalues --    0.70632   0.70711   0.71881   0.72778   0.72946
 Alpha virt. eigenvalues --    0.74243   0.75042   0.75760   0.76464   0.77911
 Alpha virt. eigenvalues --    0.78454   0.79737   0.80710   0.81093   0.83055
 Alpha virt. eigenvalues --    0.84361   0.87799   0.90307   0.91465   0.92793
 Alpha virt. eigenvalues --    0.94124   0.94278   0.95987   0.96697   0.97126
 Alpha virt. eigenvalues --    0.98278   0.98927   1.00451   1.00940   1.01311
 Alpha virt. eigenvalues --    1.02579   1.05123   1.05295   1.06299   1.07276
 Alpha virt. eigenvalues --    1.07985   1.09786   1.09861   1.10291   1.10785
 Alpha virt. eigenvalues --    1.12282   1.13002   1.14364   1.14668   1.15009
 Alpha virt. eigenvalues --    1.16669   1.19731   1.20054   1.22341   1.23866
 Alpha virt. eigenvalues --    1.25631   1.28226   1.31819   1.32794   1.34011
 Alpha virt. eigenvalues --    1.36012   1.36834   1.38796   1.40723   1.46286
 Alpha virt. eigenvalues --    1.48675   1.49697   1.52891   1.54306   1.54656
 Alpha virt. eigenvalues --    1.56392   1.57102   1.57177   1.58018   1.58763
 Alpha virt. eigenvalues --    1.60458   1.61270   1.63294   1.65006   1.67241
 Alpha virt. eigenvalues --    1.67659   1.69904   1.70083   1.70968   1.71717
 Alpha virt. eigenvalues --    1.71819   1.72573   1.73291   1.73767   1.75151
 Alpha virt. eigenvalues --    1.77713   1.79383   1.79969   1.80851   1.81387
 Alpha virt. eigenvalues --    1.82653   1.84032   1.84155   1.85134   1.85388
 Alpha virt. eigenvalues --    1.87440   1.88839   1.89661   1.91326   1.91494
 Alpha virt. eigenvalues --    1.93090   1.94058   1.94614   1.96495   1.97358
 Alpha virt. eigenvalues --    1.99074   1.99676   1.99681   2.03005   2.03884
 Alpha virt. eigenvalues --    2.06402   2.07793   2.09517   2.10029   2.15351
 Alpha virt. eigenvalues --    2.16890   2.17379   2.21334   2.22760   2.23232
 Alpha virt. eigenvalues --    2.26241   2.27844   2.32326   2.36564   2.38713
 Alpha virt. eigenvalues --    2.41768   2.42287   2.45650   2.47736   2.48488
 Alpha virt. eigenvalues --    2.51010   2.53521   2.55850   2.59592   2.61601
 Alpha virt. eigenvalues --    2.63275   2.70452   2.74053   2.74482   2.78161
 Alpha virt. eigenvalues --    2.80393   2.81574   2.84526   2.85688   2.89012
 Alpha virt. eigenvalues --    2.91501   3.00665   3.16142   3.26990   3.47878
 Alpha virt. eigenvalues --    3.48418   3.55775   3.60662   3.73967
          Condensed to atoms (all electrons):
               1          2          3          4          5          6
     1  C    4.740404   0.492123   0.006516  -0.052289  -0.013971   0.508138
     2  C    0.492123   5.314162   0.302333  -0.047529  -0.070710  -0.006279
     3  C    0.006516   0.302333   4.919637   0.506700  -0.002205  -0.064337
     4  C   -0.052289  -0.047529   0.506700   4.791409   0.515705  -0.010773
     5  C   -0.013971  -0.070710  -0.002205   0.515705   4.734863   0.497430
     6  C    0.508138  -0.006279  -0.064337  -0.010773   0.497430   4.736658
     7  H    0.403512  -0.038144   0.008854  -0.000667   0.007894  -0.039036
     8  H   -0.000533   0.010249  -0.031068   0.396286  -0.039842   0.007278
     9  H    0.008874  -0.000638   0.008268  -0.037873   0.405143  -0.044097
    10  H   -0.042525   0.009206  -0.000472   0.008139  -0.041559   0.407417
    11  N    0.003735  -0.033624   0.355890  -0.049906   0.002155   0.000246
    12  S   -0.072250   0.328141  -0.122714   0.005082   0.000213   0.004411
    13  C   -0.000242   0.000045   0.013110  -0.000322   0.000010   0.000003
    14  C   -0.000012   0.000128   0.000541   0.000008  -0.000000  -0.000000
    15  C    0.000005  -0.000225  -0.000062   0.000026  -0.000000   0.000000
    16  C    0.000000  -0.000008   0.000004  -0.000000   0.000000  -0.000000
    17  H   -0.000015   0.000257   0.000003   0.000001  -0.000000   0.000000
    18  C    0.000000   0.000009  -0.000021  -0.000000   0.000000  -0.000000
    19  C   -0.000000   0.000000   0.000002   0.000000  -0.000000   0.000000
    20  H   -0.000000  -0.000000  -0.000000  -0.000000  -0.000000  -0.000000
    21  H   -0.000000   0.000000  -0.000001  -0.000000  -0.000000   0.000000
    22  H    0.000000  -0.000000  -0.000000  -0.000000   0.000000  -0.000000
    23  C    0.003454  -0.046299  -0.113296   0.001392   0.000281  -0.000288
    24  O    0.000002  -0.000157  -0.000142   0.000016   0.000001  -0.000000
    25  H    0.000201   0.010724  -0.045653  -0.005182  -0.000103  -0.000012
               7          8          9         10         11         12
     1  C    0.403512  -0.000533   0.008874  -0.042525   0.003735  -0.072250
     2  C   -0.038144   0.010249  -0.000638   0.009206  -0.033624   0.328141
     3  C    0.008854  -0.031068   0.008268  -0.000472   0.355890  -0.122714
     4  C   -0.000667   0.396286  -0.037873   0.008139  -0.049906   0.005082
     5  C    0.007894  -0.039842   0.405143  -0.041559   0.002155   0.000213
     6  C   -0.039036   0.007278  -0.044097   0.407417   0.000246   0.004411
     7  H    0.645980   0.000026  -0.000148  -0.010627  -0.000081  -0.007946
     8  H    0.000026   0.636548  -0.012011  -0.000098  -0.003673  -0.000237
     9  H   -0.000148  -0.012011   0.654070  -0.011819  -0.000093   0.000018
    10  H   -0.010627  -0.000098  -0.011819   0.652735   0.000004  -0.000159
    11  N   -0.000081  -0.003673  -0.000093   0.000004   5.991681  -0.049348
    12  S   -0.007946  -0.000237   0.000018  -0.000159  -0.049348  15.458532
    13  C   -0.000003   0.000026  -0.000000  -0.000000  -0.027597  -0.069503
    14  C    0.000002   0.000000   0.000000  -0.000000   0.003792  -0.013605
    15  C   -0.000000  -0.000004   0.000000   0.000000  -0.007690   0.005667
    16  C    0.000000   0.000000  -0.000000  -0.000000  -0.000070   0.000487
    17  H    0.000001   0.000000   0.000000  -0.000000   0.000241   0.008689
    18  C    0.000000  -0.000000   0.000000  -0.000000  -0.000457  -0.000209
    19  C   -0.000000   0.000000  -0.000000   0.000000   0.000023   0.000024
    20  H    0.000000  -0.000000   0.000000   0.000000   0.000001   0.000015
    21  H   -0.000000   0.000000  -0.000000   0.000000   0.000008   0.000004
    22  H    0.000000  -0.000000   0.000000  -0.000000  -0.000000  -0.000001
    23  C    0.000250  -0.000595   0.000006   0.000005   0.524610   0.312834
    24  O    0.000000  -0.000109   0.000000  -0.000000  -0.046054  -0.000037
    25  H    0.000006   0.000653  -0.000007  -0.000000   0.361911   0.005765
              13         14         15         16         17         18
     1  C   -0.000242  -0.000012   0.000005   0.000000  -0.000015   0.000000
     2  C    0.000045   0.000128  -0.000225  -0.000008   0.000257   0.000009
     3  C    0.013110   0.000541  -0.000062   0.000004   0.000003  -0.000021
     4  C   -0.000322   0.000008   0.000026  -0.000000   0.000001  -0.000000
     5  C    0.000010  -0.000000  -0.000000   0.000000  -0.000000   0.000000
     6  C    0.000003  -0.000000   0.000000  -0.000000   0.000000  -0.000000
     7  H   -0.000003   0.000002  -0.000000   0.000000   0.000001   0.000000
     8  H    0.000026   0.000000  -0.000004   0.000000   0.000000  -0.000000
     9  H   -0.000000   0.000000   0.000000  -0.000000   0.000000   0.000000
    10  H   -0.000000  -0.000000   0.000000  -0.000000  -0.000000  -0.000000
    11  N   -0.027597   0.003792  -0.007690  -0.000070   0.000241  -0.000457
    12  S   -0.069503  -0.013605   0.005667   0.000487   0.008689  -0.000209
    13  C    5.466883   0.421688   0.174497  -0.006992  -0.038333  -0.040960
    14  C    0.421688   4.884161   0.007044   0.538537   0.397037  -0.060828
    15  C    0.174497   0.007044   4.735379  -0.052710   0.005530   0.452683
    16  C   -0.006992   0.538537  -0.052710   4.759394  -0.030048  -0.019375
    17  H   -0.038333   0.397037   0.005530  -0.030048   0.664374  -0.000802
    18  C   -0.040960  -0.060828   0.452683  -0.019375  -0.000802   4.919105
    19  C   -0.053774  -0.019728  -0.003341   0.478189   0.007777   0.499981
    20  H    0.008963  -0.036301  -0.000157   0.400151  -0.011447   0.008028
    21  H    0.015517  -0.000670  -0.025954   0.007519   0.000051   0.373002
    22  H   -0.001785   0.009892   0.008419  -0.045661  -0.000195  -0.039825
    23  C    0.365739  -0.092112  -0.070974   0.005898  -0.022678   0.010608
    24  O   -0.103473   0.006659   0.653787  -0.000182  -0.000073  -0.064255
    25  H   -0.045874  -0.001006  -0.008850   0.000069  -0.000100   0.003543
              19         20         21         22         23         24
     1  C   -0.000000  -0.000000  -0.000000   0.000000   0.003454   0.000002
     2  C    0.000000  -0.000000   0.000000  -0.000000  -0.046299  -0.000157
     3  C    0.000002  -0.000000  -0.000001  -0.000000  -0.113296  -0.000142
     4  C    0.000000  -0.000000  -0.000000  -0.000000   0.001392   0.000016
     5  C   -0.000000  -0.000000  -0.000000   0.000000   0.000281   0.000001
     6  C    0.000000  -0.000000   0.000000  -0.000000  -0.000288  -0.000000
     7  H   -0.000000   0.000000  -0.000000   0.000000   0.000250   0.000000
     8  H    0.000000  -0.000000   0.000000  -0.000000  -0.000595  -0.000109
     9  H   -0.000000   0.000000  -0.000000   0.000000   0.000006   0.000000
    10  H    0.000000   0.000000   0.000000  -0.000000   0.000005  -0.000000
    11  N    0.000023   0.000001   0.000008  -0.000000   0.524610  -0.046054
    12  S    0.000024   0.000015   0.000004  -0.000001   0.312834  -0.000037
    13  C   -0.053774   0.008963   0.015517  -0.001785   0.365739  -0.103473
    14  C   -0.019728  -0.036301  -0.000670   0.009892  -0.092112   0.006659
    15  C   -0.003341  -0.000157  -0.025954   0.008419  -0.070974   0.653787
    16  C    0.478189   0.400151   0.007519  -0.045661   0.005898  -0.000182
    17  H    0.007777  -0.011447   0.000051  -0.000195  -0.022678  -0.000073
    18  C    0.499981   0.008028   0.373002  -0.039825   0.010608  -0.064255
    19  C    4.747246  -0.046125  -0.046082   0.402923   0.000483   0.004002
    20  H   -0.046125   0.684681  -0.000143  -0.012259  -0.000396   0.000001
    21  H   -0.046082  -0.000143   0.678280  -0.012548  -0.000491   0.004691
    22  H    0.402923  -0.012259  -0.012548   0.672752   0.000002  -0.000065
    23  C    0.000483  -0.000396  -0.000491   0.000002   5.087034  -0.012395
    24  O    0.004002   0.000001   0.004691  -0.000065  -0.012395   7.867552
    25  H   -0.000348  -0.000001  -0.000001   0.000005   0.031423   0.099310
              25
     1  C    0.000201
     2  C    0.010724
     3  C   -0.045653
     4  C   -0.005182
     5  C   -0.000103
     6  C   -0.000012
     7  H    0.000006
     8  H    0.000653
     9  H   -0.000007
    10  H   -0.000000
    11  N    0.361911
    12  S    0.005765
    13  C   -0.045874
    14  C   -0.001006
    15  C   -0.008850
    16  C    0.000069
    17  H   -0.000100
    18  C    0.003543
    19  C   -0.000348
    20  H   -0.000001
    21  H   -0.000001
    22  H    0.000005
    23  C    0.031423
    24  O    0.099310
    25  H    0.551897
 Mulliken charges:
               1
     1  C    0.014874
     2  C   -0.223763
     3  C    0.258114
     4  C   -0.020221
     5  C    0.004696
     6  C    0.003239
     7  H    0.030126
     8  H    0.037103
     9  H    0.030307
    10  H    0.029753
    11  N   -0.025702
    12  S    0.206127
    13  C   -0.077621
    14  C   -0.045226
    15  C    0.126931
    16  C   -0.035201
    17  H    0.019733
    18  C   -0.040227
    19  C    0.028751
    20  H    0.004989
    21  H    0.006819
    22  H    0.018345
    23  C    0.015506
    24  O   -0.409077
    25  H    0.041629
 Sum of Mulliken charges =  -0.00000
 Mulliken charges with hydrogens summed into heavy atoms:
               1
     1  C    0.045000
     2  C   -0.223763
     3  C    0.258114
     4  C    0.016882
     5  C    0.035003
     6  C    0.032992
    11  N    0.015926
    12  S    0.206127
    13  C   -0.077621
    14  C   -0.025493
    15  C    0.126931
    16  C   -0.030213
    18  C   -0.033409
    19  C    0.047096
    23  C    0.015506
    24  O   -0.409077
 Electronic spatial extent (au):  <R**2>=           4321.9726
 Charge=             -0.0000 electrons
 Dipole moment (field-independent basis, Debye):
    X=              1.4139    Y=             -5.6843    Z=             -0.0001  Tot=              5.8575
 Quadrupole moment (field-independent basis, Debye-Ang):
   XX=            -82.1874   YY=            -95.0554   ZZ=           -104.1441
   XY=             -6.8491   XZ=             -0.0001   YZ=             -0.0002
 Traceless Quadrupole moment (field-independent basis, Debye-Ang):
   XX=             11.6082   YY=             -1.2597   ZZ=            -10.3485
   XY=             -6.8491   XZ=             -0.0001   YZ=             -0.0002
 Octapole moment (field-independent basis, Debye-Ang**2):
  XXX=             32.6312  YYY=            -61.2246  ZZZ=             -0.0000  XYY=              1.3568
  XXY=             -8.0462  XXZ=             -0.0000  XZZ=              2.4013  YZZ=              2.8261
  YYZ=             -0.0004  XYZ=             -0.0004
 Hexadecapole moment (field-independent basis, Debye-Ang**3):
 XXXX=          -2594.1290 YYYY=          -2649.3121 ZZZZ=           -113.0818 XXXY=            810.6735
 XXXZ=              0.0100 YYYX=            773.7664 YYYZ=             -0.0161 ZZZX=              0.0142
 ZZZY=             -0.0170 XXYY=           -841.0095 XXZZ=           -573.3003 YYZZ=           -543.9066
 XXYZ=             -0.0044 YYXZ=              0.0026 ZZXY=            360.1178
 N-N= 1.101970362071D+03 E-N=-4.615843842185D+03  KE= 1.023864994091D+03
 No NMR shielding tensors so no spin-rotation constants.
 Leave Link  601 at Wed Oct 28 00:40:07 2020, MaxMem=  7784628224 cpu:               1.5 elap:               0.2
 (Enter /gpfs/loomis/apps/avx/software/Gaussian/16-C.01_AVX/g16/l701.exe)
 ... and contract with generalized density number  0.
 Compute integral first derivatives.
 R6Disp: Adding Grimme-D2 dispersion energy 1st derivatives to the gradient.
 D1PCM: PCM CHGder 1st derivatives, ID1Alg=3 FixD1E=F DoIter=F DoCFld=F I1PDM=0.
 GePol: Maximum number of non-zero 1st derivatives   =     252
 Leave Link  701 at Wed Oct 28 00:40:09 2020, MaxMem=  7784628224 cpu:              14.4 elap:               1.5
 (Enter /gpfs/loomis/apps/avx/software/Gaussian/16-C.01_AVX/g16/l702.exe)
 L702 exits ... SP integral derivatives will be done elsewhere.
 Leave Link  702 at Wed Oct 28 00:40:09 2020, MaxMem=  7784628224 cpu:               0.3 elap:               0.1
 (Enter /gpfs/loomis/apps/avx/software/Gaussian/16-C.01_AVX/g16/l703.exe)
 Integral derivatives from FoFJK, PRISM(SPDF).
 Compute integral first derivatives, UseDBF=F ICtDFT=           0.
 Calling FoFJK, ICntrl=      2127 FMM=F ISym2X=0 I1Cent= 0 IOpClX= 0 NMat=1 NMatS=1 NMatT=0.
 FoFJK:  IHMeth= 1 ICntrl=    2127 DoSepK=T KAlg= 0 I1Cent=           0 FoldK=F
 IRaf=         1 NMat=       1 IRICut=       1 DoRegI=T DoRafI=F ISym2E= 0 IDoP0=0 IntGTp=1.
 FoFCou: FMM=F IPFlag=           0 FMFlag=      100000 FMFlg1=         800
         NFxFlg=           0 DoJE=F BraDBF=F KetDBF=F FulRan=T
         wScrn=  0.000000 ICntrl=      2527 IOpCl=  0 I1Cent=           0 NGrid=           0
         NMat0=    1 NMatS0=      1 NMatT0=    0 NMatD0=    1 NMtDS0=    0 NMtDT0=    0
 Symmetry not used in FoFCou.
 Leave Link  703 at Wed Oct 28 00:40:23 2020, MaxMem=  7784628224 cpu:             137.8 elap:              13.8
 (Enter /gpfs/loomis/apps/avx/software/Gaussian/16-C.01_AVX/g16/l716.exe)
 Dipole        = 5.56280221D-01-2.23637618D+00-3.61750851D-05
 -------------------------------------------------------------------
 Center     Atomic                   Forces (Hartrees/Bohr)
 Number     Number              X              Y              Z
 -------------------------------------------------------------------
      1        6           0.003995204    0.003480172   -0.000000106
      2        6           0.010949208    0.000180622   -0.000000276
      3        6           0.011016862   -0.018500096   -0.000000011
      4        6          -0.003345631    0.002632896    0.000000133
      5        6          -0.000954740    0.004193269    0.000000073
      6        6          -0.001631135    0.005446834   -0.000000142
      7        1           0.003325978    0.004015107   -0.000000064
      8        1          -0.003437494   -0.003950251    0.000000069
      9        1          -0.002899000    0.000870077   -0.000000002
     10        1          -0.001107271    0.003060154   -0.000000018
     11        7          -0.054886658   -0.168981587   -0.000005229
     12       16           0.006381623   -0.001212357   -0.000000465
     13        6           0.014930922    0.014689693   -0.000000614
     14        6          -0.038276959    0.025130839   -0.000000740
     15        6           0.009527849   -0.015348124    0.000000517
     16        6           0.010112117   -0.035632889   -0.000000162
     17        1          -0.001040012    0.003207295    0.000000031
     18        6          -0.022283052   -0.001368760    0.000000604
     19        6           0.033107883    0.010934942    0.000000286
     20        1           0.003084393    0.000736508    0.000000057
     21        1          -0.001357278   -0.003665803   -0.000000421
     22        1           0.001705823   -0.000640426    0.000000051
     23        6          -0.005486961    0.009726263    0.000001284
     24        8          -0.008916912    0.016491510   -0.000000766
     25        1           0.037485243    0.144504111    0.000005911
 -------------------------------------------------------------------
 Cartesian Forces:  Max     0.168981587 RMS     0.028545882
 Leave Link  716 at Wed Oct 28 00:40:23 2020, MaxMem=  7784628224 cpu:               0.4 elap:               0.1
 (Enter /gpfs/loomis/apps/avx/software/Gaussian/16-C.01_AVX/g16/l103.exe)

 GradGradGradGradGradGradGradGradGradGradGradGradGradGradGradGradGradGrad
 Berny optimization.
 FormGI is forming the generalized inverse of G from B-inverse, IUseBI=4.
 Internal  Forces:  Max     0.099051442 RMS     0.013095932
 Search for a local minimum.
 Step number   1 out of a maximum of  146
 All quantities printed in internal units (Hartrees-Bohrs-Radians)
 RMS Force = .13193D-01 SwitMx=.10000D-02 MixMth= 1
 Mixed Optimization -- RFO/linear search
 Second derivative matrix not updated -- first step.
 ITU=  0
     Eigenvalues ---    0.01385   0.01526   0.01602   0.01744   0.01792
     Eigenvalues ---    0.01821   0.01847   0.01873   0.01881   0.01888
     Eigenvalues ---    0.01922   0.01951   0.01970   0.01995   0.02007
     Eigenvalues ---    0.02022   0.02028   0.02032   0.02055   0.02084
     Eigenvalues ---    0.02097   0.02130   0.16000   0.16000   0.16000
     Eigenvalues ---    0.16000   0.16000   0.16000   0.16000   0.16003
     Eigenvalues ---    0.16939   0.22007   0.22010   0.22532   0.22586
     Eigenvalues ---    0.24399   0.24480   0.24593   0.25000   0.25000
     Eigenvalues ---    0.30013   0.30485   0.33667   0.33902   0.33925
     Eigenvalues ---    0.34053   0.34064   0.34210   0.34210   0.34269
     Eigenvalues ---    0.34312   0.35551   0.38419   0.40860   0.41188
     Eigenvalues ---    0.42260   0.42782   0.43115   0.44225   0.44656
     Eigenvalues ---    0.44821   0.45496   0.45886   0.45951   0.49558
     Eigenvalues ---    0.53746   0.759221000.000001000.000001000.00000
     Eigenvalues --- 1000.000001000.000001000.000001000.000001000.00000
     Eigenvalues --- 1000.000001000.000001000.000001000.000001000.00000
     Eigenvalues --- 1000.000001000.000001000.000001000.000001000.00000
     Eigenvalues --- 1000.000001000.000001000.000001000.000001000.00000
     Eigenvalues --- 1000.000001000.000001000.000001000.000001000.00000
     Eigenvalues --- 1000.000001000.000001000.000001000.000001000.00000
     Eigenvalues --- 1000.000001000.000001000.000001000.000001000.00000
     Eigenvalues --- 1000.000001000.000001000.000001000.000001000.00000
     Eigenvalues --- 1000.000001000.000001000.000001000.000001000.00000
     Eigenvalues --- 1000.000001000.000001000.000001000.000001000.00000
     Eigenvalues --- 1000.000001000.000001000.000001000.000001000.00000
     Eigenvalues --- 1000.000001000.000001000.000001000.000001000.00000
     Eigenvalues --- 1000.000001000.000001000.000001000.000001000.00000
     Eigenvalues --- 1000.00000
 RFO step:  Lambda=-5.31894779D-02 EMin= 1.38542278D-02
 Linear search not attempted -- first point.
 Maximum step size (   0.300) exceeded in Quadratic search.
    -- Step size scaled by   0.800
 Iteration  1 RMS(Cart)=  0.04076892 RMS(Int)=  0.00223803
 Iteration  2 RMS(Cart)=  0.00286715 RMS(Int)=  0.00283341
 Iteration  3 RMS(Cart)=  0.00001914 RMS(Int)=  0.00285538
 Iteration  4 RMS(Cart)=  0.00000043 RMS(Int)=  0.00285380
 Iteration  1 RMS(Cart)=  0.00005570 RMS(Int)=  0.00006396
 Iteration  2 RMS(Cart)=  0.00000125 RMS(Int)=  0.00003101
 Iteration  3 RMS(Cart)=  0.00000003 RMS(Int)=  0.00003100
 ITry= 1 IFail=0 DXMaxC= 2.66D-01 DCOld= 1.00D+10 DXMaxT= 3.00D-01 DXLimC= 3.00D+00 Rises=F
 Variable       Old X    -DE/DX   Delta X   Delta X   Delta X     New X
                                 (Linear)    (Quad)   (Total)
    R1        2.64256  -0.01197   0.00000  -0.01474  -0.01385   2.62871
    R2        2.63718  -0.00487   0.00000  -0.00562  -0.00553   2.63165
    R3        2.07461  -0.00561   0.00000  -0.01099  -0.01090   2.06371
    R4        2.69471  -0.03782   0.00000  -0.05167  -0.04846   2.64626
    R5        3.29196   0.01308   0.00000   0.02230   0.02072   3.31268
    R6        2.66169  -0.00999   0.00000  -0.01803  -0.01814   2.64355
    R7        2.63233  -0.00665   0.00000  -0.00901  -0.00799   2.62434
    R8        2.65214  -0.00886   0.00000  -0.01654  -0.01699   2.63515
    R9        2.07496  -0.00507   0.00000  -0.01052  -0.01056   2.06440
   R10        2.65527  -0.01031   0.00000  -0.01140  -0.01053   2.64474
   R11        2.06977  -0.00304   0.00000  -0.00608  -0.00608   2.06370
   R12        2.06879  -0.00330   0.00000  -0.00660  -0.00658   2.06221
   R13        2.57621  -0.00022   0.00000  -0.00716  -0.00883   2.56738
   R14        1.73963   0.09905   0.00000   0.14249   0.15110   1.89074
   R15        3.26376  -0.01374   0.00000  -0.00159   0.00241   3.26617
   R16        2.63371   0.01092   0.00000   0.02398   0.02541   2.65912
   R17        2.78087  -0.00813   0.00000  -0.00255  -0.00035   2.78052
   R18        2.67532   0.01951   0.00000   0.02312   0.02118   2.69650
   R19        2.67762  -0.02645   0.00000  -0.05345  -0.05549   2.62213
   R20        2.07222  -0.00288   0.00000  -0.00574  -0.00573   2.06649
   R21        2.70825   0.01068   0.00000   0.00674   0.00428   2.71253
   R22        2.39636  -0.02238   0.00000  -0.01274  -0.00929   2.38707
   R23        2.65015   0.00054   0.00000   0.00478   0.00587   2.65601
   R24        2.06977  -0.00293   0.00000  -0.00619  -0.00624   2.06353
   R25        2.66047  -0.02046   0.00000  -0.04015  -0.04149   2.61897
   R26        2.07240  -0.00401   0.00000  -0.00803  -0.00801   2.06440
   R27        2.06808  -0.00124   0.00000  -0.00298  -0.00306   2.06501
    A1        2.06015   0.00321   0.00000   0.00341   0.00255   2.06270
    A2        2.10031  -0.00240   0.00000  -0.00263  -0.00203   2.09828
    A3        2.12273  -0.00081   0.00000  -0.00078  -0.00052   2.12220
    A4        2.15664  -0.00671   0.00000  -0.01864  -0.01815   2.13849
    A5        2.17421   0.00777   0.00000   0.03129   0.03223   2.20645
    A6        1.95233  -0.00106   0.00000  -0.01265  -0.01408   1.93825
    A7        2.04708   0.01376   0.00000   0.03063   0.02984   2.07692
    A8        1.95961  -0.01311   0.00000  -0.01740  -0.01487   1.94474
    A9        2.27649  -0.00065   0.00000  -0.01323  -0.01497   2.26152
   A10        2.07906  -0.00379   0.00000  -0.00833  -0.00783   2.07124
   A11        2.10172   0.00223   0.00000   0.00403   0.00367   2.10539
   A12        2.10240   0.00156   0.00000   0.00430   0.00416   2.10656
   A13        2.13709  -0.00645   0.00000  -0.01283  -0.01235   2.12473
   A14        2.06740   0.00292   0.00000   0.00477   0.00451   2.07191
   A15        2.07870   0.00352   0.00000   0.00806   0.00784   2.08654
   A16        2.08634  -0.00002   0.00000   0.00576   0.00594   2.09228
   A17        2.09775   0.00008   0.00000  -0.00226  -0.00234   2.09541
   A18        2.09909  -0.00005   0.00000  -0.00350  -0.00360   2.09549
   A19        1.94253   0.03659   0.00000   0.07101   0.06768   2.01022
   A20        2.51608  -0.05983   0.00000  -0.16236  -0.15648   2.35960
   A21        1.82457   0.02324   0.00000   0.09135   0.08880   1.91337
   A22        1.55146   0.01483   0.00000   0.03510   0.03367   1.58513
   A23        2.11891  -0.00394   0.00000  -0.01198  -0.01245   2.10646
   A24        2.12136  -0.00495   0.00000  -0.01918  -0.02014   2.10122
   A25        2.04292   0.00889   0.00000   0.03115   0.03259   2.07551
   A26        2.08675   0.00892   0.00000   0.02204   0.02157   2.10832
   A27        2.11019  -0.00301   0.00000  -0.00456  -0.00423   2.10596
   A28        2.08624  -0.00592   0.00000  -0.01748  -0.01734   2.06890
   A29        2.03789  -0.00882   0.00000  -0.01702  -0.01651   2.02138
   A30        2.05602   0.00805   0.00000   0.04441   0.04749   2.10351
   A31        2.18928   0.00077   0.00000  -0.02739  -0.03098   2.15830
   A32        2.10631  -0.00484   0.00000  -0.01657  -0.01655   2.08976
   A33        2.07979   0.00231   0.00000   0.00783   0.00782   2.08761
   A34        2.09708   0.00253   0.00000   0.00875   0.00873   2.10582
   A35        2.10963   0.00564   0.00000   0.01230   0.01195   2.12158
   A36        2.05213  -0.00192   0.00000  -0.00392  -0.00387   2.04827
   A37        2.12143  -0.00373   0.00000  -0.00838  -0.00809   2.11334
   A38        2.10689   0.00303   0.00000   0.01123   0.01199   2.11887
   A39        2.08638  -0.00169   0.00000  -0.00439  -0.00458   2.08180
   A40        2.08992  -0.00134   0.00000  -0.00685  -0.00741   2.08251
   A41        2.01884  -0.03725   0.00000  -0.07605  -0.07240   1.94644
   A42        2.16508   0.01935   0.00000   0.03534   0.03311   2.19818
   A43        2.09927   0.01790   0.00000   0.04071   0.03930   2.13856
    D1       -0.00000   0.00000   0.00000   0.00000   0.00000  -0.00000
    D2        3.14159  -0.00000   0.00000  -0.00000  -0.00000   3.14159
    D3        3.14159   0.00000   0.00000   0.00000   0.00000   3.14159
    D4       -0.00000  -0.00000   0.00000  -0.00000  -0.00000  -0.00000
    D5       -0.00000  -0.00000   0.00000  -0.00000  -0.00000  -0.00000
    D6        3.14159  -0.00000   0.00000  -0.00000  -0.00000   3.14159
    D7        3.14159  -0.00000   0.00000  -0.00000  -0.00000   3.14159
    D8       -0.00000  -0.00000   0.00000  -0.00000  -0.00000  -0.00000
    D9        0.00000   0.00000   0.00000   0.00000   0.00000   0.00000
   D10       -3.14159  -0.00000   0.00000  -0.00000  -0.00000   3.14159
   D11       -3.14159   0.00000   0.00000   0.00000   0.00000  -3.14159
   D12        0.00000   0.00000   0.00000   0.00000   0.00000   0.00000
   D13        3.14159  -0.00000   0.00000   0.00000   0.00000   3.14159
   D14       -0.00001  -0.00000   0.00000  -0.00000  -0.00000  -0.00001
   D15       -0.00000  -0.00000   0.00000  -0.00000  -0.00000  -0.00001
   D16        3.14159  -0.00000   0.00000  -0.00000  -0.00000   3.14159
   D17        3.14159   0.00000   0.00000   0.00000   0.00000  -3.14159
   D18        0.00000   0.00000   0.00000   0.00000   0.00000   0.00000
   D19        0.00001   0.00000   0.00000   0.00000   0.00000   0.00001
   D20        3.14151   0.00000   0.00000   0.00002   0.00001   3.14152
   D21       -3.14159  -0.00000   0.00000  -0.00000  -0.00000  -3.14159
   D22       -0.00009   0.00000   0.00000   0.00001   0.00001  -0.00007
   D23        0.00000   0.00000   0.00000   0.00000   0.00000   0.00000
   D24       -3.14159   0.00000   0.00000   0.00000   0.00000  -3.14159
   D25        3.14159   0.00000   0.00000   0.00000   0.00000  -3.14159
   D26        0.00000  -0.00000   0.00000  -0.00000  -0.00000   0.00000
   D27        0.00000   0.00000   0.00000  -0.00000  -0.00000   0.00000
[...]
 497608,0.00000045,0.05570934,0.01150074,-0.00000071,0.12617826,-0.2714
 7032,0.00000033,0.03123656,-0.03975282,-0.00000199,-0.03208066,0.66543
 956,0.00000008,-0.00000011,0.00007731,-0.00000018,0.00000001,0.0006613
 3,-0.00000004,0.00000012,-0.00046847,0.00000011,-0.00000005,-0.0001421
 1,0.00000001,0.00000013,0.00004695,-0.00000013,-0.00000003,-0.00003168
 ,0.,0.,0.00000778,0.,0.,0.00001186,0.,0.,0.00001796,0.,0.,-0.00003490,
 -0.00000015,-0.00000028,-0.00011803,0.00000009,0.00000039,-0.00119211,
 -0.00000080,-0.00000062,0.00978712,0.00000520,-0.00000076,-0.06006521,
 -0.00000199,0.00000042,-0.00638995,-0.00002220,-0.00001905,0.11957192,
 0.00042266,-0.00002546,0.,-0.00091283,0.00039634,-0.00000019,0.0003726
 0,-0.00032120,-0.00000001,0.00007817,0.00007014,0.00000002,0.00006550,
 0.00012178,0.,-0.00015165,-0.00011813,0.,-0.00002025,-0.00001370,0.,0.
 00004979,-0.00000205,0.,0.00000920,0.00000139,0.,0.00004070,-0.0000109
 4,0.,-0.00011526,0.00045422,0.00000002,-0.00080296,0.00189944,0.000000
 38,-0.00292962,-0.02724825,0.00000035,-0.07556033,-0.07234030,0.000003
 11,-0.00497133,0.00282082,0.00000030,0.00988803,0.02281726,-0.00000081
 ,0.07568365,0.00010078,-0.00004255,0.00000001,-0.00002342,0.00100403,-
 0.00000002,0.00049395,-0.00050276,0.00000002,0.00006998,0.00013577,0.0
 0000002,0.00002364,0.00012450,0.,-0.00015726,-0.00002338,0.,-0.0000230
 2,0.00000943,0.,0.00004523,-0.00000603,0.,-0.00000402,0.00000821,0.,0.
 00001002,0.00000078,0.,-0.00127335,0.00015580,-0.00000011,0.00071337,-
 0.00036805,-0.00000050,0.00005458,-0.00406931,0.00000016,-0.06907977,-
 0.31826693,0.00000979,-0.00022675,0.00268776,0.00000014,-0.01017254,-0
 .01648356,0.00000103,0.07382664,0.33902709,-0.00000004,0.,-0.00001823,
 0.00000007,0.,-0.00074991,-0.00000002,-0.00000006,0.00009160,0.,-0.000
 00001,0.00008570,0.,0.,-0.00002208,0.,0.00000002,0.00003418,0.,0.,-0.0
 0001323,0.,0.,-0.00002215,0.,0.,-0.00000141,0.,0.,0.00002232,-0.000000
 35,-0.00000014,-0.00014854,0.00000039,-0.00000058,0.00186093,-0.000000
 84,0.00000103,0.00246484,0.00000378,0.00001026,-0.03699312,-0.00000020
 ,0.00000048,0.00445054,-0.00000033,-0.00000006,0.00635681,-0.00000342,
 -0.00001046,0.02330054,-0.00039216,0.00116555,0.00000005,0.00097423,-0
 .00062349,-0.00000010,0.00173507,0.00073057,-0.00000029,-0.00097850,0.
 00021838,-0.00000001,-0.00005687,-0.00131938,-0.00000007,0.00131495,0.
 00009829,0.00000003,-0.00008414,0.00002287,0.,0.00012623,0.00002154,0.
 ,0.00006963,-0.00005068,0.,0.00006978,-0.00001965,0.,0.00762638,0.0065
 6794,0.00000035,-0.00187012,-0.00191441,0.00000023,0.04407452,0.007428
 22,-0.00000106,-0.04834675,0.01755903,0.00000076,-0.14549314,0.0495230
 5,-0.00000756,0.00535081,-0.07168701,0.00000440,-0.00014642,0.00036804
 ,0.00000026,0.72870768,0.00071815,-0.00063579,-0.00000004,-0.00129587,
 0.00015214,-0.00000003,-0.00008527,-0.00036497,-0.00000002,0.00058209,
 -0.00014918,0.00000002,0.00010741,0.00082077,0.00000005,-0.00085135,-0
 .00015347,-0.00000001,0.00001041,0.00003154,0.,0.00000276,-0.00001896,
 0.,-0.00003276,0.00003227,0.,-0.00000272,0.00000742,0.,-0.00416705,-0.
 00038375,-0.00000012,0.00231585,0.00062637,-0.00000035,0.01016583,-0.0
 2271259,0.00000296,0.00894078,-0.00433558,-0.00000006,0.07322882,-0.20
 397878,0.00001046,-0.03728409,-0.00095694,0.00000111,-0.00006847,0.000
 54072,0.00000030,0.09429309,0.69855799,0.,-0.00000006,-0.00013773,-0.0
 0000006,0.00000016,-0.00027899,-0.00000002,-0.00000022,-0.00092911,-0.
 00000001,0.,0.00002550,0.00000003,0.00000003,0.00004262,-0.00000005,0.
 00000002,0.00004884,0.,0.,-0.00005802,0.,0.,-0.00003550,0.,0.,-0.00000
 587,0.,0.,0.00003850,0.00000002,0.00000034,0.00128667,-0.00000018,-0.0
 0000006,-0.00086343,-0.00000165,-0.00000046,0.01042019,-0.00000027,-0.
 00000026,-0.00084262,-0.00000890,0.00001224,-0.07748512,0.00000308,0.0
 0000154,0.00756534,0.00000009,-0.00000003,-0.00016914,-0.00002667,-0.0
 0005350,0.11962364,0.00077721,-0.00132416,-0.00000007,-0.00154022,0.00
 087961,0.00000014,-0.00065344,-0.00075341,0.00000019,0.00111884,-0.000
 28886,0.00000002,0.00008727,0.00155993,0.00000007,-0.00160039,-0.00014
 638,-0.00000003,0.00007500,0.00002691,0.,-0.00006123,-0.00004029,0.,-0
 .00009197,0.00006949,0.,-0.00007408,0.00003877,0.,-0.00806936,-0.00290
 752,-0.00000046,0.00261376,0.00263557,-0.00000029,-0.03138433,0.002859
 85,-0.00000012,0.04774885,0.00717598,-0.00000111,-0.05257405,0.0226216
 3,0.00000412,-0.13583196,-0.01453401,0.00000142,-0.00322027,0.00438742
 ,0.00000067,-0.41066935,-0.11158084,0.00001737,0.77238674,0.00074578,-
 0.00130733,-0.00000005,-0.00126654,0.00106237,0.00000013,-0.00040318,-
 0.00171863,0.00000013,0.00088461,-0.00013965,0.00000002,0.00008373,0.0
 0143264,0.00000007,-0.00156099,-0.00007691,-0.00000002,0.00008041,0.00
 001168,0.,-0.00006186,-0.00003380,0.,-0.00009592,0.00007214,0.,-0.0000
 7162,0.00003907,0.,-0.01087509,-0.00391063,-0.00000024,0.00283359,0.00
 244457,-0.00000034,-0.03933920,-0.00523422,0.00000002,0.05160261,-0.05
 365593,0.00000168,-0.00829222,0.05226809,-0.00000144,-0.07866055,-0.27
 997017,0.00001239,0.00274328,-0.00157776,0.00000009,-0.05210943,-0.157
 22228,0.00001112,-0.01718319,0.66796771,-0.00000007,0.00000012,-0.0000
 0109,0.00000016,-0.00000014,0.00017201,-0.00000002,0.00000016,0.000366
 89,-0.00000007,0.00000001,0.00000133,-0.00000002,-0.00000013,-0.000031
 28,0.00000015,0.,0.00000017,0.,0.,0.00000920,0.,0.,0.00003226,0.,0.,-0
 .00000431,0.,0.,-0.00001321,0.00000099,0.00000012,-0.00014901,-0.00000
 025,-0.00000006,-0.00023843,0.00000334,0.00000015,-0.00468962,-0.00000
 400,0.00000205,0.00711811,0.00000111,-0.00000447,-0.00006487,0.0000059
 1,0.00001168,-0.06313691,0.00000032,-0.00000005,0.00861586,0.00001245,
 0.00001050,-0.05807337,-0.00001564,-0.00002950,0.14497245,0.00000776,-
 0.00008018,0.,-0.00000998,0.00013511,0.,-0.00003456,-0.00017028,-0.000
 00003,0.00004507,0.00003076,0.,-0.00001214,0.00006795,0.,-0.00008260,0
 .00001092,0.,0.00000623,0.00000443,0.,0.00000010,-0.00000374,0.,-0.000
 00943,0.00000849,0.,-0.00000977,0.00000613,0.,-0.00048383,0.00042131,-
 0.00000003,0.00004363,0.00009121,0.,-0.00038076,0.00396146,0.00000020,
 -0.01596260,-0.00953030,0.00000079,0.00053436,0.00022956,-0.00000004,-
 0.32890933,-0.07270438,0.00001193,0.00074628,0.00013400,-0.00000018,0.
 00143108,-0.00110484,0.00000015,-0.00314239,0.00250065,-0.00000002,0.3
 4639508,0.00000065,0.00002184,0.,0.00000996,-0.00006767,0.,0.00007132,
 0.00010441,0.,-0.00001314,-0.00004011,0.,0.00001138,-0.00001474,0.,0.0
 0002086,-0.00000435,0.,-0.00000024,-0.00000218,0.,0.00000059,0.0000011
 2,0.,0.00000286,-0.00000452,0.,0.00000228,-0.00000110,0.,0.00031959,-0
 .00028807,-0.00000003,0.00001201,0.00003537,0.,0.00239942,-0.00286273,
 0.00000020,0.02324403,0.00901276,-0.00000087,0.00067993,-0.00141449,0.
 ,-0.07407756,-0.07666741,0.00000385,-0.00008515,0.00097332,-0.00000019
 ,0.00018563,-0.00527000,0.00000050,-0.02973111,-0.00260770,0.00000091,
 0.07747538,0.07717589,0.,-0.00000001,0.00000827,-0.00000002,0.00000003
 ,-0.00009083,0.00000004,0.,-0.00035585,0.,0.,-0.00002919,0.,0.,0.00003
 856,-0.00000001,0.,-0.00000863,0.,0.,0.00000034,0.,0.,-0.00001845,0.,0
 .,0.00000904,0.,0.,0.00000540,-0.00000021,-0.00000005,-0.00062322,0.00
 000004,-0.00000008,0.00027969,0.00000031,0.00000065,0.00825703,-0.0000
 0048,0.00000046,0.00177402,-0.00000011,-0.00000015,-0.00069762,0.00001
 152,0.00000354,-0.03111151,-0.00000013,-0.00000015,-0.00557528,0.00000
 040,0.00000047,0.00424654,0.00000115,-0.00000016,0.00056078,-0.0000128
 4,-0.00000434,0.02379997,-0.00007185,0.00000780,0.,0.00009662,0.000099
 90,0.,-0.00004671,-0.00000392,0.,-0.00001717,0.00000968,0.,-0.00001037
 ,-0.00002903,0.,0.00003235,0.00001638,0.,0.00000103,-0.00000450,0.,-0.
 00000354,-0.00000034,0.,0.00000050,-0.00000092,0.,-0.00000453,-0.00000
 022,0.,0.00035027,-0.00014513,0.,-0.00033214,0.00016508,0.00000002,-0.
 00293601,0.00250356,-0.00000007,-0.00145092,0.00023952,0.00000002,0.00
 903711,0.02293300,-0.00000196,-0.00468570,-0.00033578,0.00000035,0.000
 12748,-0.00007412,0.,-0.07252768,-0.06769178,0.00000692,-0.00257348,-0
 .02982590,0.00000269,-0.00029827,-0.00141242,0.,0.07234736,0.00002605,
 0.00010034,0.,-0.00007254,-0.00017544,-0.00000002,0.00003614,0.0001515
 1,-0.00000001,-0.00005091,-0.00000583,0.,0.00001328,-0.00008019,0.,0.0
 0008754,-0.00001713,0.,-0.00000786,0.00000152,0.,0.00000567,0.00000476
 ,0.,0.00001069,-0.00000667,0.,0.00001366,-0.00000611,0.,0.00034862,0.0
 0013605,0.00000005,0.00017020,-0.00038735,-0.00000002,0.00401751,-0.00
 219183,0.00000073,0.00095986,0.00051427,-0.00000019,-0.01187292,-0.016
 20997,0.00000182,-0.00124048,0.00209320,0.00000106,-0.00004474,-0.0001
 0741,-0.00000012,-0.06769660,-0.32870656,0.00003048,0.00210365,-0.0036
 3389,0.00000038,0.00003629,-0.00027874,0.00000008,0.07456662,0.3450858
 3,0.,-0.00000003,0.00004014,-0.00000002,0.00000005,0.00001261,0.000000
 01,-0.00000003,-0.00003199,0.00000002,0.,-0.00000018,0.,0.00000003,0.0
 0000149,-0.00000003,0.,-0.00000513,0.,0.,0.00000392,0.,0.,-0.00000007,
 0.,0.,0.00000250,0.,0.,-0.00000681,-0.00000019,0.,-0.00005300,0.,0.,0.
 00008227,-0.00000048,0.00000066,0.00397379,0.00000019,-0.00000030,-0.0
 0075188,0.00000078,0.00000238,0.00446543,0.00000038,0.00000058,0.00908
 278,-0.00000003,0.00000002,-0.00098938,0.00000838,0.00002956,-0.034432
 95,-0.00000074,0.00000098,0.00317683,0.,0.00000010,0.00049526,-0.00000
 762,-0.00003282,0.02438325,0.00003907,-0.00007909,0.,-0.00003905,0.000
 14111,0.,0.00009662,-0.00016223,0.,0.00004477,0.00000434,0.,0.00000039
 ,0.00008245,0.,-0.00009577,0.00000322,0.,0.00000424,0.00000315,0.,0.00
 000406,-0.00000397,0.,-0.00000918,0.00000638,0.,-0.00000712,0.00000553
 ,0.,-0.00048907,0.00019885,-0.00000002,0.00007539,0.00027793,0.,-0.000
 84169,0.00023520,-0.00000002,0.00114791,-0.00203457,0.00000008,-0.0025
 0903,-0.00434157,0.00000102,0.00831921,-0.00740324,0.00000033,0.000296
 25,-0.00036900,-0.00000001,-0.01629604,0.02391563,-0.00000179,-0.20334
 548,0.14061761,-0.00000439,0.00059000,0.00040804,0.,0.00094986,-0.0003
 0020,-0.00000029,0.21316712,0.00002807,0.00002316,0.,-0.00009250,0.000
 04897,-0.00000002,0.00002894,0.00006217,0.00000001,0.00000175,0.000000
 80,0.,0.00001116,-0.00000854,0.,0.00001159,-0.00001318,0.,-0.00000649,
 -0.00000049,0.,0.00000555,0.00000087,0.,0.00000513,-0.00000238,0.,0.00
 000724,-0.00000391,0.,0.00015662,-0.00006263,-0.00000002,-0.00008288,-
 0.00001594,0.00000004,-0.00080449,0.00056092,-0.00000002,-0.00314011,-
 0.00539056,0.00000062,-0.00259540,-0.00017289,0.00000085,0.02395594,-0
 .01386859,0.00000069,0.00113266,-0.00108975,-0.00000014,-0.00856823,0.
 00892483,-0.00000028,0.14152535,-0.19697159,0.00000647,-0.00024001,0.0
 0104914,-0.00000017,0.00008142,0.00086535,-0.00000045,-0.15149787,0.20
 546498,-0.00000003,0.00000004,-0.00000614,0.00000007,-0.00000004,-0.00
 008915,0.,0.00000003,0.00013462,-0.00000003,0.,0.00000831,0.,-0.000000
 05,-0.00000774,0.00000005,0.,-0.00000208,0.,0.,0.00000580,0.,0.,-0.000
 00181,0.,0.,0.00000027,0.,0.,0.00000449,0.00000016,-0.00000001,-0.0001
 5347,-0.00000003,-0.00000008,0.00032570,0.00000062,0.00000001,-0.00116
 471,-0.00000027,0.00000079,0.00453272,0.00000147,0.00000031,0.01138090
 ,-0.00000161,0.00000012,0.00474119,-0.00000014,0.00000011,-0.00039327,
 0.00000003,-0.00000007,0.00725348,-0.00000371,0.00000715,-0.04250359,-
 0.00000006,-0.00000020,-0.00236994,-0.00000013,-0.00000077,-0.00604834
 ,0.00000502,-0.00000739,0.02683162,-0.00878404,0.00017145,-0.00000023,
 0.00583556,0.01635319,0.00000031,-0.06509609,0.05057145,0.00000125,0.0
 0726386,-0.00383681,-0.00000012,-0.00294592,0.00103189,0.,0.00217548,-
 0.00263044,-0.00000013,0.00000626,-0.00094581,-0.00000005,-0.00057049,
 -0.00005195,0.,0.00050493,-0.00031315,0.00000002,-0.00056933,-0.000112
 27,-0.00000001,-0.36218161,-0.04055294,-0.00001419,-0.06531947,-0.0566
 4091,-0.00000157,-0.18720393,0.09390041,0.00000260,-0.06609794,0.03218
 360,-0.00000115,0.04630236,0.02570763,-0.00000457,0.00731521,-0.028823
 76,0.00000111,0.00181253,0.00171920,0.00000031,-0.01277074,0.00373544,
 -0.00000009,0.01358703,0.01535548,-0.00000138,-0.00034366,0.00080798,0
 .00000025,0.00026137,-0.00147464,0.00000038,0.00083895,-0.00000663,-0.
 00000027,0.73179315,0.00243841,-0.00290199,-0.00000005,0.02149353,-0.0
 2496666,-0.00000075,0.01754958,0.01580433,0.00000203,0.00647534,-0.009
 90766,-0.00000043,-0.00067723,0.00620352,0.00000022,-0.00436914,-0.003
 47318,-0.00000034,0.00019333,-0.00051762,0.,-0.00067125,0.00000511,0.0
 0000003,0.00007285,-0.00039075,-0.00000001,-0.00042232,0.00014772,0.,-
 0.04911018,-0.15181391,-0.00000734,-0.01007462,-0.16219823,-0.00000760
 ,0.09454190,-0.21975683,-0.00000323,0.03213821,0.00783998,0.00000112,0
 .00286872,-0.04140733,0.00000316,-0.01483834,0.02161772,-0.00000069,-0
 .00319029,-0.00129142,-0.00000023,0.00864385,-0.01107342,0.00000021,-0
 .01325142,-0.01489767,0.00000133,-0.00117793,0.00080777,-0.00000016,0.
 00143964,-0.00031846,-0.00000014,-0.00067161,0.00013673,0.00000032,-0.
 07715375,0.57672846,-0.00000026,0.00000008,-0.00000156,0.00000175,-0.0
 0000189,0.00178578,-0.00000027,0.00000215,0.00192173,0.00000030,-0.000
 00068,0.00117718,-0.00000011,0.00000007,0.00120271,0.00000003,-0.00000
 027,0.00104173,-0.00000001,-0.00000004,-0.00054814,-0.00000004,0.00000
 003,-0.00041307,0.00000004,-0.00000003,-0.00029114,-0.00000002,0.,-0.0
 0008297,-0.00001250,-0.00000718,-0.05874411,-0.00000091,-0.00000656,-0
 .03435163,0.00000234,-0.00000251,-0.05705354,0.00000066,-0.00000096,-0
 .00553560,0.00000054,-0.00000059,0.00416062,0.00000023,0.00000043,0.00
 502805,-0.00000022,-0.00000007,-0.00214239,-0.00000014,0.00000022,0.00
 381983,-0.00000015,0.00000012,-0.00080691,0.00000004,0.00000004,0.0016
 4401,0.00000004,-0.00000001,-0.00033381,0.,-0.00000004,-0.00062352,0.0
 0001302,0.00001835,0.13896719,-0.00097874,0.00309979,0.00000021,0.0019
 5991,-0.00032113,0.00000007,0.00823790,0.00072293,-0.00000029,-0.00279
 895,0.00079307,-0.00000004,-0.00006349,-0.00347218,-0.00000018,0.00332
 577,0.00054269,0.00000008,-0.00021606,0.00016211,0.,0.00029745,0.00006
 089,0.00000003,0.00010136,-0.00007594,0.,0.00014721,-0.00000363,0.,0.0
 1710118,0.03012464,0.00000107,-0.00324756,-0.00503521,0.00000004,-0.00
 433002,-0.06663964,0.00000947,-0.01508967,0.00237711,0.00000017,-0.513
 54406,-0.11010846,0.00007262,0.00086920,-0.02205154,0.00000140,-0.0010
 1679,-0.00065112,-0.00000005,-0.08525439,0.00693566,0.00001254,0.01777
 962,0.02412054,-0.00000145,-0.00019182,-0.00034931,0.00000013,0.001781
 91,0.00038278,-0.00000071,-0.00207383,0.00011559,-0.00000122,-0.041739
 75,0.02518497,-0.00000117,0.61120928,-0.00039662,-0.00003511,-0.000000
 16,0.00031523,-0.00180542,-0.00000018,-0.00526872,-0.00099066,0.000001
 30,-0.00015804,-0.00025957,-0.00000008,0.00029690,-0.00006052,-0.00000
 007,0.00022687,-0.00008013,0.,0.00003980,-0.00015281,0.00000002,0.0001
 2351,0.00005699,0.00000007,0.00009865,-0.00009842,0.,0.00006680,-0.000
 05940,0.,0.01287271,-0.02038460,0.00000024,-0.00026300,-0.00185370,0.0
 0000010,-0.05473054,-0.01839825,0.00000865,0.00930440,-0.00817506,0.00
 000055,-0.12424259,-0.13469800,0.00002560,-0.00386503,0.00552024,0.000
 00001,-0.00233939,-0.00080452,-0.00000024,0.02894128,0.02472297,-0.000
 00333,0.00059102,-0.00966865,0.00000095,-0.00011682,0.00052204,-0.0000
 0004,-0.00269482,0.00331275,-0.00000057,0.00126767,0.00046517,0.,-0.00
 075209,0.00653820,0.00000052,0.14996120,0.15828962,0.00000020,-0.00000
 021,-0.00021382,-0.00000030,0.00000043,-0.00002182,0.00000073,0.000000
 47,0.00178153,0.00000034,-0.00000005,0.00003971,-0.00000007,0.00000036
 ,-0.00010037,-0.00000034,-0.00000006,0.00004654,0.,0.00000003,0.000022
 28,-0.00000003,-0.00000004,0.00002368,-0.00000004,0.00000003,-0.000014
 50,-0.00000003,0.00000002,0.00000166,-0.00000440,0.00000157,0.00126485
 ,0.00000048,0.00000142,-0.00009124,0.00000482,0.00000699,0.01815192,0.
 00000172,0.,0.00480939,0.00008145,0.00002890,-0.07042723,0.00000031,0.
 00000264,-0.00030135,0.00000029,0.00000010,-0.00001972,0.00000705,-0.0
 0000185,0.01786985,-0.00000269,-0.00000142,0.00454590,0.00000004,-0.00
 000002,-0.00043524,-0.00000023,-0.00000065,-0.00305111,-0.00000001,-0.
 00000017,-0.00169867,0.00000300,-0.00000385,-0.00259410,-0.00009529,-0
 .00003249,0.03809579,0.00136907,0.00003844,-0.00000004,-0.00423302,0.0
 0430484,0.00000017,0.01298726,0.01516518,0.00000197,0.00144742,-0.0003
 8299,0.00000005,-0.00011602,0.00039416,0.,-0.00054556,-0.00006495,0.00
 000001,-0.00013210,0.00030534,0.,-0.00054626,-0.00044615,-0.00000022,-
 0.00003161,0.00001993,0.,-0.00004785,-0.00003693,0.,-0.10260601,-0.098
 97631,-0.00000998,-0.00376552,-0.00240512,-0.00000059,-0.00189541,0.00
 491564,0.00000023,0.00138748,-0.00005916,0.00000026,-0.01527861,-0.000
 84570,0.00000068,-0.00014266,0.00183986,-0.00000013,0.00025488,0.00010
 756,0.,0.00340592,-0.00078686,-0.00000050,-0.00134229,-0.00182260,0.00
 000020,0.00007156,0.00001703,-0.00000003,-0.00002748,-0.00001767,-0.00
 000001,0.00013244,-0.00003241,0.00000008,-0.00407374,-0.03743227,-0.00
 000319,0.00773435,-0.00927838,0.00000300,0.10599378,-0.00075616,0.0012
 5856,0.00000010,0.00330783,0.00154174,-0.00000009,0.00334103,-0.007017
 68,-0.00000077,-0.00185669,0.00187210,0.00000016,-0.00036468,-0.001984
 59,-0.00000008,0.00127266,0.00081172,0.00000008,-0.00002263,0.00012895
 ,0.,0.00025054,-0.00011789,-0.00000014,-0.00010851,0.00012408,0.,0.000
 00771,0.00006949,0.,-0.09485816,-0.34575233,-0.00003234,0.00024775,0.0
 0343707,0.00000005,0.00993321,-0.01491569,0.00000049,-0.00768858,-0.00
 052113,-0.00000048,0.03076696,0.01615430,-0.00000580,0.00228758,-0.007
 75015,0.00000038,-0.00047588,-0.00003398,0.00000005,-0.01177844,0.0015
 4525,0.00000156,0.00526600,0.00732856,-0.00000048,0.00001482,-0.000179
 86,0.00000006,0.00015628,-0.00013999,0.,-0.00030377,-0.00000264,-0.000
 00027,-0.02824256,0.00908560,-0.00000118,-0.03587581,-0.00190318,-0.00
 000216,0.12547950,0.33696169,-0.00000005,-0.00000005,0.00094697,0.0000
 0006,-0.00000017,0.00193891,-0.00000058,0.00000102,-0.00625449,0.00000
 016,0.00000012,-0.00049268,-0.00000006,0.00000003,-0.00010503,0.,-0.00
 000003,-0.00011113,0.,0.,0.00001232,-0.00000009,-0.00000008,-0.0003039
 5,0.,0.,0.00004572,0.,0.,-0.00000434,-0.00001147,-0.00003883,-0.016596
 72,0.00000021,0.00000049,0.00391605,-0.00000053,0.00000158,-0.00296868
 ,0.00000061,0.00000016,-0.00081260,-0.00000156,-0.00000258,0.00043424,
 -0.00000028,0.00000047,0.00003584,0.00000007,0.,-0.00002550,0.00000149
 ,0.00000043,0.00107085,-0.00000015,-0.00000071,0.00014079,0.00000002,0
 .00000002,0.00019684,-0.00000006,0.00000001,-0.00001566,0.00000009,0.0
 0000001,-0.00015668,0.00000150,-0.00000194,0.00277365,0.00000257,-0.00
 000083,-0.00768391,0.00000804,0.00004088,0.02401917\\-0.00110815,0.000
 64850,0.00000005,0.00071260,0.00186919,-0.00000085,0.00220577,0.000294
 01,-0.00000194,0.00063511,-0.00087548,0.00000048,-0.00040616,-0.002180
 35,-0.00000028,-0.00112953,-0.00102694,-0.00000023,-0.00020520,0.00013
 076,0.00000004,0.00019072,-0.00014675,-0.00000003,-0.00003017,-0.00022
 004,0.,-0.00016397,-0.00012033,0.00000015,-0.00049825,0.00231458,0.000
 00020,0.00128283,0.00526050,0.00000229,-0.00053498,0.00120520,-0.00000
 990,0.00199676,-0.00111899,-0.00000230,0.00176444,0.00095462,0.0000346
 9,-0.00048576,-0.00076820,0.00000034,0.00019627,-0.00012039,-0.0000001
 3,-0.00173399,-0.00013211,-0.00000904,-0.00181613,-0.00160219,-0.00000
 013,-0.00001978,-0.00021757,-0.00000004,-0.00023931,0.00002004,-0.0000
 0076,-0.00021860,-0.00019436,0.00000104,0.00000049,0.00024756,-0.00000
 209,-0.00158064,-0.00043456,-0.00001866,0.00118561,-0.00378669,0.00000
 711\\\@
 The archive entry for this job was punched.


 DO YOU KNOW THAT THE LETTERS IN "EPISCOPAL", WHEN
 REARRANGED, SPELL "PEPSI COLA"?
 Job cpu time:       0 days  1 hours  0 minutes 20.8 seconds.
 Elapsed time:       0 days  0 hours  6 minutes  8.7 seconds.
 File lengths (MBytes):  RWF=    544 Int=      0 D2E=      0 Chk=     36 Scr=      8
 Normal termination of Gaussian 16 at Wed Oct 28 00:55:09 2020.
