 Entering Gaussian System, Link 0=g16
 Initial command:
 /gpfs/loomis/apps/avx/software/Gaussian/16-C.01_AVX/g16/l1.exe "/home/fas/batista/pev4/scratch60/gauss-scratch/Gau-252761.inp" -scrdir="/home/fas/batista/pev4/scratch60/gauss-scratch/"
 Entering Link 1 = /gpfs/loomis/apps/avx/software/Gaussian/16-C.01_AVX/g16/l1.exe PID=    252762.
  
 Copyright (c) 1988-2019, Gaussian, Inc.  All Rights Reserved.
  
 This is part of the Gaussian(R) 16 program.  It is based on
 the Gaussian(R) 09 system (copyright 2009, Gaussian, Inc.),
 the Gaussian(R) 03 system (copyright 2003, Gaussian, Inc.),
 the Gaussian(R) 98 system (copyright 1998, Gaussian, Inc.),
 the Gaussian(R) 94 system (copyright 1995, Gaussian, Inc.),
 the Gaussian 92(TM) system (copyright 1992, Gaussian, Inc.),
 the Gaussian 90(TM) system (copyright 1990, Gaussian, Inc.),
 the Gaussian 88(TM) system (copyright 1988, Gaussian, Inc.),
 the Gaussian 86(TM) system (copyright 1986, Carnegie Mellon
 University), and the Gaussian 82(TM) system (copyright 1983,
 Carnegie Mellon University). Gaussian is a federally registered
 trademark of Gaussian, Inc.
  
 This software contains proprietary and confidential information,
 including trade secrets, belonging to Gaussian, Inc.
  
 This software is provided under written license and may be
 used, copied, transmitted, or stored only in accord with that
 written license.
  
 The following legend is applicable only to US Government
 contracts under FAR:
  
                    RESTRICTED RIGHTS LEGEND
  
 Use, reproduction and disclosure by the US Government is
 subject to restrictions as set forth in subparagraphs (a)
 and (c) of the Commercial Computer Software - Restricted
 Rights clause in FAR 52.227-19.
  
 Gaussian, Inc.
 340 Quinnipiac St., Bldg. 40, Wallingford CT 06492
  
  
 ---------------------------------------------------------------
 Warning -- This program may not be used in any manner that
 competes with the business of Gaussian, Inc. or will provide
 assistance to any competitor of Gaussian, Inc.  The licensee
 of this program is prohibited from giving any competitor of
 Gaussian, Inc. access to this program.  By using this program,
 the user acknowledges that Gaussian, Inc. is engaged in the
 business of creating and licensing software in the field of
 computational chemistry and represents and warrants to the
 licensee that it is not a competitor of Gaussian, Inc. and that
 it will not use this program in any manner prohibited above.
 ---------------------------------------------------------------
  

 Cite this work as:
 Gaussian 16, Revision C.01,
 M. J. Frisch, G. W. Trucks, H. B. Schlegel, G. E. Scuseria, 
 M. A. Robb, J. R. Cheeseman, G. Scalmani, V. Barone, 
 G. A. Petersson, H. Nakatsuji, X. Li, M. Caricato, A. V. Marenich, 
 J. Bloino, B. G. Janesko, R. Gomperts, B. Mennucci, H. P. Hratchian, 
 J. V. Ortiz, A. F. Izmaylov, J. L. Sonnenberg, D. Williams-Young, 
 F. Ding, F. Lipparini, F. Egidi, J. Goings, B. Peng, A. Petrone, 
 T. Henderson, D. Ranasinghe, V. G. Zakrzewski, J. Gao, N. Rega, 
 G. Zheng, W. Liang, M. Hada, M. Ehara, K. Toyota, R. Fukuda, 
 J. Hasegawa, M. Ishida, T. Nakajima, Y. Honda, O. Kitao, H. Nakai, 
 T. Vreven, K. Throssell, J. A. Montgomery, Jr., J. E. Peralta, 
 F. Ogliaro, M. J. Bearpark, J. J. Heyd, E. N. Brothers, K. N. Kudin, 
 V. N. Staroverov, T. A. Keith, R. Kobayashi, J. Normand, 
 K. Raghavachari, A. P. Rendell, J. C. Burant, S. S. Iyengar, 
 J. Tomasi, M. Cossi, J. M. Millam, M. Klene, C. Adamo, R. Cammi, 
 J. W. Ochterski, R. L. Martin, K. Morokuma, O. Farkas, 
 J. B. Foresman, and D. J. Fox, Gaussian, Inc., Wallingford CT, 2019.
 
 ******************************************
 Gaussian 16:  ES64L-G16RevC.01  3-Jul-2019
                28-Oct-2020 
 ******************************************
 %chk=config_5_14.chk
 %mem=58GB
 %nprocshared=10
 Will use up to   10 processors via shared memory.
 ----------------------------------------------------------------------
 #p opt=addgic freq wb97xd/cc-pvdz nosymm int=ultrafine scrf=(solvent=C
 arbonTetraChloride)
 ----------------------------------------------------------------------
 1/18=20,19=15,26=6,38=1,145=903/1,3;
 2/9=110,12=2,15=1,17=6,18=5,40=1/2;
 3/5=16,11=2,25=1,30=1,70=2201,71=1,72=11,74=-58,75=-5/1,2,3;
 4//1;
 5/5=2,38=5,53=11/2;
 6/7=2,8=2,9=2,10=2,28=1/1;
 7/30=1/1,2,3,16;
 1/18=20,19=15,26=6,145=903/3(2);
 2/9=110,15=1/2;
 99//99;
 2/9=110,15=1/2;
 3/5=16,11=2,25=1,30=1,70=2205,71=1,72=11,74=-58,75=-5/1,2,3;
 4/5=5,16=3,69=1/1;
 5/5=2,38=5,53=11/2;
 7/30=1/1,2,3,16;
 1/18=20,19=15,26=6,145=903/3(-5);
 2/9=110,15=1/2;
 6/7=2,8=2,9=2,10=2,19=2,28=1/1;
 99/9=1/99;
 Leave Link    1 at Wed Oct 28 00:31:16 2020, MaxMem=  7784628224 cpu:               3.5 elap:               0.6
 (Enter /gpfs/loomis/apps/avx/software/Gaussian/16-C.01_AVX/g16/l101.exe)
 ------------------------------------------------
 NM 2D-scan of HBT TD-WB97XD pVDZ in CTC Relaxed.
 ------------------------------------------------
 Symbolic Z-matrix:
 Charge =  0 Multiplicity = 1
 C                     1.57572  -3.25709  -0.00002 
 C                     0.99773  -1.99024  -0.00002 
 C                     1.76519  -0.78465  -0.00003 
 C                     3.17874  -0.90662  -0.00003 
 C                     3.748    -2.17637  -0.00002 
 C                     2.96597  -3.34832  -0.00002 
 H                     0.94853  -4.15278  -0.00001 
 H                     3.80277  -0.00865  -0.00003 
 H                     4.83778  -2.26682  -0.00002 
 H                     3.44849  -4.32848  -0.00001 
 N                     1.01055   0.34665  -0.00003 
 S                    -0.70957  -1.63847  -0.00002 
 C                    -1.33      1.05485   0.00001 
 C                    -2.70843   0.75693   0.00002 
 C                    -0.90747   2.46222   0.00003 
 C                    -3.65096   1.78695   0.00003 
 H                    -3.03863  -0.28547   0.00001 
 C                    -1.89192   3.47737   0.00004 
 C                    -3.25019   3.1416    0.00004 
 H                    -4.71519   1.53906   0.00003 
 H                    -1.5585    4.5184    0.00006 
 H                    -4.00638   3.92947   0.00005 
 C                    -0.32354   0.06967  -0.00002 
 O                     0.36673   2.7135    0.00005 
 H                     0.91959   1.74323   0.00002 
 
 Initializing the GIC definitions file.
 Number of initial coordinates =   131
 Number of input entries/lines =    52
 Number of additional coordinates =     2
 Number of removed coordinates =     0
 Number of frozen coordinates =     2
 Number of final active and frozen coordinates =   133
 ITRead=  0  0  0  0  0  0  0  0  0  0  0  0  0  0  0  0  0  0  0  0
 ITRead=  0  0  0  0  0
 MicOpt= -1 -1 -1 -1 -1 -1 -1 -1 -1 -1 -1 -1 -1 -1 -1 -1 -1 -1 -1 -1
 MicOpt= -1 -1 -1 -1 -1
 NAtoms=     25 NQM=       25 NQMF=       0 NMMI=      0 NMMIF=      0
                NMic=       0 NMicF=      0.
                    Isotopes and Nuclear Properties:
 (Nuclear quadrupole moments (NQMom) in fm**2, nuclear magnetic moments (NMagM)
  in nuclear magnetons)

  Atom         1           2           3           4           5           6           7           8           9          10
 IAtWgt=          12          12          12          12          12          12           1           1           1           1
 AtmWgt=  12.0000000  12.0000000  12.0000000  12.0000000  12.0000000  12.0000000   1.0078250   1.0078250   1.0078250   1.0078250
 NucSpn=           0           0           0           0           0           0           1           1           1           1
 AtZEff=  -0.0000000  -0.0000000  -0.0000000  -0.0000000  -0.0000000  -0.0000000  -0.0000000  -0.0000000  -0.0000000  -0.0000000
 NQMom=    0.0000000   0.0000000   0.0000000   0.0000000   0.0000000   0.0000000   0.0000000   0.0000000   0.0000000   0.0000000
 NMagM=    0.0000000   0.0000000   0.0000000   0.0000000   0.0000000   0.0000000   2.7928460   2.7928460   2.7928460   2.7928460
 AtZNuc=   6.0000000   6.0000000   6.0000000   6.0000000   6.0000000   6.0000000   1.0000000   1.0000000   1.0000000   1.0000000

  Atom        11          12          13          14          15          16          17          18          19          20
 IAtWgt=          14          32          12          12          12          12           1          12          12           1
 AtmWgt=  14.0030740  31.9720718  12.0000000  12.0000000  12.0000000  12.0000000   1.0078250  12.0000000  12.0000000   1.0078250
 NucSpn=           2           0           0           0           0           0           1           0           0           1
 AtZEff=  -0.0000000  -0.0000000  -0.0000000  -0.0000000  -0.0000000  -0.0000000  -0.0000000  -0.0000000  -0.0000000  -0.0000000
 NQMom=    2.0440000   0.0000000   0.0000000   0.0000000   0.0000000   0.0000000   0.0000000   0.0000000   0.0000000   0.0000000
 NMagM=    0.4037610   0.0000000   0.0000000   0.0000000   0.0000000   0.0000000   2.7928460   0.0000000   0.0000000   2.7928460
 AtZNuc=   7.0000000  16.0000000   6.0000000   6.0000000   6.0000000   6.0000000   1.0000000   6.0000000   6.0000000   1.0000000

  Atom        21          22          23          24          25
 IAtWgt=           1           1          12          16           1
 AtmWgt=   1.0078250   1.0078250  12.0000000  15.9949146   1.0078250
 NucSpn=           1           1           0           0           1
 AtZEff=  -0.0000000  -0.0000000  -0.0000000  -0.0000000  -0.0000000
 NQMom=    0.0000000   0.0000000   0.0000000   0.0000000   0.0000000
 NMagM=    2.7928460   2.7928460   0.0000000   0.0000000   2.7928460
 AtZNuc=   1.0000000   1.0000000   6.0000000   8.0000000   1.0000000
 Leave Link  101 at Wed Oct 28 00:31:21 2020, MaxMem=  7784628224 cpu:              32.4 elap:               5.2
 (Enter /gpfs/loomis/apps/avx/software/Gaussian/16-C.01_AVX/g16/l103.exe)

 GradGradGradGradGradGradGradGradGradGradGradGradGradGradGradGradGradGrad
 Berny optimization.
 Initialization pass.
                           ----------------------------
                           !    Initial Parameters    !
                           ! (Angstroms and Degrees)  !
 --------------------------                            --------------------------
 ! Name  Definition              Value          Derivative Info.                !
 --------------------------------------------------------------------------------
 ! R1    R(1,2)                  1.3925         estimate D2E/DX2                !
 ! R2    R(1,6)                  1.3932         estimate D2E/DX2                !
 ! R3    R(1,7)                  1.0934         estimate D2E/DX2                !
 ! R4    R(2,3)                  1.4291         estimate D2E/DX2                !
 ! R5    R(2,12)                 1.7432         estimate D2E/DX2                !
 ! R6    R(3,4)                  1.4188         estimate D2E/DX2                !
 ! R7    R(3,11)                 1.3599         estimate D2E/DX2                !
 ! R8    R(4,5)                  1.3915         estimate D2E/DX2                !
 ! R9    R(4,8)                  1.0935         estimate D2E/DX2                !
 ! R10   R(5,6)                  1.4089         estimate D2E/DX2                !
 ! R11   R(5,9)                  1.0935         estimate D2E/DX2                !
 ! R12   R(6,10)                 1.0925         estimate D2E/DX2                !
 ! R13   R(11,23)                1.3625         estimate D2E/DX2                !
 ! R14   R(12,23)                1.7512         estimate D2E/DX2                !
 ! R15   R(13,14)                1.4103         estimate D2E/DX2                !
 ! R16   R(13,15)                1.4694         estimate D2E/DX2                !
 ! R17   R(13,23)                1.4084         estimate D2E/DX2                !
 ! R18   R(14,16)                1.3962         estimate D2E/DX2                !
 ! R19   R(14,17)                1.0934         estimate D2E/DX2                !
 ! R20   R(15,18)                1.4141         estimate D2E/DX2                !
 ! R21   R(15,24)                1.2987         estimate D2E/DX2                !
 ! R22   R(16,19)                1.4127         estimate D2E/DX2                !
 ! R23   R(16,20)                1.0927         estimate D2E/DX2                !
 ! R24   R(18,19)                1.3992         estimate D2E/DX2                !
 ! R25   R(18,21)                1.0931         estimate D2E/DX2                !
 ! R26   R(19,22)                1.092          estimate D2E/DX2                !
 ! R27   R(24,25)                1.1167         estimate D2E/DX2                !
 ! A1    A(2,1,6)              118.2785         estimate D2E/DX2                !
 ! A2    A(2,1,7)              120.475          estimate D2E/DX2                !
 ! A3    A(6,1,7)              121.2464         estimate D2E/DX2                !
 ! A4    A(1,2,3)              122.9956         estimate D2E/DX2                !
 ! A5    A(1,2,12)             126.1662         estimate D2E/DX2                !
 ! A6    A(3,2,12)             110.8382         estimate D2E/DX2                !
 ! A7    A(2,3,4)              117.5484         estimate D2E/DX2                !
 ! A8    A(2,3,11)             113.8143         estimate D2E/DX2                !
 ! A9    A(4,3,11)             128.6374         estimate D2E/DX2                !
 ! A10   A(3,4,5)              119.0795         estimate D2E/DX2                !
 ! A11   A(3,4,8)              119.8646         estimate D2E/DX2                !
 ! A12   A(5,4,8)              121.0559         estimate D2E/DX2                !
 ! A13   A(4,5,6)              122.1376         estimate D2E/DX2                !
 ! A14   A(4,5,9)              118.8922         estimate D2E/DX2                !
 ! A15   A(6,5,9)              118.9701         estimate D2E/DX2                !
 ! A16   A(1,6,5)              119.9604         estimate D2E/DX2                !
 ! A17   A(1,6,10)             119.9646         estimate D2E/DX2                !
 ! A18   A(5,6,10)             120.075          estimate D2E/DX2                !
 ! A19   A(3,11,23)            111.9769         estimate D2E/DX2                !
 ! A20   A(2,12,23)             88.9075         estimate D2E/DX2                !
 ! A21   A(14,13,15)           118.907          estimate D2E/DX2                !
 ! A22   A(14,13,23)           123.4164         estimate D2E/DX2                !
 ! A23   A(15,13,23)           117.6766         estimate D2E/DX2                !
 ! A24   A(13,14,16)           120.2647         estimate D2E/DX2                !
 ! A25   A(13,14,17)           119.7724         estimate D2E/DX2                !
 ! A26   A(16,14,17)           119.963          estimate D2E/DX2                !
 ! A27   A(13,15,18)           119.1685         estimate D2E/DX2                !
 ! A28   A(13,15,24)           117.8673         estimate D2E/DX2                !
 ! A29   A(18,15,24)           122.9641         estimate D2E/DX2                !
 ! A30   A(14,16,19)           121.0585         estimate D2E/DX2                !
 ! A31   A(14,16,20)           119.348          estimate D2E/DX2                !
 ! A32   A(19,16,20)           119.5935         estimate D2E/DX2                !
 ! A33   A(15,18,19)           120.2348         estimate D2E/DX2                !
 ! A34   A(15,18,21)           118.1206         estimate D2E/DX2                !
 ! A35   A(19,18,21)           121.6446         estimate D2E/DX2                !
 ! A36   A(16,19,18)           120.3665         estimate D2E/DX2                !
 ! A37   A(16,19,22)           119.694          estimate D2E/DX2                !
 ! A38   A(18,19,22)           119.9395         estimate D2E/DX2                !
 ! A39   A(11,23,12)           114.4632         estimate D2E/DX2                !
 ! A40   A(11,23,13)           123.8835         estimate D2E/DX2                !
 ! A41   A(12,23,13)           121.6533         estimate D2E/DX2                !
 ! A42   A(15,24,25)           108.5186         estimate D2E/DX2                !
 ! D1    D(6,1,2,3)              0.0            estimate D2E/DX2                !
 ! D2    D(6,1,2,12)           180.0            estimate D2E/DX2                !
 ! D3    D(7,1,2,3)            179.9999         estimate D2E/DX2                !
 ! D4    D(7,1,2,12)            -0.0001         estimate D2E/DX2                !
 ! D5    D(2,1,6,5)             -0.0001         estimate D2E/DX2                !
 ! D6    D(2,1,6,10)           179.9999         estimate D2E/DX2                !
 ! D7    D(7,1,6,5)            180.0            estimate D2E/DX2                !
 ! D8    D(7,1,6,10)             0.0            estimate D2E/DX2                !
 ! D9    D(1,2,3,4)              0.0002         estimate D2E/DX2                !
 ! D10   D(1,2,3,11)          -180.0            estimate D2E/DX2                !
 ! D11   D(12,2,3,4)          -179.9999         estimate D2E/DX2                !
 ! D12   D(12,2,3,11)            0.0            estimate D2E/DX2                !
 ! D13   D(1,2,12,23)          179.9997         estimate D2E/DX2                !
 ! D14   D(3,2,12,23)           -0.0003         estimate D2E/DX2                !
 ! D15   D(2,3,4,5)             -0.0002         estimate D2E/DX2                !
 ! D16   D(2,3,4,8)            179.9999         estimate D2E/DX2                !
 ! D17   D(11,3,4,5)           180.0            estimate D2E/DX2                !
 ! D18   D(11,3,4,8)             0.0            estimate D2E/DX2                !
 ! D19   D(2,3,11,23)            0.0004         estimate D2E/DX2                !
 ! D20   D(4,3,11,23)         -179.9998         estimate D2E/DX2                !
 ! D21   D(3,4,5,6)              0.0            estimate D2E/DX2                !
 ! D22   D(3,4,5,9)           -179.9999         estimate D2E/DX2                !
 ! D23   D(8,4,5,6)            180.0            estimate D2E/DX2                !
 ! D24   D(8,4,5,9)              0.0            estimate D2E/DX2                !
 ! D25   D(4,5,6,1)              0.0001         estimate D2E/DX2                !
 ! D26   D(4,5,6,10)          -179.9999         estimate D2E/DX2                !
 ! D27   D(9,5,6,1)           -179.9999         estimate D2E/DX2                !
 ! D28   D(9,5,6,10)             0.0            estimate D2E/DX2                !
 ! D29   D(3,11,23,12)          -0.0006         estimate D2E/DX2                !
 ! D30   D(3,11,23,13)         179.9985         estimate D2E/DX2                !
 ! D31   D(2,12,23,11)           0.0005         estimate D2E/DX2                !
 ! D32   D(2,12,23,13)        -179.9986         estimate D2E/DX2                !
 ! D33   D(15,13,14,16)          0.0009         estimate D2E/DX2                !
 ! D34   D(15,13,14,17)       -179.9995         estimate D2E/DX2                !
 ! D35   D(23,13,14,16)       -179.9992         estimate D2E/DX2                !
 ! D36   D(23,13,14,17)          0.0004         estimate D2E/DX2                !
 ! D37   D(14,13,15,18)         -0.0011         estimate D2E/DX2                !
 ! D38   D(14,13,15,24)        179.9987         estimate D2E/DX2                !
 ! D39   D(23,13,15,18)        179.999          estimate D2E/DX2                !
 ! D40   D(23,13,15,24)         -0.0012         estimate D2E/DX2                !
 ! D41   D(14,13,23,11)        180.0            estimate D2E/DX2                !
 ! D42   D(14,13,23,12)         -0.001          estimate D2E/DX2                !
 ! D43   D(15,13,23,11)         -0.0001         estimate D2E/DX2                !
 ! D44   D(15,13,23,12)        179.9989         estimate D2E/DX2                !
 ! D45   D(13,14,16,19)         -0.0002         estimate D2E/DX2                !
 ! D46   D(13,14,16,20)        179.9997         estimate D2E/DX2                !
 ! D47   D(17,14,16,19)       -179.9999         estimate D2E/DX2                !
 ! D48   D(17,14,16,20)          0.0001         estimate D2E/DX2                !
 ! D49   D(13,15,18,19)          0.0006         estimate D2E/DX2                !
 ! D50   D(13,15,18,21)       -180.0            estimate D2E/DX2                !
 ! D51   D(24,15,18,19)       -179.9992         estimate D2E/DX2                !
 ! D52   D(24,15,18,21)          0.0003         estimate D2E/DX2                !
 ! D53   D(13,15,24,25)          0.0013         estimate D2E/DX2                !
 ! D54   D(18,15,24,25)       -179.9989         estimate D2E/DX2                !
 ! D55   D(14,16,19,18)         -0.0003         estimate D2E/DX2                !
 ! D56   D(14,16,19,22)        179.9999         estimate D2E/DX2                !
 ! D57   D(20,16,19,18)        179.9997         estimate D2E/DX2                !
 ! D58   D(20,16,19,22)         -0.0001         estimate D2E/DX2                !
 ! D59   D(15,18,19,16)          0.0001         estimate D2E/DX2                !
 ! D60   D(15,18,19,22)        179.9999         estimate D2E/DX2                !
 ! D61   D(21,18,19,16)       -179.9993         estimate D2E/DX2                !
 ! D62   D(21,18,19,22)          0.0005         estimate D2E/DX2                !
 ! Qtot  GIC-1                  -10.0           Frozen                          !
 ! Ptot  GIC-2                 120.0            Frozen                          !
 --------------------------------------------------------------------------------
 NOTE: GIC-type coordinates are in arbitrary units.
 Trust Radius=3.00D-01 FncErr=5.00D-06 GrdErr=5.00D-06 EigMax=2.50D+02 EigMin=1.00D-04
 Number of steps in this run=    143 maximum allowed number of steps=    150.
 GradGradGradGradGradGradGradGradGradGradGradGradGradGradGradGradGradGrad

 Leave Link  103 at Wed Oct 28 00:31:21 2020, MaxMem=  7784628224 cpu:               0.2 elap:               0.0
 (Enter /gpfs/loomis/apps/avx/software/Gaussian/16-C.01_AVX/g16/l202.exe)
                          Input orientation:                          
 ---------------------------------------------------------------------
 Center     Atomic      Atomic             Coordinates (Angstroms)
 Number     Number       Type             X           Y           Z
 ---------------------------------------------------------------------
      1          6           0        1.575717   -3.257092   -0.000018
      2          6           0        0.997733   -1.990238   -0.000022
      3          6           0        1.765192   -0.784648   -0.000026
      4          6           0        3.178745   -0.906624   -0.000028
      5          6           0        3.747999   -2.176373   -0.000024
      6          6           0        2.965972   -3.348320   -0.000018
      7          1           0        0.948530   -4.152782   -0.000015
      8          1           0        3.802770   -0.008651   -0.000032
      9          1           0        4.837780   -2.266823   -0.000024
     10          1           0        3.448486   -4.328477   -0.000013
     11          7           0        1.010553    0.346649   -0.000029
     12         16           0       -0.709569   -1.638474   -0.000024
     13          6           0       -1.329997    1.054852    0.000009
     14          6           0       -2.708429    0.756930    0.000017
     15          6           0       -0.907467    2.462219    0.000035
     16          6           0       -3.650965    1.786953    0.000030
     17          1           0       -3.038628   -0.285466    0.000007
     18          6           0       -1.891916    3.477374    0.000044
     19          6           0       -3.250187    3.141601    0.000041
     20          1           0       -4.715191    1.539056    0.000032
     21          1           0       -1.558497    4.518403    0.000062
     22          1           0       -4.006385    3.929470    0.000049
     23          6           0       -0.323539    0.069675   -0.000020
     24          8           0        0.366728    2.713502    0.000053
     25          1           0        0.919594    1.743231    0.000020
 ---------------------------------------------------------------------
                    Distance matrix (angstroms):
                    1          2          3          4          5
     1  C    0.000000
     2  C    1.392475   0.000000
     3  C    2.479693   1.429140   0.000000
     4  C    2.845066   2.435371   1.418805   0.000000
     5  C    2.426265   2.756558   2.422482   1.391515   0.000000
     6  C    1.393244   2.391308   2.830951   2.450950   1.408910
     7  H    1.093446   2.163104   3.465727   3.938452   3.426838
     8  H    3.938545   3.434374   2.180343   1.093510   2.168414
     9  H    3.409060   3.849996   3.411399   2.145353   1.093529
    10  H    2.157575   3.387264   3.923289   3.432468   2.172846
    11  N    3.647788   2.336922   1.359895   2.504346   3.722801
    12  S    2.800439   1.743163   2.617911   3.956588   4.489904
    13  C    5.199619   3.832870   3.600550   4.916924   6.018875
    14  C    5.870799   4.613303   4.731781   6.117698   7.091525
    15  C    6.235120   4.842949   4.205384   5.295869   6.571902
    16  C    7.263649   5.989788   5.995656   7.341681   8.393605
    17  H    5.488419   4.381604   4.829686   6.248324   7.045128
    18  C    7.574795   6.184242   5.615984   6.703062   7.985831
    19  C    8.014527   6.661877   6.369417   7.597322   8.789508
    20  H    7.910661   6.715163   6.884401   8.264114   9.242835
    21  H    8.383414   6.992619   6.258535   7.202248   8.542770
    22  H    9.099810   7.751395   7.452115   8.661056   9.869741
    23  C    3.830738   2.447243   2.256694   3.635815   4.649962
    24  O    6.091769   4.745876   3.767328   4.583967   5.945071
    25  H    5.043187   3.734287   2.665560   3.482168   4.833546
                    6          7          8          9         10
     6  C    0.000000
     7  H    2.171918   0.000000
     8  H    3.442909   5.031949   0.000000
     9  H    2.161783   4.322396   2.484067   0.000000
    10  H    1.092487   2.506122   4.334330   2.486072   0.000000
    11  N    4.180486   4.499858   2.814732   4.634426   5.272601
    12  S    4.053785   3.011816   4.797658   5.582822   4.952327
    13  C    6.151688   5.684289   5.241788   7.005355   7.198203
    14  C    7.003707   6.121979   6.556053   8.129475   7.985548
    15  C    6.983258   6.870441   5.318978   7.441217   8.067706
    16  C    8.375851   7.512377   7.666965   9.407013   9.370202
    17  H    6.740645   5.554598   6.846996   8.121797   7.643859
    18  C    8.377898   8.141708   6.676962   8.847860   9.457865
    19  C    8.986641   8.416487   7.724526   9.729660  10.033658
    20  H    9.104214   8.029618   8.657428  10.283189  10.053535
    21  H    9.075029   9.026330   7.016937   9.324788  10.165489
    22  H   10.078690   9.480189   8.745953  10.798764  11.125142
    23  C    4.743793   4.409910   4.127053   5.665549   5.794128
    24  O    6.595586   6.890889   4.383663   6.692828   7.686788
    25  H    5.487400   5.896084   3.373692   5.606489   6.577305
                   11         12         13         14         15
    11  N    0.000000
    12  S    2.626696   0.000000
    13  C    2.445347   2.763862   0.000000
    14  C    3.741545   3.119840   1.410260   0.000000
    15  C    2.855597   4.105465   1.469426   2.480217   0.000000
    16  C    4.878957   4.515015   2.433693   1.396181   2.825379
    17  H    4.098223   2.693538   2.171606   1.093444   3.477301
    18  C    4.269165   5.250699   2.486839   2.840336   1.414101
    19  C    5.095652   5.413304   2.835781   2.445437   2.439242
    20  H    5.848588   5.112896   3.419648   2.153791   3.918034
    21  H    4.899342   6.215128   3.471080   3.933322   2.156788
    22  H    6.164923   6.470780   3.927656   3.427783   3.428720
    23  C    1.362540   1.751226   1.408379   2.481939   2.462770
    24  O    2.452857   4.483092   2.372762   3.644828   1.298736
    25  H    1.399541   3.753678   2.352557   3.759700   1.963439
                   16         17         18         19         20
    16  C    0.000000
    17  H    2.160990   0.000000
    18  C    2.439626   3.933689   0.000000
    19  C    1.412691   3.433591   1.399158   0.000000
    20  H    1.092717   2.477851   3.424610   2.171264   0.000000
    21  H    3.440820   5.026723   1.093119   2.181146   4.340648
    22  H    2.171797   4.324609   2.162260   1.092049   2.493288
    23  C    3.744436   2.738217   3.751296   4.242877   4.630949
    24  O    4.123148   4.537650   2.384319   3.642163   5.215863
    25  H    4.570768   4.447823   3.303307   4.398013   5.638483
                   21         22         23         24         25
    21  H    0.000000
    22  H    2.517736   0.000000
    23  C    4.616958   5.334920   0.000000
    24  O    2.638969   4.539019   2.732452   0.000000
    25  H    3.720553   5.389333   2.084747   1.116730   0.000000
 Symmetry turned off by external request.
 Stoichiometry    C13H9NOS
 Framework group  C1[X(C13H9NOS)]
 Deg. of freedom    69
 Full point group                 C1      NOp   1
 Rotational constants (GHZ):           1.3991638           0.2863454           0.2376991
 Leave Link  202 at Wed Oct 28 00:31:21 2020, MaxMem=  7784628224 cpu:               0.3 elap:               0.1
 (Enter /gpfs/loomis/apps/avx/software/Gaussian/16-C.01_AVX/g16/l301.exe)
 Standard basis: CC-pVDZ (5D, 7F)
 Ernie: Thresh=  0.10000D-02 Tol=  0.10000D-05 Strict=F.
 Ernie:  40 primitive shells out of 425 were deleted.
   273 basis functions,   629 primitive gaussians,   289 cartesian basis functions
    59 alpha electrons       59 beta electrons
       nuclear repulsion energy      1099.9817769707 Hartrees.
 IExCor= 4639 DFT=T Ex+Corr=wB97XD ExCW=0 ScaHFX=  1.000000
 ScaDFX=  1.000000  1.000000  1.000000  1.000000 ScalE2=  1.000000  1.000000
 IRadAn=      5 IRanWt=     -1 IRanGd=            0 ICorTp=0 IEmpDi=121
 HFx  wShort=  0.000000 wLong=  0.200000 cFull=  0.222036 cShort=  0.000000 cLong=  0.777964
 DFx  wShort=  0.000000 wLong=  0.200000 cFull=  0.000000 cShort=  0.000000 cLong=  1.000000
 NAtoms=   25 NActive=   25 NUniq=   25 SFac= 1.00D+00 NAtFMM=   60 NAOKFM=F Big=F
 Integral buffers will be    131072 words long.
 Raffenetti 2 integral format.
 Two-electron integral symmetry is turned off.
 R6Disp:  Grimme-D2 Dispersion energy=       -0.0138574436 Hartrees.
 Nuclear repulsion after empirical dispersion term =     1099.9679195270 Hartrees.
 ------------------------------------------------------------------------------
 Polarizable Continuum Model (PCM)
 =================================
 Model                : PCM.
 Atomic radii         : UFF (Universal Force Field).
 Polarization charges : Total charges.
 Charge compensation  : None.
 Solution method      : On-the-fly selection.
 Cavity type          : Scaled VdW (van der Waals Surface) (Alpha=1.100).
 Cavity algorithm     : GePol (No added spheres)
                        Default sphere list used, NSphG=   25.
                        Lebedev-Laikov grids with approx.  5.0 points / Ang**2.
                        Smoothing algorithm: York/Karplus (Gamma=1.0000).
                        Polarization charges: spherical gaussians, with
                                              point-specific exponents (IZeta= 3).
                        Self-potential: point-specific (ISelfS= 7).
                        Self-field    : sphere-specific E.n sum rule (ISelfD= 2).
 1st derivatives      : Analytical E(r).r(x)/FMM algorithm (CHGder, D1EAlg=3).
                        Cavity 1st derivative terms included.
 Solvent              : CarbonTetraChloride, Eps=   2.228000 Eps(inf)=   2.131892
 ------------------------------------------------------------------------------
 GePol: Number of generator spheres                  =      25
 GePol: Total number of spheres                      =      25
 GePol: Number of exposed spheres                    =      25 (100.00%)
 GePol: Number of points                             =    2183
 GePol: Average weight of points                     =       0.12
 GePol: Minimum weight of points                     =   0.21D-10
 GePol: Maximum weight of points                     =    0.20577
 GePol: Number of points with low weight             =     138
 GePol: Fraction of low-weight points (<1% of avg)   =       6.32%
 GePol: Cavity surface area                          =    271.703 Ang**2
 GePol: Cavity volume                                =    291.993 Ang**3
 Leave Link  301 at Wed Oct 28 00:31:21 2020, MaxMem=  7784628224 cpu:               1.0 elap:               0.2
 (Enter /gpfs/loomis/apps/avx/software/Gaussian/16-C.01_AVX/g16/l302.exe)
 NPDir=0 NMtPBC=     1 NCelOv=     1 NCel=       1 NClECP=     1 NCelD=      1
         NCelK=      1 NCelE2=     1 NClLst=     1 CellRange=     0.0.
 One-electron integrals computed using PRISM.
 NBasis=   273 RedAO= T EigKep=  3.18D-04  NBF=   273
 NBsUse=   273 1.00D-06 EigRej= -1.00D+00 NBFU=   273
 Precomputing XC quadrature grid using
 IXCGrd= 4 IRadAn=           5 IRanWt=          -1 IRanGd=           0 AccXCQ= 0.00D+00.
 Generated NRdTot=       0 NPtTot=           0 NUsed=           0 NTot=          32
 NSgBfM=   288   288   288   288   288 MxSgAt=    25 MxSgA2=    25.
 Leave Link  302 at Wed Oct 28 00:31:23 2020, MaxMem=  7784628224 cpu:               6.9 elap:               1.3
 (Enter /gpfs/loomis/apps/avx/software/Gaussian/16-C.01_AVX/g16/l303.exe)
 DipDrv:  MaxL=1.
 Leave Link  303 at Wed Oct 28 00:31:23 2020, MaxMem=  7784628224 cpu:               0.5 elap:               0.1
 (Enter /gpfs/loomis/apps/avx/software/Gaussian/16-C.01_AVX/g16/l401.exe)
 ExpMin= 1.22D-01 ExpMax= 1.11D+05 ExpMxC= 1.07D+03 IAcc=3 IRadAn=         5 AccDes= 0.00D+00
 Harris functional with IExCor= 4639 and IRadAn=       5 diagonalized for initial guess.
 HarFok:  IExCor= 4639 AccDes= 0.00D+00 IRadAn=         5 IDoV= 1 UseB2=F ITyADJ=14
 ICtDFT=  3500011 ScaDFX=  1.000000  1.000000  1.000000  1.000000
 FoFCou: FMM=F IPFlag=           0 FMFlag=      100000 FMFlg1=           0
         NFxFlg=           0 DoJE=T BraDBF=F KetDBF=T FulRan=T
         wScrn=  0.000000 ICntrl=       500 IOpCl=  0 I1Cent=   200000004 NGrid=           0
         NMat0=    1 NMatS0=      1 NMatT0=    0 NMatD0=    1 NMtDS0=    0 NMtDT0=    0
 Symmetry not used in FoFCou.
 Harris En= -994.457975717184    
 JPrj=0 DoOrth=F DoCkMO=F.
 Leave Link  401 at Wed Oct 28 00:31:26 2020, MaxMem=  7784628224 cpu:              17.8 elap:               3.0
 (Enter /gpfs/loomis/apps/avx/software/Gaussian/16-C.01_AVX/g16/l502.exe)
 Two-electron integral symmetry not used.
 Closed shell SCF:
 Using DIIS extrapolation, IDIIS=  1040.
 NGot=  7784628224 LenX=  7784455381 LenY=  7784371419
 Requested convergence on RMS density matrix=1.00D-08 within 128 cycles.
 Requested convergence on MAX density matrix=1.00D-06.
 Requested convergence on             energy=1.00D-06.
 No special actions if energy rises.
 Fock matrices will be formed incrementally for  20 cycles.

 Cycle   1  Pass 1  IDiag  1:
 FoFJK:  IHMeth= 1 ICntrl=       0 DoSepK=T KAlg= 0 I1Cent=           0 FoldK=F
 IRaf=         1 NMat=       1 IRICut=       1 DoRegI=T DoRafI=F ISym2E= 0 IDoP0=0 IntGTp=1.
 FoFCou: FMM=F IPFlag=           0 FMFlag=      100000 FMFlg1=           0
         NFxFlg=           0 DoJE=T BraDBF=F KetDBF=F FulRan=T
         wScrn=  0.000000 ICntrl=       500 IOpCl=  0 I1Cent=           0 NGrid=           0
         NMat0=    1 NMatS0=      1 NMatT0=    0 NMatD0=    1 NMtDS0=    0 NMtDT0=    0
 Symmetry not used in FoFCou.
 Inv3:  Mode=1 IEnd=    14296467.
 Iteration    1 A*A^-1 deviation from unit magnitude is 4.11D-15 for   2167.
 Iteration    1 A*A^-1 deviation from orthogonality  is 1.55D-15 for    936    117.
 Iteration    1 A^-1*A deviation from unit magnitude is 4.33D-15 for   2167.
 Iteration    1 A^-1*A deviation from orthogonality  is 1.85D-15 for   2177   1291.
 E= -1028.58269144504    
 DIIS: error= 2.70D-02 at cycle   1 NSaved=   1.
 NSaved= 1 IEnMin= 1 EnMin= -1028.58269144504     IErMin= 1 ErrMin= 2.70D-02
 ErrMax= 2.70D-02  0.00D+00 EMaxC= 1.00D-01 BMatC= 3.89D-01 BMatP= 3.89D-01
 IDIUse=3 WtCom= 7.30D-01 WtEn= 2.70D-01
 Coeff-Com:  0.100D+01
 Coeff-En:   0.100D+01
 Coeff:      0.100D+01
 Gap=     0.347 Goal=   None    Shift=    0.000
 GapD=    0.347 DampG=1.000 DampE=0.500 DampFc=0.5000 IDamp=-1.
 Damping current iteration by 5.00D-01
 RMSDP=3.50D-03 MaxDP=2.21D-01              OVMax= 1.71D-01

 Cycle   2  Pass 1  IDiag  1:
 RMSU=  1.74D-03    CP:  9.93D-01
 E= -1028.69850267918     Delta-E=       -0.115811234140 Rises=F Damp=T
 DIIS: error= 1.07D-02 at cycle   2 NSaved=   2.
 NSaved= 2 IEnMin= 2 EnMin= -1028.69850267918     IErMin= 2 ErrMin= 1.07D-02
 ErrMax= 1.07D-02  0.00D+00 EMaxC= 1.00D-01 BMatC= 5.77D-02 BMatP= 3.89D-01
 IDIUse=3 WtCom= 8.93D-01 WtEn= 1.07D-01
 Coeff-Com: -0.295D+00 0.130D+01
 Coeff-En:   0.000D+00 0.100D+01
 Coeff:     -0.264D+00 0.126D+01
 Gap=     0.304 Goal=   None    Shift=    0.000
 RMSDP=1.13D-03 MaxDP=2.35D-02 DE=-1.16D-01 OVMax= 1.10D-01

 Cycle   3  Pass 1  IDiag  1:
 RMSU=  1.07D-03    CP:  9.91D-01  1.20D+00
 E= -1028.80080405499     Delta-E=       -0.102301375802 Rises=F Damp=F
 DIIS: error= 6.52D-03 at cycle   3 NSaved=   3.
 NSaved= 3 IEnMin= 3 EnMin= -1028.80080405499     IErMin= 3 ErrMin= 6.52D-03
 ErrMax= 6.52D-03  0.00D+00 EMaxC= 1.00D-01 BMatC= 1.34D-02 BMatP= 5.77D-02
 IDIUse=3 WtCom= 9.35D-01 WtEn= 6.52D-02
 Coeff-Com: -0.203D+00 0.482D+00 0.721D+00
 Coeff-En:   0.000D+00 0.000D+00 0.100D+01
 Coeff:     -0.190D+00 0.450D+00 0.739D+00
 Gap=     0.263 Goal=   None    Shift=    0.000
 RMSDP=5.20D-04 MaxDP=1.96D-02 DE=-1.02D-01 OVMax= 3.80D-02

 Cycle   4  Pass 1  IDiag  1:
 RMSU=  4.01D-04    CP:  9.88D-01  1.36D+00  8.45D-01
 E= -1028.81312476771     Delta-E=       -0.012320712724 Rises=F Damp=F
 DIIS: error= 2.19D-03 at cycle   4 NSaved=   4.
 NSaved= 4 IEnMin= 4 EnMin= -1028.81312476771     IErMin= 4 ErrMin= 2.19D-03
 ErrMax= 2.19D-03  0.00D+00 EMaxC= 1.00D-01 BMatC= 1.61D-03 BMatP= 1.34D-02
 IDIUse=3 WtCom= 9.78D-01 WtEn= 2.19D-02
 Coeff-Com: -0.711D-01 0.141D+00 0.351D+00 0.579D+00
 Coeff-En:   0.000D+00 0.000D+00 0.000D+00 0.100D+01
 Coeff:     -0.696D-01 0.138D+00 0.343D+00 0.588D+00
 Gap=     0.260 Goal=   None    Shift=    0.000
 RMSDP=1.62D-04 MaxDP=9.22D-03 DE=-1.23D-02 OVMax= 1.30D-02

 Cycle   5  Pass 1  IDiag  1:
 RMSU=  1.01D-04    CP:  9.89D-01  1.37D+00  9.14D-01  7.47D-01
 E= -1028.81476374986     Delta-E=       -0.001638982147 Rises=F Damp=F
 DIIS: error= 3.70D-04 at cycle   5 NSaved=   5.
 NSaved= 5 IEnMin= 5 EnMin= -1028.81476374986     IErMin= 5 ErrMin= 3.70D-04
 ErrMax= 3.70D-04  0.00D+00 EMaxC= 1.00D-01 BMatC= 4.88D-05 BMatP= 1.61D-03
 IDIUse=3 WtCom= 9.96D-01 WtEn= 3.70D-03
 Coeff-Com: -0.934D-03-0.401D-02 0.346D-01 0.159D+00 0.811D+00
 Coeff-En:   0.000D+00 0.000D+00 0.000D+00 0.000D+00 0.100D+01
 Coeff:     -0.930D-03-0.399D-02 0.344D-01 0.158D+00 0.812D+00
 Gap=     0.261 Goal=   None    Shift=    0.000
 RMSDP=5.00D-05 MaxDP=1.54D-03 DE=-1.64D-03 OVMax= 4.65D-03

 Cycle   6  Pass 1  IDiag  1:
 RMSU=  3.18D-05    CP:  9.88D-01  1.37D+00  9.33D-01  8.26D-01  1.07D+00
 E= -1028.81486250218     Delta-E=       -0.000098752328 Rises=F Damp=F
 DIIS: error= 1.66D-04 at cycle   6 NSaved=   6.
 NSaved= 6 IEnMin= 6 EnMin= -1028.81486250218     IErMin= 6 ErrMin= 1.66D-04
 ErrMax= 1.66D-04  0.00D+00 EMaxC= 1.00D-01 BMatC= 7.95D-06 BMatP= 4.88D-05
 IDIUse=3 WtCom= 9.98D-01 WtEn= 1.66D-03
 Coeff-Com:  0.141D-01-0.291D-01-0.549D-01-0.564D-01 0.211D+00 0.915D+00
 Coeff-En:   0.000D+00 0.000D+00 0.000D+00 0.000D+00 0.000D+00 0.100D+01
 Coeff:      0.141D-01-0.291D-01-0.548D-01-0.563D-01 0.211D+00 0.915D+00
 Gap=     0.262 Goal=   None    Shift=    0.000
 RMSDP=2.74D-05 MaxDP=1.48D-03 DE=-9.88D-05 OVMax= 2.54D-03

 Cycle   7  Pass 1  IDiag  1:
 RMSU=  1.43D-05    CP:  9.88D-01  1.37D+00  9.43D-01  8.52D-01  1.23D+00
                    CP:  1.21D+00
 E= -1028.81488538185     Delta-E=       -0.000022879665 Rises=F Damp=F
 DIIS: error= 9.80D-05 at cycle   7 NSaved=   7.
 NSaved= 7 IEnMin= 7 EnMin= -1028.81488538185     IErMin= 7 ErrMin= 9.80D-05
 ErrMax= 9.80D-05  0.00D+00 EMaxC= 1.00D-01 BMatC= 1.99D-06 BMatP= 7.95D-06
 IDIUse=1 WtCom= 1.00D+00 WtEn= 0.00D+00
 Coeff-Com:  0.636D-02-0.122D-01-0.287D-01-0.453D-01-0.122D-01 0.414D+00
 Coeff-Com:  0.678D+00
 Coeff:      0.636D-02-0.122D-01-0.287D-01-0.453D-01-0.122D-01 0.414D+00
 Coeff:      0.678D+00
 Gap=     0.262 Goal=   None    Shift=    0.000
 RMSDP=9.29D-06 MaxDP=3.98D-04 DE=-2.29D-05 OVMax= 1.08D-03

 Cycle   8  Pass 1  IDiag  1:
 RMSU=  5.80D-06    CP:  9.88D-01  1.37D+00  9.45D-01  8.59D-01  1.26D+00
                    CP:  1.39D+00  1.09D+00
 E= -1028.81488896963     Delta-E=       -0.000003587784 Rises=F Damp=F
 DIIS: error= 3.67D-05 at cycle   8 NSaved=   8.
 NSaved= 8 IEnMin= 8 EnMin= -1028.81488896963     IErMin= 8 ErrMin= 3.67D-05
 ErrMax= 3.67D-05  0.00D+00 EMaxC= 1.00D-01 BMatC= 2.70D-07 BMatP= 1.99D-06
 IDIUse=1 WtCom= 1.00D+00 WtEn= 0.00D+00
 Coeff-Com: -0.107D-02 0.239D-02 0.317D-02 0.232D-03-0.412D-01-0.592D-01
 Coeff-Com:  0.230D+00 0.865D+00
 Coeff:     -0.107D-02 0.239D-02 0.317D-02 0.232D-03-0.412D-01-0.592D-01
 Coeff:      0.230D+00 0.865D+00
 Gap=     0.262 Goal=   None    Shift=    0.000
 RMSDP=4.45D-06 MaxDP=1.49D-04 DE=-3.59D-06 OVMax= 5.80D-04

 Cycle   9  Pass 1  IDiag  1:
 RMSU=  2.12D-06    CP:  9.88D-01  1.37D+00  9.44D-01  8.58D-01  1.27D+00
                    CP:  1.45D+00  1.30D+00  1.13D+00
 E= -1028.81488966786     Delta-E=       -0.000000698221 Rises=F Damp=F
 DIIS: error= 1.32D-05 at cycle   9 NSaved=   9.
 NSaved= 9 IEnMin= 9 EnMin= -1028.81488966786     IErMin= 9 ErrMin= 1.32D-05
 ErrMax= 1.32D-05  0.00D+00 EMaxC= 1.00D-01 BMatC= 3.59D-08 BMatP= 2.70D-07
 IDIUse=1 WtCom= 1.00D+00 WtEn= 0.00D+00
 Coeff-Com: -0.109D-02 0.217D-02 0.443D-02 0.598D-02-0.115D-01-0.757D-01
 Coeff-Com: -0.880D-02 0.263D+00 0.822D+00
 Coeff:     -0.109D-02 0.217D-02 0.443D-02 0.598D-02-0.115D-01-0.757D-01
 Coeff:     -0.880D-02 0.263D+00 0.822D+00
 Gap=     0.262 Goal=   None    Shift=    0.000
 RMSDP=1.89D-06 MaxDP=5.68D-05 DE=-6.98D-07 OVMax= 2.80D-04

 Cycle  10  Pass 1  IDiag  1:
 RMSU=  9.43D-07    CP:  9.88D-01  1.37D+00  9.44D-01  8.58D-01  1.27D+00
                    CP:  1.48D+00  1.37D+00  1.27D+00  1.19D+00
 E= -1028.81488979472     Delta-E=       -0.000000126864 Rises=F Damp=F
 DIIS: error= 7.96D-06 at cycle  10 NSaved=  10.
 NSaved=10 IEnMin=10 EnMin= -1028.81488979472     IErMin=10 ErrMin= 7.96D-06
 ErrMax= 7.96D-06  0.00D+00 EMaxC= 1.00D-01 BMatC= 8.79D-09 BMatP= 3.59D-08
 IDIUse=1 WtCom= 1.00D+00 WtEn= 0.00D+00
 Coeff-Com: -0.156D-03 0.268D-03 0.895D-03 0.222D-02 0.354D-02-0.191D-01
 Coeff-Com: -0.418D-01-0.788D-01 0.293D+00 0.840D+00
 Coeff:     -0.156D-03 0.268D-03 0.895D-03 0.222D-02 0.354D-02-0.191D-01
 Coeff:     -0.418D-01-0.788D-01 0.293D+00 0.840D+00
 Gap=     0.262 Goal=   None    Shift=    0.000
 RMSDP=1.01D-06 MaxDP=3.10D-05 DE=-1.27D-07 OVMax= 1.67D-04

 Cycle  11  Pass 1  IDiag  1:
 RMSU=  4.23D-07    CP:  9.88D-01  1.37D+00  9.44D-01  8.58D-01  1.28D+00
                    CP:  1.49D+00  1.40D+00  1.34D+00  1.46D+00  1.23D+00
 E= -1028.81488982836     Delta-E=       -0.000000033639 Rises=F Damp=F
 DIIS: error= 3.41D-06 at cycle  11 NSaved=  11.
 NSaved=11 IEnMin=11 EnMin= -1028.81488982836     IErMin=11 ErrMin= 3.41D-06
 ErrMax= 3.41D-06  0.00D+00 EMaxC= 1.00D-01 BMatC= 1.58D-09 BMatP= 8.79D-09
 IDIUse=1 WtCom= 1.00D+00 WtEn= 0.00D+00
 Coeff-Com:  0.196D-03-0.403D-03-0.712D-03-0.563D-03 0.382D-02 0.838D-02
 Coeff-Com: -0.453D-02-0.753D-01-0.735D-01 0.223D+00 0.919D+00
 Coeff:      0.196D-03-0.403D-03-0.712D-03-0.563D-03 0.382D-02 0.838D-02
 Coeff:     -0.453D-02-0.753D-01-0.735D-01 0.223D+00 0.919D+00
 Gap=     0.262 Goal=   None    Shift=    0.000
 RMSDP=4.81D-07 MaxDP=1.18D-05 DE=-3.36D-08 OVMax= 8.64D-05

 Cycle  12  Pass 1  IDiag  1:
 RMSU=  1.82D-07    CP:  9.88D-01  1.37D+00  9.44D-01  8.58D-01  1.28D+00
                    CP:  1.49D+00  1.41D+00  1.36D+00  1.59D+00  1.52D+00
                    CP:  1.19D+00
 E= -1028.81488983573     Delta-E=       -0.000000007368 Rises=F Damp=F
 DIIS: error= 1.28D-06 at cycle  12 NSaved=  12.
 NSaved=12 IEnMin=12 EnMin= -1028.81488983573     IErMin=12 ErrMin= 1.28D-06
 ErrMax= 1.28D-06  0.00D+00 EMaxC= 1.00D-01 BMatC= 3.77D-10 BMatP= 1.58D-09
 IDIUse=1 WtCom= 1.00D+00 WtEn= 0.00D+00
 Coeff-Com:  0.101D-03-0.198D-03-0.446D-03-0.696D-03 0.844D-03 0.661D-02
 Coeff-Com:  0.905D-02-0.134D-01-0.946D-01-0.125D+00 0.314D+00 0.904D+00
 Coeff:      0.101D-03-0.198D-03-0.446D-03-0.696D-03 0.844D-03 0.661D-02
 Coeff:      0.905D-02-0.134D-01-0.946D-01-0.125D+00 0.314D+00 0.904D+00
 Gap=     0.262 Goal=   None    Shift=    0.000
 RMSDP=2.62D-07 MaxDP=6.32D-06 DE=-7.37D-09 OVMax= 4.32D-05

 Cycle  13  Pass 1  IDiag  1:
 RMSU=  7.53D-08    CP:  9.88D-01  1.37D+00  9.44D-01  8.58D-01  1.28D+00
                    CP:  1.49D+00  1.42D+00  1.37D+00  1.66D+00  1.66D+00
                    CP:  1.50D+00  1.15D+00
 E= -1028.81488983731     Delta-E=       -0.000000001580 Rises=F Damp=F
 DIIS: error= 3.98D-07 at cycle  13 NSaved=  13.
 NSaved=13 IEnMin=13 EnMin= -1028.81488983731     IErMin=13 ErrMin= 3.98D-07
 ErrMax= 3.98D-07  0.00D+00 EMaxC= 1.00D-01 BMatC= 4.20D-11 BMatP= 3.77D-10
 IDIUse=1 WtCom= 1.00D+00 WtEn= 0.00D+00
 Coeff-Com: -0.470D-05 0.124D-04-0.549D-05-0.102D-03-0.232D-03 0.529D-03
 Coeff-Com:  0.385D-02 0.766D-02-0.131D-01-0.694D-01-0.637D-01 0.257D+00
 Coeff-Com:  0.878D+00
 Coeff:     -0.470D-05 0.124D-04-0.549D-05-0.102D-03-0.232D-03 0.529D-03
 Coeff:      0.385D-02 0.766D-02-0.131D-01-0.694D-01-0.637D-01 0.257D+00
 Coeff:      0.878D+00
 Gap=     0.262 Goal=   None    Shift=    0.000
 RMSDP=7.26D-08 MaxDP=1.78D-06 DE=-1.58D-09 OVMax= 1.05D-05

 Cycle  14  Pass 1  IDiag  1:
 RMSU=  2.73D-08    CP:  9.88D-01  1.37D+00  9.44D-01  8.58D-01  1.28D+00
                    CP:  1.49D+00  1.42D+00  1.37D+00  1.67D+00  1.69D+00
                    CP:  1.57D+00  1.34D+00  1.13D+00
 E= -1028.81488983744     Delta-E=       -0.000000000130 Rises=F Damp=F
 DIIS: error= 1.21D-07 at cycle  14 NSaved=  14.
 NSaved=14 IEnMin=14 EnMin= -1028.81488983744     IErMin=14 ErrMin= 1.21D-07
 ErrMax= 1.21D-07  0.00D+00 EMaxC= 1.00D-01 BMatC= 5.80D-12 BMatP= 4.20D-11
 IDIUse=1 WtCom= 1.00D+00 WtEn= 0.00D+00
 Coeff-Com: -0.103D-04 0.212D-04 0.370D-04 0.201D-04-0.150D-03-0.452D-03
 Coeff-Com:  0.650D-03 0.382D-02 0.426D-02-0.132D-01-0.488D-01 0.202D-01
 Coeff-Com:  0.333D+00 0.700D+00
 Coeff:     -0.103D-04 0.212D-04 0.370D-04 0.201D-04-0.150D-03-0.452D-03
 Coeff:      0.650D-03 0.382D-02 0.426D-02-0.132D-01-0.488D-01 0.202D-01
 Coeff:      0.333D+00 0.700D+00
 Gap=     0.262 Goal=   None    Shift=    0.000
 RMSDP=1.42D-08 MaxDP=4.69D-07 DE=-1.30D-10 OVMax= 1.59D-06

 Cycle  15  Pass 1  IDiag  1:
 RMSU=  1.00D-08    CP:  9.88D-01  1.37D+00  9.44D-01  8.58D-01  1.28D+00
                    CP:  1.49D+00  1.42D+00  1.37D+00  1.67D+00  1.70D+00
                    CP:  1.58D+00  1.37D+00  1.23D+00  1.00D+00
 E= -1028.81488983745     Delta-E=       -0.000000000016 Rises=F Damp=F
 DIIS: error= 5.17D-08 at cycle  15 NSaved=  15.
 NSaved=15 IEnMin=15 EnMin= -1028.81488983745     IErMin=15 ErrMin= 5.17D-08
 ErrMax= 5.17D-08  0.00D+00 EMaxC= 1.00D-01 BMatC= 1.08D-12 BMatP= 5.80D-12
 IDIUse=1 WtCom= 1.00D+00 WtEn= 0.00D+00
 Coeff-Com: -0.352D-05 0.662D-05 0.185D-04 0.312D-04-0.162D-04-0.326D-03
 Coeff-Com: -0.589D-03-0.139D-03 0.450D-02 0.925D-02-0.755D-02-0.514D-01
 Coeff-Com: -0.586D-01 0.263D+00 0.842D+00
 Coeff:     -0.352D-05 0.662D-05 0.185D-04 0.312D-04-0.162D-04-0.326D-03
 Coeff:     -0.589D-03-0.139D-03 0.450D-02 0.925D-02-0.755D-02-0.514D-01
 Coeff:     -0.586D-01 0.263D+00 0.842D+00
 Gap=     0.262 Goal=   None    Shift=    0.000
 RMSDP=9.44D-09 MaxDP=2.47D-07 DE=-1.59D-11 OVMax= 1.11D-06

 Error on total polarization charges =  0.00833
 SCF Done:  E(RwB97XD) =  -1028.81488984     A.U. after   15 cycles
            NFock= 15  Conv=0.94D-08     -V/T= 2.0050
 KE= 1.023664598454D+03 PE=-4.612046613781D+03 EE= 1.459599205963D+03
 Leave Link  502 at Wed Oct 28 00:32:59 2020, MaxMem=  7784628224 cpu:             857.7 elap:              93.1
 (Enter /gpfs/loomis/apps/avx/software/Gaussian/16-C.01_AVX/g16/l601.exe)
 Copying SCF densities to generalized density rwf, IOpCl= 0 IROHF=0.

 **********************************************************************

            Population analysis using the SCF Density.

 **********************************************************************

 Alpha  occ. eigenvalues --  -89.09150 -19.26562 -14.48184 -10.40028 -10.37708
 Alpha  occ. eigenvalues --  -10.35855 -10.34959 -10.32402 -10.32227 -10.32015
 Alpha  occ. eigenvalues --  -10.31943 -10.31836 -10.31707 -10.31651 -10.30310
 Alpha  occ. eigenvalues --  -10.30217  -8.11215  -6.06055  -6.05710  -6.05272
 Alpha  occ. eigenvalues --   -1.15458  -1.08835  -0.96864  -0.95731  -0.92373
 Alpha  occ. eigenvalues --   -0.88810  -0.85297  -0.84050  -0.82377  -0.75850
 Alpha  occ. eigenvalues --   -0.71243  -0.70570  -0.68944  -0.67916  -0.63563
 Alpha  occ. eigenvalues --   -0.60657  -0.59044  -0.58421  -0.55681  -0.54345
 Alpha  occ. eigenvalues --   -0.54258  -0.53309  -0.52968  -0.50777  -0.50002
 Alpha  occ. eigenvalues --   -0.49600  -0.46998  -0.46141  -0.45678  -0.44835
 Alpha  occ. eigenvalues --   -0.44208  -0.42652  -0.42586  -0.40338  -0.36484
 Alpha  occ. eigenvalues --   -0.36397  -0.32306  -0.31301  -0.27942
 Alpha virt. eigenvalues --   -0.01749   0.04782   0.06673   0.07506   0.07519
 Alpha virt. eigenvalues --    0.10835   0.14471   0.15064   0.16755   0.17921
 Alpha virt. eigenvalues --    0.18618   0.20994   0.21539   0.22289   0.22399
 Alpha virt. eigenvalues --    0.23666   0.23955   0.24413   0.28035   0.29836
 Alpha virt. eigenvalues --    0.32373   0.33257   0.35029   0.35743   0.37028
 Alpha virt. eigenvalues --    0.38137   0.38939   0.40720   0.42928   0.43236
 Alpha virt. eigenvalues --    0.47160   0.47813   0.50598   0.51388   0.51446
 Alpha virt. eigenvalues --    0.52096   0.53308   0.53949   0.54341   0.55392
 Alpha virt. eigenvalues --    0.56064   0.56525   0.56711   0.57470   0.58254
 Alpha virt. eigenvalues --    0.58399   0.58519   0.58688   0.59405   0.60515
 Alpha virt. eigenvalues --    0.60561   0.60811   0.61881   0.62688   0.63134
 Alpha virt. eigenvalues --    0.64937   0.65728   0.66642   0.67359   0.69077
 Alpha virt. eigenvalues --    0.70060   0.70890   0.72196   0.72488   0.72872
 Alpha virt. eigenvalues --    0.73035   0.74544   0.75208   0.75972   0.78334
 Alpha virt. eigenvalues --    0.78895   0.79088   0.80170   0.81432   0.82207
 Alpha virt. eigenvalues --    0.84219   0.88643   0.90375   0.91298   0.93680
 Alpha virt. eigenvalues --    0.94937   0.95032   0.95818   0.96748   0.97219
 Alpha virt. eigenvalues --    0.98122   0.98775   1.00414   1.00447   1.01860
 Alpha virt. eigenvalues --    1.02452   1.05604   1.06502   1.07307   1.07435
 Alpha virt. eigenvalues --    1.08144   1.09436   1.09679   1.10667   1.11649
 Alpha virt. eigenvalues --    1.12219   1.12770   1.13807   1.14821   1.15515
 Alpha virt. eigenvalues --    1.15819   1.19791   1.20183   1.22212   1.22357
 Alpha virt. eigenvalues --    1.25498   1.29225   1.33222   1.34071   1.34857
 Alpha virt. eigenvalues --    1.36081   1.37049   1.38767   1.40892   1.47691
 Alpha virt. eigenvalues --    1.48794   1.49051   1.50540   1.54283   1.54676
 Alpha virt. eigenvalues --    1.55550   1.56534   1.57068   1.57460   1.57949
 Alpha virt. eigenvalues --    1.58918   1.60433   1.62655   1.66025   1.66565
 Alpha virt. eigenvalues --    1.68488   1.69290   1.69755   1.70097   1.70981
 Alpha virt. eigenvalues --    1.72221   1.72544   1.73135   1.73433   1.75636
 Alpha virt. eigenvalues --    1.76616   1.78418   1.79977   1.81227   1.82565
 Alpha virt. eigenvalues --    1.82879   1.83103   1.84496   1.84788   1.85098
 Alpha virt. eigenvalues --    1.86797   1.88215   1.88235   1.88855   1.91970
 Alpha virt. eigenvalues --    1.92391   1.92747   1.93471   1.94814   1.96436
 Alpha virt. eigenvalues --    1.99120   2.00133   2.01245   2.02756   2.03516
 Alpha virt. eigenvalues --    2.04708   2.07904   2.08925   2.11265   2.13030
 Alpha virt. eigenvalues --    2.16360   2.17223   2.20376   2.20549   2.23986
 Alpha virt. eigenvalues --    2.26276   2.28019   2.31150   2.37497   2.39379
 Alpha virt. eigenvalues --    2.41321   2.41462   2.43421   2.44753   2.46938
 Alpha virt. eigenvalues --    2.47728   2.50095   2.51408   2.53212   2.61951
 Alpha virt. eigenvalues --    2.62923   2.72263   2.72945   2.75313   2.79401
 Alpha virt. eigenvalues --    2.81197   2.83848   2.85455   2.89654   2.92456
 Alpha virt. eigenvalues --    2.95295   3.03536   3.08435   3.16185   3.35686
 Alpha virt. eigenvalues --    3.45293   3.55889   3.65556   3.90082
          Condensed to atoms (all electrons):
               1          2          3          4          5          6
     1  C    4.739343   0.474625   0.007436  -0.052572  -0.014880   0.520835
     2  C    0.474625   5.301311   0.343055  -0.036255  -0.067194  -0.008600
     3  C    0.007436   0.343055   4.786813   0.491701  -0.004474  -0.062857
     4  C   -0.052572  -0.036255   0.491701   4.778996   0.523063  -0.012143
     5  C   -0.014880  -0.067194  -0.004474   0.523063   4.735127   0.492747
     6  C    0.520835  -0.008600  -0.062857  -0.012143   0.492747   4.740569
     7  H    0.401377  -0.037248   0.008471  -0.000561   0.008012  -0.039751
     8  H   -0.000790   0.011524  -0.033477   0.394709  -0.042592   0.007763
     9  H    0.008989  -0.000699   0.008594  -0.038648   0.404613  -0.045423
    10  H   -0.042365   0.009426  -0.000476   0.008350  -0.042793   0.406279
    11  N    0.006688  -0.057452   0.441662  -0.038725   0.003074  -0.000003
    12  S   -0.070040   0.336328  -0.106761   0.006706   0.000278   0.003946
    13  C   -0.000205   0.002921   0.007688  -0.000569   0.000008   0.000003
    14  C   -0.000010   0.000138   0.000267   0.000006  -0.000000  -0.000000
    15  C    0.000005  -0.000313   0.000256   0.000033  -0.000000  -0.000000
    16  C    0.000000  -0.000006   0.000005  -0.000000   0.000000   0.000000
    17  H   -0.000009   0.000167   0.000000   0.000000   0.000000   0.000000
    18  C    0.000000   0.000007  -0.000017  -0.000000  -0.000000  -0.000000
    19  C   -0.000000   0.000000   0.000001   0.000000   0.000000   0.000000
    20  H   -0.000000  -0.000000  -0.000000   0.000000  -0.000000  -0.000000
    21  H   -0.000000  -0.000000   0.000000   0.000000  -0.000000   0.000000
    22  H    0.000000  -0.000000  -0.000000  -0.000000   0.000000  -0.000000
    23  C    0.004173  -0.051042  -0.121867  -0.000197   0.000273  -0.000181
    24  O    0.000001  -0.000054  -0.001870  -0.000054  -0.000000  -0.000000
    25  H   -0.000047   0.003509  -0.010141  -0.000808  -0.000026   0.000010
               7          8          9         10         11         12
     1  C    0.401377  -0.000790   0.008989  -0.042365   0.006688  -0.070040
     2  C   -0.037248   0.011524  -0.000699   0.009426  -0.057452   0.336328
     3  C    0.008471  -0.033477   0.008594  -0.000476   0.441662  -0.106761
     4  C   -0.000561   0.394709  -0.038648   0.008350  -0.038725   0.006706
     5  C    0.008012  -0.042592   0.404613  -0.042793   0.003074   0.000278
     6  C   -0.039751   0.007763  -0.045423   0.406279  -0.000003   0.003946
     7  H    0.658260   0.000033  -0.000157  -0.011314  -0.000100  -0.007663
     8  H    0.000033   0.654299  -0.012593  -0.000113  -0.001859  -0.000177
     9  H   -0.000157  -0.012593   0.665247  -0.012167  -0.000096   0.000021
    10  H   -0.011314  -0.000113  -0.012167   0.662439   0.000001  -0.000165
    11  N   -0.000100  -0.001859  -0.000096   0.000001   6.497316  -0.067756
    12  S   -0.007663  -0.000177   0.000021  -0.000165  -0.067756  15.473266
    13  C    0.000001   0.000035  -0.000000  -0.000000  -0.017477  -0.063074
    14  C    0.000001   0.000001   0.000000  -0.000000   0.003483  -0.010949
    15  C   -0.000000  -0.000016   0.000000   0.000000  -0.016325   0.004895
    16  C    0.000000   0.000000  -0.000000  -0.000000  -0.000079   0.000236
    17  H    0.000002   0.000000  -0.000000  -0.000000   0.000227   0.008710
    18  C   -0.000000  -0.000000   0.000000  -0.000000  -0.000619  -0.000194
    19  C    0.000000   0.000000  -0.000000  -0.000000   0.000040   0.000027
    20  H    0.000000   0.000000   0.000000   0.000000   0.000001   0.000009
    21  H   -0.000000   0.000000  -0.000000   0.000000   0.000015   0.000004
    22  H    0.000000  -0.000000  -0.000000  -0.000000  -0.000000  -0.000000
    23  C    0.000147  -0.000842   0.000007   0.000005   0.527373   0.317965
    24  O   -0.000000  -0.000138   0.000000  -0.000000  -0.072891  -0.000264
    25  H    0.000002   0.001005  -0.000004  -0.000000   0.145763   0.003162
              13         14         15         16         17         18
     1  C   -0.000205  -0.000010   0.000005   0.000000  -0.000009   0.000000
     2  C    0.002921   0.000138  -0.000313  -0.000006   0.000167   0.000007
     3  C    0.007688   0.000267   0.000256   0.000005   0.000000  -0.000017
     4  C   -0.000569   0.000006   0.000033  -0.000000   0.000000  -0.000000
     5  C    0.000008  -0.000000  -0.000000   0.000000   0.000000  -0.000000
     6  C    0.000003  -0.000000  -0.000000   0.000000   0.000000  -0.000000
     7  H    0.000001   0.000001  -0.000000   0.000000   0.000002  -0.000000
     8  H    0.000035   0.000001  -0.000016   0.000000   0.000000  -0.000000
     9  H   -0.000000   0.000000   0.000000  -0.000000  -0.000000   0.000000
    10  H   -0.000000  -0.000000   0.000000  -0.000000  -0.000000  -0.000000
    11  N   -0.017477   0.003483  -0.016325  -0.000079   0.000227  -0.000619
    12  S   -0.063074  -0.010949   0.004895   0.000236   0.008710  -0.000194
    13  C    5.311974   0.473647   0.269266  -0.008948  -0.036644  -0.045056
    14  C    0.473647   4.821515  -0.003462   0.532530   0.398275  -0.054940
    15  C    0.269266  -0.003462   4.767039  -0.057444   0.006673   0.492502
    16  C   -0.008948   0.532530  -0.057444   4.740453  -0.032550  -0.019007
    17  H   -0.036644   0.398275   0.006673  -0.032550   0.662688  -0.000645
    18  C   -0.045056  -0.054940   0.492502  -0.019007  -0.000645   4.823977
    19  C   -0.052758  -0.020194  -0.008427   0.493182   0.007993   0.515977
    20  H    0.008812  -0.035430  -0.000186   0.401126  -0.012064   0.008150
    21  H    0.013213  -0.000519  -0.024066   0.007200   0.000044   0.377998
    22  H   -0.001312   0.009558   0.008903  -0.043979  -0.000169  -0.041761
    23  C    0.344757  -0.088598  -0.077792   0.006586  -0.021897   0.007756
    24  O   -0.091080   0.004663   0.546471  -0.000043  -0.000060  -0.056954
    25  H   -0.024129  -0.000821  -0.022051  -0.000005  -0.000018   0.003796
              19         20         21         22         23         24
     1  C   -0.000000  -0.000000  -0.000000   0.000000   0.004173   0.000001
     2  C    0.000000  -0.000000  -0.000000  -0.000000  -0.051042  -0.000054
     3  C    0.000001  -0.000000   0.000000  -0.000000  -0.121867  -0.001870
     4  C    0.000000   0.000000   0.000000  -0.000000  -0.000197  -0.000054
     5  C    0.000000  -0.000000  -0.000000   0.000000   0.000273  -0.000000
     6  C    0.000000  -0.000000   0.000000  -0.000000  -0.000181  -0.000000
     7  H    0.000000   0.000000  -0.000000   0.000000   0.000147  -0.000000
     8  H    0.000000   0.000000   0.000000  -0.000000  -0.000842  -0.000138
     9  H   -0.000000   0.000000  -0.000000  -0.000000   0.000007   0.000000
    10  H   -0.000000   0.000000   0.000000  -0.000000   0.000005  -0.000000
    11  N    0.000040   0.000001   0.000015  -0.000000   0.527373  -0.072891
    12  S    0.000027   0.000009   0.000004  -0.000000   0.317965  -0.000264
    13  C   -0.052758   0.008812   0.013213  -0.001312   0.344757  -0.091080
    14  C   -0.020194  -0.035430  -0.000519   0.009558  -0.088598   0.004663
    15  C   -0.008427  -0.000186  -0.024066   0.008903  -0.077792   0.546471
    16  C    0.493182   0.401126   0.007200  -0.043979   0.006586  -0.000043
    17  H    0.007993  -0.012064   0.000044  -0.000169  -0.021897  -0.000060
    18  C    0.515977   0.008150   0.377998  -0.041761   0.007756  -0.056954
    19  C    4.721360  -0.046226  -0.044471   0.405704   0.000785   0.002912
    20  H   -0.046226   0.678206  -0.000142  -0.011995  -0.000381   0.000002
    21  H   -0.044471  -0.000142   0.663044  -0.012132  -0.000427   0.002960
    22  H    0.405704  -0.011995  -0.012132   0.664204  -0.000003  -0.000058
    23  C    0.000785  -0.000381  -0.000427  -0.000003   5.076384  -0.002975
    24  O    0.002912   0.000002   0.002960  -0.000058  -0.002975   7.661140
    25  H   -0.000184  -0.000001   0.000000   0.000008  -0.004101   0.288552
              25
     1  C   -0.000047
     2  C    0.003509
     3  C   -0.010141
     4  C   -0.000808
     5  C   -0.000026
     6  C    0.000010
     7  H    0.000002
     8  H    0.001005
     9  H   -0.000004
    10  H   -0.000000
    11  N    0.145763
    12  S    0.003162
    13  C   -0.024129
    14  C   -0.000821
    15  C   -0.022051
    16  C   -0.000005
    17  H   -0.000018
    18  C    0.003796
    19  C   -0.000184
    20  H   -0.000001
    21  H    0.000000
    22  H    0.000008
    23  C   -0.004101
    24  O    0.288552
    25  H    0.403893
 Mulliken charges:
               1
     1  C    0.017444
     2  C   -0.224150
     3  C    0.245989
     4  C   -0.023033
     5  C    0.004763
     6  C   -0.003195
     7  H    0.020490
     8  H    0.023229
     9  H    0.022317
    10  H    0.022893
    11  N   -0.352260
    12  S    0.171492
    13  C   -0.091074
    14  C   -0.029162
    15  C    0.114037
    16  C   -0.019260
    17  H    0.019277
    18  C   -0.010968
    19  C    0.024278
    20  H    0.010119
    21  H    0.017277
    22  H    0.023033
    23  C    0.084092
    24  O   -0.280261
    25  H    0.212635
 Sum of Mulliken charges =  -0.00000
 Mulliken charges with hydrogens summed into heavy atoms:
               1
     1  C    0.037934
     2  C   -0.224150
     3  C    0.245989
     4  C    0.000196
     5  C    0.027080
     6  C    0.019697
    11  N   -0.352260
    12  S    0.171492
    13  C   -0.091074
    14  C   -0.009886
    15  C    0.114037
    16  C   -0.009141
    18  C    0.006309
    19  C    0.047311
    23  C    0.084092
    24  O   -0.067626
 Electronic spatial extent (au):  <R**2>=           4329.0061
 Charge=             -0.0000 electrons
 Dipole moment (field-independent basis, Debye):
    X=             -0.1505    Y=             -2.9609    Z=             -0.0000  Tot=              2.9647
 Quadrupole moment (field-independent basis, Debye-Ang):
   XX=            -83.1384   YY=            -90.5487   ZZ=           -104.3280
   XY=             -7.0154   XZ=             -0.0001   YZ=             -0.0000
 Traceless Quadrupole moment (field-independent basis, Debye-Ang):
   XX=              9.5333   YY=              2.1230   ZZ=            -11.6563
   XY=             -7.0154   XZ=             -0.0001   YZ=             -0.0000
 Octapole moment (field-independent basis, Debye-Ang**2):
  XXX=             12.6985  YYY=            -28.4198  ZZZ=              0.0000  XYY=             -5.7888
  XXY=              1.0535  XXZ=              0.0001  XZZ=              1.2295  YZZ=              3.2900
  YYZ=              0.0001  XYZ=             -0.0005
 Hexadecapole moment (field-independent basis, Debye-Ang**3):
 XXXX=          -2598.0723 YYYY=          -2608.8609 ZZZZ=           -113.3758 XXXY=            806.7075
 XXXZ=              0.0098 YYYX=            768.9289 YYYZ=             -0.0142 ZZZX=              0.0139
 ZZZY=             -0.0174 XXYY=           -841.1861 XXZZ=           -571.8957 YYZZ=           -545.8861
 XXYZ=             -0.0039 YYXZ=              0.0020 ZZXY=            358.2588
 N-N= 1.099967919527D+03 E-N=-4.612046611040D+03  KE= 1.023664598454D+03
 No NMR shielding tensors so no spin-rotation constants.
 Leave Link  601 at Wed Oct 28 00:32:59 2020, MaxMem=  7784628224 cpu:               2.7 elap:               0.5
 (Enter /gpfs/loomis/apps/avx/software/Gaussian/16-C.01_AVX/g16/l701.exe)
 ... and contract with generalized density number  0.
 Compute integral first derivatives.
 R6Disp: Adding Grimme-D2 dispersion energy 1st derivatives to the gradient.
 D1PCM: PCM CHGder 1st derivatives, ID1Alg=3 FixD1E=F DoIter=F DoCFld=F I1PDM=0.
 GePol: Maximum number of non-zero 1st derivatives   =     259
 Leave Link  701 at Wed Oct 28 00:33:03 2020, MaxMem=  7784628224 cpu:              18.5 elap:               3.1
 (Enter /gpfs/loomis/apps/avx/software/Gaussian/16-C.01_AVX/g16/l702.exe)
 L702 exits ... SP integral derivatives will be done elsewhere.
 Leave Link  702 at Wed Oct 28 00:33:03 2020, MaxMem=  7784628224 cpu:               0.3 elap:               0.1
 (Enter /gpfs/loomis/apps/avx/software/Gaussian/16-C.01_AVX/g16/l703.exe)
 Integral derivatives from FoFJK, PRISM(SPDF).
 Compute integral first derivatives, UseDBF=F ICtDFT=           0.
 Calling FoFJK, ICntrl=      2127 FMM=F ISym2X=0 I1Cent= 0 IOpClX= 0 NMat=1 NMatS=1 NMatT=0.
 FoFJK:  IHMeth= 1 ICntrl=    2127 DoSepK=T KAlg= 0 I1Cent=           0 FoldK=F
 IRaf=         1 NMat=       1 IRICut=       1 DoRegI=T DoRafI=F ISym2E= 0 IDoP0=0 IntGTp=1.
 FoFCou: FMM=F IPFlag=           0 FMFlag=      100000 FMFlg1=         800
         NFxFlg=           0 DoJE=F BraDBF=F KetDBF=F FulRan=T
         wScrn=  0.000000 ICntrl=      2527 IOpCl=  0 I1Cent=           0 NGrid=           0
         NMat0=    1 NMatS0=      1 NMatT0=    0 NMatD0=    1 NMtDS0=    0 NMtDT0=    0
 Symmetry not used in FoFCou.
 Leave Link  703 at Wed Oct 28 00:33:21 2020, MaxMem=  7784628224 cpu:             136.2 elap:              18.0
 (Enter /gpfs/loomis/apps/avx/software/Gaussian/16-C.01_AVX/g16/l716.exe)
 Dipole        =-5.92006130D-02-1.16491831D+00-1.01656242D-05
 -------------------------------------------------------------------
 Center     Atomic                   Forces (Hartrees/Bohr)
 Number     Number              X              Y              Z
 -------------------------------------------------------------------
      1        6           0.005067364   -0.002966099   -0.000000045
      2        6           0.007511661    0.005495283   -0.000000196
      3        6           0.011047754   -0.033201962   -0.000000574
      4        6          -0.011112591    0.003208841    0.000000070
      5        6          -0.000123915   -0.000827940    0.000000081
      6        6          -0.002069077    0.005446514   -0.000000116
      7        1           0.001595685    0.001199311   -0.000000033
      8        1          -0.001411300   -0.001434705    0.000000018
      9        1          -0.001479305    0.000482064    0.000000001
     10        1          -0.000481477    0.001414266    0.000000003
     11        7          -0.048783606    0.001490002    0.000001222
     12       16           0.005618599    0.003931797    0.000000063
     13        6          -0.016909053    0.044534394    0.000000347
     14        6          -0.002039238    0.013681658   -0.000000768
     15        6          -0.013489791   -0.034134483   -0.000000401
     16        6           0.001100421   -0.003957887    0.000000064
     17        1          -0.001084536    0.001065416   -0.000000042
     18        6          -0.005911295   -0.003582782    0.000000675
     19        6           0.015069334   -0.009162374    0.000000014
     20        1           0.001387784    0.000330334    0.000000046
     21        1          -0.000513429   -0.001641172   -0.000000244
     22        1           0.000803304   -0.000165021   -0.000000019
     23        6           0.043492091   -0.013441944    0.000000315
     24        8           0.024378720   -0.003541936   -0.000001217
     25        1          -0.011664104    0.025778427    0.000000737
 -------------------------------------------------------------------
 Cartesian Forces:  Max     0.048783606 RMS     0.012450864
 Leave Link  716 at Wed Oct 28 00:33:21 2020, MaxMem=  7784628224 cpu:               0.5 elap:               0.1
 (Enter /gpfs/loomis/apps/avx/software/Gaussian/16-C.01_AVX/g16/l103.exe)

 GradGradGradGradGradGradGradGradGradGradGradGradGradGradGradGradGradGrad
 Berny optimization.
 FormGI is forming the generalized inverse of G from B-inverse, IUseBI=4.
 Internal  Forces:  Max     0.037935547 RMS     0.006267900
 Search for a local minimum.
 Step number   1 out of a maximum of  143
 All quantities printed in internal units (Hartrees-Bohrs-Radians)
 RMS Force = .63155D-02 SwitMx=.10000D-02 MixMth= 1
 Mixed Optimization -- RFO/linear search
 Second derivative matrix not updated -- first step.
 ITU=  0
     Eigenvalues ---    0.01479   0.01488   0.01741   0.01749   0.01823
     Eigenvalues ---    0.01870   0.01914   0.01969   0.01978   0.01982
     Eigenvalues ---    0.01988   0.02014   0.02019   0.02032   0.02042
     Eigenvalues ---    0.02061   0.02068   0.02074   0.02111   0.02140
     Eigenvalues ---    0.02183   0.03031   0.16000   0.16000   0.16000
     Eigenvalues ---    0.16000   0.16000   0.16000   0.16000   0.16003
     Eigenvalues ---    0.16167   0.22000   0.22025   0.22532   0.22590
     Eigenvalues ---    0.24473   0.24552   0.25000   0.25000   0.25000
     Eigenvalues ---    0.28927   0.30412   0.31327   0.33761   0.34408
     Eigenvalues ---    0.34410   0.34417   0.34418   0.34455   0.34501
     Eigenvalues ---    0.34527   0.34577   0.37269   0.39735   0.40737
     Eigenvalues ---    0.41778   0.42916   0.43606   0.43683   0.44522
     Eigenvalues ---    0.45061   0.45636   0.46299   0.46956   0.49249
     Eigenvalues ---    0.51404   0.673841000.000001000.000001000.00000
     Eigenvalues --- 1000.000001000.000001000.000001000.000001000.00000
     Eigenvalues --- 1000.000001000.000001000.000001000.000001000.00000
     Eigenvalues --- 1000.000001000.000001000.000001000.000001000.00000
     Eigenvalues --- 1000.000001000.000001000.000001000.000001000.00000
     Eigenvalues --- 1000.000001000.000001000.000001000.000001000.00000
     Eigenvalues --- 1000.000001000.000001000.000001000.000001000.00000
     Eigenvalues --- 1000.000001000.000001000.000001000.000001000.00000
     Eigenvalues --- 1000.000001000.000001000.000001000.000001000.00000
     Eigenvalues --- 1000.000001000.000001000.000001000.000001000.00000
     Eigenvalues --- 1000.000001000.000001000.000001000.000001000.00000
     Eigenvalues --- 1000.000001000.000001000.000001000.000001000.00000
     Eigenvalues --- 1000.000001000.000001000.000001000.000001000.00000
     Eigenvalues --- 1000.000001000.000001000.00000
 RFO step:  Lambda=-1.25042680D-02 EMin= 1.47935985D-02
 Linear search not attempted -- first point.
 Iteration  1 RMS(Cart)=  0.01924981 RMS(Int)=  0.00018158
 Iteration  2 RMS(Cart)=  0.00026620 RMS(Int)=  0.00005374
 Iteration  3 RMS(Cart)=  0.00000008 RMS(Int)=  0.00005374
 Iteration  1 RMS(Cart)=  0.00000004 RMS(Int)=  0.00000001
 ITry= 1 IFail=0 DXMaxC= 7.38D-02 DCOld= 1.00D+10 DXMaxT= 3.00D-01 DXLimC= 3.00D+00 Rises=F
 Variable       Old X    -DE/DX   Delta X   Delta X   Delta X     New X
                                 (Linear)    (Quad)   (Total)
    R1        2.63140  -0.00177   0.00000  -0.00385  -0.00383   2.62757
    R2        2.63285  -0.00668   0.00000  -0.01363  -0.01363   2.61922
    R3        2.06631  -0.00195   0.00000  -0.00547  -0.00547   2.06085
    R4        2.70068  -0.01886   0.00000  -0.04247  -0.04236   2.65832
    R5        3.29410  -0.00171   0.00000  -0.00352  -0.00346   3.29064
    R6        2.68115  -0.01127   0.00000  -0.02600  -0.02600   2.65515
    R7        2.56983   0.02234   0.00000   0.04175   0.04174   2.61157
    R8        2.62958  -0.00034   0.00000  -0.00050  -0.00053   2.62905
    R9        2.06643  -0.00198   0.00000  -0.00556  -0.00556   2.06087
   R10        2.66245  -0.00545   0.00000  -0.01152  -0.01155   2.65091
   R11        2.06647  -0.00155   0.00000  -0.00434  -0.00434   2.06213
   R12        2.06450  -0.00145   0.00000  -0.00404  -0.00404   2.06046
   R13        2.57483  -0.03794   0.00000  -0.07232  -0.07241   2.50242
   R14        3.30934  -0.00982   0.00000  -0.03440  -0.03443   3.27491
   R15        2.66501  -0.00605   0.00000  -0.01379  -0.01365   2.65135
   R16        2.77681  -0.02751   0.00000  -0.07471  -0.07462   2.70219
   R17        2.66145   0.01758   0.00000   0.03849   0.03851   2.69996
   R18        2.63840  -0.01502   0.00000  -0.03178  -0.03170   2.60670
   R19        2.06631  -0.00065   0.00000  -0.00182  -0.00182   2.06449
   R20        2.67226  -0.00183   0.00000  -0.00384  -0.00394   2.66833
   R21        2.45426   0.01351   0.00000   0.01961   0.01962   2.47387
   R22        2.66960  -0.01118   0.00000  -0.02479  -0.02483   2.64476
   R23        2.06494  -0.00132   0.00000  -0.00369  -0.00369   2.06124
   R24        2.64403  -0.00790   0.00000  -0.01639  -0.01653   2.62749
   R25        2.06570  -0.00179   0.00000  -0.00502  -0.00502   2.06067
   R26        2.06367  -0.00060   0.00000  -0.00166  -0.00166   2.06201
   R27        2.11031  -0.01596   0.00000  -0.04787  -0.04790   2.06241
    A1        2.06435  -0.00184   0.00000  -0.00608  -0.00606   2.05829
    A2        2.10269   0.00111   0.00000   0.00411   0.00409   2.10678
    A3        2.11615   0.00073   0.00000   0.00197   0.00196   2.11811
    A4        2.14668   0.00260   0.00000   0.00689   0.00686   2.15354
    A5        2.20202   0.00356   0.00000   0.00998   0.00992   2.21194
    A6        1.93449  -0.00615   0.00000  -0.01688  -0.01678   1.91771
    A7        2.05161   0.00213   0.00000   0.00515   0.00517   2.05677
    A8        1.98643  -0.00389   0.00000  -0.00981  -0.00970   1.97673
    A9        2.24515   0.00176   0.00000   0.00465   0.00453   2.24968
   A10        2.07833  -0.00046   0.00000  -0.00110  -0.00109   2.07724
   A11        2.09203   0.00028   0.00000   0.00083   0.00082   2.09285
   A12        2.11282   0.00018   0.00000   0.00027   0.00026   2.11309
   A13        2.13170  -0.00157   0.00000  -0.00417  -0.00419   2.12752
   A14        2.07506   0.00073   0.00000   0.00177   0.00178   2.07684
   A15        2.07642   0.00084   0.00000   0.00239   0.00240   2.07883
   A16        2.09370  -0.00085   0.00000  -0.00070  -0.00070   2.09300
   A17        2.09378   0.00034   0.00000  -0.00018  -0.00018   2.09360
   A18        2.09570   0.00052   0.00000   0.00088   0.00088   2.09659
   A19        1.95436   0.00577   0.00000   0.01867   0.01865   1.97302
   A20        1.55173   0.00562   0.00000   0.01931   0.01925   1.57098
   A21        2.07532   0.00873   0.00000   0.03257   0.03273   2.10805
   A22        2.15402  -0.00563   0.00000  -0.02092  -0.02098   2.13304
   A23        2.05384  -0.00310   0.00000  -0.01165  -0.01174   2.04210
   A24        2.09901   0.00292   0.00000   0.01142   0.01162   2.11064
   A25        2.09042  -0.00038   0.00000   0.00053   0.00043   2.09086
   A26        2.09375  -0.00254   0.00000  -0.01195  -0.01206   2.08169
   A27        2.07988  -0.00941   0.00000  -0.03591  -0.03592   2.04396
   A28        2.05717   0.00993   0.00000   0.03729   0.03734   2.09452
   A29        2.14613  -0.00052   0.00000  -0.00138  -0.00142   2.14471
   A30        2.11287  -0.00870   0.00000  -0.03766  -0.03763   2.07524
   A31        2.08302   0.00412   0.00000   0.01747   0.01745   2.10047
   A32        2.08730   0.00459   0.00000   0.02019   0.02017   2.10747
   A33        2.09849   0.00220   0.00000   0.01038   0.01018   2.10867
   A34        2.06159  -0.00077   0.00000  -0.00324  -0.00314   2.05845
   A35        2.12310  -0.00143   0.00000  -0.00714  -0.00704   2.11606
   A36        2.10079   0.00426   0.00000   0.01920   0.01902   2.11981
   A37        2.08906  -0.00213   0.00000  -0.00962  -0.00953   2.07952
   A38        2.09334  -0.00213   0.00000  -0.00957  -0.00949   2.08385
   A39        1.99776  -0.00134   0.00000  -0.01129  -0.01141   1.98635
   A40        2.16218  -0.00297   0.00000  -0.00799  -0.00799   2.15418
   A41        2.12325   0.00431   0.00000   0.01928   0.01941   2.14266
   A42        1.89401  -0.00029   0.00000  -0.00192  -0.00191   1.89210
    D1       -0.00000   0.00000   0.00000   0.00000   0.00000   0.00000
    D2        3.14159   0.00000   0.00000   0.00000   0.00000  -3.14159
    D3        3.14159  -0.00000   0.00000  -0.00000  -0.00000   3.14159
    D4       -0.00000   0.00000   0.00000   0.00000   0.00000   0.00000
    D5       -0.00000   0.00000   0.00000   0.00000   0.00000  -0.00000
    D6        3.14159  -0.00000   0.00000  -0.00000  -0.00000   3.14159
    D7        3.14159   0.00000   0.00000   0.00000   0.00000  -3.14159
    D8       -0.00000  -0.00000   0.00000   0.00000   0.00000   0.00000
    D9        0.00000  -0.00000   0.00000  -0.00000  -0.00000   0.00000
   D10       -3.14159   0.00000   0.00000   0.00000   0.00000  -3.14159
   D11       -3.14159  -0.00000   0.00000  -0.00000  -0.00000   3.14159
   D12        0.00000   0.00000   0.00000  -0.00000  -0.00000  -0.00000
   D13        3.14159   0.00000   0.00000   0.00000   0.00000   3.14159
   D14       -0.00001   0.00000   0.00000   0.00000   0.00000  -0.00000
   D15       -0.00000   0.00000   0.00000   0.00000   0.00000  -0.00000
   D16        3.14159   0.00000   0.00000   0.00000   0.00000   3.14159
   D17        3.14159  -0.00000   0.00000  -0.00000  -0.00000   3.14159
   D18        0.00000  -0.00000   0.00000  -0.00000  -0.00000  -0.00000
   D19        0.00001  -0.00000   0.00000  -0.00001  -0.00001   0.00000
   D20       -3.14159  -0.00000   0.00000  -0.00000  -0.00000  -3.14159
   D21        0.00000   0.00000   0.00000   0.00000   0.00000   0.00000
   D22       -3.14159   0.00000   0.00000   0.00000   0.00000  -3.14159
   D23        3.14159  -0.00000   0.00000  -0.00000  -0.00000   3.14159
   D24        0.00000  -0.00000   0.00000  -0.00000  -0.00000   0.00000
   D25        0.00000  -0.00000   0.00000  -0.00000  -0.00000   0.00000
   D26       -3.14159   0.00000   0.00000   0.00000   0.00000  -3.14159
   D27       -3.14159  -0.00000   0.00000  -0.00000  -0.00000  -3.14159
   D28        0.00000   0.00000   0.00000   0.00000   0.00000   0.00000
   D29       -0.00001   0.00000   0.00000   0.00001   0.00001  -0.00000
   D30        3.14157   0.00000   0.00000   0.00002   0.00002   3.14158
   D31        0.00001  -0.00000   0.00000  -0.00001  -0.00001   0.00000
   D32       -3.14157  -0.00000   0.00000  -0.00002  -0.00002  -3.14159
   D33        0.00002  -0.00000   0.00000  -0.00001  -0.00001   0.00001
   D34       -3.14158  -0.00000   0.00000  -0.00000  -0.00000  -3.14159
   D35       -3.14158  -0.00000   0.00000  -0.00001  -0.00001  -3.14159
   D36        0.00001  -0.00000   0.00000  -0.00000  -0.00000   0.00001
   D37       -0.00002   0.00000   0.00000   0.00001   0.00001  -0.00001
   D38        3.14157   0.00000   0.00000   0.00002   0.00002   3.14159
   D39        3.14158   0.00000   0.00000   0.00001   0.00001   3.14158
   D40       -0.00002   0.00000   0.00000   0.00002   0.00002  -0.00000
   D41        3.14159   0.00000   0.00000   0.00001   0.00001  -3.14158
   D42       -0.00002   0.00000   0.00000   0.00002   0.00002   0.00000
   D43       -0.00000   0.00000   0.00000   0.00001   0.00001   0.00001
   D44        3.14157   0.00000   0.00000   0.00002   0.00002  -3.14159
   D45       -0.00000   0.00000   0.00000   0.00001   0.00001   0.00000
   D46        3.14159   0.00000   0.00000   0.00000   0.00000  -3.14159
   D47       -3.14159   0.00000   0.00000  -0.00000  -0.00000  -3.14159
   D48        0.00000  -0.00000   0.00000  -0.00000  -0.00000  -0.00000
   D49        0.00001  -0.00000   0.00000  -0.00000  -0.00000   0.00001
   D50       -3.14159   0.00000   0.00000   0.00000   0.00000  -3.14159
   D51       -3.14158  -0.00000   0.00000  -0.00001  -0.00001  -3.14159
[...]
 ,-0.00008403,-0.00004203,0.,0.00005483,0.00004765,0.,0.00010791,-0.000
 06122,0.,0.00007622,-0.00004467,0.,0.00670227,0.00578113,-0.00000037,-
 0.00235245,-0.00219916,0.00000020,0.06461112,0.03758322,-0.00000186,0.
 08677205,-0.25269099,0.00000117,0.03002388,-0.06982856,0.00000087,0.00
 885222,0.67875919,0.00000006,-0.00000006,0.00009015,-0.00000013,-0.000
 00002,0.00056403,-0.00000006,0.00000013,-0.00068159,0.00000008,-0.0000
 0003,-0.00016788,0.,0.00000008,0.00006698,-0.00000007,-0.00000003,-0.0
 0003084,0.,0.,0.00000554,0.,0.,0.00001551,0.,0.,0.00002034,0.,0.,-0.00
 003724,0.00000020,-0.00000023,0.00021394,0.,0.00000022,-0.00101655,-0.
 00000003,-0.00000110,0.00851272,0.00000290,0.,-0.06293821,-0.00000075,
 0.00000094,-0.00509592,-0.00001700,-0.00001366,0.12623108,0.00032523,0
 .00000663,0.,-0.00075311,0.00041494,-0.00000019,0.00025697,-0.00008372
 ,0.00000001,0.00006216,0.00003967,0.00000002,0.00005765,0.00008479,0.,
 -0.00009717,-0.00010893,0.,-0.00002142,-0.00001203,0.,0.00004444,0.000
 00273,0.,0.00001393,-0.00000186,0.,0.00003484,-0.00001270,0.,0.0004618
 2,0.00055959,-0.00000002,-0.00145676,0.00206541,0.00000062,-0.00303583
 ,-0.02836360,0.00000075,-0.08236828,-0.07830086,0.00000312,-0.00506172
 ,0.00145601,0.00000029,0.01075682,0.02130706,-0.00000061,0.08307239,0.
 00004764,0.00000197,0.,-0.00010290,0.00069474,0.,0.00040802,-0.0002448
 4,0.,0.00003417,0.00010744,0.00000001,0.00001366,0.00005827,0.,-0.0000
 7716,-0.00000871,0.,-0.00001802,0.00001186,0.,0.00003326,-0.00000646,0
 .,-0.00000274,0.00000440,0.,0.00000692,0.00000119,0.,-0.00078444,0.000
 25020,-0.00000006,0.00111094,-0.00093386,-0.00000025,0.00049965,-0.003
 63065,0.00000019,-0.07690540,-0.31749051,0.00000902,-0.00017251,0.0021
 9632,0.00000017,-0.01067608,-0.01595869,0.00000075,0.08144740,0.337679
 41,-0.00000006,0.00000001,-0.00002004,0.00000013,-0.00000003,-0.000761
 54,0.,-0.00000006,0.00022707,-0.00000003,0.,0.00009925,0.,-0.00000003,
 -0.00003092,0.00000002,0.00000003,0.00003460,0.,0.,-0.00001575,0.,0.,-
 0.00002469,0.,0.,-0.00000463,0.,0.,0.00002603,-0.00000023,-0.00000007,
 -0.00008903,0.00000044,-0.00000038,0.00157176,-0.00000028,0.00000090,0
 .00289932,0.00000362,0.00000932,-0.03754230,0.00000017,0.00000012,0.00
 628104,-0.00000004,-0.00000005,0.00509215,-0.00000393,-0.00000971,0.02
 439970,0.00002174,0.00064994,0.00000003,0.00059201,0.00006351,-0.00000
 006,0.00208237,0.00003516,-0.00000013,-0.00066150,0.00008737,-0.000000
 01,-0.00006724,-0.00072728,-0.00000002,0.00064463,0.00001031,0.0000000
 2,-0.00006079,0.00003321,0.,0.00008818,-0.00000252,0.,0.00003816,-0.00
 002035,0.,0.00003663,-0.00000448,0.,0.00200295,0.00950601,-0.00000067,
 -0.00039673,-0.00019736,0.00000017,0.05595448,0.03344728,-0.00000176,-
 0.06490594,0.02263303,0.00000076,-0.18288912,0.05095566,0.00000116,0.0
 0148682,-0.08832699,0.00000200,-0.00079477,0.00037103,0.00000013,0.699
 79386,0.00054404,-0.00043972,-0.00000004,-0.00118514,-0.00005364,-0.00
 000002,-0.00037478,0.00012609,0.00000005,0.00054848,-0.00011008,0.0000
 0001,0.00010425,0.00065176,0.00000002,-0.00062701,-0.00013232,-0.00000
 001,0.00000517,0.00002925,0.,-0.00000181,-0.00001152,0.,-0.00002457,0.
 00002199,0.,0.00000623,0.00000259,0.,-0.00123139,-0.00120842,0.0000001
 6,0.00173892,-0.00021150,-0.00000005,0.00389539,-0.03543535,0.00000102
 ,0.01745776,-0.00834702,-0.00000022,0.10834877,-0.23913091,0.00000204,
 -0.03681428,0.01074831,0.00000077,0.00019511,0.00055052,-0.00000005,0.
 05171195,0.72802166,-0.00000004,0.,-0.00010542,0.00000007,0.00000005,-
 0.00013768,0.00000002,-0.00000009,-0.00101824,-0.00000003,0.00000001,0
 .00002471,0.,-0.00000002,0.00003629,0.00000002,0.00000002,0.00003185,0
 .,0.,-0.00004338,0.,0.,-0.00003419,0.,0.,-0.00000576,0.,0.,0.00003053,
 0.00000016,0.00000007,0.00183580,-0.00000016,0.,-0.00041711,-0.0000011
 3,-0.00000035,0.00873554,0.00000074,-0.00000035,-0.00301415,-0.0000002
 6,0.00000364,-0.07110925,0.00000118,0.00000185,0.00776127,0.,-0.000000
 05,-0.00076181,-0.00001301,-0.00001660,0.12661631,0.00049942,-0.000944
 69,-0.00000006,-0.00138194,0.00048245,0.00000007,-0.00090933,-0.000058
 98,0.00000012,0.00093862,-0.00016683,0.00000002,0.00010183,0.00115214,
 0.00000003,-0.00113723,-0.00007019,-0.00000002,0.00005562,0.00002974,0
 .,-0.00004967,-0.00003651,0.,-0.00007652,0.00004902,0.,-0.00004938,0.0
 0002843,0.,-0.00342402,-0.00419285,0.00000027,0.00159807,0.00091020,-0
 .00000012,-0.03989105,-0.01861125,0.00000110,0.06201480,0.00086727,-0.
 00000113,-0.05584246,0.05443159,-0.00000005,-0.14805886,-0.02511906,0.
 00000285,-0.00279949,0.00431667,0.00000017,-0.35237283,-0.09183994,0.0
 0000792,0.71983070,0.00022197,-0.00045169,-0.00000002,-0.00048346,0.00
 030610,0.00000005,-0.00021721,-0.00086311,0.00000003,0.00023706,0.0000
 4273,0.,0.00005892,0.00043501,0.00000001,-0.00051094,0.00003628,0.,0.0
 0003223,0.00000132,0.,-0.00002171,-0.00001197,0.,-0.00003979,0.0000249
 9,0.,-0.00001975,0.00001312,0.,-0.00443055,-0.00363915,0.00000031,0.00
 105248,0.00058581,-0.00000014,-0.04134635,-0.02562931,0.00000132,0.057
 75287,-0.05669545,0.00000044,0.00170999,0.06543236,-0.00000170,-0.0997
 8158,-0.31919740,0.00000930,0.00339289,-0.00169683,0.00000001,-0.01974
 987,-0.14707118,0.00000254,-0.03067950,0.71660563,-0.00000001,0.000000
 03,0.00000888,0.00000004,-0.00000005,0.00002911,0.,0.00000006,0.000236
 16,-0.00000002,0.,0.00000771,0.,-0.00000003,-0.00001896,0.00000004,0.,
 0.00000223,0.,0.,0.00000205,0.,0.,0.00001426,0.,0.,-0.00000215,0.,0.,-
 0.00000794,0.00000021,0.00000016,-0.00033005,-0.00000005,0.,0.00000213
 ,0.00000190,0.00000090,-0.00426642,-0.00000268,0.00000137,0.00729595,0
 .00000099,-0.00000281,-0.00071705,0.00000444,0.00000741,-0.06359568,0.
 00000020,0.00000010,0.00749892,0.00000617,0.00000407,-0.05959040,-0.00
 001087,-0.00001425,0.14447229,0.00001297,-0.00007891,0.,-0.00005372,0.
 00013171,0.,-0.00005554,-0.00006700,-0.00000001,0.00006273,0.00002719,
 0.,-0.00000982,0.00007457,0.,-0.00008454,0.00001015,0.,0.00000545,0.00
 000686,0.,-0.00000108,-0.00000667,0.,-0.00001057,0.00000828,0.,-0.0000
 0932,0.00000639,0.,-0.00042382,0.00033050,0.,0.00005015,0.00004551,0.,
 -0.00040844,0.00389182,0.00000015,-0.01491934,-0.00864016,0.00000063,0
 .00044930,0.00027622,-0.00000003,-0.33349790,-0.06500108,0.00000939,0.
 00077522,0.00006237,-0.00000013,0.00156992,-0.00142700,0.00000017,-0.0
 0425486,0.00229225,0.00000008,0.35084075,0.00000166,0.00002035,0.,0.00
 002295,-0.00006384,0.,0.00008455,0.00006165,0.,-0.00001438,-0.00003896
 ,0.,0.00001080,-0.00001303,0.,0.00001867,-0.00000535,0.,-0.00000006,-0
 .00000298,0.,0.00000073,0.00000136,0.,0.00000300,-0.00000431,0.,0.0000
 0238,-0.00000109,0.,0.00033256,-0.00019704,-0.00000002,0.00000561,0.00
 005089,0.,0.00263506,-0.00313374,0.00000012,0.02359997,0.00873473,-0.0
 0000077,0.00058060,-0.00146025,0.,-0.06569692,-0.07309578,0.00000276,-
 0.00028013,0.00089913,-0.00000012,-0.00044359,-0.00509176,0.00000030,-
 0.02974568,-0.00139846,0.00000080,0.06936953,0.07291945,0.,0.,-0.00000
 043,0.,0.,-0.00002615,0.,-0.00000001,-0.00020419,0.,0.,-0.00001099,0.,
 0.,0.00001870,0.,0.,-0.00000500,0.,0.,0.00000122,0.,0.,-0.00000706,0.,
 0.,0.00000364,0.,0.,0.00000396,-0.00000003,-0.00000004,-0.00016099,0.0
 0000001,-0.00000002,0.00006351,0.00000004,0.00000017,0.00738717,0.0000
 0003,0.00000006,0.00149615,-0.00000013,0.00000007,-0.00068889,0.000009
 33,0.00000288,-0.03296892,-0.00000013,-0.00000014,-0.00452495,0.000000
 22,0.00000029,0.00615017,0.00000076,-0.00000015,0.00145521,-0.00001017
 ,-0.00000299,0.02484842,-0.00005840,-0.00001200,0.,0.00006050,0.000094
 14,0.,-0.00006899,-0.00002968,0.,-0.00000799,0.00000739,0.,-0.00000847
 ,-0.00001329,0.,0.00001269,0.00001517,0.,0.00000263,-0.00000463,0.,-0.
 00000579,0.00000139,0.,-0.00000016,-0.00000016,0.,-0.00000473,-0.00000
 035,0.,0.00022813,-0.00037344,0.00000004,-0.00027275,0.00013024,0.,-0.
 00271149,0.00293518,0.00000009,-0.00140494,0.00046251,0.,0.01005544,0.
 02163042,-0.00000066,-0.00509749,-0.00035401,0.00000026,0.00010508,-0.
 00006839,-0.00000001,-0.08026103,-0.07799592,0.00000292,-0.00305311,-0
 .02959239,0.00000089,-0.00033308,-0.00140612,0.00000006,0.07944123,0.0
 0002878,0.00009414,0.,-0.00003592,-0.00014326,0.,0.00009083,0.00007158
 ,0.,-0.00005743,-0.00000933,0.,0.00000963,-0.00007100,0.,0.00007494,-0
 .00001998,0.,-0.00000663,0.00000055,0.,0.00000790,0.00000484,0.,0.0000
 1028,-0.00000571,0.,0.00001182,-0.00000504,0.,0.00015102,0.00036506,0.
 ,0.00018067,-0.00026953,-0.00000001,0.00388644,-0.00204746,0.00000013,
 0.00092045,0.00046185,-0.00000006,-0.01194280,-0.01663663,0.00000078,-
 0.00094083,0.00198867,0.00000019,-0.00005453,-0.00008822,-0.00000002,-
 0.07752247,-0.32463352,0.00000946,0.00169544,-0.00225666,0.00000008,0.
 00005652,-0.00020170,0.00000002,0.08478204,0.34142585,0.,0.,0.00001713
 ,0.,0.00000002,-0.00001776,0.,0.,-0.00000819,0.,0.,0.00000075,0.,0.,-0
 .00000363,0.,0.,0.00000207,0.,0.,0.00000150,0.,0.,0.00000374,0.,0.,0.0
 0000216,0.,0.,-0.00000271,-0.00000003,0.,-0.00000387,-0.00000001,0.,-0
 .00003945,0.00000011,0.00000017,0.00561703,-0.00000005,-0.00000004,-0.
 00083466,0.00000026,0.00000003,0.00461221,0.00000027,0.00000015,0.0077
 1273,-0.00000002,-0.00000001,-0.00082773,0.00000299,0.00000946,-0.0346
 2293,0.00000006,0.00000070,0.00230399,0.00000002,0.00000003,0.00045550
 ,-0.00000334,-0.00001028,0.02443413,0.00001784,-0.00003722,0.,-0.00002
 499,0.00011023,0.,0.00009927,-0.00005949,0.,0.00002641,0.00001000,0.,-
 0.00000157,0.00004087,0.,-0.00004811,0.00000644,0.,0.00000132,0.000004
 22,0.,0.00000265,-0.00000476,0.,-0.00000700,0.00000435,0.,-0.00000454,
 0.00000429,0.,-0.00018308,0.00031358,-0.00000003,0.00001445,0.00016567
 ,0.00000002,-0.00068814,-0.00060688,0.00000001,0.00104402,-0.00240561,
 0.00000017,-0.00386366,-0.00305436,0.00000034,0.00928593,-0.00841230,0
 .00000011,0.00033802,-0.00043746,-0.00000001,-0.01448192,0.02386544,-0
 .00000022,-0.19138465,0.14210158,-0.00000062,0.00063624,0.00035315,-0.
 00000008,0.00100653,-0.00015109,-0.00000011,0.19938423,0.00002720,0.00
 001666,0.,-0.00007730,0.00003428,-0.00000001,0.00002351,0.00002721,0.,
 -0.00000211,-0.00000179,0.,0.00000959,-0.00000388,0.,0.00000534,-0.000
 01335,0.,-0.00000508,-0.00000122,0.,0.00000450,0.00000236,0.,0.0000048
 5,-0.00000200,0.,0.00000603,-0.00000360,0.,0.00011366,-0.00007198,0.,-
 0.00004947,0.00000820,0.00000002,-0.00101324,0.00018579,-0.00000001,-0
 .00293968,-0.00509315,0.00000039,-0.00270981,0.00062078,0.00000028,0.0
 2297542,-0.01457150,-0.00000002,0.00110305,-0.00101225,-0.00000003,-0.
 00746207,0.00797176,0.00000005,0.14234620,-0.21236291,0.00000160,-0.00
 019402,0.00104416,-0.00000012,0.00019288,0.00076508,-0.00000015,-0.152
 43658,0.22190523,0.,0.00000001,-0.00002432,0.00000002,0.,-0.00008960,0
 .,0.,0.00016190,0.,0.,0.00001053,0.,-0.00000001,-0.00000827,0.00000001
 ,0.,0.00000061,0.,0.,0.00000413,0.,0.,-0.00000215,0.,0.,-0.00000036,0.
 ,0.,0.00000793,-0.00000004,-0.00000003,-0.00025837,0.00000001,-0.00000
 003,0.00023673,0.00000009,0.00000006,-0.00108634,0.00000021,0.00000036
 ,0.00645455,0.00000034,0.00000011,0.00879655,-0.00000070,0.00000060,0.
 00472686,-0.00000006,0.00000005,-0.00021471,0.00000040,-0.00000055,0.0
 0473480,-0.00000049,0.00000169,-0.04066870,-0.00000011,-0.00000013,-0.
 00362550,-0.00000011,-0.00000015,-0.00480896,0.00000044,-0.00000194,0.
 02684050,-0.00515278,-0.00499290,-0.00000002,-0.00325373,0.01801677,0.
 00000065,-0.08524256,0.04866915,0.00000021,0.01429556,-0.00495214,-0.0
 0000005,-0.00291383,0.00858081,0.00000026,-0.00416446,-0.00470055,-0.0
 0000033,0.00019714,-0.00104000,0.,-0.00047212,-0.00009445,-0.00000002,
 0.00026623,-0.00001251,0.00000003,-0.00073707,-0.00001781,-0.00000005,
 -0.42430248,-0.05369414,-0.00000775,-0.05053425,-0.03918526,-0.0000019
 3,-0.16490458,0.07662013,0.00000257,-0.04719127,0.03014931,0.00000035,
 0.03620334,0.01448615,-0.00000041,0.00037081,-0.01747742,0.00000047,0.
 00071910,0.00131843,0.,-0.00617159,-0.00017247,-0.00000002,0.00681219,
 0.00646460,-0.00000037,-0.00034396,0.00082568,0.00000005,0.00046962,-0
 .00125549,0.00000005,0.00029841,0.00001947,0.00000001,0.75764868,0.002
 13736,-0.00198879,-0.00000004,0.02966388,-0.03190796,-0.00000112,0.016
 28761,0.00951513,0.00000044,0.00696515,-0.00979768,-0.00000040,-0.0013
 8832,0.00559637,0.00000014,-0.00316560,-0.00429642,-0.00000024,0.00007
 230,-0.00080725,0.,-0.00052662,0.00007671,0.,0.00022034,-0.00042914,0.
 00000002,-0.00038082,0.00009464,0.,-0.07514396,-0.13454018,-0.00000170
 ,-0.01074802,-0.16889249,-0.00000638,0.07242457,-0.19247588,-0.0000018
 8,0.01788928,0.00931200,-0.00000009,0.01185165,-0.03755456,-0.00000033
 ,-0.00846770,0.01300289,-0.00000001,-0.00235153,-0.00067074,0.,0.00239
 107,-0.00841041,0.00000048,-0.00857556,-0.00708998,0.00000037,-0.00115
 767,0.00080545,-0.00000003,0.00124060,-0.00035376,-0.00000002,-0.00036
 314,0.00008595,0.,-0.04896844,0.55909504,0.,-0.00000020,0.00054099,0.0
 0000089,-0.00000108,0.00473788,-0.00000079,0.00000118,0.00316415,0.000
 00052,-0.00000063,0.00285135,-0.00000012,0.00000041,0.00074718,-0.0000
 0028,-0.00000030,0.00098675,0.00000001,-0.00000004,-0.00056555,-0.0000
 0002,0.00000001,-0.00038277,0.00000002,0.,-0.00047434,-0.00000003,0.,-
 0.00011152,-0.00000731,-0.00000312,-0.06582556,-0.00000072,-0.00000633
 ,-0.03630869,0.00000212,-0.00000240,-0.05435212,0.00000075,-0.00000077
 ,-0.00282660,-0.00000041,0.00000034,0.00413607,0.00000018,0.00000055,0
 .00659892,-0.00000013,-0.00000010,-0.00342638,0.00000019,0.00000003,0.
 00454148,-0.00000022,-0.00000005,-0.00100329,0.00000003,0.,0.00106749,
 -0.00000001,0.00000003,-0.00012615,-0.00000003,-0.00000002,-0.00069314
 ,0.00000500,0.00001158,0.13605077,-0.00033276,0.00253567,0.00000023,0.
 00188457,0.00208765,0.00000022,0.01223026,-0.00081706,-0.00000043,-0.0
 0235348,0.00070644,-0.00000007,-0.00023790,-0.00257217,-0.00000008,0.0
 0231921,0.00046804,0.00000005,-0.00022106,0.00025376,0.,0.00025559,-0.
 00007287,0.,-0.00000234,0.00000915,0.,0.00005185,0.00006230,-0.0000000
 1,0.00799580,0.05368225,-0.00000303,-0.00059139,0.00100280,0.00000014,
 -0.02133232,-0.04127540,0.00000178,-0.00799291,0.00251962,-0.00000010,
 -0.37494641,-0.07789299,0.00000927,-0.00488190,-0.01570596,0.00000041,
 -0.00124980,-0.00072485,0.00000012,-0.06432946,0.00787522,0.00000140,0
 .01579904,0.01243820,-0.00000044,-0.00006013,-0.00029754,0.00000006,0.
 00220930,-0.00013885,-0.00000019,-0.00144931,0.00021092,0.00000001,-0.
 03192163,0.01705988,0.00000002,0.53776961,-0.00080561,-0.00102503,-0.0
 0000021,0.00066946,-0.00400186,-0.00000017,-0.01364536,-0.00312058,0.0
 0000086,0.00012975,-0.00052962,-0.00000002,0.00054705,0.00061593,0.,-0
 .00038377,-0.00017807,0.,0.00019098,-0.00037596,0.,0.00008597,0.000220
 21,0.00000005,0.00015794,-0.00014700,0.,0.00008064,-0.00010232,0.,0.02
 647293,-0.07074319,0.00000297,-0.00081864,-0.00351388,-0.00000021,-0.0
 5125073,-0.00806288,0.00000159,0.01006158,-0.00770015,0.00000010,-0.06
 185950,-0.13075785,0.00000224,-0.00207349,0.00920249,-0.00000017,-0.00
 152279,-0.00030383,0.00000002,0.04377264,0.01845930,-0.00000120,-0.004
 45898,-0.01257136,0.00000055,-0.00007267,0.00049433,-0.00000005,-0.002
 29771,0.00199846,-0.00000004,0.00177258,0.00040129,-0.00000003,0.01162
 786,0.00306053,0.00000018,0.01074335,0.36922203,0.00000008,0.,-0.00024
 397,-0.00000019,0.00000008,-0.00015901,0.00000007,0.00000045,0.0020642
 5,0.00000012,-0.00000004,0.00008826,-0.00000002,0.00000008,-0.00007828
 ,-0.00000005,-0.00000004,0.00004781,0.,0.00000001,0.00000804,0.,-0.000
 00001,0.00002332,0.,0.,-0.00001095,0.,0.,-0.00000073,-0.00000160,0.000
 00056,0.00705338,0.00000016,0.00000023,-0.00045691,0.00000170,0.000001
 48,0.01522512,0.00000037,0.00000016,0.00673041,0.00000955,0.00000291,-
 0.05632231,0.00000008,0.00000030,-0.00093902,0.00000005,0.,0.00013691,
 0.00000087,-0.00000046,0.00821232,-0.00000024,0.,0.00525992,-0.0000000
 1,-0.00000002,-0.00073070,-0.00000008,-0.00000013,-0.00354953,0.,-0.00
 000002,-0.00025619,0.00000078,-0.00000093,-0.00326922,-0.00001201,-0.0
 0000567,0.05125087,0.00013805,-0.00076068,-0.00000003,-0.00185897,-0.0
 0043155,-0.00000008,-0.00350983,0.00449110,-0.00000012,0.00098890,-0.0
 0023112,0.00000005,0.00009403,0.00067861,0.00000006,-0.00061568,-0.000
 14704,-0.00000002,0.00007121,-0.00005723,0.,-0.00035651,0.00001618,-0.
 00000003,0.00004230,-0.00003206,0.,-0.00000369,-0.00006280,0.,-0.02286
 215,-0.01909987,0.00000243,-0.00198818,-0.00370073,-0.00000044,-0.0012
 3069,0.00602515,-0.00000014,0.00138457,0.00076646,0.00000005,-0.051709
 35,0.02796844,0.00000114,0.00067458,0.00279231,-0.00000007,0.00061466,
 0.00029978,-0.00000006,0.00308115,-0.00460243,0.00000027,-0.00296490,-
 0.00088196,0.00000011,0.00006340,0.00003754,-0.00000002,-0.00030272,0.
 00019929,0.,-0.00001834,-0.00015326,-0.00000003,0.01002523,-0.01696629
 ,0.00000034,-0.06861241,0.03287652,0.00000042,0.13885535,0.00066650,0.
 00198962,0.00000026,0.00112129,0.00616112,0.00000049,0.02162049,-0.002
 39198,-0.00000101,-0.00154232,0.00174006,0.,-0.00082671,-0.00188243,-0
 .00000007,0.00121443,0.00072233,0.00000004,-0.00029312,0.00053975,0.00
 000002,0.00008823,-0.00034039,-0.00000005,-0.00026165,0.00023972,0.,-0
 .00009665,0.00016876,0.,-0.01379254,0.01493971,-0.00000387,0.00145384,
 0.00731549,0.00000078,0.00345996,-0.01417473,-0.00000002,-0.00696648,-
 0.00057323,-0.00000015,0.04995781,0.02551845,-0.00000162,-0.00033142,-
 0.00977290,0.00000021,-0.00098258,-0.00040985,0.00000011,-0.02121120,0
 .00370413,0.00000018,0.00819087,0.00745211,-0.00000034,0.00005530,-0.0
 0032321,0.00000006,0.00065614,-0.00043428,-0.00000001,-0.00078353,0.00
 006887,0.00000002,-0.04021478,-0.00142947,0.00000070,0.02784245,-0.160
 54101,0.00000104,-0.02902434,0.12171334,-0.00000015,-0.00000015,0.0004
 3203,0.00000022,-0.00000048,0.00064669,-0.00000114,-0.00000074,-0.0023
 7062,-0.00000005,0.,-0.00032227,0.00000005,0.,0.00004469,-0.00000002,0
 .00000003,-0.00008405,0.00000003,-0.00000005,0.00003085,-0.00000003,0.
 00000003,0.00002271,0.00000001,-0.00000001,0.00002360,0.,0.,-0.0000104
 7,0.00000218,0.00000055,-0.01486860,-0.00000028,-0.00000052,0.00164731
 ,-0.00000003,0.00000027,-0.00247161,0.00000007,-0.00000003,-0.00049378
 ,-0.00000068,-0.00000165,-0.00063851,0.00000006,0.00000020,-0.00014034
 ,0.00000002,0.00000001,-0.00002228,0.00000057,0.00000005,0.00214926,-0
 .00000015,-0.00000012,0.00161183,0.,0.,0.00000263,-0.00000002,0.,-0.00
 031738,0.00000002,0.,-0.00023846,0.00000053,0.00000015,0.00394228,0.00
 000262,-0.00000080,-0.03008379,-0.00000382,0.00000324,0.04150827\\-0.0
 0091869,0.00284303,-0.00000008,0.00370733,0.00652397,-0.00000033,0.007
 95715,0.00029166,0.00000042,0.00037794,-0.00038684,0.00000004,-0.00072
 025,-0.00444317,-0.00000009,-0.00091303,-0.00073383,0.00000008,-0.0003
 9285,0.00043024,0.00000006,0.00040003,-0.00025005,-0.00000003,-0.00006
 614,-0.00032024,0.00000001,-0.00024917,-0.00014536,0.00000007,-0.00770
 145,0.00794381,0.00000123,0.00342886,0.01184432,0.00000041,-0.00483085
 ,0.00414497,0.00000002,0.00680573,-0.00193841,-0.00000030,0.00966008,0
 .00292225,0.00000093,-0.00205593,0.00277141,0.00000028,0.00035439,-0.0
 0013064,0.00000005,-0.00408358,-0.00002291,0.00000006,-0.00517920,-0.0
 0272339,-0.00000026,-0.00009287,-0.00024222,0.00000007,-0.00041532,0.0
 0003408,-0.00000006,-0.00053440,-0.00031755,-0.00000008,-0.00433737,-0
 .00242703,-0.00000116,-0.00606528,-0.00624879,0.00000118,0.00586486,-0
 .01941928,-0.00000253\\\@
 The archive entry for this job was punched.


 SOME PHYSICISTS WOULD PREFER TO COME BACK TO THE IDEA OF AN OBJECTIVE
 REAL WORLD WHOSE SMALLEST PARTS EXIST OBJECTIVELY IN THE SAME SENSE AS
 STONES OR TREES EXIST INDEPENDENTLY OF WHETHER WE OBSERVE THEM.
 THIS, HOWEVER, IS IMPOSSIBLE.  -- WERNER HEISENBERG
 Job cpu time:       0 days  1 hours  1 minutes 26.5 seconds.
 Elapsed time:       0 days  0 hours  6 minutes 50.9 seconds.
 File lengths (MBytes):  RWF=    544 Int=      0 D2E=      0 Chk=     40 Scr=      8
 Normal termination of Gaussian 16 at Wed Oct 28 00:53:34 2020.
