 Entering Gaussian System, Link 0=g16
 Initial command:
 /gpfs/loomis/apps/avx/software/Gaussian/16-C.01_AVX/g16/l1.exe "/home/fas/batista/pev4/scratch60/gauss-scratch/Gau-45122.inp" -scrdir="/home/fas/batista/pev4/scratch60/gauss-scratch/"
 Entering Link 1 = /gpfs/loomis/apps/avx/software/Gaussian/16-C.01_AVX/g16/l1.exe PID=     45123.
  
 Copyright (c) 1988-2019, Gaussian, Inc.  All Rights Reserved.
  
 This is part of the Gaussian(R) 16 program.  It is based on
 the Gaussian(R) 09 system (copyright 2009, Gaussian, Inc.),
 the Gaussian(R) 03 system (copyright 2003, Gaussian, Inc.),
 the Gaussian(R) 98 system (copyright 1998, Gaussian, Inc.),
 the Gaussian(R) 94 system (copyright 1995, Gaussian, Inc.),
 the Gaussian 92(TM) system (copyright 1992, Gaussian, Inc.),
 the Gaussian 90(TM) system (copyright 1990, Gaussian, Inc.),
 the Gaussian 88(TM) system (copyright 1988, Gaussian, Inc.),
 the Gaussian 86(TM) system (copyright 1986, Carnegie Mellon
 University), and the Gaussian 82(TM) system (copyright 1983,
 Carnegie Mellon University). Gaussian is a federally registered
 trademark of Gaussian, Inc.
  
 This software contains proprietary and confidential information,
 including trade secrets, belonging to Gaussian, Inc.
  
 This software is provided under written license and may be
 used, copied, transmitted, or stored only in accord with that
 written license.
  
 The following legend is applicable only to US Government
 contracts under FAR:
  
                    RESTRICTED RIGHTS LEGEND
  
 Use, reproduction and disclosure by the US Government is
 subject to restrictions as set forth in subparagraphs (a)
 and (c) of the Commercial Computer Software - Restricted
 Rights clause in FAR 52.227-19.
  
 Gaussian, Inc.
 340 Quinnipiac St., Bldg. 40, Wallingford CT 06492
  
  
 ---------------------------------------------------------------
 Warning -- This program may not be used in any manner that
 competes with the business of Gaussian, Inc. or will provide
 assistance to any competitor of Gaussian, Inc.  The licensee
 of this program is prohibited from giving any competitor of
 Gaussian, Inc. access to this program.  By using this program,
 the user acknowledges that Gaussian, Inc. is engaged in the
 business of creating and licensing software in the field of
 computational chemistry and represents and warrants to the
 licensee that it is not a competitor of Gaussian, Inc. and that
 it will not use this program in any manner prohibited above.
 ---------------------------------------------------------------
  

 Cite this work as:
 Gaussian 16, Revision C.01,
 M. J. Frisch, G. W. Trucks, H. B. Schlegel, G. E. Scuseria, 
 M. A. Robb, J. R. Cheeseman, G. Scalmani, V. Barone, 
 G. A. Petersson, H. Nakatsuji, X. Li, M. Caricato, A. V. Marenich, 
 J. Bloino, B. G. Janesko, R. Gomperts, B. Mennucci, H. P. Hratchian, 
 J. V. Ortiz, A. F. Izmaylov, J. L. Sonnenberg, D. Williams-Young, 
 F. Ding, F. Lipparini, F. Egidi, J. Goings, B. Peng, A. Petrone, 
 T. Henderson, D. Ranasinghe, V. G. Zakrzewski, J. Gao, N. Rega, 
 G. Zheng, W. Liang, M. Hada, M. Ehara, K. Toyota, R. Fukuda, 
 J. Hasegawa, M. Ishida, T. Nakajima, Y. Honda, O. Kitao, H. Nakai, 
 T. Vreven, K. Throssell, J. A. Montgomery, Jr., J. E. Peralta, 
 F. Ogliaro, M. J. Bearpark, J. J. Heyd, E. N. Brothers, K. N. Kudin, 
 V. N. Staroverov, T. A. Keith, R. Kobayashi, J. Normand, 
 K. Raghavachari, A. P. Rendell, J. C. Burant, S. S. Iyengar, 
 J. Tomasi, M. Cossi, J. M. Millam, M. Klene, C. Adamo, R. Cammi, 
 J. W. Ochterski, R. L. Martin, K. Morokuma, O. Farkas, 
 J. B. Foresman, and D. J. Fox, Gaussian, Inc., Wallingford CT, 2019.
 
 ******************************************
 Gaussian 16:  ES64L-G16RevC.01  3-Jul-2019
                27-Oct-2020 
 ******************************************
 %chk=config_2_8.chk
 %mem=58GB
 %nprocshared=10
 Will use up to   10 processors via shared memory.
 ----------------------------------------------------------------------
 #p opt=addgic freq wb97xd/cc-pvdz nosymm int=ultrafine scrf=(solvent=C
 arbonTetraChloride)
 ----------------------------------------------------------------------
 1/18=20,19=15,26=6,38=1,145=903/1,3;
 2/9=110,12=2,15=1,17=6,18=5,40=1/2;
 3/5=16,11=2,25=1,30=1,70=2201,71=1,72=11,74=-58,75=-5/1,2,3;
 4//1;
 5/5=2,38=5,53=11/2;
 6/7=2,8=2,9=2,10=2,28=1/1;
 7/30=1/1,2,3,16;
 1/18=20,19=15,26=6,145=903/3(2);
 2/9=110,15=1/2;
 99//99;
 2/9=110,15=1/2;
 3/5=16,11=2,25=1,30=1,70=2205,71=1,72=11,74=-58,75=-5/1,2,3;
 4/5=5,16=3,69=1/1;
 5/5=2,38=5,53=11/2;
 7/30=1/1,2,3,16;
 1/18=20,19=15,26=6,145=903/3(-5);
 2/9=110,15=1/2;
 6/7=2,8=2,9=2,10=2,19=2,28=1/1;
 99/9=1/99;
 Leave Link    1 at Tue Oct 27 22:17:12 2020, MaxMem=  7784628224 cpu:               4.1 elap:               0.5
 (Enter /gpfs/loomis/apps/avx/software/Gaussian/16-C.01_AVX/g16/l101.exe)
 ------------------------------------------------
 NM 2D-scan of HBT TD-WB97XD pVDZ in CTC Relaxed.
 ------------------------------------------------
 Symbolic Z-matrix:
 Charge =  0 Multiplicity = 1
 C                     1.6607   -3.26956  -0.00002 
 C                     0.99291  -2.05068  -0.00002 
 C                     1.7006   -0.80672  -0.00002 
 C                     3.12649  -0.83167  -0.00002 
 C                     3.77341  -2.05015  -0.00002 
 C                     3.05478  -3.26613  -0.00002 
 H                     1.10693  -4.20906  -0.00002 
 H                     3.67462   0.11119  -0.00002 
 H                     4.86481  -2.07985  -0.00002 
 H                     3.59501  -4.21392  -0.00002 
 N                     0.93974   0.27891  -0.00002 
 S                    -0.73202  -1.7463   -0.00002 
 C                    -1.36456   1.0202    0. 
 C                    -2.77703   0.82587   0. 
 C                    -0.90294   2.41921   0.00003 
 C                    -3.64349   1.90194   0.00003 
 H                    -3.16674  -0.19254  -0.00002 
 C                    -1.80435   3.48995   0.00005 
 C                    -3.17175   3.24246   0.00005 
 H                    -4.71962   1.71989   0.00002 
 H                    -1.40146   4.50293   0.00008 
 H                    -3.88079   4.07046   0.00007 
 C                    -0.39229   0.0034   -0.00002 
 O                     0.39744   2.66385   0.00004 
 H                     0.7788    2.05871   0.00002 
 
 Initializing the GIC definitions file.
 Number of initial coordinates =   131
 Number of input entries/lines =    52
 Number of additional coordinates =     2
 Number of removed coordinates =     0
 Number of frozen coordinates =     2
 Number of final active and frozen coordinates =   133
 ITRead=  0  0  0  0  0  0  0  0  0  0  0  0  0  0  0  0  0  0  0  0
 ITRead=  0  0  0  0  0
 MicOpt= -1 -1 -1 -1 -1 -1 -1 -1 -1 -1 -1 -1 -1 -1 -1 -1 -1 -1 -1 -1
 MicOpt= -1 -1 -1 -1 -1
 NAtoms=     25 NQM=       25 NQMF=       0 NMMI=      0 NMMIF=      0
                NMic=       0 NMicF=      0.
                    Isotopes and Nuclear Properties:
 (Nuclear quadrupole moments (NQMom) in fm**2, nuclear magnetic moments (NMagM)
  in nuclear magnetons)

  Atom         1           2           3           4           5           6           7           8           9          10
 IAtWgt=          12          12          12          12          12          12           1           1           1           1
 AtmWgt=  12.0000000  12.0000000  12.0000000  12.0000000  12.0000000  12.0000000   1.0078250   1.0078250   1.0078250   1.0078250
 NucSpn=           0           0           0           0           0           0           1           1           1           1
 AtZEff=  -0.0000000  -0.0000000  -0.0000000  -0.0000000  -0.0000000  -0.0000000  -0.0000000  -0.0000000  -0.0000000  -0.0000000
 NQMom=    0.0000000   0.0000000   0.0000000   0.0000000   0.0000000   0.0000000   0.0000000   0.0000000   0.0000000   0.0000000
 NMagM=    0.0000000   0.0000000   0.0000000   0.0000000   0.0000000   0.0000000   2.7928460   2.7928460   2.7928460   2.7928460
 AtZNuc=   6.0000000   6.0000000   6.0000000   6.0000000   6.0000000   6.0000000   1.0000000   1.0000000   1.0000000   1.0000000

  Atom        11          12          13          14          15          16          17          18          19          20
 IAtWgt=          14          32          12          12          12          12           1          12          12           1
 AtmWgt=  14.0030740  31.9720718  12.0000000  12.0000000  12.0000000  12.0000000   1.0078250  12.0000000  12.0000000   1.0078250
 NucSpn=           2           0           0           0           0           0           1           0           0           1
 AtZEff=  -0.0000000  -0.0000000  -0.0000000  -0.0000000  -0.0000000  -0.0000000  -0.0000000  -0.0000000  -0.0000000  -0.0000000
 NQMom=    2.0440000   0.0000000   0.0000000   0.0000000   0.0000000   0.0000000   0.0000000   0.0000000   0.0000000   0.0000000
 NMagM=    0.4037610   0.0000000   0.0000000   0.0000000   0.0000000   0.0000000   2.7928460   0.0000000   0.0000000   2.7928460
 AtZNuc=   7.0000000  16.0000000   6.0000000   6.0000000   6.0000000   6.0000000   1.0000000   6.0000000   6.0000000   1.0000000

  Atom        21          22          23          24          25
 IAtWgt=           1           1          12          16           1
 AtmWgt=   1.0078250   1.0078250  12.0000000  15.9949146   1.0078250
 NucSpn=           1           1           0           0           1
 AtZEff=  -0.0000000  -0.0000000  -0.0000000  -0.0000000  -0.0000000
 NQMom=    0.0000000   0.0000000   0.0000000   0.0000000   0.0000000
 NMagM=    2.7928460   2.7928460   0.0000000   0.0000000   2.7928460
 AtZNuc=   1.0000000   1.0000000   6.0000000   8.0000000   1.0000000
 Leave Link  101 at Tue Oct 27 22:17:15 2020, MaxMem=  7784628224 cpu:              31.3 elap:               3.2
 (Enter /gpfs/loomis/apps/avx/software/Gaussian/16-C.01_AVX/g16/l103.exe)

 GradGradGradGradGradGradGradGradGradGradGradGradGradGradGradGradGradGrad
 Berny optimization.
 Initialization pass.
                           ----------------------------
                           !    Initial Parameters    !
                           ! (Angstroms and Degrees)  !
 --------------------------                            --------------------------
 ! Name  Definition              Value          Derivative Info.                !
 --------------------------------------------------------------------------------
 ! R1    R(1,2)                  1.3898         estimate D2E/DX2                !
 ! R2    R(1,6)                  1.3941         estimate D2E/DX2                !
 ! R3    R(1,7)                  1.0906         estimate D2E/DX2                !
 ! R4    R(2,3)                  1.4312         estimate D2E/DX2                !
 ! R5    R(2,12)                 1.7516         estimate D2E/DX2                !
 ! R6    R(3,4)                  1.4261         estimate D2E/DX2                !
 ! R7    R(3,11)                 1.3257         estimate D2E/DX2                !
 ! R8    R(4,5)                  1.3796         estimate D2E/DX2                !
 ! R9    R(4,8)                  1.0906         estimate D2E/DX2                !
 ! R10   R(5,6)                  1.4125         estimate D2E/DX2                !
 ! R11   R(5,9)                  1.0918         estimate D2E/DX2                !
 ! R12   R(6,10)                 1.0909         estimate D2E/DX2                !
 ! R13   R(11,23)                1.3602         estimate D2E/DX2                !
 ! R14   R(12,23)                1.7824         estimate D2E/DX2                !
 ! R15   R(13,14)                1.4258         estimate D2E/DX2                !
 ! R16   R(13,15)                1.4732         estimate D2E/DX2                !
 ! R17   R(13,23)                1.4068         estimate D2E/DX2                !
 ! R18   R(14,16)                1.3815         estimate D2E/DX2                !
 ! R19   R(14,17)                1.0904         estimate D2E/DX2                !
 ! R20   R(15,18)                1.3997         estimate D2E/DX2                !
 ! R21   R(15,24)                1.3232         estimate D2E/DX2                !
 ! R22   R(16,19)                1.4211         estimate D2E/DX2                !
 ! R23   R(16,20)                1.0914         estimate D2E/DX2                !
 ! R24   R(18,19)                1.3896         estimate D2E/DX2                !
 ! R25   R(18,21)                1.0902         estimate D2E/DX2                !
 ! R26   R(19,22)                1.0901         estimate D2E/DX2                !
 ! R27   R(24,25)                0.7153         estimate D2E/DX2                !
 ! A1    A(2,1,6)              118.5762         estimate D2E/DX2                !
 ! A2    A(2,1,7)              120.7667         estimate D2E/DX2                !
 ! A3    A(6,1,7)              120.6572         estimate D2E/DX2                !
 ! A4    A(1,2,3)              121.6472         estimate D2E/DX2                !
 ! A5    A(1,2,12)             128.7245         estimate D2E/DX2                !
 ! A6    A(3,2,12)             109.6283         estimate D2E/DX2                !
 ! A7    A(2,3,4)              118.6334         estimate D2E/DX2                !
 ! A8    A(2,3,11)             115.3399         estimate D2E/DX2                !
 ! A9    A(4,3,11)             126.0268         estimate D2E/DX2                !
 ! A10   A(3,4,5)              118.9671         estimate D2E/DX2                !
 ! A11   A(3,4,8)              119.1691         estimate D2E/DX2                !
 ! A12   A(5,4,8)              121.8638         estimate D2E/DX2                !
 ! A13   A(4,5,6)              121.4526         estimate D2E/DX2                !
 ! A14   A(4,5,9)              119.5236         estimate D2E/DX2                !
 ! A15   A(6,5,9)              119.0238         estimate D2E/DX2                !
 ! A16   A(1,6,5)              120.7236         estimate D2E/DX2                !
 ! A17   A(1,6,10)             119.5417         estimate D2E/DX2                !
 ! A18   A(5,6,10)             119.7347         estimate D2E/DX2                !
 ! A19   A(3,11,23)            113.3386         estimate D2E/DX2                !
 ! A20   A(2,12,23)             89.0196         estimate D2E/DX2                !
 ! A21   A(14,13,15)           116.0943         estimate D2E/DX2                !
 ! A22   A(14,13,23)           125.8841         estimate D2E/DX2                !
 ! A23   A(15,13,23)           118.0217         estimate D2E/DX2                !
 ! A24   A(13,14,16)           121.0078         estimate D2E/DX2                !
 ! A25   A(13,14,17)           118.7734         estimate D2E/DX2                !
 ! A26   A(16,14,17)           120.2188         estimate D2E/DX2                !
 ! A27   A(13,15,18)           121.6465         estimate D2E/DX2                !
 ! A28   A(13,15,24)           118.9153         estimate D2E/DX2                !
 ! A29   A(18,15,24)           119.4382         estimate D2E/DX2                !
 ! A30   A(14,16,19)           121.7713         estimate D2E/DX2                !
 ! A31   A(14,16,20)           119.239          estimate D2E/DX2                !
 ! A32   A(19,16,20)           118.9897         estimate D2E/DX2                !
 ! A33   A(15,18,19)           119.8336         estimate D2E/DX2                !
 ! A34   A(15,18,21)           118.2183         estimate D2E/DX2                !
 ! A35   A(19,18,21)           121.9481         estimate D2E/DX2                !
 ! A36   A(16,19,18)           119.6465         estimate D2E/DX2                !
 ! A37   A(16,19,22)           120.0378         estimate D2E/DX2                !
 ! A38   A(18,19,22)           120.3157         estimate D2E/DX2                !
 ! A39   A(11,23,12)           112.6736         estimate D2E/DX2                !
 ! A40   A(11,23,13)           122.0317         estimate D2E/DX2                !
 ! A41   A(12,23,13)           125.2947         estimate D2E/DX2                !
 ! A42   A(15,24,25)           111.5651         estimate D2E/DX2                !
 ! D1    D(6,1,2,3)              0.0            estimate D2E/DX2                !
 ! D2    D(6,1,2,12)          -180.0            estimate D2E/DX2                !
 ! D3    D(7,1,2,3)            180.0            estimate D2E/DX2                !
 ! D4    D(7,1,2,12)             0.0            estimate D2E/DX2                !
 ! D5    D(2,1,6,5)              0.0            estimate D2E/DX2                !
 ! D6    D(2,1,6,10)           180.0            estimate D2E/DX2                !
 ! D7    D(7,1,6,5)           -180.0            estimate D2E/DX2                !
 ! D8    D(7,1,6,10)             0.0            estimate D2E/DX2                !
 ! D9    D(1,2,3,4)              0.0            estimate D2E/DX2                !
 ! D10   D(1,2,3,11)           180.0            estimate D2E/DX2                !
 ! D11   D(12,2,3,4)           180.0            estimate D2E/DX2                !
 ! D12   D(12,2,3,11)            0.0            estimate D2E/DX2                !
 ! D13   D(1,2,12,23)          179.9998         estimate D2E/DX2                !
 ! D14   D(3,2,12,23)           -0.0002         estimate D2E/DX2                !
 ! D15   D(2,3,4,5)              0.0            estimate D2E/DX2                !
 ! D16   D(2,3,4,8)            180.0            estimate D2E/DX2                !
 ! D17   D(11,3,4,5)          -180.0            estimate D2E/DX2                !
 ! D18   D(11,3,4,8)             0.0            estimate D2E/DX2                !
 ! D19   D(2,3,11,23)            0.0003         estimate D2E/DX2                !
 ! D20   D(4,3,11,23)         -179.9998         estimate D2E/DX2                !
 ! D21   D(3,4,5,6)              0.0            estimate D2E/DX2                !
 ! D22   D(3,4,5,9)           -180.0            estimate D2E/DX2                !
 ! D23   D(8,4,5,6)            180.0            estimate D2E/DX2                !
 ! D24   D(8,4,5,9)              0.0            estimate D2E/DX2                !
 ! D25   D(4,5,6,1)              0.0            estimate D2E/DX2                !
 ! D26   D(4,5,6,10)          -180.0            estimate D2E/DX2                !
 ! D27   D(9,5,6,1)           -180.0            estimate D2E/DX2                !
 ! D28   D(9,5,6,10)             0.0            estimate D2E/DX2                !
 ! D29   D(3,11,23,12)          -0.0004         estimate D2E/DX2                !
 ! D30   D(3,11,23,13)         179.9991         estimate D2E/DX2                !
 ! D31   D(2,12,23,11)           0.0003         estimate D2E/DX2                !
 ! D32   D(2,12,23,13)        -179.9991         estimate D2E/DX2                !
 ! D33   D(15,13,14,16)          0.0            estimate D2E/DX2                !
 ! D34   D(15,13,14,17)        180.0            estimate D2E/DX2                !
 ! D35   D(23,13,14,16)        179.9999         estimate D2E/DX2                !
 ! D36   D(23,13,14,17)         -0.0002         estimate D2E/DX2                !
 ! D37   D(14,13,15,18)         -0.0001         estimate D2E/DX2                !
 ! D38   D(14,13,15,24)        179.9998         estimate D2E/DX2                !
 ! D39   D(23,13,15,18)       -179.9999         estimate D2E/DX2                !
 ! D40   D(23,13,15,24)         -0.0001         estimate D2E/DX2                !
 ! D41   D(14,13,23,11)        179.9995         estimate D2E/DX2                !
 ! D42   D(14,13,23,12)         -0.0011         estimate D2E/DX2                !
 ! D43   D(15,13,23,11)         -0.0006         estimate D2E/DX2                !
 ! D44   D(15,13,23,12)        179.9988         estimate D2E/DX2                !
 ! D45   D(13,14,16,19)          0.0            estimate D2E/DX2                !
 ! D46   D(13,14,16,20)        180.0            estimate D2E/DX2                !
 ! D47   D(17,14,16,19)       -180.0            estimate D2E/DX2                !
 ! D48   D(17,14,16,20)          0.0            estimate D2E/DX2                !
 ! D49   D(13,15,18,19)          0.0001         estimate D2E/DX2                !
 ! D50   D(13,15,18,21)        179.9999         estimate D2E/DX2                !
 ! D51   D(24,15,18,19)       -179.9997         estimate D2E/DX2                !
 ! D52   D(24,15,18,21)          0.0001         estimate D2E/DX2                !
 ! D53   D(13,15,24,25)          0.0003         estimate D2E/DX2                !
 ! D54   D(18,15,24,25)       -179.9998         estimate D2E/DX2                !
 ! D55   D(14,16,19,18)          0.0001         estimate D2E/DX2                !
 ! D56   D(14,16,19,22)       -179.9999         estimate D2E/DX2                !
 ! D57   D(20,16,19,18)       -180.0            estimate D2E/DX2                !
 ! D58   D(20,16,19,22)          0.0001         estimate D2E/DX2                !
 ! D59   D(15,18,19,16)         -0.0001         estimate D2E/DX2                !
 ! D60   D(15,18,19,22)        179.9999         estimate D2E/DX2                !
 ! D61   D(21,18,19,16)       -179.9999         estimate D2E/DX2                !
 ! D62   D(21,18,19,22)          0.0001         estimate D2E/DX2                !
 ! Qtot  GIC-1                 -40.0            Frozen                          !
 ! Ptot  GIC-2                   0.0            Frozen                          !
 --------------------------------------------------------------------------------
 NOTE: GIC-type coordinates are in arbitrary units.
 Trust Radius=3.00D-01 FncErr=5.00D-06 GrdErr=5.00D-06 EigMax=2.50D+02 EigMin=1.00D-04
 Number of steps in this run=    143 maximum allowed number of steps=    150.
 GradGradGradGradGradGradGradGradGradGradGradGradGradGradGradGradGradGrad

 Leave Link  103 at Tue Oct 27 22:17:15 2020, MaxMem=  7784628224 cpu:               0.1 elap:               0.0
 (Enter /gpfs/loomis/apps/avx/software/Gaussian/16-C.01_AVX/g16/l202.exe)
                          Input orientation:                          
 ---------------------------------------------------------------------
 Center     Atomic      Atomic             Coordinates (Angstroms)
 Number     Number       Type             X           Y           Z
 ---------------------------------------------------------------------
      1          6           0        1.660696   -3.269562   -0.000021
      2          6           0        0.992906   -2.050682   -0.000022
      3          6           0        1.700600   -0.806720   -0.000022
      4          6           0        3.126495   -0.831667   -0.000023
      5          6           0        3.773413   -2.050149   -0.000023
      6          6           0        3.054780   -3.266132   -0.000022
      7          1           0        1.106930   -4.209061   -0.000020
      8          1           0        3.674622    0.111191   -0.000024
      9          1           0        4.864811   -2.079849   -0.000023
     10          1           0        3.595009   -4.213923   -0.000021
     11          7           0        0.939741    0.278912   -0.000023
     12         16           0       -0.732017   -1.746302   -0.000021
     13          6           0       -1.364558    1.020198    0.000004
     14          6           0       -2.777035    0.825874    0.000002
     15          6           0       -0.902940    2.419210    0.000032
     16          6           0       -3.643494    1.901944    0.000025
     17          1           0       -3.166744   -0.192543   -0.000018
     18          6           0       -1.804353    3.489951    0.000055
     19          6           0       -3.171753    3.242463    0.000052
     20          1           0       -4.719619    1.719887    0.000023
     21          1           0       -1.401462    4.502934    0.000076
     22          1           0       -3.880795    4.070455    0.000072
     23          6           0       -0.392294    0.003404   -0.000017
     24          8           0        0.397442    2.663850    0.000040
     25          1           0        0.778804    2.058714    0.000025
 ---------------------------------------------------------------------
                    Distance matrix (angstroms):
                    1          2          3          4          5
     1  C    0.000000
     2  C    1.389824   0.000000
     3  C    2.463165   1.431178   0.000000
     4  C    2.844626   2.457274   1.426113   0.000000
     5  C    2.439372   2.780506   2.417161   1.379565   0.000000
     6  C    1.394087   2.393458   2.807581   2.435521   1.412462
     7  H    1.090558   2.161389   3.453747   3.935153   3.430894
     8  H    3.935147   3.444603   2.176999   1.090607   2.163596
     9  H    3.417860   3.872015   3.410732   2.140024   1.091803
    10  H    2.152530   3.383866   3.898438   3.414551   2.171117
    11  N    3.620972   2.330200   1.325708   2.452606   3.667999
    12  S    2.836441   1.751573   2.607765   3.965434   4.515663
    13  C    5.249210   3.871427   3.568309   4.857876   5.985464
    14  C    6.038713   4.742049   4.765981   6.131811   7.154010
    15  C    6.239740   4.855324   4.145485   5.177310   6.468650
    16  C    7.408030   6.092574   5.991344   7.301053   8.404138
    17  H    5.724704   4.555807   4.905941   6.325610   7.184461
    18  C    7.595893   6.206712   5.544915   6.556649   7.861563
    19  C    8.109194   6.735115   6.335275   7.501097   8.731956
    20  H    8.099569   6.844716   6.899489   8.250571   9.292188
    21  H    8.353951   6.977312   6.149408   6.997168   8.349983
    22  H    9.196954   7.824403   7.412072   8.551778   9.800443
    23  C    3.863557   2.477509   2.244217   3.616521   4.644372
    24  O    6.066398   4.751988   3.707165   4.434677   5.798185
    25  H    5.400765   4.114970   3.010054   3.723702   5.084332
                    6          7          8          9         10
     6  C    0.000000
     7  H    2.164078   0.000000
     8  H    3.433732   5.025696   0.000000
     9  H    2.164135   4.319168   2.493433   0.000000
    10  H    1.090942   2.488084   4.325846   2.483277   0.000000
    11  N    4.128041   4.491086   2.740019   4.579294   5.218813
    12  S    4.080406   3.073582   4.782128   5.606758   4.981195
    13  C    6.156555   5.783892   5.120511   6.958113   7.210640
    14  C    7.124224   6.358911   6.491120   8.175637   8.124192
    15  C    6.927240   6.926295   5.126502   7.314950   8.014362
    16  C    8.460253   7.740214   7.534030   9.393931   9.476273
    17  H    6.939331   5.864871   6.848105   8.250322   7.867198
    18  C    8.322009   8.231061   6.437017   8.689099   9.407592
    19  C    9.007303   8.592575   7.528460   9.639158  10.069099
    20  H    9.235890   8.312707   8.546998  10.310155  10.214849
    21  H    8.956365   9.065919   6.712230   9.088411  10.047304
    22  H   10.095925   9.665805   8.529953  10.691673  11.158789
    23  C    4.751019   4.471302   4.068345   5.654830   5.803829
    24  O    6.498163   6.909434   4.154031   6.516139   7.584734
    25  H    5.790859   6.276359   3.489786   5.815768   6.875826
                   11         12         13         14         15
    11  N    0.000000
    12  S    2.626074   0.000000
    13  C    2.420599   2.837892   0.000000
    14  C    3.756806   3.286060   1.425781   0.000000
    15  C    2.824243   4.169018   1.473203   2.459868   0.000000
    16  C    4.862127   4.667591   2.443568   1.381549   2.788943
    17  H    4.133460   2.888264   2.172237   1.090434   3.456308
    18  C    4.223841   5.344928   2.508605   2.836092   1.399655
    19  C    5.068236   5.553386   2.864335   2.448613   2.413557
    20  H    5.839929   5.283506   3.427243   2.138432   3.880218
    21  H    4.829451   6.284991   3.482931   3.925935   2.142529
    22  H    6.132974   6.614338   3.954177   3.427185   3.405030
    23  C    1.360229   1.782381   1.406829   2.522586   2.469186
    24  O    2.445816   4.552485   2.409613   3.668168   1.323194
    25  H    1.787064   4.093987   2.381705   3.763494   1.719948
                   16         17         18         19         20
    16  C    0.000000
    17  H    2.148061   0.000000
    18  C    2.429857   3.926433   0.000000
    19  C    1.421102   3.435009   1.389616   0.000000
    20  H    1.091417   2.463495   3.410557   2.171204   0.000000
    21  H    3.433926   5.016345   1.090162   2.173180   4.330763
    22  H    2.181456   4.322386   2.156060   1.090097   2.495755
    23  C    3.764937   2.781361   3.761638   4.268125   4.655325
    24  O    4.112136   4.567538   2.351669   3.615791   5.203401
    25  H    4.425076   4.542633   2.953158   4.124095   5.508853
                   21         22         23         24         25
    21  H    0.000000
    22  H    2.516769   0.000000
    23  C    4.611311   5.358222   0.000000
    24  O    2.572603   4.503537   2.775186   0.000000
    25  H    3.275328   5.075329   2.365539   0.715280   0.000000
 Symmetry turned off by external request.
 Stoichiometry    C13H9NOS
 Framework group  C1[X(C13H9NOS)]
 Deg. of freedom    69
 Full point group                 C1      NOp   1
 Rotational constants (GHZ):           1.3694054           0.2860137           0.2365979
 Leave Link  202 at Tue Oct 27 22:17:15 2020, MaxMem=  7784628224 cpu:               0.1 elap:               0.0
 (Enter /gpfs/loomis/apps/avx/software/Gaussian/16-C.01_AVX/g16/l301.exe)
 Standard basis: CC-pVDZ (5D, 7F)
 Ernie: Thresh=  0.10000D-02 Tol=  0.10000D-05 Strict=F.
 Ernie:  40 primitive shells out of 425 were deleted.
   273 basis functions,   629 primitive gaussians,   289 cartesian basis functions
    59 alpha electrons       59 beta electrons
       nuclear repulsion energy      1098.6284555877 Hartrees.
 IExCor= 4639 DFT=T Ex+Corr=wB97XD ExCW=0 ScaHFX=  1.000000
 ScaDFX=  1.000000  1.000000  1.000000  1.000000 ScalE2=  1.000000  1.000000
 IRadAn=      5 IRanWt=     -1 IRanGd=            0 ICorTp=0 IEmpDi=121
 HFx  wShort=  0.000000 wLong=  0.200000 cFull=  0.222036 cShort=  0.000000 cLong=  0.777964
 DFx  wShort=  0.000000 wLong=  0.200000 cFull=  0.000000 cShort=  0.000000 cLong=  1.000000
 NAtoms=   25 NActive=   25 NUniq=   25 SFac= 1.00D+00 NAtFMM=   60 NAOKFM=F Big=F
 Integral buffers will be    131072 words long.
 Raffenetti 2 integral format.
 Two-electron integral symmetry is turned off.
 R6Disp:  Grimme-D2 Dispersion energy=       -0.0139488788 Hartrees.
 Nuclear repulsion after empirical dispersion term =     1098.6145067089 Hartrees.
 ------------------------------------------------------------------------------
 Polarizable Continuum Model (PCM)
 =================================
 Model                : PCM.
 Atomic radii         : UFF (Universal Force Field).
 Polarization charges : Total charges.
 Charge compensation  : None.
 Solution method      : On-the-fly selection.
 Cavity type          : Scaled VdW (van der Waals Surface) (Alpha=1.100).
 Cavity algorithm     : GePol (No added spheres)
                        Default sphere list used, NSphG=   25.
                        Lebedev-Laikov grids with approx.  5.0 points / Ang**2.
                        Smoothing algorithm: York/Karplus (Gamma=1.0000).
                        Polarization charges: spherical gaussians, with
                                              point-specific exponents (IZeta= 3).
                        Self-potential: point-specific (ISelfS= 7).
                        Self-field    : sphere-specific E.n sum rule (ISelfD= 2).
 1st derivatives      : Analytical E(r).r(x)/FMM algorithm (CHGder, D1EAlg=3).
                        Cavity 1st derivative terms included.
 Solvent              : CarbonTetraChloride, Eps=   2.228000 Eps(inf)=   2.131892
 ------------------------------------------------------------------------------
 GePol: Number of generator spheres                  =      25
 GePol: Total number of spheres                      =      25
 GePol: Number of exposed spheres                    =      25 (100.00%)
 GePol: Number of points                             =    2174
 GePol: Average weight of points                     =       0.13
 GePol: Minimum weight of points                     =   0.16D-07
 GePol: Maximum weight of points                     =    0.20577
 GePol: Number of points with low weight             =     118
 GePol: Fraction of low-weight points (<1% of avg)   =       5.43%
 GePol: Cavity surface area                          =    274.145 Ang**2
 GePol: Cavity volume                                =    293.252 Ang**3
 Leave Link  301 at Tue Oct 27 22:17:15 2020, MaxMem=  7784628224 cpu:               0.8 elap:               0.1
 (Enter /gpfs/loomis/apps/avx/software/Gaussian/16-C.01_AVX/g16/l302.exe)
 NPDir=0 NMtPBC=     1 NCelOv=     1 NCel=       1 NClECP=     1 NCelD=      1
         NCelK=      1 NCelE2=     1 NClLst=     1 CellRange=     0.0.
 One-electron integrals computed using PRISM.
 NBasis=   273 RedAO= T EigKep=  3.17D-04  NBF=   273
 NBsUse=   273 1.00D-06 EigRej= -1.00D+00 NBFU=   273
 Precomputing XC quadrature grid using
 IXCGrd= 4 IRadAn=           5 IRanWt=          -1 IRanGd=           0 AccXCQ= 0.00D+00.
 Generated NRdTot=       0 NPtTot=           0 NUsed=           0 NTot=          32
 NSgBfM=   288   288   288   288   288 MxSgAt=    25 MxSgA2=    25.
 Leave Link  302 at Tue Oct 27 22:17:15 2020, MaxMem=  7784628224 cpu:               2.5 elap:               0.3
 (Enter /gpfs/loomis/apps/avx/software/Gaussian/16-C.01_AVX/g16/l303.exe)
 DipDrv:  MaxL=1.
 Leave Link  303 at Tue Oct 27 22:17:15 2020, MaxMem=  7784628224 cpu:               0.4 elap:               0.1
 (Enter /gpfs/loomis/apps/avx/software/Gaussian/16-C.01_AVX/g16/l401.exe)
 ExpMin= 1.22D-01 ExpMax= 1.11D+05 ExpMxC= 1.07D+03 IAcc=3 IRadAn=         5 AccDes= 0.00D+00
 Harris functional with IExCor= 4639 and IRadAn=       5 diagonalized for initial guess.
 HarFok:  IExCor= 4639 AccDes= 0.00D+00 IRadAn=         5 IDoV= 1 UseB2=F ITyADJ=14
 ICtDFT=  3500011 ScaDFX=  1.000000  1.000000  1.000000  1.000000
 FoFCou: FMM=F IPFlag=           0 FMFlag=      100000 FMFlg1=           0
         NFxFlg=           0 DoJE=T BraDBF=F KetDBF=T FulRan=T
         wScrn=  0.000000 ICntrl=       500 IOpCl=  0 I1Cent=   200000004 NGrid=           0
         NMat0=    1 NMatS0=      1 NMatT0=    0 NMatD0=    1 NMtDS0=    0 NMtDT0=    0
 Symmetry not used in FoFCou.
 Harris En= -994.307738783939    
 JPrj=0 DoOrth=F DoCkMO=F.
 Leave Link  401 at Tue Oct 27 22:17:17 2020, MaxMem=  7784628224 cpu:              13.6 elap:               1.4
 (Enter /gpfs/loomis/apps/avx/software/Gaussian/16-C.01_AVX/g16/l502.exe)
 Two-electron integral symmetry not used.
 Closed shell SCF:
 Using DIIS extrapolation, IDIIS=  1040.
 NGot=  7784628224 LenX=  7784455381 LenY=  7784371419
 Requested convergence on RMS density matrix=1.00D-08 within 128 cycles.
 Requested convergence on MAX density matrix=1.00D-06.
 Requested convergence on             energy=1.00D-06.
 No special actions if energy rises.
 Fock matrices will be formed incrementally for  20 cycles.

 Cycle   1  Pass 1  IDiag  1:
 FoFJK:  IHMeth= 1 ICntrl=       0 DoSepK=T KAlg= 0 I1Cent=           0 FoldK=F
 IRaf=         1 NMat=       1 IRICut=       1 DoRegI=T DoRafI=F ISym2E= 0 IDoP0=0 IntGTp=1.
 FoFCou: FMM=F IPFlag=           0 FMFlag=      100000 FMFlg1=           0
         NFxFlg=           0 DoJE=T BraDBF=F KetDBF=F FulRan=T
         wScrn=  0.000000 ICntrl=       500 IOpCl=  0 I1Cent=           0 NGrid=           0
         NMat0=    1 NMatS0=      1 NMatT0=    0 NMatD0=    1 NMtDS0=    0 NMtDT0=    0
 Symmetry not used in FoFCou.
 Inv3:  Mode=1 IEnd=    14178828.
 Iteration    1 A*A^-1 deviation from unit magnitude is 7.33D-15 for   2158.
 Iteration    1 A*A^-1 deviation from orthogonality  is 1.81D-15 for   1154    623.
 Iteration    1 A^-1*A deviation from unit magnitude is 7.55D-15 for   2158.
 Iteration    1 A^-1*A deviation from orthogonality  is 1.47D-15 for   1419    214.
 E= -1028.47930962763    
 DIIS: error= 3.03D-02 at cycle   1 NSaved=   1.
 NSaved= 1 IEnMin= 1 EnMin= -1028.47930962763     IErMin= 1 ErrMin= 3.03D-02
 ErrMax= 3.03D-02  0.00D+00 EMaxC= 1.00D-01 BMatC= 3.71D-01 BMatP= 3.71D-01
 IDIUse=3 WtCom= 6.97D-01 WtEn= 3.03D-01
 Coeff-Com:  0.100D+01
 Coeff-En:   0.100D+01
 Coeff:      0.100D+01
 Gap=     0.365 Goal=   None    Shift=    0.000
 GapD=    0.365 DampG=1.000 DampE=0.500 DampFc=0.5000 IDamp=-1.
 Damping current iteration by 5.00D-01
 RMSDP=3.41D-03 MaxDP=2.26D-01              OVMax= 1.78D-01

 Cycle   2  Pass 1  IDiag  1:
 RMSU=  1.70D-03    CP:  9.94D-01
 E= -1028.58860785573     Delta-E=       -0.109298228092 Rises=F Damp=T
 DIIS: error= 1.12D-02 at cycle   2 NSaved=   2.
 NSaved= 2 IEnMin= 2 EnMin= -1028.58860785573     IErMin= 2 ErrMin= 1.12D-02
 ErrMax= 1.12D-02  0.00D+00 EMaxC= 1.00D-01 BMatC= 5.69D-02 BMatP= 3.71D-01
 IDIUse=3 WtCom= 8.88D-01 WtEn= 1.12D-01
 Coeff-Com: -0.334D+00 0.133D+01
 Coeff-En:   0.000D+00 0.100D+01
 Coeff:     -0.297D+00 0.130D+01
 Gap=     0.303 Goal=   None    Shift=    0.000
 RMSDP=1.13D-03 MaxDP=2.04D-02 DE=-1.09D-01 OVMax= 1.29D-01

 Cycle   3  Pass 1  IDiag  1:
 RMSU=  1.08D-03    CP:  9.91D-01  1.21D+00
 E= -1028.68335125729     Delta-E=       -0.094743401563 Rises=F Damp=F
 DIIS: error= 6.48D-03 at cycle   3 NSaved=   3.
 NSaved= 3 IEnMin= 3 EnMin= -1028.68335125729     IErMin= 3 ErrMin= 6.48D-03
 ErrMax= 6.48D-03  0.00D+00 EMaxC= 1.00D-01 BMatC= 1.18D-02 BMatP= 5.69D-02
 IDIUse=3 WtCom= 9.35D-01 WtEn= 6.48D-02
 Coeff-Com: -0.209D+00 0.489D+00 0.720D+00
 Coeff-En:   0.000D+00 0.000D+00 0.100D+01
 Coeff:     -0.196D+00 0.458D+00 0.738D+00
 Gap=     0.264 Goal=   None    Shift=    0.000
 RMSDP=5.02D-04 MaxDP=2.04D-02 DE=-9.47D-02 OVMax= 4.09D-02

 Cycle   4  Pass 1  IDiag  1:
 RMSU=  3.66D-04    CP:  9.89D-01  1.38D+00  8.42D-01
 E= -1028.69508261316     Delta-E=       -0.011731355875 Rises=F Damp=F
 DIIS: error= 2.24D-03 at cycle   4 NSaved=   4.
 NSaved= 4 IEnMin= 4 EnMin= -1028.69508261316     IErMin= 4 ErrMin= 2.24D-03
 ErrMax= 2.24D-03  0.00D+00 EMaxC= 1.00D-01 BMatC= 1.81D-03 BMatP= 1.18D-02
 IDIUse=3 WtCom= 9.78D-01 WtEn= 2.24D-02
 Coeff-Com: -0.818D-01 0.163D+00 0.373D+00 0.545D+00
 Coeff-En:   0.000D+00 0.000D+00 0.000D+00 0.100D+01
 Coeff:     -0.799D-01 0.160D+00 0.365D+00 0.555D+00
 Gap=     0.262 Goal=   None    Shift=    0.000
 RMSDP=1.60D-04 MaxDP=9.58D-03 DE=-1.17D-02 OVMax= 1.15D-02

 Cycle   5  Pass 1  IDiag  1:
 RMSU=  1.03D-04    CP:  9.89D-01  1.39D+00  9.13D-01  7.42D-01
 E= -1028.69696476288     Delta-E=       -0.001882149715 Rises=F Damp=F
 DIIS: error= 4.76D-04 at cycle   5 NSaved=   5.
 NSaved= 5 IEnMin= 5 EnMin= -1028.69696476288     IErMin= 5 ErrMin= 4.76D-04
 ErrMax= 4.76D-04  0.00D+00 EMaxC= 1.00D-01 BMatC= 7.21D-05 BMatP= 1.81D-03
 IDIUse=3 WtCom= 9.95D-01 WtEn= 4.76D-03
 Coeff-Com: -0.656D-02 0.732D-02 0.579D-01 0.195D+00 0.746D+00
 Coeff-En:   0.000D+00 0.000D+00 0.000D+00 0.000D+00 0.100D+01
 Coeff:     -0.653D-02 0.729D-02 0.576D-01 0.194D+00 0.747D+00
 Gap=     0.263 Goal=   None    Shift=    0.000
 RMSDP=4.92D-05 MaxDP=1.57D-03 DE=-1.88D-03 OVMax= 4.71D-03

 Cycle   6  Pass 1  IDiag  1:
 RMSU=  3.41D-05    CP:  9.89D-01  1.39D+00  9.28D-01  8.23D-01  1.03D+00
 E= -1028.69708392873     Delta-E=       -0.000119165847 Rises=F Damp=F
 DIIS: error= 1.65D-04 at cycle   6 NSaved=   6.
 NSaved= 6 IEnMin= 6 EnMin= -1028.69708392873     IErMin= 6 ErrMin= 1.65D-04
 ErrMax= 1.65D-04  0.00D+00 EMaxC= 1.00D-01 BMatC= 9.68D-06 BMatP= 7.21D-05
 IDIUse=3 WtCom= 9.98D-01 WtEn= 1.65D-03
 Coeff-Com:  0.156D-01-0.325D-01-0.573D-01-0.449D-01 0.211D+00 0.908D+00
 Coeff-En:   0.000D+00 0.000D+00 0.000D+00 0.000D+00 0.000D+00 0.100D+01
 Coeff:      0.156D-01-0.324D-01-0.572D-01-0.448D-01 0.210D+00 0.909D+00
 Gap=     0.263 Goal=   None    Shift=    0.000
 RMSDP=3.23D-05 MaxDP=1.55D-03 DE=-1.19D-04 OVMax= 2.99D-03

 Cycle   7  Pass 1  IDiag  1:
 RMSU=  1.73D-05    CP:  9.89D-01  1.39D+00  9.41D-01  8.64D-01  1.20D+00
                    CP:  1.19D+00
 E= -1028.69711234415     Delta-E=       -0.000028415420 Rises=F Damp=F
 DIIS: error= 1.19D-04 at cycle   7 NSaved=   7.
 NSaved= 7 IEnMin= 7 EnMin= -1028.69711234415     IErMin= 7 ErrMin= 1.19D-04
 ErrMax= 1.19D-04  0.00D+00 EMaxC= 1.00D-01 BMatC= 2.09D-06 BMatP= 9.68D-06
 IDIUse=3 WtCom= 9.99D-01 WtEn= 1.19D-03
 Coeff-Com:  0.734D-02-0.142D-01-0.314D-01-0.456D-01-0.245D-01 0.379D+00
 Coeff-Com:  0.730D+00
 Coeff-En:   0.000D+00 0.000D+00 0.000D+00 0.000D+00 0.000D+00 0.000D+00
 Coeff-En:   0.100D+01
 Coeff:      0.733D-02-0.142D-01-0.313D-01-0.456D-01-0.245D-01 0.378D+00
 Coeff:      0.730D+00
 Gap=     0.264 Goal=   None    Shift=    0.000
 RMSDP=1.08D-05 MaxDP=5.61D-04 DE=-2.84D-05 OVMax= 1.32D-03

 Cycle   8  Pass 1  IDiag  1:
 RMSU=  7.08D-06    CP:  9.89D-01  1.39D+00  9.43D-01  8.70D-01  1.24D+00
                    CP:  1.38D+00  1.05D+00
 E= -1028.69711684536     Delta-E=       -0.000004501211 Rises=F Damp=F
 DIIS: error= 3.48D-05 at cycle   8 NSaved=   8.
 NSaved= 8 IEnMin= 8 EnMin= -1028.69711684536     IErMin= 8 ErrMin= 3.48D-05
 ErrMax= 3.48D-05  0.00D+00 EMaxC= 1.00D-01 BMatC= 2.49D-07 BMatP= 2.09D-06
 IDIUse=1 WtCom= 1.00D+00 WtEn= 0.00D+00
 Coeff-Com: -0.880D-03 0.207D-02 0.194D-02-0.315D-02-0.389D-01-0.483D-01
 Coeff-Com:  0.218D+00 0.869D+00
 Coeff:     -0.880D-03 0.207D-02 0.194D-02-0.315D-02-0.389D-01-0.483D-01
 Coeff:      0.218D+00 0.869D+00
 Gap=     0.264 Goal=   None    Shift=    0.000
 RMSDP=4.61D-06 MaxDP=1.38D-04 DE=-4.50D-06 OVMax= 6.22D-04

 Cycle   9  Pass 1  IDiag  1:
 RMSU=  2.20D-06    CP:  9.89D-01  1.39D+00  9.42D-01  8.70D-01  1.24D+00
                    CP:  1.44D+00  1.24D+00  1.10D+00
 E= -1028.69711753127     Delta-E=       -0.000000685912 Rises=F Damp=F
 DIIS: error= 1.59D-05 at cycle   9 NSaved=   9.
 NSaved= 9 IEnMin= 9 EnMin= -1028.69711753127     IErMin= 9 ErrMin= 1.59D-05
 ErrMax= 1.59D-05  0.00D+00 EMaxC= 1.00D-01 BMatC= 4.87D-08 BMatP= 2.49D-07
 IDIUse=1 WtCom= 1.00D+00 WtEn= 0.00D+00
 Coeff-Com: -0.126D-02 0.255D-02 0.476D-02 0.519D-02-0.113D-01-0.707D-01
 Coeff-Com: -0.108D-01 0.337D+00 0.745D+00
 Coeff:     -0.126D-02 0.255D-02 0.476D-02 0.519D-02-0.113D-01-0.707D-01
 Coeff:     -0.108D-01 0.337D+00 0.745D+00
 Gap=     0.264 Goal=   None    Shift=    0.000
 RMSDP=1.78D-06 MaxDP=5.65D-05 DE=-6.86D-07 OVMax= 1.63D-04

 Cycle  10  Pass 1  IDiag  1:
 RMSU=  9.31D-07    CP:  9.89D-01  1.39D+00  9.42D-01  8.70D-01  1.25D+00
                    CP:  1.46D+00  1.28D+00  1.25D+00  1.08D+00
 E= -1028.69711764411     Delta-E=       -0.000000112842 Rises=F Damp=F
 DIIS: error= 6.56D-06 at cycle  10 NSaved=  10.
 NSaved=10 IEnMin=10 EnMin= -1028.69711764411     IErMin=10 ErrMin= 6.56D-06
 ErrMax= 6.56D-06  0.00D+00 EMaxC= 1.00D-01 BMatC= 6.28D-09 BMatP= 4.87D-08
 IDIUse=1 WtCom= 1.00D+00 WtEn= 0.00D+00
 Coeff-Com: -0.247D-03 0.456D-03 0.116D-02 0.234D-02 0.275D-02-0.189D-01
 Coeff-Com: -0.415D-01-0.323D-01 0.212D+00 0.874D+00
 Coeff:     -0.247D-03 0.456D-03 0.116D-02 0.234D-02 0.275D-02-0.189D-01
 Coeff:     -0.415D-01-0.323D-01 0.212D+00 0.874D+00
 Gap=     0.264 Goal=   None    Shift=    0.000
 RMSDP=9.29D-07 MaxDP=3.08D-05 DE=-1.13D-07 OVMax= 1.34D-04

 Cycle  11  Pass 1  IDiag  1:
 RMSU=  4.31D-07    CP:  9.89D-01  1.39D+00  9.42D-01  8.70D-01  1.25D+00
                    CP:  1.47D+00  1.31D+00  1.30D+00  1.29D+00  1.17D+00
 E= -1028.69711766984     Delta-E=       -0.000000025730 Rises=F Damp=F
 DIIS: error= 2.89D-06 at cycle  11 NSaved=  11.
 NSaved=11 IEnMin=11 EnMin= -1028.69711766984     IErMin=11 ErrMin= 2.89D-06
 ErrMax= 2.89D-06  0.00D+00 EMaxC= 1.00D-01 BMatC= 1.62D-09 BMatP= 6.28D-09
 IDIUse=1 WtCom= 1.00D+00 WtEn= 0.00D+00
 Coeff-Com:  0.142D-03-0.298D-03-0.466D-03-0.598D-04 0.284D-02 0.424D-02
 Coeff-Com: -0.916D-02-0.531D-01-0.692D-01 0.312D+00 0.813D+00
 Coeff:      0.142D-03-0.298D-03-0.466D-03-0.598D-04 0.284D-02 0.424D-02
 Coeff:     -0.916D-02-0.531D-01-0.692D-01 0.312D+00 0.813D+00
 Gap=     0.264 Goal=   None    Shift=    0.000
 RMSDP=3.62D-07 MaxDP=7.44D-06 DE=-2.57D-08 OVMax= 5.40D-05

 Cycle  12  Pass 1  IDiag  1:
 RMSU=  1.64D-07    CP:  9.89D-01  1.39D+00  9.42D-01  8.70D-01  1.25D+00
                    CP:  1.47D+00  1.31D+00  1.32D+00  1.36D+00  1.41D+00
                    CP:  1.12D+00
 E= -1028.69711767498     Delta-E=       -0.000000005141 Rises=F Damp=F
 DIIS: error= 9.84D-07 at cycle  12 NSaved=  12.
 NSaved=12 IEnMin=12 EnMin= -1028.69711767498     IErMin=12 ErrMin= 9.84D-07
 ErrMax= 9.84D-07  0.00D+00 EMaxC= 1.00D-01 BMatC= 2.81D-10 BMatP= 1.62D-09
 IDIUse=1 WtCom= 1.00D+00 WtEn= 0.00D+00
 Coeff-Com:  0.106D-03-0.208D-03-0.447D-03-0.570D-03 0.457D-03 0.590D-02
 Coeff-Com:  0.689D-02-0.869D-02-0.914D-01-0.105D+00 0.218D+00 0.974D+00
 Coeff:      0.106D-03-0.208D-03-0.447D-03-0.570D-03 0.457D-03 0.590D-02
 Coeff:      0.689D-02-0.869D-02-0.914D-01-0.105D+00 0.218D+00 0.974D+00
 Gap=     0.264 Goal=   None    Shift=    0.000
 RMSDP=2.28D-07 MaxDP=5.07D-06 DE=-5.14D-09 OVMax= 3.49D-05

 Cycle  13  Pass 1  IDiag  1:
 RMSU=  7.00D-08    CP:  9.89D-01  1.39D+00  9.42D-01  8.70D-01  1.25D+00
                    CP:  1.47D+00  1.31D+00  1.33D+00  1.41D+00  1.54D+00
                    CP:  1.41D+00  1.27D+00
 E= -1028.69711767634     Delta-E=       -0.000000001361 Rises=F Damp=F
 DIIS: error= 4.58D-07 at cycle  13 NSaved=  13.
 NSaved=13 IEnMin=13 EnMin= -1028.69711767634     IErMin=13 ErrMin= 4.58D-07
 ErrMax= 4.58D-07  0.00D+00 EMaxC= 1.00D-01 BMatC= 3.30D-11 BMatP= 2.81D-10
 IDIUse=1 WtCom= 1.00D+00 WtEn= 0.00D+00
 Coeff-Com:  0.183D-05-0.129D-05-0.317D-04-0.113D-03-0.218D-03 0.787D-03
 Coeff-Com:  0.296D-02 0.718D-02-0.122D-01-0.632D-01-0.864D-01 0.232D+00
 Coeff-Com:  0.919D+00
 Coeff:      0.183D-05-0.129D-05-0.317D-04-0.113D-03-0.218D-03 0.787D-03
 Coeff:      0.296D-02 0.718D-02-0.122D-01-0.632D-01-0.864D-01 0.232D+00
 Coeff:      0.919D+00
 Gap=     0.264 Goal=   None    Shift=    0.000
 RMSDP=6.71D-08 MaxDP=1.59D-06 DE=-1.36D-09 OVMax= 8.92D-06

 Cycle  14  Pass 1  IDiag  1:
 RMSU=  2.73D-08    CP:  9.89D-01  1.39D+00  9.42D-01  8.70D-01  1.25D+00
                    CP:  1.47D+00  1.31D+00  1.33D+00  1.41D+00  1.57D+00
                    CP:  1.47D+00  1.49D+00  1.18D+00
 E= -1028.69711767646     Delta-E=       -0.000000000121 Rises=F Damp=F
 DIIS: error= 1.27D-07 at cycle  14 NSaved=  14.
 NSaved=14 IEnMin=14 EnMin= -1028.69711767646     IErMin=14 ErrMin= 1.27D-07
 ErrMax= 1.27D-07  0.00D+00 EMaxC= 1.00D-01 BMatC= 5.33D-12 BMatP= 3.30D-11
 IDIUse=1 WtCom= 1.00D+00 WtEn= 0.00D+00
 Coeff-Com: -0.115D-04 0.234D-04 0.402D-04 0.241D-04-0.126D-03-0.381D-03
 Coeff-Com:  0.216D-03 0.349D-02 0.494D-02-0.930D-02-0.551D-01-0.265D-01
 Coeff-Com:  0.337D+00 0.745D+00
 Coeff:     -0.115D-04 0.234D-04 0.402D-04 0.241D-04-0.126D-03-0.381D-03
 Coeff:      0.216D-03 0.349D-02 0.494D-02-0.930D-02-0.551D-01-0.265D-01
 Coeff:      0.337D+00 0.745D+00
 Gap=     0.264 Goal=   None    Shift=    0.000
 RMSDP=1.74D-08 MaxDP=3.98D-07 DE=-1.21D-10 OVMax= 2.48D-06

 Cycle  15  Pass 1  IDiag  1:
 RMSU=  9.03D-09    CP:  9.89D-01  1.39D+00  9.42D-01  8.70D-01  1.25D+00
                    CP:  1.47D+00  1.31D+00  1.33D+00  1.42D+00  1.58D+00
                    CP:  1.49D+00  1.53D+00  1.32D+00  1.05D+00
 E= -1028.69711767648     Delta-E=       -0.000000000015 Rises=F Damp=F
 DIIS: error= 4.73D-08 at cycle  15 NSaved=  15.
 NSaved=15 IEnMin=15 EnMin= -1028.69711767648     IErMin=15 ErrMin= 4.73D-08
 ErrMax= 4.73D-08  0.00D+00 EMaxC= 1.00D-01 BMatC= 5.21D-13 BMatP= 5.33D-12
 IDIUse=1 WtCom= 1.00D+00 WtEn= 0.00D+00
 Coeff-Com: -0.265D-05 0.494D-05 0.144D-04 0.246D-04-0.389D-06-0.239D-03
 Coeff-Com: -0.508D-03-0.308D-03 0.329D-02 0.904D-02 0.126D-02-0.471D-01
 Coeff-Com: -0.740D-01 0.147D+00 0.961D+00
 Coeff:     -0.265D-05 0.494D-05 0.144D-04 0.246D-04-0.389D-06-0.239D-03
 Coeff:     -0.508D-03-0.308D-03 0.329D-02 0.904D-02 0.126D-02-0.471D-01
 Coeff:     -0.740D-01 0.147D+00 0.961D+00
 Gap=     0.264 Goal=   None    Shift=    0.000
 RMSDP=8.05D-09 MaxDP=1.75D-07 DE=-1.52D-11 OVMax= 8.13D-07

 Error on total polarization charges =  0.00812
 SCF Done:  E(RwB97XD) =  -1028.69711768     A.U. after   15 cycles
            NFock= 15  Conv=0.81D-08     -V/T= 2.0041
 KE= 1.024517244872D+03 PE=-4.609696489354D+03 EE= 1.457867620096D+03
 Leave Link  502 at Tue Oct 27 22:18:40 2020, MaxMem=  7784628224 cpu:             821.2 elap:              82.8
 (Enter /gpfs/loomis/apps/avx/software/Gaussian/16-C.01_AVX/g16/l601.exe)
 Copying SCF densities to generalized density rwf, IOpCl= 0 IROHF=0.

 **********************************************************************

            Population analysis using the SCF Density.

 **********************************************************************

 Alpha  occ. eigenvalues --  -89.08682 -19.27355 -14.45860 -10.39178 -10.38640
 Alpha  occ. eigenvalues --  -10.34432 -10.34364 -10.33024 -10.32485 -10.32275
 Alpha  occ. eigenvalues --  -10.31903 -10.31241 -10.31228 -10.31089 -10.30953
 Alpha  occ. eigenvalues --  -10.30887  -8.10635  -6.05478  -6.05140  -6.04705
 Alpha  occ. eigenvalues --   -1.24368  -1.07935  -0.97176  -0.95647  -0.91513
 Alpha  occ. eigenvalues --   -0.88834  -0.86539  -0.84366  -0.82720  -0.77129
 Alpha  occ. eigenvalues --   -0.72954  -0.70321  -0.69689  -0.68533  -0.64751
 Alpha  occ. eigenvalues --   -0.60266  -0.59444  -0.58426  -0.56228  -0.54776
 Alpha  occ. eigenvalues --   -0.53885  -0.53527  -0.52689  -0.50990  -0.50914
 Alpha  occ. eigenvalues --   -0.49272  -0.48333  -0.46059  -0.45647  -0.44983
 Alpha  occ. eigenvalues --   -0.43612  -0.43283  -0.42131  -0.39627  -0.36987
 Alpha  occ. eigenvalues --   -0.36472  -0.32258  -0.31619  -0.28180
 Alpha virt. eigenvalues --   -0.01817   0.05427   0.06648   0.07157   0.07889
 Alpha virt. eigenvalues --    0.11463   0.13866   0.15284   0.16296   0.18136
 Alpha virt. eigenvalues --    0.18587   0.21328   0.21833   0.22342   0.23023
 Alpha virt. eigenvalues --    0.23618   0.23870   0.24952   0.28250   0.30847
 Alpha virt. eigenvalues --    0.32202   0.33626   0.35101   0.36300   0.37095
 Alpha virt. eigenvalues --    0.38008   0.38589   0.40845   0.43980   0.45933
 Alpha virt. eigenvalues --    0.46821   0.48764   0.50961   0.51337   0.51757
 Alpha virt. eigenvalues --    0.52415   0.53569   0.54571   0.55018   0.55877
 Alpha virt. eigenvalues --    0.56053   0.56417   0.57373   0.58046   0.58260
 Alpha virt. eigenvalues --    0.58809   0.59046   0.59650   0.59972   0.60057
 Alpha virt. eigenvalues --    0.60638   0.60941   0.62290   0.62805   0.63991
 Alpha virt. eigenvalues --    0.65244   0.66132   0.66492   0.68442   0.69148
 Alpha virt. eigenvalues --    0.70599   0.72041   0.72554   0.72959   0.73300
 Alpha virt. eigenvalues --    0.74042   0.75423   0.76162   0.77386   0.78525
 Alpha virt. eigenvalues --    0.79303   0.79441   0.80862   0.82263   0.82327
 Alpha virt. eigenvalues --    0.83969   0.89504   0.91880   0.93269   0.94057
 Alpha virt. eigenvalues --    0.95132   0.95174   0.96275   0.96966   0.97549
 Alpha virt. eigenvalues --    0.98562   0.99251   1.00421   1.01044   1.02267
 Alpha virt. eigenvalues --    1.02968   1.05134   1.06339   1.07461   1.08068
 Alpha virt. eigenvalues --    1.08482   1.08896   1.09395   1.10964   1.11063
 Alpha virt. eigenvalues --    1.12126   1.13235   1.13373   1.15202   1.15788
 Alpha virt. eigenvalues --    1.16887   1.19270   1.20398   1.22075   1.23834
 Alpha virt. eigenvalues --    1.25145   1.29268   1.33486   1.34986   1.35207
 Alpha virt. eigenvalues --    1.35801   1.36291   1.38619   1.43458   1.44317
 Alpha virt. eigenvalues --    1.48043   1.48946   1.51588   1.52296   1.54519
 Alpha virt. eigenvalues --    1.55498   1.56218   1.57099   1.57498   1.58192
 Alpha virt. eigenvalues --    1.58488   1.59868   1.62040   1.66235   1.66713
 Alpha virt. eigenvalues --    1.68295   1.68711   1.70245   1.70686   1.70956
 Alpha virt. eigenvalues --    1.72469   1.72651   1.72848   1.73872   1.75100
 Alpha virt. eigenvalues --    1.76190   1.77375   1.80012   1.81424   1.82413
 Alpha virt. eigenvalues --    1.83078   1.83603   1.85029   1.85770   1.86072
 Alpha virt. eigenvalues --    1.86801   1.88403   1.89022   1.90248   1.92481
 Alpha virt. eigenvalues --    1.92513   1.93124   1.93893   1.94877   1.95302
 Alpha virt. eigenvalues --    2.00559   2.00824   2.02702   2.03758   2.05113
 Alpha virt. eigenvalues --    2.07992   2.08563   2.09190   2.11408   2.12270
 Alpha virt. eigenvalues --    2.16384   2.18076   2.20768   2.24863   2.26228
 Alpha virt. eigenvalues --    2.26502   2.27937   2.37088   2.38613   2.42186
 Alpha virt. eigenvalues --    2.42461   2.43596   2.47628   2.47940   2.47947
 Alpha virt. eigenvalues --    2.50169   2.51189   2.54224   2.61277   2.63194
 Alpha virt. eigenvalues --    2.65807   2.72733   2.75444   2.78421   2.81372
 Alpha virt. eigenvalues --    2.82434   2.84465   2.89587   2.91724   2.99725
 Alpha virt. eigenvalues --    3.01457   3.09317   3.27651   3.30519   3.30826
 Alpha virt. eigenvalues --    3.53568   3.57554   3.72638   4.42175
          Condensed to atoms (all electrons):
               1          2          3          4          5          6
     1  C    4.758788   0.442337   0.013958  -0.054837  -0.012722   0.524420
     2  C    0.442337   5.341091   0.334493  -0.033709  -0.066433  -0.006010
     3  C    0.013958   0.334493   4.750331   0.487527  -0.004711  -0.065512
     4  C   -0.054837  -0.033709   0.487527   4.779541   0.526733  -0.012740
     5  C   -0.012722  -0.066433  -0.004711   0.526733   4.735279   0.487250
     6  C    0.524420  -0.006010  -0.065512  -0.012740   0.487250   4.748579
     7  H    0.400713  -0.037981   0.008231  -0.000470   0.008095  -0.039556
     8  H   -0.001140   0.012624  -0.032127   0.392042  -0.045055   0.008162
     9  H    0.009030  -0.000813   0.008824  -0.039620   0.404881  -0.045934
    10  H   -0.042231   0.009794  -0.000607   0.008692  -0.043908   0.405577
    11  N    0.009311  -0.065590   0.518767  -0.042348   0.003165  -0.000094
    12  S   -0.067040   0.346696  -0.100170   0.007478   0.000201   0.003655
    13  C   -0.000170   0.003906   0.007720  -0.000729   0.000010   0.000002
    14  C   -0.000009  -0.000024   0.000421   0.000007  -0.000000  -0.000000
    15  C    0.000007   0.000043  -0.001552   0.000000  -0.000001   0.000000
    16  C    0.000000  -0.000002   0.000005  -0.000000   0.000000   0.000000
    17  H   -0.000003   0.000071  -0.000005  -0.000000   0.000000  -0.000000
    18  C    0.000000   0.000007  -0.000041  -0.000000  -0.000000   0.000000
    19  C   -0.000000   0.000000   0.000003  -0.000000   0.000000   0.000000
    20  H   -0.000000  -0.000000  -0.000000   0.000000   0.000000  -0.000000
    21  H   -0.000000  -0.000000   0.000001   0.000000   0.000000  -0.000000
    22  H   -0.000000  -0.000000   0.000000  -0.000000   0.000000  -0.000000
    23  C    0.005022  -0.057439  -0.134112  -0.000292   0.000278  -0.000198
    24  O    0.000001  -0.000035  -0.001271  -0.000027  -0.000000  -0.000000
    25  H   -0.000063   0.001657  -0.002191  -0.000630   0.000002   0.000009
               7          8          9         10         11         12
     1  C    0.400713  -0.001140   0.009030  -0.042231   0.009311  -0.067040
     2  C   -0.037981   0.012624  -0.000813   0.009794  -0.065590   0.346696
     3  C    0.008231  -0.032127   0.008824  -0.000607   0.518767  -0.100170
     4  C   -0.000470   0.392042  -0.039620   0.008692  -0.042348   0.007478
     5  C    0.008095  -0.045055   0.404881  -0.043908   0.003165   0.000201
     6  C   -0.039556   0.008162  -0.045934   0.405577  -0.000094   0.003655
     7  H    0.664002   0.000037  -0.000153  -0.012038  -0.000121  -0.006917
     8  H    0.000037   0.664249  -0.012778  -0.000123  -0.000779  -0.000097
     9  H   -0.000153  -0.012778   0.671627  -0.012390  -0.000107   0.000021
    10  H   -0.012038  -0.000123  -0.012390   0.667992  -0.000002  -0.000152
    11  N   -0.000121  -0.000779  -0.000107  -0.000002   6.445143  -0.080699
    12  S   -0.006917  -0.000097   0.000021  -0.000152  -0.080699  15.499937
    13  C    0.000005   0.000039  -0.000000  -0.000000  -0.014328  -0.062407
    14  C    0.000001   0.000001   0.000000  -0.000000   0.003687  -0.006835
    15  C   -0.000000  -0.000045   0.000000   0.000000  -0.025474   0.005030
    16  C    0.000000  -0.000000  -0.000000   0.000000  -0.000090  -0.000042
    17  H    0.000001   0.000000  -0.000000  -0.000000   0.000197   0.007134
    18  C   -0.000000   0.000000  -0.000000  -0.000000  -0.000397  -0.000106
    19  C    0.000000   0.000000  -0.000000  -0.000000   0.000049   0.000017
    20  H    0.000000  -0.000000   0.000000   0.000000   0.000001   0.000000
    21  H   -0.000000   0.000000   0.000000   0.000000  -0.000002   0.000002
    22  H    0.000000   0.000000  -0.000000  -0.000000  -0.000000  -0.000000
    23  C    0.000061  -0.001044   0.000008   0.000003   0.547741   0.304534
    24  O   -0.000000  -0.000132   0.000000  -0.000000  -0.035401  -0.000116
    25  H    0.000001   0.001194  -0.000003   0.000000   0.059097   0.002506
              13         14         15         16         17         18
     1  C   -0.000170  -0.000009   0.000007   0.000000  -0.000003   0.000000
     2  C    0.003906  -0.000024   0.000043  -0.000002   0.000071   0.000007
     3  C    0.007720   0.000421  -0.001552   0.000005  -0.000005  -0.000041
     4  C   -0.000729   0.000007   0.000000  -0.000000  -0.000000  -0.000000
     5  C    0.000010  -0.000000  -0.000001   0.000000   0.000000  -0.000000
     6  C    0.000002  -0.000000   0.000000   0.000000  -0.000000   0.000000
     7  H    0.000005   0.000001  -0.000000   0.000000   0.000001  -0.000000
     8  H    0.000039   0.000001  -0.000045  -0.000000   0.000000   0.000000
     9  H   -0.000000   0.000000   0.000000  -0.000000  -0.000000  -0.000000
    10  H   -0.000000  -0.000000   0.000000   0.000000  -0.000000  -0.000000
    11  N   -0.014328   0.003687  -0.025474  -0.000090   0.000197  -0.000397
    12  S   -0.062407  -0.006835   0.005030  -0.000042   0.007134  -0.000106
    13  C    5.340883   0.503109   0.260384  -0.010617  -0.036914  -0.078590
    14  C    0.503109   4.789637  -0.019906   0.530389   0.401747  -0.053380
    15  C    0.260384  -0.019906   4.898447  -0.063806   0.008080   0.487504
    16  C   -0.010617   0.530389  -0.063806   4.738961  -0.036289  -0.015340
    17  H   -0.036914   0.401747   0.008080  -0.036289   0.667900  -0.000741
    18  C   -0.078590  -0.053380   0.487504  -0.015340  -0.000741   4.825227
    19  C   -0.046102  -0.018172  -0.008314   0.490347   0.008378   0.509180
    20  H    0.008732  -0.035211  -0.000307   0.402092  -0.012841   0.008432
    21  H    0.011461  -0.000382  -0.024129   0.007093   0.000039   0.382544
    22  H   -0.000922   0.009032   0.009134  -0.042973  -0.000150  -0.042104
    23  C    0.299894  -0.088797  -0.066285   0.007530  -0.021024   0.007771
    24  O   -0.075575   0.003490   0.499001   0.000025  -0.000055  -0.058346
    25  H   -0.053243  -0.001288   0.008002  -0.000024   0.000034   0.010436
              19         20         21         22         23         24
     1  C   -0.000000  -0.000000  -0.000000  -0.000000   0.005022   0.000001
     2  C    0.000000  -0.000000  -0.000000  -0.000000  -0.057439  -0.000035
     3  C    0.000003  -0.000000   0.000001   0.000000  -0.134112  -0.001271
     4  C   -0.000000   0.000000   0.000000  -0.000000  -0.000292  -0.000027
     5  C    0.000000   0.000000   0.000000   0.000000   0.000278  -0.000000
     6  C    0.000000  -0.000000  -0.000000  -0.000000  -0.000198  -0.000000
     7  H    0.000000   0.000000  -0.000000   0.000000   0.000061  -0.000000
     8  H    0.000000  -0.000000   0.000000   0.000000  -0.001044  -0.000132
     9  H   -0.000000   0.000000   0.000000  -0.000000   0.000008   0.000000
    10  H   -0.000000   0.000000   0.000000  -0.000000   0.000003  -0.000000
    11  N    0.000049   0.000001  -0.000002  -0.000000   0.547741  -0.035401
    12  S    0.000017   0.000000   0.000002  -0.000000   0.304534  -0.000116
    13  C   -0.046102   0.008732   0.011461  -0.000922   0.299894  -0.075575
    14  C   -0.018172  -0.035211  -0.000382   0.009032  -0.088797   0.003490
    15  C   -0.008314  -0.000307  -0.024129   0.009134  -0.066285   0.499001
    16  C    0.490347   0.402092   0.007093  -0.042973   0.007530   0.000025
    17  H    0.008378  -0.012841   0.000039  -0.000150  -0.021024  -0.000055
    18  C    0.509180   0.008432   0.382544  -0.042104   0.007771  -0.058346
    19  C    4.727105  -0.046863  -0.042953   0.407343   0.000566   0.002588
    20  H   -0.046863   0.673668  -0.000148  -0.011766  -0.000337   0.000003
    21  H   -0.042953  -0.000148   0.653085  -0.011872  -0.000413   0.001721
    22  H    0.407343  -0.011766  -0.011872   0.659172  -0.000001  -0.000053
    23  C    0.000566  -0.000337  -0.000413  -0.000001   5.124500  -0.001452
    24  O    0.002588   0.000003   0.001721  -0.000053  -0.001452   7.134363
    25  H   -0.000053  -0.000001   0.000251   0.000005   0.006606   0.443905
              25
     1  C   -0.000063
     2  C    0.001657
     3  C   -0.002191
     4  C   -0.000630
     5  C    0.000002
     6  C    0.000009
     7  H    0.000001
     8  H    0.001194
     9  H   -0.000003
    10  H    0.000000
    11  N    0.059097
    12  S    0.002506
    13  C   -0.053243
    14  C   -0.001288
    15  C    0.008002
    16  C   -0.000024
    17  H    0.000034
    18  C    0.010436
    19  C   -0.000053
    20  H   -0.000001
    21  H    0.000251
    22  H    0.000005
    23  C    0.006606
    24  O    0.443905
    25  H    0.621741
 Mulliken charges:
               1
     1  C    0.014627
     2  C   -0.224686
     3  C    0.212019
     4  C   -0.016619
     5  C    0.006938
     6  C   -0.007611
     7  H    0.016091
     8  H    0.014972
     9  H    0.017406
    10  H    0.019394
    11  N   -0.321726
    12  S    0.147369
    13  C   -0.056548
    14  C   -0.017521
    15  C    0.034186
    16  C   -0.007258
    17  H    0.014440
    18  C    0.017944
    19  C    0.016881
    20  H    0.014546
    21  H    0.023703
    22  H    0.025155
    23  C    0.066880
    24  O    0.087367
    25  H   -0.097951
 Sum of Mulliken charges =  -0.00000
 Mulliken charges with hydrogens summed into heavy atoms:
               1
     1  C    0.030718
     2  C   -0.224686
     3  C    0.212019
     4  C   -0.001647
     5  C    0.024344
     6  C    0.011783
    11  N   -0.321726
    12  S    0.147369
    13  C   -0.056548
    14  C   -0.003081
    15  C    0.034186
    16  C    0.007288
    18  C    0.041647
    19  C    0.042036
    23  C    0.066880
    24  O   -0.010584
 Electronic spatial extent (au):  <R**2>=           4346.0163
 Charge=             -0.0000 electrons
 Dipole moment (field-independent basis, Debye):
    X=             -0.9667    Y=             -1.2604    Z=              0.0000  Tot=              1.5884
 Quadrupole moment (field-independent basis, Debye-Ang):
   XX=            -82.9347   YY=            -87.1202   ZZ=           -104.1217
   XY=             -7.5586   XZ=             -0.0001   YZ=              0.0002
 Traceless Quadrupole moment (field-independent basis, Debye-Ang):
   XX=              8.4575   YY=              4.2720   ZZ=            -12.7295
   XY=             -7.5586   XZ=             -0.0001   YZ=              0.0002
 Octapole moment (field-independent basis, Debye-Ang**2):
  XXX=              2.8507  YYY=             -5.2913  ZZZ=              0.0000  XYY=             -9.0606
  XXY=              6.5262  XXZ=              0.0002  XZZ=              0.7718  YZZ=              3.8497
  YYZ=              0.0007  XYZ=             -0.0006
 Hexadecapole moment (field-independent basis, Debye-Ang**3):
 XXXX=          -2595.4855 YYYY=          -2582.6889 ZZZZ=           -113.3388 XXXY=            801.5865
 XXXZ=              0.0097 YYYX=            762.3009 YYYZ=             -0.0117 ZZZX=              0.0133
 ZZZY=             -0.0181 XXYY=           -842.6313 XXZZ=           -570.6825 YYZZ=           -548.6521
 XXYZ=             -0.0031 YYXZ=              0.0007 ZZXY=            356.5232
 N-N= 1.098614506709D+03 E-N=-4.609696491907D+03  KE= 1.024517244872D+03
 No NMR shielding tensors so no spin-rotation constants.
 Leave Link  601 at Tue Oct 27 22:18:40 2020, MaxMem=  7784628224 cpu:               1.1 elap:               0.2
 (Enter /gpfs/loomis/apps/avx/software/Gaussian/16-C.01_AVX/g16/l701.exe)
 ... and contract with generalized density number  0.
 Compute integral first derivatives.
 R6Disp: Adding Grimme-D2 dispersion energy 1st derivatives to the gradient.
 D1PCM: PCM CHGder 1st derivatives, ID1Alg=3 FixD1E=F DoIter=F DoCFld=F I1PDM=0.
 GePol: Maximum number of non-zero 1st derivatives   =     260
 Leave Link  701 at Tue Oct 27 22:18:41 2020, MaxMem=  7784628224 cpu:              13.8 elap:               1.4
 (Enter /gpfs/loomis/apps/avx/software/Gaussian/16-C.01_AVX/g16/l702.exe)
 L702 exits ... SP integral derivatives will be done elsewhere.
 Leave Link  702 at Tue Oct 27 22:18:41 2020, MaxMem=  7784628224 cpu:               0.2 elap:               0.0
 (Enter /gpfs/loomis/apps/avx/software/Gaussian/16-C.01_AVX/g16/l703.exe)
 Integral derivatives from FoFJK, PRISM(SPDF).
 Compute integral first derivatives, UseDBF=F ICtDFT=           0.
 Calling FoFJK, ICntrl=      2127 FMM=F ISym2X=0 I1Cent= 0 IOpClX= 0 NMat=1 NMatS=1 NMatT=0.
 FoFJK:  IHMeth= 1 ICntrl=    2127 DoSepK=T KAlg= 0 I1Cent=           0 FoldK=F
 IRaf=         1 NMat=       1 IRICut=       1 DoRegI=T DoRafI=F ISym2E= 0 IDoP0=0 IntGTp=1.
 FoFCou: FMM=F IPFlag=           0 FMFlag=      100000 FMFlg1=         800
         NFxFlg=           0 DoJE=F BraDBF=F KetDBF=F FulRan=T
         wScrn=  0.000000 ICntrl=      2527 IOpCl=  0 I1Cent=           0 NGrid=           0
         NMat0=    1 NMatS0=      1 NMatT0=    0 NMatD0=    1 NMtDS0=    0 NMtDT0=    0
 Symmetry not used in FoFCou.
 Leave Link  703 at Tue Oct 27 22:18:55 2020, MaxMem=  7784628224 cpu:             135.6 elap:              13.6
 (Enter /gpfs/loomis/apps/avx/software/Gaussian/16-C.01_AVX/g16/l716.exe)
 Dipole        =-3.80312233D-01-4.95882979D-01 5.08649568D-06
 -------------------------------------------------------------------
 Center     Atomic                   Forces (Hartrees/Bohr)
 Number     Number              X              Y              Z
 -------------------------------------------------------------------
      1        6           0.006104836   -0.006721625   -0.000000000
      2        6           0.004358061    0.013026581   -0.000000137
      3        6           0.023113496   -0.046982313   -0.000000390
      4        6          -0.017576523    0.003295681   -0.000000040
      5        6           0.000528336   -0.007620640    0.000000037
      6        6          -0.003250152    0.004977241   -0.000000048
      7        1           0.000304272   -0.000507833   -0.000000026
      8        1          -0.000177887    0.000106531   -0.000000004
      9        1          -0.000254305    0.000108091    0.000000003
     10        1          -0.000151324    0.000132177    0.000000013
     11        7          -0.063303731    0.019890966    0.000000628
     12       16           0.005000464    0.011074653    0.000000218
     13        6          -0.030897821    0.061791687    0.000000915
     14        6           0.021581598    0.001184599   -0.000000142
     15        6          -0.011605907   -0.037613905   -0.000000647
     16        6          -0.004660309    0.015179380    0.000000366
     17        1          -0.001548323   -0.001030392   -0.000000014
     18        6          -0.002292073   -0.004282413    0.000000103
     19        6           0.002591681   -0.020083218   -0.000000482
     20        1           0.000359084   -0.000099888    0.000000018
     21        1           0.000268543   -0.000050956   -0.000000036
     22        1          -0.000254644    0.000094562   -0.000000047
     23        6           0.066007080   -0.025882101   -0.000000481
     24        8          -0.348292768    0.574999725    0.000014117
     25        1           0.354048318   -0.554986591   -0.000013926
 -------------------------------------------------------------------
 Cartesian Forces:  Max     0.574999725 RMS     0.109895473
 Leave Link  716 at Tue Oct 27 22:18:55 2020, MaxMem=  7784628224 cpu:               0.3 elap:               0.0
 (Enter /gpfs/loomis/apps/avx/software/Gaussian/16-C.01_AVX/g16/l103.exe)

 GradGradGradGradGradGradGradGradGradGradGradGradGradGradGradGradGradGrad
 Berny optimization.
 FormGI is forming the generalized inverse of G from B-inverse, IUseBI=4.
 GSVD:  received Info=                   1 from GESDD.
 Internal  Forces:  Max     0.625950057 RMS     0.056568764
 Search for a local minimum.
 Step number   1 out of a maximum of  143
 All quantities printed in internal units (Hartrees-Bohrs-Radians)
 RMS Force = .56999D-01 SwitMx=.10000D-02 MixMth= 1
 Mixed Optimization -- RFO/linear search
 Second derivative matrix not updated -- first step.
 ITU=  0
     Eigenvalues ---    0.01345   0.01439   0.01658   0.01694   0.01775
     Eigenvalues ---    0.01818   0.01941   0.01950   0.01991   0.01997
     Eigenvalues ---    0.01998   0.02032   0.02050   0.02089   0.02096
     Eigenvalues ---    0.02129   0.02161   0.02176   0.02187   0.02199
     Eigenvalues ---    0.02216   0.02708   0.16000   0.16000   0.16000
     Eigenvalues ---    0.16000   0.16000   0.16000   0.16000   0.16003
     Eigenvalues ---    0.16107   0.22000   0.22028   0.22523   0.22583
     Eigenvalues ---    0.24473   0.24553   0.25000   0.25000   0.25000
     Eigenvalues ---    0.26967   0.29686   0.32954   0.34605   0.34649
     Eigenvalues ---    0.34704   0.34743   0.34748   0.34763   0.34794
     Eigenvalues ---    0.34801   0.36970   0.39278   0.39953   0.40966
     Eigenvalues ---    0.42584   0.43375   0.44155   0.44655   0.46402
     Eigenvalues ---    0.46432   0.47933   0.48486   0.50374   0.57316
     Eigenvalues ---    0.61025   1.646101000.000001000.000001000.00000
     Eigenvalues --- 1000.000001000.000001000.000001000.000001000.00000
     Eigenvalues --- 1000.000001000.000001000.000001000.000001000.00000
     Eigenvalues --- 1000.000001000.000001000.000001000.000001000.00000
     Eigenvalues --- 1000.000001000.000001000.000001000.000001000.00000
     Eigenvalues --- 1000.000001000.000001000.000001000.000001000.00000
     Eigenvalues --- 1000.000001000.000001000.000001000.000001000.00000
     Eigenvalues --- 1000.000001000.000001000.000001000.000001000.00000
     Eigenvalues --- 1000.000001000.000001000.000001000.000001000.00000
     Eigenvalues --- 1000.000001000.000001000.000001000.000001000.00000
     Eigenvalues --- 1000.000001000.000001000.000001000.000001000.00000
     Eigenvalues --- 1000.000001000.000001000.000001000.000001000.00000
     Eigenvalues --- 1000.000001000.000001000.000001000.000001000.00000
     Eigenvalues --- 1000.000001000.000001000.00000
 RFO step:  Lambda=-2.33977665D-01 EMin= 1.34511847D-02
 Linear search not attempted -- first point.
 Maximum step size (   0.300) exceeded in Quadratic search.
    -- Step size scaled by   0.813
 Iteration  1 RMS(Cart)=  0.02377188 RMS(Int)=  0.00597522
 Iteration  2 RMS(Cart)=  0.00614382 RMS(Int)=  0.00019037
 Iteration  3 RMS(Cart)=  0.00007840 RMS(Int)=  0.00018178
 Iteration  4 RMS(Cart)=  0.00000009 RMS(Int)=  0.00018187
 Iteration  1 RMS(Cart)=  0.00000096 RMS(Int)=  0.00000022
 ITry= 1 IFail=0 DXMaxC= 1.99D-01 DCOld= 1.00D+10 DXMaxT= 3.00D-01 DXLimC= 3.00D+00 Rises=F
 Variable       Old X    -DE/DX   Delta X   Delta X   Delta X     New X
                                 (Linear)    (Quad)   (Total)
    R1        2.62639   0.01553   0.00000   0.00969   0.00957   2.63595
    R2        2.63444   0.00592   0.00000  -0.00185  -0.00200   2.63245
    R3        2.06086   0.00046   0.00000   0.00034   0.00034   2.06119
    R4        2.70453  -0.01509   0.00000  -0.02186  -0.02187   2.68266
    R5        3.30999   0.00848   0.00000   0.00269   0.00256   3.31256
    R6        2.69496  -0.02304   0.00000  -0.02253  -0.02243   2.67253
    R7        2.50523   0.01446   0.00000   0.02974   0.03002   2.53525
    R8        2.60700  -0.00899   0.00000  -0.00007   0.00009   2.60709
    R9        2.06095   0.00014   0.00000   0.00009   0.00009   2.06104
   R10        2.66917  -0.00180   0.00000  -0.00545  -0.00550   2.66366
   R11        2.06321  -0.00010   0.00000  -0.00030  -0.00031   2.06290
   R12        2.06158  -0.00027   0.00000  -0.00033  -0.00033   2.06125
   R13        2.57046  -0.05950   0.00000  -0.05487  -0.05473   2.51573
   R14        3.36821   0.03476   0.00000   0.00483   0.00429   3.37250
   R15        2.69434   0.00074   0.00000  -0.01354  -0.01373   2.68060
   R16        2.78395   0.02213   0.00000  -0.02394  -0.02460   2.75935
   R17        2.65852   0.06596   0.00000   0.05054   0.05014   2.70866
   R18        2.61075   0.00090   0.00000   0.00225   0.00226   2.61301
   R19        2.06062   0.00142   0.00000   0.00202   0.00202   2.06264
   R20        2.64496  -0.01561   0.00000  -0.00690  -0.00673   2.63823
   R21        2.50047   0.01793   0.00000   0.00974   0.00958   2.51006
   R22        2.68549  -0.02054   0.00000  -0.02505  -0.02504   2.66046
   R23        2.06248  -0.00060   0.00000  -0.00055  -0.00054   2.06194
   R24        2.62599  -0.02174   0.00000  -0.00893  -0.00869   2.61731
   R25        2.06011   0.00035   0.00000   0.00019   0.00018   2.06029
   R26        2.05999   0.00013   0.00000   0.00038   0.00038   2.06037
   R27        1.35168   0.62595   0.00000   0.27095   0.27144   1.62312
    A1        2.06954  -0.00647   0.00000  -0.00539  -0.00535   2.06419
    A2        2.10778   0.00517   0.00000   0.00447   0.00443   2.11221
    A3        2.10587   0.00131   0.00000   0.00092   0.00092   2.10679
    A4        2.12314  -0.01050   0.00000  -0.00315  -0.00300   2.12015
    A5        2.24667   0.03151   0.00000   0.01992   0.01959   2.26626
    A6        1.91337  -0.02101   0.00000  -0.01677  -0.01659   1.89678
    A7        2.07054   0.01606   0.00000   0.01010   0.00995   2.08049
    A8        2.01306   0.01524   0.00000   0.00681   0.00664   2.01970
    A9        2.19958  -0.03129   0.00000  -0.01691  -0.01658   2.18300
   A10        2.07637   0.00173   0.00000   0.00087   0.00087   2.07724
   A11        2.07989  -0.00234   0.00000  -0.00155  -0.00153   2.07836
   A12        2.12692   0.00061   0.00000   0.00068   0.00067   2.12759
   A13        2.11975  -0.00494   0.00000  -0.00449  -0.00445   2.11529
   A14        2.08608   0.00129   0.00000   0.00132   0.00131   2.08739
   A15        2.07736   0.00365   0.00000   0.00317   0.00314   2.08050
   A16        2.10702   0.00412   0.00000   0.00207   0.00199   2.10901
   A17        2.08640  -0.00112   0.00000  -0.00048  -0.00046   2.08594
   A18        2.08977  -0.00300   0.00000  -0.00158  -0.00153   2.08823
   A19        1.97813   0.00922   0.00000   0.00453   0.00445   1.98259
   A20        1.55368   0.00569   0.00000   0.00890   0.00886   1.56255
   A21        2.02623  -0.02102   0.00000   0.00035   0.00069   2.02692
   A22        2.19709  -0.03047   0.00000  -0.02194  -0.02166   2.17544
   A23        2.05987   0.05149   0.00000   0.02158   0.02096   2.08083
   A24        2.11199   0.01068   0.00000   0.00900   0.00890   2.12089
   A25        2.07299  -0.00319   0.00000  -0.00161  -0.00157   2.07141
   A26        2.09821  -0.00749   0.00000  -0.00739  -0.00733   2.09089
   A27        2.12313   0.00111   0.00000  -0.00745  -0.00754   2.11559
   A28        2.07546   0.07986   0.00000   0.04939   0.04853   2.12399
   A29        2.08459  -0.08098   0.00000  -0.04194  -0.04099   2.04360
   A30        2.12531  -0.00158   0.00000  -0.01162  -0.01169   2.11362
   A31        2.08111   0.00149   0.00000   0.00614   0.00617   2.08728
   A32        2.07676   0.00009   0.00000   0.00547   0.00552   2.08228
   A33        2.09149   0.01003   0.00000   0.00776   0.00767   2.09916
   A34        2.06330  -0.00637   0.00000  -0.00505  -0.00499   2.05831
   A35        2.12840  -0.00366   0.00000  -0.00271  -0.00268   2.12572
   A36        2.08822   0.00078   0.00000   0.00195   0.00197   2.09020
   A37        2.09505   0.00097   0.00000  -0.00050  -0.00053   2.09453
   A38        2.09991  -0.00175   0.00000  -0.00145  -0.00144   2.09846
   A39        1.96653  -0.00914   0.00000  -0.00348  -0.00336   1.96316
   A40        2.12985  -0.00864   0.00000  -0.00994  -0.00987   2.11998
   A41        2.18680   0.01778   0.00000   0.01342   0.01323   2.20004
   A42        1.94718   0.01679   0.00000   0.01143   0.01116   1.95834
    D1        0.00000   0.00000   0.00000   0.00000   0.00000   0.00000
    D2       -3.14159   0.00000   0.00000   0.00000   0.00000  -3.14159
    D3        3.14159   0.00000   0.00000   0.00000   0.00000   3.14159
    D4       -0.00000   0.00000   0.00000   0.00000   0.00000  -0.00000
    D5       -0.00000   0.00000   0.00000   0.00000   0.00000  -0.00000
    D6        3.14159   0.00000   0.00000   0.00000   0.00000   3.14159
    D7       -3.14159   0.00000   0.00000   0.00000   0.00000  -3.14159
    D8        0.00000  -0.00000   0.00000  -0.00000  -0.00000   0.00000
    D9       -0.00000  -0.00000   0.00000  -0.00000  -0.00000  -0.00000
   D10        3.14159  -0.00000   0.00000  -0.00000  -0.00000   3.14159
   D11        3.14159  -0.00000   0.00000  -0.00000  -0.00000   3.14159
   D12       -0.00000  -0.00000   0.00000  -0.00000  -0.00000  -0.00000
   D13        3.14159   0.00000   0.00000   0.00000   0.00000   3.14159
   D14       -0.00000   0.00000   0.00000   0.00000   0.00000  -0.00000
   D15       -0.00000   0.00000   0.00000   0.00000   0.00000  -0.00000
   D16        3.14159   0.00000   0.00000   0.00000   0.00000   3.14159
   D17       -3.14159   0.00000   0.00000   0.00000   0.00000  -3.14159
   D18        0.00000   0.00000   0.00000   0.00000   0.00000   0.00000
   D19        0.00000  -0.00000   0.00000  -0.00000  -0.00000   0.00000
   D20       -3.14159  -0.00000   0.00000  -0.00000  -0.00000  -3.14159
   D21        0.00000  -0.00000   0.00000   0.00000   0.00000   0.00000
   D22       -3.14159  -0.00000   0.00000  -0.00000  -0.00000  -3.14159
   D23        3.14159   0.00000   0.00000   0.00000   0.00000  -3.14159
   D24        0.00000   0.00000   0.00000   0.00000   0.00000   0.00000
   D25        0.00000  -0.00000   0.00000  -0.00000  -0.00000   0.00000
   D26       -3.14159  -0.00000   0.00000  -0.00000  -0.00000  -3.14159
   D27       -3.14159  -0.00000   0.00000  -0.00000  -0.00000  -3.14159
   D28        0.00000   0.00000   0.00000   0.00000   0.00000   0.00000
   D29       -0.00001   0.00000   0.00000   0.00000   0.00000  -0.00001
   D30        3.14158   0.00000   0.00000   0.00000   0.00000   3.14158
   D31        0.00001  -0.00000   0.00000  -0.00000  -0.00000   0.00000
   D32       -3.14158  -0.00000   0.00000  -0.00000  -0.00000  -3.14158
   D33        0.00000  -0.00000   0.00000  -0.00000  -0.00000   0.00000
   D34        3.14159  -0.00000   0.00000  -0.00000  -0.00000   3.14159
   D35        3.14159  -0.00000   0.00000  -0.00000  -0.00000   3.14159
   D36       -0.00000  -0.00000   0.00000  -0.00000  -0.00000  -0.00000
   D37       -0.00000   0.00000   0.00000   0.00000   0.00000  -0.00000
   D38        3.14159   0.00000   0.00000   0.00000   0.00000   3.14159
   D39       -3.14159   0.00000   0.00000   0.00000   0.00000  -3.14159
   D40       -0.00000   0.00000   0.00000   0.00000   0.00000  -0.00000
   D41        3.14158  -0.00000   0.00000  -0.00000  -0.00000   3.14158
   D42       -0.00002  -0.00000   0.00000   0.00000   0.00000  -0.00002
   D43       -0.00001  -0.00000   0.00000  -0.00000  -0.00000  -0.00001
   D44        3.14157  -0.00000   0.00000   0.00000   0.00000   3.14157
   D45       -0.00000  -0.00000   0.00000   0.00000  -0.00000  -0.00000
   D46        3.14159   0.00000   0.00000   0.00000   0.00000   3.14159
   D47       -3.14159  -0.00000   0.00000  -0.00000  -0.00000   3.14159
[...]
 12,-0.00000014,0.00166179,0.00249781,-0.00000001,-0.00596753,-0.257871
 46,-0.00000338,-0.08799975,0.01832718,0.00000027,-0.01797410,0.6814213
 4,0.,0.,0.00031425,0.,0.00000001,0.00026173,-0.00000003,0.,-0.00087213
 ,0.,0.,-0.00011869,0.,0.,0.00007425,0.,0.,-0.00009314,0.,0.,0.00001557
 ,0.,0.,-0.00003422,0.,0.,0.00002560,0.,0.,-0.00003651,-0.00000012,-0.0
 0000008,0.00028073,-0.00000002,0.00000008,0.00125294,0.00000019,-0.000
 00383,-0.07111886,-0.00000229,0.00000033,0.00165766,-0.00000079,0.0000
 1113,0.17546776,0.00014488,-0.00006934,0.,-0.00030381,0.00064634,0.,0.
 00038568,-0.00084739,0.,-0.00013232,0.00024529,0.,-0.00000061,0.000017
 66,0.,-0.00012853,0.00006198,0.,-0.00001053,0.00002294,0.,0.00004053,-
 0.00001371,0.,-0.00002528,0.00001977,0.,-0.00000294,0.00001130,0.,-0.0
 0316162,0.00191962,0.00000003,-0.00010141,0.00056278,0.00000001,-0.044
 62655,0.01394656,0.00000014,-0.23412219,0.15856910,0.00000313,0.000142
 84,0.01812024,0.00000044,0.76632980,-0.00047218,0.00089032,0.,0.001149
 73,-0.00076461,0.00000002,-0.00031965,0.00119504,0.00000010,-0.0004552
 9,-0.00007862,0.,-0.00013862,-0.00083742,0.,0.00104449,-0.00015420,0.,
 -0.00004229,-0.00006944,0.,0.00002285,0.00004122,0.,0.00010056,-0.0000
 4071,0.,0.00006133,-0.00003327,0.,0.00565498,0.00221875,-0.00000002,-0
 .00156913,-0.00112900,-0.00000005,0.06627141,0.03927696,0.00000085,0.0
 8572191,-0.26568959,-0.00000425,0.02676993,-0.07401406,-0.00000172,0.0
 0240592,0.68083162,-0.00000002,0.00000003,0.00006865,0.00000005,-0.000
 00002,0.00035788,0.,0.,-0.00068957,-0.00000003,0.,-0.00013188,0.,-0.00
 000004,0.00007102,0.00000004,0.,-0.00001823,0.,0.,0.00000274,0.,0.,0.0
 0000378,0.,0.,0.00001639,0.,0.,-0.00002956,0.00000007,0.00000009,0.000
 12104,-0.00000004,-0.00000006,-0.00066367,0.00000145,0.00000081,0.0073
 4652,0.00000152,-0.00000435,-0.06269895,0.00000068,-0.00000161,-0.0044
 5730,0.00000218,0.00001408,0.12824910,0.00027647,0.00005470,0.,-0.0006
 7083,0.00022125,0.00000002,0.00027761,-0.00004788,0.,0.00002034,0.0000
 2827,0.,0.00005046,0.00005380,0.,-0.00006009,-0.00009063,0.,-0.0000139
 5,-0.00001118,0.,0.00003504,0.00000697,0.,0.00001215,-0.00000122,0.,0.
 00003271,-0.00000728,0.,0.00030461,0.00040718,0.,-0.00124757,0.0018227
 6,-0.00000005,-0.00477939,-0.02798776,-0.00000065,-0.09166686,-0.09167
 036,-0.00000232,-0.00548623,0.00102219,-0.00000003,0.01088972,0.020161
 98,0.00000048,0.09363677,0.00001819,-0.00001532,0.,-0.00007586,0.00050
 089,0.,0.00026096,-0.00021059,0.,0.00000020,0.00006628,0.,0.00001434,0
 .00004067,0.,-0.00005862,0.00000714,0.,-0.00000933,0.00000688,0.,0.000
 02135,0.00000126,0.,-0.00000238,0.00000189,0.,0.00000157,0.00000086,0.
 ,-0.00055893,0.00025104,0.00000002,0.00039121,-0.00027669,-0.00000004,
 0.00100226,-0.00154665,-0.00000012,-0.08961717,-0.30750055,-0.00000662
 ,-0.00018531,0.00189701,-0.00000011,-0.01207152,-0.01682130,-0.0000005
 4,0.09567898,0.32602119,0.,0.,-0.00001622,-0.00000002,0.00000001,-0.00
 057038,0.,0.00000001,0.00011924,0.,0.,0.00008784,0.,0.,-0.00002754,0.,
 0.,0.00002935,0.,0.,-0.00001442,0.,0.,-0.00001879,0.,0.,-0.00000593,0.
 ,0.,0.00002157,0.00000004,0.,0.00006245,-0.00000005,0.,0.00094017,0.00
 000018,-0.00000014,0.00305598,-0.00000249,-0.00000662,-0.03751193,0.,-
 0.00000018,0.00592853,-0.00000018,-0.00000056,0.00484979,0.00000248,0.
 00000740,0.02500646,0.00013139,0.00035406,0.,0.00035554,-0.00006770,0.
 ,0.00108615,-0.00010500,0.00000003,-0.00038342,-0.00011422,0.,-0.00001
 583,-0.00035075,0.,0.00031867,-0.00008417,0.,-0.00003559,-0.00000136,0
 .,0.00009365,0.00001085,0.,0.00003752,-0.00001665,0.,0.00003122,-0.000
 00141,0.,0.00183577,0.00394274,0.00000011,0.00025540,0.00004561,-0.000
 00003,0.05690285,0.03506271,0.00000101,-0.06345811,0.02609054,0.000000
 54,-0.18644080,0.06219525,0.00000173,-0.00461061,-0.08897344,-0.000002
 14,-0.00084468,0.00056872,-0.00000009,0.76945537,0.00038037,-0.0002682
 9,0.00000001,-0.00095550,-0.00019775,0.,-0.00031069,0.00010250,-0.0000
 0002,0.00040797,0.00000993,0.,0.00009040,0.00047899,0.,-0.00046074,-0.
 00007075,0.,-0.00000218,0.00002453,0.,0.00000412,-0.00000966,0.,-0.000
 02579,0.00001613,0.,0.00000913,0.00000313,0.,-0.00094992,-0.00068442,-
 0.00000001,0.00136884,-0.00026163,0.00000001,-0.00268106,-0.03652785,-
 0.00000117,0.02202463,-0.01178541,-0.00000016,0.13250597,-0.25938799,-
 0.00000504,-0.03824487,0.01750263,0.00000015,0.00031294,0.00054298,0.0
 0000008,0.04601437,0.73010238,0.00000001,0.,-0.00020111,-0.00000003,-0
 .00000002,-0.00004803,-0.00000002,0.00000002,-0.00046696,0.00000001,0.
 ,0.00000846,0.,0.00000001,0.00001304,-0.00000001,0.,0.00002130,0.,0.,-
 0.00001759,0.,0.,-0.00001154,0.,0.,-0.00000656,0.,0.,0.00003784,-0.000
 00007,-0.00000006,0.00086066,0.00000005,-0.00000001,-0.00011551,0.,-0.
 00000081,0.00755131,0.00000052,-0.00000018,-0.00351070,0.00000357,-0.0
 0000536,-0.07083901,-0.00000103,0.00000009,0.00822783,0.,0.00000004,-0
 .00100667,0.00000064,0.00001587,0.12433070,0.00033880,-0.00064134,0.,-
 0.00114276,0.00037421,-0.00000001,-0.00044913,-0.00009282,-0.00000005,
 0.00062146,0.00005435,0.,0.00008184,0.00078240,0.,-0.00081437,0.000033
 45,0.,0.00002824,0.00005185,0.,-0.00002996,-0.00003626,0.,-0.00007544,
 0.00003577,0.,-0.00004049,0.00002229,0.,-0.00271303,-0.00161557,0.,0.0
 0105924,0.00031073,0.00000003,-0.04087843,-0.02370371,-0.00000061,0.06
 498472,-0.00573748,-0.00000008,-0.05389766,0.06205590,0.00000152,-0.15
 211810,-0.02821238,-0.00000105,-0.00230636,0.00422587,0.00000012,-0.38
 786044,-0.08464147,-0.00000197,0.74806537,0.00010359,-0.00020718,0.,-0
 .00021330,0.00026457,0.,0.00026533,-0.00085381,-0.00000003,-0.00006446
 ,0.00013718,0.,0.00004702,0.00010340,0.,-0.00022468,0.00009911,0.,0.00
 001252,0.00001229,0.,-0.00001381,-0.00000702,0.,-0.00002885,0.00001295
 ,0.,-0.00001107,0.00000732,0.,-0.00357328,-0.00082714,0.,0.00044048,0.
 00024629,0.00000003,-0.03975691,-0.02534950,-0.00000060,0.05159188,-0.
 05805649,-0.00000160,0.00598621,0.06365014,0.00000160,-0.10228439,-0.3
 1240677,-0.00000701,0.00344079,-0.00203597,-0.00000014,-0.01278086,-0.
 14205979,-0.00000208,-0.03274965,0.71381066,0.,0.,0.00001692,0.,0.0000
 0001,-0.00000812,0.00000001,-0.00000003,0.00019503,0.,0.,0.00000972,0.
 ,0.,-0.00001560,0.,0.,0.00000322,0.,0.,-0.00000009,0.,0.,0.00000886,0.
 ,0.,-0.00000134,0.,0.,-0.00000740,-0.00000010,-0.00000002,-0.00015833,
 0.,0.,0.00002729,-0.00000108,-0.00000058,-0.00386916,0.00000136,-0.000
 00156,0.00693783,0.00000023,0.00000167,0.00034822,-0.00000283,-0.00000
 689,-0.06418848,0.00000005,-0.00000022,0.00751173,-0.00000032,-0.00000
 218,-0.05855705,-0.00000079,0.00001544,0.14215242,0.00001637,-0.000070
 46,0.,-0.00006486,0.00012386,0.,-0.00003875,-0.00005287,0.,0.00004759,
 0.00003362,0.,-0.00000743,0.00006364,0.,-0.00007666,0.00001302,0.,0.00
 000286,0.00000989,0.,0.00000239,-0.00000638,0.,-0.00001141,0.00000667,
 0.,-0.00000924,0.00000574,0.,-0.00041464,0.00033898,0.,0.00003528,0.00
 005127,0.,-0.00003260,0.00366074,0.00000005,-0.01453528,-0.00751555,-0
 .00000023,0.00053551,0.00027190,0.,-0.33813033,-0.05404198,-0.00000230
 ,0.00075609,0.00007418,0.00000002,0.00141609,-0.00190384,-0.00000008,-
 0.00553125,0.00231929,0.00000005,0.35611115,-0.00000079,0.00002014,0.,
 0.00002603,-0.00006326,0.,0.00006927,0.00005221,0.,-0.00000627,-0.0000
 4103,0.,0.00001075,-0.00000998,0.,0.00001869,-0.00000725,0.,0.00000035
 ,-0.00000417,0.,0.00000027,0.00000205,0.,0.00000424,-0.00000418,0.,0.0
 0000285,-0.00000142,0.,0.00039652,-0.00028589,0.,0.00000647,0.00003171
 ,0.,0.00249332,-0.00333020,-0.00000023,0.02485997,0.00765479,0.0000002
 2,0.00050800,-0.00156109,-0.00000002,-0.05478637,-0.06830774,-0.000001
 09,-0.00020457,0.00091980,0.00000013,-0.00090712,-0.00526647,-0.000000
 31,-0.02985984,-0.00032589,-0.00000012,0.05780035,0.06851386,0.,0.,-0.
 00000075,0.,0.,-0.00000974,0.,0.,-0.00018579,0.,0.,-0.00000583,0.,0.,0
 .00001528,0.,0.,-0.00000540,0.,0.,0.00000127,0.,0.,-0.00000474,0.,0.,0
 .00000210,0.,0.,0.00000412,0.00000001,0.,-0.00012765,0.,0.,0.00001947,
 0.00000008,-0.00000022,0.00733417,0.00000050,0.00000013,0.00178811,0.0
 0000004,-0.00000006,-0.00069568,-0.00000227,-0.00000113,-0.03376232,0.
 00000001,0.00000013,-0.00464271,-0.00000006,-0.00000031,0.00634374,-0.
 00000076,0.,0.00182363,0.00000247,0.00000129,0.02514923,-0.00003750,-0
 .00000761,0.,0.00001698,0.00009240,0.,-0.00002007,0.00001153,0.,-0.000
 00322,0.00000670,0.,-0.00001002,-0.00001551,0.,0.00001293,0.00001077,0
 .,0.00000193,-0.00000160,0.,-0.00000806,0.00000065,0.,0.00000020,0.000
 00053,0.,-0.00000351,-0.00000130,0.,0.00010499,-0.00015029,-0.00000001
 ,-0.00022874,0.00005351,0.,-0.00229949,0.00239455,0.00000007,-0.001210
 24,0.00054534,0.00000001,0.00911645,0.02003524,0.00000051,-0.00524948,
 0.00004479,0.,0.00009116,-0.00009137,0.,-0.09328922,-0.09751606,-0.000
 00239,-0.00420072,-0.02904578,-0.00000075,-0.00038098,-0.00140300,-0.0
 0000004,0.09470470,0.00002378,0.00008047,0.,-0.00001027,-0.00012988,0.
 ,0.00008517,0.00004104,0.,-0.00004164,-0.00001683,0.,0.00000951,-0.000
 04873,0.,0.00005650,-0.00002241,0.,-0.00000576,-0.00000278,0.,0.000007
 55,0.00000489,0.,0.00000928,-0.00000407,0.,0.00001087,-0.00000308,0.,0
 .00012904,0.00032162,0.,0.00019336,-0.00018518,0.,0.00379166,-0.001948
 26,-0.00000019,0.00097003,0.00042056,0.00000004,-0.01308344,-0.0179832
 4,-0.00000055,-0.00051272,0.00200075,-0.00000015,-0.00005281,-0.000066
 17,0.00000002,-0.09463767,-0.31174810,-0.00000716,0.00178721,-0.000020
 54,-0.00000006,0.00008524,-0.00009634,-0.00000001,0.10375725,0.3272649
 8,0.,0.,0.00001180,0.,0.,-0.00002272,0.,0.,-0.00002269,0.,0.,-0.000000
 46,0.,0.,-0.00000396,0.,0.,0.00000224,0.,0.,0.00000153,0.,0.,0.0000043
 1,0.,0.,0.00000234,0.,0.,-0.00000133,0.,0.,-0.00000711,0.00000001,0.,-
 0.00005701,0.00000008,-0.00000020,0.00514878,0.00000008,0.00000002,-0.
 00089862,-0.00000042,-0.00000055,0.00489902,-0.00000002,-0.00000011,0.
 00758266,0.,0.00000001,-0.00066582,-0.00000228,-0.00000713,-0.03518783
 ,-0.00000001,-0.00000010,0.00263899,0.,0.,0.00041366,0.00000261,0.0000
 0779,0.02483330,0.00001355,-0.00002991,0.,-0.00002756,0.00008273,0.,0.
 00007111,-0.00005333,0.,0.00001273,0.00000933,0.,0.00000126,0.00002984
 ,0.,-0.00003732,0.00000824,0.,0.00000073,0.00000459,0.,0.00000518,-0.0
 0000340,0.,-0.00000625,0.00000280,0.,-0.00000404,0.00000340,0.,-0.0001
 0571,0.00015200,0.,-0.00000339,0.00013284,0.,-0.00080706,-0.00061657,-
 0.00000002,0.00072391,-0.00269442,-0.00000007,-0.00391977,-0.00273162,
 -0.00000007,0.00993848,-0.00944021,-0.00000025,0.00035776,-0.00050121,
 0.,-0.01335596,0.02571626,0.00000069,-0.17937551,0.14038973,0.00000376
 ,0.00064004,0.00043639,0.,0.00109755,-0.00021669,0.,0.18626772,0.00001
 908,0.00002081,0.,-0.00005651,0.00000588,0.,0.00001288,0.00002282,0.,-
 0.00000385,-0.00000422,0.,0.00000736,-0.00000686,0.,0.00001010,-0.0000
 1248,0.,-0.00000307,-0.00000341,0.,0.00000173,0.00000315,0.,0.00000511
 ,-0.00000166,0.,0.00000605,-0.00000312,0.,0.00011709,-0.00007396,0.,-0
 .00003817,0.00000752,0.,-0.00089711,0.00013041,0.00000003,-0.00318123,
 -0.00455929,-0.00000032,-0.00233281,0.00095157,-0.00000022,0.02170025,
 -0.01453379,-0.00000048,0.00100922,-0.00101626,0.,-0.00634704,0.007415
 80,0.00000008,0.14135419,-0.22553628,-0.00000502,-0.00015089,0.0010293
 9,0.00000013,0.00022864,0.00065184,0.00000014,-0.15153974,0.23502098,0
 .,0.,-0.00000837,0.,0.,-0.00005296,0.,0.,0.00008156,0.,0.,0.00001011,0
 .,0.,-0.00000620,0.,0.,-0.00000056,0.,0.,0.00000160,0.,0.,-0.00000208,
 0.,0.,-0.00000028,0.,0.,0.00000533,0.00000001,0.,-0.00009414,0.,0.,0.0
 0013817,-0.00000007,0.,-0.00100414,-0.00000010,-0.00000032,0.00664223,
 -0.00000008,-0.00000012,0.00888143,0.00000061,-0.00000045,0.00429190,0
 .00000003,-0.00000003,-0.00015026,-0.00000008,0.00000006,0.00481723,0.
 00000373,-0.00000507,-0.04067262,0.00000001,0.00000013,-0.00365254,0.,
 0.00000014,-0.00466353,-0.00000408,0.00000562,0.02678302,-0.00264663,-
 0.00729084,-0.00000007,-0.00362606,0.01585643,0.00000011,-0.09501663,0
 .04760412,0.00000075,0.01720032,-0.00356365,-0.00000006,-0.00358408,0.
 01121353,-0.00000003,-0.00600523,-0.00585062,0.00000005,0.00051584,-0.
 00100658,0.,-0.00049640,-0.00010388,0.,0.00018486,0.00011270,0.,-0.000
 76254,-0.00009907,0.00000002,-0.46209459,-0.06309155,0.00000306,-0.046
 90925,-0.01753138,-0.00000014,-0.14633187,0.06723436,0.00000072,-0.037
 26600,0.02912518,0.00000050,0.02818939,0.01241634,0.00000012,-0.001062
 35,-0.01238698,-0.00000032,0.00069108,0.00107692,0.00000002,-0.0025796
 9,-0.00171539,-0.00000002,0.00337625,0.00363280,0.00000011,-0.00030972
 ,0.00080017,0.00000002,0.00035072,-0.00112832,-0.00000004,0.00023164,-
 0.00000274,0.,0.77411371,0.00172905,-0.00268759,-0.00000009,0.02962459
 ,-0.02623357,-0.00000018,0.01810659,0.00307525,-0.00000018,0.00808644,
 -0.00873439,-0.00000004,-0.00163590,0.00598188,0.,-0.00348376,-0.00444
 568,0.00000004,0.00031775,-0.00085200,0.,-0.00043789,0.00019974,0.,0.0
 0025346,-0.00035107,0.,-0.00042843,0.00004534,0.00000002,-0.07849760,-
 0.12120201,0.00000041,0.00543833,-0.10293346,-0.00000002,0.06266818,-0
 .18470593,-0.00000164,0.01456223,0.00867735,0.00000015,0.01388237,-0.0
 3517297,-0.00000049,-0.00676875,0.01020307,0.00000014,-0.00204561,-0.0
 0037131,0.00000004,-0.00030872,-0.00648226,-0.00000028,-0.00634704,-0.
 00473628,-0.00000012,-0.00111827,0.00082078,0.00000001,0.00110423,-0.0
 0042877,-0.00000002,-0.00026599,0.00013090,0.,-0.05936370,0.46312913,0
 .00000009,-0.00000004,-0.00004970,-0.00000003,0.00000013,0.00444490,0.
 00000046,-0.00000021,0.00508718,0.,-0.00000002,0.00324798,0.00000002,0
 .00000002,0.00043144,-0.00000005,0.00000001,0.00077863,0.,0.,-0.000341
 42,0.,0.,-0.00024715,0.,0.,-0.00049120,0.,0.,0.00001208,0.00000297,0.0
 0000019,-0.06298033,0.,-0.00000014,-0.03881712,0.00000065,-0.00000137,
 -0.05293630,0.00000022,0.00000024,-0.00254394,0.00000020,-0.00000079,0
 .00260212,-0.00000011,-0.00000004,0.00664131,0.,0.00000008,-0.00329583
 ,-0.00000001,-0.00000021,0.00491249,-0.00000006,-0.00000006,-0.0009862
 9,-0.00000002,0.,0.00090576,0.00000002,-0.00000001,0.00003041,0.,0.000
 00003,-0.00084161,-0.00000446,0.00000205,0.13605757,-0.00035024,0.0017
 5097,-0.00000003,0.00160856,0.00062690,0.,0.00683465,-0.00088871,0.000
 00012,-0.00173839,-0.00004620,0.00000002,-0.00002459,-0.00169170,0.,0.
 00167788,0.00017026,0.,-0.00014028,0.00009094,0.,0.00031948,0.00000520
 ,0.,0.00005195,-0.00003138,0.,0.00006145,0.00004238,0.,0.00896901,0.01
 989618,0.00000046,-0.00030225,0.00017613,-0.00000004,-0.01162976,-0.02
 796934,-0.00000051,-0.00802519,0.00437026,0.00000016,-0.32295162,-0.08
 765706,-0.00000157,-0.00483057,-0.01461931,-0.00000037,-0.00084055,-0.
 00035358,-0.00000004,-0.07707002,0.00532906,0.00000028,0.01466943,0.01
 173436,0.00000025,-0.00008031,-0.00026144,-0.00000001,0.00163810,-0.00
 139326,-0.00000001,-0.00149427,0.00024588,0.,-0.02031778,0.01319625,0.
 00000030,0.58356382,-0.00048109,-0.00024167,0.00000002,0.00030066,-0.0
 0193577,0.,-0.00649779,-0.00106853,-0.00000013,-0.00020748,-0.00033671
 ,0.,0.00032238,-0.00001212,0.,0.00011573,-0.00003385,0.,0.00010561,-0.
 00018608,0.,0.00001895,0.00009003,0.,0.00011402,-0.00008426,0.,0.00007
 127,-0.00005488,0.,0.00983279,-0.02626058,-0.00000075,-0.00090951,-0.0
 0288971,0.00000002,-0.04230894,-0.00842433,-0.00000041,0.00728824,-0.0
 0738058,-0.00000027,-0.05312914,-0.13631488,-0.00000136,-0.00212540,0.
 00586780,0.00000016,-0.00164672,-0.00021622,-0.00000002,0.04238659,0.0
 1634158,0.00000007,-0.00177064,-0.00961973,-0.00000040,-0.00004068,0.0
 0043369,0.00000003,-0.00036199,0.00208048,0.00000012,0.00155900,0.0002
 8471,0.,0.00353486,0.00513722,0.00000011,-0.11781418,0.48722564,-0.000
 00001,-0.00000001,-0.00009136,0.00000002,-0.00000004,-0.00007621,-0.00
 000014,-0.00000008,0.00069902,0.,0.,0.00012613,0.,0.,-0.00003178,0.,0.
 ,0.00003652,0.,0.,-0.00001216,0.,0.,-0.00003249,0.,0.,-0.00001605,0.,0
 .,-0.00000432,0.00000033,-0.00000062,0.00417464,-0.00000003,-0.0000000
 8,-0.00054428,-0.00000096,-0.00000046,0.01070608,0.00000022,-0.0000002
 9,0.00646694,-0.00000135,-0.00000137,-0.05307183,-0.00000006,0.0000002
 5,-0.00104810,-0.00000002,-0.00000002,0.00036574,0.00000115,0.00000003
 ,0.01019379,-0.00000017,-0.00000039,0.00482030,0.,0.00000003,-0.000632
 05,-0.00000003,0.00000012,-0.00339598,0.00000003,0.00000001,-0.0001940
 9,0.00000006,0.00000018,-0.00293071,-0.00000080,0.00000647,0.03703334,
 0.00010640,-0.00036096,0.,-0.00074961,0.00027298,0.,-0.00059067,0.0021
 8937,0.00000003,0.00070220,0.00026607,-0.00000001,-0.00012195,0.000238
 34,0.,-0.00031371,-0.00003669,0.,0.00001312,0.00000185,0.,-0.00041995,
 -0.00002288,0.,0.00000385,0.00000468,0.,-0.00001930,-0.00004348,0.,-0.
 01186594,-0.00154690,-0.00000012,-0.00084040,-0.00103895,0.00000003,0.
 00154510,0.00269870,0.00000009,0.00029647,0.00093463,0.00000001,-0.046
 49704,0.03468936,0.00000040,0.00074528,0.00126158,0.00000003,0.0004845
 4,0.00019055,0.00000002,-0.00197526,-0.00475656,-0.00000018,-0.0017917
 1,0.00078304,0.00000004,0.00006010,-0.00000426,0.,-0.00019445,0.000166
 13,0.,-0.00022483,-0.00016440,0.,0.00415499,-0.00826782,-0.00000017,-0
 .16959852,0.16164344,0.00000177,0.22709131,0.00026185,0.00083185,-0.00
 000003,0.00079129,0.00288085,-0.00000002,0.01020069,-0.00244806,0.0000
 0011,-0.00085859,0.00084698,0.00000002,-0.00040002,-0.00075372,0.,0.00
 048108,0.00033916,0.,-0.00016241,0.00026597,0.,0.00028677,-0.00011486,
 0.,-0.00016091,0.00011977,0.,-0.00007369,0.00009594,0.,0.00036784,0.00
 658848,0.00000063,0.00116207,0.00423613,-0.00000009,0.00060464,-0.0064
 4885,-0.00000010,-0.00353897,0.00015129,0.00000004,0.01323627,0.020010
 56,0.00000028,-0.00052529,-0.00514764,-0.00000012,-0.00045499,-0.00018
 085,-0.00000002,-0.01197533,0.00220980,0.00000011,0.00431997,0.0036984
 7,0.00000006,0.00004252,-0.00017349,0.,0.00030839,-0.00016225,0.000000
 01,-0.00043405,0.00007557,0.,-0.01947271,0.00193661,0.00000004,0.19509
 138,-0.32240124,-0.00000372,-0.18909779,0.29354354,0.00000002,0.000000
 03,0.00015913,0.,0.00000010,0.00027588,0.00000029,0.00000006,-0.000426
 33,-0.00000002,0.00000001,-0.00025585,-0.00000001,-0.00000001,-0.00001
 219,0.00000001,0.,-0.00003727,0.,0.,0.00002037,0.00000001,0.,0.0001321
 3,0.,0.,0.00002047,0.,0.,-0.00000132,-0.00000015,0.00000023,-0.0081219
 6,0.00000006,0.00000014,0.00087357,0.00000004,-0.00000013,-0.00181712,
 -0.00000010,0.00000004,-0.00022018,0.00000051,0.00000045,-0.00067242,-
 0.00000003,-0.00000015,-0.00014256,0.,0.,-0.00005236,-0.00000023,0.000
 00002,0.00265014,0.00000016,0.00000003,0.00197031,0.,0.,-0.00007536,0.
 ,0.00000002,-0.00064200,0.,0.00000001,-0.00030921,-0.00000040,0.000000
 01,0.00130972,0.00000180,-0.00000367,-0.01254109,-0.00000194,0.0000028
 0,0.01791550\\0.00134093,-0.00130024,0.00000024,-0.00157482,-0.0032707
 8,0.00000057,-0.00388151,-0.00036845,-0.00000017,-0.00074145,0.0009835
 6,0.,0.00058596,0.00317711,-0.00000002,0.00131592,0.00119898,-0.000000
 03,0.00029837,-0.00022962,-0.00000004,-0.00028837,0.00021033,0.,0.0000
 4322,0.00029103,0.,0.00022976,0.00015396,-0.00000007,0.00214943,-0.004
 08272,-0.00000075,-0.00204418,-0.00800987,-0.00000068,0.00162554,-0.00
 201239,0.,-0.00358534,0.00158641,-0.00000004,-0.00383352,-0.00176936,-
 0.00000059,0.00090861,0.00007987,-0.00000014,-0.00025961,0.00014439,-0
 .00000005,0.00251180,0.00021127,0.00000025,0.00301956,0.00225728,0.000
 00023,0.00003741,0.00027565,-0.00000003,0.00033365,-0.00003227,0.,0.00
 033564,0.00026492,0.00000005,0.00098292,0.00035297,0.00000082,0.002920
 86,0.00183367,-0.00000022,-0.00243080,0.00805427,0.00000064\\\@
 The archive entry for this job was punched.


 TWO ROADS DIVERGED IN A WOOD, AND I--
 I TOOK THE ONE LESS TRAVELED BY,
 AND THAT HAS MADE ALL THE DIFFERENCE.

                       -- ROBERT FROST
 Job cpu time:       0 days  0 hours 58 minutes 32.4 seconds.
 Elapsed time:       0 days  0 hours  5 minutes 53.3 seconds.
 File lengths (MBytes):  RWF=    544 Int=      0 D2E=      0 Chk=     36 Scr=      8
 Normal termination of Gaussian 16 at Tue Oct 27 22:34:04 2020.
