 Entering Gaussian System, Link 0=g16
 Initial command:
 /gpfs/loomis/apps/avx/software/Gaussian/16-C.01_AVX/g16/l1.exe "/home/fas/batista/pev4/scratch60/gauss-scratch/Gau-55552.inp" -scrdir="/home/fas/batista/pev4/scratch60/gauss-scratch/"
 Entering Link 1 = /gpfs/loomis/apps/avx/software/Gaussian/16-C.01_AVX/g16/l1.exe PID=     55553.
  
 Copyright (c) 1988-2019, Gaussian, Inc.  All Rights Reserved.
  
 This is part of the Gaussian(R) 16 program.  It is based on
 the Gaussian(R) 09 system (copyright 2009, Gaussian, Inc.),
 the Gaussian(R) 03 system (copyright 2003, Gaussian, Inc.),
 the Gaussian(R) 98 system (copyright 1998, Gaussian, Inc.),
 the Gaussian(R) 94 system (copyright 1995, Gaussian, Inc.),
 the Gaussian 92(TM) system (copyright 1992, Gaussian, Inc.),
 the Gaussian 90(TM) system (copyright 1990, Gaussian, Inc.),
 the Gaussian 88(TM) system (copyright 1988, Gaussian, Inc.),
 the Gaussian 86(TM) system (copyright 1986, Carnegie Mellon
 University), and the Gaussian 82(TM) system (copyright 1983,
 Carnegie Mellon University). Gaussian is a federally registered
 trademark of Gaussian, Inc.
  
 This software contains proprietary and confidential information,
 including trade secrets, belonging to Gaussian, Inc.
  
 This software is provided under written license and may be
 used, copied, transmitted, or stored only in accord with that
 written license.
  
 The following legend is applicable only to US Government
 contracts under FAR:
  
                    RESTRICTED RIGHTS LEGEND
  
 Use, reproduction and disclosure by the US Government is
 subject to restrictions as set forth in subparagraphs (a)
 and (c) of the Commercial Computer Software - Restricted
 Rights clause in FAR 52.227-19.
  
 Gaussian, Inc.
 340 Quinnipiac St., Bldg. 40, Wallingford CT 06492
  
  
 ---------------------------------------------------------------
 Warning -- This program may not be used in any manner that
 competes with the business of Gaussian, Inc. or will provide
 assistance to any competitor of Gaussian, Inc.  The licensee
 of this program is prohibited from giving any competitor of
 Gaussian, Inc. access to this program.  By using this program,
 the user acknowledges that Gaussian, Inc. is engaged in the
 business of creating and licensing software in the field of
 computational chemistry and represents and warrants to the
 licensee that it is not a competitor of Gaussian, Inc. and that
 it will not use this program in any manner prohibited above.
 ---------------------------------------------------------------
  

 Cite this work as:
 Gaussian 16, Revision C.01,
 M. J. Frisch, G. W. Trucks, H. B. Schlegel, G. E. Scuseria, 
 M. A. Robb, J. R. Cheeseman, G. Scalmani, V. Barone, 
 G. A. Petersson, H. Nakatsuji, X. Li, M. Caricato, A. V. Marenich, 
 J. Bloino, B. G. Janesko, R. Gomperts, B. Mennucci, H. P. Hratchian, 
 J. V. Ortiz, A. F. Izmaylov, J. L. Sonnenberg, D. Williams-Young, 
 F. Ding, F. Lipparini, F. Egidi, J. Goings, B. Peng, A. Petrone, 
 T. Henderson, D. Ranasinghe, V. G. Zakrzewski, J. Gao, N. Rega, 
 G. Zheng, W. Liang, M. Hada, M. Ehara, K. Toyota, R. Fukuda, 
 J. Hasegawa, M. Ishida, T. Nakajima, Y. Honda, O. Kitao, H. Nakai, 
 T. Vreven, K. Throssell, J. A. Montgomery, Jr., J. E. Peralta, 
 F. Ogliaro, M. J. Bearpark, J. J. Heyd, E. N. Brothers, K. N. Kudin, 
 V. N. Staroverov, T. A. Keith, R. Kobayashi, J. Normand, 
 K. Raghavachari, A. P. Rendell, J. C. Burant, S. S. Iyengar, 
 J. Tomasi, M. Cossi, J. M. Millam, M. Klene, C. Adamo, R. Cammi, 
 J. W. Ochterski, R. L. Martin, K. Morokuma, O. Farkas, 
 J. B. Foresman, and D. J. Fox, Gaussian, Inc., Wallingford CT, 2019.
 
 ******************************************
 Gaussian 16:  ES64L-G16RevC.01  3-Jul-2019
                28-Oct-2020 
 ******************************************
 %chk=config_8_13.chk
 %mem=58GB
 %nprocshared=10
 Will use up to   10 processors via shared memory.
 ----------------------------------------------------------------------
 #p opt=addgic freq wb97xd/cc-pvdz nosymm int=ultrafine scrf=(solvent=C
 arbonTetraChloride)
 ----------------------------------------------------------------------
 1/18=20,19=15,26=6,38=1,145=903/1,3;
 2/9=110,12=2,15=1,17=6,18=5,40=1/2;
 3/5=16,11=2,25=1,30=1,70=2201,71=1,72=11,74=-58,75=-5/1,2,3;
 4//1;
 5/5=2,38=5,53=11/2;
 6/7=2,8=2,9=2,10=2,28=1/1;
 7/30=1/1,2,3,16;
 1/18=20,19=15,26=6,145=903/3(2);
 2/9=110,15=1/2;
 99//99;
 2/9=110,15=1/2;
 3/5=16,11=2,25=1,30=1,70=2205,71=1,72=11,74=-58,75=-5/1,2,3;
 4/5=5,16=3,69=1/1;
 5/5=2,38=5,53=11/2;
 7/30=1/1,2,3,16;
 1/18=20,19=15,26=6,145=903/3(-5);
 2/9=110,15=1/2;
 6/7=2,8=2,9=2,10=2,19=2,28=1/1;
 99/9=1/99;
 Leave Link    1 at Wed Oct 28 00:07:13 2020, MaxMem=  7784628224 cpu:               4.2 elap:               0.5
 (Enter /gpfs/loomis/apps/avx/software/Gaussian/16-C.01_AVX/g16/l101.exe)
 ------------------------------------------------
 NM 2D-scan of HBT TD-WB97XD pVDZ in CTC Relaxed.
 ------------------------------------------------
 Symbolic Z-matrix:
 Charge =  0 Multiplicity = 1
 C                     1.59114  -3.25469  -0.00002 
 C                     1.00317  -1.99107  -0.00002 
 C                     1.766    -0.78853  -0.00002 
 C                     3.16893  -0.89231  -0.00003 
 C                     3.75184  -2.15879  -0.00002 
 C                     2.98216  -3.33314  -0.00002 
 H                     0.97192  -4.15521  -0.00002 
 H                     3.78536   0.01002  -0.00003 
 H                     4.84168  -2.23621  -0.00002 
 H                     3.47246  -4.30873  -0.00001 
 N                     0.98496   0.34482  -0.00003 
 S                    -0.71184  -1.65238  -0.00002 
 C                    -1.3453    1.0551    0.00001 
 C                    -2.71034   0.7674    0.00001 
 C                    -0.88986   2.45865   0.00003 
 C                    -3.65306   1.81482   0.00003 
 H                    -3.05709  -0.26941   0. 
 C                    -1.88142   3.47985   0.00005 
 C                    -3.24342   3.15709   0.00004 
 H                    -4.71781   1.57042   0.00003 
 H                    -1.53546   4.51616   0.00007 
 H                    -3.99194   3.95155   0.00005 
 C                    -0.34481   0.05221  -0.00002 
 O                     0.36503   2.69547   0.00005 
 H                     1.01239   1.40608   0.00001 
 
 Initializing the GIC definitions file.
 Number of initial coordinates =   134
 Number of input entries/lines =    52
 Number of additional coordinates =     2
 Number of removed coordinates =     0
 Number of frozen coordinates =     2
 Number of final active and frozen coordinates =   136
 ITRead=  0  0  0  0  0  0  0  0  0  0  0  0  0  0  0  0  0  0  0  0
 ITRead=  0  0  0  0  0
 MicOpt= -1 -1 -1 -1 -1 -1 -1 -1 -1 -1 -1 -1 -1 -1 -1 -1 -1 -1 -1 -1
 MicOpt= -1 -1 -1 -1 -1
 NAtoms=     25 NQM=       25 NQMF=       0 NMMI=      0 NMMIF=      0
                NMic=       0 NMicF=      0.
                    Isotopes and Nuclear Properties:
 (Nuclear quadrupole moments (NQMom) in fm**2, nuclear magnetic moments (NMagM)
  in nuclear magnetons)

  Atom         1           2           3           4           5           6           7           8           9          10
 IAtWgt=          12          12          12          12          12          12           1           1           1           1
 AtmWgt=  12.0000000  12.0000000  12.0000000  12.0000000  12.0000000  12.0000000   1.0078250   1.0078250   1.0078250   1.0078250
 NucSpn=           0           0           0           0           0           0           1           1           1           1
 AtZEff=  -0.0000000  -0.0000000  -0.0000000  -0.0000000  -0.0000000  -0.0000000  -0.0000000  -0.0000000  -0.0000000  -0.0000000
 NQMom=    0.0000000   0.0000000   0.0000000   0.0000000   0.0000000   0.0000000   0.0000000   0.0000000   0.0000000   0.0000000
 NMagM=    0.0000000   0.0000000   0.0000000   0.0000000   0.0000000   0.0000000   2.7928460   2.7928460   2.7928460   2.7928460
 AtZNuc=   6.0000000   6.0000000   6.0000000   6.0000000   6.0000000   6.0000000   1.0000000   1.0000000   1.0000000   1.0000000

  Atom        11          12          13          14          15          16          17          18          19          20
 IAtWgt=          14          32          12          12          12          12           1          12          12           1
 AtmWgt=  14.0030740  31.9720718  12.0000000  12.0000000  12.0000000  12.0000000   1.0078250  12.0000000  12.0000000   1.0078250
 NucSpn=           2           0           0           0           0           0           1           0           0           1
 AtZEff=  -0.0000000  -0.0000000  -0.0000000  -0.0000000  -0.0000000  -0.0000000  -0.0000000  -0.0000000  -0.0000000  -0.0000000
 NQMom=    2.0440000   0.0000000   0.0000000   0.0000000   0.0000000   0.0000000   0.0000000   0.0000000   0.0000000   0.0000000
 NMagM=    0.4037610   0.0000000   0.0000000   0.0000000   0.0000000   0.0000000   2.7928460   0.0000000   0.0000000   2.7928460
 AtZNuc=   7.0000000  16.0000000   6.0000000   6.0000000   6.0000000   6.0000000   1.0000000   6.0000000   6.0000000   1.0000000

  Atom        21          22          23          24          25
 IAtWgt=           1           1          12          16           1
 AtmWgt=   1.0078250   1.0078250  12.0000000  15.9949146   1.0078250
 NucSpn=           1           1           0           0           1
 AtZEff=  -0.0000000  -0.0000000  -0.0000000  -0.0000000  -0.0000000
 NQMom=    0.0000000   0.0000000   0.0000000   0.0000000   0.0000000
 NMagM=    2.7928460   2.7928460   0.0000000   0.0000000   2.7928460
 AtZNuc=   1.0000000   1.0000000   6.0000000   8.0000000   1.0000000
 Leave Link  101 at Wed Oct 28 00:07:16 2020, MaxMem=  7784628224 cpu:              32.6 elap:               3.3
 (Enter /gpfs/loomis/apps/avx/software/Gaussian/16-C.01_AVX/g16/l103.exe)

 GradGradGradGradGradGradGradGradGradGradGradGradGradGradGradGradGradGrad
 Berny optimization.
 Initialization pass.
                           ----------------------------
                           !    Initial Parameters    !
                           ! (Angstroms and Degrees)  !
 --------------------------                            --------------------------
 ! Name  Definition              Value          Derivative Info.                !
 --------------------------------------------------------------------------------
 ! R1    R(1,2)                  1.3937         estimate D2E/DX2                !
 ! R2    R(1,6)                  1.3932         estimate D2E/DX2                !
 ! R3    R(1,7)                  1.0929         estimate D2E/DX2                !
 ! R4    R(2,3)                  1.4241         estimate D2E/DX2                !
 ! R5    R(2,12)                 1.7481         estimate D2E/DX2                !
 ! R6    R(3,4)                  1.4068         estimate D2E/DX2                !
 ! R7    R(3,11)                 1.3764         estimate D2E/DX2                !
 ! R8    R(4,5)                  1.3942         estimate D2E/DX2                !
 ! R9    R(4,8)                  1.0928         estimate D2E/DX2                !
 ! R10   R(5,6)                  1.4041         estimate D2E/DX2                !
 ! R11   R(5,9)                  1.0926         estimate D2E/DX2                !
 ! R12   R(6,10)                 1.0919         estimate D2E/DX2                !
 ! R13   R(11,23)                1.3616         estimate D2E/DX2                !
 ! R14   R(11,25)                1.0616         estimate D2E/DX2                !
 ! R15   R(12,23)                1.7437         estimate D2E/DX2                !
 ! R16   R(13,14)                1.395          estimate D2E/DX2                !
 ! R17   R(13,15)                1.4756         estimate D2E/DX2                !
 ! R18   R(13,23)                1.4166         estimate D2E/DX2                !
 ! R19   R(14,16)                1.4092         estimate D2E/DX2                !
 ! R20   R(14,17)                1.0933         estimate D2E/DX2                !
 ! R21   R(15,18)                1.4234         estimate D2E/DX2                !
 ! R22   R(15,24)                1.277          estimate D2E/DX2                !
 ! R23   R(16,19)                1.4034         estimate D2E/DX2                !
 ! R24   R(16,20)                1.0924         estimate D2E/DX2                !
 ! R25   R(18,19)                1.3997         estimate D2E/DX2                !
 ! R26   R(18,21)                1.0925         estimate D2E/DX2                !
 ! R27   R(19,22)                1.0915         estimate D2E/DX2                !
 ! A1    A(2,1,6)              118.181          estimate D2E/DX2                !
 ! A2    A(2,1,7)              120.5335         estimate D2E/DX2                !
 ! A3    A(6,1,7)              121.2854         estimate D2E/DX2                !
 ! A4    A(1,2,3)              122.6578         estimate D2E/DX2                !
 ! A5    A(1,2,12)             126.1242         estimate D2E/DX2                !
 ! A6    A(3,2,12)             111.218          estimate D2E/DX2                !
 ! A7    A(2,3,4)              118.1587         estimate D2E/DX2                !
 ! A8    A(2,3,11)             113.0384         estimate D2E/DX2                !
 ! A9    A(4,3,11)             128.8029         estimate D2E/DX2                !
 ! A10   A(3,4,5)              118.9454         estimate D2E/DX2                !
 ! A11   A(3,4,8)              120.1083         estimate D2E/DX2                !
 ! A12   A(5,4,8)              120.9463         estimate D2E/DX2                !
 ! A13   A(4,5,6)              122.0438         estimate D2E/DX2                !
 ! A14   A(4,5,9)              118.7784         estimate D2E/DX2                !
 ! A15   A(6,5,9)              119.1778         estimate D2E/DX2                !
 ! A16   A(1,6,5)              120.0133         estimate D2E/DX2                !
 ! A17   A(1,6,10)             119.9107         estimate D2E/DX2                !
 ! A18   A(5,6,10)             120.0759         estimate D2E/DX2                !
 ! A19   A(3,11,23)            112.1622         estimate D2E/DX2                !
 ! A20   A(3,11,25)            143.947          estimate D2E/DX2                !
 ! A21   A(23,11,25)           103.8908         estimate D2E/DX2                !
 ! A22   A(2,12,23)             89.0196         estimate D2E/DX2                !
 ! A23   A(14,13,15)           119.8795         estimate D2E/DX2                !
 ! A24   A(14,13,23)           123.03           estimate D2E/DX2                !
 ! A25   A(15,13,23)           117.0905         estimate D2E/DX2                !
 ! A26   A(13,14,16)           120.0869         estimate D2E/DX2                !
 ! A27   A(13,14,17)           120.3931         estimate D2E/DX2                !
 ! A28   A(16,14,17)           119.52           estimate D2E/DX2                !
 ! A29   A(13,15,18)           117.8657         estimate D2E/DX2                !
 ! A30   A(13,15,24)           118.6652         estimate D2E/DX2                !
 ! A31   A(18,15,24)           123.4691         estimate D2E/DX2                !
 ! A32   A(14,16,19)           121.0404         estimate D2E/DX2                !
 ! A33   A(14,16,20)           119.0606         estimate D2E/DX2                !
 ! A34   A(19,16,20)           119.899          estimate D2E/DX2                !
 ! A35   A(15,18,19)           120.8245         estimate D2E/DX2                !
 ! A36   A(15,18,21)           117.3824         estimate D2E/DX2                !
 ! A37   A(19,18,21)           121.7931         estimate D2E/DX2                !
 ! A38   A(16,19,18)           120.303          estimate D2E/DX2                !
 ! A39   A(16,19,22)           119.7343         estimate D2E/DX2                !
 ! A40   A(18,19,22)           119.9627         estimate D2E/DX2                !
 ! A41   A(11,23,12)           114.5618         estimate D2E/DX2                !
 ! A42   A(11,23,13)           122.5213         estimate D2E/DX2                !
 ! A43   A(12,23,13)           122.9169         estimate D2E/DX2                !
 ! D1    D(6,1,2,3)              0.0            estimate D2E/DX2                !
 ! D2    D(6,1,2,12)          -180.0            estimate D2E/DX2                !
 ! D3    D(7,1,2,3)            179.9999         estimate D2E/DX2                !
 ! D4    D(7,1,2,12)            -0.0001         estimate D2E/DX2                !
 ! D5    D(2,1,6,5)             -0.0001         estimate D2E/DX2                !
 ! D6    D(2,1,6,10)           179.9999         estimate D2E/DX2                !
 ! D7    D(7,1,6,5)            180.0            estimate D2E/DX2                !
 ! D8    D(7,1,6,10)             0.0            estimate D2E/DX2                !
 ! D9    D(1,2,3,4)              0.0002         estimate D2E/DX2                !
 ! D10   D(1,2,3,11)          -180.0            estimate D2E/DX2                !
 ! D11   D(12,2,3,4)          -179.9999         estimate D2E/DX2                !
 ! D12   D(12,2,3,11)            0.0            estimate D2E/DX2                !
 ! D13   D(1,2,12,23)          179.9997         estimate D2E/DX2                !
 ! D14   D(3,2,12,23)           -0.0002         estimate D2E/DX2                !
 ! D15   D(2,3,4,5)             -0.0002         estimate D2E/DX2                !
 ! D16   D(2,3,4,8)            179.9999         estimate D2E/DX2                !
 ! D17   D(11,3,4,5)           180.0            estimate D2E/DX2                !
 ! D18   D(11,3,4,8)             0.0            estimate D2E/DX2                !
 ! D19   D(2,3,11,23)            0.0003         estimate D2E/DX2                !
 ! D20   D(2,3,11,25)          179.9964         estimate D2E/DX2                !
 ! D21   D(4,3,11,23)         -179.9998         estimate D2E/DX2                !
 ! D22   D(4,3,11,25)           -0.0037         estimate D2E/DX2                !
 ! D23   D(3,4,5,6)              0.0            estimate D2E/DX2                !
 ! D24   D(3,4,5,9)           -179.9999         estimate D2E/DX2                !
 ! D25   D(8,4,5,6)            180.0            estimate D2E/DX2                !
 ! D26   D(8,4,5,9)              0.0            estimate D2E/DX2                !
 ! D27   D(4,5,6,1)              0.0001         estimate D2E/DX2                !
 ! D28   D(4,5,6,10)          -179.9999         estimate D2E/DX2                !
 ! D29   D(9,5,6,1)           -179.9999         estimate D2E/DX2                !
 ! D30   D(9,5,6,10)             0.0            estimate D2E/DX2                !
 ! D31   D(3,11,23,12)          -0.0005         estimate D2E/DX2                !
 ! D32   D(3,11,23,13)         179.9986         estimate D2E/DX2                !
 ! D33   D(25,11,23,12)       -179.9982         estimate D2E/DX2                !
 ! D34   D(25,11,23,13)          0.001          estimate D2E/DX2                !
 ! D35   D(2,12,23,11)           0.0004         estimate D2E/DX2                !
 ! D36   D(2,12,23,13)        -179.9987         estimate D2E/DX2                !
 ! D37   D(15,13,14,16)          0.0007         estimate D2E/DX2                !
 ! D38   D(15,13,14,17)       -179.9996         estimate D2E/DX2                !
 ! D39   D(23,13,14,16)       -179.9994         estimate D2E/DX2                !
 ! D40   D(23,13,14,17)          0.0003         estimate D2E/DX2                !
 ! D41   D(14,13,15,18)         -0.0009         estimate D2E/DX2                !
 ! D42   D(14,13,15,24)        179.9989         estimate D2E/DX2                !
 ! D43   D(23,13,15,18)        179.9992         estimate D2E/DX2                !
 ! D44   D(23,13,15,24)         -0.001          estimate D2E/DX2                !
 ! D45   D(14,13,23,11)        179.9999         estimate D2E/DX2                !
 ! D46   D(14,13,23,12)         -0.001          estimate D2E/DX2                !
 ! D47   D(15,13,23,11)         -0.0002         estimate D2E/DX2                !
 ! D48   D(15,13,23,12)        179.9989         estimate D2E/DX2                !
 ! D49   D(13,14,16,19)         -0.0002         estimate D2E/DX2                !
 ! D50   D(13,14,16,20)        179.9998         estimate D2E/DX2                !
 ! D51   D(17,14,16,19)       -179.9999         estimate D2E/DX2                !
 ! D52   D(17,14,16,20)          0.0001         estimate D2E/DX2                !
 ! D53   D(13,15,18,19)          0.0005         estimate D2E/DX2                !
 ! D54   D(13,15,18,21)        180.0            estimate D2E/DX2                !
 ! D55   D(24,15,18,19)       -179.9993         estimate D2E/DX2                !
 ! D56   D(24,15,18,21)          0.0002         estimate D2E/DX2                !
 ! D57   D(14,16,19,18)         -0.0003         estimate D2E/DX2                !
 ! D58   D(14,16,19,22)        179.9999         estimate D2E/DX2                !
 ! D59   D(20,16,19,18)        179.9998         estimate D2E/DX2                !
 ! D60   D(20,16,19,22)         -0.0001         estimate D2E/DX2                !
 ! D61   D(15,18,19,16)          0.0001         estimate D2E/DX2                !
 ! D62   D(15,18,19,22)        179.9999         estimate D2E/DX2                !
 ! D63   D(21,18,19,16)       -179.9994         estimate D2E/DX2                !
 ! D64   D(21,18,19,22)          0.0004         estimate D2E/DX2                !
 ! Qtot  GIC-1                  20.0            Frozen                          !
 ! Ptot  GIC-2                 100.0            Frozen                          !
 --------------------------------------------------------------------------------
 NOTE: GIC-type coordinates are in arbitrary units.
 Trust Radius=3.00D-01 FncErr=5.00D-06 GrdErr=5.00D-06 EigMax=2.50D+02 EigMin=1.00D-04
 Number of steps in this run=    146 maximum allowed number of steps=    150.
 GradGradGradGradGradGradGradGradGradGradGradGradGradGradGradGradGradGrad

 Leave Link  103 at Wed Oct 28 00:07:16 2020, MaxMem=  7784628224 cpu:               0.3 elap:               0.0
 (Enter /gpfs/loomis/apps/avx/software/Gaussian/16-C.01_AVX/g16/l202.exe)
                          Input orientation:                          
 ---------------------------------------------------------------------
 Center     Atomic      Atomic             Coordinates (Angstroms)
 Number     Number       Type             X           Y           Z
 ---------------------------------------------------------------------
      1          6           0        1.591144   -3.254688   -0.000019
      2          6           0        1.003169   -1.991065   -0.000022
      3          6           0        1.766002   -0.788533   -0.000025
      4          6           0        3.168932   -0.892310   -0.000027
      5          6           0        3.751843   -2.158787   -0.000023
      6          6           0        2.982155   -3.333141   -0.000018
      7          1           0        0.971922   -4.155208   -0.000016
      8          1           0        3.785356    0.010019   -0.000031
      9          1           0        4.841681   -2.236211   -0.000024
     10          1           0        3.472458   -4.308732   -0.000015
     11          7           0        0.984957    0.344824   -0.000027
     12         16           0       -0.711844   -1.652379   -0.000024
     13          6           0       -1.345301    1.055096    0.000009
     14          6           0       -2.710343    0.767400    0.000015
     15          6           0       -0.889855    2.458647    0.000035
     16          6           0       -3.653061    1.814821    0.000030
     17          1           0       -3.057085   -0.269407    0.000003
     18          6           0       -1.881421    3.479854    0.000046
     19          6           0       -3.243425    3.157093    0.000043
     20          1           0       -4.717807    1.570418    0.000031
     21          1           0       -1.535455    4.516156    0.000065
     22          1           0       -3.991939    3.951550    0.000053
     23          6           0       -0.344807    0.052208   -0.000020
     24          8           0        0.365034    2.695469    0.000050
     25          1           0        1.012388    1.406083    0.000010
 ---------------------------------------------------------------------
                    Distance matrix (angstroms):
                    1          2          3          4          5
     1  C    0.000000
     2  C    1.393721   0.000000
     3  C    2.472346   1.424077   0.000000
     4  C    2.840818   2.428537   1.406763   0.000000
     5  C    2.422730   2.753786   2.412708   1.394184   0.000000
     6  C    1.393222   2.391141   2.820294   2.447967   1.404111
     7  H    1.092874   2.164369   3.459055   3.933619   3.422523
     8  H    3.933558   3.427083   2.171515   1.092783   2.169064
     9  H    3.406359   3.846332   3.399349   2.145731   1.092585
    10  H    2.156467   3.386586   3.912006   3.429879   2.168022
    11  N    3.650198   2.335960   1.376419   2.510029   3.731451
    12  S    2.805557   1.748136   2.624109   3.954507   4.492321
    13  C    5.215070   3.846351   3.616514   4.916369   6.025772
    14  C    5.888971   4.625938   4.739050   6.109051   7.093830
    15  C    6.228768   4.835647   4.194968   5.263332   6.547218
    16  C    7.293943   6.013755   6.011962   7.339492   8.403699
    17  H    5.524304   4.410190   4.850944   6.257100   7.066206
    18  C    7.577122   6.184806   5.614519   6.679961   7.970442
    19  C    8.030193   6.673612   6.376701   7.583929   8.785918
    20  H    7.942576   6.738971   6.899596   8.262304   9.254293
    21  H    8.376255   6.984879   6.248147   7.168177   8.515303
    22  H    9.115958   7.763104   7.458034   8.645290   9.864197
    23  C    3.831901   2.447857   2.272082   3.638471   4.655216
    24  O    6.075173   4.729780   3.755128   4.553460   5.918976
    25  H    4.696567   3.397161   2.320404   3.151712   4.495877
                    6          7          8          9         10
     6  C    0.000000
     7  H    2.171827   0.000000
     8  H    3.438291   5.026383   0.000000
     9  H    2.158956   4.319443   2.482211   0.000000
    10  H    1.091868   2.505244   4.330071   2.483972   0.000000
    11  N    4.185239   4.500051   2.820342   4.640696   5.276670
    12  S    4.058397   3.016491   4.794619   5.584129   4.956268
    13  C    6.163076   5.702350   5.236013   7.007956   7.209817
    14  C    7.015623   6.147450   6.539705   8.127407   7.999634
    15  C    6.966870   6.870902   5.277630   7.408927   8.051534
    16  C    8.398071   7.551934   7.654238   9.411243   9.395260
    17  H    6.771919   5.597530   6.848145   8.139953   7.677961
    18  C    8.370859   8.150813   6.644706   8.824596   9.451248
    19  C    8.993386   8.440314   7.701158   9.718882  10.041993
    20  H    9.128763   8.071915   8.645150  10.289521  10.081907
    21  H    9.056504   9.026599   6.972539   9.287752  10.146814
    22  H   10.084875   9.505758   8.719059  10.785232  11.133260
    23  C    4.746500   4.408642   4.130378   5.668908   5.795628
    24  O    6.572174   6.877507   4.348592   6.660469   7.662566
    25  H    5.132273   5.561438   3.104569   5.284864   6.221821
                   11         12         13         14         15
    11  N    0.000000
    12  S    2.620678   0.000000
    13  C    2.436101   2.780592   0.000000
    14  C    3.719384   3.138364   1.395031   0.000000
    15  C    2.825450   4.114878   1.475596   2.484853   0.000000
    16  C    4.865399   4.546673   2.429596   1.409187   2.837220
    17  H    4.088446   2.722640   2.164375   1.093251   3.484131
    18  C    4.247886   5.263814   2.483320   2.836287   1.423400
    19  C    5.078196   5.435065   2.832184   2.448430   2.455018
    20  H    5.832975   5.141416   3.411650   2.162117   3.929652
    21  H    4.873653   6.223276   3.466279   3.928554   2.156419
    22  H    6.146378   6.493308   3.923536   3.432390   3.442627
    23  C    1.361578   1.743655   1.416607   2.471288   2.467393
    24  O    2.431016   4.479225   2.369824   3.629793   1.277040
    25  H    1.061614   3.511006   2.383671   3.777121   2.174033
                   16         17         18         19         20
    16  C    0.000000
    17  H    2.167762   0.000000
    18  C    2.431265   3.929269   0.000000
    19  C    1.403388   3.431564   1.399725   0.000000
    20  H    1.092436   2.478498   3.419215   2.165950   0.000000
    21  H    3.432414   5.021650   1.092526   2.182707   4.336442
    22  H    2.163435   4.323243   2.162587   1.091529   2.489312
    23  C    3.748513   2.731280   3.756320   4.247623   4.629049
    24  O    4.113469   4.527846   2.379457   3.637866   5.205863
    25  H    4.683319   4.400895   3.560148   4.601954   5.732551
                   21         22         23         24         25
    21  H    0.000000
    22  H    2.520534   0.000000
    23  C    4.620008   5.339142   0.000000
    24  O    2.631873   4.534418   2.736915   0.000000
    25  H    4.020455   5.614507   1.917017   1.442770   0.000000
 Symmetry turned off by external request.
 Stoichiometry    C13H9NOS
 Framework group  C1[X(C13H9NOS)]
 Deg. of freedom    69
 Full point group                 C1      NOp   1
 Rotational constants (GHZ):           1.4033885           0.2862492           0.2377544
 Leave Link  202 at Wed Oct 28 00:07:16 2020, MaxMem=  7784628224 cpu:               0.2 elap:               0.0
 (Enter /gpfs/loomis/apps/avx/software/Gaussian/16-C.01_AVX/g16/l301.exe)
 Standard basis: CC-pVDZ (5D, 7F)
 Ernie: Thresh=  0.10000D-02 Tol=  0.10000D-05 Strict=F.
 Ernie:  40 primitive shells out of 425 were deleted.
   273 basis functions,   629 primitive gaussians,   289 cartesian basis functions
    59 alpha electrons       59 beta electrons
       nuclear repulsion energy      1100.7599016432 Hartrees.
 IExCor= 4639 DFT=T Ex+Corr=wB97XD ExCW=0 ScaHFX=  1.000000
 ScaDFX=  1.000000  1.000000  1.000000  1.000000 ScalE2=  1.000000  1.000000
 IRadAn=      5 IRanWt=     -1 IRanGd=            0 ICorTp=0 IEmpDi=121
 HFx  wShort=  0.000000 wLong=  0.200000 cFull=  0.222036 cShort=  0.000000 cLong=  0.777964
 DFx  wShort=  0.000000 wLong=  0.200000 cFull=  0.000000 cShort=  0.000000 cLong=  1.000000
 NAtoms=   25 NActive=   25 NUniq=   25 SFac= 1.00D+00 NAtFMM=   60 NAOKFM=F Big=F
 Integral buffers will be    131072 words long.
 Raffenetti 2 integral format.
 Two-electron integral symmetry is turned off.
 R6Disp:  Grimme-D2 Dispersion energy=       -0.0139209635 Hartrees.
 Nuclear repulsion after empirical dispersion term =     1100.7459806798 Hartrees.
 ------------------------------------------------------------------------------
 Polarizable Continuum Model (PCM)
 =================================
 Model                : PCM.
 Atomic radii         : UFF (Universal Force Field).
 Polarization charges : Total charges.
 Charge compensation  : None.
 Solution method      : On-the-fly selection.
 Cavity type          : Scaled VdW (van der Waals Surface) (Alpha=1.100).
 Cavity algorithm     : GePol (No added spheres)
                        Default sphere list used, NSphG=   25.
                        Lebedev-Laikov grids with approx.  5.0 points / Ang**2.
                        Smoothing algorithm: York/Karplus (Gamma=1.0000).
                        Polarization charges: spherical gaussians, with
                                              point-specific exponents (IZeta= 3).
                        Self-potential: point-specific (ISelfS= 7).
                        Self-field    : sphere-specific E.n sum rule (ISelfD= 2).
 1st derivatives      : Analytical E(r).r(x)/FMM algorithm (CHGder, D1EAlg=3).
                        Cavity 1st derivative terms included.
 Solvent              : CarbonTetraChloride, Eps=   2.228000 Eps(inf)=   2.131892
 ------------------------------------------------------------------------------
 GePol: Number of generator spheres                  =      25
 GePol: Total number of spheres                      =      25
 GePol: Number of exposed spheres                    =      25 (100.00%)
 GePol: Number of points                             =    2198
 GePol: Average weight of points                     =       0.12
 GePol: Minimum weight of points                     =   0.61D-10
 GePol: Maximum weight of points                     =    0.20577
 GePol: Number of points with low weight             =     158
 GePol: Fraction of low-weight points (<1% of avg)   =       7.19%
 GePol: Cavity surface area                          =    271.351 Ang**2
 GePol: Cavity volume                                =    291.493 Ang**3
 Leave Link  301 at Wed Oct 28 00:07:17 2020, MaxMem=  7784628224 cpu:               1.0 elap:               0.1
 (Enter /gpfs/loomis/apps/avx/software/Gaussian/16-C.01_AVX/g16/l302.exe)
 NPDir=0 NMtPBC=     1 NCelOv=     1 NCel=       1 NClECP=     1 NCelD=      1
         NCelK=      1 NCelE2=     1 NClLst=     1 CellRange=     0.0.
 One-electron integrals computed using PRISM.
 NBasis=   273 RedAO= T EigKep=  3.11D-04  NBF=   273
 NBsUse=   273 1.00D-06 EigRej= -1.00D+00 NBFU=   273
 Precomputing XC quadrature grid using
 IXCGrd= 4 IRadAn=           5 IRanWt=          -1 IRanGd=           0 AccXCQ= 0.00D+00.
 Generated NRdTot=       0 NPtTot=           0 NUsed=           0 NTot=          32
 NSgBfM=   288   288   288   288   288 MxSgAt=    25 MxSgA2=    25.
 Leave Link  302 at Wed Oct 28 00:07:17 2020, MaxMem=  7784628224 cpu:               2.6 elap:               0.3
 (Enter /gpfs/loomis/apps/avx/software/Gaussian/16-C.01_AVX/g16/l303.exe)
 DipDrv:  MaxL=1.
 Leave Link  303 at Wed Oct 28 00:07:17 2020, MaxMem=  7784628224 cpu:               0.6 elap:               0.1
 (Enter /gpfs/loomis/apps/avx/software/Gaussian/16-C.01_AVX/g16/l401.exe)
 ExpMin= 1.22D-01 ExpMax= 1.11D+05 ExpMxC= 1.07D+03 IAcc=3 IRadAn=         5 AccDes= 0.00D+00
 Harris functional with IExCor= 4639 and IRadAn=       5 diagonalized for initial guess.
 HarFok:  IExCor= 4639 AccDes= 0.00D+00 IRadAn=         5 IDoV= 1 UseB2=F ITyADJ=14
 ICtDFT=  3500011 ScaDFX=  1.000000  1.000000  1.000000  1.000000
 FoFCou: FMM=F IPFlag=           0 FMFlag=      100000 FMFlg1=           0
         NFxFlg=           0 DoJE=T BraDBF=F KetDBF=T FulRan=T
         wScrn=  0.000000 ICntrl=       500 IOpCl=  0 I1Cent=   200000004 NGrid=           0
         NMat0=    1 NMatS0=      1 NMatT0=    0 NMatD0=    1 NMtDS0=    0 NMtDT0=    0
 Symmetry not used in FoFCou.
 Harris En= -994.453629883579    
 JPrj=0 DoOrth=F DoCkMO=F.
 Leave Link  401 at Wed Oct 28 00:07:18 2020, MaxMem=  7784628224 cpu:              14.1 elap:               1.4
 (Enter /gpfs/loomis/apps/avx/software/Gaussian/16-C.01_AVX/g16/l502.exe)
 Two-electron integral symmetry not used.
 Closed shell SCF:
 Using DIIS extrapolation, IDIIS=  1040.
 NGot=  7784628224 LenX=  7784455381 LenY=  7784371419
 Requested convergence on RMS density matrix=1.00D-08 within 128 cycles.
 Requested convergence on MAX density matrix=1.00D-06.
 Requested convergence on             energy=1.00D-06.
 No special actions if energy rises.
 Fock matrices will be formed incrementally for  20 cycles.

 Cycle   1  Pass 1  IDiag  1:
 FoFJK:  IHMeth= 1 ICntrl=       0 DoSepK=T KAlg= 0 I1Cent=           0 FoldK=F
 IRaf=         1 NMat=       1 IRICut=       1 DoRegI=T DoRafI=F ISym2E= 0 IDoP0=0 IntGTp=1.
 FoFCou: FMM=F IPFlag=           0 FMFlag=      100000 FMFlg1=           0
         NFxFlg=           0 DoJE=T BraDBF=F KetDBF=F FulRan=T
         wScrn=  0.000000 ICntrl=       500 IOpCl=  0 I1Cent=           0 NGrid=           0
         NMat0=    1 NMatS0=      1 NMatT0=    0 NMatD0=    1 NMtDS0=    0 NMtDT0=    0
 Symmetry not used in FoFCou.
 Inv3:  Mode=1 IEnd=    14493612.
 Iteration    1 A*A^-1 deviation from unit magnitude is 5.66D-15 for   2183.
 Iteration    1 A*A^-1 deviation from orthogonality  is 1.35D-15 for   1274   1114.
 Iteration    1 A^-1*A deviation from unit magnitude is 5.33D-15 for   2183.
 Iteration    1 A^-1*A deviation from orthogonality  is 1.57D-15 for   1847    381.
 E= -1028.56037186500    
 DIIS: error= 3.99D-02 at cycle   1 NSaved=   1.
 NSaved= 1 IEnMin= 1 EnMin= -1028.56037186500     IErMin= 1 ErrMin= 3.99D-02
 ErrMax= 3.99D-02  0.00D+00 EMaxC= 1.00D-01 BMatC= 3.95D-01 BMatP= 3.95D-01
 IDIUse=3 WtCom= 6.01D-01 WtEn= 3.99D-01
 Coeff-Com:  0.100D+01
 Coeff-En:   0.100D+01
 Coeff:      0.100D+01
 Gap=     0.324 Goal=   None    Shift=    0.000
 GapD=    0.324 DampG=1.000 DampE=0.500 DampFc=0.5000 IDamp=-1.
 Damping current iteration by 5.00D-01
 RMSDP=3.58D-03 MaxDP=2.32D-01              OVMax= 1.82D-01

 Cycle   2  Pass 1  IDiag  1:
 RMSU=  1.79D-03    CP:  9.94D-01
 E= -1028.67992669128     Delta-E=       -0.119554826281 Rises=F Damp=T
 DIIS: error= 1.21D-02 at cycle   2 NSaved=   2.
 NSaved= 2 IEnMin= 2 EnMin= -1028.67992669128     IErMin= 2 ErrMin= 1.21D-02
 ErrMax= 1.21D-02  0.00D+00 EMaxC= 1.00D-01 BMatC= 5.86D-02 BMatP= 3.95D-01
 IDIUse=3 WtCom= 8.79D-01 WtEn= 1.21D-01
 Coeff-Com: -0.278D+00 0.128D+01
 Coeff-En:   0.000D+00 0.100D+01
 Coeff:     -0.244D+00 0.124D+01
 Gap=     0.291 Goal=   None    Shift=    0.000
 RMSDP=1.16D-03 MaxDP=2.56D-02 DE=-1.20D-01 OVMax= 1.28D-01

 Cycle   3  Pass 1  IDiag  1:
 RMSU=  1.12D-03    CP:  9.93D-01  1.17D+00
 E= -1028.78723721449     Delta-E=       -0.107310523212 Rises=F Damp=F
 DIIS: error= 7.53D-03 at cycle   3 NSaved=   3.
 NSaved= 3 IEnMin= 3 EnMin= -1028.78723721449     IErMin= 3 ErrMin= 7.53D-03
 ErrMax= 7.53D-03  0.00D+00 EMaxC= 1.00D-01 BMatC= 1.59D-02 BMatP= 5.86D-02
 IDIUse=3 WtCom= 9.25D-01 WtEn= 7.53D-02
 Coeff-Com: -0.204D+00 0.501D+00 0.704D+00
 Coeff-En:   0.000D+00 0.000D+00 0.100D+01
 Coeff:     -0.189D+00 0.463D+00 0.726D+00
 Gap=     0.246 Goal=   None    Shift=    0.000
 RMSDP=5.65D-04 MaxDP=2.33D-02 DE=-1.07D-01 OVMax= 4.17D-02

 Cycle   4  Pass 1  IDiag  1:
 RMSU=  4.48D-04    CP:  9.90D-01  1.33D+00  8.25D-01
 E= -1028.80221011584     Delta-E=       -0.014972901346 Rises=F Damp=F
 DIIS: error= 2.23D-03 at cycle   4 NSaved=   4.
 NSaved= 4 IEnMin= 4 EnMin= -1028.80221011584     IErMin= 4 ErrMin= 2.23D-03
 ErrMax= 2.23D-03  0.00D+00 EMaxC= 1.00D-01 BMatC= 2.09D-03 BMatP= 1.59D-02
 IDIUse=3 WtCom= 9.78D-01 WtEn= 2.23D-02
 Coeff-Com: -0.711D-01 0.141D+00 0.349D+00 0.581D+00
 Coeff-En:   0.000D+00 0.000D+00 0.000D+00 0.100D+01
 Coeff:     -0.695D-01 0.138D+00 0.341D+00 0.591D+00
 Gap=     0.246 Goal=   None    Shift=    0.000
 RMSDP=1.82D-04 MaxDP=1.05D-02 DE=-1.50D-02 OVMax= 1.34D-02

 Cycle   5  Pass 1  IDiag  1:
 RMSU=  1.10D-04    CP:  9.90D-01  1.34D+00  9.05D-01  7.47D-01
 E= -1028.80442633216     Delta-E=       -0.002216216322 Rises=F Damp=F
 DIIS: error= 4.74D-04 at cycle   5 NSaved=   5.
 NSaved= 5 IEnMin= 5 EnMin= -1028.80442633216     IErMin= 5 ErrMin= 4.74D-04
 ErrMax= 4.74D-04  0.00D+00 EMaxC= 1.00D-01 BMatC= 5.73D-05 BMatP= 2.09D-03
 IDIUse=3 WtCom= 9.95D-01 WtEn= 4.74D-03
 Coeff-Com: -0.136D-02-0.358D-02 0.328D-01 0.155D+00 0.817D+00
 Coeff-En:   0.000D+00 0.000D+00 0.000D+00 0.000D+00 0.100D+01
 Coeff:     -0.135D-02-0.356D-02 0.327D-01 0.154D+00 0.818D+00
 Gap=     0.246 Goal=   None    Shift=    0.000
 RMSDP=5.50D-05 MaxDP=1.80D-03 DE=-2.22D-03 OVMax= 5.35D-03

 Cycle   6  Pass 1  IDiag  1:
 RMSU=  3.51D-05    CP:  9.90D-01  1.34D+00  9.21D-01  8.28D-01  1.10D+00
 E= -1028.80455307950     Delta-E=       -0.000126747341 Rises=F Damp=F
 DIIS: error= 2.42D-04 at cycle   6 NSaved=   6.
 NSaved= 6 IEnMin= 6 EnMin= -1028.80455307950     IErMin= 6 ErrMin= 2.42D-04
 ErrMax= 2.42D-04  0.00D+00 EMaxC= 1.00D-01 BMatC= 1.07D-05 BMatP= 5.73D-05
 IDIUse=3 WtCom= 9.98D-01 WtEn= 2.42D-03
 Coeff-Com:  0.158D-01-0.325D-01-0.621D-01-0.712D-01 0.215D+00 0.935D+00
 Coeff-En:   0.000D+00 0.000D+00 0.000D+00 0.000D+00 0.000D+00 0.100D+01
 Coeff:      0.157D-01-0.324D-01-0.619D-01-0.710D-01 0.214D+00 0.935D+00
 Gap=     0.247 Goal=   None    Shift=    0.000
 RMSDP=3.42D-05 MaxDP=1.63D-03 DE=-1.27D-04 OVMax= 4.19D-03

 Cycle   7  Pass 1  IDiag  1:
 RMSU=  1.66D-05    CP:  9.90D-01  1.35D+00  9.32D-01  8.60D-01  1.28D+00
                    CP:  1.33D+00
 E= -1028.80458733967     Delta-E=       -0.000034260167 Rises=F Damp=F
 DIIS: error= 1.19D-04 at cycle   7 NSaved=   7.
 NSaved= 7 IEnMin= 7 EnMin= -1028.80458733967     IErMin= 7 ErrMin= 1.19D-04
 ErrMax= 1.19D-04  0.00D+00 EMaxC= 1.00D-01 BMatC= 2.20D-06 BMatP= 1.07D-05
 IDIUse=3 WtCom= 9.99D-01 WtEn= 1.19D-03
 Coeff-Com:  0.637D-02-0.121D-01-0.274D-01-0.478D-01-0.176D-01 0.381D+00
 Coeff-Com:  0.717D+00
 Coeff-En:   0.000D+00 0.000D+00 0.000D+00 0.000D+00 0.000D+00 0.000D+00
 Coeff-En:   0.100D+01
 Coeff:      0.636D-02-0.121D-01-0.274D-01-0.477D-01-0.176D-01 0.381D+00
 Coeff:      0.718D+00
 Gap=     0.247 Goal=   None    Shift=    0.000
 RMSDP=1.17D-05 MaxDP=4.96D-04 DE=-3.43D-05 OVMax= 1.42D-03

 Cycle   8  Pass 1  IDiag  1:
 RMSU=  7.04D-06    CP:  9.90D-01  1.34D+00  9.34D-01  8.65D-01  1.32D+00
                    CP:  1.53D+00  1.18D+00
 E= -1028.80459291407     Delta-E=       -0.000005574399 Rises=F Damp=F
 DIIS: error= 5.84D-05 at cycle   8 NSaved=   8.
 NSaved= 8 IEnMin= 8 EnMin= -1028.80459291407     IErMin= 8 ErrMin= 5.84D-05
 ErrMax= 5.84D-05  0.00D+00 EMaxC= 1.00D-01 BMatC= 3.47D-07 BMatP= 2.20D-06
 IDIUse=1 WtCom= 1.00D+00 WtEn= 0.00D+00
 Coeff-Com: -0.167D-02 0.359D-02 0.703D-02 0.401D-02-0.428D-01-0.111D+00
 Coeff-Com:  0.180D+00 0.961D+00
 Coeff:     -0.167D-02 0.359D-02 0.703D-02 0.401D-02-0.428D-01-0.111D+00
 Coeff:      0.180D+00 0.961D+00
 Gap=     0.247 Goal=   None    Shift=    0.000
 RMSDP=7.24D-06 MaxDP=1.95D-04 DE=-5.57D-06 OVMax= 1.21D-03

 Cycle   9  Pass 1  IDiag  1:
 RMSU=  2.79D-06    CP:  9.90D-01  1.35D+00  9.34D-01  8.65D-01  1.33D+00
                    CP:  1.65D+00  1.45D+00  1.26D+00
 E= -1028.80459447725     Delta-E=       -0.000001563184 Rises=F Damp=F
 DIIS: error= 1.95D-05 at cycle   9 NSaved=   9.
 NSaved= 9 IEnMin= 9 EnMin= -1028.80459447725     IErMin= 9 ErrMin= 1.95D-05
 ErrMax= 1.95D-05  0.00D+00 EMaxC= 1.00D-01 BMatC= 5.86D-08 BMatP= 3.47D-07
 IDIUse=1 WtCom= 1.00D+00 WtEn= 0.00D+00
 Coeff-Com: -0.108D-02 0.210D-02 0.505D-02 0.703D-02-0.649D-02-0.804D-01
 Coeff-Com: -0.758D-01 0.209D+00 0.941D+00
 Coeff:     -0.108D-02 0.210D-02 0.505D-02 0.703D-02-0.649D-02-0.804D-01
 Coeff:     -0.758D-01 0.209D+00 0.941D+00
 Gap=     0.247 Goal=   None    Shift=    0.000
 RMSDP=3.51D-06 MaxDP=9.01D-05 DE=-1.56D-06 OVMax= 5.90D-04

 Cycle  10  Pass 1  IDiag  1:
 RMSU=  1.24D-06    CP:  9.90D-01  1.35D+00  9.34D-01  8.65D-01  1.34D+00
                    CP:  1.69D+00  1.56D+00  1.50D+00  1.37D+00
 E= -1028.80459479715     Delta-E=       -0.000000319895 Rises=F Damp=F
 DIIS: error= 9.53D-06 at cycle  10 NSaved=  10.
 NSaved=10 IEnMin=10 EnMin= -1028.80459479715     IErMin=10 ErrMin= 9.53D-06
 ErrMax= 9.53D-06  0.00D+00 EMaxC= 1.00D-01 BMatC= 1.63D-08 BMatP= 5.86D-08
 IDIUse=1 WtCom= 1.00D+00 WtEn= 0.00D+00
 Coeff-Com:  0.788D-04-0.225D-03 0.481D-04 0.126D-02 0.749D-02-0.300D-02
 Coeff-Com: -0.690D-01-0.136D+00 0.346D+00 0.854D+00
 Coeff:      0.788D-04-0.225D-03 0.481D-04 0.126D-02 0.749D-02-0.300D-02
 Coeff:     -0.690D-01-0.136D+00 0.346D+00 0.854D+00
 Gap=     0.247 Goal=   None    Shift=    0.000
 RMSDP=1.66D-06 MaxDP=4.19D-05 DE=-3.20D-07 OVMax= 2.90D-04

 Cycle  11  Pass 1  IDiag  1:
 RMSU=  5.34D-07    CP:  9.90D-01  1.35D+00  9.34D-01  8.66D-01  1.34D+00
                    CP:  1.71D+00  1.61D+00  1.60D+00  1.70D+00  1.20D+00
 E= -1028.80459486519     Delta-E=       -0.000000068046 Rises=F Damp=F
 DIIS: error= 3.40D-06 at cycle  11 NSaved=  11.
 NSaved=11 IEnMin=11 EnMin= -1028.80459486519     IErMin=11 ErrMin= 3.40D-06
 ErrMax= 3.40D-06  0.00D+00 EMaxC= 1.00D-01 BMatC= 2.27D-09 BMatP= 1.63D-08
 IDIUse=1 WtCom= 1.00D+00 WtEn= 0.00D+00
 Coeff-Com:  0.282D-03-0.573D-03-0.108D-02-0.124D-02 0.424D-02 0.160D-01
 Coeff-Com: -0.611D-02-0.773D-01-0.737D-01 0.208D+00 0.932D+00
 Coeff:      0.282D-03-0.573D-03-0.108D-02-0.124D-02 0.424D-02 0.160D-01
 Coeff:     -0.611D-02-0.773D-01-0.737D-01 0.208D+00 0.932D+00
 Gap=     0.247 Goal=   None    Shift=    0.000
 RMSDP=6.54D-07 MaxDP=1.65D-05 DE=-6.80D-08 OVMax= 1.16D-04

 Cycle  12  Pass 1  IDiag  1:
 RMSU=  2.18D-07    CP:  9.90D-01  1.35D+00  9.34D-01  8.66D-01  1.34D+00
                    CP:  1.72D+00  1.62D+00  1.64D+00  1.84D+00  1.46D+00
                    CP:  1.16D+00
 E= -1028.80459487547     Delta-E=       -0.000000010275 Rises=F Damp=F
 DIIS: error= 1.49D-06 at cycle  12 NSaved=  12.
 NSaved=12 IEnMin=12 EnMin= -1028.80459487547     IErMin=12 ErrMin= 1.49D-06
 ErrMax= 1.49D-06  0.00D+00 EMaxC= 1.00D-01 BMatC= 5.41D-10 BMatP= 2.27D-09
 IDIUse=1 WtCom= 1.00D+00 WtEn= 0.00D+00
 Coeff-Com:  0.975D-04-0.189D-03-0.423D-03-0.732D-03 0.634D-03 0.708D-02
 Coeff-Com:  0.730D-02-0.116D-01-0.883D-01-0.656D-01 0.375D+00 0.777D+00
 Coeff:      0.975D-04-0.189D-03-0.423D-03-0.732D-03 0.634D-03 0.708D-02
 Coeff:      0.730D-02-0.116D-01-0.883D-01-0.656D-01 0.375D+00 0.777D+00
 Gap=     0.247 Goal=   None    Shift=    0.000
 RMSDP=2.74D-07 MaxDP=5.75D-06 DE=-1.03D-08 OVMax= 4.15D-05

 Cycle  13  Pass 1  IDiag  1:
 RMSU=  8.40D-08    CP:  9.90D-01  1.35D+00  9.34D-01  8.66D-01  1.34D+00
                    CP:  1.72D+00  1.62D+00  1.65D+00  1.90D+00  1.54D+00
                    CP:  1.39D+00  9.97D-01
 E= -1028.80459487700     Delta-E=       -0.000000001535 Rises=F Damp=F
 DIIS: error= 4.19D-07 at cycle  13 NSaved=  13.
 NSaved=13 IEnMin=13 EnMin= -1028.80459487700     IErMin=13 ErrMin= 4.19D-07
 ErrMax= 4.19D-07  0.00D+00 EMaxC= 1.00D-01 BMatC= 5.71D-11 BMatP= 5.41D-10
 IDIUse=1 WtCom= 1.00D+00 WtEn= 0.00D+00
 Coeff-Com: -0.991D-05 0.228D-04 0.261D-04-0.605D-04-0.315D-03 0.146D-03
 Coeff-Com:  0.284D-02 0.850D-02-0.146D-01-0.494D-01-0.317D-01 0.251D+00
 Coeff-Com:  0.833D+00
 Coeff:     -0.991D-05 0.228D-04 0.261D-04-0.605D-04-0.315D-03 0.146D-03
 Coeff:      0.284D-02 0.850D-02-0.146D-01-0.494D-01-0.317D-01 0.251D+00
 Coeff:      0.833D+00
 Gap=     0.247 Goal=   None    Shift=    0.000
 RMSDP=6.39D-08 MaxDP=1.92D-06 DE=-1.53D-09 OVMax= 7.56D-06

 Cycle  14  Pass 1  IDiag  1:
 RMSU=  3.04D-08    CP:  9.90D-01  1.35D+00  9.34D-01  8.66D-01  1.34D+00
                    CP:  1.72D+00  1.62D+00  1.65D+00  1.91D+00  1.56D+00
                    CP:  1.43D+00  1.15D+00  1.07D+00
 E= -1028.80459487713     Delta-E=       -0.000000000130 Rises=F Damp=F
 DIIS: error= 1.79D-07 at cycle  14 NSaved=  14.
 NSaved=14 IEnMin=14 EnMin= -1028.80459487713     IErMin=14 ErrMin= 1.79D-07
 ErrMax= 1.79D-07  0.00D+00 EMaxC= 1.00D-01 BMatC= 6.72D-12 BMatP= 5.71D-11
 IDIUse=1 WtCom= 1.00D+00 WtEn= 0.00D+00
 Coeff-Com: -0.132D-04 0.267D-04 0.517D-04 0.486D-04-0.182D-03-0.593D-03
 Coeff-Com:  0.243D-03 0.411D-02 0.247D-02-0.105D-01-0.474D-01 0.201D-01
 Coeff-Com:  0.297D+00 0.735D+00
 Coeff:     -0.132D-04 0.267D-04 0.517D-04 0.486D-04-0.182D-03-0.593D-03
 Coeff:      0.243D-03 0.411D-02 0.247D-02-0.105D-01-0.474D-01 0.201D-01
 Coeff:      0.297D+00 0.735D+00
 Gap=     0.247 Goal=   None    Shift=    0.000
 RMSDP=1.96D-08 MaxDP=6.15D-07 DE=-1.30D-10 OVMax= 1.94D-06

 Cycle  15  Pass 1  IDiag  1:
 RMSU=  1.26D-08    CP:  9.90D-01  1.35D+00  9.34D-01  8.66D-01  1.34D+00
                    CP:  1.72D+00  1.62D+00  1.65D+00  1.91D+00  1.57D+00
                    CP:  1.44D+00  1.18D+00  1.18D+00  1.04D+00
 E= -1028.80459487715     Delta-E=       -0.000000000014 Rises=F Damp=F
 DIIS: error= 8.11D-08 at cycle  15 NSaved=  15.
 NSaved=15 IEnMin=15 EnMin= -1028.80459487715     IErMin=15 ErrMin= 8.11D-08
 ErrMax= 8.11D-08  0.00D+00 EMaxC= 1.00D-01 BMatC= 1.49D-12 BMatP= 6.72D-12
 IDIUse=1 WtCom= 1.00D+00 WtEn= 0.00D+00
 Coeff-Com: -0.333D-05 0.616D-05 0.166D-04 0.341D-04-0.151D-04-0.316D-03
 Coeff-Com: -0.613D-03 0.479D-04 0.462D-02 0.762D-02-0.146D-01-0.466D-01
 Coeff-Com: -0.458D-01 0.320D+00 0.776D+00
 Coeff:     -0.333D-05 0.616D-05 0.166D-04 0.341D-04-0.151D-04-0.316D-03
 Coeff:     -0.613D-03 0.479D-04 0.462D-02 0.762D-02-0.146D-01-0.466D-01
 Coeff:     -0.458D-01 0.320D+00 0.776D+00
 Gap=     0.247 Goal=   None    Shift=    0.000
 RMSDP=9.02D-09 MaxDP=2.31D-07 DE=-1.43D-11 OVMax= 1.08D-06

 Error on total polarization charges =  0.00864
 SCF Done:  E(RwB97XD) =  -1028.80459488     A.U. after   15 cycles
            NFock= 15  Conv=0.90D-08     -V/T= 2.0049
 KE= 1.023771689986D+03 PE=-4.613478366319D+03 EE= 1.460156100776D+03
 Leave Link  502 at Wed Oct 28 00:08:42 2020, MaxMem=  7784628224 cpu:             832.9 elap:              84.0
 (Enter /gpfs/loomis/apps/avx/software/Gaussian/16-C.01_AVX/g16/l601.exe)
 Copying SCF densities to generalized density rwf, IOpCl= 0 IROHF=0.

 **********************************************************************

            Population analysis using the SCF Density.

 **********************************************************************

 Alpha  occ. eigenvalues --  -89.10081 -19.22082 -14.51065 -10.41176 -10.37483
 Alpha  occ. eigenvalues --  -10.36301 -10.35996 -10.33140 -10.32793 -10.32365
 Alpha  occ. eigenvalues --  -10.32239 -10.31756 -10.31230 -10.30936 -10.29572
 Alpha  occ. eigenvalues --  -10.28977  -8.12140  -6.06996  -6.06642  -6.06171
 Alpha  occ. eigenvalues --   -1.12893  -1.09635  -0.98002  -0.95582  -0.93180
 Alpha  occ. eigenvalues --   -0.89079  -0.86465  -0.83660  -0.81732  -0.76040
 Alpha  occ. eigenvalues --   -0.72329  -0.71878  -0.68395  -0.67929  -0.64896
 Alpha  occ. eigenvalues --   -0.60910  -0.59562  -0.57076  -0.55446  -0.55338
 Alpha  occ. eigenvalues --   -0.54722  -0.53800  -0.52986  -0.50564  -0.49607
 Alpha  occ. eigenvalues --   -0.49034  -0.48120  -0.46748  -0.45237  -0.45080
 Alpha  occ. eigenvalues --   -0.44187  -0.43265  -0.42123  -0.40507  -0.36691
 Alpha  occ. eigenvalues --   -0.33268  -0.33004  -0.31351  -0.26626
 Alpha virt. eigenvalues --   -0.01879   0.03970   0.05857   0.06686   0.08787
 Alpha virt. eigenvalues --    0.10570   0.14237   0.14828   0.16568   0.17577
 Alpha virt. eigenvalues --    0.18774   0.20421   0.21318   0.21429   0.22897
 Alpha virt. eigenvalues --    0.23557   0.24117   0.25284   0.28393   0.28739
 Alpha virt. eigenvalues --    0.31659   0.33635   0.35338   0.35661   0.36640
 Alpha virt. eigenvalues --    0.38214   0.39216   0.40171   0.41650   0.43331
 Alpha virt. eigenvalues --    0.46899   0.47821   0.50953   0.51022   0.51463
 Alpha virt. eigenvalues --    0.52623   0.52954   0.53251   0.54480   0.54843
 Alpha virt. eigenvalues --    0.56289   0.56318   0.56690   0.56739   0.57938
 Alpha virt. eigenvalues --    0.58144   0.58432   0.59118   0.59546   0.59881
 Alpha virt. eigenvalues --    0.60947   0.61179   0.61982   0.62840   0.62886
 Alpha virt. eigenvalues --    0.65055   0.66074   0.66927   0.67962   0.68747
 Alpha virt. eigenvalues --    0.70597   0.70903   0.72071   0.72631   0.72991
 Alpha virt. eigenvalues --    0.73567   0.74818   0.75388   0.75944   0.77896
 Alpha virt. eigenvalues --    0.78823   0.79436   0.80345   0.81151   0.82420
 Alpha virt. eigenvalues --    0.83693   0.88036   0.89680   0.90991   0.92960
 Alpha virt. eigenvalues --    0.94338   0.94549   0.95922   0.96636   0.97129
 Alpha virt. eigenvalues --    0.98503   0.98815   1.00267   1.00740   1.01418
 Alpha virt. eigenvalues --    1.02620   1.05345   1.05901   1.06322   1.07386
 Alpha virt. eigenvalues --    1.08102   1.09401   1.10162   1.10725   1.11082
 Alpha virt. eigenvalues --    1.12431   1.13042   1.13842   1.14751   1.15082
 Alpha virt. eigenvalues --    1.16460   1.19670   1.19967   1.22723   1.23612
 Alpha virt. eigenvalues --    1.26038   1.28185   1.32785   1.33352   1.34399
 Alpha virt. eigenvalues --    1.35269   1.37197   1.38554   1.40663   1.46732
 Alpha virt. eigenvalues --    1.49018   1.49704   1.53366   1.53556   1.54721
 Alpha virt. eigenvalues --    1.56727   1.57085   1.57318   1.58721   1.59205
 Alpha virt. eigenvalues --    1.60485   1.60721   1.65353   1.65713   1.67362
 Alpha virt. eigenvalues --    1.67965   1.70108   1.70182   1.71087   1.71383
 Alpha virt. eigenvalues --    1.71728   1.72281   1.73484   1.73651   1.75266
 Alpha virt. eigenvalues --    1.77807   1.80112   1.80392   1.80826   1.82082
 Alpha virt. eigenvalues --    1.82902   1.84694   1.84706   1.85270   1.85632
 Alpha virt. eigenvalues --    1.86682   1.88880   1.89440   1.91474   1.91902
 Alpha virt. eigenvalues --    1.92765   1.93930   1.95240   1.95955   1.96529
 Alpha virt. eigenvalues --    1.97622   1.99686   2.00102   2.02943   2.04095
 Alpha virt. eigenvalues --    2.06092   2.07491   2.09600   2.10435   2.14919
 Alpha virt. eigenvalues --    2.15713   2.17142   2.18283   2.21288   2.23767
 Alpha virt. eigenvalues --    2.26801   2.28214   2.31925   2.37699   2.40012
 Alpha virt. eigenvalues --    2.41525   2.42502   2.46466   2.47604   2.48449
 Alpha virt. eigenvalues --    2.49553   2.51044   2.52376   2.53663   2.61747
 Alpha virt. eigenvalues --    2.62071   2.71087   2.74249   2.74694   2.79276
 Alpha virt. eigenvalues --    2.81420   2.83147   2.85840   2.86475   2.89783
 Alpha virt. eigenvalues --    2.91961   3.01937   3.14121   3.23991   3.42862
 Alpha virt. eigenvalues --    3.47775   3.56643   3.59513   3.76894
          Condensed to atoms (all electrons):
               1          2          3          4          5          6
     1  C    4.727623   0.490519   0.005623  -0.051501  -0.013649   0.515273
     2  C    0.490519   5.316150   0.313967  -0.047343  -0.068954  -0.007714
     3  C    0.005623   0.313967   4.861318   0.509225  -0.002588  -0.064568
     4  C   -0.051501  -0.047343   0.509225   4.776776   0.520091  -0.012282
     5  C   -0.013649  -0.068954  -0.002588   0.520091   4.726975   0.497523
     6  C    0.515273  -0.007714  -0.064568  -0.012282   0.497523   4.734923
     7  H    0.403456  -0.038745   0.008889  -0.000611   0.008071  -0.039107
     8  H   -0.000597   0.010813  -0.029819   0.395065  -0.041102   0.007468
     9  H    0.008862  -0.000546   0.008393  -0.038132   0.405110  -0.044488
    10  H   -0.042419   0.009431  -0.000485   0.008406  -0.042437   0.407229
    11  N    0.004356  -0.041373   0.373893  -0.046795   0.002621   0.000209
    12  S   -0.069271   0.331442  -0.118430   0.005278   0.000250   0.004075
    13  C   -0.000219   0.001274   0.011356  -0.000483   0.000009   0.000002
    14  C   -0.000008   0.000123   0.000362   0.000007  -0.000000  -0.000000
    15  C    0.000003  -0.000316   0.000460   0.000048  -0.000000   0.000000
    16  C    0.000000  -0.000005   0.000004  -0.000000   0.000000   0.000000
    17  H   -0.000009   0.000165   0.000001   0.000000   0.000000   0.000000
    18  C    0.000000   0.000008  -0.000021  -0.000000  -0.000000  -0.000000
    19  C   -0.000000   0.000000   0.000001   0.000000  -0.000000   0.000000
    20  H   -0.000000  -0.000000  -0.000000   0.000000  -0.000000  -0.000000
    21  H   -0.000000   0.000000  -0.000000  -0.000000  -0.000000   0.000000
    22  H    0.000000  -0.000000  -0.000000  -0.000000   0.000000  -0.000000
    23  C    0.003566  -0.046832  -0.113126   0.001377   0.000278  -0.000228
    24  O    0.000002  -0.000159  -0.000592  -0.000008   0.000000  -0.000000
    25  H    0.000105   0.007522  -0.030108  -0.003441  -0.000077  -0.000004
               7          8          9         10         11         12
     1  C    0.403456  -0.000597   0.008862  -0.042419   0.004356  -0.069271
     2  C   -0.038745   0.010813  -0.000546   0.009431  -0.041373   0.331442
     3  C    0.008889  -0.029819   0.008393  -0.000485   0.373893  -0.118430
     4  C   -0.000611   0.395065  -0.038132   0.008406  -0.046795   0.005278
     5  C    0.008071  -0.041102   0.405110  -0.042437   0.002621   0.000250
     6  C   -0.039107   0.007468  -0.044488   0.407229   0.000209   0.004075
     7  H    0.651424   0.000029  -0.000149  -0.011271  -0.000087  -0.007610
     8  H    0.000029   0.642717  -0.012180  -0.000109  -0.003431  -0.000230
     9  H   -0.000149  -0.012180   0.658613  -0.012133  -0.000103   0.000021
    10  H   -0.011271  -0.000109  -0.012133   0.657510   0.000004  -0.000154
    11  N   -0.000087  -0.003431  -0.000103   0.000004   6.189515  -0.053949
    12  S   -0.007610  -0.000230   0.000021  -0.000154  -0.053949  15.448010
    13  C    0.000002   0.000033  -0.000000  -0.000000  -0.028385  -0.065641
    14  C    0.000001   0.000001   0.000000  -0.000000   0.003410  -0.010372
    15  C   -0.000000  -0.000004   0.000000   0.000000  -0.006803   0.004804
    16  C    0.000000   0.000000  -0.000000  -0.000000  -0.000081   0.000214
    17  H    0.000001   0.000000  -0.000000  -0.000000   0.000243   0.008187
    18  C    0.000000  -0.000000   0.000000  -0.000000  -0.000530  -0.000173
    19  C    0.000000   0.000000  -0.000000  -0.000000   0.000038   0.000024
    20  H    0.000000  -0.000000   0.000000   0.000000   0.000001   0.000007
    21  H   -0.000000   0.000000  -0.000000   0.000000   0.000015   0.000004
    22  H    0.000000  -0.000000   0.000000  -0.000000  -0.000000  -0.000001
    23  C    0.000190  -0.000668   0.000006   0.000005   0.530309   0.321256
    24  O    0.000000  -0.000166   0.000000  -0.000000  -0.066388  -0.000214
    25  H    0.000004   0.000823  -0.000007  -0.000000   0.306228   0.003968
              13         14         15         16         17         18
     1  C   -0.000219  -0.000008   0.000003   0.000000  -0.000009   0.000000
     2  C    0.001274   0.000123  -0.000316  -0.000005   0.000165   0.000008
     3  C    0.011356   0.000362   0.000460   0.000004   0.000001  -0.000021
     4  C   -0.000483   0.000007   0.000048  -0.000000   0.000000  -0.000000
     5  C    0.000009  -0.000000  -0.000000   0.000000   0.000000  -0.000000
     6  C    0.000002  -0.000000   0.000000   0.000000   0.000000  -0.000000
     7  H    0.000002   0.000001  -0.000000   0.000000   0.000001   0.000000
     8  H    0.000033   0.000001  -0.000004   0.000000   0.000000  -0.000000
     9  H   -0.000000   0.000000   0.000000  -0.000000  -0.000000   0.000000
    10  H   -0.000000  -0.000000   0.000000  -0.000000  -0.000000  -0.000000
    11  N   -0.028385   0.003410  -0.006803  -0.000081   0.000243  -0.000530
    12  S   -0.065641  -0.010372   0.004804   0.000214   0.008187  -0.000173
    13  C    5.416323   0.437686   0.202308  -0.006880  -0.039528  -0.040112
    14  C    0.437686   4.851959   0.006635   0.538166   0.397822  -0.059144
    15  C    0.202308   0.006635   4.741377  -0.055642   0.006288   0.475906
    16  C   -0.006880   0.538166  -0.055642   4.756574  -0.031439  -0.019687
    17  H   -0.039528   0.397822   0.006288  -0.031439   0.671848  -0.000773
    18  C   -0.040112  -0.059144   0.475906  -0.019687  -0.000773   4.870199
    19  C   -0.053216  -0.019285  -0.007167   0.482228   0.008098   0.507524
    20  H    0.009046  -0.036105  -0.000159   0.400437  -0.012036   0.008183
    21  H    0.015089  -0.000647  -0.024092   0.007548   0.000051   0.373529
    22  H   -0.001578   0.009753   0.008760  -0.045792  -0.000191  -0.040169
    23  C    0.363395  -0.092178  -0.076090   0.006305  -0.021578   0.009095
    24  O   -0.093449   0.006130   0.612759  -0.000115  -0.000071  -0.062570
    25  H   -0.032552  -0.000752  -0.018036   0.000047  -0.000067   0.003610
              19         20         21         22         23         24
     1  C   -0.000000  -0.000000  -0.000000   0.000000   0.003566   0.000002
     2  C    0.000000  -0.000000   0.000000  -0.000000  -0.046832  -0.000159
     3  C    0.000001  -0.000000  -0.000000  -0.000000  -0.113126  -0.000592
     4  C    0.000000   0.000000  -0.000000  -0.000000   0.001377  -0.000008
     5  C   -0.000000  -0.000000  -0.000000   0.000000   0.000278   0.000000
     6  C    0.000000  -0.000000   0.000000  -0.000000  -0.000228  -0.000000
     7  H    0.000000   0.000000  -0.000000   0.000000   0.000190   0.000000
     8  H    0.000000  -0.000000   0.000000  -0.000000  -0.000668  -0.000166
     9  H   -0.000000   0.000000  -0.000000   0.000000   0.000006   0.000000
    10  H   -0.000000   0.000000   0.000000  -0.000000   0.000005  -0.000000
    11  N    0.000038   0.000001   0.000015  -0.000000   0.530309  -0.066388
    12  S    0.000024   0.000007   0.000004  -0.000001   0.321256  -0.000214
    13  C   -0.053216   0.009046   0.015089  -0.001578   0.363395  -0.093449
    14  C   -0.019285  -0.036105  -0.000647   0.009753  -0.092178   0.006130
    15  C   -0.007167  -0.000159  -0.024092   0.008760  -0.076090   0.612759
    16  C    0.482228   0.400437   0.007548  -0.045792   0.006305  -0.000115
    17  H    0.008098  -0.012036   0.000051  -0.000191  -0.021578  -0.000071
    18  C    0.507524   0.008183   0.373529  -0.040169   0.009095  -0.062570
    19  C    4.737458  -0.046828  -0.046651   0.403671   0.000575   0.003914
    20  H   -0.046828   0.686012  -0.000153  -0.012391  -0.000395   0.000001
    21  H   -0.046651  -0.000153   0.676941  -0.012642  -0.000462   0.004671
    22  H    0.403671  -0.012391  -0.012642   0.673008   0.000004  -0.000071
    23  C    0.000575  -0.000395  -0.000462   0.000004   5.072130  -0.011139
    24  O    0.003914   0.000001   0.004671  -0.000071  -0.011139   7.871688
    25  H   -0.000359  -0.000001   0.000010   0.000007   0.011330   0.140971
              25
     1  C    0.000105
     2  C    0.007522
     3  C   -0.030108
     4  C   -0.003441
     5  C   -0.000077
     6  C   -0.000004
     7  H    0.000004
     8  H    0.000823
     9  H   -0.000007
    10  H   -0.000000
    11  N    0.306228
    12  S    0.003968
    13  C   -0.032552
    14  C   -0.000752
    15  C   -0.018036
    16  C    0.000047
    17  H   -0.000067
    18  C    0.003610
    19  C   -0.000359
    20  H   -0.000001
    21  H    0.000010
    22  H    0.000007
    23  C    0.011330
    24  O    0.140971
    25  H    0.458997
 Mulliken charges:
               1
     1  C    0.018284
     2  C   -0.229427
     3  C    0.266244
     4  C   -0.015677
     5  C    0.007879
     6  C    0.001689
     7  H    0.025513
     8  H    0.031357
     9  H    0.026733
    10  H    0.026425
    11  N   -0.162915
    12  S    0.198505
    13  C   -0.094479
    14  C   -0.033561
    15  C    0.128964
    16  C   -0.031884
    17  H    0.012986
    18  C   -0.024875
    19  C    0.029974
    20  H    0.004380
    21  H    0.006790
    22  H    0.017632
    23  C    0.042875
    24  O   -0.405192
    25  H    0.151780
 Sum of Mulliken charges =  -0.00000
 Mulliken charges with hydrogens summed into heavy atoms:
               1
     1  C    0.043797
     2  C   -0.229427
     3  C    0.266244
     4  C    0.015681
     5  C    0.034612
     6  C    0.028114
    11  N   -0.011136
    12  S    0.198505
    13  C   -0.094479
    14  C   -0.020575
    15  C    0.128964
    16  C   -0.027503
    18  C   -0.018086
    19  C    0.047607
    23  C    0.042875
    24  O   -0.405192
 Electronic spatial extent (au):  <R**2>=           4328.6282
 Charge=             -0.0000 electrons
 Dipole moment (field-independent basis, Debye):
    X=              1.0876    Y=             -5.0083    Z=             -0.0001  Tot=              5.1250
 Quadrupole moment (field-independent basis, Debye-Ang):
   XX=            -82.6605   YY=            -93.9149   ZZ=           -104.1687
   XY=             -6.8880   XZ=             -0.0001   YZ=             -0.0001
 Traceless Quadrupole moment (field-independent basis, Debye-Ang):
   XX=             10.9208   YY=             -0.3335   ZZ=            -10.5873
   XY=             -6.8880   XZ=             -0.0001   YZ=             -0.0001
 Octapole moment (field-independent basis, Debye-Ang**2):
  XXX=             28.8535  YYY=            -52.3734  ZZZ=             -0.0000  XYY=             -0.5213
  XXY=             -6.2924  XXZ=              0.0000  XZZ=              2.0652  YZZ=              2.4633
  YYZ=             -0.0001  XYZ=             -0.0005
 Hexadecapole moment (field-independent basis, Debye-Ang**3):
 XXXX=          -2599.9040 YYYY=          -2643.8915 ZZZZ=           -113.0672 XXXY=            810.5997
 XXXZ=              0.0098 YYYX=            771.2596 YYYZ=             -0.0147 ZZZX=              0.0138
 ZZZY=             -0.0175 XXYY=           -843.4881 XXZZ=           -572.1669 YYZZ=           -545.4339
 XXYZ=             -0.0039 YYXZ=              0.0019 ZZXY=            358.7647
 N-N= 1.100745980680D+03 E-N=-4.613478371287D+03  KE= 1.023771689986D+03
 No NMR shielding tensors so no spin-rotation constants.
 Leave Link  601 at Wed Oct 28 00:08:43 2020, MaxMem=  7784628224 cpu:               3.3 elap:               0.4
 (Enter /gpfs/loomis/apps/avx/software/Gaussian/16-C.01_AVX/g16/l701.exe)
 ... and contract with generalized density number  0.
 Compute integral first derivatives.
 R6Disp: Adding Grimme-D2 dispersion energy 1st derivatives to the gradient.
 D1PCM: PCM CHGder 1st derivatives, ID1Alg=3 FixD1E=F DoIter=F DoCFld=F I1PDM=0.
 GePol: Maximum number of non-zero 1st derivatives   =     258
 Leave Link  701 at Wed Oct 28 00:08:46 2020, MaxMem=  7784628224 cpu:              24.9 elap:               2.8
 (Enter /gpfs/loomis/apps/avx/software/Gaussian/16-C.01_AVX/g16/l702.exe)
 L702 exits ... SP integral derivatives will be done elsewhere.
 Leave Link  702 at Wed Oct 28 00:08:46 2020, MaxMem=  7784628224 cpu:               0.3 elap:               0.0
 (Enter /gpfs/loomis/apps/avx/software/Gaussian/16-C.01_AVX/g16/l703.exe)
 Integral derivatives from FoFJK, PRISM(SPDF).
 Compute integral first derivatives, UseDBF=F ICtDFT=           0.
 Calling FoFJK, ICntrl=      2127 FMM=F ISym2X=0 I1Cent= 0 IOpClX= 0 NMat=1 NMatS=1 NMatT=0.
 FoFJK:  IHMeth= 1 ICntrl=    2127 DoSepK=T KAlg= 0 I1Cent=           0 FoldK=F
 IRaf=         1 NMat=       1 IRICut=       1 DoRegI=T DoRafI=F ISym2E= 0 IDoP0=0 IntGTp=1.
 FoFCou: FMM=F IPFlag=           0 FMFlag=      100000 FMFlg1=         800
         NFxFlg=           0 DoJE=F BraDBF=F KetDBF=F FulRan=T
         wScrn=  0.000000 ICntrl=      2527 IOpCl=  0 I1Cent=           0 NGrid=           0
         NMat0=    1 NMatS0=      1 NMatT0=    0 NMatD0=    1 NMtDS0=    0 NMtDT0=    0
 Symmetry not used in FoFCou.
 Leave Link  703 at Wed Oct 28 00:09:00 2020, MaxMem=  7784628224 cpu:             138.3 elap:              13.9
 (Enter /gpfs/loomis/apps/avx/software/Gaussian/16-C.01_AVX/g16/l716.exe)
 Dipole        = 4.27908813D-01-1.97041198D+00-2.79272589D-05
 -------------------------------------------------------------------
 Center     Atomic                   Forces (Hartrees/Bohr)
 Number     Number              X              Y              Z
 -------------------------------------------------------------------
      1        6           0.003282148    0.000775493   -0.000000063
      2        6           0.007980046    0.005649751   -0.000000207
      3        6           0.012249436   -0.021220182   -0.000000179
      4        6          -0.005538749    0.002747830    0.000000085
      5        6           0.000131539    0.000360987    0.000000062
      6        6          -0.001257547    0.003990078   -0.000000092
      7        1           0.001152458    0.001303904   -0.000000041
      8        1          -0.001057646   -0.001296235    0.000000026
      9        1          -0.001071826    0.000384638   -0.000000001
     10        1          -0.000375122    0.001077396    0.000000000
     11        7          -0.046919493   -0.037143309    0.000000214
     12       16           0.005322899    0.004934323   -0.000000174
     13        6           0.009499987    0.022640934   -0.000000240
     14        6          -0.027944562    0.020414728   -0.000000307
     15        6           0.009098326   -0.019619011    0.000000079
     16        6           0.005349439   -0.027678165   -0.000000275
     17        1          -0.001233537    0.000479928   -0.000000021
     18        6          -0.018655399   -0.000863639    0.000000546
     19        6           0.026427986    0.003508876    0.000000086
     20        1           0.001165644    0.000083196    0.000000035
     21        1          -0.000561473   -0.001111204   -0.000000252
     22        1           0.000237685    0.000416674    0.000000002
     23        6           0.008365584    0.003670508    0.000000777
     24        8          -0.001592899    0.007959222   -0.000000684
     25        1           0.015945078    0.028533282    0.000000623
 -------------------------------------------------------------------
 Cartesian Forces:  Max     0.046919493 RMS     0.011402003
 Leave Link  716 at Wed Oct 28 00:09:00 2020, MaxMem=  7784628224 cpu:               0.5 elap:               0.1
 (Enter /gpfs/loomis/apps/avx/software/Gaussian/16-C.01_AVX/g16/l103.exe)

 GradGradGradGradGradGradGradGradGradGradGradGradGradGradGradGradGradGrad
 Berny optimization.
 FormGI is forming the generalized inverse of G from B-inverse, IUseBI=4.
 Internal  Forces:  Max     0.028022408 RMS     0.005784970
 Search for a local minimum.
 Step number   1 out of a maximum of  146
 All quantities printed in internal units (Hartrees-Bohrs-Radians)
 RMS Force = .58280D-02 SwitMx=.10000D-02 MixMth= 1
 Mixed Optimization -- RFO/linear search
 Second derivative matrix not updated -- first step.
 ITU=  0
     Eigenvalues ---    0.01396   0.01556   0.01567   0.01741   0.01801
     Eigenvalues ---    0.01854   0.01869   0.01931   0.01959   0.01979
     Eigenvalues ---    0.01996   0.02006   0.02038   0.02062   0.02065
     Eigenvalues ---    0.02068   0.02078   0.02089   0.02097   0.02123
     Eigenvalues ---    0.02144   0.02175   0.16000   0.16000   0.16000
     Eigenvalues ---    0.16000   0.16000   0.16000   0.16000   0.16003
     Eigenvalues ---    0.16993   0.22005   0.22010   0.22531   0.22584
     Eigenvalues ---    0.24371   0.24473   0.24588   0.25000   0.25000
     Eigenvalues ---    0.28543   0.29934   0.31803   0.34436   0.34441
     Eigenvalues ---    0.34485   0.34493   0.34516   0.34523   0.34533
     Eigenvalues ---    0.34598   0.34637   0.37910   0.39634   0.41540
     Eigenvalues ---    0.42697   0.42872   0.43140   0.43447   0.44800
     Eigenvalues ---    0.45182   0.46117   0.46335   0.46618   0.47301
     Eigenvalues ---    0.50519   0.723291000.000001000.000001000.00000
     Eigenvalues --- 1000.000001000.000001000.000001000.000001000.00000
     Eigenvalues --- 1000.000001000.000001000.000001000.000001000.00000
     Eigenvalues --- 1000.000001000.000001000.000001000.000001000.00000
     Eigenvalues --- 1000.000001000.000001000.000001000.000001000.00000
     Eigenvalues --- 1000.000001000.000001000.000001000.000001000.00000
     Eigenvalues --- 1000.000001000.000001000.000001000.000001000.00000
     Eigenvalues --- 1000.000001000.000001000.000001000.000001000.00000
     Eigenvalues --- 1000.000001000.000001000.000001000.000001000.00000
     Eigenvalues --- 1000.000001000.000001000.000001000.000001000.00000
     Eigenvalues --- 1000.000001000.000001000.000001000.000001000.00000
     Eigenvalues --- 1000.000001000.000001000.000001000.000001000.00000
     Eigenvalues --- 1000.000001000.000001000.000001000.000001000.00000
     Eigenvalues --- 1000.000001000.000001000.000001000.000001000.00000
     Eigenvalues --- 1000.00000
 RFO step:  Lambda=-1.40185513D-02 EMin= 1.39645421D-02
 Linear search not attempted -- first point.
 Iteration  1 RMS(Cart)=  0.02621312 RMS(Int)=  0.00106164
 Iteration  2 RMS(Cart)=  0.00141764 RMS(Int)=  0.00080927
 Iteration  3 RMS(Cart)=  0.00000275 RMS(Int)=  0.00080774
 Iteration  4 RMS(Cart)=  0.00000006 RMS(Int)=  0.00080767
 Iteration  1 RMS(Cart)=  0.00001270 RMS(Int)=  0.00000898
 Iteration  2 RMS(Cart)=  0.00000014 RMS(Int)=  0.00000720
 ITry= 1 IFail=0 DXMaxC= 1.68D-01 DCOld= 1.00D+10 DXMaxT= 3.00D-01 DXLimC= 3.00D+00 Rises=F
 Variable       Old X    -DE/DX   Delta X   Delta X   Delta X     New X
                                 (Linear)    (Quad)   (Total)
    R1        2.63375  -0.00269   0.00000  -0.00444  -0.00402   2.62973
    R2        2.63281  -0.00253   0.00000  -0.00412  -0.00406   2.62875
    R3        2.06523  -0.00178   0.00000  -0.00480  -0.00476   2.06048
    R4        2.69112  -0.01963   0.00000  -0.04085  -0.03919   2.65193
    R5        3.30350   0.00382   0.00000   0.01121   0.01054   3.31403
    R6        2.65840  -0.00736   0.00000  -0.01711  -0.01716   2.64124
    R7        2.60105   0.00785   0.00000   0.01530   0.01577   2.61682
    R8        2.63463  -0.00352   0.00000  -0.00803  -0.00826   2.62636
    R9        2.06506  -0.00166   0.00000  -0.00466  -0.00467   2.06039
   R10        2.65338  -0.00403   0.00000  -0.00652  -0.00612   2.64726
   R11        2.06469  -0.00111   0.00000  -0.00307  -0.00306   2.06162
   R12        2.06333  -0.00113   0.00000  -0.00311  -0.00310   2.06023
   R13        2.57301  -0.01743   0.00000  -0.03536  -0.03620   2.53682
   R14        2.00616   0.02171   0.00000   0.07016   0.07428   2.08044
   R15        3.29503  -0.00461   0.00000  -0.00565  -0.00391   3.29113
   R16        2.63623   0.01300   0.00000   0.03003   0.03075   2.66698
   R17        2.78847  -0.01171   0.00000  -0.02683  -0.02582   2.76266
   R18        2.67700   0.00446   0.00000   0.00715   0.00625   2.68325
   R19        2.66298  -0.02802   0.00000  -0.06456  -0.06544   2.59753
   R20        2.06595  -0.00006   0.00000  -0.00013  -0.00013   2.06582
   R21        2.68984   0.00282   0.00000   0.00295   0.00178   2.69161
   R22        2.41326  -0.00273   0.00000  -0.00073   0.00085   2.41410
   R23        2.65202   0.00403   0.00000   0.00929   0.00981   2.66183
   R24        2.06440  -0.00111   0.00000  -0.00316  -0.00318   2.06122
   R25        2.64510  -0.01595   0.00000  -0.03677  -0.03746   2.60763
   R26        2.06457  -0.00126   0.00000  -0.00347  -0.00346   2.06111
   R27        2.06269   0.00019   0.00000   0.00040   0.00036   2.06305
    A1        2.06265  -0.00036   0.00000  -0.00228  -0.00265   2.05999
    A2        2.10371   0.00019   0.00000   0.00195   0.00221   2.10592
    A3        2.11683   0.00016   0.00000   0.00033   0.00044   2.11727
    A4        2.14078  -0.00187   0.00000  -0.00921  -0.00905   2.13173
    A5        2.20128   0.00653   0.00000   0.02741   0.02773   2.22901
    A6        1.94112  -0.00466   0.00000  -0.01820  -0.01867   1.92245
    A7        2.06226   0.00652   0.00000   0.02136   0.02100   2.08326
    A8        1.97289  -0.00341   0.00000  -0.00664  -0.00533   1.96756
    A9        2.24803  -0.00311   0.00000  -0.01472  -0.01567   2.23237
   A10        2.07599  -0.00134   0.00000  -0.00533  -0.00506   2.07093
   A11        2.09629   0.00069   0.00000   0.00226   0.00207   2.09835
   A12        2.11091   0.00065   0.00000   0.00307   0.00299   2.11390
   A13        2.13007  -0.00311   0.00000  -0.00977  -0.00957   2.12050
   A14        2.07307   0.00134   0.00000   0.00347   0.00335   2.07643
   A15        2.08005   0.00177   0.00000   0.00630   0.00621   2.08626
   A16        2.09463   0.00017   0.00000   0.00523   0.00533   2.09996
   A17        2.09284  -0.00002   0.00000  -0.00212  -0.00216   2.09068
   A18        2.09572  -0.00014   0.00000  -0.00311  -0.00317   2.09255
   A19        1.95760   0.01323   0.00000   0.04081   0.03923   1.99683
   A20        2.51235  -0.02425   0.00000  -0.11015  -0.10745   2.40489
   A21        1.81324   0.01102   0.00000   0.06935   0.06823   1.88146
   A22        1.55369   0.00744   0.00000   0.02708   0.02628   1.57997
   A23        2.09229   0.00346   0.00000   0.01480   0.01460   2.10689
   A24        2.14728  -0.00545   0.00000  -0.02378  -0.02425   2.12303
   A25        2.04361   0.00199   0.00000   0.00898   0.00965   2.05326
   A26        2.09591   0.00325   0.00000   0.01311   0.01296   2.10887
   A27        2.10126  -0.00039   0.00000   0.00091   0.00103   2.10229
   A28        2.08602  -0.00286   0.00000  -0.01403  -0.01399   2.07203
   A29        2.05715  -0.00940   0.00000  -0.03199  -0.03176   2.02539
   A30        2.07110   0.01210   0.00000   0.05307   0.05456   2.12565
   A31        2.15494  -0.00270   0.00000  -0.02108  -0.02280   2.13214
   A32        2.11255  -0.00678   0.00000  -0.03141  -0.03131   2.08124
   A33        2.07800   0.00314   0.00000   0.01425   0.01421   2.09221
   A34        2.09263   0.00364   0.00000   0.01715   0.01710   2.10974
   A35        2.10879   0.00258   0.00000   0.00828   0.00802   2.11681
   A36        2.04871  -0.00096   0.00000  -0.00267  -0.00259   2.04612
   A37        2.12569  -0.00162   0.00000  -0.00561  -0.00543   2.12026
   A38        2.09968   0.00688   0.00000   0.02721   0.02748   2.12717
   A39        2.08976  -0.00318   0.00000  -0.01140  -0.01146   2.07830
   A40        2.09374  -0.00370   0.00000  -0.01580  -0.01603   2.07772
   A41        1.99948  -0.01260   0.00000  -0.04305  -0.04151   1.95797
   A42        2.13840   0.00493   0.00000   0.01464   0.01368   2.15208
   A43        2.14530   0.00766   0.00000   0.02841   0.02783   2.17313
    D1       -0.00000   0.00000   0.00000   0.00000   0.00000   0.00000
    D2       -3.14159  -0.00000   0.00000  -0.00000  -0.00000   3.14159
    D3        3.14159   0.00000   0.00000   0.00000   0.00000   3.14159
    D4       -0.00000  -0.00000   0.00000  -0.00000  -0.00000  -0.00000
    D5       -0.00000  -0.00000   0.00000  -0.00000  -0.00000  -0.00000
    D6        3.14159  -0.00000   0.00000  -0.00000  -0.00000   3.14159
    D7        3.14159  -0.00000   0.00000  -0.00000  -0.00000   3.14159
    D8        0.00000  -0.00000   0.00000  -0.00000  -0.00000  -0.00000
    D9        0.00000   0.00000   0.00000  -0.00000  -0.00000   0.00000
   D10       -3.14159  -0.00000   0.00000  -0.00000  -0.00000   3.14159
   D11       -3.14159   0.00000   0.00000   0.00000   0.00000  -3.14159
   D12        0.00000   0.00000   0.00000  -0.00000  -0.00000  -0.00000
   D13        3.14159   0.00000   0.00000   0.00000   0.00000   3.14159
   D14       -0.00000  -0.00000   0.00000   0.00000   0.00000  -0.00000
   D15       -0.00000  -0.00000   0.00000  -0.00000  -0.00000  -0.00000
   D16        3.14159  -0.00000   0.00000  -0.00000  -0.00000   3.14159
   D17        3.14159   0.00000   0.00000   0.00000   0.00000  -3.14159
   D18        0.00000   0.00000   0.00000   0.00000   0.00000   0.00000
   D19        0.00001   0.00000   0.00000  -0.00000  -0.00000   0.00000
   D20        3.14153   0.00000   0.00000   0.00002   0.00002   3.14155
   D21       -3.14159  -0.00000   0.00000  -0.00000  -0.00000   3.14159
   D22       -0.00007   0.00000   0.00000   0.00001   0.00001  -0.00005
   D23        0.00000   0.00000   0.00000   0.00000   0.00000   0.00000
   D24       -3.14159   0.00000   0.00000   0.00000   0.00000  -3.14159
   D25        3.14159   0.00000   0.00000   0.00000   0.00000  -3.14159
   D26        0.00000  -0.00000   0.00000  -0.00000  -0.00000   0.00000
   D27        0.00000  -0.00000   0.00000  -0.00000  -0.00000   0.00000
   D28       -3.14159  -0.00000   0.00000  -0.00000  -0.00000  -3.14159
   D29       -3.14159   0.00000   0.00000   0.00000   0.00000  -3.14159
   D30        0.00000  -0.00000   0.00000   0.00000   0.00000   0.00000
   D31       -0.00001  -0.00000   0.00000   0.00000   0.00000  -0.00000
   D32        3.14157   0.00000   0.00000   0.00001   0.00001   3.14158
   D33       -3.14156   0.00000   0.00000   0.00000  -0.00000  -3.14156
   D34        0.00002   0.00000   0.00000   0.00001   0.00001   0.00002
   D35        0.00001   0.00000   0.00000  -0.00000  -0.00000   0.00000
   D36       -3.14157  -0.00000   0.00000  -0.00001  -0.00001  -3.14158
   D37        0.00001  -0.00000   0.00000  -0.00001  -0.00001   0.00000
   D38       -3.14159  -0.00000   0.00000  -0.00000  -0.00000  -3.14159
   D39       -3.14158  -0.00000   0.00000  -0.00001  -0.00001  -3.14159
   D40        0.00001  -0.00000   0.00000  -0.00000  -0.00000   0.00000
   D41       -0.00002   0.00000   0.00000   0.00001   0.00001  -0.00001
   D42        3.14157   0.00000   0.00000   0.00002   0.00002   3.14159
   D43        3.14158   0.00000   0.00000   0.00001   0.00001   3.14159
[...]
 003566,0.,-0.00006320,0.00005424,0.,-0.00003238,0.00002801,0.,-0.00644
 867,-0.00031831,-0.00000014,0.00078380,0.00168374,0.00000015,-0.051796
 49,0.02045179,-0.00000037,-0.26337676,0.17995335,-0.00000006,-0.001277
 81,0.01758997,0.00000046,0.78262235,-0.00118593,0.00207999,0.,0.002340
 64,-0.00131040,0.00000002,0.00075582,0.00166991,0.00000014,-0.00162785
 ,0.00037669,0.00000002,-0.00011820,-0.00234871,0.00000001,0.00247483,0
 .00017967,-0.00000002,-0.00012848,-0.00003941,0.,0.00007030,0.00006546
 ,0.,0.00015333,-0.00009895,0.,0.00012087,-0.00006186,0.,0.01326596,0.0
 0881201,-0.00000018,-0.00392773,-0.00433256,-0.00000030,0.06226621,0.0
 1430231,0.00000044,0.11636992,-0.27976379,-0.00000147,0.03221569,-0.04
 963238,0.00000041,-0.02952489,0.66697792,-0.00000002,0.00000003,0.0000
 7548,0.00000004,0.,0.00056560,0.,-0.00000002,-0.00054096,-0.00000002,0
 .00000002,-0.00013925,0.,-0.00000003,0.00005375,0.00000003,0.,-0.00002
 689,0.,0.,0.00000456,0.,0.,0.00000894,0.,0.,0.00001759,0.,0.,-0.000033
 41,0.00000005,0.00000014,-0.00001421,-0.00000007,-0.00000008,-0.001049
 79,0.00000053,0.00000038,0.00955582,-0.00000134,-0.00000061,-0.0604635
 5,0.00000050,-0.00000046,-0.00590146,0.00000709,0.00000575,0.12076929,
 0.00033215,-0.00000836,0.,-0.00072180,0.00033469,0.00000002,0.00032616
 ,-0.00021540,0.,0.00005392,0.00004698,0.,0.00005600,0.00009442,0.,-0.0
 0011500,-0.00009406,0.,-0.00001776,-0.00000837,0.,0.00004009,0.0000012
 9,0.,0.00000876,0.00000042,0.,0.00003198,-0.00000900,0.,0.00009268,0.0
 0053745,0.,-0.00162935,0.00233601,-0.00000002,-0.00382798,-0.02770324,
 -0.00000047,-0.08316133,-0.08068702,-0.00000155,-0.00495761,0.00263155
 ,0.00000002,0.01075619,0.02142034,0.00000037,0.08381229,0.00009715,-0.
 00004347,0.,-0.00020248,0.00081277,0.,0.00044178,-0.00036595,0.,0.0000
 5269,0.00011353,0.,0.00001864,0.00010695,0.,-0.00013604,-0.00001796,0.
 ,-0.00001809,0.00001264,0.,0.00003691,-0.00000629,0.,-0.00000497,0.000
 00723,0.,0.00000704,0.00000211,0.,-0.00113911,0.00019493,0.00000003,0.
 00105739,-0.00077204,0.,0.00012574,-0.00289475,-0.00000008,-0.07754926
 ,-0.31372599,-0.00000510,0.00005463,0.00244854,0.00000002,-0.01141297,
 -0.01659760,-0.00000050,0.08306235,0.33401382,0.00000001,0.,-0.0000185
 2,-0.00000002,0.,-0.00068941,0.00000002,0.,0.00013550,0.,0.,0.00008333
 ,0.,0.,-0.00002175,0.,0.,0.00003139,0.,0.,-0.00001286,0.,0.,-0.0000201
 7,0.,0.,-0.00000296,0.,0.,0.00002181,0.00000001,0.00000003,-0.00019122
 ,-0.00000002,0.00000006,0.00151817,-0.00000023,-0.00000047,0.00257964,
 -0.00000134,-0.00000537,-0.03725514,-0.00000010,0.00000005,0.00500437,
 -0.00000021,0.00000022,0.00596295,0.00000181,0.00000566,0.02394306,-0.
 00031909,0.00116166,0.,0.00104573,-0.00030402,-0.00000001,0.00250093,0
 .00064344,0.00000008,-0.00102232,0.00017713,0.00000001,-0.00004300,-0.
 00129793,0.,0.00125653,0.00012810,-0.00000001,-0.00009372,0.00004169,0
 .,0.00012315,0.00001208,0.,0.00006125,-0.00003954,0.,0.00006238,-0.000
 00992,0.,0.00687854,0.01236865,0.,-0.00144115,-0.00145785,-0.00000016,
 0.04904072,0.01058665,0.00000002,-0.05319376,0.02092574,-0.00000025,-0
 .15226782,0.05327367,0.00000003,0.00062764,-0.07769875,-0.00000128,-0.
 00030936,0.00038044,0.00000017,0.73645545,0.00072670,-0.00066382,0.,-0
 .00141657,0.00009624,0.,-0.00035232,-0.00031472,-0.00000003,0.00066218
 ,-0.00013103,-0.00000001,0.00009523,0.00089229,0.,-0.00090525,-0.00017
 519,0.,0.00001493,0.00002943,0.,-0.00000617,-0.00001647,0.,-0.00003698
 ,0.00003277,0.,-0.00000425,0.00000671,0.,-0.00405308,-0.00181026,0.000
 00010,0.00228232,0.00050335,0.00000012,0.00561667,-0.02523095,-0.00000
 033,0.01325513,-0.00669501,0.,0.08405201,-0.22164610,-0.00000155,-0.03
 721745,0.00712490,-0.00000043,0.00003727,0.00049835,-0.00000011,0.0795
 8145,0.70393846,0.00000001,0.00000001,-0.00012125,-0.00000001,-0.00000
 002,-0.00024517,0.00000005,0.00000012,-0.00112385,0.00000002,0.,0.0000
 4602,0.,0.,0.00003971,0.,0.,0.00004606,0.,0.,-0.00006069,0.,0.,-0.0000
 4062,0.,0.,-0.00000841,0.,0.,0.00003833,-0.00000011,0.00000006,0.00211
 553,0.00000006,0.00000002,-0.00086479,0.00000058,-0.00000041,0.0097231
 1,-0.00000014,0.00000013,-0.00150712,0.00000014,-0.00000111,-0.0749363
 5,-0.00000076,-0.00000062,0.00762694,-0.00000003,0.,-0.00039124,0.0000
 1406,0.00001219,0.12042252,0.00081695,-0.00137172,0.,-0.00176435,0.000
 78556,0.,-0.00097577,-0.00076913,-0.00000008,0.00120338,-0.00022883,-0
 .00000002,0.00007152,0.00163264,0.,-0.00166813,-0.00017765,0.00000001,
 0.00008009,0.00002276,0.,-0.00005937,-0.00004280,0.,-0.00009783,0.0000
 6823,0.,-0.00007173,0.00003513,0.,-0.00805322,-0.00576659,0.00000019,0
 .00256111,0.00231498,0.00000018,-0.03624539,-0.00060026,-0.00000014,0.
 05473545,0.00125407,0.00000051,-0.05575131,0.03468769,-0.00000101,-0.1
 4283231,-0.01998560,-0.00000084,-0.00286953,0.00442035,-0.00000024,-0.
 40331081,-0.09926511,-0.00000800,0.76087265,0.00063982,-0.00112442,0.,
 -0.00120307,0.00074196,-0.00000001,-0.00063449,-0.00149115,-0.00000004
 ,0.00075373,-0.00006644,-0.00000001,0.00005808,0.00121249,0.,-0.001329
 39,-0.00008286,0.00000001,0.00007348,0.00000236,0.,-0.00004918,-0.0000
 2897,0.,-0.00008188,0.00005655,0.,-0.00005656,0.00002844,0.,-0.0094997
 1,-0.00664259,-0.00000002,0.00223989,0.00187952,0.00000020,-0.04010534
 ,-0.00870795,-0.00000018,0.05078371,-0.05662260,-0.00000031,-0.0034924
 0,0.05527740,0.00000066,-0.08848342,-0.28104756,-0.00000307,0.00299213
 ,-0.00186092,-0.00000023,-0.03494350,-0.15063481,-0.00000288,-0.024552
 05,0.67683410,0.00000002,-0.00000003,-0.00000148,-0.00000005,0.0000000
 3,0.00012893,0.,-0.00000003,0.00036475,0.00000002,0.,0.00000031,0.,0.0
 0000004,-0.00002913,-0.00000004,0.,0.00000077,0.,0.,0.00000833,0.,0.,0
 .00002660,0.,0.,-0.00000314,0.,0.,-0.00001105,-0.00000022,-0.00000002,
 -0.00036449,0.00000005,0.00000001,-0.00012606,-0.00000099,-0.00000008,
 -0.00438438,0.00000132,-0.00000084,0.00699059,-0.00000093,0.00000137,-
 0.00041207,-0.00000186,-0.00000240,-0.06351097,-0.00000008,-0.00000009
 ,0.00835498,-0.00000629,-0.00000315,-0.05831135,0.00000917,0.00000628,
 0.14546051,0.00001221,-0.00007897,0.,-0.00002781,0.00013060,0.,-0.0000
 2808,-0.00014682,0.,0.00004566,0.00003188,0.,-0.00001222,0.00006804,0.
 ,-0.00008307,0.00000958,0.,0.00000577,0.00000503,0.,0.00000093,-0.0000
 0507,0.,-0.00001005,0.00000817,0.,-0.00000948,0.00000598,0.,-0.0004799
 6,0.00040106,0.00000003,0.00005073,0.00008704,0.,-0.00020105,0.0039008
 4,-0.00000003,-0.01517777,-0.00842798,-0.00000028,0.00053092,0.0001596
 6,0.00000003,-0.33561945,-0.06027224,-0.00000415,0.00078145,0.00011364
 ,0.00000006,0.00144103,-0.00143556,-0.00000004,-0.00450607,0.00248243,
 -0.00000005,0.35343919,0.00000105,0.00002368,0.,0.00001550,-0.00006270
 ,0.,0.00008647,0.00009772,0.,-0.00001302,-0.00004069,0.,0.00001222,-0.
 00001587,0.,0.00002246,-0.00000415,0.,-0.00000059,-0.00000219,0.,0.000
 00081,0.00000117,0.,0.00000330,-0.00000458,0.,0.00000264,-0.00000116,0
 .,0.00033959,-0.00020495,0.,0.00000870,0.00004212,0.,0.00236778,-0.003
 17666,-0.00000010,0.02427592,0.00841821,0.00000032,0.00058561,-0.00143
 822,0.,-0.06149210,-0.07036915,-0.00000100,-0.00021048,0.00093820,0.00
 000007,-0.00018125,-0.00515741,-0.00000010,-0.02974286,-0.00139290,-0.
 00000038,0.06434731,0.07048752,0.,0.,0.00000267,0.00000001,0.,-0.00006
 920,-0.00000002,0.,-0.00032355,0.,0.,-0.00002370,0.,0.,0.00003328,0.,0
 .,-0.00000682,0.,0.,0.00000010,0.,0.,-0.00001456,0.,0.,0.00000745,0.,0
 .,0.00000516,0.00000007,0.00000004,-0.00047725,0.,0.00000001,0.0001855
 0,-0.00000007,-0.00000026,0.00798823,0.00000021,-0.00000013,0.00162361
 ,0.00000003,0.00000010,-0.00072631,-0.00000421,-0.00000095,-0.03135247
 ,0.00000005,0.00000010,-0.00528864,-0.00000006,-0.00000011,0.00480366,
 -0.00000037,-0.00000002,0.00063616,0.00000447,0.00000120,0.02402825,-0
 .00006849,0.00000424,0.,0.00008259,0.00008738,0.,-0.00006300,-0.000014
 50,0.,-0.00001743,0.00000763,0.,-0.00000877,-0.00002920,0.,0.00003148,
 0.00001574,0.,0.00000193,-0.00000500,0.,-0.00000463,0.00000093,0.,0.00
 000102,-0.00000115,0.,-0.00000404,-0.00000080,0.,0.00034464,-0.0003122
 3,0.,-0.00030645,0.00013023,0.,-0.00257488,0.00254079,-0.00000009,-0.0
 0138487,0.00037070,0.00000001,0.00949915,0.02175805,0.00000053,-0.0047
 8387,-0.00006307,-0.00000026,0.00012067,-0.00008628,0.00000002,-0.0802
 6531,-0.08007054,-0.00000268,-0.00366350,-0.02965169,-0.00000067,-0.00
 035742,-0.00139687,0.,0.08024451,0.00002808,0.00010210,0.,-0.00006693,
 -0.00016589,0.,0.00005749,0.00015403,0.,-0.00004892,-0.00001047,0.,0.0
 0001350,-0.00007552,0.,0.00008383,-0.00001779,0.,-0.00000808,0.0000023
 4,0.,0.00000535,0.00000477,0.,0.00001072,-0.00000604,0.,0.00001331,-0.
 00000542,0.,0.00025822,0.00033420,-0.00000002,0.00017775,-0.00038733,0
 .,0.00402097,-0.00240790,-0.00000011,0.00099368,0.00043503,0.00000003,
 -0.01270906,-0.01687426,-0.00000073,-0.00087562,0.00211156,-0.00000018
 ,-0.00005578,-0.00009673,0.00000002,-0.07967662,-0.32267306,-0.0000073
 9,0.00202418,-0.00219380,-0.00000006,0.00004579,-0.00020576,-0.0000000
 2,0.08718011,0.33891790,0.,0.,0.00003564,0.00000001,0.,0.00000518,0.,0
 .,-0.00004027,0.,0.,0.00000090,0.,0.,0.00000049,0.,0.,-0.00000304,0.,0
 .,0.00000312,0.,0.,0.00000081,0.,0.,0.00000263,0.,0.,-0.00000608,0.000
 00004,-0.00000003,-0.00001251,0.,0.00000003,0.00004328,0.00000001,-0.0
 0000007,0.00441824,-0.00000015,0.00000008,-0.00075841,0.00000005,-0.00
 000025,0.00451499,-0.00000018,-0.00000020,0.00872170,0.00000001,0.,-0.
 00096406,-0.00000300,-0.00000752,-0.03436472,0.00000017,-0.00000044,0.
 00283001,-0.00000001,-0.00000004,0.00050063,0.00000288,0.00000814,0.02
 438023,0.00003728,-0.00006702,0.,-0.00004491,0.00013758,0.,0.00012199,
 -0.00013556,0.,0.00003794,0.00000857,0.,-0.00000134,0.00007074,0.,-0.0
 0008424,0.00000320,0.,0.00000308,0.00000385,0.,0.00000432,-0.00000462,
 0.,-0.00000905,0.00000596,0.,-0.00000635,0.00000518,0.,-0.00038490,0.0
 0033528,0.00000002,0.00005966,0.00026869,0.,-0.00086101,0.00004353,0.0
 0000002,0.00096375,-0.00240261,-0.00000008,-0.00332625,-0.00381121,-0.
 00000030,0.00910851,-0.00845008,-0.00000003,0.00033413,-0.00044255,0.,
 -0.01527275,0.02496170,0.00000004,-0.19040301,0.14045803,-0.00000018,0
 .00060869,0.00041475,0.00000004,0.00097037,-0.00026091,0.00000011,0.19
 920043,0.00002485,0.00002223,0.,-0.00008584,0.00002653,0.,0.00001094,0
 .00006102,0.,0.00000096,-0.00000309,0.,0.00001036,-0.00000712,0.,0.000
 01157,-0.00001274,0.,-0.00000555,-0.00000056,0.,0.00000351,0.00000194,
 0.,0.00000515,-0.00000233,0.,0.00000657,-0.00000370,0.,0.00014934,-0.0
 0009467,0.,-0.00007714,-0.00000883,0.,-0.00082430,0.00050773,0.0000000
 1,-0.00330241,-0.00511780,-0.00000014,-0.00257958,0.00032598,-0.000000
 21,0.02284916,-0.01461874,0.00000003,0.00108728,-0.00110367,0.,-0.0073
 6418,0.00807519,-0.00000009,0.14137844,-0.21064172,-0.00000021,-0.0002
 1932,0.00103658,0.00000004,0.00010568,0.00084035,0.00000010,-0.1513960
 7,0.22014210,0.,0.,-0.00001277,0.,0.,-0.00007755,0.,-0.00000001,0.0001
 6938,0.,0.,0.00000389,0.,0.,-0.00000739,0.,0.,-0.00000254,0.,0.,0.0000
 0652,0.,0.,-0.00000014,0.,0.,0.00000040,0.,0.,0.00000513,0.00000001,0.
 00000002,-0.00029162,0.,0.,0.00030418,0.,-0.00000006,-0.00114219,0.,-0
 .00000011,0.00507731,-0.00000037,-0.00000024,0.01076803,0.00000030,-0.
 00000024,0.00472146,0.00000002,0.,-0.00033997,-0.00000052,0.00000032,0
 .00665566,-0.00000012,-0.00000037,-0.04226020,0.00000004,0.00000005,-0
 .00272020,0.00000013,0.00000014,-0.00570252,0.00000038,0.00000042,0.02
 690055,-0.00764740,-0.00129637,0.00000014,0.00304262,0.01765530,0.0000
 0026,-0.07308412,0.05059575,0.00000085,0.00928849,-0.00383008,-0.00000
 011,-0.00311678,0.00285789,0.00000003,0.00071790,-0.00323953,0.0000000
 2,0.00010164,-0.00093942,0.,-0.00054693,-0.00007957,-0.00000002,0.0004
 5395,-0.00020675,-0.00000002,-0.00061743,-0.00010631,0.,-0.37758520,-0
 .04477512,0.00000726,-0.06120068,-0.04947697,-0.00000076,-0.18028643,0
 .08923361,0.00000159,-0.06113721,0.03377263,0.00000107,0.05009391,0.02
 270343,0.00000203,0.00445040,-0.02823185,-0.00000031,0.00163955,0.0016
 1329,0.00000003,-0.01286376,0.00383458,0.00000009,0.01385443,0.0137303
 7,0.00000033,-0.00031043,0.00085257,-0.00000011,0.00025482,-0.00148182
 ,-0.00000004,0.00068399,-0.00000780,-0.00000003,0.73800613,0.00248819,
 -0.00290287,-0.00000010,0.02402490,-0.02582002,-0.00000037,0.01670000,
 0.01540662,-0.00000066,0.00742384,-0.00989041,-0.00000006,-0.00107214,
 0.00632719,0.,-0.00425618,-0.00391213,0.00000010,0.00021589,-0.0006488
 5,0.00000002,-0.00067512,-0.00000761,0.,0.00012415,-0.00038717,0.,-0.0
 0043248,0.00012055,0.00000001,-0.06411692,-0.15463758,0.00000161,-0.00
 656941,-0.15827128,-0.00000012,0.08917726,-0.21485685,-0.00000322,0.02
 921613,0.00623303,-0.00000007,0.00094522,-0.04195852,-0.00000181,-0.01
 220803,0.02123747,0.00000006,-0.00276624,-0.00092385,0.00000004,0.0077
 3091,-0.01110769,-0.00000035,-0.01351342,-0.01293089,-0.00000028,-0.00
 115043,0.00080753,0.,0.00136037,-0.00032956,0.00000007,-0.00060458,0.0
 0014670,0.00000001,-0.06144052,0.57692597,0.00000023,-0.00000014,-0.00
 004852,-0.00000042,0.00000039,0.00289759,0.00000085,-0.00000071,0.0034
 7410,0.00000004,0.00000004,0.00176296,0.00000005,0.00000013,0.00104950
 ,-0.00000017,0.00000003,0.00101124,0.,0.00000001,-0.00051951,0.,0.,-0.
 00039919,-0.00000002,0.,-0.00035475,0.,0.,-0.00007244,0.00000636,0.000
 00130,-0.06447443,0.00000014,-0.00000065,-0.03605488,0.00000184,-0.000
 00317,-0.05585442,0.00000065,0.00000031,-0.00535267,-0.00000018,-0.000
 00099,0.00384946,-0.00000035,0.00000049,0.00554310,0.00000001,-0.00000
 002,-0.00250479,0.00000024,-0.00000039,0.00396709,-0.00000038,-0.00000
 037,-0.00088989,-0.00000005,0.,0.00155434,0.00000003,0.00000002,-0.000
 29762,0.,0.00000001,-0.00061678,-0.00001064,0.00000269,0.13958576,-0.0
 0091654,0.00337533,0.,0.00234174,0.00097423,-0.00000005,0.01192804,0.0
 0069036,-0.00000003,-0.00308787,0.00076869,0.00000005,-0.00009193,-0.0
 0365650,0.00000003,0.00341131,0.00068419,-0.00000004,-0.00027046,0.000
 24087,0.,0.00029707,0.00001255,-0.00000001,0.00006602,-0.00004006,0.,0
 .00012232,0.00003243,0.,0.01888081,0.05715315,0.00000019,-0.00276950,-
 0.00352815,-0.00000035,-0.00741803,-0.06477596,-0.00000361,-0.01575104
 ,0.00370316,0.00000002,-0.45595730,-0.08049592,-0.00001713,-0.00130309
 ,-0.02363687,-0.00000035,-0.00114300,-0.00066107,0.00000006,-0.0842663
 5,0.01202448,-0.00000350,0.02087255,0.02247269,0.00000050,-0.00016833,
 -0.00034074,-0.00000004,0.00206498,0.00020382,0.00000009,-0.00186210,0
 .00029579,0.00000017,-0.04665032,0.02697218,0.00000106,0.55768773,-0.0
 0054574,-0.00079618,0.00000010,0.00037254,-0.00315590,0.00000008,-0.01
 114017,-0.00271449,-0.00000063,0.00023210,-0.00050804,0.00000001,0.000
 44960,0.00059982,0.00000002,-0.00030248,-0.00022167,0.,0.00015223,-0.0
 0029053,0.,0.00011649,0.00013717,-0.00000003,0.00013612,-0.00013199,0.
 ,0.00007111,-0.00008312,0.,0.01924217,-0.05743906,-0.00000147,-0.00004
 010,-0.00245293,0.00000002,-0.05378373,-0.00861889,-0.00000259,0.01145
 344,-0.00831426,-0.00000038,-0.09962421,-0.12800782,-0.00000611,-0.003
 47161,0.00915599,0.00000014,-0.00195417,-0.00054991,0.,0.03857427,0.02
 055971,0.00000159,-0.00303492,-0.01241539,-0.00000023,-0.00007396,0.00
 055563,0.00000002,-0.00242134,0.00292613,0.00000012,0.00147324,0.00034
 808,-0.00000003,0.00919995,0.00311168,-0.00000026,0.11721940,0.1724038
 7,-0.00000010,-0.00000005,-0.00028017,0.00000011,-0.00000033,-0.000105
 48,-0.00000118,-0.00000042,0.00245063,-0.00000006,-0.00000002,0.000030
 44,0.00000005,-0.00000003,-0.00010536,0.00000004,0.,0.00004859,0.00000
 002,-0.00000003,0.00002869,0.00000001,0.00000002,0.00003811,0.00000002
 ,-0.00000002,-0.00001208,0.00000001,-0.00000001,0.00000206,0.00000230,
 -0.00000542,0.00368596,-0.00000018,-0.00000064,-0.00013673,-0.00000205
 ,-0.00000138,0.01718491,-0.00000037,-0.00000008,0.00543343,-0.00002022
 ,-0.00000747,-0.06981471,-0.00000008,-0.00000057,-0.00056332,-0.000000
 08,-0.00000002,0.00007733,-0.00000164,0.00000096,0.01514986,0.00000071
 ,0.00000017,0.00497386,0.,0.00000002,-0.00053836,0.00000005,0.00000018
 ,-0.00323930,0.00000007,0.00000005,-0.00125264,0.00000045,0.00000091,-
 0.00228001,0.00002564,0.00000825,0.04583785,0.00110817,-0.00037186,0.0
 0000003,-0.00441792,0.00226232,0.00000002,0.00670557,0.01144156,-0.000
 00054,0.00146629,-0.00027716,-0.00000003,-0.00004595,0.00070711,0.,-0.
 00072235,-0.00017232,0.,-0.00006019,0.00018772,0.,-0.00061067,-0.00031
 095,0.,-0.00000740,0.00000430,0.,-0.00003295,-0.00004700,0.,-0.0761713
 2,-0.04622645,0.00000115,-0.00318605,-0.00347872,0.00000026,-0.0044992
 4,0.00738581,0.,0.00267190,-0.00007900,-0.00000010,-0.02778904,0.00414
 016,0.00000048,-0.00013091,0.00339766,0.00000005,0.00036670,0.00017078
 ,-0.00000001,0.00517585,-0.00238136,0.00000023,-0.00279583,-0.00260168
 ,-0.00000007,0.00007460,0.00004121,0.00000001,-0.00011349,0.00006691,0
 .00000001,0.00012176,-0.00007741,-0.00000003,0.00245885,-0.03757357,0.
 00000072,0.00398330,-0.02230021,-0.00000353,0.09645029,-0.00015307,0.0
 0253579,-0.00000004,0.00285549,0.00547891,0.00000004,0.01862239,-0.002
 72499,-0.00000001,-0.00262211,0.00215476,0.00000003,-0.00060623,-0.002
 96991,0.00000002,0.00195867,0.00112731,-0.00000003,-0.00026725,0.00045
 398,0.,0.00018468,-0.00031856,0.00000002,-0.00021371,0.00021105,0.,-0.
 00003060,0.00013670,0.,-0.03571449,-0.17663958,0.00000364,-0.00024413,
 0.00515413,-0.00000024,0.01390321,-0.02488078,-0.00000062,-0.01255572,
 -0.00011205,0.00000022,0.06019567,0.02571905,0.00000357,0.00238680,-0.
 01387278,-0.00000019,-0.00087006,-0.00018994,0.00000003,-0.02261230,0.
 00449912,-0.00000114,0.01042690,0.01185215,0.00000008,0.00001331,-0.00
 033199,-0.00000002,0.00049082,-0.00037888,0.00000002,-0.00061511,0.000
 08056,0.00000010,-0.05093728,0.00826853,0.00000128,-0.06968804,0.01590
 209,0.00000595,0.08609215,0.13884533,0.00000002,0.00000006,0.00094964,
 0.00000009,0.00000023,0.00161311,0.00000077,-0.00000054,-0.00717364,-0
 .00000016,0.00000004,-0.00043231,0.00000001,-0.00000009,0.00000379,0.0
 0000004,0.00000005,-0.00013745,0.,0.00000001,0.00003223,-0.00000002,0.
 ,-0.00008317,0.,0.,0.00003903,0.,0.,-0.00000910,0.00000175,0.00000996,
 -0.02551073,-0.00000006,-0.00000015,0.00339066,0.00000058,-0.00000131,
 -0.00297638,-0.00000062,-0.00000010,-0.00086083,0.00000211,0.00000169,
 0.00067986,0.00000023,-0.00000055,-0.00003090,-0.00000007,-0.00000001,
 -0.00001180,-0.00000139,-0.00000008,0.00134105,0.00000025,0.00000063,0
 .00052841,-0.00000001,-0.00000002,0.00017200,0.00000005,-0.00000002,-0
 .00006933,-0.00000008,0.,-0.00018599,-0.00000211,0.00000152,0.00502477
 ,-0.00000270,0.00000138,-0.01661356,0.00000134,-0.00001272,0.04032061\
 \-0.00100462,-0.00024199,0.00000011,-0.00046451,-0.00011481,0.00000051
 ,-0.00029104,0.00021360,0.00000103,0.00061643,-0.00093661,-0.00000034,
 -0.00024380,-0.00102012,0.00000005,-0.00102454,-0.00097275,0.00000014,
 -0.00011840,0.00000078,-0.00000003,0.00008482,-0.00009709,0.,-0.000018
 00,-0.00016061,0.00000001,-0.00011930,-0.00010048,-0.00000005,0.002207
 89,-0.00017517,0.00000083,0.00031498,0.00207883,-0.00000112,0.00104829
 ,-0.00006973,0.00000097,-0.00005431,-0.00061320,0.00000090,-0.00151687
 ,0.00012257,-0.00000367,0.00024406,-0.00189062,0.00000008,0.00009958,-
 0.00008726,0.,-0.00049913,-0.00017143,-0.00000009,-0.00032660,-0.00097
 406,-0.00000053,0.00001490,-0.00016077,-0.00000005,-0.00012306,0.00001
 107,0.00000017,-0.00005747,-0.00011757,0.00000008,0.00157817,0.0011484
 1,0.00000078,0.00037611,0.00178089,0.00000593,-0.00072361,0.00254807,-
 0.00000571\\\@
 The archive entry for this job was punched.


 The impersonal hand of government can
 never replace the helping hand of a neighbor.
                        -- Hubert H. Humphrey
 Job cpu time:       0 days  0 hours 59 minutes 56.7 seconds.
 Elapsed time:       0 days  0 hours  6 minutes  3.1 seconds.
 File lengths (MBytes):  RWF=    544 Int=      0 D2E=      0 Chk=     40 Scr=      8
 Normal termination of Gaussian 16 at Wed Oct 28 00:24:47 2020.
