 Entering Gaussian System, Link 0=g16
 Initial command:
 /gpfs/loomis/apps/avx/software/Gaussian/16-C.01_AVX/g16/l1.exe "/home/fas/batista/pev4/scratch60/gauss-scratch/Gau-159268.inp" -scrdir="/home/fas/batista/pev4/scratch60/gauss-scratch/"
 Entering Link 1 = /gpfs/loomis/apps/avx/software/Gaussian/16-C.01_AVX/g16/l1.exe PID=    159269.
  
 Copyright (c) 1988-2019, Gaussian, Inc.  All Rights Reserved.
  
 This is part of the Gaussian(R) 16 program.  It is based on
 the Gaussian(R) 09 system (copyright 2009, Gaussian, Inc.),
 the Gaussian(R) 03 system (copyright 2003, Gaussian, Inc.),
 the Gaussian(R) 98 system (copyright 1998, Gaussian, Inc.),
 the Gaussian(R) 94 system (copyright 1995, Gaussian, Inc.),
 the Gaussian 92(TM) system (copyright 1992, Gaussian, Inc.),
 the Gaussian 90(TM) system (copyright 1990, Gaussian, Inc.),
 the Gaussian 88(TM) system (copyright 1988, Gaussian, Inc.),
 the Gaussian 86(TM) system (copyright 1986, Carnegie Mellon
 University), and the Gaussian 82(TM) system (copyright 1983,
 Carnegie Mellon University). Gaussian is a federally registered
 trademark of Gaussian, Inc.
  
 This software contains proprietary and confidential information,
 including trade secrets, belonging to Gaussian, Inc.
  
 This software is provided under written license and may be
 used, copied, transmitted, or stored only in accord with that
 written license.
  
 The following legend is applicable only to US Government
 contracts under FAR:
  
                    RESTRICTED RIGHTS LEGEND
  
 Use, reproduction and disclosure by the US Government is
 subject to restrictions as set forth in subparagraphs (a)
 and (c) of the Commercial Computer Software - Restricted
 Rights clause in FAR 52.227-19.
  
 Gaussian, Inc.
 340 Quinnipiac St., Bldg. 40, Wallingford CT 06492
  
  
 ---------------------------------------------------------------
 Warning -- This program may not be used in any manner that
 competes with the business of Gaussian, Inc. or will provide
 assistance to any competitor of Gaussian, Inc.  The licensee
 of this program is prohibited from giving any competitor of
 Gaussian, Inc. access to this program.  By using this program,
 the user acknowledges that Gaussian, Inc. is engaged in the
 business of creating and licensing software in the field of
 computational chemistry and represents and warrants to the
 licensee that it is not a competitor of Gaussian, Inc. and that
 it will not use this program in any manner prohibited above.
 ---------------------------------------------------------------
  

 Cite this work as:
 Gaussian 16, Revision C.01,
 M. J. Frisch, G. W. Trucks, H. B. Schlegel, G. E. Scuseria, 
 M. A. Robb, J. R. Cheeseman, G. Scalmani, V. Barone, 
 G. A. Petersson, H. Nakatsuji, X. Li, M. Caricato, A. V. Marenich, 
 J. Bloino, B. G. Janesko, R. Gomperts, B. Mennucci, H. P. Hratchian, 
 J. V. Ortiz, A. F. Izmaylov, J. L. Sonnenberg, D. Williams-Young, 
 F. Ding, F. Lipparini, F. Egidi, J. Goings, B. Peng, A. Petrone, 
 T. Henderson, D. Ranasinghe, V. G. Zakrzewski, J. Gao, N. Rega, 
 G. Zheng, W. Liang, M. Hada, M. Ehara, K. Toyota, R. Fukuda, 
 J. Hasegawa, M. Ishida, T. Nakajima, Y. Honda, O. Kitao, H. Nakai, 
 T. Vreven, K. Throssell, J. A. Montgomery, Jr., J. E. Peralta, 
 F. Ogliaro, M. J. Bearpark, J. J. Heyd, E. N. Brothers, K. N. Kudin, 
 V. N. Staroverov, T. A. Keith, R. Kobayashi, J. Normand, 
 K. Raghavachari, A. P. Rendell, J. C. Burant, S. S. Iyengar, 
 J. Tomasi, M. Cossi, J. M. Millam, M. Klene, C. Adamo, R. Cammi, 
 J. W. Ochterski, R. L. Martin, K. Morokuma, O. Farkas, 
 J. B. Foresman, and D. J. Fox, Gaussian, Inc., Wallingford CT, 2019.
 
 ******************************************
 Gaussian 16:  ES64L-G16RevC.01  3-Jul-2019
                27-Oct-2020 
 ******************************************
 %chk=config_1_13.chk
 %mem=58GB
 %nprocshared=10
 Will use up to   10 processors via shared memory.
 ----------------------------------------------------------------------
 #p opt=addgic freq wb97xd/cc-pvdz nosymm int=ultrafine scrf=(solvent=C
 arbonTetraChloride)
 ----------------------------------------------------------------------
 1/18=20,19=15,26=6,38=1,145=903/1,3;
 2/9=110,12=2,15=1,17=6,18=5,40=1/2;
 3/5=16,11=2,25=1,30=1,70=2201,71=1,72=11,74=-58,75=-5/1,2,3;
 4//1;
 5/5=2,38=5,53=11/2;
 6/7=2,8=2,9=2,10=2,28=1/1;
 7/30=1/1,2,3,16;
 1/18=20,19=15,26=6,145=903/3(2);
 2/9=110,15=1/2;
 99//99;
 2/9=110,15=1/2;
 3/5=16,11=2,25=1,30=1,70=2205,71=1,72=11,74=-58,75=-5/1,2,3;
 4/5=5,16=3,69=1/1;
 5/5=2,38=5,53=11/2;
 7/30=1/1,2,3,16;
 1/18=20,19=15,26=6,145=903/3(-5);
 2/9=110,15=1/2;
 6/7=2,8=2,9=2,10=2,19=2,28=1/1;
 99/9=1/99;
 Leave Link    1 at Tue Oct 27 23:40:38 2020, MaxMem=  7784628224 cpu:               4.5 elap:               0.5
 (Enter /gpfs/loomis/apps/avx/software/Gaussian/16-C.01_AVX/g16/l101.exe)
 ------------------------------------------------
 NM 2D-scan of HBT TD-WB97XD pVDZ in CTC Relaxed.
 ------------------------------------------------
 Symbolic Z-matrix:
 Charge =  0 Multiplicity = 1
 C                     1.58862  -3.26365  -0.00002 
 C                     0.99069  -2.00956  -0.00002 
 C                     1.74285  -0.78812  -0.00003 
 C                     3.17114  -0.89595  -0.00003 
 C                     3.75263  -2.15188  -0.00002 
 C                     2.97939  -3.3361   -0.00002 
 H                     0.97794  -4.16912  -0.00002 
 H                     3.77747   0.01263  -0.00003 
 H                     4.84289  -2.23511  -0.00002 
 H                     3.47336  -4.31004  -0.00001 
 N                     1.01254   0.32589  -0.00003 
 S                    -0.71478  -1.66051  -0.00002 
 C                    -1.32621   1.04306   0.00001 
 C                    -2.72938   0.76944   0.00001 
 C                    -0.92357   2.45145   0.00003 
 C                    -3.64638   1.79742   0.00003 
 H                    -3.06288  -0.27055   0. 
 C                    -1.87322   3.47909   0.00005 
 C                    -3.23081   3.15973   0.00004 
 H                    -4.71405   1.56797   0.00003 
 H                    -1.52919   4.51549   0.00006 
 H                    -3.97897   3.95438   0.00005 
 C                    -0.32519   0.06505  -0.00002 
 O                     0.37866   2.71498   0.00005 
 H                     0.77987   2.18554   0.00003 
 
 Initializing the GIC definitions file.
 Number of initial coordinates =   131
 Number of input entries/lines =    52
 Number of additional coordinates =     2
 Number of removed coordinates =     0
 Number of frozen coordinates =     2
 Number of final active and frozen coordinates =   133
 ITRead=  0  0  0  0  0  0  0  0  0  0  0  0  0  0  0  0  0  0  0  0
 ITRead=  0  0  0  0  0
 MicOpt= -1 -1 -1 -1 -1 -1 -1 -1 -1 -1 -1 -1 -1 -1 -1 -1 -1 -1 -1 -1
 MicOpt= -1 -1 -1 -1 -1
 NAtoms=     25 NQM=       25 NQMF=       0 NMMI=      0 NMMIF=      0
                NMic=       0 NMicF=      0.
                    Isotopes and Nuclear Properties:
 (Nuclear quadrupole moments (NQMom) in fm**2, nuclear magnetic moments (NMagM)
  in nuclear magnetons)

  Atom         1           2           3           4           5           6           7           8           9          10
 IAtWgt=          12          12          12          12          12          12           1           1           1           1
 AtmWgt=  12.0000000  12.0000000  12.0000000  12.0000000  12.0000000  12.0000000   1.0078250   1.0078250   1.0078250   1.0078250
 NucSpn=           0           0           0           0           0           0           1           1           1           1
 AtZEff=  -0.0000000  -0.0000000  -0.0000000  -0.0000000  -0.0000000  -0.0000000  -0.0000000  -0.0000000  -0.0000000  -0.0000000
 NQMom=    0.0000000   0.0000000   0.0000000   0.0000000   0.0000000   0.0000000   0.0000000   0.0000000   0.0000000   0.0000000
 NMagM=    0.0000000   0.0000000   0.0000000   0.0000000   0.0000000   0.0000000   2.7928460   2.7928460   2.7928460   2.7928460
 AtZNuc=   6.0000000   6.0000000   6.0000000   6.0000000   6.0000000   6.0000000   1.0000000   1.0000000   1.0000000   1.0000000

  Atom        11          12          13          14          15          16          17          18          19          20
 IAtWgt=          14          32          12          12          12          12           1          12          12           1
 AtmWgt=  14.0030740  31.9720718  12.0000000  12.0000000  12.0000000  12.0000000   1.0078250  12.0000000  12.0000000   1.0078250
 NucSpn=           2           0           0           0           0           0           1           0           0           1
 AtZEff=  -0.0000000  -0.0000000  -0.0000000  -0.0000000  -0.0000000  -0.0000000  -0.0000000  -0.0000000  -0.0000000  -0.0000000
 NQMom=    2.0440000   0.0000000   0.0000000   0.0000000   0.0000000   0.0000000   0.0000000   0.0000000   0.0000000   0.0000000
 NMagM=    0.4037610   0.0000000   0.0000000   0.0000000   0.0000000   0.0000000   2.7928460   0.0000000   0.0000000   2.7928460
 AtZNuc=   7.0000000  16.0000000   6.0000000   6.0000000   6.0000000   6.0000000   1.0000000   6.0000000   6.0000000   1.0000000

  Atom        21          22          23          24          25
 IAtWgt=           1           1          12          16           1
 AtmWgt=   1.0078250   1.0078250  12.0000000  15.9949146   1.0078250
 NucSpn=           1           1           0           0           1
 AtZEff=  -0.0000000  -0.0000000  -0.0000000  -0.0000000  -0.0000000
 NQMom=    0.0000000   0.0000000   0.0000000   0.0000000   0.0000000
 NMagM=    2.7928460   2.7928460   0.0000000   0.0000000   2.7928460
 AtZNuc=   1.0000000   1.0000000   6.0000000   8.0000000   1.0000000
 Leave Link  101 at Tue Oct 27 23:40:41 2020, MaxMem=  7784628224 cpu:              32.5 elap:               3.3
 (Enter /gpfs/loomis/apps/avx/software/Gaussian/16-C.01_AVX/g16/l103.exe)

 GradGradGradGradGradGradGradGradGradGradGradGradGradGradGradGradGradGrad
 Berny optimization.
 Initialization pass.
                           ----------------------------
                           !    Initial Parameters    !
                           ! (Angstroms and Degrees)  !
 --------------------------                            --------------------------
 ! Name  Definition              Value          Derivative Info.                !
 --------------------------------------------------------------------------------
 ! R1    R(1,2)                  1.3893         estimate D2E/DX2                !
 ! R2    R(1,6)                  1.3927         estimate D2E/DX2                !
 ! R3    R(1,7)                  1.0921         estimate D2E/DX2                !
 ! R4    R(2,3)                  1.4345         estimate D2E/DX2                !
 ! R5    R(2,12)                 1.7408         estimate D2E/DX2                !
 ! R6    R(3,4)                  1.4324         estimate D2E/DX2                !
 ! R7    R(3,11)                 1.3321         estimate D2E/DX2                !
 ! R8    R(4,5)                  1.384          estimate D2E/DX2                !
 ! R9    R(4,8)                  1.0923         estimate D2E/DX2                !
 ! R10   R(5,6)                  1.4143         estimate D2E/DX2                !
 ! R11   R(5,9)                  1.0934         estimate D2E/DX2                !
 ! R12   R(6,10)                 1.092          estimate D2E/DX2                !
 ! R13   R(11,23)                1.3629         estimate D2E/DX2                !
 ! R14   R(12,23)                1.769          estimate D2E/DX2                !
 ! R15   R(13,14)                1.4296         estimate D2E/DX2                !
 ! R16   R(13,15)                1.4648         estimate D2E/DX2                !
 ! R17   R(13,23)                1.3995         estimate D2E/DX2                !
 ! R18   R(14,16)                1.3775         estimate D2E/DX2                !
 ! R19   R(14,17)                1.0922         estimate D2E/DX2                !
 ! R20   R(15,18)                1.3992         estimate D2E/DX2                !
 ! R21   R(15,24)                1.3286         estimate D2E/DX2                !
 ! R22   R(16,19)                1.4243         estimate D2E/DX2                !
 ! R23   R(16,20)                1.092          estimate D2E/DX2                !
 ! R24   R(18,19)                1.3946         estimate D2E/DX2                !
 ! R25   R(18,21)                1.092          estimate D2E/DX2                !
 ! R26   R(19,22)                1.0914         estimate D2E/DX2                !
 ! R27   R(24,25)                0.6643         estimate D2E/DX2                !
 ! A1    A(2,1,6)              118.473          estimate D2E/DX2                !
 ! A2    A(2,1,7)              120.5118         estimate D2E/DX2                !
 ! A3    A(6,1,7)              121.0151         estimate D2E/DX2                !
 ! A4    A(1,2,3)              122.8841         estimate D2E/DX2                !
 ! A5    A(1,2,12)             127.0576         estimate D2E/DX2                !
 ! A6    A(3,2,12)             110.0582         estimate D2E/DX2                !
 ! A7    A(2,3,4)              117.3074         estimate D2E/DX2                !
 ! A8    A(2,3,11)             115.1277         estimate D2E/DX2                !
 ! A9    A(4,3,11)             127.5649         estimate D2E/DX2                !
 ! A10   A(3,4,5)              119.1611         estimate D2E/DX2                !
 ! A11   A(3,4,8)              119.3991         estimate D2E/DX2                !
 ! A12   A(5,4,8)              121.4397         estimate D2E/DX2                !
 ! A13   A(4,5,6)              122.0139         estimate D2E/DX2                !
 ! A14   A(4,5,9)              119.2089         estimate D2E/DX2                !
 ! A15   A(6,5,9)              118.7772         estimate D2E/DX2                !
 ! A16   A(1,6,5)              120.1604         estimate D2E/DX2                !
 ! A17   A(1,6,10)             119.8755         estimate D2E/DX2                !
 ! A18   A(5,6,10)             119.9641         estimate D2E/DX2                !
 ! A19   A(3,11,23)            112.2138         estimate D2E/DX2                !
 ! A20   A(2,12,23)             88.8441         estimate D2E/DX2                !
 ! A21   A(14,13,15)           116.9887         estimate D2E/DX2                !
 ! A22   A(14,13,23)           124.6324         estimate D2E/DX2                !
 ! A23   A(15,13,23)           118.379          estimate D2E/DX2                !
 ! A24   A(13,14,16)           120.7002         estimate D2E/DX2                !
 ! A25   A(13,14,17)           118.8134         estimate D2E/DX2                !
 ! A26   A(16,14,17)           120.4864         estimate D2E/DX2                !
 ! A27   A(13,15,18)           121.3037         estimate D2E/DX2                !
 ! A28   A(13,15,24)           117.3949         estimate D2E/DX2                !
 ! A29   A(18,15,24)           121.3013         estimate D2E/DX2                !
 ! A30   A(14,16,19)           121.3015         estimate D2E/DX2                !
 ! A31   A(14,16,20)           119.6058         estimate D2E/DX2                !
 ! A32   A(19,16,20)           119.0928         estimate D2E/DX2                !
 ! A33   A(15,18,19)           119.5042         estimate D2E/DX2                !
 ! A34   A(15,18,21)           118.895          estimate D2E/DX2                !
 ! A35   A(19,18,21)           121.6008         estimate D2E/DX2                !
 ! A36   A(16,19,18)           120.2018         estimate D2E/DX2                !
 ! A37   A(16,19,22)           119.7618         estimate D2E/DX2                !
 ! A38   A(18,19,22)           120.0364         estimate D2E/DX2                !
 ! A39   A(11,23,12)           113.7561         estimate D2E/DX2                !
 ! A40   A(11,23,13)           124.6328         estimate D2E/DX2                !
 ! A41   A(12,23,13)           121.611          estimate D2E/DX2                !
 ! A42   A(15,24,25)           115.7142         estimate D2E/DX2                !
 ! D1    D(6,1,2,3)              0.0            estimate D2E/DX2                !
 ! D2    D(6,1,2,12)           180.0            estimate D2E/DX2                !
 ! D3    D(7,1,2,3)            179.9999         estimate D2E/DX2                !
 ! D4    D(7,1,2,12)            -0.0001         estimate D2E/DX2                !
 ! D5    D(2,1,6,5)             -0.0001         estimate D2E/DX2                !
 ! D6    D(2,1,6,10)           179.9999         estimate D2E/DX2                !
 ! D7    D(7,1,6,5)            180.0            estimate D2E/DX2                !
 ! D8    D(7,1,6,10)             0.0            estimate D2E/DX2                !
 ! D9    D(1,2,3,4)              0.0001         estimate D2E/DX2                !
 ! D10   D(1,2,3,11)          -180.0            estimate D2E/DX2                !
 ! D11   D(12,2,3,4)          -179.9999         estimate D2E/DX2                !
 ! D12   D(12,2,3,11)            0.0            estimate D2E/DX2                !
 ! D13   D(1,2,12,23)          179.9997         estimate D2E/DX2                !
 ! D14   D(3,2,12,23)           -0.0003         estimate D2E/DX2                !
 ! D15   D(2,3,4,5)             -0.0001         estimate D2E/DX2                !
 ! D16   D(2,3,4,8)            179.9999         estimate D2E/DX2                !
 ! D17   D(11,3,4,5)           180.0            estimate D2E/DX2                !
 ! D18   D(11,3,4,8)             0.0            estimate D2E/DX2                !
 ! D19   D(2,3,11,23)            0.0003         estimate D2E/DX2                !
 ! D20   D(4,3,11,23)         -179.9997         estimate D2E/DX2                !
 ! D21   D(3,4,5,6)              0.0            estimate D2E/DX2                !
 ! D22   D(3,4,5,9)           -179.9999         estimate D2E/DX2                !
 ! D23   D(8,4,5,6)            180.0            estimate D2E/DX2                !
 ! D24   D(8,4,5,9)              0.0            estimate D2E/DX2                !
 ! D25   D(4,5,6,1)              0.0001         estimate D2E/DX2                !
 ! D26   D(4,5,6,10)          -180.0            estimate D2E/DX2                !
 ! D27   D(9,5,6,1)           -179.9999         estimate D2E/DX2                !
 ! D28   D(9,5,6,10)             0.0            estimate D2E/DX2                !
 ! D29   D(3,11,23,12)          -0.0006         estimate D2E/DX2                !
 ! D30   D(3,11,23,13)         179.9986         estimate D2E/DX2                !
 ! D31   D(2,12,23,11)           0.0005         estimate D2E/DX2                !
 ! D32   D(2,12,23,13)        -179.9987         estimate D2E/DX2                !
 ! D33   D(15,13,14,16)          0.0008         estimate D2E/DX2                !
 ! D34   D(15,13,14,17)       -179.9996         estimate D2E/DX2                !
 ! D35   D(23,13,14,16)       -179.9994         estimate D2E/DX2                !
 ! D36   D(23,13,14,17)          0.0003         estimate D2E/DX2                !
 ! D37   D(14,13,15,18)         -0.0009         estimate D2E/DX2                !
 ! D38   D(14,13,15,24)        179.9989         estimate D2E/DX2                !
 ! D39   D(23,13,15,18)        179.9992         estimate D2E/DX2                !
 ! D40   D(23,13,15,24)         -0.001          estimate D2E/DX2                !
 ! D41   D(14,13,23,11)        179.9999         estimate D2E/DX2                !
 ! D42   D(14,13,23,12)         -0.001          estimate D2E/DX2                !
 ! D43   D(15,13,23,11)         -0.0002         estimate D2E/DX2                !
 ! D44   D(15,13,23,12)        179.9989         estimate D2E/DX2                !
 ! D45   D(13,14,16,19)         -0.0002         estimate D2E/DX2                !
 ! D46   D(13,14,16,20)        179.9998         estimate D2E/DX2                !
 ! D47   D(17,14,16,19)       -179.9999         estimate D2E/DX2                !
 ! D48   D(17,14,16,20)          0.0001         estimate D2E/DX2                !
 ! D49   D(13,15,18,19)          0.0005         estimate D2E/DX2                !
 ! D50   D(13,15,18,21)       -179.9999         estimate D2E/DX2                !
 ! D51   D(24,15,18,19)       -179.9993         estimate D2E/DX2                !
 ! D52   D(24,15,18,21)          0.0003         estimate D2E/DX2                !
 ! D53   D(13,15,24,25)          0.0013         estimate D2E/DX2                !
 ! D54   D(18,15,24,25)       -179.9989         estimate D2E/DX2                !
 ! D55   D(14,16,19,18)         -0.0002         estimate D2E/DX2                !
 ! D56   D(14,16,19,22)        179.9999         estimate D2E/DX2                !
 ! D57   D(20,16,19,18)        179.9998         estimate D2E/DX2                !
 ! D58   D(20,16,19,22)          0.0            estimate D2E/DX2                !
 ! D59   D(15,18,19,16)          0.0001         estimate D2E/DX2                !
 ! D60   D(15,18,19,22)        179.9999         estimate D2E/DX2                !
 ! D61   D(21,18,19,16)       -179.9995         estimate D2E/DX2                !
 ! D62   D(21,18,19,22)          0.0004         estimate D2E/DX2                !
 ! Qtot  GIC-1                 -50.0            Frozen                          !
 ! Ptot  GIC-2                 100.0            Frozen                          !
 --------------------------------------------------------------------------------
 NOTE: GIC-type coordinates are in arbitrary units.
 Trust Radius=3.00D-01 FncErr=5.00D-06 GrdErr=5.00D-06 EigMax=2.50D+02 EigMin=1.00D-04
 Number of steps in this run=    143 maximum allowed number of steps=    150.
 GradGradGradGradGradGradGradGradGradGradGradGradGradGradGradGradGradGrad

 Leave Link  103 at Tue Oct 27 23:40:41 2020, MaxMem=  7784628224 cpu:               0.1 elap:               0.1
 (Enter /gpfs/loomis/apps/avx/software/Gaussian/16-C.01_AVX/g16/l202.exe)
                          Input orientation:                          
 ---------------------------------------------------------------------
 Center     Atomic      Atomic             Coordinates (Angstroms)
 Number     Number       Type             X           Y           Z
 ---------------------------------------------------------------------
      1          6           0        1.588617   -3.263653   -0.000019
      2          6           0        0.990687   -2.009559   -0.000022
      3          6           0        1.742852   -0.788121   -0.000025
      4          6           0        3.171141   -0.895953   -0.000027
      5          6           0        3.752625   -2.151885   -0.000023
      6          6           0        2.979391   -3.336104   -0.000018
      7          1           0        0.977939   -4.169116   -0.000016
      8          1           0        3.777469    0.012627   -0.000031
      9          1           0        4.842890   -2.235111   -0.000024
     10          1           0        3.473356   -4.310037   -0.000015
     11          7           0        1.012545    0.325895   -0.000028
     12         16           0       -0.714776   -1.660511   -0.000024
     13          6           0       -1.326213    1.043056    0.000008
     14          6           0       -2.729384    0.769441    0.000015
     15          6           0       -0.923569    2.451455    0.000034
     16          6           0       -3.646378    1.797416    0.000029
     17          1           0       -3.062876   -0.270551    0.000004
     18          6           0       -1.873224    3.479085    0.000046
     19          6           0       -3.230805    3.159730    0.000043
     20          1           0       -4.714051    1.567971    0.000031
     21          1           0       -1.529194    4.515494    0.000064
     22          1           0       -3.978967    3.954385    0.000053
     23          6           0       -0.325190    0.065052   -0.000020
     24          8           0        0.378661    2.714985    0.000051
     25          1           0        0.779870    2.185540    0.000032
 ---------------------------------------------------------------------
                    Distance matrix (angstroms):
                    1          2          3          4          5
     1  C    0.000000
     2  C    1.389342   0.000000
     3  C    2.480332   1.434456   0.000000
     4  C    2.847874   2.448367   1.432354   0.000000
     5  C    2.432892   2.765603   2.428794   1.384012   0.000000
     6  C    1.392660   2.390536   2.832180   2.447674   1.414308
     7  H    1.092150   2.159595   3.466442   3.940017   3.430468
     8  H    3.940188   3.443165   2.186518   1.092314   2.164654
     9  H    3.412945   3.858801   3.421113   2.141983   1.093437
    10  H    2.155727   3.384648   3.924097   3.427434   2.176147
    11  N    3.635479   2.335556   1.332059   2.480413   3.694243
    12  S    2.806365   1.740816   2.607873   3.960417   4.494344
    13  C    5.200382   3.832295   3.573846   4.897545   6.000187
    14  C    5.908551   4.643465   4.735704   6.131047   7.109893
    15  C    6.242878   4.854381   4.195790   5.288836   6.561823
    16  C    7.281455   5.999619   5.977357   7.330266   8.387027
    17  H    5.531278   4.410841   4.833518   6.265309   7.070394
    18  C    7.579503   6.190897   5.593305   6.677318   7.959774
    19  C    8.030360   6.674020   6.350023   7.578488   8.773913
    20  H    7.941550   6.733703   6.873338   8.261185   9.247807
    21  H    8.380684   6.994720   6.231742   7.167768   8.505971
    22  H    9.115814   7.763124   7.431728   8.640013   9.852109
    23  C    3.839652   2.456734   2.237119   3.625998   4.641485
    24  O    6.099844   4.764020   3.759357   4.564736   5.921997
    25  H    5.508882   4.200393   3.125699   3.900484   5.258377
                    6          7          8          9         10
     6  C    0.000000
     7  H    2.167884   0.000000
     8  H    3.442517   5.032329   0.000000
     9  H    2.164444   4.321831   2.487458   0.000000
    10  H    1.092038   2.499393   4.333348   2.486150   0.000000
    11  N    4.156768   4.495144   2.782614   4.607635   5.248567
    12  S    4.056412   3.026282   4.793710   5.587291   4.955849
    13  C    6.141275   5.698758   5.206664   6.986001   7.189678
    14  C    7.031757   6.175240   6.550717   8.146574   8.017174
    15  C    6.980611   6.888228   5.296002   7.430743   8.065402
    16  C    8.381756   7.548761   7.635376   9.398348   9.380383
    17  H    6.775441   5.614890   6.846203   8.146203   7.683734
    18  C    8.366282   8.162360   6.629228   8.818063   9.447558
    19  C    8.986790   8.451361   7.682458   9.710246  10.037091
    20  H    9.123541   8.081640   8.632786  10.285843  10.078919
    21  H    9.054000   9.039256   6.959632   9.283002  10.144727
    22  H   10.078193   9.516416   8.700561  10.776596  11.128243
    23  C    4.742163   4.430160   4.102993   5.656836   5.793992
    24  O    6.586309   6.910135   4.342192   6.665792   7.676462
    25  H    5.943606   6.357742   3.702317   6.004189   7.031884
                   11         12         13         14         15
    11  N    0.000000
    12  S    2.632384   0.000000
    13  C    2.446244   2.771846   0.000000
    14  C    3.768124   3.156472   1.429598   0.000000
    15  C    2.875159   4.117263   1.464824   2.467820   0.000000
    16  C    4.885789   4.533381   2.439718   1.377537   2.800260
    17  H    4.118835   2.728655   2.177512   1.092154   3.462073
    18  C    4.274374   5.268535   2.496690   2.841686   1.399239
    19  C    5.102611   5.437382   2.847417   2.442315   2.413502
    20  H    5.859748   5.139776   3.428262   2.139288   3.892082
    21  H    4.900324   6.229471   3.478365   3.933619   2.151055
    22  H    6.170991   6.494767   3.938647   3.421304   3.405034
    23  C    1.362928   1.768995   1.399479   2.505257   2.460280
    24  O    2.471752   4.510052   2.387874   3.666753   1.328627
    25  H    1.874145   4.126267   2.396009   3.784204   1.724069
                   16         17         18         19         20
    16  C    0.000000
    17  H    2.148711   0.000000
    18  C    2.443786   3.933833   0.000000
    19  C    1.424290   3.434389   1.394638   0.000000
    20  H    1.092049   2.471142   3.423836   2.175710   0.000000
    21  H    3.445347   5.025774   1.092016   2.175678   4.339494
    22  H    2.182460   4.323113   2.158718   1.091431   2.497062
    23  C    3.745848   2.758179   3.748605   4.244954   4.639059
    24  O    4.128301   4.556051   2.377990   3.636763   5.220283
    25  H    4.443232   4.560601   2.951638   4.127295   5.528523
                   21         22         23         24         25
    21  H    0.000000
    22  H    2.513212   0.000000
    23  C    4.610429   5.336385   0.000000
    24  O    2.623308   4.530457   2.741815   0.000000
    25  H    3.280314   5.076942   2.391157   0.664289   0.000000
 Symmetry turned off by external request.
 Stoichiometry    C13H9NOS
 Framework group  C1[X(C13H9NOS)]
 Deg. of freedom    69
 Full point group                 C1      NOp   1
 Rotational constants (GHZ):           1.3861335           0.2863254           0.2373064
 Leave Link  202 at Tue Oct 27 23:40:41 2020, MaxMem=  7784628224 cpu:               0.1 elap:               0.0
 (Enter /gpfs/loomis/apps/avx/software/Gaussian/16-C.01_AVX/g16/l301.exe)
 Standard basis: CC-pVDZ (5D, 7F)
 Ernie: Thresh=  0.10000D-02 Tol=  0.10000D-05 Strict=F.
 Ernie:  40 primitive shells out of 425 were deleted.
   273 basis functions,   629 primitive gaussians,   289 cartesian basis functions
    59 alpha electrons       59 beta electrons
       nuclear repulsion energy      1100.4694195836 Hartrees.
 IExCor= 4639 DFT=T Ex+Corr=wB97XD ExCW=0 ScaHFX=  1.000000
 ScaDFX=  1.000000  1.000000  1.000000  1.000000 ScalE2=  1.000000  1.000000
 IRadAn=      5 IRanWt=     -1 IRanGd=            0 ICorTp=0 IEmpDi=121
 HFx  wShort=  0.000000 wLong=  0.200000 cFull=  0.222036 cShort=  0.000000 cLong=  0.777964
 DFx  wShort=  0.000000 wLong=  0.200000 cFull=  0.000000 cShort=  0.000000 cLong=  1.000000
 NAtoms=   25 NActive=   25 NUniq=   25 SFac= 1.00D+00 NAtFMM=   60 NAOKFM=F Big=F
 Integral buffers will be    131072 words long.
 Raffenetti 2 integral format.
 Two-electron integral symmetry is turned off.
 R6Disp:  Grimme-D2 Dispersion energy=       -0.0138736374 Hartrees.
 Nuclear repulsion after empirical dispersion term =     1100.4555459462 Hartrees.
 ------------------------------------------------------------------------------
 Polarizable Continuum Model (PCM)
 =================================
 Model                : PCM.
 Atomic radii         : UFF (Universal Force Field).
 Polarization charges : Total charges.
 Charge compensation  : None.
 Solution method      : On-the-fly selection.
 Cavity type          : Scaled VdW (van der Waals Surface) (Alpha=1.100).
 Cavity algorithm     : GePol (No added spheres)
                        Default sphere list used, NSphG=   25.
                        Lebedev-Laikov grids with approx.  5.0 points / Ang**2.
                        Smoothing algorithm: York/Karplus (Gamma=1.0000).
                        Polarization charges: spherical gaussians, with
                                              point-specific exponents (IZeta= 3).
                        Self-potential: point-specific (ISelfS= 7).
                        Self-field    : sphere-specific E.n sum rule (ISelfD= 2).
 1st derivatives      : Analytical E(r).r(x)/FMM algorithm (CHGder, D1EAlg=3).
                        Cavity 1st derivative terms included.
 Solvent              : CarbonTetraChloride, Eps=   2.228000 Eps(inf)=   2.131892
 ------------------------------------------------------------------------------
 GePol: Number of generator spheres                  =      25
 GePol: Total number of spheres                      =      25
 GePol: Number of exposed spheres                    =      25 (100.00%)
 GePol: Number of points                             =    2193
 GePol: Average weight of points                     =       0.12
 GePol: Minimum weight of points                     =   0.26D-10
 GePol: Maximum weight of points                     =    0.20577
 GePol: Number of points with low weight             =     148
 GePol: Fraction of low-weight points (<1% of avg)   =       6.75%
 GePol: Cavity surface area                          =    272.039 Ang**2
 GePol: Cavity volume                                =    291.885 Ang**3
 Leave Link  301 at Tue Oct 27 23:40:41 2020, MaxMem=  7784628224 cpu:               0.8 elap:               0.1
 (Enter /gpfs/loomis/apps/avx/software/Gaussian/16-C.01_AVX/g16/l302.exe)
 NPDir=0 NMtPBC=     1 NCelOv=     1 NCel=       1 NClECP=     1 NCelD=      1
         NCelK=      1 NCelE2=     1 NClLst=     1 CellRange=     0.0.
 One-electron integrals computed using PRISM.
 NBasis=   273 RedAO= T EigKep=  3.23D-04  NBF=   273
 NBsUse=   273 1.00D-06 EigRej= -1.00D+00 NBFU=   273
 Precomputing XC quadrature grid using
 IXCGrd= 4 IRadAn=           5 IRanWt=          -1 IRanGd=           0 AccXCQ= 0.00D+00.
 Generated NRdTot=       0 NPtTot=           0 NUsed=           0 NTot=          32
 NSgBfM=   288   288   288   288   288 MxSgAt=    25 MxSgA2=    25.
 Leave Link  302 at Tue Oct 27 23:40:42 2020, MaxMem=  7784628224 cpu:               2.6 elap:               0.3
 (Enter /gpfs/loomis/apps/avx/software/Gaussian/16-C.01_AVX/g16/l303.exe)
 DipDrv:  MaxL=1.
 Leave Link  303 at Tue Oct 27 23:40:42 2020, MaxMem=  7784628224 cpu:               0.4 elap:               0.1
 (Enter /gpfs/loomis/apps/avx/software/Gaussian/16-C.01_AVX/g16/l401.exe)
 ExpMin= 1.22D-01 ExpMax= 1.11D+05 ExpMxC= 1.07D+03 IAcc=3 IRadAn=         5 AccDes= 0.00D+00
 Harris functional with IExCor= 4639 and IRadAn=       5 diagonalized for initial guess.
 HarFok:  IExCor= 4639 AccDes= 0.00D+00 IRadAn=         5 IDoV= 1 UseB2=F ITyADJ=14
 ICtDFT=  3500011 ScaDFX=  1.000000  1.000000  1.000000  1.000000
 FoFCou: FMM=F IPFlag=           0 FMFlag=      100000 FMFlg1=           0
         NFxFlg=           0 DoJE=T BraDBF=F KetDBF=T FulRan=T
         wScrn=  0.000000 ICntrl=       500 IOpCl=  0 I1Cent=   200000004 NGrid=           0
         NMat0=    1 NMatS0=      1 NMatT0=    0 NMatD0=    1 NMtDS0=    0 NMtDT0=    0
 Symmetry not used in FoFCou.
 Harris En= -994.228679226281    
 JPrj=0 DoOrth=F DoCkMO=F.
 Leave Link  401 at Tue Oct 27 23:40:44 2020, MaxMem=  7784628224 cpu:              14.9 elap:               1.5
 (Enter /gpfs/loomis/apps/avx/software/Gaussian/16-C.01_AVX/g16/l502.exe)
 Two-electron integral symmetry not used.
 Closed shell SCF:
 Using DIIS extrapolation, IDIIS=  1040.
 NGot=  7784628224 LenX=  7784455381 LenY=  7784371419
 Requested convergence on RMS density matrix=1.00D-08 within 128 cycles.
 Requested convergence on MAX density matrix=1.00D-06.
 Requested convergence on             energy=1.00D-06.
 No special actions if energy rises.
 Fock matrices will be formed incrementally for  20 cycles.

 Cycle   1  Pass 1  IDiag  1:
 FoFJK:  IHMeth= 1 ICntrl=       0 DoSepK=T KAlg= 0 I1Cent=           0 FoldK=F
 IRaf=         1 NMat=       1 IRICut=       1 DoRegI=T DoRafI=F ISym2E= 0 IDoP0=0 IntGTp=1.
 FoFCou: FMM=F IPFlag=           0 FMFlag=      100000 FMFlg1=           0
         NFxFlg=           0 DoJE=T BraDBF=F KetDBF=F FulRan=T
         wScrn=  0.000000 ICntrl=       500 IOpCl=  0 I1Cent=           0 NGrid=           0
         NMat0=    1 NMatS0=      1 NMatT0=    0 NMatD0=    1 NMtDS0=    0 NMtDT0=    0
 Symmetry not used in FoFCou.
 Inv3:  Mode=1 IEnd=    14427747.
 Iteration    1 A*A^-1 deviation from unit magnitude is 4.00D-15 for   2178.
 Iteration    1 A*A^-1 deviation from orthogonality  is 2.16D-15 for   2178   2076.
 Iteration    1 A^-1*A deviation from unit magnitude is 4.22D-15 for   2178.
 Iteration    1 A^-1*A deviation from orthogonality  is 1.85D-15 for   2175   2087.
 E= -1028.40229716402    
 DIIS: error= 3.04D-02 at cycle   1 NSaved=   1.
 NSaved= 1 IEnMin= 1 EnMin= -1028.40229716402     IErMin= 1 ErrMin= 3.04D-02
 ErrMax= 3.04D-02  0.00D+00 EMaxC= 1.00D-01 BMatC= 3.72D-01 BMatP= 3.72D-01
 IDIUse=3 WtCom= 6.96D-01 WtEn= 3.04D-01
 Coeff-Com:  0.100D+01
 Coeff-En:   0.100D+01
 Coeff:      0.100D+01
 Gap=     0.359 Goal=   None    Shift=    0.000
 GapD=    0.359 DampG=1.000 DampE=0.500 DampFc=0.5000 IDamp=-1.
 Damping current iteration by 5.00D-01
 RMSDP=3.41D-03 MaxDP=2.25D-01              OVMax= 1.72D-01

 Cycle   2  Pass 1  IDiag  1:
 RMSU=  1.70D-03    CP:  9.94D-01
 E= -1028.51121002063     Delta-E=       -0.108912856613 Rises=F Damp=T
 DIIS: error= 1.12D-02 at cycle   2 NSaved=   2.
 NSaved= 2 IEnMin= 2 EnMin= -1028.51121002063     IErMin= 2 ErrMin= 1.12D-02
 ErrMax= 1.12D-02  0.00D+00 EMaxC= 1.00D-01 BMatC= 5.70D-02 BMatP= 3.72D-01
 IDIUse=3 WtCom= 8.88D-01 WtEn= 1.12D-01
 Coeff-Com: -0.338D+00 0.134D+01
 Coeff-En:   0.000D+00 0.100D+01
 Coeff:     -0.300D+00 0.130D+01
 Gap=     0.301 Goal=   None    Shift=    0.000
 RMSDP=1.13D-03 MaxDP=2.05D-02 DE=-1.09D-01 OVMax= 1.28D-01

 Cycle   3  Pass 1  IDiag  1:
 RMSU=  1.06D-03    CP:  9.90D-01  1.21D+00
 E= -1028.60544599694     Delta-E=       -0.094235976312 Rises=F Damp=F
 DIIS: error= 6.31D-03 at cycle   3 NSaved=   3.
 NSaved= 3 IEnMin= 3 EnMin= -1028.60544599694     IErMin= 3 ErrMin= 6.31D-03
 ErrMax= 6.31D-03  0.00D+00 EMaxC= 1.00D-01 BMatC= 1.16D-02 BMatP= 5.70D-02
 IDIUse=3 WtCom= 9.37D-01 WtEn= 6.31D-02
 Coeff-Com: -0.208D+00 0.487D+00 0.722D+00
 Coeff-En:   0.000D+00 0.000D+00 0.100D+01
 Coeff:     -0.195D+00 0.456D+00 0.739D+00
 Gap=     0.263 Goal=   None    Shift=    0.000
 RMSDP=4.98D-04 MaxDP=1.94D-02 DE=-9.42D-02 OVMax= 4.03D-02

 Cycle   4  Pass 1  IDiag  1:
 RMSU=  3.63D-04    CP:  9.89D-01  1.39D+00  8.45D-01
 E= -1028.61677262640     Delta-E=       -0.011326629460 Rises=F Damp=F
 DIIS: error= 2.20D-03 at cycle   4 NSaved=   4.
 NSaved= 4 IEnMin= 4 EnMin= -1028.61677262640     IErMin= 4 ErrMin= 2.20D-03
 ErrMax= 2.20D-03  0.00D+00 EMaxC= 1.00D-01 BMatC= 1.78D-03 BMatP= 1.16D-02
 IDIUse=3 WtCom= 9.78D-01 WtEn= 2.20D-02
 Coeff-Com: -0.814D-01 0.163D+00 0.374D+00 0.544D+00
 Coeff-En:   0.000D+00 0.000D+00 0.000D+00 0.100D+01
 Coeff:     -0.796D-01 0.159D+00 0.366D+00 0.554D+00
 Gap=     0.262 Goal=   None    Shift=    0.000
 RMSDP=1.59D-04 MaxDP=9.33D-03 DE=-1.13D-02 OVMax= 1.18D-02

 Cycle   5  Pass 1  IDiag  1:
 RMSU=  1.02D-04    CP:  9.88D-01  1.39D+00  9.15D-01  7.38D-01
 E= -1028.61862799443     Delta-E=       -0.001855368027 Rises=F Damp=F
 DIIS: error= 4.68D-04 at cycle   5 NSaved=   5.
 NSaved= 5 IEnMin= 5 EnMin= -1028.61862799443     IErMin= 5 ErrMin= 4.68D-04
 ErrMax= 4.68D-04  0.00D+00 EMaxC= 1.00D-01 BMatC= 7.05D-05 BMatP= 1.78D-03
 IDIUse=3 WtCom= 9.95D-01 WtEn= 4.68D-03
 Coeff-Com: -0.611D-02 0.648D-02 0.567D-01 0.193D+00 0.750D+00
 Coeff-En:   0.000D+00 0.000D+00 0.000D+00 0.000D+00 0.100D+01
 Coeff:     -0.608D-02 0.645D-02 0.564D-01 0.192D+00 0.751D+00
 Gap=     0.262 Goal=   None    Shift=    0.000
 RMSDP=4.88D-05 MaxDP=1.62D-03 DE=-1.86D-03 OVMax= 4.67D-03

 Cycle   6  Pass 1  IDiag  1:
 RMSU=  3.34D-05    CP:  9.88D-01  1.40D+00  9.31D-01  8.20D-01  1.04D+00
 E= -1028.61874463663     Delta-E=       -0.000116642200 Rises=F Damp=F
 DIIS: error= 1.60D-04 at cycle   6 NSaved=   6.
 NSaved= 6 IEnMin= 6 EnMin= -1028.61874463663     IErMin= 6 ErrMin= 1.60D-04
 ErrMax= 1.60D-04  0.00D+00 EMaxC= 1.00D-01 BMatC= 9.43D-06 BMatP= 7.05D-05
 IDIUse=3 WtCom= 9.98D-01 WtEn= 1.60D-03
 Coeff-Com:  0.154D-01-0.320D-01-0.564D-01-0.435D-01 0.210D+00 0.906D+00
 Coeff-En:   0.000D+00 0.000D+00 0.000D+00 0.000D+00 0.000D+00 0.100D+01
 Coeff:      0.153D-01-0.319D-01-0.563D-01-0.434D-01 0.210D+00 0.906D+00
 Gap=     0.263 Goal=   None    Shift=    0.000
 RMSDP=3.21D-05 MaxDP=1.56D-03 DE=-1.17D-04 OVMax= 3.05D-03

 Cycle   7  Pass 1  IDiag  1:
 RMSU=  1.73D-05    CP:  9.88D-01  1.40D+00  9.44D-01  8.61D-01  1.20D+00
                    CP:  1.19D+00
 E= -1028.61877233150     Delta-E=       -0.000027694873 Rises=F Damp=F
 DIIS: error= 1.16D-04 at cycle   7 NSaved=   7.
 NSaved= 7 IEnMin= 7 EnMin= -1028.61877233150     IErMin= 7 ErrMin= 1.16D-04
 ErrMax= 1.16D-04  0.00D+00 EMaxC= 1.00D-01 BMatC= 2.16D-06 BMatP= 9.43D-06
 IDIUse=3 WtCom= 9.99D-01 WtEn= 1.16D-03
 Coeff-Com:  0.732D-02-0.142D-01-0.314D-01-0.455D-01-0.264D-01 0.387D+00
 Coeff-Com:  0.723D+00
 Coeff-En:   0.000D+00 0.000D+00 0.000D+00 0.000D+00 0.000D+00 0.000D+00
 Coeff-En:   0.100D+01
 Coeff:      0.731D-02-0.141D-01-0.313D-01-0.455D-01-0.263D-01 0.387D+00
 Coeff:      0.723D+00
 Gap=     0.263 Goal=   None    Shift=    0.000
 RMSDP=1.08D-05 MaxDP=5.75D-04 DE=-2.77D-05 OVMax= 1.33D-03

 Cycle   8  Pass 1  IDiag  1:
 RMSU=  7.18D-06    CP:  9.88D-01  1.40D+00  9.46D-01  8.66D-01  1.24D+00
                    CP:  1.38D+00  1.04D+00
 E= -1028.61877694282     Delta-E=       -0.000004611323 Rises=F Damp=F
 DIIS: error= 3.51D-05 at cycle   8 NSaved=   8.
 NSaved= 8 IEnMin= 8 EnMin= -1028.61877694282     IErMin= 8 ErrMin= 3.51D-05
 ErrMax= 3.51D-05  0.00D+00 EMaxC= 1.00D-01 BMatC= 2.52D-07 BMatP= 2.16D-06
 IDIUse=1 WtCom= 1.00D+00 WtEn= 0.00D+00
 Coeff-Com: -0.845D-03 0.200D-02 0.180D-02-0.351D-02-0.408D-01-0.466D-01
 Coeff-Com:  0.217D+00 0.871D+00
 Coeff:     -0.845D-03 0.200D-02 0.180D-02-0.351D-02-0.408D-01-0.466D-01
 Coeff:      0.217D+00 0.871D+00
 Gap=     0.263 Goal=   None    Shift=    0.000
 RMSDP=4.70D-06 MaxDP=1.49D-04 DE=-4.61D-06 OVMax= 6.48D-04

 Cycle   9  Pass 1  IDiag  1:
 RMSU=  2.20D-06    CP:  9.88D-01  1.40D+00  9.46D-01  8.67D-01  1.25D+00
                    CP:  1.45D+00  1.23D+00  1.11D+00
 E= -1028.61877765353     Delta-E=       -0.000000710704 Rises=F Damp=F
 DIIS: error= 1.56D-05 at cycle   9 NSaved=   9.
 NSaved= 9 IEnMin= 9 EnMin= -1028.61877765353     IErMin= 9 ErrMin= 1.56D-05
 ErrMax= 1.56D-05  0.00D+00 EMaxC= 1.00D-01 BMatC= 4.51D-08 BMatP= 2.52D-07
 IDIUse=1 WtCom= 1.00D+00 WtEn= 0.00D+00
 Coeff-Com: -0.121D-02 0.244D-02 0.464D-02 0.509D-02-0.107D-01-0.692D-01
 Coeff-Com: -0.172D-01 0.316D+00 0.770D+00
 Coeff:     -0.121D-02 0.244D-02 0.464D-02 0.509D-02-0.107D-01-0.692D-01
 Coeff:     -0.172D-01 0.316D+00 0.770D+00
 Gap=     0.263 Goal=   None    Shift=    0.000
 RMSDP=1.85D-06 MaxDP=5.85D-05 DE=-7.11D-07 OVMax= 1.90D-04

 Cycle  10  Pass 1  IDiag  1:
 RMSU=  9.47D-07    CP:  9.88D-01  1.40D+00  9.45D-01  8.67D-01  1.25D+00
                    CP:  1.47D+00  1.27D+00  1.26D+00  1.09D+00
 E= -1028.61877776737     Delta-E=       -0.000000113837 Rises=F Damp=F
 DIIS: error= 6.69D-06 at cycle  10 NSaved=  10.
 NSaved=10 IEnMin=10 EnMin= -1028.61877776737     IErMin=10 ErrMin= 6.69D-06
 ErrMax= 6.69D-06  0.00D+00 EMaxC= 1.00D-01 BMatC= 6.63D-09 BMatP= 4.51D-08
 IDIUse=1 WtCom= 1.00D+00 WtEn= 0.00D+00
 Coeff-Com: -0.259D-03 0.480D-03 0.125D-02 0.244D-02 0.283D-02-0.194D-01
 Coeff-Com: -0.439D-01-0.316D-01 0.238D+00 0.850D+00
 Coeff:     -0.259D-03 0.480D-03 0.125D-02 0.244D-02 0.283D-02-0.194D-01
 Coeff:     -0.439D-01-0.316D-01 0.238D+00 0.850D+00
 Gap=     0.263 Goal=   None    Shift=    0.000
 RMSDP=9.18D-07 MaxDP=3.13D-05 DE=-1.14D-07 OVMax= 1.34D-04

 Cycle  11  Pass 1  IDiag  1:
 RMSU=  4.29D-07    CP:  9.88D-01  1.40D+00  9.45D-01  8.67D-01  1.26D+00
                    CP:  1.48D+00  1.29D+00  1.32D+00  1.30D+00  1.14D+00
 E= -1028.61877779268     Delta-E=       -0.000000025310 Rises=F Damp=F
 DIIS: error= 2.92D-06 at cycle  11 NSaved=  11.
 NSaved=11 IEnMin=11 EnMin= -1028.61877779268     IErMin=11 ErrMin= 2.92D-06
 ErrMax= 2.92D-06  0.00D+00 EMaxC= 1.00D-01 BMatC= 1.57D-09 BMatP= 6.63D-09
 IDIUse=1 WtCom= 1.00D+00 WtEn= 0.00D+00
 Coeff-Com:  0.142D-03-0.296D-03-0.454D-03-0.575D-04 0.280D-02 0.451D-02
 Coeff-Com: -0.953D-02-0.513D-01-0.645D-01 0.303D+00 0.816D+00
 Coeff:      0.142D-03-0.296D-03-0.454D-03-0.575D-04 0.280D-02 0.451D-02
 Coeff:     -0.953D-02-0.513D-01-0.645D-01 0.303D+00 0.816D+00
 Gap=     0.263 Goal=   None    Shift=    0.000
 RMSDP=3.62D-07 MaxDP=7.81D-06 DE=-2.53D-08 OVMax= 5.46D-05

 Cycle  12  Pass 1  IDiag  1:
 RMSU=  1.64D-07    CP:  9.88D-01  1.40D+00  9.45D-01  8.67D-01  1.26D+00
                    CP:  1.48D+00  1.29D+00  1.33D+00  1.37D+00  1.37D+00
                    CP:  1.11D+00
 E= -1028.61877779777     Delta-E=       -0.000000005095 Rises=F Damp=F
 DIIS: error= 9.58D-07 at cycle  12 NSaved=  12.
 NSaved=12 IEnMin=12 EnMin= -1028.61877779777     IErMin=12 ErrMin= 9.58D-07
 ErrMax= 9.58D-07  0.00D+00 EMaxC= 1.00D-01 BMatC= 2.74D-10 BMatP= 1.57D-09
 IDIUse=1 WtCom= 1.00D+00 WtEn= 0.00D+00
 Coeff-Com:  0.106D-03-0.207D-03-0.449D-03-0.572D-03 0.378D-03 0.600D-02
 Coeff-Com:  0.707D-02-0.761D-02-0.935D-01-0.103D+00 0.214D+00 0.978D+00
 Coeff:      0.106D-03-0.207D-03-0.449D-03-0.572D-03 0.378D-03 0.600D-02
 Coeff:      0.707D-02-0.761D-02-0.935D-01-0.103D+00 0.214D+00 0.978D+00
 Gap=     0.263 Goal=   None    Shift=    0.000
 RMSDP=2.26D-07 MaxDP=4.77D-06 DE=-5.10D-09 OVMax= 3.45D-05

 Cycle  13  Pass 1  IDiag  1:
 RMSU=  6.79D-08    CP:  9.88D-01  1.40D+00  9.45D-01  8.67D-01  1.26D+00
                    CP:  1.48D+00  1.30D+00  1.34D+00  1.41D+00  1.49D+00
                    CP:  1.40D+00  1.28D+00
 E= -1028.61877779910     Delta-E=       -0.000000001329 Rises=F Damp=F
 DIIS: error= 4.52D-07 at cycle  13 NSaved=  13.
 NSaved=13 IEnMin=13 EnMin= -1028.61877779910     IErMin=13 ErrMin= 4.52D-07
 ErrMax= 4.52D-07  0.00D+00 EMaxC= 1.00D-01 BMatC= 2.99D-11 BMatP= 2.74D-10
 IDIUse=1 WtCom= 1.00D+00 WtEn= 0.00D+00
 Coeff-Com:  0.510D-06 0.128D-05-0.271D-04-0.105D-03-0.238D-03 0.721D-03
 Coeff-Com:  0.289D-02 0.709D-02-0.121D-01-0.606D-01-0.886D-01 0.210D+00
 Coeff-Com:  0.941D+00
 Coeff:      0.510D-06 0.128D-05-0.271D-04-0.105D-03-0.238D-03 0.721D-03
 Coeff:      0.289D-02 0.709D-02-0.121D-01-0.606D-01-0.886D-01 0.210D+00
 Coeff:      0.941D+00
 Gap=     0.263 Goal=   None    Shift=    0.000
 RMSDP=6.74D-08 MaxDP=1.67D-06 DE=-1.33D-09 OVMax= 9.23D-06

 Cycle  14  Pass 1  IDiag  1:
 RMSU=  2.50D-08    CP:  9.88D-01  1.40D+00  9.45D-01  8.67D-01  1.26D+00
                    CP:  1.48D+00  1.30D+00  1.35D+00  1.42D+00  1.53D+00
                    CP:  1.47D+00  1.49D+00  1.21D+00
 E= -1028.61877779923     Delta-E=       -0.000000000128 Rises=F Damp=F
 DIIS: error= 1.16D-07 at cycle  14 NSaved=  14.
 NSaved=14 IEnMin=14 EnMin= -1028.61877779923     IErMin=14 ErrMin= 1.16D-07
 ErrMax= 1.16D-07  0.00D+00 EMaxC= 1.00D-01 BMatC= 4.55D-12 BMatP= 2.99D-11
 IDIUse=1 WtCom= 1.00D+00 WtEn= 0.00D+00
 Coeff-Com: -0.111D-04 0.226D-04 0.392D-04 0.254D-04-0.121D-03-0.397D-03
 Coeff-Com:  0.141D-03 0.319D-02 0.529D-02-0.793D-02-0.517D-01-0.299D-01
 Coeff-Com:  0.329D+00 0.753D+00
 Coeff:     -0.111D-04 0.226D-04 0.392D-04 0.254D-04-0.121D-03-0.397D-03
 Coeff:      0.141D-03 0.319D-02 0.529D-02-0.793D-02-0.517D-01-0.299D-01
 Coeff:      0.329D+00 0.753D+00
 Gap=     0.263 Goal=   None    Shift=    0.000
 RMSDP=1.57D-08 MaxDP=3.87D-07 DE=-1.28D-10 OVMax= 2.11D-06

 Cycle  15  Pass 1  IDiag  1:
 RMSU=  8.64D-09    CP:  9.88D-01  1.40D+00  9.45D-01  8.67D-01  1.26D+00
                    CP:  1.48D+00  1.30D+00  1.35D+00  1.42D+00  1.53D+00
                    CP:  1.48D+00  1.53D+00  1.34D+00  1.07D+00
 E= -1028.61877779924     Delta-E=       -0.000000000011 Rises=F Damp=F
 DIIS: error= 4.98D-08 at cycle  15 NSaved=  15.
 NSaved=15 IEnMin=15 EnMin= -1028.61877779924     IErMin=15 ErrMin= 4.98D-08
 ErrMax= 4.98D-08  0.00D+00 EMaxC= 1.00D-01 BMatC= 4.79D-13 BMatP= 4.55D-12
 IDIUse=1 WtCom= 1.00D+00 WtEn= 0.00D+00
 Coeff-Com: -0.252D-05 0.467D-05 0.142D-04 0.248D-04 0.478D-05-0.235D-03
 Coeff-Com: -0.510D-03-0.415D-03 0.343D-02 0.877D-02 0.205D-02-0.460D-01
 Coeff-Com: -0.820D-01 0.146D+00 0.969D+00
 Coeff:     -0.252D-05 0.467D-05 0.142D-04 0.248D-04 0.478D-05-0.235D-03
 Coeff:     -0.510D-03-0.415D-03 0.343D-02 0.877D-02 0.205D-02-0.460D-01
 Coeff:     -0.820D-01 0.146D+00 0.969D+00
 Gap=     0.263 Goal=   None    Shift=    0.000
 RMSDP=8.00D-09 MaxDP=1.92D-07 DE=-1.11D-11 OVMax= 8.88D-07

 Error on total polarization charges =  0.00815
 SCF Done:  E(RwB97XD) =  -1028.61877780     A.U. after   15 cycles
            NFock= 15  Conv=0.80D-08     -V/T= 2.0038
 KE= 1.024723467671D+03 PE=-4.613358568584D+03 EE= 1.459560777167D+03
 Leave Link  502 at Tue Oct 27 23:42:07 2020, MaxMem=  7784628224 cpu:             827.8 elap:              83.7
 (Enter /gpfs/loomis/apps/avx/software/Gaussian/16-C.01_AVX/g16/l601.exe)
 Copying SCF densities to generalized density rwf, IOpCl= 0 IROHF=0.

 **********************************************************************

            Population analysis using the SCF Density.

 **********************************************************************

 Alpha  occ. eigenvalues --  -89.08425 -19.27082 -14.46015 -10.38937 -10.38868
 Alpha  occ. eigenvalues --  -10.34546 -10.34183 -10.32898 -10.32586 -10.32497
 Alpha  occ. eigenvalues --  -10.31790 -10.31322 -10.31307 -10.31206 -10.31100
 Alpha  occ. eigenvalues --  -10.31088  -8.10455  -6.05286  -6.04952  -6.04531
 Alpha  occ. eigenvalues --   -1.25851  -1.07769  -0.97459  -0.95566  -0.91734
 Alpha  occ. eigenvalues --   -0.88774  -0.87296  -0.84321  -0.82667  -0.77537
 Alpha  occ. eigenvalues --   -0.73571  -0.70333  -0.69827  -0.68367  -0.64981
 Alpha  occ. eigenvalues --   -0.60264  -0.59550  -0.58396  -0.56273  -0.54855
 Alpha  occ. eigenvalues --   -0.53915  -0.53676  -0.52623  -0.51014  -0.50645
 Alpha  occ. eigenvalues --   -0.49173  -0.48130  -0.46238  -0.45625  -0.45065
 Alpha  occ. eigenvalues --   -0.43660  -0.43305  -0.42000  -0.39584  -0.37028
 Alpha  occ. eigenvalues --   -0.36450  -0.32426  -0.31557  -0.28217
 Alpha virt. eigenvalues --   -0.01886   0.05456   0.06524   0.07081   0.08117
 Alpha virt. eigenvalues --    0.11459   0.14176   0.15372   0.16799   0.18079
 Alpha virt. eigenvalues --    0.18597   0.21427   0.21738   0.22354   0.22968
 Alpha virt. eigenvalues --    0.23807   0.23842   0.24702   0.28268   0.30691
 Alpha virt. eigenvalues --    0.32219   0.33599   0.34861   0.36025   0.37187
 Alpha virt. eigenvalues --    0.38039   0.38833   0.40753   0.43778   0.45761
 Alpha virt. eigenvalues --    0.46557   0.49181   0.50530   0.51417   0.51619
 Alpha virt. eigenvalues --    0.52661   0.53561   0.54558   0.55026   0.55902
 Alpha virt. eigenvalues --    0.56084   0.56329   0.57174   0.58069   0.58219
 Alpha virt. eigenvalues --    0.58822   0.59090   0.59546   0.59977   0.59988
 Alpha virt. eigenvalues --    0.60675   0.61022   0.62517   0.62814   0.63768
 Alpha virt. eigenvalues --    0.65605   0.66271   0.66498   0.68343   0.69214
 Alpha virt. eigenvalues --    0.70991   0.72142   0.72653   0.72890   0.73413
 Alpha virt. eigenvalues --    0.73958   0.75324   0.76043   0.77969   0.78929
 Alpha virt. eigenvalues --    0.78986   0.79569   0.81606   0.81937   0.82433
 Alpha virt. eigenvalues --    0.84953   0.90593   0.92215   0.93494   0.94534
 Alpha virt. eigenvalues --    0.95148   0.95204   0.96520   0.97130   0.97647
 Alpha virt. eigenvalues --    0.98457   0.99081   1.00664   1.01240   1.02508
 Alpha virt. eigenvalues --    1.03178   1.05571   1.06515   1.07041   1.07639
 Alpha virt. eigenvalues --    1.08829   1.08904   1.09515   1.10829   1.10984
 Alpha virt. eigenvalues --    1.11832   1.13143   1.14533   1.14983   1.15901
 Alpha virt. eigenvalues --    1.16865   1.19798   1.19961   1.21974   1.23452
 Alpha virt. eigenvalues --    1.24958   1.29930   1.33213   1.34868   1.35607
 Alpha virt. eigenvalues --    1.36307   1.36781   1.38827   1.41937   1.45898
 Alpha virt. eigenvalues --    1.48370   1.48919   1.51516   1.52188   1.54581
 Alpha virt. eigenvalues --    1.55613   1.56237   1.56780   1.57443   1.57963
 Alpha virt. eigenvalues --    1.60120   1.60700   1.61950   1.66034   1.66791
 Alpha virt. eigenvalues --    1.67607   1.68793   1.69738   1.70944   1.70986
 Alpha virt. eigenvalues --    1.72528   1.72556   1.72860   1.73941   1.75813
 Alpha virt. eigenvalues --    1.76154   1.77602   1.79794   1.81457   1.82337
 Alpha virt. eigenvalues --    1.83410   1.83550   1.84985   1.85475   1.86016
 Alpha virt. eigenvalues --    1.86592   1.88325   1.89265   1.90222   1.92456
 Alpha virt. eigenvalues --    1.92689   1.93102   1.93658   1.94710   1.96603
 Alpha virt. eigenvalues --    2.00504   2.00685   2.03160   2.03415   2.05336
 Alpha virt. eigenvalues --    2.07854   2.08142   2.09635   2.11364   2.12646
 Alpha virt. eigenvalues --    2.17427   2.18141   2.20412   2.24637   2.26245
 Alpha virt. eigenvalues --    2.26832   2.27481   2.36745   2.38268   2.42593
 Alpha virt. eigenvalues --    2.42790   2.43918   2.47380   2.47563   2.47616
 Alpha virt. eigenvalues --    2.50013   2.50732   2.54502   2.61521   2.63393
 Alpha virt. eigenvalues --    2.65673   2.72202   2.75521   2.78799   2.80869
 Alpha virt. eigenvalues --    2.82393   2.84313   2.89712   2.91537   2.97869
 Alpha virt. eigenvalues --    3.03383   3.08533   3.27486   3.33970   3.36235
 Alpha virt. eigenvalues --    3.52863   3.56855   3.76466   4.65730
          Condensed to atoms (all electrons):
               1          2          3          4          5          6
     1  C    4.766625   0.437194   0.018566  -0.056714  -0.012811   0.521140
     2  C    0.437194   5.342631   0.328266  -0.026235  -0.069171  -0.002976
     3  C    0.018566   0.328266   4.766603   0.478111  -0.002122  -0.065993
     4  C   -0.056714  -0.026235   0.478111   4.786804   0.526086  -0.010485
     5  C   -0.012811  -0.069171  -0.002122   0.526086   4.740276   0.485707
     6  C    0.521140  -0.002976  -0.065993  -0.010485   0.485707   4.749397
     7  H    0.400086  -0.036801   0.008249  -0.000515   0.008021  -0.040008
     8  H   -0.001225   0.012924  -0.035428   0.393197  -0.044776   0.008239
     9  H    0.009218  -0.000951   0.008889  -0.039521   0.404602  -0.046274
    10  H   -0.042436   0.009686  -0.000566   0.008480  -0.043404   0.405605
    11  N    0.009641  -0.068453   0.528068  -0.043744   0.003281  -0.000257
    12  S   -0.072003   0.345866  -0.099249   0.007983   0.000192   0.003937
    13  C   -0.000191   0.003798   0.007031  -0.000608   0.000009   0.000004
    14  C   -0.000015  -0.000043   0.000553   0.000008  -0.000000  -0.000000
    15  C    0.000010   0.000145  -0.002060  -0.000021  -0.000000  -0.000000
    16  C    0.000000  -0.000006   0.000007  -0.000000   0.000000  -0.000000
    17  H   -0.000006   0.000136  -0.000011  -0.000000   0.000000   0.000000
    18  C    0.000000   0.000009  -0.000047  -0.000000  -0.000000  -0.000000
    19  C   -0.000000   0.000000   0.000003   0.000000   0.000000   0.000000
    20  H   -0.000000  -0.000000  -0.000000   0.000000   0.000000  -0.000000
    21  H   -0.000000  -0.000000   0.000000   0.000000   0.000000   0.000000
    22  H   -0.000000  -0.000000   0.000000  -0.000000   0.000000  -0.000000
    23  C    0.005325  -0.058334  -0.133517  -0.001095   0.000337  -0.000225
    24  O    0.000000  -0.000053  -0.000849  -0.000006  -0.000000  -0.000000
    25  H   -0.000051   0.001375  -0.001323  -0.000352  -0.000007   0.000007
               7          8          9         10         11         12
     1  C    0.400086  -0.001225   0.009218  -0.042436   0.009641  -0.072003
     2  C   -0.036801   0.012924  -0.000951   0.009686  -0.068453   0.345866
     3  C    0.008249  -0.035428   0.008889  -0.000566   0.528068  -0.099249
     4  C   -0.000515   0.393197  -0.039521   0.008480  -0.043744   0.007983
     5  C    0.008021  -0.044776   0.404602  -0.043404   0.003281   0.000192
     6  C   -0.040008   0.008239  -0.046274   0.405605  -0.000257   0.003937
     7  H    0.664258   0.000036  -0.000160  -0.011616  -0.000106  -0.007501
     8  H    0.000036   0.665335  -0.013049  -0.000113  -0.000669  -0.000082
     9  H   -0.000160  -0.013049   0.671491  -0.012274  -0.000096   0.000020
    10  H   -0.011616  -0.000113  -0.012274   0.667103  -0.000001  -0.000167
    11  N   -0.000106  -0.000669  -0.000096  -0.000001   6.431755  -0.082524
    12  S   -0.007501  -0.000082   0.000020  -0.000167  -0.082524  15.514895
    13  C    0.000002   0.000032  -0.000000  -0.000000  -0.014097  -0.063054
    14  C    0.000001   0.000001   0.000000  -0.000000   0.003878  -0.010404
    15  C   -0.000000  -0.000036   0.000000   0.000000  -0.027472   0.006101
    16  C    0.000000   0.000000  -0.000000   0.000000  -0.000076   0.000148
    17  H    0.000002   0.000000  -0.000000  -0.000000   0.000198   0.008788
    18  C   -0.000000  -0.000000  -0.000000  -0.000000  -0.000482  -0.000147
    19  C    0.000000   0.000000  -0.000000  -0.000000   0.000038   0.000017
    20  H    0.000000  -0.000000   0.000000   0.000000   0.000001   0.000005
    21  H   -0.000000  -0.000000  -0.000000   0.000000  -0.000005   0.000003
    22  H    0.000000   0.000000  -0.000000  -0.000000   0.000000  -0.000000
    23  C    0.000090  -0.001012   0.000008   0.000003   0.553803   0.298872
    24  O   -0.000000  -0.000077   0.000000  -0.000000  -0.025405  -0.000068
    25  H    0.000000   0.000896  -0.000002   0.000000   0.052836   0.002403
              13         14         15         16         17         18
     1  C   -0.000191  -0.000015   0.000010   0.000000  -0.000006   0.000000
     2  C    0.003798  -0.000043   0.000145  -0.000006   0.000136   0.000009
     3  C    0.007031   0.000553  -0.002060   0.000007  -0.000011  -0.000047
     4  C   -0.000608   0.000008  -0.000021  -0.000000  -0.000000  -0.000000
     5  C    0.000009  -0.000000  -0.000000   0.000000   0.000000  -0.000000
     6  C    0.000004  -0.000000  -0.000000  -0.000000   0.000000  -0.000000
     7  H    0.000002   0.000001  -0.000000   0.000000   0.000002  -0.000000
     8  H    0.000032   0.000001  -0.000036   0.000000   0.000000  -0.000000
     9  H   -0.000000   0.000000   0.000000  -0.000000  -0.000000  -0.000000
    10  H   -0.000000  -0.000000   0.000000   0.000000  -0.000000  -0.000000
    11  N   -0.014097   0.003878  -0.027472  -0.000076   0.000198  -0.000482
    12  S   -0.063054  -0.010404   0.006101   0.000148   0.008788  -0.000147
    13  C    5.363840   0.504282   0.241629  -0.013539  -0.034941  -0.094824
    14  C    0.504282   4.803425  -0.029877   0.533412   0.399846  -0.053982
    15  C    0.241629  -0.029877   4.946958  -0.061845   0.007687   0.468632
    16  C   -0.013539   0.533412  -0.061845   4.730423  -0.035071  -0.014585
    17  H   -0.034941   0.399846   0.007687  -0.035071   0.660430  -0.000693
    18  C   -0.094824  -0.053982   0.468632  -0.014585  -0.000693   4.855285
    19  C   -0.046004  -0.020063  -0.009402   0.490562   0.008140   0.510219
    20  H    0.008716  -0.034639  -0.000301   0.402071  -0.012497   0.008279
    21  H    0.011331  -0.000381  -0.024442   0.006954   0.000039   0.382719
    22  H   -0.000968   0.009229   0.009124  -0.042603  -0.000155  -0.042208
    23  C    0.305252  -0.085310  -0.064971   0.007307  -0.022550   0.008172
    24  O   -0.073174   0.003663   0.496937   0.000014  -0.000054  -0.057260
    25  H   -0.062509  -0.001618   0.018715   0.000015   0.000030   0.013354
              19         20         21         22         23         24
     1  C   -0.000000  -0.000000  -0.000000  -0.000000   0.005325   0.000000
     2  C    0.000000  -0.000000  -0.000000  -0.000000  -0.058334  -0.000053
     3  C    0.000003  -0.000000   0.000000   0.000000  -0.133517  -0.000849
     4  C    0.000000   0.000000   0.000000  -0.000000  -0.001095  -0.000006
     5  C    0.000000   0.000000   0.000000   0.000000   0.000337  -0.000000
     6  C    0.000000  -0.000000   0.000000  -0.000000  -0.000225  -0.000000
     7  H    0.000000   0.000000  -0.000000   0.000000   0.000090  -0.000000
     8  H    0.000000  -0.000000  -0.000000   0.000000  -0.001012  -0.000077
     9  H   -0.000000   0.000000  -0.000000  -0.000000   0.000008   0.000000
    10  H   -0.000000   0.000000   0.000000  -0.000000   0.000003  -0.000000
    11  N    0.000038   0.000001  -0.000005   0.000000   0.553803  -0.025405
    12  S    0.000017   0.000005   0.000003  -0.000000   0.298872  -0.000068
    13  C   -0.046004   0.008716   0.011331  -0.000968   0.305252  -0.073174
    14  C   -0.020063  -0.034639  -0.000381   0.009229  -0.085310   0.003663
    15  C   -0.009402  -0.000301  -0.024442   0.009124  -0.064971   0.496937
    16  C    0.490562   0.402071   0.006954  -0.042603   0.007307   0.000014
    17  H    0.008140  -0.012497   0.000039  -0.000155  -0.022550  -0.000054
    18  C    0.510219   0.008279   0.382719  -0.042208   0.008172  -0.057260
    19  C    4.730606  -0.046445  -0.042120   0.407095   0.000819   0.002338
    20  H   -0.046445   0.671002  -0.000133  -0.011618  -0.000349   0.000003
    21  H   -0.042120  -0.000133   0.649927  -0.011852  -0.000408   0.001468
    22  H    0.407095  -0.011618  -0.011852   0.656972  -0.000007  -0.000047
    23  C    0.000819  -0.000349  -0.000408  -0.000007   5.115481  -0.003404
    24  O    0.002338   0.000003   0.001468  -0.000047  -0.003404   7.078265
    25  H   -0.000020  -0.000000   0.000310   0.000003   0.007956   0.438731
              25
     1  C   -0.000051
     2  C    0.001375
     3  C   -0.001323
     4  C   -0.000352
     5  C   -0.000007
     6  C    0.000007
     7  H    0.000000
     8  H    0.000896
     9  H   -0.000002
    10  H    0.000000
    11  N    0.052836
    12  S    0.002403
    13  C   -0.062509
    14  C   -0.001618
    15  C    0.018715
    16  C    0.000015
    17  H    0.000030
    18  C    0.013354
    19  C   -0.000020
    20  H   -0.000000
    21  H    0.000310
    22  H    0.000003
    23  C    0.007956
    24  O    0.438731
    25  H    0.680775
 Mulliken charges:
               1
     1  C    0.017644
     2  C   -0.219006
     3  C    0.196818
     4  C   -0.021373
     5  C    0.003780
     6  C   -0.007818
     7  H    0.015963
     8  H    0.015809
     9  H    0.018099
    10  H    0.019701
    11  N   -0.320111
    12  S    0.145970
    13  C   -0.042019
    14  C   -0.021965
    15  C    0.024491
    16  C   -0.003186
    17  H    0.020684
    18  C    0.017559
    19  C    0.014216
    20  H    0.015905
    21  H    0.026590
    22  H    0.027035
    23  C    0.067757
    24  O    0.138978
    25  H   -0.151521
 Sum of Mulliken charges =  -0.00000
 Mulliken charges with hydrogens summed into heavy atoms:
               1
     1  C    0.033607
     2  C   -0.219006
     3  C    0.196818
     4  C   -0.005564
     5  C    0.021879
     6  C    0.011884
    11  N   -0.320111
    12  S    0.145970
    13  C   -0.042019
    14  C   -0.001282
    15  C    0.024491
    16  C    0.012719
    18  C    0.044148
    19  C    0.041251
    23  C    0.067757
    24  O   -0.012543
 Electronic spatial extent (au):  <R**2>=           4334.7740
 Charge=             -0.0000 electrons
 Dipole moment (field-independent basis, Debye):
    X=             -1.2773    Y=             -1.2057    Z=              0.0000  Tot=              1.7565
 Quadrupole moment (field-independent basis, Debye-Ang):
   XX=            -82.7431   YY=            -86.9391   ZZ=           -104.0612
   XY=             -7.7116   XZ=             -0.0001   YZ=              0.0001
 Traceless Quadrupole moment (field-independent basis, Debye-Ang):
   XX=              8.5047   YY=              4.3087   ZZ=            -12.8134
   XY=             -7.7116   XZ=             -0.0001   YZ=              0.0001
 Octapole moment (field-independent basis, Debye-Ang**2):
  XXX=             -0.8147  YYY=             -4.6203  ZZZ=              0.0001  XYY=            -10.3655
  XXY=              8.1320  XXZ=              0.0003  XZZ=              0.6901  YZZ=              4.5720
  YYZ=              0.0004  XYZ=             -0.0005
 Hexadecapole moment (field-independent basis, Debye-Ang**3):
 XXXX=          -2586.9670 YYYY=          -2570.5071 ZZZZ=           -113.2484 XXXY=            799.9907
 XXXZ=              0.0097 YYYX=            763.7608 YYYZ=             -0.0132 ZZZX=              0.0138
 ZZZY=             -0.0174 XXYY=           -837.2018 XXZZ=           -570.3422 YYZZ=           -545.7215
 XXYZ=             -0.0036 YYXZ=              0.0018 ZZXY=            357.1898
 N-N= 1.100455545946D+03 E-N=-4.613358572522D+03  KE= 1.024723467671D+03
 No NMR shielding tensors so no spin-rotation constants.
 Leave Link  601 at Tue Oct 27 23:42:08 2020, MaxMem=  7784628224 cpu:               1.1 elap:               0.1
 (Enter /gpfs/loomis/apps/avx/software/Gaussian/16-C.01_AVX/g16/l701.exe)
 ... and contract with generalized density number  0.
 Compute integral first derivatives.
 R6Disp: Adding Grimme-D2 dispersion energy 1st derivatives to the gradient.
 D1PCM: PCM CHGder 1st derivatives, ID1Alg=3 FixD1E=F DoIter=F DoCFld=F I1PDM=0.
 GePol: Maximum number of non-zero 1st derivatives   =     254
 Leave Link  701 at Tue Oct 27 23:42:09 2020, MaxMem=  7784628224 cpu:              14.1 elap:               1.4
 (Enter /gpfs/loomis/apps/avx/software/Gaussian/16-C.01_AVX/g16/l702.exe)
 L702 exits ... SP integral derivatives will be done elsewhere.
 Leave Link  702 at Tue Oct 27 23:42:09 2020, MaxMem=  7784628224 cpu:               0.2 elap:               0.0
 (Enter /gpfs/loomis/apps/avx/software/Gaussian/16-C.01_AVX/g16/l703.exe)
 Integral derivatives from FoFJK, PRISM(SPDF).
 Compute integral first derivatives, UseDBF=F ICtDFT=           0.
 Calling FoFJK, ICntrl=      2127 FMM=F ISym2X=0 I1Cent= 0 IOpClX= 0 NMat=1 NMatS=1 NMatT=0.
 FoFJK:  IHMeth= 1 ICntrl=    2127 DoSepK=T KAlg= 0 I1Cent=           0 FoldK=F
 IRaf=         1 NMat=       1 IRICut=       1 DoRegI=T DoRafI=F ISym2E= 0 IDoP0=0 IntGTp=1.
 FoFCou: FMM=F IPFlag=           0 FMFlag=      100000 FMFlg1=         800
         NFxFlg=           0 DoJE=F BraDBF=F KetDBF=F FulRan=T
         wScrn=  0.000000 ICntrl=      2527 IOpCl=  0 I1Cent=           0 NGrid=           0
         NMat0=    1 NMatS0=      1 NMatT0=    0 NMatD0=    1 NMtDS0=    0 NMtDT0=    0
 Symmetry not used in FoFCou.
 Leave Link  703 at Tue Oct 27 23:42:23 2020, MaxMem=  7784628224 cpu:             136.5 elap:              13.7
 (Enter /gpfs/loomis/apps/avx/software/Gaussian/16-C.01_AVX/g16/l716.exe)
 Dipole        =-5.02536333D-01-4.74367829D-01 4.84172046D-06
 -------------------------------------------------------------------
 Center     Atomic                   Forces (Hartrees/Bohr)
 Number     Number              X              Y              Z
 -------------------------------------------------------------------
      1        6           0.007064317   -0.007140262   -0.000000027
      2        6           0.006041509    0.010674973   -0.000000207
      3        6           0.022225937   -0.050033248   -0.000000592
      4        6          -0.019123554    0.004568570    0.000000005
      5        6           0.000040861   -0.005657379    0.000000091
      6        6          -0.002210401    0.006941723   -0.000000118
      7        1           0.001110310    0.000230746   -0.000000017
      8        1          -0.000938080   -0.000667834    0.000000009
      9        1          -0.001238321    0.000476365    0.000000004
     10        1          -0.000316091    0.001034460    0.000000011
     11        7          -0.061601235    0.018819105    0.000000926
     12       16           0.005358847    0.007114542    0.000000271
     13        6          -0.038025550    0.063034781    0.000000957
     14        6           0.024993996    0.001576226   -0.000000950
     15        6          -0.002229428   -0.043804873   -0.000000645
     16        6          -0.005023775    0.019815095    0.000000358
     17        1          -0.001505746    0.000437566   -0.000000041
     18        6          -0.002409381   -0.003288624    0.000000560
     19        6           0.004466541   -0.019315124   -0.000000156
     20        1           0.000913071    0.000185796    0.000000048
     21        1           0.000139084   -0.001373977   -0.000000167
     22        1           0.000558137   -0.000389210   -0.000000027
     23        6           0.066876949   -0.028328325   -0.000000195
     24        8          -0.594120511    0.813627059    0.000026888
     25        1           0.588952515   -0.788538150   -0.000026986
 -------------------------------------------------------------------
 Cartesian Forces:  Max     0.813627059 RMS     0.163530153
 Leave Link  716 at Tue Oct 27 23:42:23 2020, MaxMem=  7784628224 cpu:               0.3 elap:               0.0
 (Enter /gpfs/loomis/apps/avx/software/Gaussian/16-C.01_AVX/g16/l103.exe)

 GradGradGradGradGradGradGradGradGradGradGradGradGradGradGradGradGradGrad
 Berny optimization.
 FormGI is forming the generalized inverse of G from B-inverse, IUseBI=4.
 Internal  Forces:  Max     0.937213389 RMS     0.084102575
 Search for a local minimum.
 Step number   1 out of a maximum of  143
 All quantities printed in internal units (Hartrees-Bohrs-Radians)
 RMS Force = .84742D-01 SwitMx=.10000D-02 MixMth= 1
 Mixed Optimization -- RFO/linear search
 Second derivative matrix not updated -- first step.
 ITU=  0
     Eigenvalues ---    0.01406   0.01489   0.01706   0.01730   0.01825
     Eigenvalues ---    0.01847   0.01891   0.01929   0.01943   0.01966
     Eigenvalues ---    0.02016   0.02045   0.02049   0.02081   0.02096
     Eigenvalues ---    0.02110   0.02131   0.02152   0.02181   0.02182
     Eigenvalues ---    0.02208   0.02636   0.16000   0.16000   0.16000
     Eigenvalues ---    0.16000   0.16000   0.16000   0.16000   0.16003
     Eigenvalues ---    0.16151   0.22000   0.22026   0.22527   0.22583
     Eigenvalues ---    0.24476   0.24550   0.25000   0.25000   0.25000
     Eigenvalues ---    0.27855   0.30611   0.33683   0.34418   0.34547
     Eigenvalues ---    0.34565   0.34565   0.34577   0.34578   0.34581
     Eigenvalues ---    0.34648   0.36663   0.38876   0.39395   0.40627
     Eigenvalues ---    0.42283   0.43462   0.44419   0.45226   0.45784
     Eigenvalues ---    0.46509   0.47950   0.48535   0.49915   0.56006
     Eigenvalues ---    0.59705   2.233861000.000001000.000001000.00000
     Eigenvalues --- 1000.000001000.000001000.000001000.000001000.00000
     Eigenvalues --- 1000.000001000.000001000.000001000.000001000.00000
     Eigenvalues --- 1000.000001000.000001000.000001000.000001000.00000
     Eigenvalues --- 1000.000001000.000001000.000001000.000001000.00000
     Eigenvalues --- 1000.000001000.000001000.000001000.000001000.00000
     Eigenvalues --- 1000.000001000.000001000.000001000.000001000.00000
     Eigenvalues --- 1000.000001000.000001000.000001000.000001000.00000
     Eigenvalues --- 1000.000001000.000001000.000001000.000001000.00000
     Eigenvalues --- 1000.000001000.000001000.000001000.000001000.00000
     Eigenvalues --- 1000.000001000.000001000.000001000.000001000.00000
     Eigenvalues --- 1000.000001000.000001000.000001000.000001000.00000
     Eigenvalues --- 1000.000001000.000001000.000001000.000001000.00000
     Eigenvalues --- 1000.000001000.000001000.00000
 RFO step:  Lambda=-3.69079961D-01 EMin= 1.40578302D-02
 Linear search not attempted -- first point.
 Maximum step size (   0.300) exceeded in Quadratic search.
    -- Step size scaled by   0.771
 Iteration  1 RMS(Cart)=  0.02178119 RMS(Int)=  0.00656527
 Iteration  2 RMS(Cart)=  0.00655686 RMS(Int)=  0.00012440
 Iteration  3 RMS(Cart)=  0.00007828 RMS(Int)=  0.00010424
 Iteration  4 RMS(Cart)=  0.00000006 RMS(Int)=  0.00010428
 Iteration  1 RMS(Cart)=  0.00000045 RMS(Int)=  0.00000010
 ITry= 1 IFail=0 DXMaxC= 1.70D-01 DCOld= 1.00D+10 DXMaxT= 3.00D-01 DXLimC= 3.00D+00 Rises=F
 Variable       Old X    -DE/DX   Delta X   Delta X   Delta X     New X
                                 (Linear)    (Quad)   (Total)
    R1        2.62548   0.01786   0.00000   0.00713   0.00706   2.63253
    R2        2.63175   0.00834   0.00000  -0.00204  -0.00213   2.62962
    R3        2.06386  -0.00059   0.00000  -0.00089  -0.00089   2.06298
    R4        2.71073  -0.01479   0.00000  -0.01842  -0.01841   2.69232
    R5        3.28967   0.01282   0.00000   0.00316   0.00308   3.29275
    R6        2.70676  -0.02952   0.00000  -0.02126  -0.02120   2.68556
    R7        2.51723   0.00606   0.00000   0.02338   0.02356   2.54078
    R8        2.61540  -0.01679   0.00000  -0.00298  -0.00289   2.61252
    R9        2.06417  -0.00103   0.00000  -0.00114  -0.00114   2.06304
   R10        2.67265  -0.00224   0.00000  -0.00566  -0.00569   2.66697
   R11        2.06630  -0.00113   0.00000  -0.00135  -0.00135   2.06494
   R12        2.06365  -0.00120   0.00000  -0.00118  -0.00118   2.06247
   R13        2.57556  -0.06254   0.00000  -0.04398  -0.04390   2.53166
   R14        3.34292   0.05329   0.00000   0.00861   0.00829   3.35121
   R15        2.70155   0.00280   0.00000  -0.01331  -0.01342   2.68813
   R16        2.76812   0.04487   0.00000  -0.01442  -0.01480   2.75332
   R17        2.64463   0.08270   0.00000   0.04602   0.04580   2.69044
   R18        2.60317   0.00106   0.00000   0.00316   0.00317   2.60633
   R19        2.06387  -0.00010   0.00000  -0.00000   0.00000   2.06387
   R20        2.64418  -0.02155   0.00000  -0.00647  -0.00637   2.63781
   R21        2.51074   0.01325   0.00000   0.00088   0.00078   2.51153
   R22        2.69152  -0.02424   0.00000  -0.02276  -0.02275   2.66877
   R23        2.06367  -0.00133   0.00000  -0.00106  -0.00106   2.06261
   R24        2.63548  -0.03238   0.00000  -0.01109  -0.01095   2.62453
   R25        2.06361  -0.00096   0.00000  -0.00131  -0.00131   2.06230
   R26        2.06251  -0.00096   0.00000  -0.00073  -0.00073   2.06178
   R27        1.25532   0.93721   0.00000   0.27758   0.27785   1.53318
    A1        2.06774  -0.00823   0.00000  -0.00473  -0.00471   2.06303
    A2        2.10333   0.00676   0.00000   0.00392   0.00390   2.10723
    A3        2.11211   0.00148   0.00000   0.00081   0.00081   2.11292
    A4        2.14473  -0.01581   0.00000  -0.00373  -0.00364   2.14110
    A5        2.21757   0.04306   0.00000   0.01865   0.01845   2.23602
    A6        1.92088  -0.02725   0.00000  -0.01492  -0.01481   1.90606
    A7        2.04740   0.02135   0.00000   0.00923   0.00914   2.05654
    A8        2.00936   0.02307   0.00000   0.00691   0.00682   2.01618
    A9        2.22643  -0.04441   0.00000  -0.01614  -0.01596   2.21047
   A10        2.07975   0.00225   0.00000   0.00087   0.00088   2.08063
   A11        2.08391  -0.00315   0.00000  -0.00140  -0.00140   2.08251
   A12        2.11952   0.00090   0.00000   0.00053   0.00052   2.12004
   A13        2.12954  -0.00596   0.00000  -0.00376  -0.00374   2.12580
   A14        2.08059   0.00130   0.00000   0.00098   0.00097   2.08156
   A15        2.07305   0.00466   0.00000   0.00278   0.00277   2.07582
   A16        2.09719   0.00641   0.00000   0.00212   0.00207   2.09926
   A17        2.09222  -0.00183   0.00000  -0.00047  -0.00045   2.09178
   A18        2.09377  -0.00458   0.00000  -0.00165  -0.00162   2.09215
   A19        1.95850   0.01320   0.00000   0.00521   0.00518   1.96368
   A20        1.55062   0.00767   0.00000   0.00859   0.00855   1.55917
   A21        2.04184  -0.03396   0.00000  -0.00421  -0.00402   2.03781
   A22        2.17525  -0.04087   0.00000  -0.01900  -0.01886   2.15639
   A23        2.06610   0.07483   0.00000   0.02322   0.02288   2.08898
   A24        2.10662   0.01466   0.00000   0.00801   0.00795   2.11456
   A25        2.07369  -0.00442   0.00000  -0.00135  -0.00133   2.07235
   A26        2.10288  -0.01024   0.00000  -0.00665  -0.00661   2.09627
   A27        2.11715   0.00380   0.00000  -0.00349  -0.00354   2.11361
   A28        2.04893   0.11178   0.00000   0.04419   0.04369   2.09262
   A29        2.11711  -0.11559   0.00000  -0.04070  -0.04015   2.07696
   A30        2.11711   0.00150   0.00000  -0.00685  -0.00689   2.11022
   A31        2.08751   0.00021   0.00000   0.00369   0.00371   2.09122
   A32        2.07856  -0.00171   0.00000   0.00316   0.00318   2.08174
   A33        2.08574   0.01375   0.00000   0.00648   0.00643   2.09217
   A34        2.07511  -0.00884   0.00000  -0.00440  -0.00436   2.07075
   A35        2.12233  -0.00491   0.00000  -0.00208  -0.00207   2.12027
   A36        2.09792   0.00025   0.00000   0.00007   0.00008   2.09799
   A37        2.09024   0.00194   0.00000   0.00058   0.00056   2.09080
   A38        2.09503  -0.00219   0.00000  -0.00064  -0.00064   2.09439
   A39        1.98542  -0.01669   0.00000  -0.00580  -0.00573   1.97969
   A40        2.17525  -0.01019   0.00000  -0.00721  -0.00715   2.16811
   A41        2.12251   0.02687   0.00000   0.01301   0.01288   2.13539
   A42        2.01959   0.01312   0.00000  -0.00998  -0.01016   2.00944
    D1        0.00000   0.00000   0.00000   0.00000   0.00000   0.00000
    D2        3.14159   0.00000   0.00000   0.00000   0.00000  -3.14159
    D3        3.14159   0.00000   0.00000   0.00000   0.00000   3.14159
    D4       -0.00000   0.00000   0.00000   0.00000   0.00000  -0.00000
    D5       -0.00000   0.00000   0.00000   0.00000   0.00000  -0.00000
    D6        3.14159   0.00000   0.00000  -0.00000  -0.00000   3.14159
    D7        3.14159   0.00000   0.00000   0.00000   0.00000   3.14159
    D8        0.00000  -0.00000   0.00000  -0.00000  -0.00000   0.00000
    D9        0.00000  -0.00000   0.00000  -0.00000  -0.00000   0.00000
   D10       -3.14159  -0.00000   0.00000  -0.00000  -0.00000  -3.14159
   D11       -3.14159  -0.00000   0.00000  -0.00000  -0.00000  -3.14159
   D12        0.00000  -0.00000   0.00000  -0.00000  -0.00000   0.00000
   D13        3.14159   0.00000   0.00000   0.00000   0.00000   3.14159
   D14       -0.00000   0.00000   0.00000   0.00000   0.00000  -0.00000
   D15       -0.00000   0.00000   0.00000   0.00000   0.00000  -0.00000
   D16        3.14159   0.00000   0.00000   0.00000   0.00000   3.14159
   D17        3.14159   0.00000   0.00000   0.00000   0.00000   3.14159
   D18        0.00000   0.00000   0.00000  -0.00000  -0.00000   0.00000
   D19        0.00001  -0.00000   0.00000  -0.00000  -0.00000   0.00001
   D20       -3.14159  -0.00000   0.00000  -0.00000  -0.00000  -3.14159
   D21        0.00000  -0.00000   0.00000   0.00000   0.00000   0.00000
   D22       -3.14159  -0.00000   0.00000  -0.00000  -0.00000  -3.14159
   D23        3.14159   0.00000   0.00000   0.00000   0.00000   3.14159
   D24        0.00000   0.00000   0.00000  -0.00000  -0.00000   0.00000
   D25        0.00000  -0.00000   0.00000  -0.00000  -0.00000   0.00000
   D26       -3.14159  -0.00000   0.00000  -0.00000  -0.00000  -3.14159
   D27       -3.14159  -0.00000   0.00000  -0.00000  -0.00000  -3.14159
   D28        0.00000   0.00000   0.00000   0.00000   0.00000   0.00000
   D29       -0.00001   0.00000   0.00000   0.00000   0.00000  -0.00001
   D30        3.14157   0.00000   0.00000   0.00000   0.00000   3.14157
   D31        0.00001  -0.00000   0.00000  -0.00000  -0.00000   0.00001
   D32       -3.14157  -0.00000   0.00000  -0.00000  -0.00000  -3.14157
   D33        0.00001  -0.00000   0.00000  -0.00000  -0.00000   0.00001
   D34       -3.14158  -0.00000   0.00000  -0.00000  -0.00000  -3.14159
   D35       -3.14158  -0.00000   0.00000  -0.00000  -0.00000  -3.14158
   D36        0.00001  -0.00000   0.00000  -0.00000  -0.00000   0.00001
   D37       -0.00002   0.00000   0.00000   0.00000   0.00000  -0.00001
   D38        3.14157   0.00000   0.00000   0.00000   0.00000   3.14157
   D39        3.14158   0.00000   0.00000   0.00000   0.00000   3.14158
   D40       -0.00002   0.00000   0.00000   0.00000   0.00000  -0.00002
   D41        3.14159  -0.00000   0.00000  -0.00000  -0.00000   3.14159
   D42       -0.00002  -0.00000   0.00000   0.00000   0.00000  -0.00002
   D43       -0.00000  -0.00000   0.00000  -0.00000  -0.00000  -0.00000
   D44        3.14157  -0.00000   0.00000   0.00000   0.00000   3.14157
   D45       -0.00000  -0.00000   0.00000   0.00000   0.00000  -0.00000
   D46        3.14159   0.00000   0.00000   0.00000   0.00000   3.14159
   D47       -3.14159  -0.00000   0.00000  -0.00000  -0.00000  -3.14159
   D48        0.00000  -0.00000   0.00000  -0.00000  -0.00000   0.00000
[...]
 16039,0.,-0.14686096,-0.05114878,-0.00000075,0.01289494,-0.04399431,-0
 .00000070,0.74022264,0.00074246,-0.00091067,0.,-0.00073587,0.00040202,
 0.00000005,-0.00109723,-0.00142879,0.00000002,0.00045733,0.00015848,0.
 ,-0.00009752,0.00074343,0.,-0.00100825,-0.00015075,0.,0.00003886,-0.00
 000281,0.,-0.00005700,-0.00001715,0.,-0.00004751,0.00004106,0.,-0.0000
 3473,0.00000938,0.,-0.00841428,-0.00435002,-0.00000003,0.00162295,0.00
 269695,-0.00000008,-0.00281637,-0.27196708,-0.00000258,-0.08895821,0.0
 1169498,0.00000035,-0.01260391,0.68928838,0.,0.,0.00029915,0.00000002,
 0.00000003,0.00024952,0.00000002,-0.00000002,-0.00079252,0.,0.,-0.0001
 1930,0.,0.,0.00007073,0.,0.,-0.00010124,0.,0.,0.00001904,0.,0.,-0.0000
 2341,0.,0.,0.00002555,0.,0.,-0.00003286,-0.00000006,0.00000007,0.00013
 128,-0.00000004,0.00000003,0.00134573,0.00000043,-0.00000272,-0.070755
 21,-0.00000167,0.00000027,0.00162457,-0.00000325,0.00000761,0.17477678
 ,0.00015385,-0.00007797,0.,-0.00029837,0.00073121,0.,0.00042091,-0.000
 98460,0.,-0.00011843,0.00028073,0.,0.00001201,0.00002299,0.,-0.0001392
 1,0.00007720,0.,-0.00001081,0.00002325,0.,0.00004271,-0.00001781,0.,-0
 .00002587,0.00002235,0.,0.00000049,0.00001089,0.,-0.00327862,0.0019698
 2,0.00000002,0.00002635,0.00049303,0.,-0.04852139,0.00907006,0.0000001
 3,-0.25044885,0.16190620,0.00000276,-0.00176335,0.02211076,0.00000030,
 0.76971146,-0.00035803,0.00084093,0.,0.00092478,-0.00061252,0.00000001
 ,-0.00027193,0.00116596,0.00000003,-0.00042280,-0.00002038,0.,-0.00015
 798,-0.00076960,0.,0.00095025,-0.00019529,0.,-0.00005081,-0.00006469,0
 .,0.00002703,0.00004206,0.,0.00009521,-0.00004297,0.,0.00005975,-0.000
 03697,0.,0.00514868,0.00197577,0.,-0.00168029,-0.00118316,-0.00000003,
 0.06168879,0.04379618,0.00000054,0.08917982,-0.25469714,-0.00000311,0.
 02991556,-0.07224398,-0.00000125,0.00532307,0.68400255,-0.00000001,0.0
 0000002,0.00009933,0.00000004,-0.00000001,0.00047959,0.,0.,-0.00066229
 ,-0.00000002,0.,-0.00015366,0.,-0.00000003,0.00007200,0.00000003,0.,-0
 .00002658,0.,0.,0.00000665,0.,0.,0.00001263,0.,0.,0.00001880,0.,0.,-0.
 00003902,0.00000005,0.00000005,0.00010058,-0.00000002,-0.00000005,-0.0
 0086141,0.00000099,0.00000060,0.00747936,0.00000170,-0.00000333,-0.062
 39875,0.00000048,-0.00000113,-0.00454646,-0.00000001,0.00001001,0.1281
 8138,0.00035207,0.00004035,0.,-0.00082777,0.00027459,0.00000004,0.0002
 6002,-0.00002725,0.,0.00004643,0.00003118,0.,0.00006248,0.00007492,0.,
 -0.00008491,-0.00011628,0.,-0.00001826,-0.00001534,0.,0.00004105,0.000
 00721,0.,0.00001565,-0.00000216,0.,0.00003966,-0.00001236,0.,0.0004369
 8,0.00046419,0.,-0.00091549,0.00165863,-0.00000006,-0.00329929,-0.0277
 2933,-0.00000044,-0.08271054,-0.08056308,-0.00000137,-0.00542284,0.000
 72590,0.00000001,0.01032539,0.02167149,0.00000035,0.08367301,0.0000223
 3,0.00001472,0.,0.00003702,0.00059490,0.00000002,0.00033528,-0.0003175
 3,0.,0.00000106,0.00009758,0.,0.00001457,0.00003565,0.,-0.00005275,-0.
 00000007,0.,-0.00001300,0.00000460,0.,0.00002979,0.00000078,0.,-0.0000
 0191,0.00000235,0.,0.00000635,0.00000076,0.,-0.00064818,0.00027119,0.0
 0000001,0.00080682,-0.00051754,-0.00000003,0.00080276,-0.00319696,-0.0
 0000010,-0.07886609,-0.31705954,-0.00000464,-0.00054758,0.00191651,-0.
 00000008,-0.01050375,-0.01638563,-0.00000033,0.08338040,0.33688824,0.,
 0.,-0.00002757,-0.00000002,0.00000001,-0.00070866,0.,0.,0.00012459,0.,
 0.,0.00009664,0.,0.,-0.00003213,0.,0.,0.00003543,0.,0.,-0.00001801,0.,
 0.,-0.00002484,0.,0.,-0.00000493,0.,0.,0.00002784,0.00000003,0.,0.0001
 1177,-0.00000004,0.,0.00141525,0.00000013,-0.00000008,0.00292355,-0.00
 000148,-0.00000463,-0.03745791,0.,-0.00000010,0.00591261,-0.00000011,-
 0.00000043,0.00502389,0.00000144,0.00000517,0.02457746,0.00017270,0.00
 029373,0.,0.00026208,0.00000170,0.00000002,0.00099605,-0.00003301,0.,-
 0.00032552,-0.00009437,0.,-0.00003697,-0.00030327,0.,0.00026420,-0.000
 10595,0.,-0.00003465,0.00000051,0.,0.00007975,0.00000360,0.,0.00003635
 ,-0.00001749,0.,0.00002772,-0.00000466,0.,0.00140681,0.00337798,0.,0.0
 0005550,0.00007776,-0.00000003,0.05528581,0.04072500,0.00000072,-0.066
 18217,0.02314661,0.00000046,-0.19760859,0.06350574,0.00000151,0.002238
 36,-0.08968967,-0.00000145,-0.00088983,0.00048365,-0.00000006,0.754634
 23,0.00039229,-0.00025940,0.,-0.00094323,-0.00016240,0.,-0.00020138,0.
 00012737,0.,0.00038858,-0.00002697,0.,0.00010588,0.00045440,0.,-0.0004
 3898,-0.00006970,0.,-0.00000332,0.00002590,0.,0.00001066,-0.00000998,0
 .,-0.00002165,0.00001586,0.,0.00001183,0.00000272,0.,-0.00070431,-0.00
 034048,0.,0.00142999,-0.00035856,0.,0.00242008,-0.03598569,-0.00000074
 ,0.01900846,-0.00947776,-0.00000015,0.13486193,-0.24910831,-0.00000348
 ,-0.03846855,0.01099810,0.00000005,0.00024488,0.00058551,0.00000005,0.
 04576702,0.73748888,0.00000001,-0.00000001,-0.00018617,-0.00000004,0.,
 -0.00005191,-0.00000002,0.,-0.00052951,0.00000002,0.,0.00000113,0.,0.0
 0000002,0.00001733,-0.00000002,0.,0.00002222,0.,0.,-0.00001882,0.,0.,-
 0.00001210,0.,0.,-0.00000442,0.,0.,0.00003532,-0.00000003,-0.00000003,
 0.00085516,0.00000005,-0.00000002,-0.00015328,0.,-0.00000057,0.0078038
 9,0.00000039,-0.00000016,-0.00350745,0.00000258,-0.00000351,-0.0708278
 4,-0.00000062,0.00000012,0.00810388,0.,0.00000003,-0.00099493,-0.00000
 128,0.00001008,0.12525976,0.00028918,-0.00061513,0.,-0.00104695,0.0003
 4644,0.,-0.00043793,-0.00003827,0.,0.00060678,-0.00000109,0.,0.0001030
 6,0.00074998,0.,-0.00076678,0.00004938,0.,0.00003243,0.00004827,0.,-0.
 00002774,-0.00003566,0.,-0.00007021,0.00003761,0.,-0.00003812,0.000024
 62,0.,-0.00226118,-0.00133183,0.,0.00112699,0.00030644,0.00000002,-0.0
 3798819,-0.02486431,-0.00000037,0.06251162,0.00064090,-0.00000007,-0.0
 5690879,0.05694845,0.00000110,-0.14667066,-0.02091092,-0.00000043,-0.0
 0269748,0.00418011,0.00000011,-0.37585754,-0.09596150,-0.00000088,0.74
 643383,0.00005934,-0.00017356,0.,-0.00014250,0.00023079,0.,0.00029232,
 -0.00094256,-0.00000002,-0.00009018,0.00015638,0.,0.00005582,0.0000662
 2,0.,-0.00018094,0.00012559,0.,0.00001372,0.00001151,0.,-0.00000997,-0
 .00000687,0.,-0.00002926,0.00001465,0.,-0.00000887,0.00000870,0.,-0.00
 345905,-0.00059372,0.00000001,0.00059126,0.00018269,0.00000002,-0.0403
 7949,-0.02917480,-0.00000044,0.05800908,-0.05575100,-0.00000116,0.0004
 0071,0.06710130,0.00000107,-0.09507478,-0.32009290,-0.00000481,0.00342
 542,-0.00163849,-0.00000011,-0.02377370,-0.14767722,-0.00000127,-0.031
 47002,0.71381798,0.,0.,0.00001795,0.,0.,-0.00002038,0.00000001,-0.0000
 0002,0.00019136,0.,0.,0.00001250,0.,0.,-0.00001557,0.,0.,0.00000367,0.
 ,0.,-0.00000080,0.,0.,0.00001043,0.,0.,-0.00000187,0.,0.,-0.00000779,-
 0.00000006,0.,-0.00014513,0.,0.,0.00004217,-0.00000065,-0.00000037,-0.
 00393680,0.00000090,-0.00000105,0.00714331,0.00000019,0.00000099,0.000
 32767,-0.00000165,-0.00000487,-0.06435051,0.00000006,-0.00000015,0.007
 50249,0.00000011,-0.00000126,-0.05889242,-0.00000156,0.00001039,0.1425
 3400,0.00001250,-0.00007290,0.,-0.00005896,0.00012988,0.,-0.00004955,-
 0.00005307,0.,0.00005424,0.00003208,0.,-0.00000719,0.00006731,0.,-0.00
 007901,0.00001390,0.,0.00000398,0.00000941,0.,0.00000150,-0.00000714,0
 .,-0.00001124,0.00000763,0.,-0.00000924,0.00000630,0.,-0.00040813,0.00
 035125,0.,0.00004594,0.00004250,0.,-0.00034783,0.00379189,0.00000006,-
 0.01528291,-0.00872889,-0.00000015,0.00049322,0.00038158,0.,-0.3318413
 8,-0.06774024,-0.00000114,0.00078312,0.00007790,0.,0.00152983,-0.00151
 249,-0.00000003,-0.00402885,0.00217496,0.00000004,0.34925963,0.0000004
 5,0.00001482,0.,0.00002138,-0.00006355,0.,0.00006157,0.00005559,0.,-0.
 00000419,-0.00004090,0.,0.00000979,-0.00000550,0.,0.00001271,-0.000006
 83,0.,0.00000084,-0.00000371,0.,-0.00000027,0.00000142,0.,0.00000299,-
 0.00000391,0.,0.00000199,-0.00000094,0.,0.00035326,-0.00028998,0.,0.00
 000888,0.00003584,0.,0.00266244,-0.00298747,-0.00000017,0.02357066,0.0
 0860353,0.00000012,0.00061431,-0.00152496,-0.00000002,-0.06852503,-0.0
 7458210,-0.00000075,-0.00011498,0.00088178,0.00000008,-0.00057268,-0.0
 0534403,-0.00000021,-0.02991805,-0.00168269,-0.00000005,0.07233482,0.0
 7497486,0.,0.,0.00000037,0.,0.,-0.00000676,0.,0.,-0.00017850,0.,0.,-0.
 00000544,0.,0.,0.00001562,0.,0.,-0.00000588,0.,0.,0.00000181,0.,0.,-0.
 00000542,0.,0.,0.00000182,0.,0.,0.00000397,0.,0.,-0.00012790,0.,0.,0.0
 0002277,0.00000007,-0.00000015,0.00738653,0.00000035,0.00000013,0.0018
 3290,0.00000002,-0.00000004,-0.00066221,-0.00000113,-0.00000076,-0.033
 92360,0.,0.00000009,-0.00460433,0.,-0.00000022,0.00636364,-0.00000054,
 -0.00000006,0.00183648,0.00000122,0.00000089,0.02519419,-0.00004062,-0
 .00001328,0.,0.00002595,0.00010063,0.,-0.00003304,0.00000137,0.,-0.000
 00070,0.00000708,0.,-0.00000978,-0.00000856,0.,0.00000669,0.00001220,0
 .,0.00000246,-0.00000173,0.,-0.00000690,0.00000048,0.,-0.00000076,0.00
 000064,0.,-0.00000450,-0.00000035,0.,0.00011416,-0.00016352,0.,-0.0002
 3521,0.00009925,0.,-0.00270427,0.00253430,0.00000006,-0.00129550,0.000
 46808,0.,0.00893787,0.02141186,0.00000034,-0.00520610,-0.00034147,0.00
 000003,0.00009593,-0.00007708,0.,-0.08346487,-0.08441111,-0.00000119,-
 0.00277886,-0.02925790,-0.00000045,-0.00030950,-0.00141421,-0.00000003
 ,0.08364253,0.00002527,0.00007905,0.,-0.00001565,-0.00012303,0.,0.0000
 8979,0.00003401,0.,-0.00004577,-0.00001271,0.,0.00000782,-0.00005367,0
 .,0.00005877,-0.00002170,0.,-0.00000586,-0.00000229,0.,0.00000709,0.00
 000485,0.,0.00000921,-0.00000457,0.,0.00001049,-0.00000388,0.,0.000132
 64,0.00026161,0.,0.00017024,-0.00019535,0.,0.00379662,-0.00169141,-0.0
 0000012,0.00087546,0.00050938,0.00000002,-0.01176387,-0.01737846,-0.00
 000031,-0.00087986,0.00193444,-0.00000009,-0.00004097,-0.00007784,0.,-
 0.08188308,-0.32266188,-0.00000443,0.00162156,-0.00154756,-0.00000007,
 0.00007200,-0.00016746,0.,0.09006541,0.33890787,0.,0.,0.00000950,0.,0.
 ,-0.00002508,0.,0.,-0.00001377,0.,0.,-0.00000099,0.,0.,-0.00000379,0.,
 0.,0.00000302,0.,0.,0.00000125,0.,0.,0.00000402,0.,0.,0.00000210,0.,0.
 ,-0.00000103,0.,0.,-0.00002087,0.,0.,-0.00006441,0.00000006,-0.0000001
 6,0.00521165,0.00000009,0.,-0.00089842,-0.00000029,-0.00000030,0.00487
 682,0.,-0.00000004,0.00757525,0.,0.,-0.00065583,-0.00000102,-0.0000044
 2,-0.03524238,-0.00000005,-0.00000005,0.00262755,0.,0.,0.00039952,0.00
 000127,0.00000481,0.02483285,0.00001098,-0.00003054,0.,-0.00002092,0.0
 0008377,0.,0.00006599,-0.00005419,0.,0.00001597,0.00000966,0.,0.000001
 30,0.00003085,0.,-0.00003760,0.00000897,0.,0.00000133,0.00000433,0.,0.
 00000444,-0.00000428,0.,-0.00000634,0.00000319,0.,-0.00000399,0.000003
 77,0.,-0.00012527,0.00014935,0.,0.00000205,0.00012367,0.,-0.00070946,-
 0.00067246,-0.00000001,0.00100279,-0.00241068,-0.00000004,-0.00367336,
 -0.00295688,-0.00000002,0.00928640,-0.00824200,-0.00000015,0.00032665,
 -0.00042959,0.,-0.01438498,0.02440357,0.00000044,-0.19415923,0.1425711
 7,0.00000276,0.00062281,0.00038558,0.,0.00106403,-0.00015071,-0.000000
 02,0.20221402,0.00002545,0.00001874,0.,-0.00006657,0.00002606,0.,0.000
 02452,0.00001701,0.,-0.00000368,-0.00000172,0.,0.00000878,-0.00000502,
 0.,0.00000676,-0.00001340,0.,-0.00000404,-0.00000309,0.,0.00000334,0.0
 0000317,0.,0.00000499,-0.00000185,0.,0.00000628,-0.00000345,0.,0.00011
 287,-0.00005591,0.,-0.00004181,0.00001187,0.,-0.00095741,0.00004909,0.
 00000002,-0.00289291,-0.00492433,-0.00000021,-0.00258402,0.00066353,-0
 .00000014,0.02294452,-0.01393686,-0.00000034,0.00107923,-0.00098068,0.
 ,-0.00751706,0.00830117,0.00000007,0.14342581,-0.21157890,-0.00000325,
 -0.00017176,0.00105934,0.00000008,0.00024245,0.00068443,0.00000009,-0.
 15361018,0.22014557,0.,0.,-0.00001487,0.,0.,-0.00007537,0.,0.,0.000081
 18,0.,0.,0.00001387,0.,0.,-0.00000678,0.,0.,0.00000102,0.,0.,0.0000011
 3,0.,0.,-0.00000449,0.,0.,-0.00000055,0.,0.,0.00000718,0.00000001,0.,-
 0.00008061,0.,0.,0.00017319,-0.00000003,0.,-0.00102334,-0.00000008,-0.
 00000021,0.00666035,0.,-0.00000010,0.00880790,0.00000041,-0.00000034,0
 .00437406,0.00000002,-0.00000002,-0.00017325,-0.00000005,0.00000004,0.
 00473085,0.00000275,-0.00000324,-0.04066135,0.,0.00000008,-0.00365981,
 -0.00000002,0.00000009,-0.00467002,-0.00000299,0.00000365,0.02681400,-
 0.00320276,-0.00697666,-0.00000003,-0.00317917,0.01578437,0.00000003,-
 0.09383500,0.05121516,0.00000057,0.01688806,-0.00480572,-0.00000008,-0
 .00307536,0.01133922,0.00000008,-0.00624094,-0.00559774,0.00000002,0.0
 0044630,-0.00105924,-0.00000002,-0.00053838,-0.00004758,0.,0.00019855,
 0.00008032,0.,-0.00077242,-0.00005135,0.,-0.46063806,-0.05614550,0.000
 00104,-0.04689819,-0.02135828,0.00000004,-0.15291511,0.06978710,0.0000
 0068,-0.04041227,0.02837927,0.00000036,0.02650066,0.01355164,-0.000000
 01,-0.00048926,-0.01230238,-0.00000022,0.00070782,0.00113753,0.0000000
 2,-0.00212341,-0.00197813,-0.00000003,0.00304009,0.00363133,0.00000007
 ,-0.00037043,0.00078230,0.00000001,0.00043322,-0.00109999,-0.00000002,
 0.00023403,0.00000704,0.,0.78051104,0.00155924,-0.00228307,0.00000003,
 0.02947810,-0.02852993,-0.00000020,0.02067303,0.00275522,-0.00000007,0
 .00730919,-0.00928228,-0.00000008,-0.00138465,0.00566370,0.00000004,-0
 .00327652,-0.00421472,-0.00000001,0.00022190,-0.00086101,0.,-0.0004254
 0,0.00018966,0.,0.00025030,-0.00039360,0.,-0.00040282,0.00006956,0.,-0
 .07199338,-0.11897943,-0.00000012,0.00105230,-0.11197493,-0.00000012,0
 .06775208,-0.18620133,-0.00000119,0.01393770,0.01041758,0.00000014,0.0
 1541832,-0.03365017,-0.00000029,-0.00750317,0.00935748,0.00000009,-0.0
 0234351,-0.00059220,0.00000003,-0.00020136,-0.00645705,-0.00000018,-0.
 00593253,-0.00492944,-0.00000007,-0.00118409,0.00082226,0.00000001,0.0
 0109856,-0.00036714,-0.00000002,-0.00027596,0.00010054,0.00000001,-0.0
 6865902,0.47372343,0.00000001,0.00000005,0.00022092,0.00000014,-0.0000
 0031,0.00452582,0.00000058,-0.00000028,0.00456110,-0.00000006,0.,0.003
 19178,0.00000001,-0.00000006,0.00050569,0.00000005,0.00000001,0.000828
 98,0.,0.,-0.00040440,0.,0.,-0.00029085,0.,0.,-0.00048778,0.,0.,-0.0000
 2693,0.00000087,-0.00000007,-0.06283689,0.00000008,0.00000002,-0.03900
 378,0.00000054,-0.00000091,-0.05310820,0.00000012,0.00000015,-0.002056
 62,0.00000021,-0.00000057,0.00263319,-0.00000005,-0.00000006,0.0066060
 1,-0.00000002,0.00000005,-0.00334469,-0.00000003,-0.00000013,0.0050227
 3,-0.00000002,-0.00000002,-0.00099779,0.,0.,0.00086516,0.00000001,0.,0
 .00004450,0.,0.00000002,-0.00082347,-0.00000251,0.00000196,0.13617006,
 -0.00030360,0.00171830,0.,0.00149248,0.00053847,-0.00000002,0.00658836
 ,-0.00099957,0.,-0.00169433,0.00011803,0.00000001,-0.00007582,-0.00171
 642,0.,0.00167814,0.00014727,0.,-0.00013519,0.00009187,0.,0.00027327,-
 0.00001563,0.,0.00005451,-0.00003528,0.,0.00006359,0.00002901,0.,0.006
 57104,0.01712846,0.00000011,-0.00048688,0.00002238,0.00000002,-0.01098
 381,-0.02724214,-0.00000011,-0.00763367,0.00384596,0.00000015,-0.31781
 030,-0.09544933,0.00000034,-0.00413460,-0.01403199,-0.00000022,-0.0007
 8880,-0.00039690,-0.00000003,-0.07445385,0.00045443,0.00000070,0.01334
 931,0.01192759,0.00000018,-0.00006404,-0.00026837,0.,0.00194999,-0.001
 18162,-0.00000002,-0.00152597,0.00013551,-0.00000002,-0.01888585,0.012
 22221,0.00000012,0.59537585,-0.00045229,-0.00009779,0.,0.00035960,-0.0
 0167558,0.,-0.00537074,-0.00064143,0.00000002,-0.00026341,-0.00025351,
 0.,0.00026900,-0.00011125,0.,0.00019189,-0.00002672,0.,0.00007427,-0.0
 0016199,0.,0.00002603,0.00008862,0.,0.00009964,-0.00007927,0.,0.000062
 63,-0.00005136,0.,0.00947641,-0.01911759,-0.00000022,-0.00085853,-0.00
 230255,0.00000001,-0.04400243,-0.01174564,-0.00000008,0.00740261,-0.00
 697653,-0.00000018,-0.05757229,-0.14153560,-0.00000112,-0.00264831,0.0
 0513109,0.00000011,-0.00170315,-0.00036056,-0.00000002,0.03753482,0.01
 877029,0.00000002,-0.00076801,-0.00931402,-0.00000023,-0.00007388,0.00
 039807,0.00000002,-0.00058716,0.00194912,0.00000007,0.00146447,0.00039
 103,0.,0.00190467,0.00572545,0.00000006,-0.11627738,0.47849174,0.,-0.0
 0000001,-0.00008745,0.,-0.00000003,-0.00003891,-0.00000011,0.,0.000728
 00,0.,0.,0.00010519,0.,0.00000001,-0.00003055,0.,0.,0.00003465,0.,0.,-
 0.00001217,0.,0.,-0.00002534,0.,0.,-0.00001563,0.,0.,-0.00000496,0.000
 00009,-0.00000035,0.00310166,0.,-0.00000001,-0.00045749,-0.00000060,-0
 .00000026,0.01086441,0.00000023,-0.00000020,0.00659769,0.00000126,-0.0
 0000055,-0.05214752,-0.00000005,0.00000024,-0.00103891,0.,0.,0.0003491
 8,0.00000118,0.00000015,0.00963673,-0.00000012,-0.00000034,0.00484117,
 0.,0.00000002,-0.00067083,-0.00000003,0.00000010,-0.00337898,0.0000000
 3,0.,-0.00017181,0.00000016,-0.00000001,-0.00313382,-0.00000662,0.0000
 0836,0.03678287,0.00005742,-0.00038392,0.,-0.00066947,0.00015475,0.,-0
 .00106144,0.00179649,0.,0.00062899,0.00012995,0.,-0.00007260,0.0002818
 0,0.,-0.00032726,-0.00002561,0.,0.00002382,-0.00000964,0.,-0.00032971,
 0.00002303,0.,0.00000171,0.00000527,0.,-0.00001778,-0.00003487,0.,-0.0
 0969907,-0.00156445,0.00000002,-0.00080959,-0.00108027,0.,0.00185242,0
 .00290064,0.,0.00013639,0.00095156,0.,-0.04644097,0.03277958,0.0000009
 6,0.00072896,0.00121608,0.00000001,0.00048892,0.00022126,0.,-0.0016270
 3,-0.00485496,-0.00000008,-0.00175477,0.00072396,0.00000004,0.00006148
 ,-0.00000617,0.,-0.00018223,0.00012501,0.,-0.00020568,-0.00017809,0.,0
 .00461684,-0.00739051,-0.00000004,-0.18841986,0.17171153,0.00000457,0.
 24302052,0.00028581,0.00072409,0.,0.00064765,0.00262835,0.,0.00919946,
 -0.00224102,-0.00000005,-0.00071535,0.00077971,0.,-0.00036864,-0.00065
 636,0.,0.00042828,0.00029391,0.,-0.00013479,0.00024723,0.,0.00021595,-
 0.00013995,0.,-0.00013757,0.00010958,0.,-0.00006121,0.00008631,0.,-0.0
 0068680,0.00652384,0.00000003,0.00105182,0.00364233,0.,-0.00006091,-0.
 00539930,-0.00000005,-0.00292825,-0.00001686,0.00000002,0.00712625,0.0
 1955275,0.00000032,-0.00030225,-0.00438037,-0.00000007,-0.00040999,-0.
 00016755,0.,-0.01072183,0.00116926,0.00000006,0.00346776,0.00338794,0.
 00000001,0.00005104,-0.00014348,0.,0.00023408,-0.00005584,0.00000002,-
 0.00040485,0.00003367,0.,-0.01751836,-0.00010858,0.00000010,0.20923515
 ,-0.31649401,-0.00000710,-0.19749246,0.29062436,0.,0.,0.00015492,0.000
 00001,0.00000002,0.00022612,0.00000008,-0.00000002,-0.00055104,-0.0000
 0001,0.,-0.00020188,0.,0.,-0.00000594,0.,0.,-0.00003603,0.,0.,0.000021
 88,0.,0.,0.00009122,0.,0.,0.00001867,0.,0.,-0.00000261,0.00000002,0.00
 000011,-0.00683980,0.,0.00000002,0.00071948,-0.00000003,-0.00000003,-0
 .00168566,-0.00000005,-0.00000001,-0.00023786,0.00000028,-0.00000003,-
 0.00109197,0.,-0.00000007,-0.00013220,-0.00000001,0.,-0.00005361,-0.00
 000012,0.00000001,0.00256859,0.00000006,0.00000001,0.00193966,0.,0.,-0
 .00007408,0.,0.00000001,-0.00061246,0.,0.,-0.00029901,-0.00000016,0.00
 000007,0.00133930,0.00000543,-0.00000681,-0.01182716,-0.00000551,0.000
 00671,0.01657145\\0.00041918,-0.00107292,-0.00000005,-0.00137733,-0.00
 238965,-0.00000016,-0.00292966,-0.00010094,0.,-0.00018858,0.00019959,0
 .00000006,0.00028762,0.00171163,0.,0.00036439,0.00032501,-0.00000003,0
 .00014395,-0.00016228,0.00000002,-0.00015646,0.00009496,0.,0.00001727,
 0.00012057,0.,0.00009542,0.00005151,0.00000001,0.00269704,-0.00291881,
 0.00000038,-0.00128866,-0.00457468,0.00000033,0.00174678,-0.00144111,-
 0.00000013,-0.00258327,0.00076993,-0.00000021,-0.00350202,-0.00119134,
 0.00000041,0.00075070,-0.00095143,-0.00000008,-0.00013745,0.00006052,0
 .00000001,0.00149357,0.00006365,0.00000004,0.00198192,0.00109252,0.000
 00008,0.00003954,0.00010381,0.00000001,0.00017855,-0.00001570,-0.00000
 001,0.00021047,0.00013437,0.,0.00158154,0.00080990,-0.00000034,0.00229
 208,0.00223815,-0.00000018,-0.00213660,0.00704277,-0.00000012\\\@
 The archive entry for this job was punched.


 WAR ES EIN GOTT DER DIESE ZEICHEN SCHRIEB?
          - LUDWIG BOLTZMANN, QUOTING GOETHE, ABOUT MAXWELL'S EQUATIONS.
 Job cpu time:       0 days  0 hours 58 minutes 53.6 seconds.
 Elapsed time:       0 days  0 hours  5 minutes 56.0 seconds.
 File lengths (MBytes):  RWF=    544 Int=      0 D2E=      0 Chk=     40 Scr=      8
 Normal termination of Gaussian 16 at Tue Oct 27 23:57:44 2020.
