 Entering Gaussian System, Link 0=g16
 Initial command:
 /gpfs/loomis/apps/avx/software/Gaussian/16-C.01_AVX/g16/l1.exe "/home/fas/batista/pev4/scratch60/gauss-scratch/Gau-167037.inp" -scrdir="/home/fas/batista/pev4/scratch60/gauss-scratch/"
 Entering Link 1 = /gpfs/loomis/apps/avx/software/Gaussian/16-C.01_AVX/g16/l1.exe PID=    167038.
  
 Copyright (c) 1988-2019, Gaussian, Inc.  All Rights Reserved.
  
 This is part of the Gaussian(R) 16 program.  It is based on
 the Gaussian(R) 09 system (copyright 2009, Gaussian, Inc.),
 the Gaussian(R) 03 system (copyright 2003, Gaussian, Inc.),
 the Gaussian(R) 98 system (copyright 1998, Gaussian, Inc.),
 the Gaussian(R) 94 system (copyright 1995, Gaussian, Inc.),
 the Gaussian 92(TM) system (copyright 1992, Gaussian, Inc.),
 the Gaussian 90(TM) system (copyright 1990, Gaussian, Inc.),
 the Gaussian 88(TM) system (copyright 1988, Gaussian, Inc.),
 the Gaussian 86(TM) system (copyright 1986, Carnegie Mellon
 University), and the Gaussian 82(TM) system (copyright 1983,
 Carnegie Mellon University). Gaussian is a federally registered
 trademark of Gaussian, Inc.
  
 This software contains proprietary and confidential information,
 including trade secrets, belonging to Gaussian, Inc.
  
 This software is provided under written license and may be
 used, copied, transmitted, or stored only in accord with that
 written license.
  
 The following legend is applicable only to US Government
 contracts under FAR:
  
                    RESTRICTED RIGHTS LEGEND
  
 Use, reproduction and disclosure by the US Government is
 subject to restrictions as set forth in subparagraphs (a)
 and (c) of the Commercial Computer Software - Restricted
 Rights clause in FAR 52.227-19.
  
 Gaussian, Inc.
 340 Quinnipiac St., Bldg. 40, Wallingford CT 06492
  
  
 ---------------------------------------------------------------
 Warning -- This program may not be used in any manner that
 competes with the business of Gaussian, Inc. or will provide
 assistance to any competitor of Gaussian, Inc.  The licensee
 of this program is prohibited from giving any competitor of
 Gaussian, Inc. access to this program.  By using this program,
 the user acknowledges that Gaussian, Inc. is engaged in the
 business of creating and licensing software in the field of
 computational chemistry and represents and warrants to the
 licensee that it is not a competitor of Gaussian, Inc. and that
 it will not use this program in any manner prohibited above.
 ---------------------------------------------------------------
  

 Cite this work as:
 Gaussian 16, Revision C.01,
 M. J. Frisch, G. W. Trucks, H. B. Schlegel, G. E. Scuseria, 
 M. A. Robb, J. R. Cheeseman, G. Scalmani, V. Barone, 
 G. A. Petersson, H. Nakatsuji, X. Li, M. Caricato, A. V. Marenich, 
 J. Bloino, B. G. Janesko, R. Gomperts, B. Mennucci, H. P. Hratchian, 
 J. V. Ortiz, A. F. Izmaylov, J. L. Sonnenberg, D. Williams-Young, 
 F. Ding, F. Lipparini, F. Egidi, J. Goings, B. Peng, A. Petrone, 
 T. Henderson, D. Ranasinghe, V. G. Zakrzewski, J. Gao, N. Rega, 
 G. Zheng, W. Liang, M. Hada, M. Ehara, K. Toyota, R. Fukuda, 
 J. Hasegawa, M. Ishida, T. Nakajima, Y. Honda, O. Kitao, H. Nakai, 
 T. Vreven, K. Throssell, J. A. Montgomery, Jr., J. E. Peralta, 
 F. Ogliaro, M. J. Bearpark, J. J. Heyd, E. N. Brothers, K. N. Kudin, 
 V. N. Staroverov, T. A. Keith, R. Kobayashi, J. Normand, 
 K. Raghavachari, A. P. Rendell, J. C. Burant, S. S. Iyengar, 
 J. Tomasi, M. Cossi, J. M. Millam, M. Klene, C. Adamo, R. Cammi, 
 J. W. Ochterski, R. L. Martin, K. Morokuma, O. Farkas, 
 J. B. Foresman, and D. J. Fox, Gaussian, Inc., Wallingford CT, 2019.
 
 ******************************************
 Gaussian 16:  ES64L-G16RevC.01  3-Jul-2019
                28-Oct-2020 
 ******************************************
 %chk=config_7_15.chk
 %mem=58GB
 %nprocshared=10
 Will use up to   10 processors via shared memory.
 ----------------------------------------------------------------------
 #p opt=addgic freq wb97xd/cc-pvdz nosymm int=ultrafine scrf=(solvent=C
 arbonTetraChloride)
 ----------------------------------------------------------------------
 1/18=20,19=15,26=6,38=1,145=903/1,3;
 2/9=110,12=2,15=1,17=6,18=5,40=1/2;
 3/5=16,11=2,25=1,30=1,70=2201,71=1,72=11,74=-58,75=-5/1,2,3;
 4//1;
 5/5=2,38=5,53=11/2;
 6/7=2,8=2,9=2,10=2,28=1/1;
 7/30=1/1,2,3,16;
 1/18=20,19=15,26=6,145=903/3(2);
 2/9=110,15=1/2;
 99//99;
 2/9=110,15=1/2;
 3/5=16,11=2,25=1,30=1,70=2205,71=1,72=11,74=-58,75=-5/1,2,3;
 4/5=5,16=3,69=1/1;
 5/5=2,38=5,53=11/2;
 7/30=1/1,2,3,16;
 1/18=20,19=15,26=6,145=903/3(-5);
 2/9=110,15=1/2;
 6/7=2,8=2,9=2,10=2,19=2,28=1/1;
 99/9=1/99;
 Leave Link    1 at Wed Oct 28 00:36:45 2020, MaxMem=  7784628224 cpu:               4.8 elap:               0.7
 (Enter /gpfs/loomis/apps/avx/software/Gaussian/16-C.01_AVX/g16/l101.exe)
 ------------------------------------------------
 NM 2D-scan of HBT TD-WB97XD pVDZ in CTC Relaxed.
 ------------------------------------------------
 Symbolic Z-matrix:
 Charge =  0 Multiplicity = 1
 C                     1.5621   -3.25309  -0.00002 
 C                     1.00121  -1.9762   -0.00002 
 C                     1.78092  -0.78106  -0.00003 
 C                     3.18698  -0.91834  -0.00003 
 C                     3.7436   -2.19889  -0.00002 
 C                     2.95176  -3.36138  -0.00002 
 H                     0.92084  -4.14042  -0.00001 
 H                     3.82582  -0.02918  -0.00003 
 H                     4.83302  -2.29822  -0.00002 
 H                     3.42387  -4.34729  -0.00001 
 N                     1.01644   0.36199  -0.00003 
 S                    -0.7052   -1.61876  -0.00002 
 C                    -1.32833   1.06321   0.00001 
 C                    -2.69292   0.745     0.00002 
 C                    -0.901     2.47093   0.00004 
 C                    -3.65364   1.77152   0.00003 
 H                    -3.01603  -0.30071   0.00001 
 C                    -1.90827   3.47544   0.00004 
 C                    -3.26596   3.12423   0.00004 
 H                    -4.71526   1.50944   0.00003 
 H                    -1.58601   4.52112   0.00006 
 H                    -4.0301    3.90536   0.00005 
 C                    -0.31628   0.07797  -0.00002 
 O                     0.35869   2.7176    0.00005 
 H                     0.99288   1.52362   0.00001 
 
 Initializing the GIC definitions file.
 Number of initial coordinates =   134
 Number of input entries/lines =    52
 Number of additional coordinates =     2
 Number of removed coordinates =     0
 Number of frozen coordinates =     2
 Number of final active and frozen coordinates =   136
 ITRead=  0  0  0  0  0  0  0  0  0  0  0  0  0  0  0  0  0  0  0  0
 ITRead=  0  0  0  0  0
 MicOpt= -1 -1 -1 -1 -1 -1 -1 -1 -1 -1 -1 -1 -1 -1 -1 -1 -1 -1 -1 -1
 MicOpt= -1 -1 -1 -1 -1
 NAtoms=     25 NQM=       25 NQMF=       0 NMMI=      0 NMMIF=      0
                NMic=       0 NMicF=      0.
                    Isotopes and Nuclear Properties:
 (Nuclear quadrupole moments (NQMom) in fm**2, nuclear magnetic moments (NMagM)
  in nuclear magnetons)

  Atom         1           2           3           4           5           6           7           8           9          10
 IAtWgt=          12          12          12          12          12          12           1           1           1           1
 AtmWgt=  12.0000000  12.0000000  12.0000000  12.0000000  12.0000000  12.0000000   1.0078250   1.0078250   1.0078250   1.0078250
 NucSpn=           0           0           0           0           0           0           1           1           1           1
 AtZEff=  -0.0000000  -0.0000000  -0.0000000  -0.0000000  -0.0000000  -0.0000000  -0.0000000  -0.0000000  -0.0000000  -0.0000000
 NQMom=    0.0000000   0.0000000   0.0000000   0.0000000   0.0000000   0.0000000   0.0000000   0.0000000   0.0000000   0.0000000
 NMagM=    0.0000000   0.0000000   0.0000000   0.0000000   0.0000000   0.0000000   2.7928460   2.7928460   2.7928460   2.7928460
 AtZNuc=   6.0000000   6.0000000   6.0000000   6.0000000   6.0000000   6.0000000   1.0000000   1.0000000   1.0000000   1.0000000

  Atom        11          12          13          14          15          16          17          18          19          20
 IAtWgt=          14          32          12          12          12          12           1          12          12           1
 AtmWgt=  14.0030740  31.9720718  12.0000000  12.0000000  12.0000000  12.0000000   1.0078250  12.0000000  12.0000000   1.0078250
 NucSpn=           2           0           0           0           0           0           1           0           0           1
 AtZEff=  -0.0000000  -0.0000000  -0.0000000  -0.0000000  -0.0000000  -0.0000000  -0.0000000  -0.0000000  -0.0000000  -0.0000000
 NQMom=    2.0440000   0.0000000   0.0000000   0.0000000   0.0000000   0.0000000   0.0000000   0.0000000   0.0000000   0.0000000
 NMagM=    0.4037610   0.0000000   0.0000000   0.0000000   0.0000000   0.0000000   2.7928460   0.0000000   0.0000000   2.7928460
 AtZNuc=   7.0000000  16.0000000   6.0000000   6.0000000   6.0000000   6.0000000   1.0000000   6.0000000   6.0000000   1.0000000

  Atom        21          22          23          24          25
 IAtWgt=           1           1          12          16           1
 AtmWgt=   1.0078250   1.0078250  12.0000000  15.9949146   1.0078250
 NucSpn=           1           1           0           0           1
 AtZEff=  -0.0000000  -0.0000000  -0.0000000  -0.0000000  -0.0000000
 NQMom=    0.0000000   0.0000000   0.0000000   0.0000000   0.0000000
 NMagM=    2.7928460   2.7928460   0.0000000   0.0000000   2.7928460
 AtZNuc=   1.0000000   1.0000000   6.0000000   8.0000000   1.0000000
 Leave Link  101 at Wed Oct 28 00:36:50 2020, MaxMem=  7784628224 cpu:              31.3 elap:               4.4
 (Enter /gpfs/loomis/apps/avx/software/Gaussian/16-C.01_AVX/g16/l103.exe)

 GradGradGradGradGradGradGradGradGradGradGradGradGradGradGradGradGradGrad
 Berny optimization.
 Initialization pass.
                           ----------------------------
                           !    Initial Parameters    !
                           ! (Angstroms and Degrees)  !
 --------------------------                            --------------------------
 ! Name  Definition              Value          Derivative Info.                !
 --------------------------------------------------------------------------------
 ! R1    R(1,2)                  1.3946         estimate D2E/DX2                !
 ! R2    R(1,6)                  1.3939         estimate D2E/DX2                !
 ! R3    R(1,7)                  1.0948         estimate D2E/DX2                !
 ! R4    R(2,3)                  1.427          estimate D2E/DX2                !
 ! R5    R(2,12)                 1.7434         estimate D2E/DX2                !
 ! R6    R(3,4)                  1.4127         estimate D2E/DX2                !
 ! R7    R(3,11)                 1.3751         estimate D2E/DX2                !
 ! R8    R(4,5)                  1.3963         estimate D2E/DX2                !
 ! R9    R(4,8)                  1.0949         estimate D2E/DX2                !
 ! R10   R(5,6)                  1.4066         estimate D2E/DX2                !
 ! R11   R(5,9)                  1.0939         estimate D2E/DX2                !
 ! R12   R(6,10)                 1.0931         estimate D2E/DX2                !
 ! R13   R(11,23)                1.3627         estimate D2E/DX2                !
 ! R14   R(11,25)                1.1619         estimate D2E/DX2                !
 ! R15   R(12,23)                1.7407         estimate D2E/DX2                !
 ! R16   R(13,14)                1.4012         estimate D2E/DX2                !
 ! R17   R(13,15)                1.4712         estimate D2E/DX2                !
 ! R18   R(13,23)                1.4124         estimate D2E/DX2                !
 ! R19   R(14,16)                1.406          estimate D2E/DX2                !
 ! R20   R(14,17)                1.0945         estimate D2E/DX2                !
 ! R21   R(15,18)                1.4225         estimate D2E/DX2                !
 ! R22   R(15,24)                1.2836         estimate D2E/DX2                !
 ! R23   R(16,19)                1.4072         estimate D2E/DX2                !
 ! R24   R(16,20)                1.0935         estimate D2E/DX2                !
 ! R25   R(18,19)                1.4024         estimate D2E/DX2                !
 ! R26   R(18,21)                1.0942         estimate D2E/DX2                !
 ! R27   R(19,22)                1.0927         estimate D2E/DX2                !
 ! A1    A(2,1,6)              118.1696         estimate D2E/DX2                !
 ! A2    A(2,1,7)              120.4313         estimate D2E/DX2                !
 ! A3    A(6,1,7)              121.3991         estimate D2E/DX2                !
 ! A4    A(1,2,3)              123.1659         estimate D2E/DX2                !
 ! A5    A(1,2,12)             125.5445         estimate D2E/DX2                !
 ! A6    A(3,2,12)             111.2896         estimate D2E/DX2                !
 ! A7    A(2,3,4)              117.544          estimate D2E/DX2                !
 ! A8    A(2,3,11)             113.1051         estimate D2E/DX2                !
 ! A9    A(4,3,11)             129.3509         estimate D2E/DX2                !
 ! A10   A(3,4,5)              119.0693         estimate D2E/DX2                !
 ! A11   A(3,4,8)              120.1202         estimate D2E/DX2                !
 ! A12   A(5,4,8)              120.8104         estimate D2E/DX2                !
 ! A13   A(4,5,6)              122.2462         estimate D2E/DX2                !
 ! A14   A(4,5,9)              118.7028         estimate D2E/DX2                !
 ! A15   A(6,5,9)              119.051          estimate D2E/DX2                !
 ! A16   A(1,6,5)              119.8049         estimate D2E/DX2                !
 ! A17   A(1,6,10)             120.0437         estimate D2E/DX2                !
 ! A18   A(5,6,10)             120.1514         estimate D2E/DX2                !
 ! A19   A(3,11,23)            111.7439         estimate D2E/DX2                !
 ! A20   A(3,11,25)            147.3872         estimate D2E/DX2                !
 ! A21   A(23,11,25)           100.8688         estimate D2E/DX2                !
 ! A22   A(2,12,23)             88.9206         estimate D2E/DX2                !
 ! A23   A(14,13,15)           120.0124         estimate D2E/DX2                !
 ! A24   A(14,13,23)           122.6427         estimate D2E/DX2                !
 ! A25   A(15,13,23)           117.3449         estimate D2E/DX2                !
 ! A26   A(13,14,16)           119.9777         estimate D2E/DX2                !
 ! A27   A(13,14,17)           120.297          estimate D2E/DX2                !
 ! A28   A(16,14,17)           119.7252         estimate D2E/DX2                !
 ! A29   A(13,15,18)           118.0352         estimate D2E/DX2                !
 ! A30   A(13,15,24)           117.9656         estimate D2E/DX2                !
 ! A31   A(18,15,24)           123.9992         estimate D2E/DX2                !
 ! A32   A(14,16,19)           120.9042         estimate D2E/DX2                !
 ! A33   A(14,16,20)           119.2369         estimate D2E/DX2                !
 ! A34   A(19,16,20)           119.859          estimate D2E/DX2                !
 ! A35   A(15,18,19)           120.5749         estimate D2E/DX2                !
 ! A36   A(15,18,21)           117.7934         estimate D2E/DX2                !
 ! A37   A(19,18,21)           121.6317         estimate D2E/DX2                !
 ! A38   A(16,19,18)           120.4956         estimate D2E/DX2                !
 ! A39   A(16,19,22)           119.6386         estimate D2E/DX2                !
 ! A40   A(18,19,22)           119.8658         estimate D2E/DX2                !
 ! A41   A(11,23,12)           114.9408         estimate D2E/DX2                !
 ! A42   A(11,23,13)           123.7382         estimate D2E/DX2                !
 ! A43   A(12,23,13)           121.3211         estimate D2E/DX2                !
 ! D1    D(6,1,2,3)              0.0            estimate D2E/DX2                !
 ! D2    D(6,1,2,12)           180.0            estimate D2E/DX2                !
 ! D3    D(7,1,2,3)            179.9999         estimate D2E/DX2                !
 ! D4    D(7,1,2,12)            -0.0001         estimate D2E/DX2                !
 ! D5    D(2,1,6,5)             -0.0001         estimate D2E/DX2                !
 ! D6    D(2,1,6,10)           179.9999         estimate D2E/DX2                !
 ! D7    D(7,1,6,5)            179.9999         estimate D2E/DX2                !
 ! D8    D(7,1,6,10)             0.0            estimate D2E/DX2                !
 ! D9    D(1,2,3,4)              0.0002         estimate D2E/DX2                !
 ! D10   D(1,2,3,11)          -180.0            estimate D2E/DX2                !
 ! D11   D(12,2,3,4)          -179.9998         estimate D2E/DX2                !
 ! D12   D(12,2,3,11)            0.0            estimate D2E/DX2                !
 ! D13   D(1,2,12,23)          179.9997         estimate D2E/DX2                !
 ! D14   D(3,2,12,23)           -0.0003         estimate D2E/DX2                !
 ! D15   D(2,3,4,5)             -0.0002         estimate D2E/DX2                !
 ! D16   D(2,3,4,8)            179.9999         estimate D2E/DX2                !
 ! D17   D(11,3,4,5)           180.0            estimate D2E/DX2                !
 ! D18   D(11,3,4,8)             0.0            estimate D2E/DX2                !
 ! D19   D(2,3,11,23)            0.0004         estimate D2E/DX2                !
 ! D20   D(2,3,11,25)          179.9956         estimate D2E/DX2                !
 ! D21   D(4,3,11,23)         -179.9998         estimate D2E/DX2                !
 ! D22   D(4,3,11,25)           -0.0045         estimate D2E/DX2                !
 ! D23   D(3,4,5,6)              0.0            estimate D2E/DX2                !
 ! D24   D(3,4,5,9)           -179.9999         estimate D2E/DX2                !
 ! D25   D(8,4,5,6)            180.0            estimate D2E/DX2                !
 ! D26   D(8,4,5,9)              0.0            estimate D2E/DX2                !
 ! D27   D(4,5,6,1)              0.0001         estimate D2E/DX2                !
 ! D28   D(4,5,6,10)          -179.9999         estimate D2E/DX2                !
 ! D29   D(9,5,6,1)           -179.9999         estimate D2E/DX2                !
 ! D30   D(9,5,6,10)             0.0            estimate D2E/DX2                !
 ! D31   D(3,11,23,12)          -0.0006         estimate D2E/DX2                !
 ! D32   D(3,11,23,13)         179.9984         estimate D2E/DX2                !
 ! D33   D(25,11,23,12)       -179.998          estimate D2E/DX2                !
 ! D34   D(25,11,23,13)          0.001          estimate D2E/DX2                !
 ! D35   D(2,12,23,11)           0.0005         estimate D2E/DX2                !
 ! D36   D(2,12,23,13)        -179.9985         estimate D2E/DX2                !
 ! D37   D(15,13,14,16)          0.001          estimate D2E/DX2                !
 ! D38   D(15,13,14,17)       -179.9994         estimate D2E/DX2                !
 ! D39   D(23,13,14,16)       -179.9991         estimate D2E/DX2                !
 ! D40   D(23,13,14,17)          0.0005         estimate D2E/DX2                !
 ! D41   D(14,13,15,18)         -0.0012         estimate D2E/DX2                !
 ! D42   D(14,13,15,24)        179.9985         estimate D2E/DX2                !
 ! D43   D(23,13,15,18)        179.9989         estimate D2E/DX2                !
 ! D44   D(23,13,15,24)         -0.0014         estimate D2E/DX2                !
 ! D45   D(14,13,23,11)       -179.9999         estimate D2E/DX2                !
 ! D46   D(14,13,23,12)         -0.001          estimate D2E/DX2                !
 ! D47   D(15,13,23,11)          0.0            estimate D2E/DX2                !
 ! D48   D(15,13,23,12)        179.9989         estimate D2E/DX2                !
 ! D49   D(13,14,16,19)         -0.0002         estimate D2E/DX2                !
 ! D50   D(13,14,16,20)        179.9997         estimate D2E/DX2                !
 ! D51   D(17,14,16,19)       -179.9998         estimate D2E/DX2                !
 ! D52   D(17,14,16,20)          0.0001         estimate D2E/DX2                !
 ! D53   D(13,15,18,19)          0.0006         estimate D2E/DX2                !
 ! D54   D(13,15,18,21)       -180.0            estimate D2E/DX2                !
 ! D55   D(24,15,18,19)       -179.9991         estimate D2E/DX2                !
 ! D56   D(24,15,18,21)          0.0003         estimate D2E/DX2                !
 ! D57   D(14,16,19,18)         -0.0004         estimate D2E/DX2                !
 ! D58   D(14,16,19,22)        179.9999         estimate D2E/DX2                !
 ! D59   D(20,16,19,18)        179.9997         estimate D2E/DX2                !
 ! D60   D(20,16,19,22)         -0.0001         estimate D2E/DX2                !
 ! D61   D(15,18,19,16)          0.0002         estimate D2E/DX2                !
 ! D62   D(15,18,19,22)        179.9999         estimate D2E/DX2                !
 ! D63   D(21,18,19,16)       -179.9992         estimate D2E/DX2                !
 ! D64   D(21,18,19,22)          0.0005         estimate D2E/DX2                !
 ! Qtot  GIC-1                  10.0            Frozen                          !
 ! Ptot  GIC-2                 140.0            Frozen                          !
 --------------------------------------------------------------------------------
 NOTE: GIC-type coordinates are in arbitrary units.
 Trust Radius=3.00D-01 FncErr=5.00D-06 GrdErr=5.00D-06 EigMax=2.50D+02 EigMin=1.00D-04
 Number of steps in this run=    146 maximum allowed number of steps=    150.
 GradGradGradGradGradGradGradGradGradGradGradGradGradGradGradGradGradGrad

 Leave Link  103 at Wed Oct 28 00:36:50 2020, MaxMem=  7784628224 cpu:               0.1 elap:               0.0
 (Enter /gpfs/loomis/apps/avx/software/Gaussian/16-C.01_AVX/g16/l202.exe)
                          Input orientation:                          
 ---------------------------------------------------------------------
 Center     Atomic      Atomic             Coordinates (Angstroms)
 Number     Number       Type             X           Y           Z
 ---------------------------------------------------------------------
      1          6           0        1.562096   -3.253093   -0.000018
      2          6           0        1.001212   -1.976201   -0.000023
      3          6           0        1.780918   -0.781058   -0.000026
      4          6           0        3.186980   -0.918336   -0.000029
      5          6           0        3.743595   -2.198890   -0.000024
      6          6           0        2.951763   -3.361384   -0.000017
      7          1           0        0.920841   -4.140422   -0.000014
      8          1           0        3.825819   -0.029184   -0.000034
      9          1           0        4.833016   -2.298222   -0.000024
     10          1           0        3.423873   -4.347290   -0.000012
     11          7           0        1.016443    0.361994   -0.000030
     12         16           0       -0.705199   -1.618760   -0.000025
     13          6           0       -1.328327    1.063207    0.000010
     14          6           0       -2.692915    0.745002    0.000020
     15          6           0       -0.900997    2.470928    0.000035
     16          6           0       -3.653642    1.771517    0.000031
     17          1           0       -3.016034   -0.300709    0.000011
     18          6           0       -1.908267    3.475442    0.000042
     19          6           0       -3.265964    3.124226    0.000039
     20          1           0       -4.715258    1.509442    0.000034
     21          1           0       -1.586011    4.521123    0.000060
     22          1           0       -4.030096    3.905365    0.000045
     23          6           0       -0.316283    0.077968   -0.000021
     24          8           0        0.358689    2.717596    0.000055
     25          1           0        0.992884    1.523624    0.000015
 ---------------------------------------------------------------------
                    Distance matrix (angstroms):
                    1          2          3          4          5
     1  C    0.000000
     2  C    1.394648   0.000000
     3  C    2.481701   1.426993   0.000000
     4  C    2.844528   2.428304   1.412747   0.000000
     5  C    2.422867   2.751410   2.421228   1.396294   0.000000
     6  C    1.393880   2.392359   2.833541   2.454344   1.406553
     7  H    1.094788   2.165713   3.467717   3.939191   3.426002
     8  H    3.939294   3.430639   2.178746   1.094855   2.171264
     9  H    3.407448   3.845312   3.408385   2.147911   1.093940
    10  H    2.159510   3.389890   3.926488   3.437127   2.172060
    11  N    3.656035   2.338245   1.375133   2.520015   3.741054
    12  S    2.794936   1.743445   2.623456   3.954700   4.486460
    13  C    5.194708   3.829459   3.615069   4.930974   6.030396
    14  C    5.838654   4.588193   4.726949   6.110635   7.077793
    15  C    6.231472   4.836875   4.215220   5.310241   6.586307
    16  C    7.242280   5.976040   6.004172   7.350470   8.395430
    17  H    5.447554   4.352647   4.820943   6.233686   7.021088
    18  C    7.570773   6.179440   5.632751   6.728062   8.008844
    19  C    7.998772   6.650049   6.381400   7.614643   8.801675
    20  H    7.879524   6.695351   6.888156   8.266769   9.236012
    21  H    8.387432   6.993493   6.280871   7.236654   8.576904
    22  H    9.083839   7.739953   7.465283   8.680684   9.883936
    23  C    3.824170   2.440370   2.266314   3.642180   4.654750
    24  O    6.090757   4.737570   3.776681   4.606434   5.969038
    25  H    4.810512   3.499835   2.435684   3.282868   4.628555
                    6          7          8          9         10
     6  C    0.000000
     7  H    2.175212   0.000000
     8  H    3.444928   5.034002   0.000000
     9  H    2.160886   4.324213   2.482535   0.000000
    10  H    1.093115   2.511566   4.336773   2.486838   0.000000
    11  N    4.196309   4.503432   2.836478   4.652201   5.288958
    12  S    4.050939   3.000464   4.801757   5.579740   4.949153
    13  C    6.155987   5.668908   5.268637   7.018643   7.201173
    14  C    6.980314   6.076726   6.564545   8.117934   7.959053
    15  C    6.989965   6.857773   5.347274   7.458129   8.074193
    16  C    8.365288   7.475087   7.693169   9.412021   9.355801
    17  H    6.706887   5.499308   6.847239   8.099238   7.605737
    18  C    8.388210   8.124361   6.720278   8.875815   9.467146
    19  C    8.984612   8.384775   7.761274   9.746611  10.028832
    20  H    9.083399   7.980387   8.678557  10.279486  10.027301
    21  H    9.095345   9.017021   7.070586   9.365221  10.185661
    22  H   10.077300   9.447035   8.786129  10.818468  11.120610
    23  C    4.744393   4.396054   4.143488   5.671116   5.794107
    24  O    6.608935   6.881019   4.423323   6.721460   7.701166
    25  H    5.263127   5.664504   3.230593   5.417852   6.354316
                   11         12         13         14         15
    11  N    0.000000
    12  S    2.624393   0.000000
    13  C    2.447375   2.753405   0.000000
    14  C    3.729079   3.088427   1.401198   0.000000
    15  C    2.850294   4.094372   1.471152   2.487930   0.000000
    16  C    4.878160   4.493027   2.430801   1.405962   2.840111
    17  H    4.086569   2.660304   2.169936   1.094493   3.486453
    18  C    4.271707   5.234335   2.480969   2.840947   1.422547
    19  C    5.095972   5.390124   2.828822   2.447263   2.453542
    20  H    5.845428   5.085884   3.416201   2.161999   3.933579
    21  H    4.906233   6.202741   3.467504   3.935013   2.161607
    22  H    6.166282   6.447549   3.921405   3.431610   3.442219
    23  C    1.362656   1.740730   1.412420   2.468464   2.463361
    24  O    2.445710   4.464957   2.362842   3.633651   1.283610
    25  H    1.161868   3.571843   2.366433   3.767143   2.117586
                   16         17         18         19         20
    16  C    0.000000
    17  H    2.168101   0.000000
    18  C    2.439200   3.935285   0.000000
    19  C    1.407166   3.434042   1.402389   0.000000
    20  H    1.093486   2.482742   3.427004   2.169788   0.000000
    21  H    3.440266   5.029416   1.094210   2.184848   4.343087
    22  H    2.166800   4.326589   2.164947   1.092738   2.491966
    23  C    3.742469   2.726179   3.751965   4.240319   4.626024
    24  O    4.122362   4.527574   2.390276   3.647391   5.215801
    25  H    4.653134   4.404499   3.496608   4.549694   5.708159
                   21         22         23         24         25
    21  H    0.000000
    22  H    2.520458   0.000000
    23  C    4.621021   5.333045   0.000000
    24  O    2.652276   4.546673   2.724560   0.000000
    25  H    3.954200   5.559048   1.950344   1.351951   0.000000
 Symmetry turned off by external request.
 Stoichiometry    C13H9NOS
 Framework group  C1[X(C13H9NOS)]
 Deg. of freedom    69
 Full point group                 C1      NOp   1
 Rotational constants (GHZ):           1.4068440           0.2863459           0.2379202
 Leave Link  202 at Wed Oct 28 00:36:50 2020, MaxMem=  7784628224 cpu:               0.2 elap:               0.1
 (Enter /gpfs/loomis/apps/avx/software/Gaussian/16-C.01_AVX/g16/l301.exe)
 Standard basis: CC-pVDZ (5D, 7F)
 Ernie: Thresh=  0.10000D-02 Tol=  0.10000D-05 Strict=F.
 Ernie:  40 primitive shells out of 425 were deleted.
   273 basis functions,   629 primitive gaussians,   289 cartesian basis functions
    59 alpha electrons       59 beta electrons
       nuclear repulsion energy      1100.7021989534 Hartrees.
 IExCor= 4639 DFT=T Ex+Corr=wB97XD ExCW=0 ScaHFX=  1.000000
 ScaDFX=  1.000000  1.000000  1.000000  1.000000 ScalE2=  1.000000  1.000000
 IRadAn=      5 IRanWt=     -1 IRanGd=            0 ICorTp=0 IEmpDi=121
 HFx  wShort=  0.000000 wLong=  0.200000 cFull=  0.222036 cShort=  0.000000 cLong=  0.777964
 DFx  wShort=  0.000000 wLong=  0.200000 cFull=  0.000000 cShort=  0.000000 cLong=  1.000000
 NAtoms=   25 NActive=   25 NUniq=   25 SFac= 1.00D+00 NAtFMM=   60 NAOKFM=F Big=F
 Integral buffers will be    131072 words long.
 Raffenetti 2 integral format.
 Two-electron integral symmetry is turned off.
 R6Disp:  Grimme-D2 Dispersion energy=       -0.0138672291 Hartrees.
 Nuclear repulsion after empirical dispersion term =     1100.6883317243 Hartrees.
 ------------------------------------------------------------------------------
 Polarizable Continuum Model (PCM)
 =================================
 Model                : PCM.
 Atomic radii         : UFF (Universal Force Field).
 Polarization charges : Total charges.
 Charge compensation  : None.
 Solution method      : On-the-fly selection.
 Cavity type          : Scaled VdW (van der Waals Surface) (Alpha=1.100).
 Cavity algorithm     : GePol (No added spheres)
                        Default sphere list used, NSphG=   25.
                        Lebedev-Laikov grids with approx.  5.0 points / Ang**2.
                        Smoothing algorithm: York/Karplus (Gamma=1.0000).
                        Polarization charges: spherical gaussians, with
                                              point-specific exponents (IZeta= 3).
                        Self-potential: point-specific (ISelfS= 7).
                        Self-field    : sphere-specific E.n sum rule (ISelfD= 2).
 1st derivatives      : Analytical E(r).r(x)/FMM algorithm (CHGder, D1EAlg=3).
                        Cavity 1st derivative terms included.
 Solvent              : CarbonTetraChloride, Eps=   2.228000 Eps(inf)=   2.131892
 ------------------------------------------------------------------------------
 GePol: Number of generator spheres                  =      25
 GePol: Total number of spheres                      =      25
 GePol: Number of exposed spheres                    =      25 (100.00%)
 GePol: Number of points                             =    2188
 GePol: Average weight of points                     =       0.12
 GePol: Minimum weight of points                     =   0.40D-11
 GePol: Maximum weight of points                     =    0.20577
 GePol: Number of points with low weight             =     132
 GePol: Fraction of low-weight points (<1% of avg)   =       6.03%
 GePol: Cavity surface area                          =    271.266 Ang**2
 GePol: Cavity volume                                =    291.718 Ang**3
 Leave Link  301 at Wed Oct 28 00:36:50 2020, MaxMem=  7784628224 cpu:               0.5 elap:               0.1
 (Enter /gpfs/loomis/apps/avx/software/Gaussian/16-C.01_AVX/g16/l302.exe)
 NPDir=0 NMtPBC=     1 NCelOv=     1 NCel=       1 NClECP=     1 NCelD=      1
         NCelK=      1 NCelE2=     1 NClLst=     1 CellRange=     0.0.
 One-electron integrals computed using PRISM.
 NBasis=   273 RedAO= T EigKep=  3.17D-04  NBF=   273
 NBsUse=   273 1.00D-06 EigRej= -1.00D+00 NBFU=   273
 Precomputing XC quadrature grid using
 IXCGrd= 4 IRadAn=           5 IRanWt=          -1 IRanGd=           0 AccXCQ= 0.00D+00.
 Generated NRdTot=       0 NPtTot=           0 NUsed=           0 NTot=          32
 NSgBfM=   288   288   288   288   288 MxSgAt=    25 MxSgA2=    25.
 Leave Link  302 at Wed Oct 28 00:36:51 2020, MaxMem=  7784628224 cpu:               8.0 elap:               1.2
 (Enter /gpfs/loomis/apps/avx/software/Gaussian/16-C.01_AVX/g16/l303.exe)
 DipDrv:  MaxL=1.
 Leave Link  303 at Wed Oct 28 00:36:51 2020, MaxMem=  7784628224 cpu:               0.8 elap:               0.2
 (Enter /gpfs/loomis/apps/avx/software/Gaussian/16-C.01_AVX/g16/l401.exe)
 ExpMin= 1.22D-01 ExpMax= 1.11D+05 ExpMxC= 1.07D+03 IAcc=3 IRadAn=         5 AccDes= 0.00D+00
 Harris functional with IExCor= 4639 and IRadAn=       5 diagonalized for initial guess.
 HarFok:  IExCor= 4639 AccDes= 0.00D+00 IRadAn=         5 IDoV= 1 UseB2=F ITyADJ=14
 ICtDFT=  3500011 ScaDFX=  1.000000  1.000000  1.000000  1.000000
 FoFCou: FMM=F IPFlag=           0 FMFlag=      100000 FMFlg1=           0
         NFxFlg=           0 DoJE=T BraDBF=F KetDBF=T FulRan=T
         wScrn=  0.000000 ICntrl=       500 IOpCl=  0 I1Cent=   200000004 NGrid=           0
         NMat0=    1 NMatS0=      1 NMatT0=    0 NMatD0=    1 NMtDS0=    0 NMtDT0=    0
 Symmetry not used in FoFCou.
 Harris En= -994.456492344145    
 JPrj=0 DoOrth=F DoCkMO=F.
 Leave Link  401 at Wed Oct 28 00:36:53 2020, MaxMem=  7784628224 cpu:              14.0 elap:               1.6
 (Enter /gpfs/loomis/apps/avx/software/Gaussian/16-C.01_AVX/g16/l502.exe)
 Two-electron integral symmetry not used.
 Closed shell SCF:
 Using DIIS extrapolation, IDIIS=  1040.
 NGot=  7784628224 LenX=  7784455381 LenY=  7784371419
 Requested convergence on RMS density matrix=1.00D-08 within 128 cycles.
 Requested convergence on MAX density matrix=1.00D-06.
 Requested convergence on             energy=1.00D-06.
 No special actions if energy rises.
 Fock matrices will be formed incrementally for  20 cycles.

 Cycle   1  Pass 1  IDiag  1:
 FoFJK:  IHMeth= 1 ICntrl=       0 DoSepK=T KAlg= 0 I1Cent=           0 FoldK=F
 IRaf=         1 NMat=       1 IRICut=       1 DoRegI=T DoRafI=F ISym2E= 0 IDoP0=0 IntGTp=1.
 FoFCou: FMM=F IPFlag=           0 FMFlag=      100000 FMFlg1=           0
         NFxFlg=           0 DoJE=T BraDBF=F KetDBF=F FulRan=T
         wScrn=  0.000000 ICntrl=       500 IOpCl=  0 I1Cent=           0 NGrid=           0
         NMat0=    1 NMatS0=      1 NMatT0=    0 NMatD0=    1 NMtDS0=    0 NMtDT0=    0
 Symmetry not used in FoFCou.
 Inv3:  Mode=1 IEnd=    14362032.
 Iteration    1 A*A^-1 deviation from unit magnitude is 5.33D-15 for   2173.
 Iteration    1 A*A^-1 deviation from orthogonality  is 1.95D-15 for   1914   1239.
 Iteration    1 A^-1*A deviation from unit magnitude is 5.33D-15 for   2173.
 Iteration    1 A^-1*A deviation from orthogonality  is 1.26D-15 for   1895   1492.
 E= -1028.56452701573    
 DIIS: error= 3.51D-02 at cycle   1 NSaved=   1.
 NSaved= 1 IEnMin= 1 EnMin= -1028.56452701573     IErMin= 1 ErrMin= 3.51D-02
 ErrMax= 3.51D-02  0.00D+00 EMaxC= 1.00D-01 BMatC= 3.94D-01 BMatP= 3.94D-01
 IDIUse=3 WtCom= 6.49D-01 WtEn= 3.51D-01
 Coeff-Com:  0.100D+01
 Coeff-En:   0.100D+01
 Coeff:      0.100D+01
 Gap=     0.330 Goal=   None    Shift=    0.000
 GapD=    0.330 DampG=1.000 DampE=0.500 DampFc=0.5000 IDamp=-1.
 Damping current iteration by 5.00D-01
 RMSDP=3.55D-03 MaxDP=2.26D-01              OVMax= 1.78D-01

 Cycle   2  Pass 1  IDiag  1:
 RMSU=  1.77D-03    CP:  9.93D-01
 E= -1028.68274817756     Delta-E=       -0.118221161826 Rises=F Damp=T
 DIIS: error= 1.25D-02 at cycle   2 NSaved=   2.
 NSaved= 2 IEnMin= 2 EnMin= -1028.68274817756     IErMin= 2 ErrMin= 1.25D-02
 ErrMax= 1.25D-02  0.00D+00 EMaxC= 1.00D-01 BMatC= 5.84D-02 BMatP= 3.94D-01
 IDIUse=3 WtCom= 8.75D-01 WtEn= 1.25D-01
 Coeff-Com: -0.281D+00 0.128D+01
 Coeff-En:   0.000D+00 0.100D+01
 Coeff:     -0.246D+00 0.125D+01
 Gap=     0.297 Goal=   None    Shift=    0.000
 RMSDP=1.15D-03 MaxDP=2.53D-02 DE=-1.18D-01 OVMax= 1.18D-01

 Cycle   3  Pass 1  IDiag  1:
 RMSU=  1.10D-03    CP:  9.92D-01  1.18D+00
 E= -1028.78819668379     Delta-E=       -0.105448506234 Rises=F Damp=F
 DIIS: error= 6.34D-03 at cycle   3 NSaved=   3.
 NSaved= 3 IEnMin= 3 EnMin= -1028.78819668379     IErMin= 3 ErrMin= 6.34D-03
 ErrMax= 6.34D-03  0.00D+00 EMaxC= 1.00D-01 BMatC= 1.55D-02 BMatP= 5.84D-02
 IDIUse=3 WtCom= 9.37D-01 WtEn= 6.34D-02
 Coeff-Com: -0.204D+00 0.498D+00 0.706D+00
 Coeff-En:   0.000D+00 0.000D+00 0.100D+01
 Coeff:     -0.191D+00 0.466D+00 0.725D+00
 Gap=     0.252 Goal=   None    Shift=    0.000
 RMSDP=5.57D-04 MaxDP=2.34D-02 DE=-1.05D-01 OVMax= 3.94D-02

 Cycle   4  Pass 1  IDiag  1:
 RMSU=  4.42D-04    CP:  9.90D-01  1.34D+00  8.26D-01
 E= -1028.80253670376     Delta-E=       -0.014340019967 Rises=F Damp=F
 DIIS: error= 2.10D-03 at cycle   4 NSaved=   4.
 NSaved= 4 IEnMin= 4 EnMin= -1028.80253670376     IErMin= 4 ErrMin= 2.10D-03
 ErrMax= 2.10D-03  0.00D+00 EMaxC= 1.00D-01 BMatC= 1.99D-03 BMatP= 1.55D-02
 IDIUse=3 WtCom= 9.79D-01 WtEn= 2.10D-02
 Coeff-Com: -0.722D-01 0.144D+00 0.349D+00 0.579D+00
 Coeff-En:   0.000D+00 0.000D+00 0.000D+00 0.100D+01
 Coeff:     -0.707D-01 0.141D+00 0.342D+00 0.588D+00
 Gap=     0.250 Goal=   None    Shift=    0.000
 RMSDP=1.80D-04 MaxDP=1.07D-02 DE=-1.43D-02 OVMax= 1.21D-02

 Cycle   5  Pass 1  IDiag  1:
 RMSU=  1.08D-04    CP:  9.90D-01  1.35D+00  9.03D-01  7.43D-01
 E= -1028.80462069303     Delta-E=       -0.002083989268 Rises=F Damp=F
 DIIS: error= 4.71D-04 at cycle   5 NSaved=   5.
 NSaved= 5 IEnMin= 5 EnMin= -1028.80462069303     IErMin= 5 ErrMin= 4.71D-04
 ErrMax= 4.71D-04  0.00D+00 EMaxC= 1.00D-01 BMatC= 5.67D-05 BMatP= 1.99D-03
 IDIUse=3 WtCom= 9.95D-01 WtEn= 4.71D-03
 Coeff-Com: -0.290D-02-0.362D-03 0.397D-01 0.162D+00 0.801D+00
 Coeff-En:   0.000D+00 0.000D+00 0.000D+00 0.000D+00 0.100D+01
 Coeff:     -0.288D-02-0.360D-03 0.395D-01 0.162D+00 0.802D+00
 Gap=     0.251 Goal=   None    Shift=    0.000
 RMSDP=5.25D-05 MaxDP=1.85D-03 DE=-2.08D-03 OVMax= 4.87D-03

 Cycle   6  Pass 1  IDiag  1:
 RMSU=  3.41D-05    CP:  9.90D-01  1.35D+00  9.20D-01  8.19D-01  1.08D+00
 E= -1028.80473730912     Delta-E=       -0.000116616091 Rises=F Damp=F
 DIIS: error= 2.17D-04 at cycle   6 NSaved=   6.
 NSaved= 6 IEnMin= 6 EnMin= -1028.80473730912     IErMin= 6 ErrMin= 2.17D-04
 ErrMax= 2.17D-04  0.00D+00 EMaxC= 1.00D-01 BMatC= 1.15D-05 BMatP= 5.67D-05
 IDIUse=3 WtCom= 9.98D-01 WtEn= 2.17D-03
 Coeff-Com:  0.147D-01-0.308D-01-0.557D-01-0.565D-01 0.250D+00 0.879D+00
 Coeff-En:   0.000D+00 0.000D+00 0.000D+00 0.000D+00 0.000D+00 0.100D+01
 Coeff:      0.147D-01-0.307D-01-0.556D-01-0.564D-01 0.249D+00 0.879D+00
 Gap=     0.252 Goal=   None    Shift=    0.000
 RMSDP=3.10D-05 MaxDP=1.50D-03 DE=-1.17D-04 OVMax= 3.55D-03

 Cycle   7  Pass 1  IDiag  1:
 RMSU=  1.63D-05    CP:  9.90D-01  1.35D+00  9.30D-01  8.49D-01  1.24D+00
                    CP:  1.26D+00
 E= -1028.80476827700     Delta-E=       -0.000030967880 Rises=F Damp=F
 DIIS: error= 1.36D-04 at cycle   7 NSaved=   7.
 NSaved= 7 IEnMin= 7 EnMin= -1028.80476827700     IErMin= 7 ErrMin= 1.36D-04
 ErrMax= 1.36D-04  0.00D+00 EMaxC= 1.00D-01 BMatC= 2.51D-06 BMatP= 1.15D-05
 IDIUse=3 WtCom= 9.99D-01 WtEn= 1.36D-03
 Coeff-Com:  0.697D-02-0.134D-01-0.300D-01-0.497D-01-0.100D-01 0.387D+00
 Coeff-Com:  0.709D+00
 Coeff-En:   0.000D+00 0.000D+00 0.000D+00 0.000D+00 0.000D+00 0.000D+00
 Coeff-En:   0.100D+01
 Coeff:      0.696D-02-0.133D-01-0.299D-01-0.497D-01-0.100D-01 0.386D+00
 Coeff:      0.710D+00
 Gap=     0.252 Goal=   None    Shift=    0.000
 RMSDP=1.20D-05 MaxDP=5.44D-04 DE=-3.10D-05 OVMax= 1.47D-03

 Cycle   8  Pass 1  IDiag  1:
 RMSU=  7.17D-06    CP:  9.90D-01  1.35D+00  9.32D-01  8.55D-01  1.29D+00
                    CP:  1.46D+00  1.14D+00
 E= -1028.80477412641     Delta-E=       -0.000005849410 Rises=F Damp=F
 DIIS: error= 5.09D-05 at cycle   8 NSaved=   8.
 NSaved= 8 IEnMin= 8 EnMin= -1028.80477412641     IErMin= 8 ErrMin= 5.09D-05
 ErrMax= 5.09D-05  0.00D+00 EMaxC= 1.00D-01 BMatC= 3.41D-07 BMatP= 2.51D-06
 IDIUse=1 WtCom= 1.00D+00 WtEn= 0.00D+00
 Coeff-Com: -0.134D-02 0.296D-02 0.506D-02 0.173D-02-0.412D-01-0.916D-01
 Coeff-Com:  0.177D+00 0.947D+00
 Coeff:     -0.134D-02 0.296D-02 0.506D-02 0.173D-02-0.412D-01-0.916D-01
 Coeff:      0.177D+00 0.947D+00
 Gap=     0.252 Goal=   None    Shift=    0.000
 RMSDP=6.53D-06 MaxDP=1.95D-04 DE=-5.85D-06 OVMax= 1.04D-03

 Cycle   9  Pass 1  IDiag  1:
 RMSU=  2.73D-06    CP:  9.90D-01  1.35D+00  9.32D-01  8.56D-01  1.30D+00
                    CP:  1.57D+00  1.39D+00  1.26D+00
 E= -1028.80477546620     Delta-E=       -0.000001339794 Rises=F Damp=F
 DIIS: error= 2.31D-05 at cycle   9 NSaved=   9.
 NSaved= 9 IEnMin= 9 EnMin= -1028.80477546620     IErMin= 9 ErrMin= 2.31D-05
 ErrMax= 2.31D-05  0.00D+00 EMaxC= 1.00D-01 BMatC= 5.78D-08 BMatP= 3.41D-07
 IDIUse=1 WtCom= 1.00D+00 WtEn= 0.00D+00
 Coeff-Com: -0.117D-02 0.231D-02 0.513D-02 0.688D-02-0.921D-02-0.837D-01
 Coeff-Com: -0.492D-01 0.255D+00 0.874D+00
 Coeff:     -0.117D-02 0.231D-02 0.513D-02 0.688D-02-0.921D-02-0.837D-01
 Coeff:     -0.492D-01 0.255D+00 0.874D+00
 Gap=     0.252 Goal=   None    Shift=    0.000
 RMSDP=3.04D-06 MaxDP=8.14D-05 DE=-1.34D-06 OVMax= 5.39D-04

 Cycle  10  Pass 1  IDiag  1:
 RMSU=  1.31D-06    CP:  9.90D-01  1.35D+00  9.32D-01  8.56D-01  1.31D+00
                    CP:  1.61D+00  1.49D+00  1.46D+00  1.27D+00
 E= -1028.80477574847     Delta-E=       -0.000000282267 Rises=F Damp=F
 DIIS: error= 1.08D-05 at cycle  10 NSaved=  10.
 NSaved=10 IEnMin=10 EnMin= -1028.80477574847     IErMin=10 ErrMin= 1.08D-05
 ErrMax= 1.08D-05  0.00D+00 EMaxC= 1.00D-01 BMatC= 2.19D-08 BMatP= 5.78D-08
 IDIUse=1 WtCom= 1.00D+00 WtEn= 0.00D+00
 Coeff-Com: -0.121D-03 0.171D-03 0.880D-03 0.239D-02 0.604D-02-0.146D-01
 Coeff-Com: -0.612D-01-0.134D+00 0.389D+00 0.811D+00
 Coeff:     -0.121D-03 0.171D-03 0.880D-03 0.239D-02 0.604D-02-0.146D-01
 Coeff:     -0.612D-01-0.134D+00 0.389D+00 0.811D+00
 Gap=     0.252 Goal=   None    Shift=    0.000
 RMSDP=1.72D-06 MaxDP=4.02D-05 DE=-2.82D-07 OVMax= 2.76D-04

 Cycle  11  Pass 1  IDiag  1:
 RMSU=  6.08D-07    CP:  9.90D-01  1.35D+00  9.32D-01  8.56D-01  1.31D+00
                    CP:  1.62D+00  1.54D+00  1.56D+00  1.64D+00  1.14D+00
 E= -1028.80477582475     Delta-E=       -0.000000076285 Rises=F Damp=F
 DIIS: error= 5.04D-06 at cycle  11 NSaved=  11.
 NSaved=11 IEnMin=11 EnMin= -1028.80477582475     IErMin=11 ErrMin= 5.04D-06
 ErrMax= 5.04D-06  0.00D+00 EMaxC= 1.00D-01 BMatC= 2.71D-09 BMatP= 2.19D-08
 IDIUse=1 WtCom= 1.00D+00 WtEn= 0.00D+00
 Coeff-Com:  0.272D-03-0.563D-03-0.979D-03-0.939D-03 0.489D-02 0.134D-01
 Coeff-Com: -0.832D-02-0.989D-01-0.256D-01 0.228D+00 0.889D+00
 Coeff:      0.272D-03-0.563D-03-0.979D-03-0.939D-03 0.489D-02 0.134D-01
 Coeff:     -0.832D-02-0.989D-01-0.256D-01 0.228D+00 0.889D+00
 Gap=     0.252 Goal=   None    Shift=    0.000
 RMSDP=6.69D-07 MaxDP=2.16D-05 DE=-7.63D-08 OVMax= 1.29D-04

 Cycle  12  Pass 1  IDiag  1:
 RMSU=  2.40D-07    CP:  9.90D-01  1.35D+00  9.32D-01  8.56D-01  1.31D+00
                    CP:  1.63D+00  1.55D+00  1.59D+00  1.78D+00  1.40D+00
                    CP:  1.12D+00
 E= -1028.80477583743     Delta-E=       -0.000000012682 Rises=F Damp=F
 DIIS: error= 1.29D-06 at cycle  12 NSaved=  12.
 NSaved=12 IEnMin=12 EnMin= -1028.80477583743     IErMin=12 ErrMin= 1.29D-06
 ErrMax= 1.29D-06  0.00D+00 EMaxC= 1.00D-01 BMatC= 8.84D-10 BMatP= 2.71D-09
 IDIUse=1 WtCom= 1.00D+00 WtEn= 0.00D+00
 Coeff-Com:  0.135D-03-0.266D-03-0.565D-03-0.898D-03 0.110D-02 0.869D-02
 Coeff-Com:  0.863D-02-0.182D-01-0.914D-01-0.102D+00 0.380D+00 0.815D+00
 Coeff:      0.135D-03-0.266D-03-0.565D-03-0.898D-03 0.110D-02 0.869D-02
 Coeff:      0.863D-02-0.182D-01-0.914D-01-0.102D+00 0.380D+00 0.815D+00
 Gap=     0.252 Goal=   None    Shift=    0.000
 RMSDP=3.55D-07 MaxDP=9.15D-06 DE=-1.27D-08 OVMax= 5.50D-05

 Cycle  13  Pass 1  IDiag  1:
 RMSU=  9.57D-08    CP:  9.90D-01  1.35D+00  9.32D-01  8.56D-01  1.31D+00
                    CP:  1.63D+00  1.56D+00  1.61D+00  1.86D+00  1.50D+00
                    CP:  1.39D+00  1.07D+00
 E= -1028.80477583998     Delta-E=       -0.000000002542 Rises=F Damp=F
 DIIS: error= 6.03D-07 at cycle  13 NSaved=  13.
 NSaved=13 IEnMin=13 EnMin= -1028.80477583998     IErMin=13 ErrMin= 6.03D-07
 ErrMax= 6.03D-07  0.00D+00 EMaxC= 1.00D-01 BMatC= 6.24D-11 BMatP= 8.84D-10
 IDIUse=1 WtCom= 1.00D+00 WtEn= 0.00D+00
 Coeff-Com:  0.446D-05-0.507D-05-0.385D-04-0.167D-03-0.229D-03 0.987D-03
 Coeff-Com:  0.355D-02 0.762D-02-0.211D-01-0.652D-01 0.265D-02 0.241D+00
 Coeff-Com:  0.831D+00
 Coeff:      0.446D-05-0.507D-05-0.385D-04-0.167D-03-0.229D-03 0.987D-03
 Coeff:      0.355D-02 0.762D-02-0.211D-01-0.652D-01 0.265D-02 0.241D+00
 Coeff:      0.831D+00
 Gap=     0.252 Goal=   None    Shift=    0.000
 RMSDP=8.09D-08 MaxDP=2.22D-06 DE=-2.54D-09 OVMax= 1.14D-05

 Cycle  14  Pass 1  IDiag  1:
 RMSU=  3.81D-08    CP:  9.90D-01  1.35D+00  9.32D-01  8.56D-01  1.31D+00
                    CP:  1.63D+00  1.56D+00  1.61D+00  1.87D+00  1.52D+00
                    CP:  1.45D+00  1.22D+00  1.04D+00
 E= -1028.80477584014     Delta-E=       -0.000000000167 Rises=F Damp=F
 DIIS: error= 1.93D-07 at cycle  14 NSaved=  14.
 NSaved=14 IEnMin=14 EnMin= -1028.80477584014     IErMin=14 ErrMin= 1.93D-07
 ErrMax= 1.93D-07  0.00D+00 EMaxC= 1.00D-01 BMatC= 1.44D-11 BMatP= 6.24D-11
 IDIUse=1 WtCom= 1.00D+00 WtEn= 0.00D+00
 Coeff-Com: -0.134D-04 0.279D-04 0.484D-04 0.276D-04-0.215D-03-0.485D-03
 Coeff-Com:  0.604D-03 0.559D-02 0.133D-02-0.178D-01-0.416D-01 0.555D-02
 Coeff-Com:  0.371D+00 0.676D+00
 Coeff:     -0.134D-04 0.279D-04 0.484D-04 0.276D-04-0.215D-03-0.485D-03
 Coeff:      0.604D-03 0.559D-02 0.133D-02-0.178D-01-0.416D-01 0.555D-02
 Coeff:      0.371D+00 0.676D+00
 Gap=     0.252 Goal=   None    Shift=    0.000
 RMSDP=2.37D-08 MaxDP=6.43D-07 DE=-1.67D-10 OVMax= 2.08D-06

 Cycle  15  Pass 1  IDiag  1:
 RMSU=  1.39D-08    CP:  9.90D-01  1.35D+00  9.32D-01  8.56D-01  1.31D+00
                    CP:  1.63D+00  1.56D+00  1.61D+00  1.88D+00  1.52D+00
                    CP:  1.46D+00  1.25D+00  1.17D+00  9.44D-01
 E= -1028.80477584016     Delta-E=       -0.000000000020 Rises=F Damp=F
 DIIS: error= 8.32D-08 at cycle  15 NSaved=  15.
 NSaved=15 IEnMin=15 EnMin= -1028.80477584016     IErMin=15 ErrMin= 8.32D-08
 ErrMax= 8.32D-08  0.00D+00 EMaxC= 1.00D-01 BMatC= 1.04D-12 BMatP= 1.44D-11
 IDIUse=1 WtCom= 1.00D+00 WtEn= 0.00D+00
 Coeff-Com: -0.413D-05 0.778D-05 0.199D-04 0.366D-04-0.210D-04-0.326D-03
 Coeff-Com: -0.593D-03-0.529D-04 0.434D-02 0.791D-02-0.895D-02-0.436D-01
 Coeff-Com: -0.468D-01 0.151D+00 0.937D+00
 Coeff:     -0.413D-05 0.778D-05 0.199D-04 0.366D-04-0.210D-04-0.326D-03
 Coeff:     -0.593D-03-0.529D-04 0.434D-02 0.791D-02-0.895D-02-0.436D-01
 Coeff:     -0.468D-01 0.151D+00 0.937D+00
 Gap=     0.252 Goal=   None    Shift=    0.000
 RMSDP=9.83D-09 MaxDP=1.86D-07 DE=-2.05D-11 OVMax= 1.06D-06

 Error on total polarization charges =  0.00843
 SCF Done:  E(RwB97XD) =  -1028.80477584     A.U. after   15 cycles
            NFock= 15  Conv=0.98D-08     -V/T= 2.0050
 KE= 1.023640759497D+03 PE=-4.613329580297D+03 EE= 1.460195713235D+03
 Leave Link  502 at Wed Oct 28 00:38:18 2020, MaxMem=  7784628224 cpu:             841.6 elap:              85.4
 (Enter /gpfs/loomis/apps/avx/software/Gaussian/16-C.01_AVX/g16/l601.exe)
 Copying SCF densities to generalized density rwf, IOpCl= 0 IROHF=0.

 **********************************************************************

            Population analysis using the SCF Density.

 **********************************************************************

 Alpha  occ. eigenvalues --  -89.09770 -19.23282 -14.50540 -10.40856 -10.37181
 Alpha  occ. eigenvalues --  -10.36720 -10.35712 -10.32972 -10.32687 -10.32245
 Alpha  occ. eigenvalues --  -10.32129 -10.31953 -10.31520 -10.31107 -10.29823
 Alpha  occ. eigenvalues --  -10.29400  -8.11859  -6.06706  -6.06355  -6.05898
 Alpha  occ. eigenvalues --   -1.12911  -1.09718  -0.97572  -0.95628  -0.92994
 Alpha  occ. eigenvalues --   -0.88954  -0.86133  -0.83586  -0.81992  -0.75883
 Alpha  occ. eigenvalues --   -0.71826  -0.71491  -0.68443  -0.67682  -0.64222
 Alpha  occ. eigenvalues --   -0.60894  -0.59406  -0.57397  -0.55279  -0.55087
 Alpha  occ. eigenvalues --   -0.54445  -0.53686  -0.52887  -0.50599  -0.49798
 Alpha  occ. eigenvalues --   -0.49223  -0.47596  -0.46580  -0.45322  -0.45095
 Alpha  occ. eigenvalues --   -0.44205  -0.43230  -0.42054  -0.40671  -0.36612
 Alpha  occ. eigenvalues --   -0.34047  -0.32966  -0.31269  -0.27061
 Alpha virt. eigenvalues --   -0.01865   0.04159   0.06028   0.06979   0.08397
 Alpha virt. eigenvalues --    0.10577   0.14445   0.14869   0.16717   0.17660
 Alpha virt. eigenvalues --    0.18689   0.20558   0.21302   0.21567   0.22694
 Alpha virt. eigenvalues --    0.23458   0.23961   0.25004   0.27882   0.28823
 Alpha virt. eigenvalues --    0.31986   0.33455   0.35159   0.35490   0.36682
 Alpha virt. eigenvalues --    0.38178   0.39166   0.40337   0.41579   0.43013
 Alpha virt. eigenvalues --    0.47109   0.47480   0.50830   0.51076   0.51465
 Alpha virt. eigenvalues --    0.52362   0.53043   0.53427   0.53995   0.54945
 Alpha virt. eigenvalues --    0.56241   0.56311   0.56692   0.56931   0.58048
 Alpha virt. eigenvalues --    0.58127   0.58418   0.58888   0.59372   0.60078
 Alpha virt. eigenvalues --    0.60973   0.61018   0.61991   0.62857   0.62903
 Alpha virt. eigenvalues --    0.65253   0.65763   0.66826   0.67402   0.68821
 Alpha virt. eigenvalues --    0.70768   0.70785   0.72122   0.72533   0.72794
 Alpha virt. eigenvalues --    0.72965   0.74715   0.75150   0.75870   0.78008
 Alpha virt. eigenvalues --    0.78757   0.79230   0.80183   0.81021   0.82376
 Alpha virt. eigenvalues --    0.84079   0.87917   0.90178   0.90787   0.93204
 Alpha virt. eigenvalues --    0.94539   0.94624   0.96144   0.96344   0.97098
 Alpha virt. eigenvalues --    0.98440   0.98545   1.00299   1.00699   1.01509
 Alpha virt. eigenvalues --    1.02522   1.05468   1.06111   1.06384   1.07374
 Alpha virt. eigenvalues --    1.07989   1.09595   1.10038   1.10505   1.11071
 Alpha virt. eigenvalues --    1.12261   1.12910   1.14224   1.14640   1.15167
 Alpha virt. eigenvalues --    1.16090   1.19851   1.19947   1.22364   1.23203
 Alpha virt. eigenvalues --    1.25718   1.28623   1.32782   1.33397   1.34362
 Alpha virt. eigenvalues --    1.35949   1.37079   1.38787   1.40582   1.47204
 Alpha virt. eigenvalues --    1.48955   1.49989   1.52415   1.53475   1.54672
 Alpha virt. eigenvalues --    1.56698   1.56895   1.57021   1.58568   1.58948
 Alpha virt. eigenvalues --    1.59965   1.60642   1.64965   1.66578   1.66945
 Alpha virt. eigenvalues --    1.67828   1.69228   1.70150   1.70374   1.70700
 Alpha virt. eigenvalues --    1.71770   1.72311   1.73485   1.73535   1.75577
 Alpha virt. eigenvalues --    1.77209   1.79863   1.80346   1.81074   1.82218
 Alpha virt. eigenvalues --    1.82790   1.84445   1.84526   1.84883   1.85156
 Alpha virt. eigenvalues --    1.86416   1.88257   1.88459   1.90629   1.91941
 Alpha virt. eigenvalues --    1.92290   1.93469   1.93712   1.95508   1.96534
 Alpha virt. eigenvalues --    1.96920   1.99375   1.99881   2.02807   2.03681
 Alpha virt. eigenvalues --    2.05384   2.07527   2.09492   2.10449   2.13925
 Alpha virt. eigenvalues --    2.15510   2.16961   2.17486   2.20693   2.23596
 Alpha virt. eigenvalues --    2.26397   2.26607   2.31144   2.37281   2.40284
 Alpha virt. eigenvalues --    2.41389   2.42381   2.44547   2.46423   2.46775
 Alpha virt. eigenvalues --    2.47903   2.49933   2.51527   2.53123   2.61500
 Alpha virt. eigenvalues --    2.61985   2.71353   2.73599   2.74865   2.78782
 Alpha virt. eigenvalues --    2.80924   2.83394   2.85078   2.87814   2.89311
 Alpha virt. eigenvalues --    2.91498   3.01762   3.12566   3.19597   3.39967
 Alpha virt. eigenvalues --    3.46218   3.55520   3.62362   3.79568
          Condensed to atoms (all electrons):
               1          2          3          4          5          6
     1  C    4.731938   0.488542   0.005337  -0.051499  -0.014915   0.516612
     2  C    0.488542   5.299166   0.330501  -0.042171  -0.067757  -0.008669
     3  C    0.005337   0.330501   4.840789   0.500450  -0.003708  -0.062898
     4  C   -0.051499  -0.042171   0.500450   4.779251   0.520323  -0.012018
     5  C   -0.014915  -0.067757  -0.003708   0.520323   4.731548   0.496035
     6  C    0.516612  -0.008669  -0.062898  -0.012018   0.496035   4.736409
     7  H    0.402672  -0.037914   0.008664  -0.000611   0.007976  -0.039231
     8  H   -0.000616   0.010798  -0.031908   0.395552  -0.041063   0.007490
     9  H    0.008897  -0.000620   0.008426  -0.038140   0.404846  -0.044729
    10  H   -0.042369   0.009332  -0.000465   0.008272  -0.042245   0.406900
    11  N    0.004888  -0.046669   0.383062  -0.042403   0.002814   0.000106
    12  S   -0.070462   0.330334  -0.113024   0.005795   0.000281   0.004076
    13  C   -0.000214   0.001862   0.009349  -0.000497   0.000008   0.000003
    14  C   -0.000010   0.000162   0.000331   0.000006  -0.000000  -0.000000
    15  C    0.000004  -0.000350   0.000550   0.000041  -0.000000   0.000000
    16  C    0.000000  -0.000006   0.000004  -0.000000   0.000000   0.000000
    17  H   -0.000011   0.000200  -0.000002   0.000001   0.000000   0.000000
    18  C    0.000000   0.000007  -0.000014  -0.000000  -0.000000  -0.000000
    19  C   -0.000000   0.000000   0.000001   0.000000  -0.000000   0.000000
    20  H   -0.000000  -0.000000  -0.000000   0.000000  -0.000000  -0.000000
    21  H   -0.000000  -0.000000  -0.000000  -0.000000  -0.000000   0.000000
    22  H    0.000000  -0.000000  -0.000000  -0.000000   0.000000  -0.000000
    23  C    0.003735  -0.046884  -0.116511   0.000664   0.000265  -0.000201
    24  O    0.000002  -0.000123  -0.000947  -0.000027   0.000000  -0.000000
    25  H    0.000046   0.005774  -0.022911  -0.001864  -0.000049   0.000002
               7          8          9         10         11         12
     1  C    0.402672  -0.000616   0.008897  -0.042369   0.004888  -0.070462
     2  C   -0.037914   0.010798  -0.000620   0.009332  -0.046669   0.330334
     3  C    0.008664  -0.031908   0.008426  -0.000465   0.383062  -0.113024
     4  C   -0.000611   0.395552  -0.038140   0.008272  -0.042403   0.005795
     5  C    0.007976  -0.041063   0.404846  -0.042245   0.002814   0.000281
     6  C   -0.039231   0.007490  -0.044729   0.406900   0.000106   0.004076
     7  H    0.652080   0.000030  -0.000152  -0.011045  -0.000086  -0.007761
     8  H    0.000030   0.644697  -0.012281  -0.000107  -0.002812  -0.000219
     9  H   -0.000152  -0.012281   0.659474  -0.012028  -0.000096   0.000020
    10  H   -0.011045  -0.000107  -0.012028   0.657674   0.000003  -0.000162
    11  N   -0.000086  -0.002812  -0.000096   0.000003   6.326809  -0.057907
    12  S   -0.007761  -0.000219   0.000020  -0.000162  -0.057907  15.455234
    13  C    0.000000   0.000030  -0.000000  -0.000000  -0.025605  -0.064741
    14  C    0.000001   0.000000   0.000000  -0.000000   0.003382  -0.011936
    15  C   -0.000000  -0.000006   0.000000   0.000000  -0.009396   0.004975
    16  C    0.000000   0.000000  -0.000000  -0.000000  -0.000075   0.000317
    17  H    0.000001   0.000000  -0.000000  -0.000000   0.000234   0.008704
    18  C    0.000000  -0.000000   0.000000  -0.000000  -0.000553  -0.000201
    19  C    0.000000   0.000000  -0.000000  -0.000000   0.000038   0.000026
    20  H    0.000000   0.000000   0.000000   0.000000   0.000001   0.000011
    21  H   -0.000000   0.000000  -0.000000   0.000000   0.000016   0.000005
    22  H    0.000000  -0.000000   0.000000  -0.000000  -0.000000  -0.000001
    23  C    0.000189  -0.000696   0.000006   0.000005   0.529740   0.321588
    24  O   -0.000000  -0.000142   0.000000  -0.000000  -0.072545  -0.000229
    25  H    0.000003   0.000804  -0.000005  -0.000000   0.256446   0.003593
              13         14         15         16         17         18
     1  C   -0.000214  -0.000010   0.000004   0.000000  -0.000011   0.000000
     2  C    0.001862   0.000162  -0.000350  -0.000006   0.000200   0.000007
     3  C    0.009349   0.000331   0.000550   0.000004  -0.000002  -0.000014
     4  C   -0.000497   0.000006   0.000041  -0.000000   0.000001  -0.000000
     5  C    0.000008  -0.000000  -0.000000   0.000000   0.000000  -0.000000
     6  C    0.000003  -0.000000   0.000000   0.000000   0.000000  -0.000000
     7  H    0.000000   0.000001  -0.000000   0.000000   0.000001   0.000000
     8  H    0.000030   0.000000  -0.000006   0.000000   0.000000  -0.000000
     9  H   -0.000000   0.000000   0.000000  -0.000000  -0.000000   0.000000
    10  H   -0.000000  -0.000000   0.000000  -0.000000  -0.000000  -0.000000
    11  N   -0.025605   0.003382  -0.009396  -0.000075   0.000234  -0.000553
    12  S   -0.064741  -0.011936   0.004975   0.000317   0.008704  -0.000201
    13  C    5.376511   0.445657   0.225468  -0.008182  -0.037762  -0.040364
    14  C    0.445657   4.849109   0.003337   0.536637   0.397239  -0.057427
    15  C    0.225468   0.003337   4.742756  -0.055141   0.006197   0.479761
    16  C   -0.008182   0.536637  -0.055141   4.751073  -0.031256  -0.020012
    17  H   -0.037762   0.397239   0.006197  -0.031256   0.665493  -0.000703
    18  C   -0.040364  -0.057427   0.479761  -0.020012  -0.000703   4.859367
    19  C   -0.053473  -0.020033  -0.007441   0.486174   0.007915   0.510817
    20  H    0.008928  -0.035849  -0.000162   0.400570  -0.011845   0.008084
    21  H    0.014476  -0.000625  -0.024440   0.007406   0.000048   0.375117
    22  H   -0.001529   0.009731   0.008731  -0.045085  -0.000184  -0.040675
    23  C    0.364566  -0.089469  -0.077562   0.006220  -0.022089   0.008656
    24  O   -0.092361   0.005856   0.590280  -0.000099  -0.000068  -0.060207
    25  H   -0.026081  -0.000737  -0.021677   0.000034  -0.000056   0.003379
              19         20         21         22         23         24
     1  C   -0.000000  -0.000000  -0.000000   0.000000   0.003735   0.000002
     2  C    0.000000  -0.000000  -0.000000  -0.000000  -0.046884  -0.000123
     3  C    0.000001  -0.000000  -0.000000  -0.000000  -0.116511  -0.000947
     4  C    0.000000   0.000000  -0.000000  -0.000000   0.000664  -0.000027
     5  C   -0.000000  -0.000000  -0.000000   0.000000   0.000265   0.000000
     6  C    0.000000  -0.000000   0.000000  -0.000000  -0.000201  -0.000000
     7  H    0.000000   0.000000  -0.000000   0.000000   0.000189  -0.000000
     8  H    0.000000   0.000000   0.000000  -0.000000  -0.000696  -0.000142
     9  H   -0.000000   0.000000  -0.000000   0.000000   0.000006   0.000000
    10  H   -0.000000   0.000000   0.000000  -0.000000   0.000005  -0.000000
    11  N    0.000038   0.000001   0.000016  -0.000000   0.529740  -0.072545
    12  S    0.000026   0.000011   0.000005  -0.000001   0.321588  -0.000229
    13  C   -0.053473   0.008928   0.014476  -0.001529   0.364566  -0.092361
    14  C   -0.020033  -0.035849  -0.000625   0.009731  -0.089469   0.005856
    15  C   -0.007441  -0.000162  -0.024440   0.008731  -0.077562   0.590280
    16  C    0.486174   0.400570   0.007406  -0.045085   0.006220  -0.000099
    17  H    0.007915  -0.011845   0.000048  -0.000184  -0.022089  -0.000068
    18  C    0.510817   0.008084   0.375117  -0.040675   0.008656  -0.060207
    19  C    4.732222  -0.046346  -0.045814   0.404147   0.000675   0.003519
    20  H   -0.046346   0.682806  -0.000145  -0.012188  -0.000394   0.000002
    21  H   -0.045814  -0.000145   0.672030  -0.012402  -0.000450   0.004033
    22  H    0.404147  -0.012188  -0.012402   0.669411   0.000000  -0.000065
    23  C    0.000675  -0.000394  -0.000450   0.000000   5.062584  -0.008091
    24  O    0.003519   0.000002   0.004033  -0.000065  -0.008091   7.844640
    25  H   -0.000313  -0.000001   0.000005   0.000007   0.002762   0.177285
              25
     1  C    0.000046
     2  C    0.005774
     3  C   -0.022911
     4  C   -0.001864
     5  C   -0.000049
     6  C    0.000002
     7  H    0.000003
     8  H    0.000804
     9  H   -0.000005
    10  H   -0.000000
    11  N    0.256446
    12  S    0.003593
    13  C   -0.026081
    14  C   -0.000737
    15  C   -0.021677
    16  C    0.000034
    17  H   -0.000056
    18  C    0.003379
    19  C   -0.000313
    20  H   -0.000001
    21  H    0.000005
    22  H    0.000007
    23  C    0.002762
    24  O    0.177285
    25  H    0.417784
 Mulliken charges:
               1
     1  C    0.017422
     2  C   -0.225516
     3  C    0.264922
     4  C   -0.021124
     5  C    0.005640
     6  C    0.000113
     7  H    0.025182
     8  H    0.030449
     9  H    0.026382
    10  H    0.026236
    11  N   -0.249389
    12  S    0.191683
    13  C   -0.096050
    14  C   -0.035362
    15  C    0.134074
    16  C   -0.028579
    17  H    0.017944
    18  C   -0.025034
    19  C    0.027885
    20  H    0.006528
    21  H    0.010742
    22  H    0.020102
    23  C    0.060690
    24  O   -0.390712
    25  H    0.205771
 Sum of Mulliken charges =  -0.00000
 Mulliken charges with hydrogens summed into heavy atoms:
               1
     1  C    0.042605
     2  C   -0.225516
     3  C    0.264922
     4  C    0.009325
     5  C    0.032022
     6  C    0.026349
    11  N   -0.043618
    12  S    0.191683
    13  C   -0.096050
    14  C   -0.017418
    15  C    0.134074
    16  C   -0.022051
    18  C   -0.014292
    19  C    0.047987
    23  C    0.060690
    24  O   -0.390712
 Electronic spatial extent (au):  <R**2>=           4326.1112
 Charge=             -0.0000 electrons
 Dipole moment (field-independent basis, Debye):
    X=              0.7175    Y=             -4.5089    Z=             -0.0001  Tot=              4.5657
 Quadrupole moment (field-independent basis, Debye-Ang):
   XX=            -82.7553   YY=            -93.1990   ZZ=           -104.2700
   XY=             -6.9190   XZ=             -0.0001   YZ=             -0.0001
 Traceless Quadrupole moment (field-independent basis, Debye-Ang):
   XX=             10.6528   YY=              0.2091   ZZ=            -10.8619
   XY=             -6.9190   XZ=             -0.0001   YZ=             -0.0001
 Octapole moment (field-independent basis, Debye-Ang**2):
  XXX=             23.8985  YYY=            -47.1470  ZZZ=             -0.0000  XYY=             -2.1329
  XXY=             -4.1246  XXZ=              0.0000  XZZ=              1.8087  YZZ=              2.8189
  YYZ=             -0.0002  XYZ=             -0.0005
 Hexadecapole moment (field-independent basis, Debye-Ang**3):
 XXXX=          -2597.6786 YYYY=          -2634.3942 ZZZZ=           -113.2186 XXXY=            808.7952
 XXXZ=              0.0099 YYYX=            770.4720 YYYZ=             -0.0151 ZZZX=              0.0140
 ZZZY=             -0.0173 XXYY=           -841.3424 XXZZ=           -572.4846 YYZZ=           -545.1585
 XXYZ=             -0.0041 YYXZ=              0.0022 ZZXY=            358.9843
 N-N= 1.100688331724D+03 E-N=-4.613329580101D+03  KE= 1.023640759497D+03
 No NMR shielding tensors so no spin-rotation constants.
 Leave Link  601 at Wed Oct 28 00:38:19 2020, MaxMem=  7784628224 cpu:               3.7 elap:               0.6
 (Enter /gpfs/loomis/apps/avx/software/Gaussian/16-C.01_AVX/g16/l701.exe)
 ... and contract with generalized density number  0.
 Compute integral first derivatives.
 R6Disp: Adding Grimme-D2 dispersion energy 1st derivatives to the gradient.
 D1PCM: PCM CHGder 1st derivatives, ID1Alg=3 FixD1E=F DoIter=F DoCFld=F I1PDM=0.
 GePol: Maximum number of non-zero 1st derivatives   =     253
 Leave Link  701 at Wed Oct 28 00:38:22 2020, MaxMem=  7784628224 cpu:              20.1 elap:               2.9
 (Enter /gpfs/loomis/apps/avx/software/Gaussian/16-C.01_AVX/g16/l702.exe)
 L702 exits ... SP integral derivatives will be done elsewhere.
 Leave Link  702 at Wed Oct 28 00:38:22 2020, MaxMem=  7784628224 cpu:               0.3 elap:               0.1
 (Enter /gpfs/loomis/apps/avx/software/Gaussian/16-C.01_AVX/g16/l703.exe)
 Integral derivatives from FoFJK, PRISM(SPDF).
 Compute integral first derivatives, UseDBF=F ICtDFT=           0.
 Calling FoFJK, ICntrl=      2127 FMM=F ISym2X=0 I1Cent= 0 IOpClX= 0 NMat=1 NMatS=1 NMatT=0.
 FoFJK:  IHMeth= 1 ICntrl=    2127 DoSepK=T KAlg= 0 I1Cent=           0 FoldK=F
 IRaf=         1 NMat=       1 IRICut=       1 DoRegI=T DoRafI=F ISym2E= 0 IDoP0=0 IntGTp=1.
 FoFCou: FMM=F IPFlag=           0 FMFlag=      100000 FMFlg1=         800
         NFxFlg=           0 DoJE=F BraDBF=F KetDBF=F FulRan=T
         wScrn=  0.000000 ICntrl=      2527 IOpCl=  0 I1Cent=           0 NGrid=           0
         NMat0=    1 NMatS0=      1 NMatT0=    0 NMatD0=    1 NMtDS0=    0 NMtDT0=    0
 Symmetry not used in FoFCou.
 Leave Link  703 at Wed Oct 28 00:38:38 2020, MaxMem=  7784628224 cpu:             137.7 elap:              16.0
 (Enter /gpfs/loomis/apps/avx/software/Gaussian/16-C.01_AVX/g16/l716.exe)
 Dipole        = 2.82301442D-01-1.77394518D+00-2.45522178D-05
 -------------------------------------------------------------------
 Center     Atomic                   Forces (Hartrees/Bohr)
 Number     Number              X              Y              Z
 -------------------------------------------------------------------
      1        6           0.004379777    0.000140938   -0.000000075
      2        6           0.008891830    0.004047846   -0.000000222
      3        6           0.012837206   -0.025658089   -0.000000290
      4        6          -0.007392035    0.002990321    0.000000099
      5        6          -0.000453837    0.001166917    0.000000077
      6        6          -0.001595228    0.005184615   -0.000000121
      7        1           0.002042256    0.002209953   -0.000000046
      8        1          -0.002007978   -0.002277820    0.000000037
      9        1          -0.001899850    0.000607100   -0.000000001
     10        1          -0.000680229    0.001913475   -0.000000004
     11        7          -0.048184645   -0.006651943    0.000001343
     12       16           0.005781279    0.002671210   -0.000000163
     13        6          -0.000810971    0.029176272   -0.000000137
     14        6          -0.020017129    0.019406236   -0.000000703
     15        6           0.002414838   -0.023722061    0.000000082
     16        6           0.004970561   -0.020212794   -0.000000096
     17        1          -0.001094135    0.001638300   -0.000000021
     18        6          -0.015031900   -0.002045508    0.000000672
     19        6           0.024174495    0.000408435    0.000000138
     20        1           0.001907768    0.000393331    0.000000051
     21        1          -0.000770157   -0.002279626   -0.000000311
     22        1           0.000957958   -0.000195109    0.000000003
     23        6           0.017776243   -0.002491645    0.000000765
     24        8           0.007353075    0.000927236   -0.000001197
     25        1           0.006450807    0.012652408    0.000000119
 -------------------------------------------------------------------
 Cartesian Forces:  Max     0.048184645 RMS     0.010002865
 Leave Link  716 at Wed Oct 28 00:38:38 2020, MaxMem=  7784628224 cpu:               0.3 elap:               0.1
 (Enter /gpfs/loomis/apps/avx/software/Gaussian/16-C.01_AVX/g16/l103.exe)

 GradGradGradGradGradGradGradGradGradGradGradGradGradGradGradGradGradGrad
 Berny optimization.
 FormGI is forming the generalized inverse of G from B-inverse, IUseBI=4.
 GSVD:  received Info=                   1 from GESDD.
 Internal  Forces:  Max     0.028284004 RMS     0.005357956
 Search for a local minimum.
 Step number   1 out of a maximum of  146
 All quantities printed in internal units (Hartrees-Bohrs-Radians)
 RMS Force = .53978D-02 SwitMx=.10000D-02 MixMth= 1
 Mixed Optimization -- RFO/linear search
 Second derivative matrix not updated -- first step.
 ITU=  0
     Eigenvalues ---    0.01432   0.01576   0.01577   0.01747   0.01798
     Eigenvalues ---    0.01878   0.01918   0.01924   0.01936   0.01967
     Eigenvalues ---    0.01974   0.02002   0.02014   0.02019   0.02030
     Eigenvalues ---    0.02044   0.02054   0.02064   0.02066   0.02100
     Eigenvalues ---    0.02124   0.02165   0.16000   0.16000   0.16000
     Eigenvalues ---    0.16000   0.16000   0.16000   0.16000   0.16003
     Eigenvalues ---    0.16740   0.22005   0.22010   0.22526   0.22582
     Eigenvalues ---    0.24283   0.24466   0.24569   0.25000   0.25000
     Eigenvalues ---    0.25915   0.30284   0.30350   0.34257   0.34264
     Eigenvalues ---    0.34298   0.34330   0.34361   0.34382   0.34414
     Eigenvalues ---    0.34455   0.34499   0.36557   0.39452   0.41018
     Eigenvalues ---    0.42354   0.42661   0.43310   0.43542   0.44332
     Eigenvalues ---    0.44669   0.45320   0.46142   0.46376   0.47475
     Eigenvalues ---    0.50305   0.702001000.000001000.000001000.00000
     Eigenvalues --- 1000.000001000.000001000.000001000.000001000.00000
     Eigenvalues --- 1000.000001000.000001000.000001000.000001000.00000
     Eigenvalues --- 1000.000001000.000001000.000001000.000001000.00000
     Eigenvalues --- 1000.000001000.000001000.000001000.000001000.00000
     Eigenvalues --- 1000.000001000.000001000.000001000.000001000.00000
     Eigenvalues --- 1000.000001000.000001000.000001000.000001000.00000
     Eigenvalues --- 1000.000001000.000001000.000001000.000001000.00000
     Eigenvalues --- 1000.000001000.000001000.000001000.000001000.00000
     Eigenvalues --- 1000.000001000.000001000.000001000.000001000.00000
     Eigenvalues --- 1000.000001000.000001000.000001000.000001000.00000
     Eigenvalues --- 1000.000001000.000001000.000001000.000001000.00000
     Eigenvalues --- 1000.000001000.000001000.000001000.000001000.00000
     Eigenvalues --- 1000.000001000.000001000.000001000.000001000.00000
     Eigenvalues --- 1000.00000
 RFO step:  Lambda=-1.03574489D-02 EMin= 1.43244374D-02
 Linear search not attempted -- first point.
 Iteration  1 RMS(Cart)=  0.02416237 RMS(Int)=  0.00027088
 Iteration  2 RMS(Cart)=  0.00028334 RMS(Int)=  0.00017269
 Iteration  3 RMS(Cart)=  0.00000023 RMS(Int)=  0.00017335
 Iteration  1 RMS(Cart)=  0.00000161 RMS(Int)=  0.00000098
 Iteration  2 RMS(Cart)=  0.00000001 RMS(Int)=  0.00000088
 ITry= 1 IFail=0 DXMaxC= 8.86D-02 DCOld= 1.00D+10 DXMaxT= 3.00D-01 DXLimC= 3.00D+00 Rises=F
 Variable       Old X    -DE/DX   Delta X   Delta X   Delta X     New X
                                 (Linear)    (Quad)   (Total)
    R1        2.63550  -0.00469   0.00000  -0.00952  -0.00939   2.62611
    R2        2.63405  -0.00686   0.00000  -0.01407  -0.01404   2.62001
    R3        2.06885  -0.00293   0.00000  -0.00821  -0.00820   2.06065
    R4        2.69663  -0.01603   0.00000  -0.03431  -0.03391   2.66272
    R5        3.29463  -0.00170   0.00000  -0.00547  -0.00554   3.28909
    R6        2.66970  -0.00879   0.00000  -0.02002  -0.02005   2.64965
    R7        2.59863   0.01760   0.00000   0.03536   0.03540   2.63402
    R8        2.63861  -0.00260   0.00000  -0.00556  -0.00566   2.63296
    R9        2.06898  -0.00305   0.00000  -0.00867  -0.00868   2.06030
   R10        2.65800  -0.00482   0.00000  -0.00957  -0.00949   2.64850
   R11        2.06725  -0.00197   0.00000  -0.00555  -0.00555   2.06170
   R12        2.06569  -0.00195   0.00000  -0.00548  -0.00548   2.06021
   R13        2.57505  -0.02482   0.00000  -0.04838  -0.04862   2.52642
   R14        2.19561   0.00949   0.00000   0.04259   0.04356   2.23918
   R15        3.28950  -0.00799   0.00000  -0.02299  -0.02256   3.26694
   R16        2.64788   0.00465   0.00000   0.01108   0.01138   2.65926
   R17        2.78007  -0.02303   0.00000  -0.06054  -0.06026   2.71981
   R18        2.66909  -0.00082   0.00000  -0.00312  -0.00333   2.66576
   R19        2.65688  -0.02828   0.00000  -0.06357  -0.06366   2.59322
   R20        2.06829  -0.00115   0.00000  -0.00323  -0.00323   2.06506
   R21        2.68822  -0.00005   0.00000  -0.00139  -0.00177   2.68646
   R22        2.42567   0.00593   0.00000   0.00943   0.00978   2.43545
   R23        2.65916  -0.00002   0.00000   0.00018   0.00026   2.65942
   R24        2.06639  -0.00186   0.00000  -0.00528  -0.00529   2.06110
   R25        2.65013  -0.01354   0.00000  -0.03026  -0.03056   2.61957
   R26        2.06776  -0.00247   0.00000  -0.00698  -0.00697   2.06079
   R27        2.06497  -0.00081   0.00000  -0.00235  -0.00236   2.06261
    A1        2.06245  -0.00111   0.00000  -0.00489  -0.00494   2.05751
    A2        2.10192   0.00057   0.00000   0.00285   0.00289   2.10482
    A3        2.11881   0.00054   0.00000   0.00204   0.00205   2.12086
    A4        2.14965   0.00213   0.00000   0.00626   0.00626   2.15591
    A5        2.19116   0.00192   0.00000   0.00646   0.00652   2.19769
    A6        1.94237  -0.00405   0.00000  -0.01271  -0.01278   1.92959
    A7        2.05153   0.00166   0.00000   0.00346   0.00341   2.05494
    A8        1.97406  -0.00282   0.00000  -0.00464  -0.00431   1.96975
    A9        2.25760   0.00116   0.00000   0.00118   0.00090   2.25850
   A10        2.07815  -0.00070   0.00000  -0.00158  -0.00153   2.07662
   A11        2.09649   0.00040   0.00000   0.00091   0.00087   2.09736
   A12        2.10854   0.00029   0.00000   0.00067   0.00066   2.10920
   A13        2.13360  -0.00141   0.00000  -0.00333  -0.00331   2.13029
   A14        2.07175   0.00063   0.00000   0.00116   0.00114   2.07289
   A15        2.07783   0.00078   0.00000   0.00218   0.00217   2.08000
   A16        2.09099  -0.00057   0.00000   0.00008   0.00011   2.09110
   A17        2.09516   0.00015   0.00000  -0.00078  -0.00079   2.09437
   A18        2.09704   0.00042   0.00000   0.00070   0.00068   2.09771
   A19        1.95030   0.00420   0.00000   0.01119   0.01079   1.96109
   A20        2.57239  -0.01048   0.00000  -0.04988  -0.04933   2.52306
   A21        1.76049   0.00628   0.00000   0.03870   0.03854   1.79904
   A22        1.55196   0.00521   0.00000   0.01690   0.01677   1.56872
   A23        2.09461   0.00976   0.00000   0.03788   0.03801   2.13262
   A24        2.14052  -0.00284   0.00000  -0.01326  -0.01336   2.12716
   A25        2.04805  -0.00693   0.00000  -0.02462  -0.02465   2.02341
   A26        2.09401   0.00134   0.00000   0.00494   0.00513   2.09913
   A27        2.09958   0.00060   0.00000   0.00511   0.00503   2.10461
   A28        2.08960  -0.00194   0.00000  -0.01005  -0.01015   2.07945
   A29        2.06010  -0.01095   0.00000  -0.04027  -0.04025   2.01985
   A30        2.05889   0.00589   0.00000   0.02584   0.02621   2.08509
   A31        2.16419   0.00506   0.00000   0.01443   0.01404   2.17824
   A32        2.11018  -0.00843   0.00000  -0.03805  -0.03797   2.07220
   A33        2.08108   0.00379   0.00000   0.01652   0.01648   2.09756
   A34        2.09193   0.00463   0.00000   0.02153   0.02149   2.11342
   A35        2.10443   0.00098   0.00000   0.00414   0.00384   2.10827
   A36        2.05588  -0.00009   0.00000   0.00009   0.00023   2.05611
   A37        2.12287  -0.00089   0.00000  -0.00423  -0.00407   2.11880
   A38        2.10304   0.00729   0.00000   0.03136   0.03124   2.13429
   A39        2.08809  -0.00349   0.00000  -0.01451  -0.01443   2.07366
   A40        2.09205  -0.00380   0.00000  -0.01685  -0.01681   2.07524
   A41        2.00609  -0.00254   0.00000  -0.01073  -0.01046   1.99563
   A42        2.15964  -0.00082   0.00000  -0.00195  -0.00224   2.15740
   A43        2.11745   0.00335   0.00000   0.01269   0.01270   2.13016
    D1       -0.00000  -0.00000   0.00000   0.00000   0.00000  -0.00000
    D2        3.14159  -0.00000   0.00000  -0.00000  -0.00000   3.14159
    D3        3.14159   0.00000   0.00000   0.00000   0.00000   3.14159
    D4       -0.00000  -0.00000   0.00000  -0.00000  -0.00000  -0.00000
    D5       -0.00000  -0.00000   0.00000  -0.00000  -0.00000  -0.00000
    D6        3.14159  -0.00000   0.00000  -0.00000  -0.00000   3.14159
    D7        3.14159  -0.00000   0.00000  -0.00000  -0.00000   3.14159
    D8       -0.00000  -0.00000   0.00000  -0.00000  -0.00000  -0.00000
    D9        0.00000   0.00000   0.00000   0.00000   0.00000   0.00000
   D10       -3.14159  -0.00000   0.00000   0.00000   0.00000  -3.14159
   D11       -3.14159   0.00000   0.00000   0.00000   0.00000  -3.14159
   D12        0.00000   0.00000   0.00000   0.00000   0.00000   0.00000
   D13        3.14159   0.00000   0.00000   0.00000   0.00000   3.14159
   D14       -0.00001   0.00000   0.00000   0.00000   0.00000  -0.00000
   D15       -0.00000  -0.00000   0.00000  -0.00000  -0.00000  -0.00000
   D16        3.14159  -0.00000   0.00000  -0.00000  -0.00000   3.14159
   D17        3.14159   0.00000   0.00000  -0.00000  -0.00000   3.14159
   D18        0.00000   0.00000   0.00000   0.00000   0.00000   0.00000
   D19        0.00001  -0.00000   0.00000  -0.00000  -0.00000   0.00000
   D20        3.14152   0.00000   0.00000   0.00001   0.00001   3.14153
   D21       -3.14159  -0.00000   0.00000  -0.00000  -0.00000   3.14159
   D22       -0.00008   0.00000   0.00000   0.00001   0.00001  -0.00007
   D23        0.00000   0.00000   0.00000   0.00000   0.00000   0.00000
   D24       -3.14159   0.00000   0.00000   0.00000   0.00000  -3.14159
   D25        3.14159   0.00000   0.00000   0.00000   0.00000   3.14159
   D26        0.00000  -0.00000   0.00000  -0.00000  -0.00000   0.00000
   D27        0.00000   0.00000   0.00000   0.00000   0.00000   0.00000
   D28       -3.14159  -0.00000   0.00000  -0.00000  -0.00000  -3.14159
   D29       -3.14159   0.00000   0.00000   0.00000   0.00000  -3.14159
   D30        0.00000   0.00000   0.00000   0.00000   0.00000   0.00000
   D31       -0.00001   0.00000   0.00000   0.00001   0.00001  -0.00000
   D32        3.14156   0.00000   0.00000   0.00001   0.00001   3.14158
   D33       -3.14156   0.00000   0.00000   0.00000  -0.00000  -3.14156
   D34        0.00002   0.00000   0.00000   0.00001   0.00001   0.00003
   D35        0.00001  -0.00000   0.00000  -0.00000  -0.00000   0.00000
   D36       -3.14157  -0.00000   0.00000  -0.00001  -0.00001  -3.14158
   D37        0.00002  -0.00000   0.00000  -0.00001  -0.00001   0.00001
   D38       -3.14158   0.00000   0.00000  -0.00000  -0.00000  -3.14158
   D39       -3.14158  -0.00000   0.00000  -0.00001  -0.00001  -3.14158
   D40        0.00001   0.00000   0.00000  -0.00000  -0.00000   0.00001
   D41       -0.00002   0.00000   0.00000   0.00001   0.00001  -0.00002
   D42        3.14157   0.00000   0.00000   0.00002   0.00002   3.14159
   D43        3.14157   0.00000   0.00000   0.00001   0.00000   3.14158
[...]
 00093934,0.00132988,0.00000004,-0.00147809,0.00042292,-0.00000002,-0.0
 0015385,-0.00207231,-0.00000003,0.00214649,0.00011387,0.00000004,-0.00
 011698,-0.00002581,0.,0.00007823,0.00005385,0.,0.00013312,-0.00008514,
 0.,0.00010702,-0.00005690,0.,0.01015843,0.00956601,-0.00000013,-0.0035
 0265,-0.00359897,-0.00000019,0.06435681,0.02523967,0.00000065,0.101055
 00,-0.26234221,-0.00000029,0.03315951,-0.05961334,0.00000008,-0.008975
 34,0.67081599,0.00000005,-0.00000005,0.00008848,-0.00000012,0.00000002
 ,0.00064151,-0.00000008,0.00000007,-0.00061811,0.00000007,-0.00000002,
 -0.00016512,0.,0.00000007,0.00006079,-0.00000006,-0.00000002,-0.000032
 94,0.,0.,0.00000552,0.,0.,0.00001510,0.,0.,0.00001993,0.,0.,-0.0000375
 9,0.00000005,-0.00000014,0.00011673,-0.00000006,0.00000018,-0.00115641
 ,-0.00000046,-0.00000007,0.00936130,-0.00000010,0.00000052,-0.06157483
 ,-0.00000065,0.00000046,-0.00553978,-0.00000174,-0.00000826,0.12265138
 ,0.00029733,-0.00002665,0.,-0.00065815,0.00041937,-0.00000015,0.000254
 20,-0.00010743,0.,0.00006833,0.00002944,0.00000001,0.00005585,0.000093
 71,0.,-0.00011084,-0.00009072,0.,-0.00001794,-0.00000930,0.,0.00003959
 ,-0.00000006,0.,0.00001039,-0.00000081,0.,0.00002871,-0.00001113,0.,0.
 00037418,0.00062016,0.,-0.00291824,0.00326225,0.00000052,-0.00290244,-
 0.02808038,-0.00000017,-0.08091379,-0.07526839,0.00000070,-0.00487892,
 0.00212226,0.00000026,0.01079052,0.02168585,-0.00000012,0.08256212,0.0
 0011732,-0.00000327,0.,-0.00023369,0.00081074,0.00000003,0.00049333,-0
 .00032400,0.,0.00006252,0.00013080,0.,0.00001788,0.00009248,0.,-0.0001
 1521,-0.00003162,0.,-0.00002391,0.00001366,0.,0.00004194,-0.00000894,0
 .,-0.00000250,0.00000659,0.,0.00001318,0.00000066,0.,-0.00103628,0.000
 29059,-0.00000003,0.00225369,-0.00148133,-0.00000029,0.00023099,-0.003
 84389,0.00000010,-0.07307029,-0.31788049,0.00000204,-0.00000984,0.0024
 3564,0.00000020,-0.01077328,-0.01612274,0.00000012,0.07661974,0.339184
 09,-0.00000003,0.,-0.00002119,0.00000007,-0.00000004,-0.00080865,0.000
 00002,-0.00000005,0.00022132,-0.00000001,0.,0.00009560,0.,0.,-0.000028
 68,0.,0.00000002,0.00003538,0.,0.,-0.00001439,0.,0.,-0.00002328,0.,0.,
 -0.00000332,0.,0.,0.00002544,-0.00000029,-0.00000011,-0.00019169,0.000
 00030,-0.00000023,0.00174843,-0.00000114,-0.00000019,0.00265662,0.0000
 0194,0.00000231,-0.03739722,-0.00000035,0.00000051,0.00572820,-0.00000
 048,0.00000048,0.00561073,-0.00000087,-0.00000202,0.02400209,-0.000165
 06,0.00105498,0.00000003,0.00090431,-0.00000247,-0.00000006,0.00289431
 ,0.00042597,-0.00000002,-0.00097398,0.00022866,0.,-0.00008245,-0.00118
 179,-0.00000002,0.00108889,0.00010576,0.00000003,-0.00008763,0.0000575
 8,0.,0.00010460,-0.00000267,0.,0.00004852,-0.00002924,0.,0.00005286,-0
 .00000728,0.,0.00425342,0.01458280,-0.00000010,-0.00119120,-0.00089944
 ,-0.00000002,0.05328066,0.02132701,-0.00000045,-0.06054305,0.02131819,
 -0.00000028,-0.16448516,0.04884461,-0.00000460,0.00268238,-0.08415131,
 0.00000133,-0.00054770,0.00032308,0.00000051,0.69878269,0.00066496,-0.
 00061807,-0.00000002,-0.00135768,0.00006208,-0.00000006,-0.00046031,-0
 .00008612,-0.00000005,0.00066353,-0.00016273,0.00000001,0.00010568,0.0
 0083723,0.00000002,-0.00082214,-0.00016853,-0.00000001,0.00001437,0.00
 002737,0.,-0.00000789,-0.00001352,0.,-0.00003068,0.00002890,0.,-0.0000
 0125,0.00000471,0.,-0.00261528,-0.00198728,0.00000022,0.00211173,0.000
 19480,0.00000002,0.00566037,-0.03041579,0.00000140,0.01469423,-0.00663
 080,-0.00000006,0.08918705,-0.22458840,0.00000719,-0.03635997,0.007727
 07,-0.00000020,0.00010239,0.00051395,-0.00000007,0.06678976,0.71486547
 ,-0.00000001,0.,-0.00007965,0.00000003,0.00000008,-0.00021332,0.000000
 08,-0.00000003,-0.00133173,-0.00000001,0.,0.00003928,0.,0.,0.00005254,
 0.,0.00000001,0.00004279,0.,0.,-0.00006356,0.,0.,-0.00004891,0.,0.,-0.
 00000565,0.,0.,0.00003106,-0.00000005,0.00000027,0.00245418,-0.0000001
 5,-0.00000008,-0.00073942,0.00000010,-0.00000069,0.00930504,-0.0000010
 3,0.00000017,-0.00215266,-0.00000584,0.00000827,-0.07275050,0.00000110
 ,-0.00000059,0.00760029,0.,-0.00000004,-0.00052911,0.00000650,-0.00001
 792,0.12390774,0.00068945,-0.00128201,-0.00000004,-0.00165646,0.000635
 53,0.00000003,-0.00122588,-0.00041685,0.,0.00119711,-0.00028580,0.0000
 0002,0.00009967,0.00153767,0.00000002,-0.00152148,-0.00015337,-0.00000
 003,0.00007511,0.00001455,0.,-0.00006344,-0.00003682,0.,-0.00008779,0.
 00006161,0.,-0.00006598,0.00003365,0.,-0.00583364,-0.00664905,0.000000
 11,0.00231007,0.00183250,0.00000012,-0.03888661,-0.00795425,-0.0000005
 7,0.05847622,0.00233508,0.00000015,-0.05714229,0.04350746,0.00000015,-
 0.14495438,-0.02092268,0.00000038,-0.00296608,0.00441739,-0.00000007,-
 0.36723031,-0.09761680,-0.00000185,0.73195014,0.00044841,-0.00088970,-
 0.00000003,-0.00092365,0.00049205,0.00000002,-0.00073164,-0.00116499,0
 .,0.00061714,-0.00007691,0.00000001,0.00007217,0.00095204,0.00000001,-
 0.00101883,-0.00004498,-0.00000002,0.00005913,-0.00000799,0.,-0.000040
 58,-0.00001913,0.,-0.00006234,0.00004322,0.,-0.00004199,0.00002234,0.,
 -0.00696360,-0.00701195,0.00000002,0.00186158,0.00134002,0.00000009,-0
 .04187058,-0.01746437,-0.00000033,0.05680640,-0.05669961,0.00000142,-0
 .00255110,0.06111977,-0.00000105,-0.09384275,-0.30052540,0.00000584,0.
 00321315,-0.00171803,-0.00000031,-0.02785425,-0.15052920,0.00000235,-0
 .02794932,0.69724260,0.,0.00000001,0.00000098,0.,-0.00000003,0.0000914
 3,0.,0.00000006,0.00031344,0.,0.,0.00000344,0.,0.,-0.00002486,0.000000
 01,0.,0.00000116,0.,0.,0.00000562,0.,0.,0.00002190,0.,0.,-0.00000308,0
 .,0.,-0.00000936,0.00000017,0.00000020,-0.00044346,-0.00000004,0.00000
 001,-0.00007302,0.00000089,0.00000039,-0.00427528,-0.00000090,0.000000
 58,0.00722689,-0.00000125,-0.00000133,-0.00100316,0.00000184,0.0000061
 8,-0.06359777,0.00000002,-0.00000004,0.00792573,-0.00000320,0.00000152
 ,-0.05918139,0.00000660,-0.00001370,0.14587026,0.00001098,-0.00008033,
 0.,-0.00003956,0.00013180,0.,-0.00004825,-0.00010667,0.,0.00005925,0.0
 0002720,0.,-0.00001165,0.00007469,0.,-0.00008521,0.00000926,0.,0.00000
 566,0.00000525,0.,-0.00000131,-0.00000570,0.,-0.00001009,0.00000852,0.
 ,-0.00000964,0.00000631,0.,-0.00045467,0.00036099,0.00000002,0.0000558
 8,0.00006718,0.,-0.00040238,0.00397397,0.00000005,-0.01512471,-0.00886
 693,0.00000005,0.00046079,0.00021047,0.00000003,-0.33338955,-0.0652405
 1,0.00000084,0.00077189,0.00008739,0.,0.00154355,-0.00130959,0.0000000
 6,-0.00408342,0.00238688,-0.00000011,0.35083292,0.00000298,0.00002175,
 0.,0.00001762,-0.00006142,0.,0.00009367,0.00008062,0.,-0.00001587,-0.0
 0003857,0.,0.00001133,-0.00001505,0.,0.00001999,-0.00000431,0.,-0.0000
 0039,-0.00000215,0.,0.00000077,0.00000103,0.,0.00000279,-0.00000437,0.
 ,0.00000238,-0.00000104,0.,0.00031168,-0.00015013,-0.00000002,0.000010
 15,0.00005167,0.,0.00252610,-0.00309684,0.00000003,0.02359659,0.008851
 23,-0.00000005,0.00059810,-0.00141305,0.00000001,-0.06621190,-0.072995
 15,0.00000074,-0.00027328,0.00092978,-0.00000004,-0.00018581,-0.005062
 44,0.00000025,-0.02969923,-0.00163709,-0.00000008,0.06964720,0.0727992
 4,0.,0.,0.00000072,0.,0.,-0.00005228,0.,-0.00000001,-0.00026265,0.,0.,
 -0.00001904,0.,0.,0.00002590,0.,0.,-0.00000566,0.,0.,0.00000080,0.,0.,
 -0.00001080,0.,0.,0.00000604,0.,0.,0.00000449,-0.00000003,-0.00000001,
 -0.00030933,0.00000002,-0.00000003,0.00013369,0.00000003,0.00000009,0.
 00766732,-0.00000007,-0.00000002,0.00141289,-0.00000007,0.00000013,-0.
 00070179,0.00000034,0.00000078,-0.03179899,0.,-0.00000002,-0.00485788,
 0.00000020,0.00000022,0.00547290,0.00000040,-0.00000021,0.00087543,-0.
 00000089,-0.00000075,0.02432323,-0.00006947,-0.00000363,0.,0.00008333,
 0.00008655,0.,-0.00008378,-0.00003700,0.,-0.00001498,0.00000807,0.,-0.
 00000826,-0.00002169,0.,0.00002275,0.00001612,0.,0.00000206,-0.0000059
 4,0.,-0.00000473,0.00000163,0.,0.00000060,-0.00000091,0.,-0.00000442,-
 0.00000054,0.,0.00032791,-0.00044918,0.,-0.00030195,0.00014498,0.00000
 001,-0.00271296,0.00291528,-0.00000023,-0.00147048,0.00040805,0.000000
 02,0.01007986,0.02197879,-0.00000044,-0.00488040,-0.00033522,-0.000000
 21,0.00011732,-0.00007157,0.00000003,-0.07705882,-0.07347516,0.0000011
 3,-0.00310045,-0.02973922,0.00000086,-0.00033381,-0.00139912,0.,0.0763
 4347,0.00003076,0.00009896,0.,-0.00005740,-0.00015068,-0.00000001,0.00
 008236,0.00011519,0.,-0.00005839,-0.00000759,0.,0.00001176,-0.00007781
 ,0.,0.00008186,-0.00001792,0.,-0.00000640,0.00000245,0.,0.00000766,0.0
 0000429,0.,0.00001038,-0.00000618,0.,0.00001262,-0.00000541,0.,0.00020
 404,0.00039768,0.00000002,0.00017229,-0.00034769,-0.00000003,0.0039792
 7,-0.00228813,0.00000037,0.00096154,0.00046334,-0.00000007,-0.01210428
 ,-0.01635608,0.00000009,-0.00101859,0.00205980,0.00000033,-0.00005416,
 -0.00009697,-0.00000005,-0.07373781,-0.32629034,0.00000905,0.00185946,
 -0.00284452,0.00000007,0.00004616,-0.00022970,0.00000003,0.08050766,0.
 34335963,0.,-0.00000001,0.00002625,0.,0.00000003,-0.00000345,0.,-0.000
 00001,-0.00001222,0.,0.,0.00000125,0.,0.,-0.00000228,-0.00000001,0.,-0
 .00000067,0.,0.,0.00000268,0.,0.,0.00000255,0.,0.,0.00000234,0.,0.,-0.
 00000455,-0.00000004,-0.00000004,-0.00001004,-0.00000002,0.00000003,0.
 00000707,-0.00000032,0.00000033,0.00514703,-0.00000013,-0.00000008,-0.
 00078272,0.00000072,0.00000132,0.00448344,-0.00000007,0.00000013,0.008
 24617,0.,0.00000001,-0.00093681,0.00000165,0.00000810,-0.03425049,-0.0
 0000021,-0.00000018,0.00239706,-0.00000001,-0.00000002,0.00049539,-0.0
 0000146,-0.00000938,0.02427728,0.00002821,-0.00005262,0.,-0.00003404,0
 .00013365,0.,0.00012421,-0.00009180,-0.00000001,0.00003765,0.00000858,
 0.,-0.00000234,0.00005885,0.,-0.00006809,0.00000467,0.,0.00000168,0.00
 000424,0.,0.00000212,-0.00000496,0.,-0.00000828,0.00000563,0.,-0.00000
 577,0.00000502,0.,-0.00029842,0.00042400,0.00000001,0.00004244,0.00023
 046,0.00000002,-0.00074872,-0.00031204,0.00000003,0.00110649,-0.002328
 81,-0.00000005,-0.00364710,-0.00343423,0.00000016,0.00902124,-0.008154
 43,0.00000024,0.00033310,-0.00042770,-0.00000002,-0.01511144,0.0239390
 5,-0.00000113,-0.19363644,0.14138010,-0.00000479,0.00062682,0.00036312
 ,0.00000006,0.00096127,-0.00020648,0.00000002,0.20228143,0.00002979,0.
 00001575,0.,-0.00008869,0.00003971,-0.00000001,0.00001921,0.00004253,0
 .,0.00000089,-0.00000218,0.,0.00001072,-0.00000261,0.,0.00000429,-0.00
 001364,0.,-0.00000541,-0.00000036,0.,0.00000480,0.00000174,0.,0.000004
 87,-0.00000210,0.,0.00000639,-0.00000373,0.,0.00011745,-0.00009066,0.,
 -0.00006879,0.00000715,0.00000003,-0.00096679,0.00038136,-0.00000004,-
 0.00302858,-0.00526496,0.00000031,-0.00277441,0.00040173,0.00000024,0.
 02322528,-0.01458511,0.00000063,0.00112872,-0.00106739,-0.00000008,-0.
 00767402,0.00810562,-0.00000031,0.14178297,-0.20830383,0.00000575,-0.0
 0021901,0.00104149,-0.00000011,0.00012141,0.00083396,-0.00000016,-0.15
 182513,0.21789569,-0.00000002,0.00000002,-0.00002465,0.00000004,-0.000
 00002,-0.00009832,0.00000003,0.,0.00020465,-0.00000003,0.,0.00000727,0
 .,-0.00000003,-0.00000980,0.00000003,0.,-0.00000066,0.,0.,0.00000676,0
 .,0.,-0.00000026,0.,0.,-0.00000010,0.,0.,0.00000761,0.00000006,0.00000
 008,-0.00035653,0.,-0.00000004,0.00030594,0.00000045,0.,-0.00111525,-0
 .00000011,0.00000044,0.00576297,0.00000026,-0.00000041,0.00971397,-0.0
 0000069,-0.00000008,0.00484509,-0.00000007,0.00000009,-0.00029973,-0.0
 0000095,0.00000040,0.00560773,-0.00000418,0.00000599,-0.04147281,0.000
 00002,-0.00000010,-0.00318874,0.00000012,-0.00000025,-0.00528226,0.000
 00552,-0.00000622,0.02691279,-0.00705426,-0.00232483,-0.00000006,-0.00
 048290,0.01874093,0.00000092,-0.07654069,0.05056333,0.00000130,0.01078
 454,-0.00442200,-0.00000022,-0.00298228,0.00484274,0.00000009,-0.00110
 492,-0.00367369,-0.00000014,0.00007024,-0.00096376,0.00000002,-0.00050
 031,-0.00008389,-0.00000003,0.00036850,-0.00013950,0.00000002,-0.00066
 666,-0.00003890,-0.00000004,-0.39513722,-0.04525376,-0.00000181,-0.055
 97696,-0.04919141,-0.00000342,-0.17675097,0.08503229,0.00000447,-0.057
 48322,0.03213755,0.00000070,0.04700943,0.01919860,0.,0.00282455,-0.024
 88333,0.00000030,0.00099860,0.00164390,0.00000033,-0.01125765,0.002443
 05,-0.00000018,0.01173681,0.01124751,-0.00000028,-0.00033903,0.0008477
 3,-0.00000002,0.00038729,-0.00139830,0.00000017,0.00048833,0.00002876,
 -0.00000014,0.74665707,0.00238183,-0.00232188,-0.00000027,0.02736043,-
 0.03026978,-0.00000149,0.01625956,0.01403638,0.00000031,0.00683052,-0.
 01011126,-0.00000043,-0.00119533,0.00582750,0.00000008,-0.00359423,-0.
 00406746,-0.00000007,0.00007917,-0.00070441,0.,-0.00065812,0.00003640,
 0.,0.00016363,-0.00043361,0.00000004,-0.00040149,0.00011945,0.00000003
 ,-0.07030449,-0.14883435,-0.00000144,-0.01209623,-0.17852634,-0.000006
 57,0.08301068,-0.20414496,-0.00000703,0.02467636,0.00806432,0.00000072
 ,0.00503097,-0.04065265,-0.00000094,-0.01080458,0.01824711,-0.00000042
 ,-0.00256627,-0.00096152,-0.00000007,0.00619610,-0.01035273,0.,-0.0119
 5476,-0.01084212,0.00000029,-0.00117268,0.00079452,-0.00000012,0.00134
 916,-0.00032362,0.00000004,-0.00051045,0.00008935,0.00000015,-0.050495
 52,0.59088052,0.00000020,-0.00000043,0.00035439,0.00000050,-0.00000018
 ,0.00407378,-0.00000022,0.00000111,0.00338253,0.00000062,-0.00000070,0
 .00219885,-0.00000006,0.00000061,0.00090937,-0.00000054,-0.00000027,0.
 00105880,0.00000003,-0.00000005,-0.00060309,-0.00000003,0.,-0.00037809
 ,0.,0.,-0.00041034,-0.00000004,0.,-0.00011359,-0.00000242,-0.00000371,
 -0.06711702,-0.00000095,-0.00000753,-0.03567375,0.00000419,-0.00000640
 ,-0.05530257,0.00000100,-0.00000004,-0.00424300,0.00000015,-0.00000145
 ,0.00431757,-0.00000034,0.00000096,0.00612464,-0.00000013,-0.00000015,
 -0.00300506,0.00000021,-0.00000049,0.00425013,-0.00000066,-0.00000037,
 -0.00095251,-0.00000007,0.00000003,0.00135901,0.00000007,0.00000004,-0
 .00026959,-0.00000002,0.,-0.00062018,-0.00000206,0.00001797,0.13763710
 ,-0.00054794,0.00335203,0.00000017,0.00221131,0.00232554,0.00000030,0.
 01490562,0.00016053,-0.00000009,-0.00302785,0.00103169,-0.00000005,-0.
 00026680,-0.00352633,-0.00000006,0.00315923,0.00069176,0.00000006,-0.0
 0028555,0.00032863,0.,0.00024318,-0.00006152,0.,0.00000983,0.00000558,
 0.,0.00008429,0.00005792,-0.00000002,0.01252365,0.07492894,-0.00000046
 ,-0.00188928,-0.00096841,-0.00000046,-0.01530198,-0.05764133,0.0000009
 0,-0.01300954,0.00290981,-0.00000005,-0.41396051,-0.07117707,0.0000079
 7,-0.00311711,-0.02141641,0.00000042,-0.00132774,-0.00084868,0.0000001
 1,-0.07379395,0.01137122,0.00000087,0.01982236,0.01845711,0.00000008,-
 0.00010069,-0.00033421,0.00000004,0.00198929,0.00051386,-0.00000029,-0
 .00163019,0.00028101,-0.00000036,-0.04493109,0.02412753,0.00000082,0.5
 2487101,-0.00080217,-0.00131397,-0.00000009,0.00067648,-0.00450335,-0.
 00000016,-0.01563879,-0.00403083,0.00000015,0.00037940,-0.00068798,-0.
 00000003,0.00061074,0.00096852,0.00000003,-0.00062593,-0.00029473,-0.0
 0000002,0.00022034,-0.00042480,0.,0.00015431,0.00021878,0.00000002,0.0
 0016837,-0.00016969,0.,0.00008035,-0.00011009,0.,0.02973313,-0.0872514
 6,-0.00000072,-0.00021989,-0.00307038,-0.00000002,-0.05523466,-0.00629
 965,0.00000089,0.01233636,-0.00799766,0.00000015,-0.08371448,-0.127280
 78,0.00000152,-0.00299574,0.01108452,-0.00000009,-0.00163951,-0.000410
 34,-0.00000018,0.04257272,0.01940710,-0.00000054,-0.00525300,-0.014077
 71,0.00000051,-0.00008373,0.00054179,-0.00000005,-0.00274067,0.0021910
 5,-0.00000013,0.00167290,0.00038399,0.00000014,0.01530287,0.00157956,0
 .00000009,0.09876795,0.21226416,0.00000002,-0.00000012,-0.00033769,-0.
 00000015,-0.00000015,-0.00017032,-0.00000074,0.00000004,0.00295317,0.0
 0000013,-0.00000006,0.00003918,0.00000002,0.00000014,-0.00012385,-0.00
 000011,-0.00000004,0.00005150,0.00000001,-0.00000001,0.00003150,0.,0.,
 0.00005874,0.,0.,-0.00001066,0.,0.,0.00000520,-0.00000013,-0.00000384,
 0.00627782,0.00000011,0.00000002,-0.00020808,-0.00000036,0.00000095,0.
 01713745,0.00000059,-0.00000041,0.00624313,0.00001029,0.00000194,-0.06
 467205,0.00000023,0.00000062,-0.00077642,-0.00000003,-0.00000002,0.000
 07948,-0.00000010,-0.00000043,0.01092664,-0.00000057,0.00000010,0.0052
 8256,0.,0.,-0.00067295,0.00000007,-0.00000018,-0.00338286,-0.00000002,
 -0.00000004,-0.00070307,0.00000168,-0.00000084,-0.00272061,-0.00000934
 ,-0.00000263,0.05276282,0.00057767,-0.00090104,0.,-0.00351972,0.000281
 83,-0.00000013,-0.00087065,0.00759415,-0.00000021,0.00135941,-0.000381
 98,0.00000003,0.00008734,0.00097913,0.00000004,-0.00086979,-0.00023342
 ,-0.00000003,0.00005708,0.00001561,0.,-0.00041926,-0.00005677,-0.00000
 002,0.00003388,-0.00002418,0.,-0.00001288,-0.00006421,0.,-0.05157354,-
 0.03553982,0.00000163,-0.00275868,-0.00453160,-0.00000025,-0.00490921,
 0.00901936,0.00000006,0.00320409,0.00022585,0.00000009,-0.04306733,0.0
 1073240,0.00000118,0.00010236,0.00447090,-0.00000008,0.00053973,0.0002
 9060,-0.00000004,0.00689220,-0.00369065,0.00000037,-0.00390226,-0.0029
 5972,0.00000009,0.00006620,0.00006762,-0.00000002,-0.00027063,0.000160
 12,0.,0.00013586,-0.00011574,0.00000002,0.00988280,-0.03171180,-0.0000
 0027,-0.00662955,-0.03372735,-0.00000159,0.09586488,0.00061656,0.00307
 070,0.00000017,0.00186147,0.00790257,0.00000063,0.02788129,-0.00145827
 ,-0.00000041,-0.00248817,0.00234219,0.00000003,-0.00095276,-0.00311560
 ,-0.00000008,0.00208023,0.00112403,0.00000005,-0.00039690,0.00068716,0
 .,0.00001734,-0.00042444,-0.00000003,-0.00029195,0.00029028,0.,-0.0000
 7702,0.00018749,0.,-0.02377864,-0.03412927,-0.00000145,0.00039147,0.00
 729939,0.00000023,0.01190317,-0.02532408,-0.00000064,-0.01268410,-0.00
 047096,-0.00000039,0.07413205,0.03138444,-0.00000131,0.00139429,-0.015
 46486,0.00000029,-0.00116894,-0.00045847,0.00000015,-0.02810114,0.0051
 3164,-0.00000027,0.01215608,0.01264550,-0.00000038,0.00004188,-0.00040
 180,0.00000008,0.00074215,-0.00048370,0.,-0.00088159,0.00009650,-0.000
 00018,-0.05916037,0.00287156,0.00000097,-0.08333712,0.00928396,0.00000
 498,0.08010069,-0.00258597,-0.00000009,-0.00000007,0.00082617,0.000000
 22,-0.00000008,0.00121138,-0.00000013,-0.00000063,-0.00594545,-0.00000
 011,0.00000005,-0.00036153,0.00000001,-0.00000005,0.00010298,0.0000000
 1,0.00000005,-0.00013531,0.00000002,-0.00000002,0.00003439,-0.00000002
 ,0.00000001,-0.00007909,0.,0.,0.00003031,0.,0.,-0.00002164,0.00000194,
 0.00000303,-0.02470836,-0.00000023,-0.00000031,0.00273344,0.00000057,-
 0.00000037,-0.00289032,-0.00000043,0.,-0.00070334,0.00000166,-0.000000
 60,-0.00027241,0.00000015,-0.00000035,-0.00008968,-0.00000001,0.,-0.00
 001204,-0.00000064,0.00000021,0.00165610,0.00000020,0.00000035,0.00102
 082,0.,0.,0.00010231,0.,-0.00000003,-0.00015057,-0.00000002,0.,-0.0002
 0244,-0.00000163,0.00000008,0.00574324,-0.00000056,0.00000114,-0.02807
 064,-0.00000089,-0.00000243,0.05018167\\-0.00172416,0.00196435,0.00000
 070,0.00236983,0.00490287,0.00000129,0.00590335,0.00042965,-0.00000085
 ,0.00089311,-0.00118568,-0.00000062,-0.00079062,-0.00448515,0.00000010
 ,-0.00170213,-0.00152758,0.00000021,-0.00041087,0.00032679,-0.00000019
 ,0.00039752,-0.00028331,0.00000009,-0.00006320,-0.00039830,0.00000011,
 -0.00030733,-0.00021294,-0.00000017,-0.00371031,0.00601290,0.00000139,
 0.00294954,0.01118907,-0.00000111,-0.00259665,0.00304586,-0.00000294,0
 .00513319,-0.00212614,-0.00000100,0.00601403,0.00238235,0.00001382,-0.
 00134285,0.00017802,0.00000095,0.00038287,-0.00019518,0.00000029,-0.00
 370989,-0.00015971,-0.00000435,-0.00431562,-0.00300981,-0.00000138,-0.
 00007166,-0.00033475,-0.00000010,-0.00042649,0.00003110,-0.00000010,-0
 .00049458,-0.00038529,0.00000041,-0.00180666,-0.00064790,-0.00000028,-
 0.00437297,-0.00301116,-0.00000325,0.00380255,-0.01250007,-0.00000301\
 \\@
 The archive entry for this job was punched.


 THE LENGTH OF A MEETING IS PROPORTIONAL TO THE
 SQUARE OF THE PARTICIPANTS.
 Job cpu time:       0 days  1 hours  1 minutes 31.2 seconds.
 Elapsed time:       0 days  0 hours  6 minutes 30.0 seconds.
 File lengths (MBytes):  RWF=    544 Int=      0 D2E=      0 Chk=     40 Scr=      8
 Normal termination of Gaussian 16 at Wed Oct 28 00:58:05 2020.
