 Entering Gaussian System, Link 0=g16
 Initial command:
 /gpfs/loomis/apps/avx/software/Gaussian/16-C.01_AVX/g16/l1.exe "/home/fas/batista/pev4/scratch60/gauss-scratch/Gau-226892.inp" -scrdir="/home/fas/batista/pev4/scratch60/gauss-scratch/"
 Entering Link 1 = /gpfs/loomis/apps/avx/software/Gaussian/16-C.01_AVX/g16/l1.exe PID=    226893.
  
 Copyright (c) 1988-2019, Gaussian, Inc.  All Rights Reserved.
  
 This is part of the Gaussian(R) 16 program.  It is based on
 the Gaussian(R) 09 system (copyright 2009, Gaussian, Inc.),
 the Gaussian(R) 03 system (copyright 2003, Gaussian, Inc.),
 the Gaussian(R) 98 system (copyright 1998, Gaussian, Inc.),
 the Gaussian(R) 94 system (copyright 1995, Gaussian, Inc.),
 the Gaussian 92(TM) system (copyright 1992, Gaussian, Inc.),
 the Gaussian 90(TM) system (copyright 1990, Gaussian, Inc.),
 the Gaussian 88(TM) system (copyright 1988, Gaussian, Inc.),
 the Gaussian 86(TM) system (copyright 1986, Carnegie Mellon
 University), and the Gaussian 82(TM) system (copyright 1983,
 Carnegie Mellon University). Gaussian is a federally registered
 trademark of Gaussian, Inc.
  
 This software contains proprietary and confidential information,
 including trade secrets, belonging to Gaussian, Inc.
  
 This software is provided under written license and may be
 used, copied, transmitted, or stored only in accord with that
 written license.
  
 The following legend is applicable only to US Government
 contracts under FAR:
  
                    RESTRICTED RIGHTS LEGEND
  
 Use, reproduction and disclosure by the US Government is
 subject to restrictions as set forth in subparagraphs (a)
 and (c) of the Commercial Computer Software - Restricted
 Rights clause in FAR 52.227-19.
  
 Gaussian, Inc.
 340 Quinnipiac St., Bldg. 40, Wallingford CT 06492
  
  
 ---------------------------------------------------------------
 Warning -- This program may not be used in any manner that
 competes with the business of Gaussian, Inc. or will provide
 assistance to any competitor of Gaussian, Inc.  The licensee
 of this program is prohibited from giving any competitor of
 Gaussian, Inc. access to this program.  By using this program,
 the user acknowledges that Gaussian, Inc. is engaged in the
 business of creating and licensing software in the field of
 computational chemistry and represents and warrants to the
 licensee that it is not a competitor of Gaussian, Inc. and that
 it will not use this program in any manner prohibited above.
 ---------------------------------------------------------------
  

 Cite this work as:
 Gaussian 16, Revision C.01,
 M. J. Frisch, G. W. Trucks, H. B. Schlegel, G. E. Scuseria, 
 M. A. Robb, J. R. Cheeseman, G. Scalmani, V. Barone, 
 G. A. Petersson, H. Nakatsuji, X. Li, M. Caricato, A. V. Marenich, 
 J. Bloino, B. G. Janesko, R. Gomperts, B. Mennucci, H. P. Hratchian, 
 J. V. Ortiz, A. F. Izmaylov, J. L. Sonnenberg, D. Williams-Young, 
 F. Ding, F. Lipparini, F. Egidi, J. Goings, B. Peng, A. Petrone, 
 T. Henderson, D. Ranasinghe, V. G. Zakrzewski, J. Gao, N. Rega, 
 G. Zheng, W. Liang, M. Hada, M. Ehara, K. Toyota, R. Fukuda, 
 J. Hasegawa, M. Ishida, T. Nakajima, Y. Honda, O. Kitao, H. Nakai, 
 T. Vreven, K. Throssell, J. A. Montgomery, Jr., J. E. Peralta, 
 F. Ogliaro, M. J. Bearpark, J. J. Heyd, E. N. Brothers, K. N. Kudin, 
 V. N. Staroverov, T. A. Keith, R. Kobayashi, J. Normand, 
 K. Raghavachari, A. P. Rendell, J. C. Burant, S. S. Iyengar, 
 J. Tomasi, M. Cossi, J. M. Millam, M. Klene, C. Adamo, R. Cammi, 
 J. W. Ochterski, R. L. Martin, K. Morokuma, O. Farkas, 
 J. B. Foresman, and D. J. Fox, Gaussian, Inc., Wallingford CT, 2019.
 
 ******************************************
 Gaussian 16:  ES64L-G16RevC.01  3-Jul-2019
                27-Oct-2020 
 ******************************************
 %chk=config_7_9.chk
 %mem=58GB
 %nprocshared=10
 Will use up to   10 processors via shared memory.
 ----------------------------------------------------------------------
 #p opt=addgic freq wb97xd/cc-pvdz nosymm int=ultrafine scrf=(solvent=C
 arbonTetraChloride)
 ----------------------------------------------------------------------
 1/18=20,19=15,26=6,38=1,145=903/1,3;
 2/9=110,12=2,15=1,17=6,18=5,40=1/2;
 3/5=16,11=2,25=1,30=1,70=2201,71=1,72=11,74=-58,75=-5/1,2,3;
 4//1;
 5/5=2,38=5,53=11/2;
 6/7=2,8=2,9=2,10=2,28=1/1;
 7/30=1/1,2,3,16;
 1/18=20,19=15,26=6,145=903/3(2);
 2/9=110,15=1/2;
 99//99;
 2/9=110,15=1/2;
 3/5=16,11=2,25=1,30=1,70=2205,71=1,72=11,74=-58,75=-5/1,2,3;
 4/5=5,16=3,69=1/1;
 5/5=2,38=5,53=11/2;
 7/30=1/1,2,3,16;
 1/18=20,19=15,26=6,145=903/3(-5);
 2/9=110,15=1/2;
 6/7=2,8=2,9=2,10=2,19=2,28=1/1;
 99/9=1/99;
 Leave Link    1 at Tue Oct 27 22:32:09 2020, MaxMem=  7784628224 cpu:               4.0 elap:               0.5
 (Enter /gpfs/loomis/apps/avx/software/Gaussian/16-C.01_AVX/g16/l101.exe)
 ------------------------------------------------
 NM 2D-scan of HBT TD-WB97XD pVDZ in CTC Relaxed.
 ------------------------------------------------
 Symbolic Z-matrix:
 Charge =  0 Multiplicity = 1
 C                     1.64816  -3.26172  -0.00002 
 C                     1.00173  -2.02872  -0.00002 
 C                     1.72625  -0.80331  -0.00002 
 C                     3.13378  -0.84182  -0.00002 
 C                     3.76867  -2.07562  -0.00002 
 C                     3.04176  -3.27793  -0.00002 
 H                     1.07666  -4.19074  -0.00002 
 H                     3.70105   0.08954  -0.00003 
 H                     4.85953  -2.11172  -0.00002 
 H                     3.57001  -4.23218  -0.00002 
 N                     0.93381   0.30237  -0.00002 
 S                    -0.72639  -1.7231   -0.00002 
 C                    -1.37107   1.03371   0. 
 C                    -2.75336   0.81307   0. 
 C                    -0.88202   2.431     0.00003 
 C                    -3.64904   1.89397   0.00003 
 H                    -3.14167  -0.2073   -0.00001 
 C                    -1.82422   3.48835   0.00005 
 C                    -3.19294   3.22396   0.00005 
 H                    -4.7213    1.69132   0.00002 
 H                    -1.43166   4.50594   0.00007 
 H                    -3.91007   4.04514   0.00007 
 C                    -0.39345   0.00619  -0.00002 
 O                     0.38356   2.65958   0.00004 
 H                     0.95174   1.50505   0.00001 
 
 Add virtual bond connecting atoms H25        and N11        Dist= 2.27D+00.
 Add virtual bond connecting atoms H25        and O24        Dist= 2.43D+00.
 Initializing the GIC definitions file.
 Number of initial coordinates =   142
 Number of input entries/lines =    52
 Number of additional coordinates =     2
 Number of removed coordinates =     0
 Number of frozen coordinates =     2
 Number of final active and frozen coordinates =   144
 ITRead=  0  0  0  0  0  0  0  0  0  0  0  0  0  0  0  0  0  0  0  0
 ITRead=  0  0  0  0  0
 MicOpt= -1 -1 -1 -1 -1 -1 -1 -1 -1 -1 -1 -1 -1 -1 -1 -1 -1 -1 -1 -1
 MicOpt= -1 -1 -1 -1 -1
 NAtoms=     25 NQM=       25 NQMF=       0 NMMI=      0 NMMIF=      0
                NMic=       0 NMicF=      0.
                    Isotopes and Nuclear Properties:
 (Nuclear quadrupole moments (NQMom) in fm**2, nuclear magnetic moments (NMagM)
  in nuclear magnetons)

  Atom         1           2           3           4           5           6           7           8           9          10
 IAtWgt=          12          12          12          12          12          12           1           1           1           1
 AtmWgt=  12.0000000  12.0000000  12.0000000  12.0000000  12.0000000  12.0000000   1.0078250   1.0078250   1.0078250   1.0078250
 NucSpn=           0           0           0           0           0           0           1           1           1           1
 AtZEff=  -0.0000000  -0.0000000  -0.0000000  -0.0000000  -0.0000000  -0.0000000  -0.0000000  -0.0000000  -0.0000000  -0.0000000
 NQMom=    0.0000000   0.0000000   0.0000000   0.0000000   0.0000000   0.0000000   0.0000000   0.0000000   0.0000000   0.0000000
 NMagM=    0.0000000   0.0000000   0.0000000   0.0000000   0.0000000   0.0000000   2.7928460   2.7928460   2.7928460   2.7928460
 AtZNuc=   6.0000000   6.0000000   6.0000000   6.0000000   6.0000000   6.0000000   1.0000000   1.0000000   1.0000000   1.0000000

  Atom        11          12          13          14          15          16          17          18          19          20
 IAtWgt=          14          32          12          12          12          12           1          12          12           1
 AtmWgt=  14.0030740  31.9720718  12.0000000  12.0000000  12.0000000  12.0000000   1.0078250  12.0000000  12.0000000   1.0078250
 NucSpn=           2           0           0           0           0           0           1           0           0           1
 AtZEff=  -0.0000000  -0.0000000  -0.0000000  -0.0000000  -0.0000000  -0.0000000  -0.0000000  -0.0000000  -0.0000000  -0.0000000
 NQMom=    2.0440000   0.0000000   0.0000000   0.0000000   0.0000000   0.0000000   0.0000000   0.0000000   0.0000000   0.0000000
 NMagM=    0.4037610   0.0000000   0.0000000   0.0000000   0.0000000   0.0000000   2.7928460   0.0000000   0.0000000   2.7928460
 AtZNuc=   7.0000000  16.0000000   6.0000000   6.0000000   6.0000000   6.0000000   1.0000000   6.0000000   6.0000000   1.0000000

  Atom        21          22          23          24          25
 IAtWgt=           1           1          12          16           1
 AtmWgt=   1.0078250   1.0078250  12.0000000  15.9949146   1.0078250
 NucSpn=           1           1           0           0           1
 AtZEff=  -0.0000000  -0.0000000  -0.0000000  -0.0000000  -0.0000000
 NQMom=    0.0000000   0.0000000   0.0000000   0.0000000   0.0000000
 NMagM=    2.7928460   2.7928460   0.0000000   0.0000000   2.7928460
 AtZNuc=   1.0000000   1.0000000   6.0000000   8.0000000   1.0000000
 Leave Link  101 at Tue Oct 27 22:32:12 2020, MaxMem=  7784628224 cpu:              29.4 elap:               3.8
 (Enter /gpfs/loomis/apps/avx/software/Gaussian/16-C.01_AVX/g16/l103.exe)

 GradGradGradGradGradGradGradGradGradGradGradGradGradGradGradGradGradGrad
 Berny optimization.
 Initialization pass.
                           ----------------------------
                           !    Initial Parameters    !
                           ! (Angstroms and Degrees)  !
 --------------------------                            --------------------------
 ! Name  Definition              Value          Derivative Info.                !
 --------------------------------------------------------------------------------
 ! R1    R(1,2)                  1.3922         estimate D2E/DX2                !
 ! R2    R(1,6)                  1.3937         estimate D2E/DX2                !
 ! R3    R(1,7)                  1.0907         estimate D2E/DX2                !
 ! R4    R(2,3)                  1.4236         estimate D2E/DX2                !
 ! R5    R(2,12)                 1.7549         estimate D2E/DX2                !
 ! R6    R(3,4)                  1.4081         estimate D2E/DX2                !
 ! R7    R(3,11)                 1.3603         estimate D2E/DX2                !
 ! R8    R(4,5)                  1.3876         estimate D2E/DX2                !
 ! R9    R(4,8)                  1.0905         estimate D2E/DX2                !
 ! R10   R(5,6)                  1.405          estimate D2E/DX2                !
 ! R11   R(5,9)                  1.0915         estimate D2E/DX2                !
 ! R12   R(6,10)                 1.0907         estimate D2E/DX2                !
 ! R13   R(11,23)                1.3599         estimate D2E/DX2                !
 ! R14   R(11,25)                1.2028         estimate D2E/DX2                !
 ! R15   R(12,23)                1.7611         estimate D2E/DX2                !
 ! R16   R(13,14)                1.3998         estimate D2E/DX2                !
 ! R17   R(13,15)                1.4804         estimate D2E/DX2                !
 ! R18   R(13,23)                1.4183         estimate D2E/DX2                !
 ! R19   R(14,16)                1.4038         estimate D2E/DX2                !
 ! R20   R(14,17)                1.0918         estimate D2E/DX2                !
 ! R21   R(15,18)                1.4162         estimate D2E/DX2                !
 ! R22   R(15,24)                1.2861         estimate D2E/DX2                !
 ! R23   R(16,19)                1.406          estimate D2E/DX2                !
 ! R24   R(16,20)                1.0912         estimate D2E/DX2                !
 ! R25   R(18,19)                1.394          estimate D2E/DX2                !
 ! R26   R(18,21)                1.0907         estimate D2E/DX2                !
 ! R27   R(19,22)                1.0902         estimate D2E/DX2                !
 ! R28   R(24,25)                1.2868         estimate D2E/DX2                !
 ! A1    A(2,1,6)              118.3328         estimate D2E/DX2                !
 ! A2    A(2,1,7)              120.7353         estimate D2E/DX2                !
 ! A3    A(6,1,7)              120.9319         estimate D2E/DX2                !
 ! A4    A(1,2,3)              121.7402         estimate D2E/DX2                !
 ! A5    A(1,2,12)             127.6956         estimate D2E/DX2                !
 ! A6    A(3,2,12)             110.5643         estimate D2E/DX2                !
 ! A7    A(2,3,4)              119.026          estimate D2E/DX2                !
 ! A8    A(2,3,11)             113.7776         estimate D2E/DX2                !
 ! A9    A(4,3,11)             127.1964         estimate D2E/DX2                !
 ! A10   A(3,4,5)              118.7967         estimate D2E/DX2                !
 ! A11   A(3,4,8)              119.7773         estimate D2E/DX2                !
 ! A12   A(5,4,8)              121.426          estimate D2E/DX2                !
 ! A13   A(4,5,6)              121.6132         estimate D2E/DX2                !
 ! A14   A(4,5,9)              119.1246         estimate D2E/DX2                !
 ! A15   A(6,5,9)              119.2622         estimate D2E/DX2                !
 ! A16   A(1,6,5)              120.4912         estimate D2E/DX2                !
 ! A17   A(1,6,10)             119.6343         estimate D2E/DX2                !
 ! A18   A(5,6,10)             119.8745         estimate D2E/DX2                !
 ! A19   A(3,11,23)            113.0497         estimate D2E/DX2                !
 ! A20   A(3,11,25)            143.5164         estimate D2E/DX2                !
 ! A21   A(23,11,25)           103.4339         estimate D2E/DX2                !
 ! A22   A(2,12,23)             89.1311         estimate D2E/DX2                !
 ! A23   A(14,13,15)           118.3591         estimate D2E/DX2                !
 ! A24   A(14,13,23)           124.5053         estimate D2E/DX2                !
 ! A25   A(15,13,23)           117.1356         estimate D2E/DX2                !
 ! A26   A(13,14,16)           120.5774         estimate D2E/DX2                !
 ! A27   A(13,14,17)           119.9039         estimate D2E/DX2                !
 ! A28   A(16,14,17)           119.5187         estimate D2E/DX2                !
 ! A29   A(13,15,18)           119.0061         estimate D2E/DX2                !
 ! A30   A(13,15,24)           119.5278         estimate D2E/DX2                !
 ! A31   A(18,15,24)           121.4662         estimate D2E/DX2                !
 ! A32   A(14,16,19)           121.425          estimate D2E/DX2                !
 ! A33   A(14,16,20)           118.9444         estimate D2E/DX2                !
 ! A34   A(19,16,20)           119.6306         estimate D2E/DX2                !
 ! A35   A(15,18,19)           120.771          estimate D2E/DX2                !
 ! A36   A(15,18,21)           117.2008         estimate D2E/DX2                !
 ! A37   A(19,18,21)           122.0282         estimate D2E/DX2                !
 ! A38   A(16,19,18)           119.8616         estimate D2E/DX2                !
 ! A39   A(16,19,22)           119.941          estimate D2E/DX2                !
 ! A40   A(18,19,22)           120.1974         estimate D2E/DX2                !
 ! A41   A(11,23,12)           113.4774         estimate D2E/DX2                !
 ! A42   A(11,23,13)           120.995          estimate D2E/DX2                !
 ! A43   A(12,23,13)           125.5276         estimate D2E/DX2                !
 ! A44   A(15,24,25)           105.9656         estimate D2E/DX2                !
 ! A45   A(11,25,24)           152.9421         estimate D2E/DX2                !
 ! D1    D(6,1,2,3)              0.0            estimate D2E/DX2                !
 ! D2    D(6,1,2,12)          -180.0            estimate D2E/DX2                !
 ! D3    D(7,1,2,3)            179.9999         estimate D2E/DX2                !
 ! D4    D(7,1,2,12)             0.0            estimate D2E/DX2                !
 ! D5    D(2,1,6,5)             -0.0001         estimate D2E/DX2                !
 ! D6    D(2,1,6,10)           180.0            estimate D2E/DX2                !
 ! D7    D(7,1,6,5)           -180.0            estimate D2E/DX2                !
 ! D8    D(7,1,6,10)             0.0            estimate D2E/DX2                !
 ! D9    D(1,2,3,4)              0.0001         estimate D2E/DX2                !
 ! D10   D(1,2,3,11)           180.0            estimate D2E/DX2                !
 ! D11   D(12,2,3,4)          -180.0            estimate D2E/DX2                !
 ! D12   D(12,2,3,11)            0.0            estimate D2E/DX2                !
 ! D13   D(1,2,12,23)          179.9998         estimate D2E/DX2                !
 ! D14   D(3,2,12,23)           -0.0002         estimate D2E/DX2                !
 ! D15   D(2,3,4,5)             -0.0001         estimate D2E/DX2                !
 ! D16   D(2,3,4,8)            179.9999         estimate D2E/DX2                !
 ! D17   D(11,3,4,5)          -180.0            estimate D2E/DX2                !
 ! D18   D(11,3,4,8)             0.0            estimate D2E/DX2                !
 ! D19   D(2,3,11,23)            0.0003         estimate D2E/DX2                !
 ! D20   D(2,3,11,25)          179.9973         estimate D2E/DX2                !
 ! D21   D(4,3,11,23)         -179.9998         estimate D2E/DX2                !
 ! D22   D(4,3,11,25)           -0.0027         estimate D2E/DX2                !
 ! D23   D(3,4,5,6)              0.0            estimate D2E/DX2                !
 ! D24   D(3,4,5,9)           -180.0            estimate D2E/DX2                !
 ! D25   D(8,4,5,6)            180.0            estimate D2E/DX2                !
 ! D26   D(8,4,5,9)              0.0            estimate D2E/DX2                !
 ! D27   D(4,5,6,1)              0.0            estimate D2E/DX2                !
 ! D28   D(4,5,6,10)          -180.0            estimate D2E/DX2                !
 ! D29   D(9,5,6,1)           -180.0            estimate D2E/DX2                !
 ! D30   D(9,5,6,10)             0.0            estimate D2E/DX2                !
 ! D31   D(3,11,23,12)          -0.0004         estimate D2E/DX2                !
 ! D32   D(3,11,23,13)         179.999          estimate D2E/DX2                !
 ! D33   D(25,11,23,12)       -179.9986         estimate D2E/DX2                !
 ! D34   D(25,11,23,13)          0.0008         estimate D2E/DX2                !
 ! D35   D(3,11,25,24)        -179.9977         estimate D2E/DX2                !
 ! D36   D(23,11,25,24)         -0.0005         estimate D2E/DX2                !
 ! D37   D(2,12,23,11)           0.0003         estimate D2E/DX2                !
 ! D38   D(2,12,23,13)        -179.999          estimate D2E/DX2                !
 ! D39   D(15,13,14,16)          0.0002         estimate D2E/DX2                !
 ! D40   D(15,13,14,17)       -179.9999         estimate D2E/DX2                !
 ! D41   D(23,13,14,16)       -180.0            estimate D2E/DX2                !
 ! D42   D(23,13,14,17)         -0.0001         estimate D2E/DX2                !
 ! D43   D(14,13,15,18)         -0.0002         estimate D2E/DX2                !
 ! D44   D(14,13,15,24)        179.9996         estimate D2E/DX2                !
 ! D45   D(23,13,15,18)        179.9999         estimate D2E/DX2                !
 ! D46   D(23,13,15,24)         -0.0003         estimate D2E/DX2                !
 ! D47   D(14,13,23,11)        179.9996         estimate D2E/DX2                !
 ! D48   D(14,13,23,12)         -0.0011         estimate D2E/DX2                !
 ! D49   D(15,13,23,11)         -0.0005         estimate D2E/DX2                !
 ! D50   D(15,13,23,12)        179.9988         estimate D2E/DX2                !
 ! D51   D(13,14,16,19)          0.0            estimate D2E/DX2                !
 ! D52   D(13,14,16,20)        180.0            estimate D2E/DX2                !
 ! D53   D(17,14,16,19)       -179.9999         estimate D2E/DX2                !
 ! D54   D(17,14,16,20)          0.0001         estimate D2E/DX2                !
 ! D55   D(13,15,18,19)          0.0002         estimate D2E/DX2                !
 ! D56   D(13,15,18,21)        179.9999         estimate D2E/DX2                !
 ! D57   D(24,15,18,19)       -179.9996         estimate D2E/DX2                !
 ! D58   D(24,15,18,21)          0.0001         estimate D2E/DX2                !
 ! D59   D(13,15,24,25)          0.0006         estimate D2E/DX2                !
 ! D60   D(18,15,24,25)       -179.9996         estimate D2E/DX2                !
 ! D61   D(14,16,19,18)          0.0            estimate D2E/DX2                !
 ! D62   D(14,16,19,22)       -180.0            estimate D2E/DX2                !
 ! D63   D(20,16,19,18)        180.0            estimate D2E/DX2                !
 ! D64   D(20,16,19,22)          0.0            estimate D2E/DX2                !
 ! D65   D(15,18,19,16)         -0.0001         estimate D2E/DX2                !
 ! D66   D(15,18,19,22)        179.9999         estimate D2E/DX2                !
 ! D67   D(21,18,19,16)       -179.9998         estimate D2E/DX2                !
 ! D68   D(21,18,19,22)          0.0002         estimate D2E/DX2                !
 ! D69   D(15,24,25,11)         -0.0002         estimate D2E/DX2                !
 ! Qtot  GIC-1                  10.0            Frozen                          !
 ! Ptot  GIC-2                  20.0            Frozen                          !
 --------------------------------------------------------------------------------
 NOTE: GIC-type coordinates are in arbitrary units.
 Trust Radius=3.00D-01 FncErr=5.00D-06 GrdErr=5.00D-06 EigMax=2.50D+02 EigMin=1.00D-04
 Number of steps in this run=    150 maximum allowed number of steps=    150.
 GradGradGradGradGradGradGradGradGradGradGradGradGradGradGradGradGradGrad

 Leave Link  103 at Tue Oct 27 22:32:12 2020, MaxMem=  7784628224 cpu:               0.3 elap:               0.1
 (Enter /gpfs/loomis/apps/avx/software/Gaussian/16-C.01_AVX/g16/l202.exe)
                          Input orientation:                          
 ---------------------------------------------------------------------
 Center     Atomic      Atomic             Coordinates (Angstroms)
 Number     Number       Type             X           Y           Z
 ---------------------------------------------------------------------
      1          6           0        1.648158   -3.261720   -0.000021
      2          6           0        1.001735   -2.028719   -0.000022
      3          6           0        1.726247   -0.803307   -0.000022
      4          6           0        3.133783   -0.841818   -0.000024
      5          6           0        3.768674   -2.075623   -0.000023
      6          6           0        3.041755   -3.277925   -0.000021
      7          1           0        1.076662   -4.190741   -0.000019
      8          1           0        3.701050    0.089541   -0.000025
      9          1           0        4.859529   -2.111719   -0.000023
     10          1           0        3.570011   -4.232176   -0.000020
     11          7           0        0.933808    0.302370   -0.000023
     12         16           0       -0.726390   -1.723103   -0.000021
     13          6           0       -1.371069    1.033714    0.000005
     14          6           0       -2.753360    0.813071    0.000005
     15          6           0       -0.882021    2.431002    0.000033
     16          6           0       -3.649035    1.893968    0.000027
     17          1           0       -3.141669   -0.207295   -0.000015
     18          6           0       -1.824216    3.488350    0.000053
     19          6           0       -3.192938    3.223958    0.000050
     20          1           0       -4.721295    1.691322    0.000025
     21          1           0       -1.431660    4.505938    0.000075
     22          1           0       -3.910065    4.045135    0.000068
     23          6           0       -0.393446    0.006192   -0.000017
     24          8           0        0.383562    2.659580    0.000042
     25          1           0        0.951745    1.505054    0.000009
 ---------------------------------------------------------------------
                    Distance matrix (angstroms):
                    1          2          3          4          5
     1  C    0.000000
     2  C    1.392176   0.000000
     3  C    2.459654   1.423571   0.000000
     4  C    2.839544   2.440156   1.408062   0.000000
     5  C    2.429694   2.767337   2.406304   1.387574   0.000000
     6  C    1.393692   2.392112   2.802552   2.437845   1.404970
     7  H    1.090727   2.163319   3.449155   3.930271   3.423543
     8  H    3.930053   3.431229   2.167262   1.090514   2.166220
     9  H    3.411071   3.858687   3.395497   2.142627   1.091452
    10  H    2.152976   3.383972   3.893150   3.418308   2.165684
    11  N    3.634974   2.332079   1.360323   2.479728   3.700178
    12  S    2.829456   1.754941   2.619438   3.959495   4.508866
    13  C    5.250380   3.874106   3.601112   4.879683   6.007074
    14  C    5.998107   4.709194   4.762306   6.115317   7.133126
    15  C    6.229678   4.841245   4.154975   5.180543   6.476005
    16  C    7.391981   6.084171   6.014063   7.313764   8.413089
    17  H    5.680842   4.526078   4.904267   6.307449   7.158456
    18  C    7.590838   6.198713   5.569928   6.582712   7.889120
    19  C    8.093221   6.722045   6.357455   7.520500   8.749262
    20  H    8.068616   6.825817   6.913319   8.253426   9.288135
    21  H    8.355943   6.973030   6.177415   7.031483   8.388112
    22  H    9.180631   7.811369   7.434743   8.573103   9.819711
    23  C    3.853233   2.467265   2.269006   3.627735   4.653730
    24  O    6.054832   4.728878   3.714079   4.452358   5.820750
    25  H    4.817378   3.534127   2.434827   3.204543   4.555912
                    6          7          8          9         10
     6  C    0.000000
     7  H    2.166754   0.000000
     8  H    3.431399   5.020779   0.000000
     9  H    2.159708   4.316527   2.487492   0.000000
    10  H    1.090711   2.493693   4.323703   2.481772   0.000000
    11  N    4.154751   4.495381   2.775415   4.608591   5.245158
    12  S    4.076321   3.056180   4.784131   5.599421   4.975391
    13  C    6.169542   5.769430   5.159250   6.979548   7.221072
    14  C    7.093632   6.301365   6.494837   8.155395   8.089471
    15  C    6.927328   6.905354   5.146551   7.321319   8.013647
    16  C    8.456664   7.704278   7.568336   9.404318   9.468066
    17  H    6.903877   5.801910   6.849155   8.224719   7.826003
    18  C    8.334276   8.208747   6.486946   8.719703   9.418291
    19  C    9.008101   8.556123   7.573086   9.659796  10.066351
    20  H    9.217287   8.259236   8.573308  10.308022  10.189877
    21  H    8.977749   9.051182   6.771210   9.130851  10.068334
    22  H   10.097278   9.627934   8.577634  10.715066  11.156408
    23  C    4.752477   4.446962   4.095345   5.663859   5.802824
    24  O    6.505379   6.885294   4.196525   6.542138   7.592744
    25  H    5.219678   5.697164   3.092306   5.324643   6.306436
                   11         12         13         14         15
    11  N    0.000000
    12  S    2.618931   0.000000
    13  C    2.418124   2.831193   0.000000
    14  C    3.722368   3.246657   1.399791   0.000000
    15  C    2.797912   4.157019   1.480399   2.473785   0.000000
    16  C    4.851354   4.650275   2.434988   1.403771   2.818647
    17  H    4.107222   2.851534   2.162205   1.091755   3.473704
    18  C    4.213925   5.325830   2.496112   2.832036   1.416233
    19  C    5.056254   5.527863   2.848925   2.450634   2.443177
    20  H    5.823176   5.255242   3.414157   2.155016   3.909879
    21  H    4.823424   6.268840   3.472752   3.922264   2.146500
    22  H    6.121389   6.588502   3.938929   3.432814   3.431396
    23  C    1.359899   1.761055   1.418290   2.494042   2.473541
    24  O    2.420580   4.521051   2.392106   3.640038   1.286060
    25  H    1.202818   3.638288   2.370153   3.769170   2.054283
                   16         17         18         19         20
    16  C    0.000000
    17  H    2.161649   0.000000
    18  C    2.423224   3.923451   0.000000
    19  C    1.406022   3.431636   1.394023   0.000000
    20  H    1.091241   2.469811   3.409161   2.164451   0.000000
    21  H    3.426242   5.013850   1.090681   2.178433   4.329406
    22  H    2.166947   4.321296   2.158883   1.090232   2.489685
    23  C    3.763317   2.756503   3.764641   4.265110   4.644345
    24  O    4.104632   4.543812   2.358208   3.620756   5.195873
    25  H    4.617189   4.437136   3.411660   4.486984   5.676097
                   21         22         23         24         25
    21  H    0.000000
    22  H    2.520879   0.000000
    23  C    4.617964   5.355340   0.000000
    24  O    2.589222   4.511652   2.764816   0.000000
    25  H    3.832222   5.485363   2.013982   1.286764   0.000000
 Symmetry turned off by external request.
 Stoichiometry    C13H9NOS
 Framework group  C1[X(C13H9NOS)]
 Deg. of freedom    69
 Full point group                 C1      NOp   1
 Rotational constants (GHZ):           1.3857996           0.2860384           0.2370995
 Leave Link  202 at Tue Oct 27 22:32:13 2020, MaxMem=  7784628224 cpu:               0.3 elap:               0.1
 (Enter /gpfs/loomis/apps/avx/software/Gaussian/16-C.01_AVX/g16/l301.exe)
 Standard basis: CC-pVDZ (5D, 7F)
 Ernie: Thresh=  0.10000D-02 Tol=  0.10000D-05 Strict=F.
 Ernie:  40 primitive shells out of 425 were deleted.
   273 basis functions,   629 primitive gaussians,   289 cartesian basis functions
    59 alpha electrons       59 beta electrons
       nuclear repulsion energy      1098.9805128623 Hartrees.
 IExCor= 4639 DFT=T Ex+Corr=wB97XD ExCW=0 ScaHFX=  1.000000
 ScaDFX=  1.000000  1.000000  1.000000  1.000000 ScalE2=  1.000000  1.000000
 IRadAn=      5 IRanWt=     -1 IRanGd=            0 ICorTp=0 IEmpDi=121
 HFx  wShort=  0.000000 wLong=  0.200000 cFull=  0.222036 cShort=  0.000000 cLong=  0.777964
 DFx  wShort=  0.000000 wLong=  0.200000 cFull=  0.000000 cShort=  0.000000 cLong=  1.000000
 NAtoms=   25 NActive=   25 NUniq=   25 SFac= 1.00D+00 NAtFMM=   60 NAOKFM=F Big=F
 Integral buffers will be    131072 words long.
 Raffenetti 2 integral format.
 Two-electron integral symmetry is turned off.
 R6Disp:  Grimme-D2 Dispersion energy=       -0.0139504141 Hartrees.
 Nuclear repulsion after empirical dispersion term =     1098.9665624481 Hartrees.
 ------------------------------------------------------------------------------
 Polarizable Continuum Model (PCM)
 =================================
 Model                : PCM.
 Atomic radii         : UFF (Universal Force Field).
 Polarization charges : Total charges.
 Charge compensation  : None.
 Solution method      : On-the-fly selection.
 Cavity type          : Scaled VdW (van der Waals Surface) (Alpha=1.100).
 Cavity algorithm     : GePol (No added spheres)
                        Default sphere list used, NSphG=   25.
                        Lebedev-Laikov grids with approx.  5.0 points / Ang**2.
                        Smoothing algorithm: York/Karplus (Gamma=1.0000).
                        Polarization charges: spherical gaussians, with
                                              point-specific exponents (IZeta= 3).
                        Self-potential: point-specific (ISelfS= 7).
                        Self-field    : sphere-specific E.n sum rule (ISelfD= 2).
 1st derivatives      : Analytical E(r).r(x)/FMM algorithm (CHGder, D1EAlg=3).
                        Cavity 1st derivative terms included.
 Solvent              : CarbonTetraChloride, Eps=   2.228000 Eps(inf)=   2.131892
 ------------------------------------------------------------------------------
 GePol: Number of generator spheres                  =      25
 GePol: Total number of spheres                      =      25
 GePol: Number of exposed spheres                    =      25 (100.00%)
 GePol: Number of points                             =    2170
 GePol: Average weight of points                     =       0.13
 GePol: Minimum weight of points                     =   0.33D-08
 GePol: Maximum weight of points                     =    0.20577
 GePol: Number of points with low weight             =     121
 GePol: Fraction of low-weight points (<1% of avg)   =       5.58%
 GePol: Cavity surface area                          =    273.227 Ang**2
 GePol: Cavity volume                                =    292.767 Ang**3
 Leave Link  301 at Tue Oct 27 22:32:13 2020, MaxMem=  7784628224 cpu:               1.0 elap:               0.2
 (Enter /gpfs/loomis/apps/avx/software/Gaussian/16-C.01_AVX/g16/l302.exe)
 NPDir=0 NMtPBC=     1 NCelOv=     1 NCel=       1 NClECP=     1 NCelD=      1
         NCelK=      1 NCelE2=     1 NClLst=     1 CellRange=     0.0.
 One-electron integrals computed using PRISM.
 NBasis=   273 RedAO= T EigKep=  3.09D-04  NBF=   273
 NBsUse=   273 1.00D-06 EigRej= -1.00D+00 NBFU=   273
 Precomputing XC quadrature grid using
 IXCGrd= 4 IRadAn=           5 IRanWt=          -1 IRanGd=           0 AccXCQ= 0.00D+00.
 Generated NRdTot=       0 NPtTot=           0 NUsed=           0 NTot=          32
 NSgBfM=   288   288   288   288   288 MxSgAt=    25 MxSgA2=    25.
 Leave Link  302 at Tue Oct 27 22:32:14 2020, MaxMem=  7784628224 cpu:               4.9 elap:               0.7
 (Enter /gpfs/loomis/apps/avx/software/Gaussian/16-C.01_AVX/g16/l303.exe)
 DipDrv:  MaxL=1.
 Leave Link  303 at Tue Oct 27 22:32:14 2020, MaxMem=  7784628224 cpu:               0.7 elap:               0.1
 (Enter /gpfs/loomis/apps/avx/software/Gaussian/16-C.01_AVX/g16/l401.exe)
 ExpMin= 1.22D-01 ExpMax= 1.11D+05 ExpMxC= 1.07D+03 IAcc=3 IRadAn=         5 AccDes= 0.00D+00
 Harris functional with IExCor= 4639 and IRadAn=       5 diagonalized for initial guess.
 HarFok:  IExCor= 4639 AccDes= 0.00D+00 IRadAn=         5 IDoV= 1 UseB2=F ITyADJ=14
 ICtDFT=  3500011 ScaDFX=  1.000000  1.000000  1.000000  1.000000
 FoFCou: FMM=F IPFlag=           0 FMFlag=      100000 FMFlg1=           0
         NFxFlg=           0 DoJE=T BraDBF=F KetDBF=T FulRan=T
         wScrn=  0.000000 ICntrl=       500 IOpCl=  0 I1Cent=   200000004 NGrid=           0
         NMat0=    1 NMatS0=      1 NMatT0=    0 NMatD0=    1 NMtDS0=    0 NMtDT0=    0
 Symmetry not used in FoFCou.
 Harris En= -994.459169084306    
 JPrj=0 DoOrth=F DoCkMO=F.
 Leave Link  401 at Tue Oct 27 22:32:15 2020, MaxMem=  7784628224 cpu:              13.9 elap:               1.6
 (Enter /gpfs/loomis/apps/avx/software/Gaussian/16-C.01_AVX/g16/l502.exe)
 Two-electron integral symmetry not used.
 Closed shell SCF:
 Using DIIS extrapolation, IDIIS=  1040.
 NGot=  7784628224 LenX=  7784455381 LenY=  7784371419
 Requested convergence on RMS density matrix=1.00D-08 within 128 cycles.
 Requested convergence on MAX density matrix=1.00D-06.
 Requested convergence on             energy=1.00D-06.
 No special actions if energy rises.
 Fock matrices will be formed incrementally for  20 cycles.

 Cycle   1  Pass 1  IDiag  1:
 FoFJK:  IHMeth= 1 ICntrl=       0 DoSepK=T KAlg= 0 I1Cent=           0 FoldK=F
 IRaf=         1 NMat=       1 IRICut=       1 DoRegI=T DoRafI=F ISym2E= 0 IDoP0=0 IntGTp=1.
 FoFCou: FMM=F IPFlag=           0 FMFlag=      100000 FMFlg1=           0
         NFxFlg=           0 DoJE=T BraDBF=F KetDBF=F FulRan=T
         wScrn=  0.000000 ICntrl=       500 IOpCl=  0 I1Cent=           0 NGrid=           0
         NMat0=    1 NMatS0=      1 NMatT0=    0 NMatD0=    1 NMtDS0=    0 NMtDT0=    0
 Symmetry not used in FoFCou.
 Inv3:  Mode=1 IEnd=    14126700.
 Iteration    1 A*A^-1 deviation from unit magnitude is 5.11D-15 for   2145.
 Iteration    1 A*A^-1 deviation from orthogonality  is 1.75D-15 for   2091     99.
 Iteration    1 A^-1*A deviation from unit magnitude is 5.33D-15 for   2145.
 Iteration    1 A^-1*A deviation from orthogonality  is 1.79D-15 for   1818    353.
 E= -1028.56843694685    
 DIIS: error= 3.83D-02 at cycle   1 NSaved=   1.
 NSaved= 1 IEnMin= 1 EnMin= -1028.56843694685     IErMin= 1 ErrMin= 3.83D-02
 ErrMax= 3.83D-02  0.00D+00 EMaxC= 1.00D-01 BMatC= 3.95D-01 BMatP= 3.95D-01
 IDIUse=3 WtCom= 6.17D-01 WtEn= 3.83D-01
 Coeff-Com:  0.100D+01
 Coeff-En:   0.100D+01
 Coeff:      0.100D+01
 Gap=     0.337 Goal=   None    Shift=    0.000
 GapD=    0.337 DampG=1.000 DampE=0.500 DampFc=0.5000 IDamp=-1.
 Damping current iteration by 5.00D-01
 RMSDP=3.56D-03 MaxDP=2.28D-01              OVMax= 1.80D-01

 Cycle   2  Pass 1  IDiag  1:
 RMSU=  1.77D-03    CP:  9.93D-01
 E= -1028.68806757384     Delta-E=       -0.119630626994 Rises=F Damp=T
 DIIS: error= 1.21D-02 at cycle   2 NSaved=   2.
 NSaved= 2 IEnMin= 2 EnMin= -1028.68806757384     IErMin= 2 ErrMin= 1.21D-02
 ErrMax= 1.21D-02  0.00D+00 EMaxC= 1.00D-01 BMatC= 5.81D-02 BMatP= 3.95D-01
 IDIUse=3 WtCom= 8.79D-01 WtEn= 1.21D-01
 Coeff-Com: -0.283D+00 0.128D+01
 Coeff-En:   0.000D+00 0.100D+01
 Coeff:     -0.249D+00 0.125D+01
 Gap=     0.298 Goal=   None    Shift=    0.000
 RMSDP=1.15D-03 MaxDP=2.50D-02 DE=-1.20D-01 OVMax= 1.19D-01

 Cycle   3  Pass 1  IDiag  1:
 RMSU=  1.10D-03    CP:  9.92D-01  1.19D+00
 E= -1028.79473193013     Delta-E=       -0.106664356289 Rises=F Damp=F
 DIIS: error= 5.96D-03 at cycle   3 NSaved=   3.
 NSaved= 3 IEnMin= 3 EnMin= -1028.79473193013     IErMin= 3 ErrMin= 5.96D-03
 ErrMax= 5.96D-03  0.00D+00 EMaxC= 1.00D-01 BMatC= 1.45D-02 BMatP= 5.81D-02
 IDIUse=3 WtCom= 9.40D-01 WtEn= 5.96D-02
 Coeff-Com: -0.201D+00 0.487D+00 0.714D+00
 Coeff-En:   0.000D+00 0.000D+00 0.100D+01
 Coeff:     -0.189D+00 0.458D+00 0.731D+00
 Gap=     0.253 Goal=   None    Shift=    0.000
 RMSDP=5.40D-04 MaxDP=1.92D-02 DE=-1.07D-01 OVMax= 3.87D-02

 Cycle   4  Pass 1  IDiag  1:
 RMSU=  4.30D-04    CP:  9.89D-01  1.34D+00  8.39D-01
 E= -1028.80824246664     Delta-E=       -0.013510536508 Rises=F Damp=F
 DIIS: error= 2.11D-03 at cycle   4 NSaved=   4.
 NSaved= 4 IEnMin= 4 EnMin= -1028.80824246664     IErMin= 4 ErrMin= 2.11D-03
 ErrMax= 2.11D-03  0.00D+00 EMaxC= 1.00D-01 BMatC= 1.83D-03 BMatP= 1.45D-02
 IDIUse=3 WtCom= 9.79D-01 WtEn= 2.11D-02
 Coeff-Com: -0.717D-01 0.142D+00 0.350D+00 0.579D+00
 Coeff-En:   0.000D+00 0.000D+00 0.000D+00 0.100D+01
 Coeff:     -0.702D-01 0.139D+00 0.343D+00 0.588D+00
 Gap=     0.252 Goal=   None    Shift=    0.000
 RMSDP=1.74D-04 MaxDP=1.03D-02 DE=-1.35D-02 OVMax= 1.32D-02

 Cycle   5  Pass 1  IDiag  1:
 RMSU=  1.07D-04    CP:  9.89D-01  1.35D+00  9.12D-01  7.47D-01
 E= -1028.81017121990     Delta-E=       -0.001928753257 Rises=F Damp=F
 DIIS: error= 4.30D-04 at cycle   5 NSaved=   5.
 NSaved= 5 IEnMin= 5 EnMin= -1028.81017121990     IErMin= 5 ErrMin= 4.30D-04
 ErrMax= 4.30D-04  0.00D+00 EMaxC= 1.00D-01 BMatC= 5.49D-05 BMatP= 1.83D-03
 IDIUse=3 WtCom= 9.96D-01 WtEn= 4.30D-03
 Coeff-Com: -0.253D-02-0.103D-02 0.377D-01 0.162D+00 0.804D+00
 Coeff-En:   0.000D+00 0.000D+00 0.000D+00 0.000D+00 0.100D+01
 Coeff:     -0.252D-02-0.103D-02 0.375D-01 0.161D+00 0.805D+00
 Gap=     0.252 Goal=   None    Shift=    0.000
 RMSDP=5.24D-05 MaxDP=1.68D-03 DE=-1.93D-03 OVMax= 5.00D-03

 Cycle   6  Pass 1  IDiag  1:
 RMSU=  3.37D-05    CP:  9.89D-01  1.36D+00  9.29D-01  8.25D-01  1.08D+00
 E= -1028.81028514620     Delta-E=       -0.000113926300 Rises=F Damp=F
 DIIS: error= 1.96D-04 at cycle   6 NSaved=   6.
 NSaved= 6 IEnMin= 6 EnMin= -1028.81028514620     IErMin= 6 ErrMin= 1.96D-04
 ErrMax= 1.96D-04  0.00D+00 EMaxC= 1.00D-01 BMatC= 1.07D-05 BMatP= 5.49D-05
 IDIUse=3 WtCom= 9.98D-01 WtEn= 1.96D-03
 Coeff-Com:  0.146D-01-0.305D-01-0.571D-01-0.579D-01 0.240D+00 0.891D+00
 Coeff-En:   0.000D+00 0.000D+00 0.000D+00 0.000D+00 0.000D+00 0.100D+01
 Coeff:      0.146D-01-0.304D-01-0.569D-01-0.578D-01 0.239D+00 0.891D+00
 Gap=     0.253 Goal=   None    Shift=    0.000
 RMSDP=3.04D-05 MaxDP=1.49D-03 DE=-1.14D-04 OVMax= 3.19D-03

 Cycle   7  Pass 1  IDiag  1:
 RMSU=  1.58D-05    CP:  9.89D-01  1.36D+00  9.39D-01  8.54D-01  1.24D+00
                    CP:  1.25D+00
 E= -1028.81031442335     Delta-E=       -0.000029277148 Rises=F Damp=F
 DIIS: error= 1.38D-04 at cycle   7 NSaved=   7.
 NSaved= 7 IEnMin= 7 EnMin= -1028.81031442335     IErMin= 7 ErrMin= 1.38D-04
 ErrMax= 1.38D-04  0.00D+00 EMaxC= 1.00D-01 BMatC= 2.38D-06 BMatP= 1.07D-05
 IDIUse=3 WtCom= 9.99D-01 WtEn= 1.38D-03
 Coeff-Com:  0.682D-02-0.131D-01-0.302D-01-0.491D-01-0.952D-02 0.394D+00
 Coeff-Com:  0.701D+00
 Coeff-En:   0.000D+00 0.000D+00 0.000D+00 0.000D+00 0.000D+00 0.000D+00
 Coeff-En:   0.100D+01
 Coeff:      0.681D-02-0.130D-01-0.302D-01-0.490D-01-0.950D-02 0.394D+00
 Coeff:      0.701D+00
 Gap=     0.253 Goal=   None    Shift=    0.000
 RMSDP=1.12D-05 MaxDP=4.88D-04 DE=-2.93D-05 OVMax= 1.38D-03

 Cycle   8  Pass 1  IDiag  1:
 RMSU=  6.76D-06    CP:  9.89D-01  1.36D+00  9.41D-01  8.60D-01  1.28D+00
                    CP:  1.45D+00  1.13D+00
 E= -1028.81031959920     Delta-E=       -0.000005175857 Rises=F Damp=F
 DIIS: error= 4.72D-05 at cycle   8 NSaved=   8.
 NSaved= 8 IEnMin= 8 EnMin= -1028.81031959920     IErMin= 8 ErrMin= 4.72D-05
 ErrMax= 4.72D-05  0.00D+00 EMaxC= 1.00D-01 BMatC= 3.36D-07 BMatP= 2.38D-06
 IDIUse=1 WtCom= 1.00D+00 WtEn= 0.00D+00
 Coeff-Com: -0.125D-02 0.278D-02 0.450D-02 0.122D-02-0.399D-01-0.825D-01
 Coeff-Com:  0.200D+00 0.915D+00
 Coeff:     -0.125D-02 0.278D-02 0.450D-02 0.122D-02-0.399D-01-0.825D-01
 Coeff:      0.200D+00 0.915D+00
 Gap=     0.253 Goal=   None    Shift=    0.000
 RMSDP=5.89D-06 MaxDP=1.68D-04 DE=-5.18D-06 OVMax= 9.02D-04

 Cycle   9  Pass 1  IDiag  1:
 RMSU=  2.60D-06    CP:  9.89D-01  1.36D+00  9.41D-01  8.60D-01  1.29D+00
                    CP:  1.54D+00  1.37D+00  1.23D+00
 E= -1028.81032074323     Delta-E=       -0.000001144031 Rises=F Damp=F
 DIIS: error= 2.12D-05 at cycle   9 NSaved=   9.
 NSaved= 9 IEnMin= 9 EnMin= -1028.81032074323     IErMin= 9 ErrMin= 2.12D-05
 ErrMax= 2.12D-05  0.00D+00 EMaxC= 1.00D-01 BMatC= 5.39D-08 BMatP= 3.36D-07
 IDIUse=1 WtCom= 1.00D+00 WtEn= 0.00D+00
 Coeff-Com: -0.118D-02 0.234D-02 0.513D-02 0.683D-02-0.951D-02-0.857D-01
 Coeff-Com: -0.340D-01 0.258D+00 0.858D+00
 Coeff:     -0.118D-02 0.234D-02 0.513D-02 0.683D-02-0.951D-02-0.857D-01
 Coeff:     -0.340D-01 0.258D+00 0.858D+00
 Gap=     0.253 Goal=   None    Shift=    0.000
 RMSDP=2.76D-06 MaxDP=7.05D-05 DE=-1.14D-06 OVMax= 4.77D-04

 Cycle  10  Pass 1  IDiag  1:
 RMSU=  1.24D-06    CP:  9.89D-01  1.36D+00  9.41D-01  8.60D-01  1.30D+00
                    CP:  1.58D+00  1.47D+00  1.41D+00  1.26D+00
 E= -1028.81032098877     Delta-E=       -0.000000245541 Rises=F Damp=F
 DIIS: error= 9.64D-06 at cycle  10 NSaved=  10.
 NSaved=10 IEnMin=10 EnMin= -1028.81032098877     IErMin=10 ErrMin= 9.64D-06
 ErrMax= 9.64D-06  0.00D+00 EMaxC= 1.00D-01 BMatC= 1.84D-08 BMatP= 5.39D-08
 IDIUse=1 WtCom= 1.00D+00 WtEn= 0.00D+00
 Coeff-Com: -0.148D-03 0.231D-03 0.968D-03 0.245D-02 0.553D-02-0.180D-01
 Coeff-Com: -0.548D-01-0.122D+00 0.358D+00 0.827D+00
 Coeff:     -0.148D-03 0.231D-03 0.968D-03 0.245D-02 0.553D-02-0.180D-01
 Coeff:     -0.548D-01-0.122D+00 0.358D+00 0.827D+00
 Gap=     0.253 Goal=   None    Shift=    0.000
 RMSDP=1.57D-06 MaxDP=3.63D-05 DE=-2.46D-07 OVMax= 2.56D-04

 Cycle  11  Pass 1  IDiag  1:
 RMSU=  5.81D-07    CP:  9.89D-01  1.36D+00  9.41D-01  8.61D-01  1.30D+00
                    CP:  1.59D+00  1.51D+00  1.51D+00  1.61D+00  1.17D+00
 E= -1028.81032105589     Delta-E=       -0.000000067112 Rises=F Damp=F
 DIIS: error= 4.95D-06 at cycle  11 NSaved=  11.
 NSaved=11 IEnMin=11 EnMin= -1028.81032105589     IErMin=11 ErrMin= 4.95D-06
 ErrMax= 4.95D-06  0.00D+00 EMaxC= 1.00D-01 BMatC= 2.53D-09 BMatP= 1.84D-08
 IDIUse=1 WtCom= 1.00D+00 WtEn= 0.00D+00
 Coeff-Com:  0.261D-03-0.539D-03-0.959D-03-0.906D-03 0.474D-02 0.121D-01
 Coeff-Com: -0.683D-02-0.952D-01-0.423D-01 0.230D+00 0.899D+00
 Coeff:      0.261D-03-0.539D-03-0.959D-03-0.906D-03 0.474D-02 0.121D-01
 Coeff:     -0.683D-02-0.952D-01-0.423D-01 0.230D+00 0.899D+00
 Gap=     0.253 Goal=   None    Shift=    0.000
 RMSDP=6.46D-07 MaxDP=2.02D-05 DE=-6.71D-08 OVMax= 1.25D-04

 Cycle  12  Pass 1  IDiag  1:
 RMSU=  2.27D-07    CP:  9.89D-01  1.36D+00  9.41D-01  8.61D-01  1.30D+00
                    CP:  1.60D+00  1.52D+00  1.54D+00  1.76D+00  1.44D+00
                    CP:  1.14D+00
 E= -1028.81032106793     Delta-E=       -0.000000012044 Rises=F Damp=F
 DIIS: error= 1.22D-06 at cycle  12 NSaved=  12.
 NSaved=12 IEnMin=12 EnMin= -1028.81032106793     IErMin=12 ErrMin= 1.22D-06
 ErrMax= 1.22D-06  0.00D+00 EMaxC= 1.00D-01 BMatC= 7.72D-10 BMatP= 2.53D-09
 IDIUse=1 WtCom= 1.00D+00 WtEn= 0.00D+00
 Coeff-Com:  0.131D-03-0.258D-03-0.560D-03-0.880D-03 0.111D-02 0.850D-02
 Coeff-Com:  0.867D-02-0.180D-01-0.929D-01-0.108D+00 0.368D+00 0.834D+00
 Coeff:      0.131D-03-0.258D-03-0.560D-03-0.880D-03 0.111D-02 0.850D-02
 Coeff:      0.867D-02-0.180D-01-0.929D-01-0.108D+00 0.368D+00 0.834D+00
 Gap=     0.253 Goal=   None    Shift=    0.000
 RMSDP=3.43D-07 MaxDP=7.78D-06 DE=-1.20D-08 OVMax= 5.37D-05

 Cycle  13  Pass 1  IDiag  1:
 RMSU=  9.13D-08    CP:  9.89D-01  1.36D+00  9.41D-01  8.61D-01  1.30D+00
                    CP:  1.60D+00  1.53D+00  1.55D+00  1.84D+00  1.55D+00
                    CP:  1.41D+00  1.10D+00
 E= -1028.81032107030     Delta-E=       -0.000000002369 Rises=F Damp=F
 DIIS: error= 5.89D-07 at cycle  13 NSaved=  13.
 NSaved=13 IEnMin=13 EnMin= -1028.81032107030     IErMin=13 ErrMin= 5.89D-07
 ErrMax= 5.89D-07  0.00D+00 EMaxC= 1.00D-01 BMatC= 5.68D-11 BMatP= 7.72D-10
 IDIUse=1 WtCom= 1.00D+00 WtEn= 0.00D+00
 Coeff-Com:  0.416D-05-0.477D-05-0.375D-04-0.161D-03-0.184D-03 0.988D-03
 Coeff-Com:  0.356D-02 0.708D-02-0.189D-01-0.656D-01-0.352D-02 0.246D+00
 Coeff-Com:  0.831D+00
 Coeff:      0.416D-05-0.477D-05-0.375D-04-0.161D-03-0.184D-03 0.988D-03
 Coeff:      0.356D-02 0.708D-02-0.189D-01-0.656D-01-0.352D-02 0.246D+00
 Coeff:      0.831D+00
 Gap=     0.253 Goal=   None    Shift=    0.000
 RMSDP=7.53D-08 MaxDP=2.10D-06 DE=-2.37D-09 OVMax= 1.09D-05

 Cycle  14  Pass 1  IDiag  1:
 RMSU=  3.72D-08    CP:  9.89D-01  1.36D+00  9.41D-01  8.61D-01  1.30D+00
                    CP:  1.60D+00  1.53D+00  1.56D+00  1.85D+00  1.58D+00
                    CP:  1.47D+00  1.24D+00  1.04D+00
 E= -1028.81032107045     Delta-E=       -0.000000000153 Rises=F Damp=F
 DIIS: error= 1.91D-07 at cycle  14 NSaved=  14.
 NSaved=14 IEnMin=14 EnMin= -1028.81032107045     IErMin=14 ErrMin= 1.91D-07
 ErrMax= 1.91D-07  0.00D+00 EMaxC= 1.00D-01 BMatC= 1.42D-11 BMatP= 5.68D-11
 IDIUse=1 WtCom= 1.00D+00 WtEn= 0.00D+00
 Coeff-Com: -0.132D-04 0.275D-04 0.484D-04 0.257D-04-0.199D-03-0.472D-03
 Coeff-Com:  0.689D-03 0.538D-02 0.211D-02-0.184D-01-0.435D-01 0.105D-01
 Coeff-Com:  0.388D+00 0.656D+00
 Coeff:     -0.132D-04 0.275D-04 0.484D-04 0.257D-04-0.199D-03-0.472D-03
 Coeff:      0.689D-03 0.538D-02 0.211D-02-0.184D-01-0.435D-01 0.105D-01
 Coeff:      0.388D+00 0.656D+00
 Gap=     0.253 Goal=   None    Shift=    0.000
 RMSDP=2.29D-08 MaxDP=6.10D-07 DE=-1.53D-10 OVMax= 2.07D-06

 Cycle  15  Pass 1  IDiag  1:
 RMSU=  1.35D-08    CP:  9.89D-01  1.36D+00  9.41D-01  8.61D-01  1.30D+00
                    CP:  1.60D+00  1.53D+00  1.56D+00  1.85D+00  1.58D+00
                    CP:  1.48D+00  1.27D+00  1.18D+00  9.13D-01
 E= -1028.81032107047     Delta-E=       -0.000000000019 Rises=F Damp=F
 DIIS: error= 7.51D-08 at cycle  15 NSaved=  15.
 NSaved=15 IEnMin=15 EnMin= -1028.81032107047     IErMin=15 ErrMin= 7.51D-08
 ErrMax= 7.51D-08  0.00D+00 EMaxC= 1.00D-01 BMatC= 9.26D-13 BMatP= 1.42D-11
 IDIUse=1 WtCom= 1.00D+00 WtEn= 0.00D+00
 Coeff-Com: -0.391D-05 0.739D-05 0.193D-04 0.332D-04-0.239D-04-0.330D-03
 Coeff-Com: -0.526D-03 0.927D-05 0.406D-02 0.741D-02-0.869D-02-0.420D-01
 Coeff-Com: -0.383D-01 0.148D+00 0.930D+00
 Coeff:     -0.391D-05 0.739D-05 0.193D-04 0.332D-04-0.239D-04-0.330D-03
 Coeff:     -0.526D-03 0.927D-05 0.406D-02 0.741D-02-0.869D-02-0.420D-01
 Coeff:     -0.383D-01 0.148D+00 0.930D+00
 Gap=     0.253 Goal=   None    Shift=    0.000
 RMSDP=9.16D-09 MaxDP=2.08D-07 DE=-1.91D-11 OVMax= 9.88D-07

 Error on total polarization charges =  0.00850
 SCF Done:  E(RwB97XD) =  -1028.81032107     A.U. after   15 cycles
            NFock= 15  Conv=0.92D-08     -V/T= 2.0050
 KE= 1.023717793469D+03 PE=-4.609993182471D+03 EE= 1.458498505484D+03
 Leave Link  502 at Tue Oct 27 22:33:39 2020, MaxMem=  7784628224 cpu:             831.2 elap:              84.2
 (Enter /gpfs/loomis/apps/avx/software/Gaussian/16-C.01_AVX/g16/l601.exe)
 Copying SCF densities to generalized density rwf, IOpCl= 0 IROHF=0.

 **********************************************************************

            Population analysis using the SCF Density.

 **********************************************************************

 Alpha  occ. eigenvalues --  -89.09911 -19.23865 -14.49786 -10.40932 -10.36894
 Alpha  occ. eigenvalues --  -10.36567 -10.35645 -10.32854 -10.32294 -10.32020
 Alpha  occ. eigenvalues --  -10.31946 -10.31885 -10.31492 -10.31387 -10.29735
 Alpha  occ. eigenvalues --  -10.29270  -8.11902  -6.06760  -6.06408  -6.05941
 Alpha  occ. eigenvalues --   -1.13340  -1.09739  -0.97504  -0.95413  -0.92769
 Alpha  occ. eigenvalues --   -0.88985  -0.85900  -0.83799  -0.82046  -0.75912
 Alpha  occ. eigenvalues --   -0.71557  -0.71242  -0.68517  -0.67984  -0.63940
 Alpha  occ. eigenvalues --   -0.60874  -0.59370  -0.57547  -0.55368  -0.54912
 Alpha  occ. eigenvalues --   -0.54414  -0.53511  -0.52800  -0.50923  -0.49927
 Alpha  occ. eigenvalues --   -0.49369  -0.47466  -0.46489  -0.45418  -0.45077
 Alpha  occ. eigenvalues --   -0.44126  -0.43153  -0.42018  -0.40712  -0.36622
 Alpha  occ. eigenvalues --   -0.34444  -0.32927  -0.31254  -0.27164
 Alpha virt. eigenvalues --   -0.01817   0.04337   0.06396   0.06825   0.08311
 Alpha virt. eigenvalues --    0.10607   0.13898   0.14897   0.16318   0.17733
 Alpha virt. eigenvalues --    0.18813   0.20687   0.21455   0.21906   0.22742
 Alpha virt. eigenvalues --    0.23689   0.23883   0.24908   0.28260   0.29560
 Alpha virt. eigenvalues --    0.31975   0.33331   0.35335   0.35807   0.36820
 Alpha virt. eigenvalues --    0.38415   0.38919   0.40499   0.42273   0.43199
 Alpha virt. eigenvalues --    0.46896   0.47874   0.50310   0.51299   0.51580
 Alpha virt. eigenvalues --    0.52518   0.53113   0.53541   0.54544   0.55080
 Alpha virt. eigenvalues --    0.56130   0.56277   0.56583   0.57044   0.58174
 Alpha virt. eigenvalues --    0.58299   0.58443   0.58985   0.59506   0.60133
 Alpha virt. eigenvalues --    0.60568   0.60949   0.62110   0.62495   0.63011
 Alpha virt. eigenvalues --    0.65231   0.65424   0.66852   0.67689   0.68869
 Alpha virt. eigenvalues --    0.70453   0.70688   0.72109   0.72613   0.72616
 Alpha virt. eigenvalues --    0.73012   0.74759   0.75187   0.76109   0.77650
 Alpha virt. eigenvalues --    0.79100   0.79192   0.80113   0.81648   0.82173
 Alpha virt. eigenvalues --    0.83304   0.88583   0.89065   0.90828   0.93068
 Alpha virt. eigenvalues --    0.94485   0.94868   0.96039   0.96430   0.97076
 Alpha virt. eigenvalues --    0.98628   0.98781   1.00120   1.00381   1.01521
 Alpha virt. eigenvalues --    1.02612   1.05266   1.06232   1.06786   1.07464
 Alpha virt. eigenvalues --    1.08164   1.08890   1.10223   1.11071   1.11592
 Alpha virt. eigenvalues --    1.12416   1.12718   1.13086   1.15038   1.15205
 Alpha virt. eigenvalues --    1.16148   1.19431   1.20072   1.23177   1.23180
 Alpha virt. eigenvalues --    1.26193   1.28136   1.33375   1.34122   1.34547
 Alpha virt. eigenvalues --    1.34681   1.36994   1.38329   1.40944   1.46865
 Alpha virt. eigenvalues --    1.49166   1.49804   1.51322   1.53827   1.55069
 Alpha virt. eigenvalues --    1.56752   1.56856   1.57316   1.58880   1.59459
 Alpha virt. eigenvalues --    1.59853   1.60291   1.65106   1.66784   1.67286
 Alpha virt. eigenvalues --    1.68542   1.69722   1.70143   1.70165   1.71235
 Alpha virt. eigenvalues --    1.71871   1.72455   1.73440   1.73576   1.75376
 Alpha virt. eigenvalues --    1.77358   1.79902   1.80590   1.80987   1.83156
 Alpha virt. eigenvalues --    1.83249   1.84039   1.84834   1.85032   1.85243
 Alpha virt. eigenvalues --    1.87017   1.88756   1.89409   1.90334   1.92258
 Alpha virt. eigenvalues --    1.92411   1.93351   1.93593   1.95375   1.96192
 Alpha virt. eigenvalues --    1.97577   2.00298   2.01036   2.02639   2.04090
 Alpha virt. eigenvalues --    2.05001   2.07758   2.09536   2.10754   2.13921
 Alpha virt. eigenvalues --    2.15432   2.15763   2.17166   2.21013   2.24090
 Alpha virt. eigenvalues --    2.26962   2.29885   2.31112   2.38519   2.40666
 Alpha virt. eigenvalues --    2.41042   2.42709   2.43445   2.46028   2.47080
 Alpha virt. eigenvalues --    2.48484   2.50771   2.52619   2.53189   2.62026
 Alpha virt. eigenvalues --    2.62493   2.71320   2.74017   2.74895   2.80053
 Alpha virt. eigenvalues --    2.81841   2.83971   2.85743   2.89924   2.89973
 Alpha virt. eigenvalues --    2.92731   3.02780   3.11534   3.20977   3.39910
 Alpha virt. eigenvalues --    3.47404   3.57118   3.61658   3.83606
          Condensed to atoms (all electrons):
               1          2          3          4          5          6
     1  C    4.724555   0.484967   0.004680  -0.051017  -0.013403   0.520996
     2  C    0.484967   5.316045   0.328732  -0.046776  -0.066645  -0.009521
     3  C    0.004680   0.328732   4.806063   0.508347  -0.004047  -0.064054
     4  C   -0.051017  -0.046776   0.508347   4.770617   0.522840  -0.013956
     5  C   -0.013403  -0.066645  -0.004047   0.522840   4.724385   0.496084
     6  C    0.520996  -0.009521  -0.064054  -0.013956   0.496084   4.736953
     7  H    0.403184  -0.039297   0.008732  -0.000549   0.008143  -0.038974
     8  H   -0.000670   0.011155  -0.028807   0.393830  -0.042175   0.007587
     9  H    0.008785  -0.000498   0.008459  -0.038494   0.405044  -0.044695
    10  H   -0.042236   0.009562  -0.000517   0.008604  -0.043138   0.406817
    11  N    0.005205  -0.049343   0.402429  -0.042778   0.002906   0.000202
    12  S   -0.065880   0.335735  -0.114549   0.005575   0.000256   0.003755
    13  C   -0.000191   0.002366   0.009985  -0.000633   0.000009   0.000001
    14  C   -0.000006   0.000104   0.000210   0.000006  -0.000000  -0.000000
    15  C    0.000002  -0.000357   0.000765   0.000067  -0.000000   0.000000
    16  C    0.000000  -0.000003   0.000004  -0.000000   0.000000   0.000000
    17  H   -0.000005   0.000099   0.000001   0.000000   0.000000   0.000000
    18  C    0.000000   0.000007  -0.000021  -0.000000  -0.000000  -0.000000
    19  C   -0.000000   0.000000   0.000001   0.000000   0.000000   0.000000
    20  H   -0.000000  -0.000000  -0.000000   0.000000   0.000000  -0.000000
    21  H   -0.000000   0.000000   0.000000  -0.000000  -0.000000   0.000000
    22  H    0.000000  -0.000000  -0.000000  -0.000000   0.000000  -0.000000
    23  C    0.003664  -0.048956  -0.114186   0.001331   0.000255  -0.000185
    24  O    0.000002  -0.000121  -0.001239  -0.000054  -0.000000  -0.000000
    25  H    0.000024   0.005498  -0.019896  -0.002410  -0.000054   0.000005
               7          8          9         10         11         12
     1  C    0.403184  -0.000670   0.008785  -0.042236   0.005205  -0.065880
     2  C   -0.039297   0.011155  -0.000498   0.009562  -0.049343   0.335735
     3  C    0.008732  -0.028807   0.008459  -0.000517   0.402429  -0.114549
     4  C   -0.000549   0.393830  -0.038494   0.008604  -0.042778   0.005575
     5  C    0.008143  -0.042175   0.405044  -0.043138   0.002906   0.000256
     6  C   -0.038974   0.007587  -0.044695   0.406817   0.000202   0.003755
     7  H    0.655243   0.000031  -0.000147  -0.011742  -0.000100  -0.007118
     8  H    0.000031   0.647968  -0.012178  -0.000120  -0.002967  -0.000213
     9  H   -0.000147  -0.012178   0.662277  -0.012291  -0.000111   0.000022
    10  H   -0.011742  -0.000120  -0.012291   0.661195   0.000002  -0.000147
    11  N   -0.000100  -0.002967  -0.000111   0.000002   6.362871  -0.059783
    12  S   -0.007118  -0.000213   0.000022  -0.000147  -0.059783  15.447079
    13  C    0.000004   0.000043  -0.000000  -0.000000  -0.024364  -0.062758
    14  C    0.000001   0.000001   0.000000  -0.000000   0.003201  -0.007856
    15  C   -0.000000  -0.000008   0.000000   0.000000  -0.008512   0.004116
    16  C   -0.000000  -0.000000  -0.000000   0.000000  -0.000090   0.000029
    17  H    0.000001   0.000000  -0.000000  -0.000000   0.000237   0.007167
    18  C   -0.000000  -0.000000   0.000000  -0.000000  -0.000597  -0.000138
    19  C    0.000000   0.000000  -0.000000  -0.000000   0.000050   0.000023
    20  H    0.000000  -0.000000   0.000000   0.000000   0.000001   0.000002
    21  H   -0.000000   0.000000  -0.000000   0.000000   0.000022   0.000004
    22  H    0.000000  -0.000000  -0.000000  -0.000000  -0.000000  -0.000001
    23  C    0.000134  -0.000752   0.000006   0.000004   0.530042   0.324578
    24  O   -0.000000  -0.000225   0.000000  -0.000000  -0.081945  -0.000324
    25  H    0.000003   0.001080  -0.000007  -0.000000   0.232264   0.003093
              13         14         15         16         17         18
     1  C   -0.000191  -0.000006   0.000002   0.000000  -0.000005   0.000000
     2  C    0.002366   0.000104  -0.000357  -0.000003   0.000099   0.000007
     3  C    0.009985   0.000210   0.000765   0.000004   0.000001  -0.000021
     4  C   -0.000633   0.000006   0.000067  -0.000000   0.000000  -0.000000
     5  C    0.000009  -0.000000  -0.000000   0.000000   0.000000  -0.000000
     6  C    0.000001  -0.000000   0.000000   0.000000   0.000000  -0.000000
     7  H    0.000004   0.000001  -0.000000  -0.000000   0.000001  -0.000000
     8  H    0.000043   0.000001  -0.000008  -0.000000   0.000000  -0.000000
     9  H   -0.000000   0.000000   0.000000  -0.000000  -0.000000   0.000000
    10  H   -0.000000  -0.000000   0.000000   0.000000  -0.000000  -0.000000
    11  N   -0.024364   0.003201  -0.008512  -0.000090   0.000237  -0.000597
    12  S   -0.062758  -0.007856   0.004116   0.000029   0.007167  -0.000138
    13  C    5.368916   0.456893   0.235152  -0.007140  -0.039839  -0.040788
    14  C    0.456893   4.823863   0.004458   0.534834   0.399345  -0.057147
    15  C    0.235152   0.004458   4.751404  -0.058523   0.006949   0.494102
    16  C   -0.007140   0.534834  -0.058523   4.756203  -0.033277  -0.019662
    17  H   -0.039839   0.399345   0.006949  -0.033277   0.675472  -0.000748
    18  C   -0.040788  -0.057147   0.494102  -0.019662  -0.000748   4.831721
    19  C   -0.051966  -0.018514  -0.009625   0.486352   0.008308   0.512941
    20  H    0.009012  -0.036019  -0.000182   0.400775  -0.012454   0.008298
    21  H    0.014226  -0.000591  -0.022977   0.007478   0.000049   0.375007
    22  H   -0.001361   0.009490   0.008986  -0.045410  -0.000178  -0.040696
    23  C    0.350699  -0.092431  -0.078598   0.006764  -0.020540   0.007886
    24  O   -0.086625   0.005331   0.572541  -0.000052  -0.000067  -0.060925
    25  H   -0.024421  -0.000605  -0.025440   0.000013  -0.000035   0.003747
              19         20         21         22         23         24
     1  C   -0.000000  -0.000000  -0.000000   0.000000   0.003664   0.000002
     2  C    0.000000  -0.000000   0.000000  -0.000000  -0.048956  -0.000121
     3  C    0.000001  -0.000000   0.000000  -0.000000  -0.114186  -0.001239
     4  C    0.000000   0.000000  -0.000000  -0.000000   0.001331  -0.000054
     5  C    0.000000   0.000000  -0.000000   0.000000   0.000255  -0.000000
     6  C    0.000000  -0.000000   0.000000  -0.000000  -0.000185  -0.000000
     7  H    0.000000   0.000000  -0.000000   0.000000   0.000134  -0.000000
     8  H    0.000000  -0.000000   0.000000  -0.000000  -0.000752  -0.000225
     9  H   -0.000000   0.000000  -0.000000  -0.000000   0.000006   0.000000
    10  H   -0.000000   0.000000   0.000000  -0.000000   0.000004  -0.000000
    11  N    0.000050   0.000001   0.000022  -0.000000   0.530042  -0.081945
    12  S    0.000023   0.000002   0.000004  -0.000001   0.324578  -0.000324
    13  C   -0.051966   0.009012   0.014226  -0.001361   0.350699  -0.086625
    14  C   -0.018514  -0.036019  -0.000591   0.009490  -0.092431   0.005331
    15  C   -0.009625  -0.000182  -0.022977   0.008986  -0.078598   0.572541
    16  C    0.486352   0.400775   0.007478  -0.045410   0.006764  -0.000052
    17  H    0.008308  -0.012454   0.000049  -0.000178  -0.020540  -0.000067
    18  C    0.512941   0.008298   0.375007  -0.040696   0.007886  -0.060925
    19  C    4.727869  -0.047144  -0.046386   0.404686   0.000568   0.003666
    20  H   -0.047144   0.684924  -0.000161  -0.012343  -0.000379   0.000002
    21  H   -0.046386  -0.000161   0.672556  -0.012477  -0.000434   0.004375
    22  H    0.404686  -0.012343  -0.012477   0.670876   0.000004  -0.000074
    23  C    0.000568  -0.000379  -0.000434   0.000004   5.071411  -0.007990
    24  O    0.003666   0.000002   0.004375  -0.000074  -0.007990   7.819021
    25  H   -0.000319  -0.000001   0.000009   0.000009   0.000467   0.203197
              25
     1  C    0.000024
     2  C    0.005498
     3  C   -0.019896
     4  C   -0.002410
     5  C   -0.000054
     6  C    0.000005
     7  H    0.000003
     8  H    0.001080
     9  H   -0.000007
    10  H   -0.000000
    11  N    0.232264
    12  S    0.003093
    13  C   -0.024421
    14  C   -0.000605
    15  C   -0.025440
    16  C    0.000013
    17  H   -0.000035
    18  C    0.003747
    19  C   -0.000319
    20  H   -0.000001
    21  H    0.000009
    22  H    0.000009
    23  C    0.000467
    24  O    0.203197
    25  H    0.409661
 Mulliken charges:
               1
     1  C    0.017344
     2  C   -0.232752
     3  C    0.268906
     4  C   -0.014550
     5  C    0.009538
     6  C   -0.001015
     7  H    0.022451
     8  H    0.026420
     9  H    0.023826
    10  H    0.024005
    11  N   -0.268844
    12  S    0.187333
    13  C   -0.107222
    14  C   -0.024568
    15  C    0.125682
    16  C   -0.028295
    17  H    0.009515
    18  C   -0.012985
    19  C    0.029488
    20  H    0.005668
    21  H    0.009299
    22  H    0.018489
    23  C    0.066640
    24  O   -0.368493
    25  H    0.214119
 Sum of Mulliken charges =  -0.00000
 Mulliken charges with hydrogens summed into heavy atoms:
               1
     1  C    0.039795
     2  C   -0.232752
     3  C    0.268906
     4  C    0.011870
     5  C    0.033365
     6  C    0.022990
    11  N   -0.054725
    12  S    0.187333
    13  C   -0.107222
    14  C   -0.015052
    15  C    0.125682
    16  C   -0.022627
    18  C   -0.003686
    19  C    0.047978
    23  C    0.066640
    24  O   -0.368493
 Electronic spatial extent (au):  <R**2>=           4338.8953
 Charge=             -0.0000 electrons
 Dipole moment (field-independent basis, Debye):
    X=              0.6666    Y=             -4.0938    Z=             -0.0000  Tot=              4.1477
 Quadrupole moment (field-independent basis, Debye-Ang):
   XX=            -83.0507   YY=            -92.3206   ZZ=           -104.2426
   XY=             -6.9065   XZ=             -0.0001   YZ=              0.0000
 Traceless Quadrupole moment (field-independent basis, Debye-Ang):
   XX=             10.1539   YY=              0.8840   ZZ=            -11.0379
   XY=             -6.9065   XZ=             -0.0001   YZ=              0.0000
 Octapole moment (field-independent basis, Debye-Ang**2):
  XXX=             23.7661  YYY=            -40.6707  ZZZ=             -0.0000  XYY=             -2.4914
  XXY=             -3.9294  XXZ=              0.0000  XZZ=              1.6984  YZZ=              2.2858
  YYZ=              0.0002  XYZ=             -0.0006
 Hexadecapole moment (field-independent basis, Debye-Ang**3):
 XXXX=          -2605.5234 YYYY=          -2635.3563 ZZZZ=           -113.2054 XXXY=            810.0723
 XXXZ=              0.0097 YYYX=            768.3922 YYYZ=             -0.0132 ZZZX=              0.0135
 ZZZY=             -0.0180 XXYY=           -846.4984 XXZZ=           -571.9654 YYZZ=           -547.9511
 XXYZ=             -0.0034 YYXZ=              0.0010 ZZXY=            357.7873
 N-N= 1.098966562448D+03 E-N=-4.609993182420D+03  KE= 1.023717793469D+03
 No NMR shielding tensors so no spin-rotation constants.
 Leave Link  601 at Tue Oct 27 22:33:40 2020, MaxMem=  7784628224 cpu:               3.5 elap:               0.6
 (Enter /gpfs/loomis/apps/avx/software/Gaussian/16-C.01_AVX/g16/l701.exe)
 ... and contract with generalized density number  0.
 Compute integral first derivatives.
 R6Disp: Adding Grimme-D2 dispersion energy 1st derivatives to the gradient.
 D1PCM: PCM CHGder 1st derivatives, ID1Alg=3 FixD1E=F DoIter=F DoCFld=F I1PDM=0.
 GePol: Maximum number of non-zero 1st derivatives   =     260
 Leave Link  701 at Tue Oct 27 22:33:43 2020, MaxMem=  7784628224 cpu:              21.0 elap:               2.8
 (Enter /gpfs/loomis/apps/avx/software/Gaussian/16-C.01_AVX/g16/l702.exe)
 L702 exits ... SP integral derivatives will be done elsewhere.
 Leave Link  702 at Tue Oct 27 22:33:43 2020, MaxMem=  7784628224 cpu:               0.2 elap:               0.1
 (Enter /gpfs/loomis/apps/avx/software/Gaussian/16-C.01_AVX/g16/l703.exe)
 Integral derivatives from FoFJK, PRISM(SPDF).
 Compute integral first derivatives, UseDBF=F ICtDFT=           0.
 Calling FoFJK, ICntrl=      2127 FMM=F ISym2X=0 I1Cent= 0 IOpClX= 0 NMat=1 NMatS=1 NMatT=0.
 FoFJK:  IHMeth= 1 ICntrl=    2127 DoSepK=T KAlg= 0 I1Cent=           0 FoldK=F
 IRaf=         1 NMat=       1 IRICut=       1 DoRegI=T DoRafI=F ISym2E= 0 IDoP0=0 IntGTp=1.
 FoFCou: FMM=F IPFlag=           0 FMFlag=      100000 FMFlg1=         800
         NFxFlg=           0 DoJE=F BraDBF=F KetDBF=F FulRan=T
         wScrn=  0.000000 ICntrl=      2527 IOpCl=  0 I1Cent=           0 NGrid=           0
         NMat0=    1 NMatS0=      1 NMatT0=    0 NMatD0=    1 NMtDS0=    0 NMtDT0=    0
 Symmetry not used in FoFCou.
 Leave Link  703 at Tue Oct 27 22:33:57 2020, MaxMem=  7784628224 cpu:             137.7 elap:              14.0
 (Enter /gpfs/loomis/apps/avx/software/Gaussian/16-C.01_AVX/g16/l716.exe)
 Dipole        = 2.62272419D-01-1.61062251D+00-1.79372160D-05
 -------------------------------------------------------------------
 Center     Atomic                   Forces (Hartrees/Bohr)
 Number     Number              X              Y              Z
 -------------------------------------------------------------------
      1        6           0.003302486   -0.001446657   -0.000000022
      2        6           0.006045698    0.009041417   -0.000000137
      3        6           0.013033352   -0.025198912   -0.000000247
      4        6          -0.007852638    0.002286386    0.000000033
      5        6           0.000573973   -0.002588744    0.000000035
      6        6          -0.002119702    0.003076984   -0.000000048
      7        1           0.000225473    0.000037039   -0.000000037
      8        1          -0.000045902   -0.000038833    0.000000006
      9        1          -0.000280494    0.000096052   -0.000000001
     10        1          -0.000119629    0.000157967    0.000000007
     11        7          -0.046513210    0.000832239    0.000000876
     12       16           0.005302844    0.009499503    0.000000006
     13        6           0.001266513    0.032662391    0.000000182
     14        6          -0.016112784    0.015947443    0.000000149
     15        6           0.000681216   -0.024774396   -0.000000332
     16        6           0.001812185   -0.018411871   -0.000000302
     17        1          -0.001268481   -0.000648063   -0.000000021
     18        6          -0.013394597   -0.001469922    0.000000380
     19        6           0.019143464   -0.004448273   -0.000000160
     20        1           0.000297263   -0.000209301    0.000000004
     21        1          -0.000217654   -0.000019631   -0.000000110
     22        1          -0.000366994    0.000751362   -0.000000028
     23        6           0.025642765   -0.002762778    0.000000213
     24        8           0.012170966   -0.005018102   -0.000000624
     25        1          -0.001206114    0.012646700    0.000000177
 -------------------------------------------------------------------
 Cartesian Forces:  Max     0.046513210 RMS     0.009944029
 Leave Link  716 at Tue Oct 27 22:33:57 2020, MaxMem=  7784628224 cpu:               0.2 elap:               0.1
 (Enter /gpfs/loomis/apps/avx/software/Gaussian/16-C.01_AVX/g16/l103.exe)

 GradGradGradGradGradGradGradGradGradGradGradGradGradGradGradGradGradGrad
 Berny optimization.
 FormGI is forming the generalized inverse of G from B-inverse, IUseBI=4.
 Internal  Forces:  Max     0.026738576 RMS     0.004787104
 Search for a local minimum.
 Step number   1 out of a maximum of  150
 All quantities printed in internal units (Hartrees-Bohrs-Radians)
 RMS Force = .48207D-02 SwitMx=.10000D-02 MixMth= 1
 Mixed Optimization -- RFO/linear search
 Second derivative matrix not updated -- first step.
 ITU=  0
     Eigenvalues ---    0.00391   0.01465   0.01606   0.01688   0.01738
     Eigenvalues ---    0.01810   0.01815   0.01978   0.01998   0.02023
     Eigenvalues ---    0.02036   0.02042   0.02059   0.02067   0.02075
     Eigenvalues ---    0.02094   0.02102   0.02112   0.02123   0.02148
     Eigenvalues ---    0.02175   0.02182   0.16000   0.16000   0.16000
     Eigenvalues ---    0.16000   0.16000   0.16000   0.16001   0.16017
     Eigenvalues ---    0.19580   0.20867   0.21934   0.22004   0.22285
     Eigenvalues ---    0.22588   0.22755   0.23935   0.24530   0.24769
     Eigenvalues ---    0.24996   0.27852   0.29279   0.32247   0.34610
     Eigenvalues ---    0.34645   0.34669   0.34728   0.34731   0.34734
     Eigenvalues ---    0.34753   0.34785   0.36242   0.38438   0.40571
     Eigenvalues ---    0.41527   0.42677   0.43217   0.43887   0.44630
     Eigenvalues ---    0.45195   0.46206   0.46368   0.47375   0.47812
     Eigenvalues ---    0.50311   0.676561000.000001000.000001000.00000
     Eigenvalues --- 1000.000001000.000001000.000001000.000001000.00000
     Eigenvalues --- 1000.000001000.000001000.000001000.000001000.00000
     Eigenvalues --- 1000.000001000.000001000.000001000.000001000.00000
     Eigenvalues --- 1000.000001000.000001000.000001000.000001000.00000
     Eigenvalues --- 1000.000001000.000001000.000001000.000001000.00000
     Eigenvalues --- 1000.000001000.000001000.000001000.000001000.00000
     Eigenvalues --- 1000.000001000.000001000.000001000.000001000.00000
     Eigenvalues --- 1000.000001000.000001000.000001000.000001000.00000
     Eigenvalues --- 1000.000001000.000001000.000001000.000001000.00000
     Eigenvalues --- 1000.000001000.000001000.000001000.000001000.00000
     Eigenvalues --- 1000.000001000.000001000.000001000.000001000.00000
     Eigenvalues --- 1000.000001000.000001000.000001000.000001000.00000
     Eigenvalues --- 1000.000001000.000001000.000001000.000001000.00000
     Eigenvalues --- 1000.000001000.000001000.000001000.000001000.00000
     Eigenvalues --- 1000.000001000.000001000.000001000.00000
 RFO step:  Lambda=-8.84550009D-03 EMin= 3.90902698D-03
 Linear search not attempted -- first point.
 Iteration  1 RMS(Cart)=  0.01827002 RMS(Int)=  0.00017113
 Iteration  2 RMS(Cart)=  0.00020586 RMS(Int)=  0.00006436
 Iteration  3 RMS(Cart)=  0.00000004 RMS(Int)=  0.00006437
 Iteration  1 RMS(Cart)=  0.00000007 RMS(Int)=  0.00000004
 ITry= 1 IFail=0 DXMaxC= 7.02D-02 DCOld= 1.00D+10 DXMaxT= 3.00D-01 DXLimC= 3.00D+00 Rises=F
 Variable       Old X    -DE/DX   Delta X   Delta X   Delta X     New X
                                 (Linear)    (Quad)   (Total)
    R1        2.63083   0.00128   0.00000   0.00212   0.00215   2.63298
    R2        2.63370  -0.00258   0.00000  -0.00576  -0.00576   2.62794
    R3        2.06118  -0.00013   0.00000  -0.00033  -0.00032   2.06085
    R4        2.69016  -0.01441   0.00000  -0.03062  -0.03046   2.65970
    R5        3.31636  -0.00064   0.00000  -0.00207  -0.00208   3.31428
    R6        2.66085  -0.00728   0.00000  -0.01604  -0.01604   2.64481
    R7        2.57064   0.01637   0.00000   0.03251   0.03253   2.60317
    R8        2.62214   0.00007   0.00000   0.00115   0.00112   2.62326
    R9        2.06077  -0.00006   0.00000  -0.00019  -0.00019   2.06058
   R10        2.65501  -0.00225   0.00000  -0.00413  -0.00412   2.65089
   R11        2.06254  -0.00028   0.00000  -0.00080  -0.00080   2.06175
   R12        2.06114  -0.00019   0.00000  -0.00053  -0.00053   2.06062
   R13        2.56984  -0.02674   0.00000  -0.05498  -0.05508   2.51475
   R14        2.27300   0.00428   0.00000   0.02172   0.02205   2.29504
   R15        3.32791  -0.00464   0.00000  -0.02075  -0.02067   3.30724
   R16        2.64522   0.00827   0.00000   0.01747   0.01762   2.66284
   R17        2.79755  -0.02010   0.00000  -0.05613  -0.05608   2.74147
   R18        2.68018   0.00614   0.00000   0.00853   0.00842   2.68860
   R19        2.65274  -0.02279   0.00000  -0.05125  -0.05121   2.60153
   R20        2.06312   0.00106   0.00000   0.00301   0.00301   2.06613
   R21        2.67629  -0.00092   0.00000  -0.00136  -0.00153   2.67477
   R22        2.43030   0.00545   0.00000   0.01079   0.01091   2.44121
   R23        2.65700   0.00093   0.00000   0.00163   0.00165   2.65864
   R24        2.06215  -0.00027   0.00000  -0.00074  -0.00074   2.06141
   R25        2.63432  -0.01057   0.00000  -0.02162  -0.02177   2.61255
   R26        2.06109  -0.00009   0.00000  -0.00026  -0.00026   2.06083
   R27        2.06024   0.00079   0.00000   0.00220   0.00220   2.06244
   R28        2.43163  -0.01312   0.00000  -0.05644  -0.05638   2.37525
    A1        2.06530  -0.00174   0.00000  -0.00590  -0.00591   2.05938
    A2        2.10723   0.00109   0.00000   0.00415   0.00416   2.11139
    A3        2.11066   0.00064   0.00000   0.00175   0.00175   2.11241
    A4        2.12477   0.00082   0.00000   0.00291   0.00291   2.12767
    A5        2.22871   0.00487   0.00000   0.01304   0.01302   2.24172
    A6        1.92971  -0.00568   0.00000  -0.01595  -0.01592   1.91379
    A7        2.07740   0.00327   0.00000   0.00772   0.00770   2.08509
    A8        1.98579  -0.00084   0.00000  -0.00243  -0.00230   1.98350
    A9        2.22000  -0.00244   0.00000  -0.00529  -0.00540   2.21460
   A10        2.07339  -0.00036   0.00000  -0.00174  -0.00171   2.07168
   A11        2.09051   0.00012   0.00000   0.00070   0.00068   2.09119
   A12        2.11928   0.00024   0.00000   0.00104   0.00103   2.12032
   A13        2.12255  -0.00180   0.00000  -0.00467  -0.00466   2.11789
   A14        2.07912   0.00079   0.00000   0.00191   0.00190   2.08102
   A15        2.08152   0.00101   0.00000   0.00276   0.00276   2.08428
   A16        2.10297  -0.00019   0.00000   0.00168   0.00168   2.10465
   A17        2.08801   0.00008   0.00000  -0.00113  -0.00113   2.08688
   A18        2.09220   0.00011   0.00000  -0.00055  -0.00055   2.09166
   A19        1.97309   0.00398   0.00000   0.01144   0.01131   1.98440
   A20        2.50483  -0.00897   0.00000  -0.02817  -0.02801   2.47682
   A21        1.80526   0.00499   0.00000   0.01673   0.01670   1.82196
   A22        1.55563   0.00486   0.00000   0.01543   0.01535   1.57098
   A23        2.06576   0.00735   0.00000   0.03442   0.03457   2.10033
   A24        2.17303  -0.00381   0.00000  -0.01788  -0.01791   2.15512
   A25        2.04440  -0.00355   0.00000  -0.01654  -0.01667   2.02774
   A26        2.10447   0.00081   0.00000   0.00334   0.00351   2.10798
   A27        2.09272   0.00061   0.00000   0.00418   0.00410   2.09682
   A28        2.08600  -0.00142   0.00000  -0.00752  -0.00761   2.07839
   A29        2.07705  -0.00790   0.00000  -0.03464  -0.03469   2.04235
   A30        2.08615   0.00658   0.00000   0.03080   0.03091   2.11707
   A31        2.11998   0.00132   0.00000   0.00384   0.00378   2.12376
   A32        2.11927  -0.00783   0.00000  -0.03657  -0.03649   2.08278
   A33        2.07597   0.00366   0.00000   0.01654   0.01650   2.09247
   A34        2.08795   0.00417   0.00000   0.02003   0.01999   2.10794
   A35        2.10785   0.00056   0.00000   0.00297   0.00274   2.11059
   A36        2.04554  -0.00011   0.00000  -0.00033  -0.00022   2.04532
   A37        2.12979  -0.00045   0.00000  -0.00263  -0.00251   2.12728
   A38        2.09198   0.00701   0.00000   0.03048   0.03036   2.12234
   A39        2.09337  -0.00323   0.00000  -0.01377  -0.01370   2.07966
   A40        2.09784  -0.00378   0.00000  -0.01671  -0.01666   2.08118
   A41        1.98055  -0.00232   0.00000  -0.00850  -0.00843   1.97212
   A42        2.11176   0.00044   0.00000  -0.00215  -0.00226   2.10950
   A43        2.19087   0.00188   0.00000   0.01065   0.01070   2.20157
   A44        1.84945  -0.00771   0.00000  -0.02352  -0.02344   1.82601
   A45        2.66934  -0.00076   0.00000  -0.00532  -0.00524   2.66410
    D1        0.00000   0.00000   0.00000   0.00000   0.00000   0.00000
    D2       -3.14159  -0.00000   0.00000  -0.00000  -0.00000   3.14159
    D3        3.14159   0.00000   0.00000   0.00000   0.00000   3.14159
    D4       -0.00000  -0.00000   0.00000  -0.00000  -0.00000  -0.00000
    D5       -0.00000  -0.00000   0.00000  -0.00000  -0.00000  -0.00000
    D6        3.14159  -0.00000   0.00000  -0.00000  -0.00000   3.14159
    D7       -3.14159  -0.00000   0.00000  -0.00000  -0.00000   3.14159
    D8        0.00000  -0.00000   0.00000  -0.00000  -0.00000  -0.00000
    D9        0.00000   0.00000   0.00000   0.00000   0.00000   0.00000
   D10        3.14159  -0.00000   0.00000  -0.00000  -0.00000   3.14159
   D11       -3.14159   0.00000   0.00000   0.00000   0.00000  -3.14159
   D12       -0.00000  -0.00000   0.00000  -0.00000  -0.00000  -0.00000
   D13        3.14159   0.00000   0.00000   0.00000   0.00000  -3.14159
   D14       -0.00000   0.00000   0.00000   0.00000   0.00000  -0.00000
   D15       -0.00000  -0.00000   0.00000  -0.00000  -0.00000  -0.00000
   D16        3.14159  -0.00000   0.00000  -0.00000  -0.00000   3.14159
   D17       -3.14159   0.00000   0.00000   0.00000   0.00000  -3.14159
   D18        0.00000   0.00000   0.00000   0.00000   0.00000   0.00000
   D19        0.00000   0.00000   0.00000  -0.00000  -0.00000   0.00000
   D20        3.14155   0.00000   0.00000   0.00001   0.00001   3.14156
   D21       -3.14159  -0.00000   0.00000  -0.00000  -0.00000  -3.14159
   D22       -0.00005   0.00000   0.00000   0.00001   0.00001  -0.00004
   D23        0.00000   0.00000   0.00000   0.00000   0.00000   0.00000
   D24       -3.14159   0.00000   0.00000   0.00000   0.00000  -3.14159
   D25        3.14159   0.00000   0.00000   0.00000   0.00000  -3.14159
   D26        0.00000   0.00000   0.00000   0.00000   0.00000   0.00000
   D27        0.00000  -0.00000   0.00000  -0.00000  -0.00000   0.00000
   D28       -3.14159  -0.00000   0.00000  -0.00000  -0.00000  -3.14159
   D29       -3.14159   0.00000   0.00000   0.00000   0.00000  -3.14159
[...]
 0039539,0.00004643,0.,-0.00009708,0.00004333,0.,-0.00017122,-0.0000246
 1,0.,-0.00766187,-0.03874597,-0.00000024,-0.00103232,0.00595704,0.0000
 0015,-0.15473364,-0.04076722,0.00000006,0.01018976,-0.04214591,-0.0000
 0027,0.78863033,0.00063651,-0.00086172,-0.00000003,-0.00032451,-0.0002
 1692,-0.00000004,-0.00168506,-0.00187487,-0.00000002,0.00037710,0.0001
 2239,0.,-0.00009221,0.00069647,0.,-0.00090831,-0.00018788,0.,0.0000527
 6,-0.00004068,0.,-0.00001926,-0.00002899,0.,-0.00003115,0.00002896,0.,
 -0.00002349,0.00000532,0.,-0.00946841,-0.01486240,-0.00000008,0.001494
 63,0.00282370,0.00000007,-0.01474288,-0.24953732,-0.00000135,-0.078427
 08,0.01980361,0.00000039,-0.00791272,0.64218768,0.00000001,0.,0.000312
 04,0.,-0.00000003,0.00047480,0.,0.,-0.00114388,0.,0.,-0.00009441,0.,0.
 ,0.00008409,0.,0.,-0.00011126,0.,0.,0.00002954,0.,0.,-0.00004753,0.,0.
 ,0.00003172,0.,0.,-0.00004506,-0.00000007,-0.00000009,0.00138362,0.000
 00007,0.,0.00158648,-0.00000004,-0.00000094,-0.07335662,-0.00000027,0.
 00000023,0.00055738,-0.00000133,0.00000260,0.18747791,0.00029592,-0.00
 030175,0.,-0.00064811,0.00087665,0.,0.00025426,-0.00086832,-0.00000001
 ,0.00015398,0.00020841,0.,-0.00002117,0.00032564,0.,-0.00042199,-0.000
 00459,0.,0.00000196,0.00002957,0.,0.00003484,-0.00002499,0.,-0.0000410
 3,0.00003458,0.,-0.00001724,0.00001806,0.,-0.00414865,0.00068191,0.000
 00003,0.00018577,0.00099552,0.00000001,-0.04728748,0.01836890,0.000000
 39,-0.23550755,0.15929823,0.00000166,0.00241785,0.01645120,0.00000005,
 0.76985480,-0.00101098,0.00168125,0.00000003,0.00209612,-0.00112748,-0
 .00000002,0.00065328,0.00125038,0.00000001,-0.00131603,0.00021672,0.,-
 0.00010325,-0.00186713,-0.00000003,0.00200150,0.00013599,0.,-0.0001007
 4,-0.00005208,0.,0.00005532,0.00005216,0.,0.00013205,-0.00007494,0.,0.
 00009718,-0.00004394,0.,0.00957688,0.00869919,0.,-0.00272109,-0.002795
 43,-0.00000003,0.06894154,0.02536622,-0.00000017,0.08923698,-0.2685831
 0,-0.00000173,0.02910803,-0.06609237,-0.00000030,-0.00200902,0.6720673
 0,0.,0.,0.00006289,0.,-0.00000001,0.00043126,0.,0.00000003,-0.00068959
 ,0.,0.,-0.00013772,0.,0.,0.00006269,0.,0.,-0.00002091,0.,0.,0.00000018
 ,0.,0.,0.00000476,0.,0.,0.00001772,0.,0.,-0.00002815,0.00000009,0.0000
 0003,0.00021334,-0.00000002,0.00000001,-0.00083797,0.00000057,0.,0.008
 78592,0.00000125,-0.00000186,-0.06286717,0.00000009,-0.00000037,-0.005
 25299,-0.00000319,0.00000222,0.12424788,0.00027995,0.00002532,0.,-0.00
 064410,0.00033043,-0.00000003,0.00031274,-0.00015066,0.,0.00003585,0.0
 0004515,0.,0.00004451,0.00007002,0.,-0.00007905,-0.00008990,0.,-0.0000
 1787,-0.00000841,0.,0.00003875,0.00000282,0.,0.00000997,-0.00000061,0.
 ,0.00003038,-0.00000716,0.,0.00027607,0.00058714,0.,-0.00140285,0.0019
 6370,0.00000006,-0.00474208,-0.02863877,-0.00000013,-0.09034752,-0.089
 20778,-0.00000024,-0.00493822,0.00215429,0.00000006,0.01127284,0.01980
 690,0.00000008,0.09157691,0.00003796,-0.00004856,0.,-0.00018373,0.0005
 6498,0.00000002,0.00031864,-0.00013940,0.,0.00003742,0.00006575,0.,0.0
 0001027,0.00007700,0.,-0.00009881,0.00000374,0.,-0.00001063,0.00001557
 ,0.,0.00002178,-0.00000656,0.,-0.00000622,0.00000512,0.,-0.00000179,0.
 00000326,0.,-0.00082288,0.00019583,0.,0.00021226,-0.00031379,-0.000000
 12,0.00052133,-0.00191974,-0.00000002,-0.08708667,-0.30756019,-0.00000
 115,0.00026140,0.00224546,-0.00000001,-0.01236607,-0.01647421,-0.00000
 007,0.09386129,0.32624935,0.,0.,-0.00001240,0.,0.00000001,-0.00062562,
 0.,0.,0.00022211,0.,0.,0.00008691,0.,0.,-0.00002457,0.,0.,0.00002903,0
 .,0.,-0.00001204,0.,0.,-0.00001700,0.,0.,-0.00000540,0.,0.,0.00001955,
 -0.00000003,0.,-0.00019776,0.00000002,-0.00000013,0.00105928,-0.000000
 08,0.00000010,0.00300659,-0.00000010,-0.00000117,-0.03755240,0.0000000
 3,0.00000001,0.00600803,-0.00000014,-0.00000014,0.00518108,0.00000022,
 0.00000138,0.02471218,-0.00015172,0.00093601,0.00000001,0.00090125,-0.
 00003919,0.,0.00264577,0.00018284,0.,-0.00090822,0.00010291,0.,-0.0000
 3174,-0.00103023,-0.00000001,0.00094885,0.00010409,0.,-0.00008178,0.00
 003956,0.,0.00011100,0.00000459,0.,0.00004571,-0.00002474,0.,0.0000488
 1,-0.00000026,0.,0.00424261,0.01375117,0.00000007,-0.00046268,-0.00054
 201,0.,0.05579810,0.02064506,-0.00000015,-0.06010613,0.02519570,0.0000
 0032,-0.16385459,0.04814599,0.00000037,-0.00491778,-0.08562647,-0.0000
 0035,-0.00064710,0.00044002,0.00000006,0.71737186,0.00064642,-0.000574
 42,-0.00000001,-0.00138906,-0.00002890,0.,-0.00061971,-0.00003129,0.,0
 .00067372,-0.00010213,0.,0.00008084,0.00083148,0.00000001,-0.00080798,
 -0.00018022,0.,0.00001348,0.00002803,0.,-0.00001463,-0.00001065,0.,-0.
 00003361,0.00002706,0.,-0.00000153,0.00000302,0.,-0.00254001,-0.002678
 49,0.,0.00190034,0.00005018,0.,-0.00058490,-0.03231190,-0.00000013,0.0
 1885388,-0.01002950,-0.00000009,0.09573350,-0.23948683,-0.00000079,-0.
 03643267,0.01594801,0.00000019,0.00019504,0.00052353,-0.00000001,0.061
 96685,0.71045470,0.,0.,-0.00010441,0.,0.,-0.00016406,0.,0.,-0.00112574
 ,0.,0.,0.00005015,0.,0.,0.00003173,0.,0.,0.00003730,0.,0.,-0.00005293,
 0.,0.,-0.00004088,0.,0.,-0.00001016,0.,0.,0.00003487,0.,-0.00000004,0.
 00221834,-0.00000001,0.,-0.00058164,-0.00000020,-0.00000041,0.00873636
 ,0.00000028,-0.00000012,-0.00259492,0.00000056,-0.00000048,-0.07220089
 ,-0.00000007,0.00000038,0.00786301,0.,0.,-0.00064724,-0.00000136,0.000
 00175,0.12422921,0.00071859,-0.00119140,-0.00000002,-0.00173882,0.0006
 1712,0.,-0.00114621,-0.00032200,0.,0.00114476,-0.00015017,0.,0.0000597
 9,0.00144919,0.00000002,-0.00145623,-0.00016827,0.,0.00006868,0.000033
 46,0.,-0.00005752,-0.00003769,0.,-0.00009138,0.00005672,0.,-0.00006262
 ,0.00002637,0.,-0.00563846,-0.00650784,0.,0.00186651,0.00135406,0.0000
 0002,-0.04222628,-0.01105358,0.00000008,0.06290563,-0.00528160,-0.0000
 0020,-0.05417456,0.05374930,0.00000037,-0.15254968,-0.03084102,0.00000
 037,-0.00244378,0.00442311,0.00000005,-0.37303134,-0.08313146,0.000000
 66,0.72828144,0.00040939,-0.00070457,0.,-0.00082600,0.00043025,0.,-0.0
 0050381,-0.00090932,0.,0.00045331,0.00000177,0.,0.00003831,0.00072954,
 0.00000001,-0.00081790,-0.00004675,0.,0.00004737,0.00000467,0.,-0.0000
 3259,-0.00001607,0.,-0.00005282,0.00003237,0.,-0.00003388,0.00001412,0
 .,-0.00609166,-0.00589357,0.,0.00118115,0.00096411,0.,-0.04054540,-0.0
 1706365,0.00000012,0.05053631,-0.05932305,-0.00000043,0.00474667,0.059
 78209,0.00000020,-0.10480926,-0.30249515,-0.00000020,0.00333268,-0.002
 15859,-0.00000010,-0.01249037,-0.14271595,-0.00000031,-0.02942830,0.70
 736564,0.,0.,0.00000240,0.,0.,0.00006352,0.,0.,0.00028631,0.,0.,0.0000
 0172,0.,0.,-0.00002195,0.,0.,0.00000167,0.,0.,0.00000516,0.,0.,0.00001
 615,0.,0.,-0.00000166,0.,0.,-0.00000816,0.,0.00000001,-0.00045880,0.,0
 .,-0.00002188,0.,-0.00000001,-0.00416040,0.,-0.00000029,0.00704907,0.0
 0000013,0.00000005,-0.00095660,0.00000005,-0.00000047,-0.06317467,0.00
 000006,-0.00000008,0.00769877,0.00000103,-0.00000001,-0.05902761,-0.00
 000210,0.00000173,0.14477635,0.00001806,-0.00007865,0.,-0.00005605,0.0
 0012857,0.,-0.00003541,-0.00008761,0.,0.00005351,0.00002908,0.,-0.0000
 1054,0.00007101,0.,-0.00008440,0.00000769,0.,0.00000497,0.00000727,0.,
 0.00000072,-0.00000562,0.,-0.00001061,0.00000763,0.,-0.00000946,0.0000
 0559,0.,-0.00044584,0.00034163,0.,0.00003896,0.00006699,0.,-0.00005902
 ,0.00376295,0.00000007,-0.01419760,-0.00746115,0.00000003,0.00049367,0
 .00014028,0.,-0.33987858,-0.05056816,0.00000123,0.00075490,0.00008402,
 -0.00000003,0.00146593,-0.00177901,0.00000002,-0.00576765,0.00252641,0
 .00000003,0.35779051,-0.00000063,0.00002775,0.,0.00002816,-0.00006210,
 0.,0.00009566,0.00006917,0.,-0.00001743,-0.00003920,0.,0.00001253,-0.0
 0001956,0.,0.00002658,-0.00000416,0.,-0.00000087,-0.00000299,0.,0.0000
 0133,0.00000173,0.,0.00000413,-0.00000469,0.,0.00000323,-0.00000148,0.
 ,0.00037079,-0.00015737,0.,0.00000350,0.00004644,0.,0.00237516,-0.0034
 7813,-0.00000008,0.02496153,0.00776341,-0.00000008,0.00048297,-0.00146
 453,0.,-0.05133514,-0.06675519,0.00000012,-0.00034034,0.00094995,0.000
 00003,-0.00065588,-0.00501944,-0.00000003,-0.02963910,-0.00008038,0.00
 000012,0.05402467,0.06642311,0.,0.,-0.00000245,0.,0.,-0.00004054,0.,0.
 ,-0.00024823,0.,0.,-0.00001547,0.,0.,0.00002256,0.,0.,-0.00000458,0.,0
 .,0.00000015,0.,0.,-0.00000864,0.,0.,0.00000509,0.,0.,0.00000466,0.,0.
 ,-0.00022743,0.,0.,0.00008016,0.00000003,-0.00000008,0.00746021,0.0000
 0022,0.00000007,0.00131714,-0.00000001,0.,-0.00073079,0.00000119,0.000
 00012,-0.03202352,-0.00000003,0.00000003,-0.00472252,0.00000002,-0.000
 00003,0.00577989,-0.00000008,-0.00000003,0.00110397,-0.00000133,-0.000
 00009,0.02446371,-0.00006278,-0.00000215,0.,0.00006723,0.00007894,0.,-
 0.00006995,-0.00002549,0.,-0.00001615,0.00000701,0.,-0.00000794,-0.000
 02702,0.,0.00002716,0.00001536,0.,0.00000240,-0.00000523,0.,-0.0000063
 1,0.00000195,0.,0.00000146,-0.00000096,0.,-0.00000345,-0.00000143,0.,0
 .00028288,-0.00043965,0.,-0.00028124,0.00008861,0.,-0.00223184,0.00274
 175,0.00000003,-0.00135026,0.00053022,0.,0.01015925,0.02041269,0.00000
 006,-0.00505785,0.00006693,0.00000004,0.00010404,-0.00008858,0.,-0.088
 61479,-0.09056934,-0.00000019,-0.00464213,-0.02949759,-0.00000008,-0.0
 0041341,-0.00139515,0.,0.08900846,0.00002992,0.00010009,0.,-0.00004952
 ,-0.00014911,0.,0.00009335,0.00011483,0.,-0.00005120,-0.00001418,0.,0.
 00001276,-0.00006723,0.,0.00007506,-0.00001901,0.,-0.00000751,0.000001
 29,0.,0.00000765,0.00000367,0.,0.00001004,-0.00000548,0.,0.00001247,-0
 .00000371,0.,0.00013154,0.00053660,0.,0.00020988,-0.00030682,0.,0.0039
 0004,-0.00251199,-0.00000004,0.00106610,0.00036505,0.,-0.01358869,-0.0
 1732235,-0.00000005,-0.00058114,0.00212443,-0.00000001,-0.00006807,-0.
 00007879,0.,-0.09003454,-0.31467674,-0.00000069,0.00190251,-0.00088085
 ,-0.00000002,0.00006556,-0.00013775,0.,0.09833735,0.33075231,0.,0.,0.0
 0002605,0.,0.,-0.00000600,0.,0.,-0.00002725,0.,0.,0.00000151,0.,0.,-0.
 00000210,0.,0.,-0.00000039,0.,0.,0.00000227,0.,0.,0.00000305,0.,0.,0.0
 0000254,0.,0.,-0.00000439,0.,0.,0.00002691,0.,0.,-0.00000843,0.0000000
 4,-0.00000002,0.00524538,-0.00000003,0.,-0.00080385,-0.00000002,-0.000
 00017,0.00461191,0.00000005,-0.00000005,0.00799412,0.,0.,-0.00088329,-
 0.00000024,-0.00000072,-0.03431272,0.00000007,0.00000011,0.00233368,0.
 ,0.,0.00050825,0.00000017,0.00000078,0.02434717,0.00002749,-0.00004582
 ,0.,-0.00004064,0.00012102,0.,0.00011752,-0.00007638,0.,0.00002825,0.0
 0000956,0.,-0.00000219,0.00004979,0.,-0.00006020,0.00000374,0.,0.00000
 152,0.00000510,0.,0.00000368,-0.00000402,0.,-0.00000782,0.00000470,0.,
 -0.00000538,0.00000413,0.,-0.00020036,0.00039121,0.,0.00002219,0.00021
 282,0.,-0.00083214,-0.00036555,0.,0.00079587,-0.00269958,0.,-0.0039842
 2,-0.00302447,0.00000003,0.00986518,-0.00956824,-0.00000005,0.00036651
 ,-0.00050903,0.,-0.01371800,0.02533870,0.00000014,-0.17660892,0.139273
 36,0.00000087,0.00065628,0.00040009,-0.00000001,0.00102429,-0.00022858
 ,-0.00000002,0.18365391,0.00002114,0.00002016,0.,-0.00007047,0.0000086
 2,0.,0.00000320,0.00004121,0.,-0.00000177,-0.00000471,0.,0.00000834,-0
 .00000605,0.,0.00001055,-0.00001226,0.,-0.00000448,-0.00000182,0.,0.00
 000235,0.00000236,0.,0.00000509,-0.00000211,0.,0.00000606,-0.00000325,
 0.,0.00012666,-0.00012251,0.,-0.00005155,0.,0.,-0.00090074,0.00037568,
 0.,-0.00332652,-0.00479927,-0.00000001,-0.00248685,0.00084078,-0.00000
 001,0.02175906,-0.01522329,-0.00000014,0.00103198,-0.00108228,-0.00000
 002,-0.00627222,0.00710271,0.00000002,0.13967347,-0.22530843,-0.000000
 97,-0.00018852,0.00101962,0.00000001,0.00016609,0.00076471,0.00000002,
 -0.14976423,0.23584433,0.,0.,-0.00001907,0.,0.,-0.00006349,0.,0.,0.000
 18838,0.,0.,0.00000299,0.,0.,-0.00000719,0.,0.,-0.00000223,0.,0.,0.000
 00608,0.,0.,0.00000141,0.,0.,0.00000021,0.,0.,0.00000576,0.,0.,-0.0003
 3533,0.,0.,0.00023303,0.00000002,0.00000002,-0.00108907,0.00000001,-0.
 00000002,0.00609509,0.00000004,-0.00000006,0.00939030,0.00000003,-0.00
 000005,0.00473878,0.,0.,-0.00023486,-0.00000001,-0.00000008,0.00529749
 ,0.00000090,-0.00000095,-0.04118693,-0.00000002,0.00000001,-0.00338615
 ,-0.00000002,0.00000002,-0.00506102,-0.00000096,0.00000110,0.02687572,
 -0.00563529,-0.00415154,-0.00000005,-0.00165238,0.01855772,0.00000031,
 -0.08110014,0.04558353,0.00000059,0.01312010,-0.00380827,-0.00000004,-
 0.00331547,0.00664265,0.00000007,-0.00239644,-0.00438812,-0.00000007,0
 .00020231,-0.00098578,-0.00000001,-0.00047083,-0.00014633,0.,0.0003284
 9,-0.00004781,0.,-0.00069938,-0.00007862,0.,-0.40969366,-0.05211587,-0
 .00000050,-0.05259773,-0.03782926,-0.00000068,-0.16075857,0.07544775,0
 .00000130,-0.04963281,0.03316401,0.00000045,0.04440321,0.01489781,0.00
 000012,0.00056749,-0.02175193,-0.00000007,0.00098639,0.00140938,0.,-0.
 00944473,0.00188356,0.00000002,0.01019796,0.00876901,-0.00000002,-0.00
 027321,0.00085636,0.00000001,0.00032648,-0.00137596,0.,0.00039891,0.00
 000844,0.,0.73910406,0.00243468,-0.00266231,-0.00000005,0.02732633,-0.
 02712770,-0.00000049,0.01365497,0.01257985,0.00000005,0.00796771,-0.00
 938762,-0.00000016,-0.00152563,0.00616685,0.00000007,-0.00376195,-0.00
 442687,-0.00000008,0.00019761,-0.00074531,0.,-0.00056877,0.00001896,0.
 ,0.00019547,-0.00038182,0.,-0.00042708,0.00007864,0.,-0.07610138,-0.14
 523096,-0.00000071,-0.00327178,-0.16576628,-0.00000244,0.07013159,-0.1
 9634766,-0.00000186,0.02276815,0.00581997,0.00000005,0.00520840,-0.039
 76760,-0.00000055,-0.00859903,0.01716053,0.00000006,-0.00219010,-0.000
 49078,0.00000002,0.00439321,-0.00984474,-0.00000005,-0.01124038,-0.008
 79388,0.00000002,-0.00108974,0.00078639,-0.00000001,0.00130037,-0.0004
 2146,0.,-0.00043791,0.00012778,0.00000001,-0.04310731,0.56234309,0.000
 00005,-0.00000006,0.00012507,0.00000033,-0.00000039,0.00415450,0.00000
 005,0.00000020,0.00340429,0.00000015,-0.00000018,0.00261623,-0.0000000
 3,0.00000011,0.00080803,-0.00000009,-0.00000009,0.00096529,0.,0.,-0.00
 050527,0.,0.,-0.00037830,0.,0.,-0.00044931,0.,0.,-0.00007307,-0.000000
 60,-0.00000109,-0.06660450,-0.00000011,-0.00000245,-0.03603935,0.00000
 119,-0.00000199,-0.05472876,0.00000044,-0.00000006,-0.00412810,-0.0000
 0011,-0.00000035,0.00381868,-0.00000007,0.00000026,0.00641321,-0.00000
 004,0.,-0.00319937,0.00000011,-0.00000014,0.00423948,-0.00000019,-0.00
 000012,-0.00094884,0.,0.,0.00127285,0.00000001,0.,-0.00021883,-0.00000
 001,0.,-0.00068561,-0.00000115,0.00000614,0.13802322,-0.00067081,0.003
 03707,0.00000006,0.00242318,0.00217892,0.00000005,0.01354716,-0.000336
 24,-0.00000003,-0.00288591,0.00065202,0.,-0.00015078,-0.00312496,-0.00
 000004,0.00282271,0.00066704,0.00000001,-0.00026706,0.00027120,0.,0.00
 030228,-0.00003533,0.,0.00000392,0.00000417,0.,0.00006545,0.00007388,0
 .,0.01789369,0.07191869,0.00000042,-0.00089610,0.00035295,-0.00000002,
 -0.01908251,-0.05100730,-0.00000032,-0.01154824,0.00363500,0.00000002,
 -0.40831781,-0.06338858,0.00000031,-0.00489588,-0.01974761,-0.00000006
 ,-0.00138534,-0.00070470,0.00000003,-0.07223537,0.01495162,0.00000016,
 0.01989324,0.01555817,0.00000002,-0.00010065,-0.00031277,0.,0.00202845
 ,-0.00011474,-0.00000003,-0.00153582,0.00038009,0.,-0.04076904,0.02253
 993,0.00000034,0.53424616,-0.00078773,-0.00151971,-0.00000004,0.000583
 00,-0.00488099,-0.00000006,-0.01695561,-0.00504878,-0.00000004,0.00039
 441,-0.00068480,0.,0.00062414,0.00104179,0.00000002,-0.00067252,-0.000
 29652,0.,0.00026838,-0.00046017,0.,0.00010130,0.00024628,0.,0.00019090
 ,-0.00016865,0.,0.00009824,-0.00011475,0.,0.02770547,-0.10309100,-0.00
 000084,-0.00059745,-0.00433287,-0.00000006,-0.05139270,-0.00149774,0.0
 0000002,0.01184994,-0.00865012,-0.00000013,-0.07000920,-0.12351378,-0.
 00000028,-0.00176239,0.01176924,0.00000007,-0.00149972,-0.00024455,0.,
 0.04901738,0.01569142,-0.00000008,-0.00689501,-0.01402999,-0.00000004,
 -0.00004199,0.00056589,0.,-0.00253235,0.00255485,0.00000004,0.00180767
 ,0.00024397,0.,0.01764960,0.00106559,0.00000003,0.06257328,0.26244490,
 0.,-0.00000001,-0.00031200,-0.00000002,-0.00000003,-0.00026216,-0.0000
 0016,-0.00000005,0.00249563,0.00000001,0.,0.00009013,0.,0.00000002,-0.
 00008890,-0.00000001,0.,0.00005277,0.,0.,0.00002111,0.,0.,0.00003482,0
 .,0.,-0.00000960,0.,0.,0.00000181,0.00000014,-0.00000108,0.00920194,0.
 ,-0.00000003,-0.00048338,-0.00000017,0.00000004,0.01616526,0.00000010,
 -0.00000011,0.00638194,0.00000024,-0.00000035,-0.06203163,0.00000001,0
 .00000010,-0.00086726,0.,0.,0.00012388,0.00000039,0.,0.01035383,-0.000
 00004,-0.00000011,0.00532731,0.,0.,-0.00067851,-0.00000003,0.00000002,
 -0.00353846,0.00000001,0.,-0.00052540,0.00000022,-0.00000004,-0.002514
 65,-0.00000049,0.00000137,0.05238700,0.00055520,-0.00066793,0.,-0.0030
 0458,0.00031908,0.,-0.00039189,0.00793937,0.00000006,0.00131310,-0.000
 27598,0.,0.00004953,0.00077023,0.00000001,-0.00069845,-0.00021587,0.,0
 .00002411,0.00002496,0.,-0.00049233,-0.00010226,0.,0.00003994,-0.00003
 291,0.,-0.00000836,-0.00006759,0.,-0.04597058,-0.02994553,-0.00000005,
 -0.00254686,-0.00409544,-0.00000007,-0.00288644,0.00717366,0.00000006,
 0.00242224,0.00030840,0.,-0.04603134,0.02153559,0.00000027,0.00048810,
 0.00359182,0.00000001,0.00055810,0.00024025,0.,0.00462607,-0.00433404,
 0.,-0.00350102,-0.00174255,0.,0.00006489,0.00005061,0.,-0.00027400,0.0
 0024573,0.,0.00003409,-0.00013516,0.,0.00880429,-0.02579736,-0.0000002
 7,-0.02848491,-0.01971705,-0.00000020,0.11531111,0.00042883,0.00291104
 ,0.00000006,0.00195380,0.00775809,0.00000013,0.02737573,-0.00173384,-0
 .00000003,-0.00242622,0.00223865,0.00000003,-0.00092421,-0.00290464,-0
 .00000004,0.00186385,0.00108878,0.00000002,-0.00040404,0.00066034,0.,0
 .00014078,-0.00039211,0.,-0.00032388,0.00028711,0.,-0.00011357,0.00019
 257,0.,-0.01512453,-0.00480482,-0.00000021,0.00119398,0.00877237,0.000
 00013,0.00910824,-0.02321899,-0.00000021,-0.01186970,0.00018569,0.,0.0
 7609070,0.02672177,0.00000005,0.00004663,-0.01488712,-0.00000007,-0.00
 120526,-0.00038212,0.00000002,-0.02820945,0.00703108,0.00000002,0.0126
 0252,0.01109563,-0.00000002,0.00003110,-0.00042650,0.,0.00083766,-0.00
 072237,0.,-0.00089809,0.00017406,0.,-0.05508301,0.00524736,0.00000015,
 -0.06002179,-0.02708950,0.00000027,0.04492998,0.00219747,0.,0.,0.00063
 860,0.00000004,0.00000002,0.00108952,0.00000018,-0.00000005,-0.0035773
 8,-0.00000003,0.00000003,-0.00047428,0.,-0.00000003,0.00001464,0.00000
 002,0.00000002,-0.00011153,0.,0.,0.00003115,0.,0.,0.00003836,0.,0.,0.0
 0003346,0.,0.,-0.00000857,0.00000006,0.00000027,-0.02332969,0.,0.,0.00
 260389,0.00000008,-0.00000019,-0.00299234,-0.00000011,0.,-0.00066735,0
 .00000070,0.00000015,0.00020517,0.,-0.00000012,-0.00011690,0.,0.,-0.00
 001295,-0.00000024,0.00000004,0.00199156,0.00000010,0.00000009,0.00130
 144,0.,0.,0.00007016,0.,0.,-0.00023612,-0.00000001,0.,-0.00023891,-0.0
 0000052,0.,0.00463311,-0.00000043,0.00000005,-0.03132549,0.00000019,-0
 .00000031,0.05044044\\-0.00014309,0.00262590,0.,0.00347281,0.00568290,
 0.00000006,0.00712015,0.00015156,0.00000029,-0.00012578,0.00035777,-0.
 00000006,-0.00046281,-0.00315996,0.,-0.00003163,0.00003893,0.00000002,
 -0.00024706,0.00036378,0.,0.00028496,-0.00015146,0.,-0.00004410,-0.000
 16352,0.,-0.00012794,-0.00005601,0.,-0.00818662,0.00681795,-0.00000019
 ,0.00274254,0.00869555,-0.00000005,-0.00497182,0.00360381,0.00000025,0
 .00592030,-0.00125304,0.,0.00944533,0.00244881,0.00000010,-0.00189427,
 0.00368799,0.00000015,0.00026249,-0.00005702,-0.00000001,-0.00314569,0
 .00013886,-0.00000014,-0.00428873,-0.00162445,-0.00000008,-0.00010421,
 -0.00006680,0.00000001,-0.00025275,0.00001544,0.,-0.00043711,-0.000223
 44,-0.00000003,-0.00485218,-0.00295583,-0.00000005,-0.00570056,-0.0065
 7534,0.00000011,0.00576775,-0.01834239,-0.00000040\\\@
 The archive entry for this job was punched.


 Sacred cows make the best hamburger.
                               -- Mark Twain
 Job cpu time:       0 days  1 hours  0 minutes 44.9 seconds.
 Elapsed time:       0 days  0 hours  6 minutes 15.1 seconds.
 File lengths (MBytes):  RWF=    544 Int=      0 D2E=      0 Chk=     40 Scr=      8
 Normal termination of Gaussian 16 at Tue Oct 27 22:49:11 2020.
