 Entering Gaussian System, Link 0=g16
 Initial command:
 /gpfs/loomis/apps/avx/software/Gaussian/16-C.01_AVX/g16/l1.exe "/home/fas/batista/pev4/scratch60/gauss-scratch/Gau-40677.inp" -scrdir="/home/fas/batista/pev4/scratch60/gauss-scratch/"
 Entering Link 1 = /gpfs/loomis/apps/avx/software/Gaussian/16-C.01_AVX/g16/l1.exe PID=     40678.
  
 Copyright (c) 1988-2019, Gaussian, Inc.  All Rights Reserved.
  
 This is part of the Gaussian(R) 16 program.  It is based on
 the Gaussian(R) 09 system (copyright 2009, Gaussian, Inc.),
 the Gaussian(R) 03 system (copyright 2003, Gaussian, Inc.),
 the Gaussian(R) 98 system (copyright 1998, Gaussian, Inc.),
 the Gaussian(R) 94 system (copyright 1995, Gaussian, Inc.),
 the Gaussian 92(TM) system (copyright 1992, Gaussian, Inc.),
 the Gaussian 90(TM) system (copyright 1990, Gaussian, Inc.),
 the Gaussian 88(TM) system (copyright 1988, Gaussian, Inc.),
 the Gaussian 86(TM) system (copyright 1986, Carnegie Mellon
 University), and the Gaussian 82(TM) system (copyright 1983,
 Carnegie Mellon University). Gaussian is a federally registered
 trademark of Gaussian, Inc.
  
 This software contains proprietary and confidential information,
 including trade secrets, belonging to Gaussian, Inc.
  
 This software is provided under written license and may be
 used, copied, transmitted, or stored only in accord with that
 written license.
  
 The following legend is applicable only to US Government
 contracts under FAR:
  
                    RESTRICTED RIGHTS LEGEND
  
 Use, reproduction and disclosure by the US Government is
 subject to restrictions as set forth in subparagraphs (a)
 and (c) of the Commercial Computer Software - Restricted
 Rights clause in FAR 52.227-19.
  
 Gaussian, Inc.
 340 Quinnipiac St., Bldg. 40, Wallingford CT 06492
  
  
 ---------------------------------------------------------------
 Warning -- This program may not be used in any manner that
 competes with the business of Gaussian, Inc. or will provide
 assistance to any competitor of Gaussian, Inc.  The licensee
 of this program is prohibited from giving any competitor of
 Gaussian, Inc. access to this program.  By using this program,
 the user acknowledges that Gaussian, Inc. is engaged in the
 business of creating and licensing software in the field of
 computational chemistry and represents and warrants to the
 licensee that it is not a competitor of Gaussian, Inc. and that
 it will not use this program in any manner prohibited above.
 ---------------------------------------------------------------
  

 Cite this work as:
 Gaussian 16, Revision C.01,
 M. J. Frisch, G. W. Trucks, H. B. Schlegel, G. E. Scuseria, 
 M. A. Robb, J. R. Cheeseman, G. Scalmani, V. Barone, 
 G. A. Petersson, H. Nakatsuji, X. Li, M. Caricato, A. V. Marenich, 
 J. Bloino, B. G. Janesko, R. Gomperts, B. Mennucci, H. P. Hratchian, 
 J. V. Ortiz, A. F. Izmaylov, J. L. Sonnenberg, D. Williams-Young, 
 F. Ding, F. Lipparini, F. Egidi, J. Goings, B. Peng, A. Petrone, 
 T. Henderson, D. Ranasinghe, V. G. Zakrzewski, J. Gao, N. Rega, 
 G. Zheng, W. Liang, M. Hada, M. Ehara, K. Toyota, R. Fukuda, 
 J. Hasegawa, M. Ishida, T. Nakajima, Y. Honda, O. Kitao, H. Nakai, 
 T. Vreven, K. Throssell, J. A. Montgomery, Jr., J. E. Peralta, 
 F. Ogliaro, M. J. Bearpark, J. J. Heyd, E. N. Brothers, K. N. Kudin, 
 V. N. Staroverov, T. A. Keith, R. Kobayashi, J. Normand, 
 K. Raghavachari, A. P. Rendell, J. C. Burant, S. S. Iyengar, 
 J. Tomasi, M. Cossi, J. M. Millam, M. Klene, C. Adamo, R. Cammi, 
 J. W. Ochterski, R. L. Martin, K. Morokuma, O. Farkas, 
 J. B. Foresman, and D. J. Fox, Gaussian, Inc., Wallingford CT, 2019.
 
 ******************************************
 Gaussian 16:  ES64L-G16RevC.01  3-Jul-2019
                27-Oct-2020 
 ******************************************
 %chk=config_2_6.chk
 %mem=58GB
 %nprocshared=10
 Will use up to   10 processors via shared memory.
 ----------------------------------------------------------------------
 #p opt=addgic freq wb97xd/cc-pvdz nosymm int=ultrafine scrf=(solvent=C
 arbonTetraChloride)
 ----------------------------------------------------------------------
 1/18=20,19=15,26=6,38=1,145=903/1,3;
 2/9=110,12=2,15=1,17=6,18=5,40=1/2;
 3/5=16,11=2,25=1,30=1,70=2201,71=1,72=11,74=-58,75=-5/1,2,3;
 4//1;
 5/5=2,38=5,53=11/2;
 6/7=2,8=2,9=2,10=2,28=1/1;
 7/30=1/1,2,3,16;
 1/18=20,19=15,26=6,145=903/3(2);
 2/9=110,15=1/2;
 99//99;
 2/9=110,15=1/2;
 3/5=16,11=2,25=1,30=1,70=2205,71=1,72=11,74=-58,75=-5/1,2,3;
 4/5=5,16=3,69=1/1;
 5/5=2,38=5,53=11/2;
 7/30=1/1,2,3,16;
 1/18=20,19=15,26=6,145=903/3(-5);
 2/9=110,15=1/2;
 6/7=2,8=2,9=2,10=2,19=2,28=1/1;
 99/9=1/99;
 Leave Link    1 at Tue Oct 27 21:45:07 2020, MaxMem=  7784628224 cpu:               4.9 elap:               0.5
 (Enter /gpfs/loomis/apps/avx/software/Gaussian/16-C.01_AVX/g16/l101.exe)
 ------------------------------------------------
 NM 2D-scan of HBT TD-WB97XD pVDZ in CTC Relaxed.
 ------------------------------------------------
 Symbolic Z-matrix:
 Charge =  0 Multiplicity = 1
 C                     1.68938  -3.27244  -0.00002 
 C                     0.99308  -2.06819  -0.00002 
 C                     1.68238  -0.81414  -0.00002 
 C                     3.10876  -0.80616  -0.00002 
 C                     3.78177  -2.00906  -0.00002 
 C                     3.08478  -3.23831  -0.00002 
 H                     1.15887  -4.22583  -0.00002 
 H                     3.63303   0.15077  -0.00002 
 H                     4.87365  -2.01768  -0.00002 
 H                     3.64372  -4.17555  -0.00002 
 N                     0.9122    0.25904  -0.00002 
 S                    -0.73908  -1.78108  -0.00002 
 C                    -1.37881   1.01037   0. 
 C                    -2.79718   0.84856  0. 
 C                    -0.89661   2.4059    0.00003 
 C                    -3.64196   1.94276   0.00002 
 H                    -3.20862  -0.1614   -0.00003 
 C                    -1.77634   3.49425   0.00006 
 C                    -3.14741   3.27571   0.00006 
 H                    -4.72163   1.78051   0.00002 
 H                    -1.35001   4.49787   0.00008 
 H                    -3.84078   4.11705   0.00008 
 C                    -0.41802  -0.02052  -0.00002 
 O                     0.40573   2.64451   0.00004 
 H                     0.76509   2.05252   0.00002 
 
 Initializing the GIC definitions file.
 Number of initial coordinates =   131
 Number of input entries/lines =    52
 Number of additional coordinates =     2
 Number of removed coordinates =     0
 Number of frozen coordinates =     2
 Number of final active and frozen coordinates =   133
 ITRead=  0  0  0  0  0  0  0  0  0  0  0  0  0  0  0  0  0  0  0  0
 ITRead=  0  0  0  0  0
 MicOpt= -1 -1 -1 -1 -1 -1 -1 -1 -1 -1 -1 -1 -1 -1 -1 -1 -1 -1 -1 -1
 MicOpt= -1 -1 -1 -1 -1
 NAtoms=     25 NQM=       25 NQMF=       0 NMMI=      0 NMMIF=      0
                NMic=       0 NMicF=      0.
                    Isotopes and Nuclear Properties:
 (Nuclear quadrupole moments (NQMom) in fm**2, nuclear magnetic moments (NMagM)
  in nuclear magnetons)

  Atom         1           2           3           4           5           6           7           8           9          10
 IAtWgt=          12          12          12          12          12          12           1           1           1           1
 AtmWgt=  12.0000000  12.0000000  12.0000000  12.0000000  12.0000000  12.0000000   1.0078250   1.0078250   1.0078250   1.0078250
 NucSpn=           0           0           0           0           0           0           1           1           1           1
 AtZEff=  -0.0000000  -0.0000000  -0.0000000  -0.0000000  -0.0000000  -0.0000000  -0.0000000  -0.0000000  -0.0000000  -0.0000000
 NQMom=    0.0000000   0.0000000   0.0000000   0.0000000   0.0000000   0.0000000   0.0000000   0.0000000   0.0000000   0.0000000
 NMagM=    0.0000000   0.0000000   0.0000000   0.0000000   0.0000000   0.0000000   2.7928460   2.7928460   2.7928460   2.7928460
 AtZNuc=   6.0000000   6.0000000   6.0000000   6.0000000   6.0000000   6.0000000   1.0000000   1.0000000   1.0000000   1.0000000

  Atom        11          12          13          14          15          16          17          18          19          20
 IAtWgt=          14          32          12          12          12          12           1          12          12           1
 AtmWgt=  14.0030740  31.9720718  12.0000000  12.0000000  12.0000000  12.0000000   1.0078250  12.0000000  12.0000000   1.0078250
 NucSpn=           2           0           0           0           0           0           1           0           0           1
 AtZEff=  -0.0000000  -0.0000000  -0.0000000  -0.0000000  -0.0000000  -0.0000000  -0.0000000  -0.0000000  -0.0000000  -0.0000000
 NQMom=    2.0440000   0.0000000   0.0000000   0.0000000   0.0000000   0.0000000   0.0000000   0.0000000   0.0000000   0.0000000
 NMagM=    0.4037610   0.0000000   0.0000000   0.0000000   0.0000000   0.0000000   2.7928460   0.0000000   0.0000000   2.7928460
 AtZNuc=   7.0000000  16.0000000   6.0000000   6.0000000   6.0000000   6.0000000   1.0000000   6.0000000   6.0000000   1.0000000

  Atom        21          22          23          24          25
 IAtWgt=           1           1          12          16           1
 AtmWgt=   1.0078250   1.0078250  12.0000000  15.9949146   1.0078250
 NucSpn=           1           1           0           0           1
 AtZEff=  -0.0000000  -0.0000000  -0.0000000  -0.0000000  -0.0000000
 NQMom=    0.0000000   0.0000000   0.0000000   0.0000000   0.0000000
 NMagM=    2.7928460   2.7928460   0.0000000   0.0000000   2.7928460
 AtZNuc=   1.0000000   1.0000000   6.0000000   8.0000000   1.0000000
 Leave Link  101 at Tue Oct 27 21:45:10 2020, MaxMem=  7784628224 cpu:              31.7 elap:               3.2
 (Enter /gpfs/loomis/apps/avx/software/Gaussian/16-C.01_AVX/g16/l103.exe)

 GradGradGradGradGradGradGradGradGradGradGradGradGradGradGradGradGradGrad
 Berny optimization.
 Initialization pass.
                           ----------------------------
                           !    Initial Parameters    !
                           ! (Angstroms and Degrees)  !
 --------------------------                            --------------------------
 ! Name  Definition              Value          Derivative Info.                !
 --------------------------------------------------------------------------------
 ! R1    R(1,2)                  1.3911         estimate D2E/DX2                !
 ! R2    R(1,6)                  1.3958         estimate D2E/DX2                !
 ! R3    R(1,7)                  1.0911         estimate D2E/DX2                !
 ! R4    R(2,3)                  1.431          estimate D2E/DX2                !
 ! R5    R(2,12)                 1.7558         estimate D2E/DX2                !
 ! R6    R(3,4)                  1.4264         estimate D2E/DX2                !
 ! R7    R(3,11)                 1.3209         estimate D2E/DX2                !
 ! R8    R(4,5)                  1.3784         estimate D2E/DX2                !
 ! R9    R(4,8)                  1.0911         estimate D2E/DX2                !
 ! R10   R(5,6)                  1.4131         estimate D2E/DX2                !
 ! R11   R(5,9)                  1.0919         estimate D2E/DX2                !
 ! R12   R(6,10)                 1.0913         estimate D2E/DX2                !
 ! R13   R(11,23)                1.3593         estimate D2E/DX2                !
 ! R14   R(12,23)                1.7896         estimate D2E/DX2                !
 ! R15   R(13,14)                1.4276         estimate D2E/DX2                !
 ! R16   R(13,15)                1.4765         estimate D2E/DX2                !
 ! R17   R(13,23)                1.4092         estimate D2E/DX2                !
 ! R18   R(14,16)                1.3824         estimate D2E/DX2                !
 ! R19   R(14,17)                1.0906         estimate D2E/DX2                !
 ! R20   R(15,18)                1.3994         estimate D2E/DX2                !
 ! R21   R(15,24)                1.324          estimate D2E/DX2                !
 ! R22   R(16,19)                1.4217         estimate D2E/DX2                !
 ! R23   R(16,20)                1.0918         estimate D2E/DX2                !
 ! R24   R(18,19)                1.3884         estimate D2E/DX2                !
 ! R25   R(18,21)                1.0904         estimate D2E/DX2                !
 ! R26   R(19,22)                1.0902         estimate D2E/DX2                !
 ! R27   R(24,25)                0.6925         estimate D2E/DX2                !
 ! A1    A(2,1,6)              118.6358         estimate D2E/DX2                !
 ! A2    A(2,1,7)              120.8697         estimate D2E/DX2                !
 ! A3    A(6,1,7)              120.4944         estimate D2E/DX2                !
 ! A4    A(1,2,3)              121.1677         estimate D2E/DX2                !
 ! A5    A(1,2,12)             129.4479         estimate D2E/DX2                !
 ! A6    A(3,2,12)             109.3844         estimate D2E/DX2                !
 ! A7    A(2,3,4)              119.116          estimate D2E/DX2                !
 ! A8    A(2,3,11)             115.5387         estimate D2E/DX2                !
 ! A9    A(4,3,11)             125.3453         estimate D2E/DX2                !
 ! A10   A(3,4,5)              118.9062         estimate D2E/DX2                !
 ! A11   A(3,4,8)              119.0373         estimate D2E/DX2                !
 ! A12   A(5,4,8)              122.0565         estimate D2E/DX2                !
 ! A13   A(4,5,6)              121.2199         estimate D2E/DX2                !
 ! A14   A(4,5,9)              119.679          estimate D2E/DX2                !
 ! A15   A(6,5,9)              119.1011         estimate D2E/DX2                !
 ! A16   A(1,6,5)              120.9544         estimate D2E/DX2                !
 ! A17   A(1,6,10)             119.4098         estimate D2E/DX2                !
 ! A18   A(5,6,10)             119.6357         estimate D2E/DX2                !
 ! A19   A(3,11,23)            113.7971         estimate D2E/DX2                !
 ! A20   A(2,12,23)             89.076          estimate D2E/DX2                !
 ! A21   A(14,13,15)           115.5692         estimate D2E/DX2                !
 ! A22   A(14,13,23)           126.4763         estimate D2E/DX2                !
 ! A23   A(15,13,23)           117.9544         estimate D2E/DX2                !
 ! A24   A(13,14,16)           121.162          estimate D2E/DX2                !
 ! A25   A(13,14,17)           118.6729         estimate D2E/DX2                !
 ! A26   A(16,14,17)           120.1651         estimate D2E/DX2                !
 ! A27   A(13,15,18)           121.9899         estimate D2E/DX2                !
 ! A28   A(13,15,24)           119.4436         estimate D2E/DX2                !
 ! A29   A(18,15,24)           118.5665         estimate D2E/DX2                !
 ! A30   A(14,16,19)           121.9743         estimate D2E/DX2                !
 ! A31   A(14,16,20)           119.1238         estimate D2E/DX2                !
 ! A32   A(19,16,20)           118.9019         estimate D2E/DX2                !
 ! A33   A(15,18,19)           119.8922         estimate D2E/DX2                !
 ! A34   A(15,18,21)           118.036          estimate D2E/DX2                !
 ! A35   A(19,18,21)           122.0718         estimate D2E/DX2                !
 ! A36   A(16,19,18)           119.4125         estimate D2E/DX2                !
 ! A37   A(16,19,22)           120.1512         estimate D2E/DX2                !
 ! A38   A(18,19,22)           120.4364         estimate D2E/DX2                !
 ! A39   A(11,23,12)           112.2038         estimate D2E/DX2                !
 ! A40   A(11,23,13)           121.1157         estimate D2E/DX2                !
 ! A41   A(12,23,13)           126.6805         estimate D2E/DX2                !
 ! A42   A(15,24,25)           110.8771         estimate D2E/DX2                !
 ! D1    D(6,1,2,3)              0.0            estimate D2E/DX2                !
 ! D2    D(6,1,2,12)          -180.0            estimate D2E/DX2                !
 ! D3    D(7,1,2,3)            180.0            estimate D2E/DX2                !
 ! D4    D(7,1,2,12)             0.0            estimate D2E/DX2                !
 ! D5    D(2,1,6,5)              0.0            estimate D2E/DX2                !
 ! D6    D(2,1,6,10)           180.0            estimate D2E/DX2                !
 ! D7    D(7,1,6,5)           -180.0            estimate D2E/DX2                !
 ! D8    D(7,1,6,10)             0.0            estimate D2E/DX2                !
 ! D9    D(1,2,3,4)              0.0            estimate D2E/DX2                !
 ! D10   D(1,2,3,11)           180.0            estimate D2E/DX2                !
 ! D11   D(12,2,3,4)           180.0            estimate D2E/DX2                !
 ! D12   D(12,2,3,11)            0.0            estimate D2E/DX2                !
 ! D13   D(1,2,12,23)          179.9999         estimate D2E/DX2                !
 ! D14   D(3,2,12,23)           -0.0001         estimate D2E/DX2                !
 ! D15   D(2,3,4,5)              0.0            estimate D2E/DX2                !
 ! D16   D(2,3,4,8)           -180.0            estimate D2E/DX2                !
 ! D17   D(11,3,4,5)          -180.0            estimate D2E/DX2                !
 ! D18   D(11,3,4,8)             0.0            estimate D2E/DX2                !
 ! D19   D(2,3,11,23)            0.0002         estimate D2E/DX2                !
 ! D20   D(4,3,11,23)         -179.9998         estimate D2E/DX2                !
 ! D21   D(3,4,5,6)              0.0            estimate D2E/DX2                !
 ! D22   D(3,4,5,9)           -180.0            estimate D2E/DX2                !
 ! D23   D(8,4,5,6)           -180.0            estimate D2E/DX2                !
 ! D24   D(8,4,5,9)              0.0            estimate D2E/DX2                !
 ! D25   D(4,5,6,1)              0.0            estimate D2E/DX2                !
 ! D26   D(4,5,6,10)          -180.0            estimate D2E/DX2                !
 ! D27   D(9,5,6,1)            180.0            estimate D2E/DX2                !
 ! D28   D(9,5,6,10)             0.0            estimate D2E/DX2                !
 ! D29   D(3,11,23,12)          -0.0003         estimate D2E/DX2                !
 ! D30   D(3,11,23,13)         179.9992         estimate D2E/DX2                !
 ! D31   D(2,12,23,11)           0.0002         estimate D2E/DX2                !
 ! D32   D(2,12,23,13)        -179.9993         estimate D2E/DX2                !
 ! D33   D(15,13,14,16)         -0.0002         estimate D2E/DX2                !
 ! D34   D(15,13,14,17)        179.9998         estimate D2E/DX2                !
 ! D35   D(23,13,14,16)        179.9996         estimate D2E/DX2                !
 ! D36   D(23,13,14,17)         -0.0003         estimate D2E/DX2                !
 ! D37   D(14,13,15,18)          0.0003         estimate D2E/DX2                !
 ! D38   D(14,13,15,24)       -179.9999         estimate D2E/DX2                !
 ! D39   D(23,13,15,18)       -179.9996         estimate D2E/DX2                !
 ! D40   D(23,13,15,24)          0.0003         estimate D2E/DX2                !
 ! D41   D(14,13,23,11)        179.9994         estimate D2E/DX2                !
 ! D42   D(14,13,23,12)         -0.0011         estimate D2E/DX2                !
 ! D43   D(15,13,23,11)         -0.0008         estimate D2E/DX2                !
 ! D44   D(15,13,23,12)        179.9987         estimate D2E/DX2                !
 ! D45   D(13,14,16,19)          0.0            estimate D2E/DX2                !
 ! D46   D(13,14,16,20)       -179.9999         estimate D2E/DX2                !
 ! D47   D(17,14,16,19)        180.0            estimate D2E/DX2                !
 ! D48   D(17,14,16,20)          0.0            estimate D2E/DX2                !
 ! D49   D(13,15,18,19)         -0.0001         estimate D2E/DX2                !
 ! D50   D(13,15,18,21)        179.9999         estimate D2E/DX2                !
 ! D51   D(24,15,18,19)       -179.9999         estimate D2E/DX2                !
 ! D52   D(24,15,18,21)          0.0            estimate D2E/DX2                !
 ! D53   D(13,15,24,25)          0.0            estimate D2E/DX2                !
 ! D54   D(18,15,24,25)        179.9998         estimate D2E/DX2                !
 ! D55   D(14,16,19,18)          0.0002         estimate D2E/DX2                !
 ! D56   D(14,16,19,22)       -179.9999         estimate D2E/DX2                !
 ! D57   D(20,16,19,18)       -179.9999         estimate D2E/DX2                !
 ! D58   D(20,16,19,22)          0.0001         estimate D2E/DX2                !
 ! D59   D(15,18,19,16)         -0.0001         estimate D2E/DX2                !
 ! D60   D(15,18,19,22)        179.9999         estimate D2E/DX2                !
 ! D61   D(21,18,19,16)        179.9999         estimate D2E/DX2                !
 ! D62   D(21,18,19,22)         -0.0001         estimate D2E/DX2                !
 ! Qtot  GIC-1                 -40.0            Frozen                          !
 ! Ptot  GIC-2                 -40.0            Frozen                          !
 --------------------------------------------------------------------------------
 NOTE: GIC-type coordinates are in arbitrary units.
 Trust Radius=3.00D-01 FncErr=5.00D-06 GrdErr=5.00D-06 EigMax=2.50D+02 EigMin=1.00D-04
 Number of steps in this run=    143 maximum allowed number of steps=    150.
 GradGradGradGradGradGradGradGradGradGradGradGradGradGradGradGradGradGrad

 Leave Link  103 at Tue Oct 27 21:45:10 2020, MaxMem=  7784628224 cpu:               0.1 elap:               0.0
 (Enter /gpfs/loomis/apps/avx/software/Gaussian/16-C.01_AVX/g16/l202.exe)
                          Input orientation:                          
 ---------------------------------------------------------------------
 Center     Atomic      Atomic             Coordinates (Angstroms)
 Number     Number       Type             X           Y           Z
 ---------------------------------------------------------------------
      1          6           0        1.689384   -3.272437   -0.000023
      2          6           0        0.993081   -2.068188   -0.000021
      3          6           0        1.682376   -0.814137   -0.000021
      4          6           0        3.108762   -0.806161   -0.000021
      5          6           0        3.781772   -2.009060   -0.000022
      6          6           0        3.084777   -3.238313   -0.000023
      7          1           0        1.158871   -4.225834   -0.000022
      8          1           0        3.633033    0.150766   -0.000021
      9          1           0        4.873649   -2.017682   -0.000022
     10          1           0        3.643722   -4.175552   -0.000023
     11          7           0        0.912196    0.259037   -0.000021
     12         16           0       -0.739081   -1.781083   -0.000019
     13          6           0       -1.378806    1.010367    0.000002
     14          6           0       -2.797183    0.848563   -0.000003
     15          6           0       -0.896615    2.405901    0.000031
     16          6           0       -3.641958    1.942761    0.000024
     17          1           0       -3.208623   -0.161405   -0.000027
     18          6           0       -1.776336    3.494254    0.000058
     19          6           0       -3.147410    3.275707    0.000056
     20          1           0       -4.721631    1.780514    0.000020
     21          1           0       -1.350012    4.497872    0.000081
     22          1           0       -3.840784    4.117045    0.000079
     23          6           0       -0.418015   -0.020521   -0.000015
     24          8           0        0.405733    2.644511    0.000035
     25          1           0        0.765091    2.052524    0.000023
 ---------------------------------------------------------------------
                    Distance matrix (angstroms):
                    1          2          3          4          5
     1  C    0.000000
     2  C    1.391062   0.000000
     3  C    2.458311   1.431004   0.000000
     4  C    2.845550   2.463498   1.426409   0.000000
     5  C    2.444220   2.789318   2.415638   1.378372   0.000000
     6  C    1.395810   2.396745   2.800600   2.432270   1.413105
     7  H    1.091059   2.164006   3.451628   3.936527   3.434196
     8  H    3.936507   3.448638   2.176258   1.091131   2.164941
     9  H    3.422566   3.880897   3.410681   2.140703   1.091911
    10  H    2.152917   3.386278   3.891785   3.411595   2.170886
    11  N    3.615983   2.328630   1.320938   2.441219   3.657694
    12  S    2.849838   1.755794   2.607382   3.969429   4.526597
    13  C    5.268415   3.886302   3.563656   4.841285   5.979005
    14  C    6.091956   4.782629   4.778182   6.133376   7.172772
    15  C    6.239465   4.856792   4.125511   5.134237   6.432665
    16  C    7.457983   6.129543   5.995750   7.288951   8.410033
    17  H    5.802499   4.614123   4.934362   6.350202   7.230453
    18  C    7.602587   6.213729   5.524936   6.508284   7.821703
    19  C    8.140809   6.760243   6.328796   7.470030   8.714490
    20  H    8.162930   6.889880   6.909669   8.246572   9.309605
    21  H    8.343598   6.971602   6.116601   6.929173   8.287060
    22  H    9.229692   7.850055   7.404178   8.516699   9.779189
    23  C    3.875060   2.486791   2.245322   3.613224   4.646773
    24  O    6.054588   4.749159   3.686741   4.383321   5.749205
    25  H    5.404585   4.127015   3.009843   3.696603   5.059331
                    6          7          8          9         10
     6  C    0.000000
     7  H    2.164327   0.000000
     8  H    3.433138   5.027534   0.000000
     9  H    2.165641   4.321517   2.498258   0.000000
    10  H    1.091254   2.485360   4.326331   2.483772   0.000000
    11  N    4.117227   4.491649   2.722990   4.569087   5.208340
    12  S    4.092115   3.095000   4.779897   5.617714   4.994240
    13  C    6.162374   5.818729   5.085021   6.947105   7.219386
    14  C    7.162403   6.434273   6.467967   8.188835   8.168659
    15  C    6.907144   6.942977   5.059974   7.270765   7.995635
    16  C    8.490730   7.816619   7.492445   9.391521   9.513931
    17  H    7.005301   5.966120   6.848773   8.292700   7.941537
    18  C    8.304088   8.259249   6.359260   8.637346   9.391643
    19  C    9.015132   8.649692   7.465900   9.610274  10.081703
    20  H    9.280551   8.405743   8.512138  10.319675  10.269073
    21  H    8.917169   9.077309   6.612720   9.010350  10.008279
    22  H   10.102707   9.726263   8.461047  10.657215  11.170721
    23  C    4.756442   4.491239   4.054668   5.656002   5.810507
    24  O    6.464123   6.911502   4.078508   6.457423   7.549690
    25  H    5.777015   6.290695   3.441188   5.783323   6.861155
                   11         12         13         14         15
    11  N    0.000000
    12  S    2.624653   0.000000
    13  C    2.411055   2.863816   0.000000
    14  C    3.755933   3.339286   1.427577   0.000000
    15  C    2.807281   4.189947   1.476491   2.457125   0.000000
    16  C    4.855435   4.721622   2.447696   1.382358   2.784136
    17  H    4.142212   2.953303   2.172851   1.090559   3.454916
    18  C    4.206523   5.376345   2.515497   2.835808   1.399436
    19  C    5.057737   5.600998   2.873974   2.452281   2.413015
    20  H    5.835658   5.342816   3.430395   2.138231   3.875805
    21  H    4.804717   6.308607   3.487624   3.925781   2.140540
    22  H    6.121687   6.663970   3.963936   3.431046   3.405312
    23  C    1.359270   1.789598   1.409201   2.532933   2.473173
    24  O    2.438645   4.571267   2.419712   3.672070   1.324026
    25  H    1.799510   4.118141   2.383776   3.760229   1.698865
                   16         17         18         19         20
    16  C    0.000000
    17  H    2.148324   0.000000
    18  C    2.426453   3.926230   0.000000
    19  C    1.421732   3.437657   1.388383   0.000000
    20  H    1.091796   2.461756   3.407590   2.171123   0.000000
    21  H    3.432435   5.016303   1.090413   2.173552   4.330341
    22  H    2.183356   4.324901   2.156343   1.090238   2.497052
    23  C    3.774690   2.794161   3.768114   4.279570   4.665280
    24  O    4.108072   4.575667   2.341685   3.608772   5.199650
    25  H    4.408416   4.548834   2.921890   4.099249   5.493461
                   21         22         23         24         25
    21  H    0.000000
    22  H    2.519717   0.000000
    23  C    4.613512   5.369805   0.000000
    24  O    2.552957   4.494582   2.789437   0.000000
    25  H    3.233170   5.047409   2.386893   0.692522   0.000000
 Symmetry turned off by external request.
 Stoichiometry    C13H9NOS
 Framework group  C1[X(C13H9NOS)]
 Deg. of freedom    69
 Full point group                 C1      NOp   1
 Rotational constants (GHZ):           1.3598329           0.2858401           0.2361920
 Leave Link  202 at Tue Oct 27 21:45:10 2020, MaxMem=  7784628224 cpu:               0.1 elap:               0.0
 (Enter /gpfs/loomis/apps/avx/software/Gaussian/16-C.01_AVX/g16/l301.exe)
 Standard basis: CC-pVDZ (5D, 7F)
 Ernie: Thresh=  0.10000D-02 Tol=  0.10000D-05 Strict=F.
 Ernie:  40 primitive shells out of 425 were deleted.
   273 basis functions,   629 primitive gaussians,   289 cartesian basis functions
    59 alpha electrons       59 beta electrons
       nuclear repulsion energy      1097.7548808727 Hartrees.
 IExCor= 4639 DFT=T Ex+Corr=wB97XD ExCW=0 ScaHFX=  1.000000
 ScaDFX=  1.000000  1.000000  1.000000  1.000000 ScalE2=  1.000000  1.000000
 IRadAn=      5 IRanWt=     -1 IRanGd=            0 ICorTp=0 IEmpDi=121
 HFx  wShort=  0.000000 wLong=  0.200000 cFull=  0.222036 cShort=  0.000000 cLong=  0.777964
 DFx  wShort=  0.000000 wLong=  0.200000 cFull=  0.000000 cShort=  0.000000 cLong=  1.000000
 NAtoms=   25 NActive=   25 NUniq=   25 SFac= 1.00D+00 NAtFMM=   60 NAOKFM=F Big=F
 Integral buffers will be    131072 words long.
 Raffenetti 2 integral format.
 Two-electron integral symmetry is turned off.
 R6Disp:  Grimme-D2 Dispersion energy=       -0.0139769084 Hartrees.
 Nuclear repulsion after empirical dispersion term =     1097.7409039643 Hartrees.
 ------------------------------------------------------------------------------
 Polarizable Continuum Model (PCM)
 =================================
 Model                : PCM.
 Atomic radii         : UFF (Universal Force Field).
 Polarization charges : Total charges.
 Charge compensation  : None.
 Solution method      : On-the-fly selection.
 Cavity type          : Scaled VdW (van der Waals Surface) (Alpha=1.100).
 Cavity algorithm     : GePol (No added spheres)
                        Default sphere list used, NSphG=   25.
                        Lebedev-Laikov grids with approx.  5.0 points / Ang**2.
                        Smoothing algorithm: York/Karplus (Gamma=1.0000).
                        Polarization charges: spherical gaussians, with
                                              point-specific exponents (IZeta= 3).
                        Self-potential: point-specific (ISelfS= 7).
                        Self-field    : sphere-specific E.n sum rule (ISelfD= 2).
 1st derivatives      : Analytical E(r).r(x)/FMM algorithm (CHGder, D1EAlg=3).
                        Cavity 1st derivative terms included.
 Solvent              : CarbonTetraChloride, Eps=   2.228000 Eps(inf)=   2.131892
 ------------------------------------------------------------------------------
 GePol: Number of generator spheres                  =      25
 GePol: Total number of spheres                      =      25
 GePol: Number of exposed spheres                    =      25 (100.00%)
 GePol: Number of points                             =    2187
 GePol: Average weight of points                     =       0.13
 GePol: Minimum weight of points                     =   0.12D-06
 GePol: Maximum weight of points                     =    0.20577
 GePol: Number of points with low weight             =     148
 GePol: Fraction of low-weight points (<1% of avg)   =       6.77%
 GePol: Cavity surface area                          =    274.930 Ang**2
 GePol: Cavity volume                                =    293.834 Ang**3
 Leave Link  301 at Tue Oct 27 21:45:10 2020, MaxMem=  7784628224 cpu:               0.8 elap:               0.1
 (Enter /gpfs/loomis/apps/avx/software/Gaussian/16-C.01_AVX/g16/l302.exe)
 NPDir=0 NMtPBC=     1 NCelOv=     1 NCel=       1 NClECP=     1 NCelD=      1
         NCelK=      1 NCelE2=     1 NClLst=     1 CellRange=     0.0.
 One-electron integrals computed using PRISM.
 NBasis=   273 RedAO= T EigKep=  3.18D-04  NBF=   273
 NBsUse=   273 1.00D-06 EigRej= -1.00D+00 NBFU=   273
 Precomputing XC quadrature grid using
 IXCGrd= 4 IRadAn=           5 IRanWt=          -1 IRanGd=           0 AccXCQ= 0.00D+00.
 Generated NRdTot=       0 NPtTot=           0 NUsed=           0 NTot=          32
 NSgBfM=   288   288   288   288   288 MxSgAt=    25 MxSgA2=    25.
 Leave Link  302 at Tue Oct 27 21:45:11 2020, MaxMem=  7784628224 cpu:               2.5 elap:               0.3
 (Enter /gpfs/loomis/apps/avx/software/Gaussian/16-C.01_AVX/g16/l303.exe)
 DipDrv:  MaxL=1.
 Leave Link  303 at Tue Oct 27 21:45:11 2020, MaxMem=  7784628224 cpu:               0.4 elap:               0.1
 (Enter /gpfs/loomis/apps/avx/software/Gaussian/16-C.01_AVX/g16/l401.exe)
 ExpMin= 1.22D-01 ExpMax= 1.11D+05 ExpMxC= 1.07D+03 IAcc=3 IRadAn=         5 AccDes= 0.00D+00
 Harris functional with IExCor= 4639 and IRadAn=       5 diagonalized for initial guess.
 HarFok:  IExCor= 4639 AccDes= 0.00D+00 IRadAn=         5 IDoV= 1 UseB2=F ITyADJ=14
 ICtDFT=  3500011 ScaDFX=  1.000000  1.000000  1.000000  1.000000
 FoFCou: FMM=F IPFlag=           0 FMFlag=      100000 FMFlg1=           0
         NFxFlg=           0 DoJE=T BraDBF=F KetDBF=T FulRan=T
         wScrn=  0.000000 ICntrl=       500 IOpCl=  0 I1Cent=   200000004 NGrid=           0
         NMat0=    1 NMatS0=      1 NMatT0=    0 NMatD0=    1 NMtDS0=    0 NMtDT0=    0
 Symmetry not used in FoFCou.
 Harris En= -994.275893076409    
 JPrj=0 DoOrth=F DoCkMO=F.
 Leave Link  401 at Tue Oct 27 21:45:12 2020, MaxMem=  7784628224 cpu:              13.8 elap:               1.4
 (Enter /gpfs/loomis/apps/avx/software/Gaussian/16-C.01_AVX/g16/l502.exe)
 Two-electron integral symmetry not used.
 Closed shell SCF:
 Using DIIS extrapolation, IDIIS=  1040.
 NGot=  7784628224 LenX=  7784455381 LenY=  7784371419
 Requested convergence on RMS density matrix=1.00D-08 within 128 cycles.
 Requested convergence on MAX density matrix=1.00D-06.
 Requested convergence on             energy=1.00D-06.
 No special actions if energy rises.
 Fock matrices will be formed incrementally for  20 cycles.

 Cycle   1  Pass 1  IDiag  1:
 FoFJK:  IHMeth= 1 ICntrl=       0 DoSepK=T KAlg= 0 I1Cent=           0 FoldK=F
 IRaf=         1 NMat=       1 IRICut=       1 DoRegI=T DoRafI=F ISym2E= 0 IDoP0=0 IntGTp=1.
 FoFCou: FMM=F IPFlag=           0 FMFlag=      100000 FMFlg1=           0
         NFxFlg=           0 DoJE=T BraDBF=F KetDBF=F FulRan=T
         wScrn=  0.000000 ICntrl=       500 IOpCl=  0 I1Cent=           0 NGrid=           0
         NMat0=    1 NMatS0=      1 NMatT0=    0 NMatD0=    1 NMtDS0=    0 NMtDT0=    0
 Symmetry not used in FoFCou.
 Inv3:  Mode=1 IEnd=    14348907.
 Iteration    1 A*A^-1 deviation from unit magnitude is 5.77D-15 for   2171.
 Iteration    1 A*A^-1 deviation from orthogonality  is 1.91D-15 for   2145   1386.
 Iteration    1 A^-1*A deviation from unit magnitude is 5.77D-15 for   2171.
 Iteration    1 A^-1*A deviation from orthogonality  is 1.90D-15 for   2096   1904.
 E= -1028.44530794288    
 DIIS: error= 3.14D-02 at cycle   1 NSaved=   1.
 NSaved= 1 IEnMin= 1 EnMin= -1028.44530794288     IErMin= 1 ErrMin= 3.14D-02
 ErrMax= 3.14D-02  0.00D+00 EMaxC= 1.00D-01 BMatC= 3.72D-01 BMatP= 3.72D-01
 IDIUse=3 WtCom= 6.86D-01 WtEn= 3.14D-01
 Coeff-Com:  0.100D+01
 Coeff-En:   0.100D+01
 Coeff:      0.100D+01
 Gap=     0.367 Goal=   None    Shift=    0.000
 GapD=    0.367 DampG=1.000 DampE=0.500 DampFc=0.5000 IDamp=-1.
 Damping current iteration by 5.00D-01
 RMSDP=3.42D-03 MaxDP=2.27D-01              OVMax= 1.79D-01

 Cycle   2  Pass 1  IDiag  1:
 RMSU=  1.71D-03    CP:  9.94D-01
 E= -1028.55507817002     Delta-E=       -0.109770227139 Rises=F Damp=T
 DIIS: error= 1.12D-02 at cycle   2 NSaved=   2.
 NSaved= 2 IEnMin= 2 EnMin= -1028.55507817002     IErMin= 2 ErrMin= 1.12D-02
 ErrMax= 1.12D-02  0.00D+00 EMaxC= 1.00D-01 BMatC= 5.70D-02 BMatP= 3.72D-01
 IDIUse=3 WtCom= 8.88D-01 WtEn= 1.12D-01
 Coeff-Com: -0.331D+00 0.133D+01
 Coeff-En:   0.000D+00 0.100D+01
 Coeff:     -0.293D+00 0.129D+01
 Gap=     0.301 Goal=   None    Shift=    0.000
 RMSDP=1.14D-03 MaxDP=2.10D-02 DE=-1.10D-01 OVMax= 1.32D-01

 Cycle   3  Pass 1  IDiag  1:
 RMSU=  1.09D-03    CP:  9.91D-01  1.20D+00
 E= -1028.65022291769     Delta-E=       -0.095144747667 Rises=F Damp=F
 DIIS: error= 6.63D-03 at cycle   3 NSaved=   3.
 NSaved= 3 IEnMin= 3 EnMin= -1028.65022291769     IErMin= 3 ErrMin= 6.63D-03
 ErrMax= 6.63D-03  0.00D+00 EMaxC= 1.00D-01 BMatC= 1.23D-02 BMatP= 5.70D-02
 IDIUse=3 WtCom= 9.34D-01 WtEn= 6.63D-02
 Coeff-Com: -0.210D+00 0.494D+00 0.716D+00
 Coeff-En:   0.000D+00 0.000D+00 0.100D+01
 Coeff:     -0.196D+00 0.461D+00 0.735D+00
 Gap=     0.263 Goal=   None    Shift=    0.000
 RMSDP=5.10D-04 MaxDP=2.14D-02 DE=-9.51D-02 OVMax= 4.17D-02

 Cycle   4  Pass 1  IDiag  1:
 RMSU=  3.71D-04    CP:  9.89D-01  1.38D+00  8.35D-01
 E= -1028.66228561228     Delta-E=       -0.012062694587 Rises=F Damp=F
 DIIS: error= 2.38D-03 at cycle   4 NSaved=   4.
 NSaved= 4 IEnMin= 4 EnMin= -1028.66228561228     IErMin= 4 ErrMin= 2.38D-03
 ErrMax= 2.38D-03  0.00D+00 EMaxC= 1.00D-01 BMatC= 1.94D-03 BMatP= 1.23D-02
 IDIUse=3 WtCom= 9.76D-01 WtEn= 2.38D-02
 Coeff-Com: -0.825D-01 0.165D+00 0.374D+00 0.543D+00
 Coeff-En:   0.000D+00 0.000D+00 0.000D+00 0.100D+01
 Coeff:     -0.805D-01 0.161D+00 0.365D+00 0.554D+00
 Gap=     0.261 Goal=   None    Shift=    0.000
 RMSDP=1.64D-04 MaxDP=9.89D-03 DE=-1.21D-02 OVMax= 1.21D-02

 Cycle   5  Pass 1  IDiag  1:
 RMSU=  1.05D-04    CP:  9.89D-01  1.38D+00  9.09D-01  7.39D-01
 E= -1028.66427993491     Delta-E=       -0.001994322630 Rises=F Damp=F
 DIIS: error= 4.91D-04 at cycle   5 NSaved=   5.
 NSaved= 5 IEnMin= 5 EnMin= -1028.66427993491     IErMin= 5 ErrMin= 4.91D-04
 ErrMax= 4.91D-04  0.00D+00 EMaxC= 1.00D-01 BMatC= 7.48D-05 BMatP= 1.94D-03
 IDIUse=3 WtCom= 9.95D-01 WtEn= 4.91D-03
 Coeff-Com: -0.702D-02 0.821D-02 0.587D-01 0.195D+00 0.745D+00
 Coeff-En:   0.000D+00 0.000D+00 0.000D+00 0.000D+00 0.100D+01
 Coeff:     -0.699D-02 0.817D-02 0.584D-01 0.194D+00 0.747D+00
 Gap=     0.262 Goal=   None    Shift=    0.000
 RMSDP=4.94D-05 MaxDP=1.58D-03 DE=-1.99D-03 OVMax= 4.87D-03

 Cycle   6  Pass 1  IDiag  1:
 RMSU=  3.45D-05    CP:  9.89D-01  1.39D+00  9.23D-01  8.19D-01  1.03D+00
 E= -1028.66440274384     Delta-E=       -0.000122808937 Rises=F Damp=F
 DIIS: error= 1.68D-04 at cycle   6 NSaved=   6.
 NSaved= 6 IEnMin= 6 EnMin= -1028.66440274384     IErMin= 6 ErrMin= 1.68D-04
 ErrMax= 1.68D-04  0.00D+00 EMaxC= 1.00D-01 BMatC= 9.86D-06 BMatP= 7.48D-05
 IDIUse=3 WtCom= 9.98D-01 WtEn= 1.68D-03
 Coeff-Com:  0.156D-01-0.324D-01-0.571D-01-0.451D-01 0.208D+00 0.911D+00
 Coeff-En:   0.000D+00 0.000D+00 0.000D+00 0.000D+00 0.000D+00 0.100D+01
 Coeff:      0.155D-01-0.323D-01-0.570D-01-0.450D-01 0.208D+00 0.911D+00
 Gap=     0.263 Goal=   None    Shift=    0.000
 RMSDP=3.28D-05 MaxDP=1.56D-03 DE=-1.23D-04 OVMax= 3.04D-03

 Cycle   7  Pass 1  IDiag  1:
 RMSU=  1.75D-05    CP:  9.89D-01  1.39D+00  9.36D-01  8.60D-01  1.20D+00
                    CP:  1.20D+00
 E= -1028.66443198352     Delta-E=       -0.000029239673 Rises=F Damp=F
 DIIS: error= 1.24D-04 at cycle   7 NSaved=   7.
 NSaved= 7 IEnMin= 7 EnMin= -1028.66443198352     IErMin= 7 ErrMin= 1.24D-04
 ErrMax= 1.24D-04  0.00D+00 EMaxC= 1.00D-01 BMatC= 2.12D-06 BMatP= 9.86D-06
 IDIUse=3 WtCom= 9.99D-01 WtEn= 1.24D-03
 Coeff-Com:  0.733D-02-0.142D-01-0.312D-01-0.457D-01-0.268D-01 0.377D+00
 Coeff-Com:  0.733D+00
 Coeff-En:   0.000D+00 0.000D+00 0.000D+00 0.000D+00 0.000D+00 0.000D+00
 Coeff-En:   0.100D+01
 Coeff:      0.732D-02-0.141D-01-0.312D-01-0.457D-01-0.268D-01 0.377D+00
 Coeff:      0.734D+00
 Gap=     0.263 Goal=   None    Shift=    0.000
 RMSDP=1.10D-05 MaxDP=5.67D-04 DE=-2.92D-05 OVMax= 1.34D-03

 Cycle   8  Pass 1  IDiag  1:
 RMSU=  7.17D-06    CP:  9.89D-01  1.39D+00  9.38D-01  8.65D-01  1.24D+00
                    CP:  1.39D+00  1.05D+00
 E= -1028.66443663782     Delta-E=       -0.000004654306 Rises=F Damp=F
 DIIS: error= 3.52D-05 at cycle   8 NSaved=   8.
 NSaved= 8 IEnMin= 8 EnMin= -1028.66443663782     IErMin= 8 ErrMin= 3.52D-05
 ErrMax= 3.52D-05  0.00D+00 EMaxC= 1.00D-01 BMatC= 2.53D-07 BMatP= 2.12D-06
 IDIUse=1 WtCom= 1.00D+00 WtEn= 0.00D+00
 Coeff-Com: -0.866D-03 0.205D-02 0.193D-02-0.323D-02-0.388D-01-0.488D-01
 Coeff-Com:  0.218D+00 0.869D+00
 Coeff:     -0.866D-03 0.205D-02 0.193D-02-0.323D-02-0.388D-01-0.488D-01
 Coeff:      0.218D+00 0.869D+00
 Gap=     0.263 Goal=   None    Shift=    0.000
 RMSDP=4.67D-06 MaxDP=1.38D-04 DE=-4.65D-06 OVMax= 6.26D-04

 Cycle   9  Pass 1  IDiag  1:
 RMSU=  2.23D-06    CP:  9.89D-01  1.39D+00  9.38D-01  8.66D-01  1.24D+00
                    CP:  1.45D+00  1.24D+00  1.10D+00
 E= -1028.66443734093     Delta-E=       -0.000000703103 Rises=F Damp=F
 DIIS: error= 1.63D-05 at cycle   9 NSaved=   9.
 NSaved= 9 IEnMin= 9 EnMin= -1028.66443734093     IErMin= 9 ErrMin= 1.63D-05
 ErrMax= 1.63D-05  0.00D+00 EMaxC= 1.00D-01 BMatC= 4.77D-08 BMatP= 2.53D-07
 IDIUse=1 WtCom= 1.00D+00 WtEn= 0.00D+00
 Coeff-Com: -0.124D-02 0.250D-02 0.468D-02 0.514D-02-0.105D-01-0.699D-01
 Coeff-Com: -0.135D-01 0.327D+00 0.756D+00
 Coeff:     -0.124D-02 0.250D-02 0.468D-02 0.514D-02-0.105D-01-0.699D-01
 Coeff:     -0.135D-01 0.327D+00 0.756D+00
 Gap=     0.263 Goal=   None    Shift=    0.000
 RMSDP=1.81D-06 MaxDP=5.78D-05 DE=-7.03D-07 OVMax= 1.65D-04

 Cycle  10  Pass 1  IDiag  1:
 RMSU=  9.39D-07    CP:  9.89D-01  1.39D+00  9.38D-01  8.66D-01  1.25D+00
                    CP:  1.47D+00  1.28D+00  1.25D+00  1.09D+00
 E= -1028.66443745523     Delta-E=       -0.000000114307 Rises=F Damp=F
 DIIS: error= 6.76D-06 at cycle  10 NSaved=  10.
 NSaved=10 IEnMin=10 EnMin= -1028.66443745523     IErMin=10 ErrMin= 6.76D-06
 ErrMax= 6.76D-06  0.00D+00 EMaxC= 1.00D-01 BMatC= 6.34D-09 BMatP= 4.77D-08
 IDIUse=1 WtCom= 1.00D+00 WtEn= 0.00D+00
 Coeff-Com: -0.255D-03 0.471D-03 0.118D-02 0.237D-02 0.277D-02-0.189D-01
 Coeff-Com: -0.418D-01-0.304D-01 0.218D+00 0.867D+00
 Coeff:     -0.255D-03 0.471D-03 0.118D-02 0.237D-02 0.277D-02-0.189D-01
 Coeff:     -0.418D-01-0.304D-01 0.218D+00 0.867D+00
 Gap=     0.263 Goal=   None    Shift=    0.000
 RMSDP=9.24D-07 MaxDP=3.00D-05 DE=-1.14D-07 OVMax= 1.33D-04

 Cycle  11  Pass 1  IDiag  1:
 RMSU=  4.36D-07    CP:  9.89D-01  1.39D+00  9.38D-01  8.66D-01  1.25D+00
                    CP:  1.48D+00  1.31D+00  1.30D+00  1.29D+00  1.16D+00
 E= -1028.66443748084     Delta-E=       -0.000000025604 Rises=F Damp=F
 DIIS: error= 2.85D-06 at cycle  11 NSaved=  11.
 NSaved=11 IEnMin=11 EnMin= -1028.66443748084     IErMin=11 ErrMin= 2.85D-06
 ErrMax= 2.85D-06  0.00D+00 EMaxC= 1.00D-01 BMatC= 1.68D-09 BMatP= 6.34D-09
 IDIUse=1 WtCom= 1.00D+00 WtEn= 0.00D+00
 Coeff-Com:  0.140D-03-0.292D-03-0.457D-03-0.518D-04 0.278D-02 0.425D-02
 Coeff-Com: -0.927D-02-0.524D-01-0.692D-01 0.318D+00 0.806D+00
 Coeff:      0.140D-03-0.292D-03-0.457D-03-0.518D-04 0.278D-02 0.425D-02
 Coeff:     -0.927D-02-0.524D-01-0.692D-01 0.318D+00 0.806D+00
 Gap=     0.263 Goal=   None    Shift=    0.000
 RMSDP=3.64D-07 MaxDP=7.51D-06 DE=-2.56D-08 OVMax= 5.37D-05

 Cycle  12  Pass 1  IDiag  1:
 RMSU=  1.67D-07    CP:  9.89D-01  1.39D+00  9.38D-01  8.66D-01  1.25D+00
                    CP:  1.48D+00  1.31D+00  1.32D+00  1.36D+00  1.40D+00
                    CP:  1.11D+00
 E= -1028.66443748610     Delta-E=       -0.000000005260 Rises=F Damp=F
 DIIS: error= 1.02D-06 at cycle  12 NSaved=  12.
 NSaved=12 IEnMin=12 EnMin= -1028.66443748610     IErMin=12 ErrMin= 1.02D-06
 ErrMax= 1.02D-06  0.00D+00 EMaxC= 1.00D-01 BMatC= 2.87D-10 BMatP= 1.68D-09
 IDIUse=1 WtCom= 1.00D+00 WtEn= 0.00D+00
 Coeff-Com:  0.108D-03-0.212D-03-0.453D-03-0.577D-03 0.424D-03 0.595D-02
 Coeff-Com:  0.701D-02-0.904D-02-0.933D-01-0.101D+00 0.217D+00 0.974D+00
 Coeff:      0.108D-03-0.212D-03-0.453D-03-0.577D-03 0.424D-03 0.595D-02
 Coeff:      0.701D-02-0.904D-02-0.933D-01-0.101D+00 0.217D+00 0.974D+00
 Gap=     0.263 Goal=   None    Shift=    0.000
 RMSDP=2.30D-07 MaxDP=5.14D-06 DE=-5.26D-09 OVMax= 3.52D-05

 Cycle  13  Pass 1  IDiag  1:
 RMSU=  7.08D-08    CP:  9.89D-01  1.39D+00  9.38D-01  8.66D-01  1.25D+00
                    CP:  1.48D+00  1.31D+00  1.33D+00  1.41D+00  1.53D+00
                    CP:  1.40D+00  1.27D+00
 E= -1028.66443748748     Delta-E=       -0.000000001384 Rises=F Damp=F
 DIIS: error= 4.67D-07 at cycle  13 NSaved=  13.
 NSaved=13 IEnMin=13 EnMin= -1028.66443748748     IErMin=13 ErrMin= 4.67D-07
 ErrMax= 4.67D-07  0.00D+00 EMaxC= 1.00D-01 BMatC= 3.25D-11 BMatP= 2.87D-10
 IDIUse=1 WtCom= 1.00D+00 WtEn= 0.00D+00
 Coeff-Com:  0.120D-05-0.119D-06-0.281D-04-0.106D-03-0.217D-03 0.734D-03
 Coeff-Com:  0.288D-02 0.705D-02-0.115D-01-0.615D-01-0.884D-01 0.218D+00
 Coeff-Com:  0.933D+00
 Coeff:      0.120D-05-0.119D-06-0.281D-04-0.106D-03-0.217D-03 0.734D-03
 Coeff:      0.288D-02 0.705D-02-0.115D-01-0.615D-01-0.884D-01 0.218D+00
 Coeff:      0.933D+00
 Gap=     0.263 Goal=   None    Shift=    0.000
 RMSDP=6.84D-08 MaxDP=1.63D-06 DE=-1.38D-09 OVMax= 9.16D-06

 Cycle  14  Pass 1  IDiag  1:
 RMSU=  2.71D-08    CP:  9.89D-01  1.39D+00  9.38D-01  8.66D-01  1.25D+00
                    CP:  1.48D+00  1.31D+00  1.33D+00  1.41D+00  1.56D+00
                    CP:  1.47D+00  1.49D+00  1.19D+00
 E= -1028.66443748761     Delta-E=       -0.000000000132 Rises=F Damp=F
 DIIS: error= 1.25D-07 at cycle  14 NSaved=  14.
 NSaved=14 IEnMin=14 EnMin= -1028.66443748761     IErMin=14 ErrMin= 1.25D-07
 ErrMax= 1.25D-07  0.00D+00 EMaxC= 1.00D-01 BMatC= 5.19D-12 BMatP= 3.25D-11
 IDIUse=1 WtCom= 1.00D+00 WtEn= 0.00D+00
 Coeff-Com: -0.115D-04 0.233D-04 0.403D-04 0.254D-04-0.123D-03-0.390D-03
 Coeff-Com:  0.180D-03 0.343D-02 0.524D-02-0.911D-02-0.548D-01-0.301D-01
 Coeff-Com:  0.336D+00 0.749D+00
 Coeff:     -0.115D-04 0.233D-04 0.403D-04 0.254D-04-0.123D-03-0.390D-03
 Coeff:      0.180D-03 0.343D-02 0.524D-02-0.911D-02-0.548D-01-0.301D-01
 Coeff:      0.336D+00 0.749D+00
 Gap=     0.263 Goal=   None    Shift=    0.000
 RMSDP=1.75D-08 MaxDP=4.05D-07 DE=-1.32D-10 OVMax= 2.48D-06

 Cycle  15  Pass 1  IDiag  1:
 RMSU=  8.98D-09    CP:  9.89D-01  1.39D+00  9.38D-01  8.66D-01  1.25D+00
                    CP:  1.48D+00  1.31D+00  1.33D+00  1.42D+00  1.57D+00
                    CP:  1.48D+00  1.53D+00  1.34D+00  1.06D+00
 E= -1028.66443748762     Delta-E=       -0.000000000008 Rises=F Damp=F
 DIIS: error= 4.96D-08 at cycle  15 NSaved=  15.
 NSaved=15 IEnMin=15 EnMin= -1028.66443748762     IErMin=15 ErrMin= 4.96D-08
 ErrMax= 4.96D-08  0.00D+00 EMaxC= 1.00D-01 BMatC= 4.97D-13 BMatP= 5.19D-12
 IDIUse=1 WtCom= 1.00D+00 WtEn= 0.00D+00
 Coeff-Com: -0.254D-05 0.472D-05 0.138D-04 0.241D-04 0.125D-05-0.230D-03
 Coeff-Com: -0.502D-03-0.311D-03 0.320D-02 0.887D-02 0.182D-02-0.452D-01
 Coeff-Com: -0.759D-01 0.143D+00 0.966D+00
 Coeff:     -0.254D-05 0.472D-05 0.138D-04 0.241D-04 0.125D-05-0.230D-03
 Coeff:     -0.502D-03-0.311D-03 0.320D-02 0.887D-02 0.182D-02-0.452D-01
 Coeff:     -0.759D-01 0.143D+00 0.966D+00
 Gap=     0.263 Goal=   None    Shift=    0.000
 RMSDP=8.00D-09 MaxDP=1.70D-07 DE=-8.19D-12 OVMax= 7.92D-07

 Error on total polarization charges =  0.00799
 SCF Done:  E(RwB97XD) =  -1028.66443749     A.U. after   15 cycles
            NFock= 15  Conv=0.80D-08     -V/T= 2.0040
 KE= 1.024595477173D+03 PE=-4.607934350243D+03 EE= 1.456933531618D+03
 Leave Link  502 at Tue Oct 27 21:46:35 2020, MaxMem=  7784628224 cpu:             822.3 elap:              82.9
 (Enter /gpfs/loomis/apps/avx/software/Gaussian/16-C.01_AVX/g16/l601.exe)
 Copying SCF densities to generalized density rwf, IOpCl= 0 IROHF=0.

 **********************************************************************

            Population analysis using the SCF Density.

 **********************************************************************

 Alpha  occ. eigenvalues --  -89.08759 -19.27217 -14.45754 -10.39235 -10.38659
 Alpha  occ. eigenvalues --  -10.34441 -10.34352 -10.33183 -10.32514 -10.32264
 Alpha  occ. eigenvalues --  -10.31965 -10.31275 -10.31210 -10.31094 -10.30926
 Alpha  occ. eigenvalues --  -10.30902  -8.10679  -6.05527  -6.05188  -6.04747
 Alpha  occ. eigenvalues --   -1.25225  -1.07979  -0.97172  -0.95616  -0.91405
 Alpha  occ. eigenvalues --   -0.88842  -0.86659  -0.84310  -0.82765  -0.77224
 Alpha  occ. eigenvalues --   -0.73029  -0.70313  -0.69605  -0.68570  -0.64741
 Alpha  occ. eigenvalues --   -0.60241  -0.59447  -0.58390  -0.56238  -0.54773
 Alpha  occ. eigenvalues --   -0.53879  -0.53505  -0.52655  -0.51022  -0.51000
 Alpha  occ. eigenvalues --   -0.49318  -0.48419  -0.46046  -0.45642  -0.44983
 Alpha  occ. eigenvalues --   -0.43585  -0.43279  -0.42150  -0.39611  -0.36940
 Alpha  occ. eigenvalues --   -0.36476  -0.32279  -0.31629  -0.28153
 Alpha virt. eigenvalues --   -0.01846   0.05417   0.06622   0.07160   0.07826
 Alpha virt. eigenvalues --    0.11482   0.13620   0.15241   0.16123   0.18125
 Alpha virt. eigenvalues --    0.18579   0.21288   0.21831   0.22313   0.23008
 Alpha virt. eigenvalues --    0.23479   0.23811   0.25072   0.28167   0.30862
 Alpha virt. eigenvalues --    0.32121   0.33601   0.35134   0.36307   0.36992
 Alpha virt. eigenvalues --    0.37965   0.38524   0.40833   0.44049   0.46076
 Alpha virt. eigenvalues --    0.46830   0.48642   0.50964   0.51294   0.51805
 Alpha virt. eigenvalues --    0.52362   0.53587   0.54604   0.54947   0.55857
 Alpha virt. eigenvalues --    0.56020   0.56404   0.57371   0.58065   0.58199
 Alpha virt. eigenvalues --    0.58777   0.59043   0.59664   0.59900   0.60050
 Alpha virt. eigenvalues --    0.60680   0.60938   0.62191   0.62741   0.64085
 Alpha virt. eigenvalues --    0.65183   0.66070   0.66499   0.68544   0.69101
 Alpha virt. eigenvalues --    0.70449   0.72023   0.72506   0.72951   0.73256
 Alpha virt. eigenvalues --    0.74039   0.75506   0.76185   0.77369   0.78576
 Alpha virt. eigenvalues --    0.79403   0.79449   0.80955   0.82358   0.82474
 Alpha virt. eigenvalues --    0.83815   0.89042   0.91884   0.93280   0.93906
 Alpha virt. eigenvalues --    0.95087   0.95125   0.96231   0.96871   0.97655
 Alpha virt. eigenvalues --    0.98641   0.99189   1.00429   1.01030   1.02211
 Alpha virt. eigenvalues --    1.03051   1.04935   1.06183   1.07450   1.07939
 Alpha virt. eigenvalues --    1.08228   1.08935   1.09483   1.10798   1.11009
 Alpha virt. eigenvalues --    1.12095   1.13248   1.13258   1.15296   1.15748
 Alpha virt. eigenvalues --    1.16953   1.18980   1.20531   1.22076   1.24124
 Alpha virt. eigenvalues --    1.25210   1.28999   1.33497   1.34876   1.34967
 Alpha virt. eigenvalues --    1.35498   1.36395   1.38621   1.43643   1.43960
 Alpha virt. eigenvalues --    1.47959   1.48892   1.51782   1.52726   1.54622
 Alpha virt. eigenvalues --    1.55453   1.56175   1.57122   1.57492   1.58343
 Alpha virt. eigenvalues --    1.58900   1.59701   1.62107   1.66287   1.66510
 Alpha virt. eigenvalues --    1.68267   1.68481   1.70290   1.70750   1.70864
 Alpha virt. eigenvalues --    1.72195   1.72644   1.72837   1.73906   1.74895
 Alpha virt. eigenvalues --    1.76352   1.77404   1.80025   1.81350   1.82337
 Alpha virt. eigenvalues --    1.82999   1.83578   1.84931   1.85904   1.86081
 Alpha virt. eigenvalues --    1.86740   1.88352   1.89051   1.90379   1.92334
 Alpha virt. eigenvalues --    1.92511   1.93087   1.93934   1.94740   1.94907
 Alpha virt. eigenvalues --    2.00567   2.00794   2.02455   2.03766   2.04821
 Alpha virt. eigenvalues --    2.07898   2.08627   2.09267   2.11293   2.12108
 Alpha virt. eigenvalues --    2.16492   2.17992   2.20786   2.24854   2.26217
 Alpha virt. eigenvalues --    2.26453   2.28206   2.36962   2.38631   2.42046
 Alpha virt. eigenvalues --    2.42242   2.43867   2.47547   2.47888   2.48274
 Alpha virt. eigenvalues --    2.50120   2.51145   2.54197   2.61325   2.62943
 Alpha virt. eigenvalues --    2.66271   2.72741   2.75175   2.78520   2.81468
 Alpha virt. eigenvalues --    2.82428   2.84345   2.89539   2.91690   2.99649
 Alpha virt. eigenvalues --    3.02535   3.09906   3.29840   3.32367   3.33008
 Alpha virt. eigenvalues --    3.54521   3.57396   3.72681   4.51543
          Condensed to atoms (all electrons):
               1          2          3          4          5          6
     1  C    4.760102   0.441027   0.012991  -0.054225  -0.012720   0.525341
     2  C    0.441027   5.342756   0.336434  -0.035851  -0.065056  -0.006925
     3  C    0.012991   0.336434   4.743920   0.489134  -0.005749  -0.065146
     4  C   -0.054225  -0.035851   0.489134   4.780114   0.526704  -0.013668
     5  C   -0.012720  -0.065056  -0.005749   0.526704   4.734772   0.486906
     6  C    0.525341  -0.006925  -0.065146  -0.013668   0.486906   4.749874
     7  H    0.400910  -0.038481   0.008129  -0.000450   0.008068  -0.039157
     8  H   -0.001132   0.012476  -0.031015   0.391620  -0.045107   0.008113
     9  H    0.008929  -0.000788   0.008780  -0.039698   0.404979  -0.045717
    10  H   -0.042095   0.009810  -0.000638   0.008743  -0.044020   0.405476
    11  N    0.009305  -0.065231   0.520218  -0.042351   0.003140  -0.000057
    12  S   -0.065131   0.347306  -0.099786   0.007322   0.000194   0.003533
    13  C   -0.000158   0.004008   0.007814  -0.000778   0.000010   0.000002
    14  C   -0.000007  -0.000032   0.000389   0.000007  -0.000000  -0.000000
    15  C    0.000006   0.000040  -0.001480   0.000006  -0.000001   0.000000
    16  C    0.000000  -0.000001   0.000005  -0.000000   0.000000   0.000000
    17  H   -0.000002   0.000053  -0.000006  -0.000000   0.000000  -0.000000
    18  C    0.000000   0.000007  -0.000040  -0.000000  -0.000000   0.000000
    19  C   -0.000000   0.000000   0.000003  -0.000000   0.000000   0.000000
    20  H   -0.000000  -0.000000  -0.000000   0.000000   0.000000  -0.000000
    21  H   -0.000000  -0.000000   0.000001   0.000000   0.000000  -0.000000
    22  H   -0.000000  -0.000000   0.000000  -0.000000   0.000000   0.000000
    23  C    0.004975  -0.057686  -0.134823   0.000072   0.000255  -0.000190
    24  O    0.000001  -0.000039  -0.001170  -0.000020  -0.000000  -0.000000
    25  H   -0.000062   0.001621  -0.002211  -0.000732   0.000007   0.000009
               7          8          9         10         11         12
     1  C    0.400910  -0.001132   0.008929  -0.042095   0.009305  -0.065131
     2  C   -0.038481   0.012476  -0.000788   0.009810  -0.065231   0.347306
     3  C    0.008129  -0.031015   0.008780  -0.000638   0.520218  -0.099786
     4  C   -0.000450   0.391620  -0.039698   0.008743  -0.042351   0.007322
     5  C    0.008068  -0.045107   0.404979  -0.044020   0.003140   0.000194
     6  C   -0.039157   0.008113  -0.045717   0.405476  -0.000057   0.003533
     7  H    0.663094   0.000036  -0.000149  -0.012124  -0.000126  -0.006619
     8  H    0.000036   0.663249  -0.012600  -0.000126  -0.000733  -0.000096
     9  H   -0.000149  -0.012600   0.671179  -0.012356  -0.000110   0.000021
    10  H   -0.012124  -0.000126  -0.012356   0.667763  -0.000002  -0.000145
    11  N   -0.000126  -0.000733  -0.000110  -0.000002   6.437347  -0.080942
    12  S   -0.006619  -0.000096   0.000021  -0.000145  -0.080942  15.497315
    13  C    0.000005   0.000042  -0.000000  -0.000000  -0.015809  -0.061939
    14  C    0.000000   0.000001   0.000000  -0.000000   0.003595  -0.005687
    15  C   -0.000000  -0.000051   0.000000   0.000000  -0.024799   0.004752
    16  C   -0.000000  -0.000000  -0.000000   0.000000  -0.000094  -0.000082
    17  H    0.000001   0.000000  -0.000000  -0.000000   0.000190   0.006446
    18  C   -0.000000   0.000000  -0.000000  -0.000000  -0.000299  -0.000086
    19  C    0.000000   0.000000  -0.000000  -0.000000   0.000053   0.000016
    20  H   -0.000000  -0.000000   0.000000   0.000000   0.000001  -0.000001
    21  H   -0.000000  -0.000000   0.000000   0.000000  -0.000004   0.000002
    22  H    0.000000   0.000000  -0.000000  -0.000000   0.000000  -0.000000
    23  C    0.000045  -0.001049   0.000008   0.000003   0.549493   0.304827
    24  O   -0.000000  -0.000148   0.000000  -0.000000  -0.033794  -0.000115
    25  H    0.000001   0.001263  -0.000003   0.000000   0.057641   0.002423
              13         14         15         16         17         18
     1  C   -0.000158  -0.000007   0.000006   0.000000  -0.000002   0.000000
     2  C    0.004008  -0.000032   0.000040  -0.000001   0.000053   0.000007
     3  C    0.007814   0.000389  -0.001480   0.000005  -0.000006  -0.000040
     4  C   -0.000778   0.000007   0.000006  -0.000000  -0.000000  -0.000000
     5  C    0.000010  -0.000000  -0.000001   0.000000   0.000000  -0.000000
     6  C    0.000002  -0.000000   0.000000   0.000000  -0.000000   0.000000
     7  H    0.000005   0.000000  -0.000000  -0.000000   0.000001  -0.000000
     8  H    0.000042   0.000001  -0.000051  -0.000000   0.000000   0.000000
     9  H   -0.000000   0.000000   0.000000  -0.000000  -0.000000  -0.000000
    10  H   -0.000000  -0.000000   0.000000   0.000000  -0.000000  -0.000000
    11  N   -0.015809   0.003595  -0.024799  -0.000094   0.000190  -0.000299
    12  S   -0.061939  -0.005687   0.004752  -0.000082   0.006446  -0.000086
    13  C    5.341532   0.503343   0.263090  -0.010419  -0.037430  -0.079121
    14  C    0.503343   4.786502  -0.019041   0.529231   0.402641  -0.053054
    15  C    0.263090  -0.019041   4.900821  -0.064684   0.008259   0.489372
    16  C   -0.010419   0.529231  -0.064684   4.743251  -0.036909  -0.015169
    17  H   -0.037430   0.402641   0.008259  -0.036909   0.669574  -0.000767
    18  C   -0.079121  -0.053054   0.489372  -0.015169  -0.000767   4.825478
    19  C   -0.044849  -0.017416  -0.007781   0.488942   0.008429   0.505675
    20  H    0.008699  -0.035347  -0.000330   0.402132  -0.012941   0.008468
    21  H    0.011237  -0.000381  -0.024205   0.007105   0.000039   0.383171
    22  H   -0.000873   0.008889   0.009115  -0.042927  -0.000146  -0.041980
    23  C    0.295147  -0.089296  -0.065780   0.007653  -0.020538   0.007697
    24  O   -0.070399   0.003436   0.491736   0.000029  -0.000054  -0.059781
    25  H   -0.053858  -0.001249   0.008317  -0.000035   0.000038   0.010878
              19         20         21         22         23         24
     1  C   -0.000000  -0.000000  -0.000000  -0.000000   0.004975   0.000001
     2  C    0.000000  -0.000000  -0.000000  -0.000000  -0.057686  -0.000039
     3  C    0.000003  -0.000000   0.000001   0.000000  -0.134823  -0.001170
     4  C   -0.000000   0.000000   0.000000  -0.000000   0.000072  -0.000020
     5  C    0.000000   0.000000   0.000000   0.000000   0.000255  -0.000000
     6  C    0.000000  -0.000000  -0.000000   0.000000  -0.000190  -0.000000
     7  H    0.000000  -0.000000  -0.000000   0.000000   0.000045  -0.000000
     8  H    0.000000  -0.000000  -0.000000   0.000000  -0.001049  -0.000148
     9  H   -0.000000   0.000000   0.000000  -0.000000   0.000008   0.000000
    10  H   -0.000000   0.000000   0.000000  -0.000000   0.000003  -0.000000
    11  N    0.000053   0.000001  -0.000004   0.000000   0.549493  -0.033794
    12  S    0.000016  -0.000001   0.000002  -0.000000   0.304827  -0.000115
    13  C   -0.044849   0.008699   0.011237  -0.000873   0.295147  -0.070399
    14  C   -0.017416  -0.035347  -0.000381   0.008889  -0.089296   0.003436
    15  C   -0.007781  -0.000330  -0.024205   0.009115  -0.065780   0.491736
    16  C    0.488942   0.402132   0.007105  -0.042927   0.007653   0.000029
    17  H    0.008429  -0.012941   0.000039  -0.000146  -0.020538  -0.000054
    18  C    0.505675   0.008468   0.383171  -0.041980   0.007697  -0.059781
    19  C    4.729885  -0.046940  -0.043025   0.407419   0.000441   0.002684
    20  H   -0.046940   0.673483  -0.000152  -0.011720  -0.000325   0.000003
    21  H   -0.043025  -0.000152   0.652511  -0.011774  -0.000408   0.001666
    22  H    0.407419  -0.011720  -0.011774   0.658816   0.000001  -0.000055
    23  C    0.000441  -0.000325  -0.000408   0.000001   5.129941  -0.001953
    24  O    0.002684   0.000003   0.001666  -0.000055  -0.001953   7.111636
    25  H   -0.000063  -0.000001   0.000277   0.000005   0.006678   0.446150
              25
     1  C   -0.000062
     2  C    0.001621
     3  C   -0.002211
     4  C   -0.000732
     5  C    0.000007
     6  C    0.000009
     7  H    0.000001
     8  H    0.001263
     9  H   -0.000003
    10  H    0.000000
    11  N    0.057641
    12  S    0.002423
    13  C   -0.053858
    14  C   -0.001249
    15  C    0.008317
    16  C   -0.000035
    17  H    0.000038
    18  C    0.010878
    19  C   -0.000063
    20  H   -0.000001
    21  H    0.000277
    22  H    0.000005
    23  C    0.006678
    24  O    0.446150
    25  H    0.643212
 Mulliken charges:
               1
     1  C    0.011945
     2  C   -0.225447
     3  C    0.214248
     4  C   -0.015948
     5  C    0.007619
     6  C   -0.008393
     7  H    0.016816
     8  H    0.015258
     9  H    0.017524
    10  H    0.019713
    11  N   -0.316632
    12  S    0.146473
    13  C   -0.059296
    14  C   -0.016524
    15  C    0.032637
    16  C   -0.008028
    17  H    0.013124
    18  C    0.019551
    19  C    0.016527
    20  H    0.014970
    21  H    0.023940
    22  H    0.025230
    23  C    0.064811
    24  O    0.110189
    25  H   -0.120305
 Sum of Mulliken charges =  -0.00000
 Mulliken charges with hydrogens summed into heavy atoms:
               1
     1  C    0.028761
     2  C   -0.225447
     3  C    0.214248
     4  C   -0.000690
     5  C    0.025143
     6  C    0.011320
    11  N   -0.316632
    12  S    0.146473
    13  C   -0.059296
    14  C   -0.003400
    15  C    0.032637
    16  C    0.006942
    18  C    0.043491
    19  C    0.041756
    23  C    0.064811
    24  O   -0.010116
 Electronic spatial extent (au):  <R**2>=           4352.7094
 Charge=             -0.0000 electrons
 Dipole moment (field-independent basis, Debye):
    X=             -0.9234    Y=             -1.1971    Z=              0.0000  Tot=              1.5119
 Quadrupole moment (field-independent basis, Debye-Ang):
   XX=            -82.8966   YY=            -86.9533   ZZ=           -104.1388
   XY=             -7.5933   XZ=             -0.0001   YZ=              0.0002
 Traceless Quadrupole moment (field-independent basis, Debye-Ang):
   XX=              8.4329   YY=              4.3763   ZZ=            -12.8092
   XY=             -7.5933   XZ=             -0.0001   YZ=              0.0002
 Octapole moment (field-independent basis, Debye-Ang**2):
  XXX=              3.4872  YYY=             -4.0663  ZZZ=              0.0000  XYY=             -8.8725
  XXY=              6.3450  XXZ=              0.0001  XZZ=              0.7732  YZZ=              3.7067
  YYZ=              0.0008  XYZ=             -0.0006
 Hexadecapole moment (field-independent basis, Debye-Ang**3):
 XXXX=          -2597.3202 YYYY=          -2585.5637 ZZZZ=           -113.4098 XXXY=            801.0913
 XXXZ=              0.0096 YYYX=            760.5995 YYYZ=             -0.0111 ZZZX=              0.0132
 ZZZY=             -0.0183 XXYY=           -844.3216 XXZZ=           -571.0972 YYZZ=           -550.2190
 XXYZ=             -0.0029 YYXZ=              0.0003 ZZXY=            356.3201
 N-N= 1.097740903964D+03 E-N=-4.607934352999D+03  KE= 1.024595477173D+03
 No NMR shielding tensors so no spin-rotation constants.
 Leave Link  601 at Tue Oct 27 21:46:35 2020, MaxMem=  7784628224 cpu:               1.1 elap:               0.2
 (Enter /gpfs/loomis/apps/avx/software/Gaussian/16-C.01_AVX/g16/l701.exe)
 ... and contract with generalized density number  0.
 Compute integral first derivatives.
 R6Disp: Adding Grimme-D2 dispersion energy 1st derivatives to the gradient.
 D1PCM: PCM CHGder 1st derivatives, ID1Alg=3 FixD1E=F DoIter=F DoCFld=F I1PDM=0.
 GePol: Maximum number of non-zero 1st derivatives   =     266
 Leave Link  701 at Tue Oct 27 21:46:37 2020, MaxMem=  7784628224 cpu:              13.9 elap:               1.4
 (Enter /gpfs/loomis/apps/avx/software/Gaussian/16-C.01_AVX/g16/l702.exe)
 L702 exits ... SP integral derivatives will be done elsewhere.
 Leave Link  702 at Tue Oct 27 21:46:37 2020, MaxMem=  7784628224 cpu:               0.2 elap:               0.0
 (Enter /gpfs/loomis/apps/avx/software/Gaussian/16-C.01_AVX/g16/l703.exe)
 Integral derivatives from FoFJK, PRISM(SPDF).
 Compute integral first derivatives, UseDBF=F ICtDFT=           0.
 Calling FoFJK, ICntrl=      2127 FMM=F ISym2X=0 I1Cent= 0 IOpClX= 0 NMat=1 NMatS=1 NMatT=0.
 FoFJK:  IHMeth= 1 ICntrl=    2127 DoSepK=T KAlg= 0 I1Cent=           0 FoldK=F
 IRaf=         1 NMat=       1 IRICut=       1 DoRegI=T DoRafI=F ISym2E= 0 IDoP0=0 IntGTp=1.
 FoFCou: FMM=F IPFlag=           0 FMFlag=      100000 FMFlg1=         800
         NFxFlg=           0 DoJE=F BraDBF=F KetDBF=F FulRan=T
         wScrn=  0.000000 ICntrl=      2527 IOpCl=  0 I1Cent=           0 NGrid=           0
         NMat0=    1 NMatS0=      1 NMatT0=    0 NMatD0=    1 NMtDS0=    0 NMtDT0=    0
 Symmetry not used in FoFCou.
 Leave Link  703 at Tue Oct 27 21:46:50 2020, MaxMem=  7784628224 cpu:             135.8 elap:              13.6
 (Enter /gpfs/loomis/apps/avx/software/Gaussian/16-C.01_AVX/g16/l716.exe)
 Dipole        =-3.63292727D-01-4.70985361D-01 5.84212981D-06
 -------------------------------------------------------------------
 Center     Atomic                   Forces (Hartrees/Bohr)
 Number     Number              X              Y              Z
 -------------------------------------------------------------------
      1        6           0.006168497   -0.006557548    0.000000012
      2        6           0.004208483    0.013935241   -0.000000110
      3        6           0.026100854   -0.047847826   -0.000000300
      4        6          -0.017703967    0.002648839   -0.000000061
      5        6           0.000323152   -0.008471046    0.000000014
      6        6          -0.004178851    0.004552663   -0.000000021
      7        1           0.000382383   -0.000138665   -0.000000030
      8        1          -0.000316462   -0.000294635   -0.000000006
      9        1          -0.000374466    0.000025826    0.000000002
     10        1          -0.000343912    0.000222739    0.000000012
     11        7          -0.065989913    0.023162190    0.000000557
     12       16           0.005322134    0.012798578    0.000000176
     13        6          -0.030619902    0.062820714    0.000000958
     14        6           0.022601007    0.000270084    0.000000169
     15        6          -0.012295016   -0.035514245   -0.000000647
     16        6          -0.004644329    0.015069631    0.000000387
     17        1          -0.001522075   -0.000948407    0.000000014
     18        6          -0.002794453   -0.004539354   -0.000000076
     19        6           0.001565523   -0.021058719   -0.000000620
     20        1           0.000571149   -0.000157815    0.000000005
     21        1           0.000139813   -0.000246999    0.000000004
     22        1          -0.000254550   -0.000100294   -0.000000061
     23        6           0.066682135   -0.025946052   -0.000000629
     24        8          -0.408264018    0.688723637    0.000014702
     25        1           0.415236784   -0.672408536   -0.000014448
 -------------------------------------------------------------------
 Cartesian Forces:  Max     0.688723637 RMS     0.130996509
 Leave Link  716 at Tue Oct 27 21:46:51 2020, MaxMem=  7784628224 cpu:               0.3 elap:               0.0
 (Enter /gpfs/loomis/apps/avx/software/Gaussian/16-C.01_AVX/g16/l103.exe)

 GradGradGradGradGradGradGradGradGradGradGradGradGradGradGradGradGradGrad
 Berny optimization.
 FormGI is forming the generalized inverse of G from B-inverse, IUseBI=4.
 Internal  Forces:  Max     0.746927119 RMS     0.067371283
 Search for a local minimum.
 Step number   1 out of a maximum of  143
 All quantities printed in internal units (Hartrees-Bohrs-Radians)
 RMS Force = .67884D-01 SwitMx=.10000D-02 MixMth= 1
 Mixed Optimization -- RFO/linear search
 Second derivative matrix not updated -- first step.
 ITU=  0
     Eigenvalues ---    0.01306   0.01409   0.01619   0.01669   0.01753
     Eigenvalues ---    0.01794   0.01940   0.01945   0.01967   0.01989
     Eigenvalues ---    0.01993   0.02019   0.02041   0.02090   0.02093
     Eigenvalues ---    0.02122   0.02163   0.02175   0.02180   0.02201
     Eigenvalues ---    0.02231   0.02697   0.16000   0.16000   0.16000
     Eigenvalues ---    0.16000   0.16000   0.16000   0.16000   0.16003
     Eigenvalues ---    0.16091   0.22000   0.22029   0.22521   0.22582
     Eigenvalues ---    0.24472   0.24554   0.25000   0.25000   0.25000
     Eigenvalues ---    0.26506   0.29333   0.32662   0.34593   0.34606
     Eigenvalues ---    0.34668   0.34682   0.34691   0.34748   0.34765
     Eigenvalues ---    0.34785   0.36964   0.39117   0.39848   0.40871
     Eigenvalues ---    0.42509   0.43111   0.44033   0.44469   0.46204
     Eigenvalues ---    0.46563   0.47828   0.48602   0.50549   0.58318
     Eigenvalues ---    0.60837   1.873781000.000001000.000001000.00000
     Eigenvalues --- 1000.000001000.000001000.000001000.000001000.00000
     Eigenvalues --- 1000.000001000.000001000.000001000.000001000.00000
     Eigenvalues --- 1000.000001000.000001000.000001000.000001000.00000
     Eigenvalues --- 1000.000001000.000001000.000001000.000001000.00000
     Eigenvalues --- 1000.000001000.000001000.000001000.000001000.00000
     Eigenvalues --- 1000.000001000.000001000.000001000.000001000.00000
     Eigenvalues --- 1000.000001000.000001000.000001000.000001000.00000
     Eigenvalues --- 1000.000001000.000001000.000001000.000001000.00000
     Eigenvalues --- 1000.000001000.000001000.000001000.000001000.00000
     Eigenvalues --- 1000.000001000.000001000.000001000.000001000.00000
     Eigenvalues --- 1000.000001000.000001000.000001000.000001000.00000
     Eigenvalues --- 1000.000001000.000001000.000001000.000001000.00000
     Eigenvalues --- 1000.000001000.000001000.00000
 RFO step:  Lambda=-2.86932464D-01 EMin= 1.30626613D-02
 Linear search not attempted -- first point.
 Maximum step size (   0.300) exceeded in Quadratic search.
    -- Step size scaled by   0.792
 Iteration  1 RMS(Cart)=  0.02329604 RMS(Int)=  0.00622057
 Iteration  2 RMS(Cart)=  0.00640836 RMS(Int)=  0.00020698
 Iteration  3 RMS(Cart)=  0.00008800 RMS(Int)=  0.00019602
 Iteration  4 RMS(Cart)=  0.00000011 RMS(Int)=  0.00019612
 Iteration  1 RMS(Cart)=  0.00000096 RMS(Int)=  0.00000022
 ITry= 1 IFail=0 DXMaxC= 2.04D-01 DCOld= 1.00D+10 DXMaxT= 3.00D-01 DXLimC= 3.00D+00 Rises=F
 Variable       Old X    -DE/DX   Delta X   Delta X   Delta X     New X
                                 (Linear)    (Quad)   (Total)
    R1        2.62873   0.01775   0.00000   0.00925   0.00911   2.63784
    R2        2.63770   0.00781   0.00000  -0.00182  -0.00197   2.63573
    R3        2.06180   0.00022   0.00000  -0.00009  -0.00010   2.06171
    R4        2.70421  -0.01384   0.00000  -0.01911  -0.01914   2.68507
    R5        3.31797   0.01025   0.00000   0.00245   0.00231   3.32028
    R6        2.69552  -0.02496   0.00000  -0.02130  -0.02120   2.67433
    R7        2.49621   0.01152   0.00000   0.02762   0.02793   2.52414
    R8        2.60474  -0.01169   0.00000  -0.00082  -0.00066   2.60409
    R9        2.06194  -0.00019   0.00000  -0.00039  -0.00039   2.06155
   R10        2.67038  -0.00100   0.00000  -0.00491  -0.00497   2.66541
   R11        2.06341  -0.00014   0.00000  -0.00038  -0.00038   2.06303
   R12        2.06217  -0.00044   0.00000  -0.00052  -0.00052   2.06165
   R13        2.56865  -0.06341   0.00000  -0.05144  -0.05128   2.51737
   R14        3.38185   0.04387   0.00000   0.00752   0.00695   3.38880
   R15        2.69773   0.00407   0.00000  -0.01165  -0.01187   2.68586
   R16        2.79016   0.03290   0.00000  -0.01872  -0.01943   2.77073
   R17        2.66300   0.07259   0.00000   0.04682   0.04638   2.70938
   R18        2.61228   0.00059   0.00000   0.00162   0.00162   2.61390
   R19        2.06086   0.00136   0.00000   0.00172   0.00172   2.06258
   R20        2.64455  -0.01892   0.00000  -0.00755  -0.00737   2.63718
   R21        2.50205   0.02094   0.00000   0.01025   0.01007   2.51212
   R22        2.68668  -0.02061   0.00000  -0.02286  -0.02285   2.66383
   R23        2.06320  -0.00087   0.00000  -0.00077  -0.00077   2.06242
   R24        2.62366  -0.02585   0.00000  -0.00906  -0.00879   2.61487
   R25        2.06058   0.00024   0.00000  -0.00005  -0.00006   2.06052
   R26        2.06025  -0.00003   0.00000   0.00015   0.00015   2.06040
   R27        1.30868   0.74693   0.00000   0.27399   0.27452   1.58320
    A1        2.07059  -0.00722   0.00000  -0.00504  -0.00501   2.06558
    A2        2.10957   0.00584   0.00000   0.00414   0.00411   2.11368
    A3        2.10302   0.00138   0.00000   0.00090   0.00090   2.10393
    A4        2.11477  -0.01310   0.00000  -0.00344  -0.00327   2.11150
    A5        2.25929   0.03661   0.00000   0.01885   0.01850   2.27780
    A6        1.90912  -0.02351   0.00000  -0.01541  -0.01523   1.89389
    A7        2.07897   0.01867   0.00000   0.00957   0.00941   2.08837
    A8        2.01653   0.01895   0.00000   0.00733   0.00713   2.02366
    A9        2.18769  -0.03762   0.00000  -0.01690  -0.01654   2.17115
   A10        2.07530   0.00209   0.00000   0.00093   0.00093   2.07623
   A11        2.07759  -0.00282   0.00000  -0.00157  -0.00156   2.07604
   A12        2.13029   0.00073   0.00000   0.00065   0.00063   2.13092
   A13        2.11569  -0.00565   0.00000  -0.00410  -0.00406   2.11163
   A14        2.08879   0.00142   0.00000   0.00115   0.00114   2.08994
   A15        2.07871   0.00423   0.00000   0.00295   0.00292   2.08162
   A16        2.11105   0.00521   0.00000   0.00209   0.00201   2.11306
   A17        2.08409  -0.00148   0.00000  -0.00054  -0.00052   2.08358
   A18        2.08804  -0.00372   0.00000  -0.00155  -0.00149   2.08654
   A19        1.98613   0.00999   0.00000   0.00316   0.00307   1.98921
   A20        1.55467   0.00508   0.00000   0.00728   0.00725   1.56192
   A21        2.01706  -0.02686   0.00000  -0.00099  -0.00062   2.01645
   A22        2.20743  -0.03526   0.00000  -0.02078  -0.02047   2.18696
   A23        2.05869   0.06211   0.00000   0.02177   0.02109   2.07978
   A24        2.11468   0.01205   0.00000   0.00813   0.00801   2.12269
   A25        2.07123  -0.00360   0.00000  -0.00139  -0.00135   2.06988
   A26        2.09728  -0.00845   0.00000  -0.00674  -0.00667   2.09061
   A27        2.12913   0.00294   0.00000  -0.00622  -0.00632   2.12280
   A28        2.08468   0.09370   0.00000   0.04801   0.04709   2.13177
   A29        2.06938  -0.09664   0.00000  -0.04179  -0.04076   2.02861
   A30        2.12885  -0.00008   0.00000  -0.00985  -0.00994   2.11892
   A31        2.07910   0.00089   0.00000   0.00526   0.00529   2.08440
   A32        2.07523  -0.00082   0.00000   0.00459   0.00464   2.07987
   A33        2.09251   0.01135   0.00000   0.00714   0.00704   2.09955
   A34        2.06012  -0.00729   0.00000  -0.00473  -0.00467   2.05545
   A35        2.13056  -0.00406   0.00000  -0.00241  -0.00237   2.12818
   A36        2.08414   0.00058   0.00000   0.00180   0.00182   2.08596
   A37        2.09703   0.00138   0.00000  -0.00039  -0.00042   2.09661
   A38        2.10201  -0.00197   0.00000  -0.00141  -0.00140   2.10062
   A39        1.95833  -0.01052   0.00000  -0.00236  -0.00223   1.95610
   A40        2.11387  -0.00958   0.00000  -0.00984  -0.00979   2.10408
   A41        2.21099   0.02010   0.00000   0.01220   0.01202   2.22301
   A42        1.93517   0.02231   0.00000   0.01732   0.01704   1.95221
    D1        0.00000   0.00000   0.00000   0.00000   0.00000   0.00000
    D2       -3.14159   0.00000   0.00000   0.00000   0.00000  -3.14159
    D3        3.14159   0.00000   0.00000   0.00000   0.00000   3.14159
    D4       -0.00000   0.00000   0.00000   0.00000   0.00000  -0.00000
    D5       -0.00000   0.00000   0.00000   0.00000   0.00000  -0.00000
    D6        3.14159   0.00000   0.00000   0.00000   0.00000   3.14159
    D7       -3.14159   0.00000   0.00000   0.00000   0.00000  -3.14159
    D8        0.00000  -0.00000   0.00000  -0.00000  -0.00000   0.00000
    D9       -0.00000  -0.00000   0.00000  -0.00000  -0.00000  -0.00000
   D10        3.14159  -0.00000   0.00000  -0.00000  -0.00000   3.14159
   D11        3.14159  -0.00000   0.00000  -0.00000  -0.00000   3.14159
   D12       -0.00000  -0.00000   0.00000  -0.00000  -0.00000  -0.00000
   D13        3.14159   0.00000   0.00000   0.00000   0.00000   3.14159
   D14       -0.00000   0.00000   0.00000   0.00000   0.00000  -0.00000
   D15        0.00000   0.00000   0.00000   0.00000   0.00000   0.00000
   D16       -3.14159   0.00000   0.00000   0.00000   0.00000  -3.14159
   D17       -3.14159   0.00000   0.00000   0.00000   0.00000  -3.14159
   D18        0.00000   0.00000   0.00000   0.00000   0.00000   0.00000
   D19        0.00000  -0.00000   0.00000  -0.00000  -0.00000   0.00000
   D20       -3.14159  -0.00000   0.00000  -0.00000  -0.00000  -3.14159
   D21       -0.00000  -0.00000   0.00000  -0.00000  -0.00000  -0.00000
   D22       -3.14159  -0.00000   0.00000  -0.00000  -0.00000  -3.14159
   D23       -3.14159   0.00000   0.00000   0.00000   0.00000  -3.14159
   D24        0.00000   0.00000   0.00000   0.00000   0.00000   0.00000
   D25        0.00000  -0.00000   0.00000  -0.00000  -0.00000  -0.00000
   D26       -3.14159  -0.00000   0.00000  -0.00000  -0.00000  -3.14159
   D27        3.14159  -0.00000   0.00000  -0.00000  -0.00000   3.14159
   D28       -0.00000   0.00000   0.00000   0.00000   0.00000  -0.00000
   D29       -0.00001   0.00000   0.00000   0.00000   0.00000  -0.00000
   D30        3.14158   0.00000   0.00000   0.00000   0.00000   3.14158
   D31        0.00000  -0.00000   0.00000  -0.00000  -0.00000   0.00000
   D32       -3.14158  -0.00000   0.00000  -0.00000  -0.00000  -3.14158
   D33       -0.00000  -0.00000   0.00000  -0.00000  -0.00000  -0.00000
   D34        3.14159  -0.00000   0.00000  -0.00000  -0.00000   3.14159
   D35        3.14159  -0.00000   0.00000  -0.00000  -0.00000   3.14159
   D36       -0.00001  -0.00000   0.00000  -0.00000  -0.00000  -0.00001
   D37        0.00000   0.00000   0.00000   0.00000   0.00000   0.00001
   D38       -3.14159   0.00000   0.00000   0.00000   0.00000  -3.14159
   D39       -3.14159   0.00000   0.00000   0.00000   0.00000  -3.14158
   D40        0.00000   0.00000   0.00000   0.00000   0.00000   0.00001
   D41        3.14158  -0.00000   0.00000  -0.00000  -0.00000   3.14158
   D42       -0.00002  -0.00000   0.00000  -0.00000  -0.00000  -0.00002
   D43       -0.00001  -0.00000   0.00000  -0.00000  -0.00000  -0.00001
   D44        3.14157  -0.00000   0.00000  -0.00000  -0.00000   3.14157
   D45        0.00000  -0.00000   0.00000  -0.00000  -0.00000   0.00000
   D46       -3.14159   0.00000   0.00000   0.00000   0.00000  -3.14159
   D47        3.14159  -0.00000   0.00000  -0.00000  -0.00000   3.14159
   D48        0.00000  -0.00000   0.00000  -0.00000  -0.00000   0.00000
[...]
 ,-0.00000013,-0.00613112,-0.25233464,-0.00000243,-0.08774930,0.0205205
 2,0.00000059,-0.01974796,0.67847984,-0.00000001,0.,0.00032688,0.000000
 02,0.00000006,0.00024955,0.00000008,-0.00000003,-0.00090457,-0.0000000
 3,0.,-0.00011828,0.,-0.00000002,0.00007656,0.00000002,0.,-0.00008903,0
 .,0.,0.00001330,0.,0.,-0.00004127,0.,0.,0.00002535,0.,0.,-0.00003844,-
 0.00000001,0.00000026,0.00030760,-0.00000008,0.00000002,0.00119762,0.0
 0000097,-0.00000293,-0.07087984,-0.00000266,0.00000065,0.00168986,-0.0
 0000637,0.00001015,0.17524219,0.00013557,-0.00005733,0.,-0.00028403,0.
 00060054,0.00000001,0.00037656,-0.00080459,0.,-0.00014878,0.00023111,0
 .,-0.00000327,0.00000410,0.,-0.00011370,0.00005887,0.,-0.00001071,0.00
 002283,0.,0.00003991,-0.00001139,0.,-0.00002440,0.00001812,0.,-0.00000
 326,0.00001129,0.,-0.00308842,0.00195109,0.,-0.00013018,0.00059215,-0.
 00000002,-0.04293250,0.01512739,0.00000014,-0.22890580,0.15742743,0.00
 000326,0.00063127,0.01686971,0.00000028,0.76533246,-0.00048116,0.00087
 009,0.,0.00117641,-0.00079167,0.00000001,-0.00039046,0.00121272,0.0000
 0003,-0.00041702,-0.00011551,0.,-0.00013079,-0.00080890,-0.00000001,0.
 00103167,-0.00015406,-0.00000001,-0.00003601,-0.00007527,0.,0.00001910
 ,0.00003981,0.,0.00010130,-0.00003777,0.,0.00005924,-0.00003241,0.,0.0
 0571580,0.00201373,0.,-0.00145528,-0.00100972,-0.00000003,0.06754074,0
 .03790288,0.00000087,0.08435782,-0.26987860,-0.00000436,0.02560623,-0.
 07461805,-0.00000202,0.00128651,0.67998142,-0.00000002,0.00000003,0.00
 005676,0.00000006,-0.00000002,0.00031360,0.00000001,0.,-0.00069600,-0.
 00000003,0.,-0.00012274,0.,-0.00000004,0.00007075,0.00000004,0.,-0.000
 01514,0.,0.,0.00000160,0.,0.,0.00000049,0.,0.,0.00001528,0.,0.,-0.0000
 2599,0.00000007,0.00000008,0.00011643,-0.00000002,-0.00000006,-0.00058
 250,0.00000140,0.00000081,0.00719594,0.00000180,-0.00000473,-0.0627834
 9,0.00000071,-0.00000170,-0.00436914,0.00000246,0.00001548,0.12841562,
 0.00025875,0.00006274,0.,-0.00063622,0.00018011,0.00000006,0.00028190,
 -0.00005758,0.,0.00001206,0.00002604,0.,0.00004775,0.00004861,0.,-0.00
 005360,-0.00008352,0.,-0.00001232,-0.00001030,0.,0.00003294,0.00000723
 ,0.,0.00001087,-0.00000084,0.,0.00003067,-0.00000557,0.,0.00024378,0.0
 0040175,0.,-0.00072483,0.00165966,-0.00000012,-0.00536139,-0.02796620,
 -0.00000065,-0.09522349,-0.09578959,-0.00000252,-0.00551874,0.00107604
 ,-0.00000003,0.01095901,0.01958446,0.00000047,0.09706528,0.00000209,-0
 .00002618,0.,-0.00005397,0.00043005,0.00000002,0.00021903,-0.00018758,
 0.,-0.00000271,0.00005337,0.,0.00001099,0.00003859,0.,-0.00005672,0.00
 001507,0.,-0.00000603,0.00000805,0.,0.00001629,0.00000082,0.,-0.000004
 30,0.00000177,0.,-0.00000203,0.00000183,0.,-0.00055265,0.00023187,0.00
 000001,0.00009002,0.00022879,-0.00000013,0.00116534,-0.00093669,-0.000
 00008,-0.09368819,-0.30339042,-0.00000650,-0.00005428,0.00186776,-0.00
 000013,-0.01263898,-0.01701541,-0.00000052,0.10038837,0.32109348,0.000
 00002,0.,-0.00001229,-0.00000004,0.00000002,-0.00051363,0.,0.00000001,
 0.00010901,0.00000001,0.,0.00008355,0.,0.00000001,-0.00002622,0.,-0.00
 000001,0.00002666,0.,0.,-0.00001290,0.,0.,-0.00001648,0.,0.,-0.0000060
 6,0.,0.,0.00001948,0.00000006,0.00000001,0.00006249,-0.00000008,-0.000
 00008,0.00100720,0.00000031,-0.00000012,0.00309476,-0.00000283,-0.0000
 0641,-0.03747820,-0.00000002,-0.00000022,0.00587486,-0.00000013,-0.000
 00071,0.00479498,0.00000268,0.00000736,0.02488170,0.00012798,0.0003487
 6,0.00000001,0.00035800,-0.00009571,0.00000003,0.00101851,-0.00013776,
 -0.00000001,-0.00037461,-0.00013599,0.,-0.00000548,-0.00033260,0.,0.00
 030844,-0.00008588,0.,-0.00003316,-0.00000552,0.,0.00009719,0.00001500
 ,0.,0.00003784,-0.00001603,0.,0.00003150,-0.00000046,0.,0.00196074,0.0
 0365600,-0.00000005,0.00034998,0.00006257,-0.00000004,0.05722833,0.033
 44004,0.00000118,-0.06238251,0.02725182,0.00000064,-0.18216822,0.06190
 513,0.00000227,-0.00699772,-0.08862968,-0.00000219,-0.00083929,0.00060
 868,-0.00000017,0.77941219,0.00035941,-0.00025929,0.,-0.00093325,-0.00
 021174,0.,-0.00033202,0.00008791,0.,0.00039886,0.00003171,0.,0.0000845
 3,0.00046995,0.,-0.00045286,-0.00006405,0.,-0.00000211,0.00002407,0.,0
 .00000303,-0.00001004,0.,-0.00002729,0.00001559,0.,0.00000854,0.000003
 58,0.,-0.00101308,-0.00073991,0.,0.00131167,-0.00022504,0.,-0.00486186
 ,-0.03679131,-0.00000124,0.02318859,-0.01290262,-0.00000025,0.13279138
 ,-0.26271456,-0.00000593,-0.03803790,0.01989301,0.00000020,0.00034112,
 0.00053269,0.00000014,0.04567310,0.72736398,0.00000002,-0.00000002,-0.
 00021400,-0.00000007,0.,-0.00003745,-0.00000002,0.,-0.00040256,0.00000
 002,0.,0.00000800,0.,0.00000003,0.00001162,-0.00000003,0.,0.00002045,0
 .,0.,-0.00001556,0.,0.,-0.00001017,0.,0.,-0.00000704,0.,0.,0.00003878,
 -0.00000005,-0.00000005,0.00077764,0.00000007,-0.00000002,-0.00008044,
 -0.00000007,-0.00000066,0.00735549,0.00000056,-0.00000029,-0.00353009,
 0.00000399,-0.00000634,-0.07087790,-0.00000100,0.00000015,0.00831700,0
 .,0.00000005,-0.00102900,-0.00000236,0.00001605,0.12387104,0.00033460,
 -0.00062212,0.,-0.00114025,0.00036842,-0.00000001,-0.00040778,-0.00011
 344,0.,0.00059250,0.00008726,0.,0.00007334,0.00075620,0.,-0.00079773,0
 .00003826,0.,0.00002421,0.00005581,0.,-0.00002828,-0.00003625,0.,-0.00
 007641,0.00003357,0.,-0.00003933,0.00002165,0.,-0.00278687,-0.00148561
 ,0.00000001,0.00098910,0.00026162,0.00000002,-0.04181515,-0.02360531,-
 0.00000064,0.06556468,-0.00825932,-0.00000022,-0.05282076,0.06393622,0
 .00000190,-0.15424915,-0.03043020,-0.00000140,-0.00214398,0.00422257,0
 .00000019,-0.39472712,-0.08035494,-0.00000101,0.75181882,0.00010658,-0
 .00019905,0.,-0.00020946,0.00026915,0.,0.00029550,-0.00083006,-0.00000
 001,-0.00007967,0.00013633,0.,0.00004361,0.00008972,0.,-0.00021602,0.0
 0009560,0.,0.00001053,0.00001373,0.,-0.00001411,-0.00000675,0.,-0.0000
 2779,0.00001154,0.,-0.00001061,0.00000682,0.,-0.00354164,-0.00069303,0
 .00000003,0.00036601,0.00023445,0.00000002,-0.03939150,-0.02414626,-0.
 00000070,0.04920618,-0.05889154,-0.00000177,0.00768790,0.06218154,0.00
 000151,-0.10444455,-0.30921905,-0.00000788,0.00344140,-0.00218223,-0.0
 0000011,-0.00851259,-0.14039596,-0.00000178,-0.03346934,0.71391121,0.,
 0.,0.00001741,0.,0.00000001,-0.00000866,0.00000002,-0.00000003,0.00019
 202,0.,0.,0.00000929,0.,0.,-0.00001525,0.,0.,0.00000315,0.,0.,-0.00000
 011,0.,0.,0.00000789,0.,0.,-0.00000116,0.,0.,-0.00000724,-0.00000011,-
 0.00000002,-0.00014838,0.,0.,0.00002268,-0.00000106,-0.00000050,-0.003
 80804,0.00000125,-0.00000165,0.00685802,0.00000048,0.00000147,0.000434
 33,-0.00000323,-0.00000786,-0.06419561,0.00000005,-0.00000023,0.007520
 15,0.00000024,-0.00000194,-0.05831705,-0.00000161,0.00001714,0.1418055
 7,0.00001750,-0.00006860,0.,-0.00006711,0.00012086,0.,-0.00003413,-0.0
 0005131,0.,0.00004410,0.00003431,0.,-0.00000737,0.00006146,0.,-0.00007
 499,0.00001292,0.,0.00000220,0.00001055,0.,0.00000295,-0.00000595,0.,-
 0.00001145,0.00000616,0.,-0.00000902,0.00000561,0.,-0.00041519,0.00033
 761,0.,0.00002908,0.00005384,0.,0.00008861,0.00359038,0.00000004,-0.01
 425357,-0.00709044,-0.00000024,0.00055406,0.00024087,0.,-0.33991504,-0
 .04924983,-0.00000236,0.00076662,0.00008518,0.00000002,0.00136046,-0.0
 0205256,-0.00000009,-0.00605059,0.00240033,0.00000006,0.35804726,-0.00
 000153,0.00002131,0.,0.00002782,-0.00006296,0.,0.00006970,0.00004991,0
 .,-0.00000601,-0.00004114,0.,0.00001093,-0.00001075,0.,0.00002015,-0.0
 0000744,0.,0.00000031,-0.00000442,0.,0.00000024,0.00000227,0.,0.000004
 64,-0.00000418,0.,0.00000309,-0.00000152,0.,0.00041437,-0.00029234,0.,
 0.00000744,0.00002634,0.,0.00242261,-0.00343667,-0.00000025,0.02530535
 ,0.00726801,0.00000023,0.00046912,-0.00157527,-0.00000003,-0.05001744,
 -0.06648500,-0.00000118,-0.00017564,0.00093370,0.00000015,-0.00104432,
 -0.00525918,-0.00000035,-0.02979634,0.00017105,-0.00000012,0.05269446,
 0.06666843,0.,0.,-0.00000116,0.,0.,-0.00000885,0.,0.,-0.00018617,0.,0.
 ,-0.00000562,0.,0.,0.00001482,0.,0.,-0.00000531,0.,0.,0.00000115,0.,0.
 ,-0.00000431,0.,0.,0.00000206,0.,0.,0.00000420,0.00000001,0.,-0.000126
 81,0.,0.,0.00001591,0.00000011,-0.00000018,0.00731981,0.00000049,0.000
 00019,0.00179788,0.00000005,-0.00000009,-0.00070019,-0.00000231,-0.000
 00123,-0.03374278,0.00000002,0.00000013,-0.00466784,-0.00000001,-0.000
 00037,0.00634189,-0.00000088,0.,0.00184276,0.00000255,0.00000138,0.025
 12592,-0.00003433,-0.00000647,0.,0.00001009,0.00009149,0.,-0.00000963,
 0.00001807,0.,-0.00000267,0.00000656,0.,-0.00000999,-0.00001612,0.,0.0
 0001313,0.00001020,0.,0.00000172,-0.00000111,0.,-0.00000819,0.00000038
 ,0.,0.00000017,0.00000065,0.,-0.00000335,-0.00000141,0.,0.00008727,-0.
 00011314,0.,-0.00022071,0.00003803,0.,-0.00214937,0.00229754,0.0000001
 0,-0.00115990,0.00057607,0.00000002,0.00899367,0.01946964,0.00000049,-
 0.00526096,0.00019556,0.00000005,0.00008744,-0.00009621,0.,-0.09758038
 ,-0.10255304,-0.00000222,-0.00472392,-0.02889564,-0.00000070,-0.000403
 44,-0.00139668,-0.00000006,0.09968318,0.00002278,0.00007952,0.,-0.0000
 0626,-0.00013027,0.,0.00008110,0.00003771,0.,-0.00003964,-0.00001881,0
 .,0.00001016,-0.00004554,0.,0.00005454,-0.00002276,0.,-0.00000549,-0.0
 0000354,0.,0.00000775,0.00000507,0.,0.00000925,-0.00000382,0.,0.000010
 78,-0.00000277,0.,0.00013584,0.00032287,0.,0.00020044,-0.00017271,0.,0
 .00376999,-0.00201546,-0.00000020,0.00099656,0.00039341,0.00000004,-0.
 01353599,-0.01823165,-0.00000049,-0.00037183,0.00200676,-0.00000014,-0
 .00005591,-0.00006246,0.00000002,-0.09931432,-0.30725416,-0.00000653,0
 .00187639,0.00059726,-0.00000006,0.00009290,-0.00006816,0.,0.10879142,
 0.32244530,0.,0.,0.00001190,0.,-0.00000001,-0.00002218,0.,0.,-0.000025
 61,0.,0.,-0.00000052,0.,0.,-0.00000406,0.,0.,0.00000198,0.,0.,0.000001
 63,0.,0.,0.00000441,0.,0.,0.00000242,0.,0.,-0.00000127,0.,0.,-0.000005
 75,0.00000002,0.,-0.00005520,0.00000005,-0.00000028,0.00506979,0.00000
 022,-0.00000002,-0.00090630,-0.00000060,-0.00000037,0.00491425,-0.0000
 0002,0.,0.00758185,0.,0.00000001,-0.00064999,-0.00000181,-0.00000656,-
 0.03527770,-0.00000017,-0.00000008,0.00269960,0.,0.,0.00041319,0.00000
 244,0.00000708,0.02489763,0.00001370,-0.00002923,0.,-0.00002902,0.0000
 7995,0.,0.00006987,-0.00005290,0.,0.00001090,0.00000902,0.,0.00000140,
 0.00002890,0.,-0.00003657,0.00000815,0.,0.00000046,0.00000492,0.,0.000
 00554,-0.00000296,0.,-0.00000620,0.00000254,0.,-0.00000392,0.00000333,
 0.,-0.00009576,0.00014117,0.,-0.00000543,0.00013260,0.,-0.00084318,-0.
 00059398,-0.00000002,0.00060872,-0.00279164,-0.00000009,-0.00397619,-0
 .00262614,-0.00000003,0.01015815,-0.00987359,-0.00000030,0.00036637,-0
 .00052688,0.,-0.01291859,0.02622833,0.00000075,-0.17406512,0.13924223,
 0.00000413,0.00064829,0.00045116,0.00000002,0.00109285,-0.00023257,-0.
 00000003,0.18051179,0.00001685,0.00002169,0.,-0.00005192,-0.00000125,0
 .,0.00000903,0.00002374,0.,-0.00000378,-0.00000500,0.,0.00000697,-0.00
 000761,0.,0.00001138,-0.00001212,0.,-0.00000259,-0.00000392,0.,0.00000
 104,0.00000308,0.,0.00000518,-0.00000153,0.,0.00000592,-0.00000309,0.,
 0.00011812,-0.00007854,0.,-0.00003251,0.00000987,0.,-0.00086668,0.0001
 5079,0.00000003,-0.00327373,-0.00440456,-0.00000035,-0.00222561,0.0010
 5173,-0.00000022,0.02120670,-0.01463673,-0.00000053,0.00097673,-0.0010
 2799,0.,-0.00592573,0.00704680,0.00000007,0.14032478,-0.23076190,-0.00
 000576,-0.00014513,0.00102238,0.00000014,0.00021386,0.00065414,0.00000
 015,-0.15048637,0.24048980,0.,0.,-0.00000474,0.,0.,-0.00004516,0.,0.,0
 .00007472,0.,0.,0.00000915,0.,0.,-0.00000615,0.,0.,-0.00000107,0.,0.,0
 .00000157,0.,0.,-0.00000120,0.,0.,-0.00000019,0.,0.,0.00000458,0.00000
 001,0.,-0.00008343,0.,0.00000001,0.00012148,-0.00000008,0.00000002,-0.
 00098677,-0.00000017,-0.00000034,0.00664073,-0.00000002,-0.00000011,0.
 00891745,0.00000066,-0.00000056,0.00422102,0.00000004,-0.00000005,-0.0
 0013857,0.00000002,0.00000005,0.00485538,0.00000406,-0.00000575,-0.040
 70489,0.00000001,0.00000014,-0.00363937,-0.00000003,0.00000014,-0.0046
 5608,-0.00000448,0.00000642,0.02680020,-0.00231267,-0.00749894,-0.0000
 0006,-0.00360261,0.01548793,0.00000003,-0.09622114,0.04624286,0.000000
 23,0.01739771,-0.00303431,-0.00000003,-0.00380141,0.01128666,0.0000001
 2,-0.00600889,-0.00597466,-0.00000001,0.00055664,-0.00097905,-0.000000
 03,-0.00049747,-0.00011505,0.00000001,0.00017158,0.00012957,0.,-0.0007
 6133,-0.00012052,0.,-0.46815472,-0.06566887,-0.00000037,-0.04674487,-0
 .01435412,0.00000015,-0.14234082,0.06527187,0.00000026,-0.03561846,0.0
 2922937,0.00000027,0.02792369,0.01195419,-0.00000016,-0.00129918,-0.01
 200844,-0.00000037,0.00070798,0.00102910,0.00000002,-0.00245199,-0.001
 72990,-0.00000005,0.00320906,0.00344395,0.00000012,-0.00029222,0.00080
 276,0.00000002,0.00031392,-0.00112109,-0.00000004,0.00022641,-0.000006
 77,0.00000001,0.77585389,0.00170853,-0.00285798,0.00000011,0.02950063,
 -0.02480640,-0.00000008,0.01755852,0.00253157,0.,0.00830327,-0.0084164
 3,-0.00000005,-0.00174226,0.00604870,0.00000006,-0.00352779,-0.0045030
 8,-0.00000005,0.00036460,-0.00083535,-0.00000001,-0.00044184,0.0002191
 5,0.,0.00025430,-0.00033302,0.,-0.00043647,0.00003526,-0.00000002,-0.0
 8047296,-0.12041663,-0.00000031,0.00816632,-0.09271846,-0.00000010,0.0
 6008081,-0.18289919,-0.00000071,0.01455463,0.00809382,0.00000020,0.013
 42607,-0.03518714,-0.00000014,-0.00643405,0.01019842,0.00000016,-0.001
 97591,-0.00027227,0.,-0.00053574,-0.00631907,-0.00000023,-0.00626384,-
 0.00450826,-0.00000012,-0.00109329,0.00081532,0.00000002,0.00108248,-0
 .00044912,-0.00000005,-0.00025672,0.00014055,0.,-0.05688971,0.44938134
 ,-0.00000005,0.00000010,-0.00019435,0.00000017,-0.00000046,0.00435556,
 0.00000041,-0.00000020,0.00543124,-0.00000010,0.00000003,0.00327805,0.
 ,-0.00000010,0.00036897,0.00000010,0.00000002,0.00074834,-0.00000001,0
 .,-0.00030290,0.,0.,-0.00021189,0.,0.,-0.00049187,0.,0.,0.00003743,-0.
 00000055,-0.00000012,-0.06263244,0.00000013,0.00000014,-0.03867949,0.0
 0000005,-0.00000017,-0.05276752,-0.00000003,0.00000027,-0.00267539,0.0
 0000027,-0.00000076,0.00246342,-0.00000006,-0.00000022,0.00663779,0.,0
 .00000008,-0.00326239,-0.00000005,-0.00000014,0.00491481,0.00000005,0.
 00000001,-0.00097438,0.,-0.00000002,0.00090246,0.,-0.00000002,0.000039
 48,0.,0.00000003,-0.00086153,-0.00000036,0.00000134,0.13555344,-0.0003
 5432,0.00169941,0.,0.00160072,0.00055036,-0.00000002,0.00643275,-0.000
 85370,0.00000002,-0.00169158,-0.00016068,0.,0.00000658,-0.00160985,-0.
 00000002,0.00162495,0.00014674,0.,-0.00013374,0.00007652,0.,0.00032966
 ,0.00002170,0.,0.00005708,-0.00003343,0.,0.00006216,0.00004396,0.,0.00
 961152,0.01849277,-0.00000006,-0.00022630,0.00014802,0.00000005,-0.010
 93710,-0.02719075,0.00000021,-0.00818158,0.00470884,0.00000027,-0.3188
 6663,-0.08563886,0.00000206,-0.00501512,-0.01476759,-0.00000041,-0.000
 83672,-0.00033002,-0.00000005,-0.07941868,0.00667137,0.00000166,0.0149
 8462,0.01167784,0.00000027,-0.00008701,-0.00025900,0.,0.00146485,-0.00
 154384,-0.00000005,-0.00149163,0.00028420,-0.00000003,-0.01977460,0.01
 314882,0.00000004,0.58739261,-0.00045930,-0.00022347,0.,0.00025161,-0.
 00186971,0.,-0.00622724,-0.00103262,0.00000007,-0.00021057,-0.00035460
 ,0.,0.00032349,-0.00002398,0.,0.00012968,-0.00002711,0.,0.00010710,-0.
 00018129,0.,0.00001791,0.00007873,0.,0.00011474,-0.00008121,0.,0.00007
 133,-0.00005268,0.,0.00877257,-0.02536543,-0.00000010,-0.00091198,-0.0
 0298290,0.,-0.04096093,-0.00751153,0.00000014,0.00700912,-0.00742231,-
 0.00000020,-0.05097668,-0.13512373,-0.00000093,-0.00200409,0.00578605,
 0.00000017,-0.00163755,-0.00017805,-0.00000004,0.04339985,0.01533617,-
 0.00000027,-0.00178913,-0.00942317,-0.00000039,-0.00002742,0.00043637,
 0.00000003,-0.00000622,0.00207838,0.00000008,0.00155405,0.00024334,0.0
 0000002,0.00346253,0.00523973,0.00000006,-0.13027939,0.49392071,0.,-0.
 00000002,-0.00008303,-0.00000002,-0.00000003,-0.00008133,-0.00000014,0
 .00000004,0.00059854,0.00000003,0.,0.00013586,0.,0.00000003,-0.0000317
 5,-0.00000002,0.,0.00003525,0.,0.,-0.00001265,0.,0.,-0.00003868,0.,0.,
 -0.00001659,0.,0.,-0.00000354,-0.00000003,-0.00000044,0.00428806,0.000
 00002,0.00000002,-0.00056510,-0.00000085,-0.00000028,0.01023356,0.0000
 0049,-0.00000032,0.00640042,0.00000308,0.00000018,-0.05295566,-0.00000
 007,0.00000056,-0.00106150,0.,0.,0.00039270,0.00000237,-0.00000008,0.0
 1057109,-0.00000042,-0.00000060,0.00476043,0.,0.00000003,-0.00061180,-
 0.00000009,0.00000013,-0.00335590,0.00000005,0.,-0.00019862,0.00000033
 ,-0.00000018,-0.00282443,-0.00001012,0.00000938,0.03514773,0.00011165,
 -0.00033330,0.,-0.00067952,0.00034803,0.,-0.00026353,0.00209782,-0.000
 00002,0.00069471,0.00035348,0.,-0.00015264,0.00019457,0.,-0.00029005,-
 0.00003083,0.,0.00000645,0.00000764,0.,-0.00044472,-0.00003815,0.,0.00
 000106,0.00000764,0.,-0.00002177,-0.00004508,0.,-0.01125467,-0.0011606
 2,0.00000008,-0.00076426,-0.00081079,-0.00000002,0.00191022,0.00248232
 ,-0.00000004,0.00029127,0.00092838,0.,-0.04513538,0.03482399,0.0000012
 8,0.00074927,0.00119520,0.00000002,0.00047916,0.00017531,0.00000002,-0
 .00239340,-0.00470911,-0.00000011,-0.00171848,0.00089086,0.00000009,0.
 00006001,-0.00000720,0.,-0.00018146,0.00016702,0.,-0.00024286,-0.00015
 994,0.,0.00352149,-0.00807841,0.,-0.17655245,0.17027651,0.00000538,0.2
 3226991,0.00022904,0.00078442,0.,0.00080348,0.00271462,0.,0.00957863,-
 0.00251732,-0.00000005,-0.00085472,0.00078496,0.,-0.00037490,-0.000701
 25,0.,0.00044349,0.00031957,0.,-0.00015973,0.00025285,0.,0.00032234,-0
 .00008002,0.,-0.00015840,0.00011328,0.,-0.00007143,0.00009373,0.,0.001
 38914,0.00472851,-0.00000024,0.00116109,0.00413015,0.00000005,0.000096
 88,-0.00633868,-0.00000004,-0.00345228,0.00026948,0.00000004,0.0119146
 5,0.01961256,0.00000021,-0.00058570,-0.00502673,-0.00000013,-0.0004356
 6,-0.00015858,-0.00000002,-0.01158863,0.00234145,0.00000019,0.00424307
 ,0.00353887,0.00000004,0.00003707,-0.00016606,0.,0.00029409,-0.0001391
 9,0.00000003,-0.00041338,0.00008633,0.,-0.01883935,0.00181853,0.000000
 13,0.20499656,-0.33126568,-0.00000839,-0.19857533,0.30480419,0.,0.,0.0
 0014520,0.00000002,-0.00000002,0.00026919,0.00000002,-0.00000004,-0.00
 028685,-0.00000001,0.,-0.00026921,0.,-0.00000001,-0.00001666,0.0000000
 1,0.,-0.00003378,0.,0.,0.00001851,0.,0.,0.00015374,0.,0.,0.00002078,0.
 ,0.,-0.00000072,0.00000007,0.00000011,-0.00806492,-0.00000002,-0.00000
 002,0.00086439,-0.00000002,-0.00000001,-0.00179480,-0.00000010,0.,-0.0
 0018820,0.00000055,-0.00000034,-0.00075891,0.,-0.00000013,-0.00014423,
 -0.00000001,0.,-0.00005398,-0.00000006,0.00000007,0.00271575,0.0000001
 4,0.,0.00200749,0.,0.,-0.00008184,0.,0.00000004,-0.00067757,0.,0.00000
 002,-0.00031851,-0.00000008,0.00000014,0.00114758,0.00000620,-0.000007
 99,-0.01072306,-0.00000668,0.00000819,0.01607063\\0.00187185,-0.001698
 56,-0.00000032,-0.00203826,-0.00423828,-0.00000041,-0.00513697,-0.0004
 0094,0.00000006,-0.00104130,0.00127168,0.00000015,0.00082299,0.0042597
 0,0.00000007,0.00169125,0.00164241,-0.00000011,0.00038830,-0.00029507,
 0.00000005,-0.00037622,0.00029876,0.,0.00004749,0.00039829,0.,0.000300
 71,0.00021223,0.00000005,0.00239280,-0.00552745,0.00000074,-0.00273901
 ,-0.01066366,0.00000094,0.00215952,-0.00249572,-0.00000030,-0.00453679
 ,0.00212819,-0.00000062,-0.00506115,-0.00265697,0.00000052,0.00107760,
 0.00019838,-0.00000017,-0.00035188,0.00016318,0.,0.00311679,0.00027383
 ,0.00000020,0.00412087,0.00301905,0.00000028,0.00008355,0.00035328,0.,
 0.00046046,-0.00002224,0.,0.00046192,0.00037263,0.00000002,0.00146197,
 0.00060914,-0.00000042,0.00417736,0.00192359,-0.00000054,-0.00335386,0
 .01087456,-0.00000021\\\@
 The archive entry for this job was punched.


 ALL SCIENCE IS EITHER PHYSICS, OR STAMP COLLECTING.
   --ERNEST RUTHERFORD, 1871-1937.
 Job cpu time:       0 days  0 hours 58 minutes 42.1 seconds.
 Elapsed time:       0 days  0 hours  5 minutes 55.0 seconds.
 File lengths (MBytes):  RWF=    544 Int=      0 D2E=      0 Chk=     40 Scr=      8
 Normal termination of Gaussian 16 at Tue Oct 27 22:01:14 2020.
