 Entering Gaussian System, Link 0=g16
 Initial command:
 /gpfs/loomis/apps/avx/software/Gaussian/16-C.01_AVX/g16/l1.exe "/home/fas/batista/pev4/scratch60/gauss-scratch/Gau-38468.inp" -scrdir="/home/fas/batista/pev4/scratch60/gauss-scratch/"
 Entering Link 1 = /gpfs/loomis/apps/avx/software/Gaussian/16-C.01_AVX/g16/l1.exe PID=     38469.
  
 Copyright (c) 1988-2019, Gaussian, Inc.  All Rights Reserved.
  
 This is part of the Gaussian(R) 16 program.  It is based on
 the Gaussian(R) 09 system (copyright 2009, Gaussian, Inc.),
 the Gaussian(R) 03 system (copyright 2003, Gaussian, Inc.),
 the Gaussian(R) 98 system (copyright 1998, Gaussian, Inc.),
 the Gaussian(R) 94 system (copyright 1995, Gaussian, Inc.),
 the Gaussian 92(TM) system (copyright 1992, Gaussian, Inc.),
 the Gaussian 90(TM) system (copyright 1990, Gaussian, Inc.),
 the Gaussian 88(TM) system (copyright 1988, Gaussian, Inc.),
 the Gaussian 86(TM) system (copyright 1986, Carnegie Mellon
 University), and the Gaussian 82(TM) system (copyright 1983,
 Carnegie Mellon University). Gaussian is a federally registered
 trademark of Gaussian, Inc.
  
 This software contains proprietary and confidential information,
 including trade secrets, belonging to Gaussian, Inc.
  
 This software is provided under written license and may be
 used, copied, transmitted, or stored only in accord with that
 written license.
  
 The following legend is applicable only to US Government
 contracts under FAR:
  
                    RESTRICTED RIGHTS LEGEND
  
 Use, reproduction and disclosure by the US Government is
 subject to restrictions as set forth in subparagraphs (a)
 and (c) of the Commercial Computer Software - Restricted
 Rights clause in FAR 52.227-19.
  
 Gaussian, Inc.
 340 Quinnipiac St., Bldg. 40, Wallingford CT 06492
  
  
 ---------------------------------------------------------------
 Warning -- This program may not be used in any manner that
 competes with the business of Gaussian, Inc. or will provide
 assistance to any competitor of Gaussian, Inc.  The licensee
 of this program is prohibited from giving any competitor of
 Gaussian, Inc. access to this program.  By using this program,
 the user acknowledges that Gaussian, Inc. is engaged in the
 business of creating and licensing software in the field of
 computational chemistry and represents and warrants to the
 licensee that it is not a competitor of Gaussian, Inc. and that
 it will not use this program in any manner prohibited above.
 ---------------------------------------------------------------
  

 Cite this work as:
 Gaussian 16, Revision C.01,
 M. J. Frisch, G. W. Trucks, H. B. Schlegel, G. E. Scuseria, 
 M. A. Robb, J. R. Cheeseman, G. Scalmani, V. Barone, 
 G. A. Petersson, H. Nakatsuji, X. Li, M. Caricato, A. V. Marenich, 
 J. Bloino, B. G. Janesko, R. Gomperts, B. Mennucci, H. P. Hratchian, 
 J. V. Ortiz, A. F. Izmaylov, J. L. Sonnenberg, D. Williams-Young, 
 F. Ding, F. Lipparini, F. Egidi, J. Goings, B. Peng, A. Petrone, 
 T. Henderson, D. Ranasinghe, V. G. Zakrzewski, J. Gao, N. Rega, 
 G. Zheng, W. Liang, M. Hada, M. Ehara, K. Toyota, R. Fukuda, 
 J. Hasegawa, M. Ishida, T. Nakajima, Y. Honda, O. Kitao, H. Nakai, 
 T. Vreven, K. Throssell, J. A. Montgomery, Jr., J. E. Peralta, 
 F. Ogliaro, M. J. Bearpark, J. J. Heyd, E. N. Brothers, K. N. Kudin, 
 V. N. Staroverov, T. A. Keith, R. Kobayashi, J. Normand, 
 K. Raghavachari, A. P. Rendell, J. C. Burant, S. S. Iyengar, 
 J. Tomasi, M. Cossi, J. M. Millam, M. Klene, C. Adamo, R. Cammi, 
 J. W. Ochterski, R. L. Martin, K. Morokuma, O. Farkas, 
 J. B. Foresman, and D. J. Fox, Gaussian, Inc., Wallingford CT, 2019.
 
 ******************************************
 Gaussian 16:  ES64L-G16RevC.01  3-Jul-2019
                27-Oct-2020 
 ******************************************
 %chk=config_2_5.chk
 %mem=58GB
 %nprocshared=10
 Will use up to   10 processors via shared memory.
 ----------------------------------------------------------------------
 #p opt=addgic freq wb97xd/cc-pvdz nosymm int=ultrafine scrf=(solvent=C
 arbonTetraChloride)
 ----------------------------------------------------------------------
 1/18=20,19=15,26=6,38=1,145=903/1,3;
 2/9=110,12=2,15=1,17=6,18=5,40=1/2;
 3/5=16,11=2,25=1,30=1,70=2201,71=1,72=11,74=-58,75=-5/1,2,3;
 4//1;
 5/5=2,38=5,53=11/2;
 6/7=2,8=2,9=2,10=2,28=1/1;
 7/30=1/1,2,3,16;
 1/18=20,19=15,26=6,145=903/3(2);
 2/9=110,15=1/2;
 99//99;
 2/9=110,15=1/2;
 3/5=16,11=2,25=1,30=1,70=2205,71=1,72=11,74=-58,75=-5/1,2,3;
 4/5=5,16=3,69=1/1;
 5/5=2,38=5,53=11/2;
 7/30=1/1,2,3,16;
 1/18=20,19=15,26=6,145=903/3(-5);
 2/9=110,15=1/2;
 6/7=2,8=2,9=2,10=2,19=2,28=1/1;
 99/9=1/99;
 Leave Link    1 at Tue Oct 27 21:29:08 2020, MaxMem=  7784628224 cpu:               6.2 elap:               0.7
 (Enter /gpfs/loomis/apps/avx/software/Gaussian/16-C.01_AVX/g16/l101.exe)
 ------------------------------------------------
 NM 2D-scan of HBT TD-WB97XD pVDZ in CTC Relaxed.
 ------------------------------------------------
 Symbolic Z-matrix:
 Charge =  0 Multiplicity = 1
 C                     1.70373  -3.27388  -0.00002 
 C                     0.99317  -2.07694  -0.00002 
 C                     1.67326  -0.81784  -0.00002 
 C                     3.0999   -0.79341  -0.00002 
 C                     3.78595  -1.98852  -0.00002 
 C                     3.09978  -3.2244   -0.00002 
 H                     1.18484  -4.23422  -0.00002 
 H                     3.61224   0.17055  -0.00002 
 H                     4.87807  -1.9866   -0.00002 
 H                     3.66808  -4.15637  -0.00002 
 N                     0.89842   0.2491   -0.00002 
 S                    -0.74261  -1.79847  -0.00002 
 C                    -1.38593   1.00545   0. 
 C                    -2.80726   0.85991  -0.00001 
 C                    -0.89345   2.39925   0.00003 
 C                    -3.64119   1.96317   0.00002 
 H                    -3.22956  -0.14584  -0.00003 
 C                    -1.76233   3.49641   0.00006 
 C                    -3.13524   3.29233   0.00006 
 H                    -4.72264   1.81083   0.00002 
 H                    -1.32429   4.49534   0.00008 
 H                    -3.82078   4.14034   0.00008 
 C                    -0.43088  -0.03248  -0.00001 
 O                     0.40988   2.63484   0.00003 
 H                     0.75823   2.04943   0.00002 
 
 Initializing the GIC definitions file.
 Number of initial coordinates =   131
 Number of input entries/lines =    52
 Number of additional coordinates =     2
 Number of removed coordinates =     0
 Number of frozen coordinates =     2
 Number of final active and frozen coordinates =   133
 ITRead=  0  0  0  0  0  0  0  0  0  0  0  0  0  0  0  0  0  0  0  0
 ITRead=  0  0  0  0  0
 MicOpt= -1 -1 -1 -1 -1 -1 -1 -1 -1 -1 -1 -1 -1 -1 -1 -1 -1 -1 -1 -1
 MicOpt= -1 -1 -1 -1 -1
 NAtoms=     25 NQM=       25 NQMF=       0 NMMI=      0 NMMIF=      0
                NMic=       0 NMicF=      0.
                    Isotopes and Nuclear Properties:
 (Nuclear quadrupole moments (NQMom) in fm**2, nuclear magnetic moments (NMagM)
  in nuclear magnetons)

  Atom         1           2           3           4           5           6           7           8           9          10
 IAtWgt=          12          12          12          12          12          12           1           1           1           1
 AtmWgt=  12.0000000  12.0000000  12.0000000  12.0000000  12.0000000  12.0000000   1.0078250   1.0078250   1.0078250   1.0078250
 NucSpn=           0           0           0           0           0           0           1           1           1           1
 AtZEff=  -0.0000000  -0.0000000  -0.0000000  -0.0000000  -0.0000000  -0.0000000  -0.0000000  -0.0000000  -0.0000000  -0.0000000
 NQMom=    0.0000000   0.0000000   0.0000000   0.0000000   0.0000000   0.0000000   0.0000000   0.0000000   0.0000000   0.0000000
 NMagM=    0.0000000   0.0000000   0.0000000   0.0000000   0.0000000   0.0000000   2.7928460   2.7928460   2.7928460   2.7928460
 AtZNuc=   6.0000000   6.0000000   6.0000000   6.0000000   6.0000000   6.0000000   1.0000000   1.0000000   1.0000000   1.0000000

  Atom        11          12          13          14          15          16          17          18          19          20
 IAtWgt=          14          32          12          12          12          12           1          12          12           1
 AtmWgt=  14.0030740  31.9720718  12.0000000  12.0000000  12.0000000  12.0000000   1.0078250  12.0000000  12.0000000   1.0078250
 NucSpn=           2           0           0           0           0           0           1           0           0           1
 AtZEff=  -0.0000000  -0.0000000  -0.0000000  -0.0000000  -0.0000000  -0.0000000  -0.0000000  -0.0000000  -0.0000000  -0.0000000
 NQMom=    2.0440000   0.0000000   0.0000000   0.0000000   0.0000000   0.0000000   0.0000000   0.0000000   0.0000000   0.0000000
 NMagM=    0.4037610   0.0000000   0.0000000   0.0000000   0.0000000   0.0000000   2.7928460   0.0000000   0.0000000   2.7928460
 AtZNuc=   7.0000000  16.0000000   6.0000000   6.0000000   6.0000000   6.0000000   1.0000000   6.0000000   6.0000000   1.0000000

  Atom        21          22          23          24          25
 IAtWgt=           1           1          12          16           1
 AtmWgt=   1.0078250   1.0078250  12.0000000  15.9949146   1.0078250
 NucSpn=           1           1           0           0           1
 AtZEff=  -0.0000000  -0.0000000  -0.0000000  -0.0000000  -0.0000000
 NQMom=    0.0000000   0.0000000   0.0000000   0.0000000   0.0000000
 NMagM=    2.7928460   2.7928460   0.0000000   0.0000000   2.7928460
 AtZNuc=   1.0000000   1.0000000   6.0000000   8.0000000   1.0000000
 Leave Link  101 at Tue Oct 27 21:29:11 2020, MaxMem=  7784628224 cpu:              31.7 elap:               3.2
 (Enter /gpfs/loomis/apps/avx/software/Gaussian/16-C.01_AVX/g16/l103.exe)

 GradGradGradGradGradGradGradGradGradGradGradGradGradGradGradGradGradGrad
 Berny optimization.
 Initialization pass.
                           ----------------------------
                           !    Initial Parameters    !
                           ! (Angstroms and Degrees)  !
 --------------------------                            --------------------------
 ! Name  Definition              Value          Derivative Info.                !
 --------------------------------------------------------------------------------
 ! R1    R(1,2)                  1.392          estimate D2E/DX2                !
 ! R2    R(1,6)                  1.3969         estimate D2E/DX2                !
 ! R3    R(1,7)                  1.0916         estimate D2E/DX2                !
 ! R4    R(2,3)                  1.431          estimate D2E/DX2                !
 ! R5    R(2,12)                 1.758          estimate D2E/DX2                !
 ! R6    R(3,4)                  1.4268         estimate D2E/DX2                !
 ! R7    R(3,11)                 1.3186         estimate D2E/DX2                !
 ! R8    R(4,5)                  1.378          estimate D2E/DX2                !
 ! R9    R(4,8)                  1.0917         estimate D2E/DX2                !
 ! R10   R(5,6)                  1.4136         estimate D2E/DX2                !
 ! R11   R(5,9)                  1.0921         estimate D2E/DX2                !
 ! R12   R(6,10)                 1.0916         estimate D2E/DX2                !
 ! R13   R(11,23)                1.3588         estimate D2E/DX2                !
 ! R14   R(12,23)                1.7933         estimate D2E/DX2                !
 ! R15   R(13,14)                1.4288         estimate D2E/DX2                !
 ! R16   R(13,15)                1.4782         estimate D2E/DX2                !
 ! R17   R(13,23)                1.4105         estimate D2E/DX2                !
 ! R18   R(14,16)                1.383          estimate D2E/DX2                !
 ! R19   R(14,17)                1.0908         estimate D2E/DX2                !
 ! R20   R(15,18)                1.3995         estimate D2E/DX2                !
 ! R21   R(15,24)                1.3245         estimate D2E/DX2                !
 ! R22   R(16,19)                1.4222         estimate D2E/DX2                !
 ! R23   R(16,20)                1.0921         estimate D2E/DX2                !
 ! R24   R(18,19)                1.388          estimate D2E/DX2                !
 ! R25   R(18,21)                1.0908         estimate D2E/DX2                !
 ! R26   R(19,22)                1.0905         estimate D2E/DX2                !
 ! R27   R(24,25)                0.6812         estimate D2E/DX2                !
 ! A1    A(2,1,6)              118.6659         estimate D2E/DX2                !
 ! A2    A(2,1,7)              120.9216         estimate D2E/DX2                !
 ! A3    A(6,1,7)              120.4125         estimate D2E/DX2                !
 ! A4    A(1,2,3)              120.929          estimate D2E/DX2                !
 ! A5    A(1,2,12)             129.8096         estimate D2E/DX2                !
 ! A6    A(3,2,12)             109.2614         estimate D2E/DX2                !
 ! A7    A(2,3,4)              119.3569         estimate D2E/DX2                !
 ! A8    A(2,3,11)             115.6364         estimate D2E/DX2                !
 ! A9    A(4,3,11)             125.0067         estimate D2E/DX2                !
 ! A10   A(3,4,5)              118.8768         estimate D2E/DX2                !
 ! A11   A(3,4,8)              118.9718         estimate D2E/DX2                !
 ! A12   A(5,4,8)              122.1514         estimate D2E/DX2                !
 ! A13   A(4,5,6)              121.1024         estimate D2E/DX2                !
 ! A14   A(4,5,9)              119.7576         estimate D2E/DX2                !
 ! A15   A(6,5,9)              119.14           estimate D2E/DX2                !
 ! A16   A(1,6,5)              121.069          estimate D2E/DX2                !
 ! A17   A(1,6,10)             119.3449         estimate D2E/DX2                !
 ! A18   A(5,6,10)             119.5861         estimate D2E/DX2                !
 ! A19   A(3,11,23)            114.028          estimate D2E/DX2                !
 ! A20   A(2,12,23)             89.1033         estimate D2E/DX2                !
 ! A21   A(14,13,15)           115.3068         estimate D2E/DX2                !
 ! A22   A(14,13,23)           126.772          estimate D2E/DX2                !
 ! A23   A(15,13,23)           117.9212         estimate D2E/DX2                !
 ! A24   A(13,14,16)           121.2382         estimate D2E/DX2                !
 ! A25   A(13,14,17)           118.6239         estimate D2E/DX2                !
 ! A26   A(16,14,17)           120.1379         estimate D2E/DX2                !
 ! A27   A(13,15,18)           122.163          estimate D2E/DX2                !
 ! A28   A(13,15,24)           119.7064         estimate D2E/DX2                !
 ! A29   A(18,15,24)           118.1305         estimate D2E/DX2                !
 ! A30   A(14,16,19)           122.0755         estimate D2E/DX2                !
 ! A31   A(14,16,20)           119.0665         estimate D2E/DX2                !
 ! A32   A(19,16,20)           118.858          estimate D2E/DX2                !
 ! A33   A(15,18,19)           119.9221         estimate D2E/DX2                !
 ! A34   A(15,18,21)           117.9453         estimate D2E/DX2                !
 ! A35   A(19,18,21)           122.1326         estimate D2E/DX2                !
 ! A36   A(16,19,18)           119.2944         estimate D2E/DX2                !
 ! A37   A(16,19,22)           120.208          estimate D2E/DX2                !
 ! A38   A(18,19,22)           120.4976         estimate D2E/DX2                !
 ! A39   A(11,23,12)           111.9709         estimate D2E/DX2                !
 ! A40   A(11,23,13)           120.6586         estimate D2E/DX2                !
 ! A41   A(12,23,13)           127.3705         estimate D2E/DX2                !
 ! A42   A(15,24,25)           110.5089         estimate D2E/DX2                !
 ! D1    D(6,1,2,3)              0.0001         estimate D2E/DX2                !
 ! D2    D(6,1,2,12)          -179.9999         estimate D2E/DX2                !
 ! D3    D(7,1,2,3)            180.0            estimate D2E/DX2                !
 ! D4    D(7,1,2,12)             0.0            estimate D2E/DX2                !
 ! D5    D(2,1,6,5)              0.0            estimate D2E/DX2                !
 ! D6    D(2,1,6,10)           180.0            estimate D2E/DX2                !
 ! D7    D(7,1,6,5)           -179.9999         estimate D2E/DX2                !
 ! D8    D(7,1,6,10)             0.0            estimate D2E/DX2                !
 ! D9    D(1,2,3,4)             -0.0001         estimate D2E/DX2                !
 ! D10   D(1,2,3,11)           179.9999         estimate D2E/DX2                !
 ! D11   D(12,2,3,4)           179.9999         estimate D2E/DX2                !
 ! D12   D(12,2,3,11)           -0.0001         estimate D2E/DX2                !
 ! D13   D(1,2,12,23)          179.9999         estimate D2E/DX2                !
 ! D14   D(3,2,12,23)           -0.0001         estimate D2E/DX2                !
 ! D15   D(2,3,4,5)              0.0            estimate D2E/DX2                !
 ! D16   D(2,3,4,8)           -180.0            estimate D2E/DX2                !
 ! D17   D(11,3,4,5)          -180.0            estimate D2E/DX2                !
 ! D18   D(11,3,4,8)             0.0            estimate D2E/DX2                !
 ! D19   D(2,3,11,23)            0.0002         estimate D2E/DX2                !
 ! D20   D(4,3,11,23)         -179.9998         estimate D2E/DX2                !
 ! D21   D(3,4,5,6)              0.0            estimate D2E/DX2                !
 ! D22   D(3,4,5,9)           -180.0            estimate D2E/DX2                !
 ! D23   D(8,4,5,6)           -180.0            estimate D2E/DX2                !
 ! D24   D(8,4,5,9)              0.0            estimate D2E/DX2                !
 ! D25   D(4,5,6,1)              0.0            estimate D2E/DX2                !
 ! D26   D(4,5,6,10)          -180.0            estimate D2E/DX2                !
 ! D27   D(9,5,6,1)            180.0            estimate D2E/DX2                !
 ! D28   D(9,5,6,10)             0.0            estimate D2E/DX2                !
 ! D29   D(3,11,23,12)          -0.0003         estimate D2E/DX2                !
 ! D30   D(3,11,23,13)         179.9993         estimate D2E/DX2                !
 ! D31   D(2,12,23,11)           0.0002         estimate D2E/DX2                !
 ! D32   D(2,12,23,13)        -179.9994         estimate D2E/DX2                !
 ! D33   D(15,13,14,16)         -0.0004         estimate D2E/DX2                !
 ! D34   D(15,13,14,17)        179.9997         estimate D2E/DX2                !
 ! D35   D(23,13,14,16)        179.9995         estimate D2E/DX2                !
 ! D36   D(23,13,14,17)         -0.0004         estimate D2E/DX2                !
 ! D37   D(14,13,15,18)          0.0004         estimate D2E/DX2                !
 ! D38   D(14,13,15,24)       -179.9997         estimate D2E/DX2                !
 ! D39   D(23,13,15,18)       -179.9994         estimate D2E/DX2                !
 ! D40   D(23,13,15,24)          0.0004         estimate D2E/DX2                !
 ! D41   D(14,13,23,11)        179.9993         estimate D2E/DX2                !
 ! D42   D(14,13,23,12)         -0.0011         estimate D2E/DX2                !
 ! D43   D(15,13,23,11)         -0.0008         estimate D2E/DX2                !
 ! D44   D(15,13,23,12)        179.9987         estimate D2E/DX2                !
 ! D45   D(13,14,16,19)          0.0001         estimate D2E/DX2                !
 ! D46   D(13,14,16,20)       -179.9999         estimate D2E/DX2                !
 ! D47   D(17,14,16,19)        180.0            estimate D2E/DX2                !
 ! D48   D(17,14,16,20)          0.0            estimate D2E/DX2                !
 ! D49   D(13,15,18,19)         -0.0002         estimate D2E/DX2                !
 ! D50   D(13,15,18,21)        179.9998         estimate D2E/DX2                !
 ! D51   D(24,15,18,19)        180.0            estimate D2E/DX2                !
 ! D52   D(24,15,18,21)          0.0            estimate D2E/DX2                !
 ! D53   D(13,15,24,25)         -0.0002         estimate D2E/DX2                !
 ! D54   D(18,15,24,25)        179.9996         estimate D2E/DX2                !
 ! D55   D(14,16,19,18)          0.0002         estimate D2E/DX2                !
 ! D56   D(14,16,19,22)       -179.9998         estimate D2E/DX2                !
 ! D57   D(20,16,19,18)       -179.9998         estimate D2E/DX2                !
 ! D58   D(20,16,19,22)          0.0001         estimate D2E/DX2                !
 ! D59   D(15,18,19,16)         -0.0002         estimate D2E/DX2                !
 ! D60   D(15,18,19,22)        179.9999         estimate D2E/DX2                !
 ! D61   D(21,18,19,16)        179.9998         estimate D2E/DX2                !
 ! D62   D(21,18,19,22)         -0.0001         estimate D2E/DX2                !
 ! Qtot  GIC-1                 -40.0            Frozen                          !
 ! Ptot  GIC-2                 -60.0            Frozen                          !
 --------------------------------------------------------------------------------
 NOTE: GIC-type coordinates are in arbitrary units.
 Trust Radius=3.00D-01 FncErr=5.00D-06 GrdErr=5.00D-06 EigMax=2.50D+02 EigMin=1.00D-04
 Number of steps in this run=    143 maximum allowed number of steps=    150.
 GradGradGradGradGradGradGradGradGradGradGradGradGradGradGradGradGradGrad

 Leave Link  103 at Tue Oct 27 21:29:11 2020, MaxMem=  7784628224 cpu:               0.1 elap:               0.0
 (Enter /gpfs/loomis/apps/avx/software/Gaussian/16-C.01_AVX/g16/l202.exe)
                          Input orientation:                          
 ---------------------------------------------------------------------
 Center     Atomic      Atomic             Coordinates (Angstroms)
 Number     Number       Type             X           Y           Z
 ---------------------------------------------------------------------
      1          6           0        1.703728   -3.273875   -0.000023
      2          6           0        0.993168   -2.076941   -0.000021
      3          6           0        1.673264   -0.817845   -0.000021
      4          6           0        3.099896   -0.793408   -0.000021
      5          6           0        3.785952   -1.988515   -0.000022
      6          6           0        3.099776   -3.224403   -0.000023
      7          1           0        1.184841   -4.234220   -0.000023
      8          1           0        3.612238    0.170553   -0.000020
      9          1           0        4.878068   -1.986598   -0.000022
     10          1           0        3.668078   -4.156366   -0.000025
     11          7           0        0.898424    0.249099   -0.000020
     12         16           0       -0.742612   -1.798474   -0.000019
     13          6           0       -1.385929    1.005451    0.000001
     14          6           0       -2.807257    0.859908   -0.000005
     15          6           0       -0.893452    2.399247    0.000031
     16          6           0       -3.641190    1.963170    0.000023
     17          1           0       -3.229562   -0.145836   -0.000032
     18          6           0       -1.762328    3.496405    0.000060
     19          6           0       -3.135239    3.292329    0.000058
     20          1           0       -4.722638    1.810827    0.000019
     21          1           0       -1.324287    4.495341    0.000084
     22          1           0       -3.820779    4.140340    0.000083
     23          6           0       -0.430876   -0.032484   -0.000015
     24          8           0        0.409879    2.634841    0.000033
     25          1           0        0.758235    2.049429    0.000022
 ---------------------------------------------------------------------
                    Distance matrix (angstroms):
                    1          2          3          4          5
     1  C    0.000000
     2  C    1.391958   0.000000
     3  C    2.456220   1.431033   0.000000
     4  C    2.846402   2.466934   1.426841   0.000000
     5  C    2.447000   2.794184   2.415351   1.378026   0.000000
     6  C    1.396925   2.398847   2.797581   2.430995   1.413597
     7  H    1.091561   2.165778   3.451113   3.937846   3.436418
     8  H    3.937829   3.451196   2.176361   1.091657   2.166045
     9  H    3.425422   3.885950   3.411268   2.141401   1.092117
    10  H    2.153477   3.388090   3.889088   3.410619   2.171053
    11  N    3.613844   2.327969   1.318616   2.435837   3.653045
    12  S    2.856814   1.757975   2.607316   3.971779   4.532550
    13  C    5.278126   3.893745   3.561330   4.833066   5.975968
    14  C    6.118591   4.802949   4.784342   6.134160   7.182195
    15  C    6.239364   4.857530   4.115545   5.112717   6.414770
    16  C    7.482967   6.148152   5.998122   7.282923   8.412982
    17  H    5.841402   4.643341   4.948667   6.362499   7.253475
    18  C    7.605934   6.217310   5.515074   6.484113   7.801779
    19  C    8.156632   6.772947   6.325759   7.454539   8.705757
    20  H    8.194655   6.912682   6.915018   8.244639   9.318321
    21  H    8.338441   6.968894   6.100431   6.895234   8.255600
    22  H    9.246122   7.863121   7.400548   8.499272   9.768584
    23  C    3.881128   2.491527   2.245929   3.611836   4.648408
    24  O    6.048717   4.747749   3.676572   4.357647   5.724797
    25  H    5.406619   4.133053   3.009741   3.683083   5.046986
                    6          7          8          9         10
     6  C    0.000000
     7  H    2.164880   0.000000
     8  H    3.433416   5.029342   0.000000
     9  H    2.166675   4.323393   2.501125   0.000000
    10  H    1.091569   2.484457   4.327279   2.484344   0.000000
    11  N    4.112319   4.492459   2.714951   4.564637   5.203759
    12  S    4.098441   3.106113   4.779308   5.623828   5.001385
    13  C    6.165486   5.836354   5.067419   6.941903   7.224082
    14  C    7.181549   6.472017   6.456402   8.195537   8.191030
    15  C    6.897196   6.951417   5.026760   7.248867   7.986465
    16  C    8.505971   7.854822   7.471660   9.390337   9.532792
    17  H    7.038330   6.016797   6.849111   8.313968   7.978834
    18  C    8.295138   8.273354   6.320384   8.611514   9.383721
    19  C    9.019047   8.678251   7.434644   9.595841  10.088022
    20  H    9.302887   8.452272   8.494742  10.324436  10.296189
    21  H    8.897572   9.083004   6.563008   8.971329   9.988781
    22  H   10.106114   9.756511   8.426681  10.639987  11.176687
    23  C    4.759606   4.501681   4.048209   5.657159   5.814450
    24  O    6.447193   6.912639   4.040770   6.428251   7.532354
    25  H    5.770279   6.298115   3.416944   5.767369   6.854129
                   11         12         13         14         15
    11  N    0.000000
    12  S    2.624034   0.000000
    13  C    2.406312   2.876779   0.000000
    14  C    3.755684   3.365970   1.428760   0.000000
    15  C    2.798920   4.200430   1.478242   2.456057   0.000000
    16  C    4.852436   4.748865   2.450189   1.382979   2.782127
    17  H    4.146835   2.985989   2.173579   1.090808   3.454686
    18  C    4.198166   5.392176   2.519231   2.836017   1.399536
    19  C    5.052888   5.625028   2.879217   2.454433   2.413132
    20  H    5.833980   5.372863   3.432528   2.138441   3.874132
    21  H    4.792808   6.320637   3.490434   3.926267   2.139913
    22  H    6.116587   6.689143   3.969386   3.433433   3.405973
    23  C    1.358796   1.793293   1.410474   2.538415   2.475337
    24  O    2.435250   4.580668   2.424838   3.674282   1.324453
    25  H    1.805780   4.130242   2.384812   3.758683   1.688325
                   16         17         18         19         20
    16  C    0.000000
    17  H    2.148800   0.000000
    18  C    2.425064   3.926665   0.000000
    19  C    1.422199   3.439458   1.387996   0.000000
    20  H    1.092125   2.461261   3.406553   2.171332   0.000000
    21  H    3.432191   5.017031   1.090758   2.174118   4.330751
    22  H    2.184565   4.326759   2.156821   1.090453   2.497995
    23  C    3.780047   2.800981   3.771713   4.285786   4.670869
    24  O    4.106374   4.580141   2.336830   3.605572   5.198242
    25  H    4.400271   4.552111   2.906368   4.087045   5.486064
                   21         22         23         24         25
    21  H    0.000000
    22  H    2.521607   0.000000
    23  C    4.615125   5.376235   0.000000
    24  O    2.543381   4.490545   2.796693   0.000000
    25  H    3.212379   5.033814   2.397571   0.681219   0.000000
 Symmetry turned off by external request.
 Stoichiometry    C13H9NOS
 Framework group  C1[X(C13H9NOS)]
 Deg. of freedom    69
 Full point group                 C1      NOp   1
 Rotational constants (GHZ):           1.3546682           0.2857429           0.2359694
 Leave Link  202 at Tue Oct 27 21:29:11 2020, MaxMem=  7784628224 cpu:               0.1 elap:               0.0
 (Enter /gpfs/loomis/apps/avx/software/Gaussian/16-C.01_AVX/g16/l301.exe)
 Standard basis: CC-pVDZ (5D, 7F)
 Ernie: Thresh=  0.10000D-02 Tol=  0.10000D-05 Strict=F.
 Ernie:  40 primitive shells out of 425 were deleted.
   273 basis functions,   629 primitive gaussians,   289 cartesian basis functions
    59 alpha electrons       59 beta electrons
       nuclear repulsion energy      1097.2487227676 Hartrees.
 IExCor= 4639 DFT=T Ex+Corr=wB97XD ExCW=0 ScaHFX=  1.000000
 ScaDFX=  1.000000  1.000000  1.000000  1.000000 ScalE2=  1.000000  1.000000
 IRadAn=      5 IRanWt=     -1 IRanGd=            0 ICorTp=0 IEmpDi=121
 HFx  wShort=  0.000000 wLong=  0.200000 cFull=  0.222036 cShort=  0.000000 cLong=  0.777964
 DFx  wShort=  0.000000 wLong=  0.200000 cFull=  0.000000 cShort=  0.000000 cLong=  1.000000
 NAtoms=   25 NActive=   25 NUniq=   25 SFac= 1.00D+00 NAtFMM=   60 NAOKFM=F Big=F
 Integral buffers will be    131072 words long.
 Raffenetti 2 integral format.
 Two-electron integral symmetry is turned off.
 R6Disp:  Grimme-D2 Dispersion energy=       -0.0139897357 Hartrees.
 Nuclear repulsion after empirical dispersion term =     1097.2347330319 Hartrees.
 ------------------------------------------------------------------------------
 Polarizable Continuum Model (PCM)
 =================================
 Model                : PCM.
 Atomic radii         : UFF (Universal Force Field).
 Polarization charges : Total charges.
 Charge compensation  : None.
 Solution method      : On-the-fly selection.
 Cavity type          : Scaled VdW (van der Waals Surface) (Alpha=1.100).
 Cavity algorithm     : GePol (No added spheres)
                        Default sphere list used, NSphG=   25.
                        Lebedev-Laikov grids with approx.  5.0 points / Ang**2.
                        Smoothing algorithm: York/Karplus (Gamma=1.0000).
                        Polarization charges: spherical gaussians, with
                                              point-specific exponents (IZeta= 3).
                        Self-potential: point-specific (ISelfS= 7).
                        Self-field    : sphere-specific E.n sum rule (ISelfD= 2).
 1st derivatives      : Analytical E(r).r(x)/FMM algorithm (CHGder, D1EAlg=3).
                        Cavity 1st derivative terms included.
 Solvent              : CarbonTetraChloride, Eps=   2.228000 Eps(inf)=   2.131892
 ------------------------------------------------------------------------------
 GePol: Number of generator spheres                  =      25
 GePol: Total number of spheres                      =      25
 GePol: Number of exposed spheres                    =      25 (100.00%)
 GePol: Number of points                             =    2197
 GePol: Average weight of points                     =       0.13
 GePol: Minimum weight of points                     =   0.91D-09
 GePol: Maximum weight of points                     =    0.20577
 GePol: Number of points with low weight             =     152
 GePol: Fraction of low-weight points (<1% of avg)   =       6.92%
 GePol: Cavity surface area                          =    275.261 Ang**2
 GePol: Cavity volume                                =    294.073 Ang**3
 Leave Link  301 at Tue Oct 27 21:29:11 2020, MaxMem=  7784628224 cpu:               0.8 elap:               0.1
 (Enter /gpfs/loomis/apps/avx/software/Gaussian/16-C.01_AVX/g16/l302.exe)
 NPDir=0 NMtPBC=     1 NCelOv=     1 NCel=       1 NClECP=     1 NCelD=      1
         NCelK=      1 NCelE2=     1 NClLst=     1 CellRange=     0.0.
 One-electron integrals computed using PRISM.
 NBasis=   273 RedAO= T EigKep=  3.19D-04  NBF=   273
 NBsUse=   273 1.00D-06 EigRej= -1.00D+00 NBFU=   273
 Precomputing XC quadrature grid using
 IXCGrd= 4 IRadAn=           5 IRanWt=          -1 IRanGd=           0 AccXCQ= 0.00D+00.
 Generated NRdTot=       0 NPtTot=           0 NUsed=           0 NTot=          32
 NSgBfM=   288   288   288   288   288 MxSgAt=    25 MxSgA2=    25.
 Leave Link  302 at Tue Oct 27 21:29:11 2020, MaxMem=  7784628224 cpu:               2.5 elap:               0.3
 (Enter /gpfs/loomis/apps/avx/software/Gaussian/16-C.01_AVX/g16/l303.exe)
 DipDrv:  MaxL=1.
 Leave Link  303 at Tue Oct 27 21:29:12 2020, MaxMem=  7784628224 cpu:               0.4 elap:               0.1
 (Enter /gpfs/loomis/apps/avx/software/Gaussian/16-C.01_AVX/g16/l401.exe)
 ExpMin= 1.22D-01 ExpMax= 1.11D+05 ExpMxC= 1.07D+03 IAcc=3 IRadAn=         5 AccDes= 0.00D+00
 Harris functional with IExCor= 4639 and IRadAn=       5 diagonalized for initial guess.
 HarFok:  IExCor= 4639 AccDes= 0.00D+00 IRadAn=         5 IDoV= 1 UseB2=F ITyADJ=14
 ICtDFT=  3500011 ScaDFX=  1.000000  1.000000  1.000000  1.000000
 FoFCou: FMM=F IPFlag=           0 FMFlag=      100000 FMFlg1=           0
         NFxFlg=           0 DoJE=T BraDBF=F KetDBF=T FulRan=T
         wScrn=  0.000000 ICntrl=       500 IOpCl=  0 I1Cent=   200000004 NGrid=           0
         NMat0=    1 NMatS0=      1 NMatT0=    0 NMatD0=    1 NMtDS0=    0 NMtDT0=    0
 Symmetry not used in FoFCou.
 Harris En= -994.258048241473    
 JPrj=0 DoOrth=F DoCkMO=F.
 Leave Link  401 at Tue Oct 27 21:29:13 2020, MaxMem=  7784628224 cpu:              13.9 elap:               1.4
 (Enter /gpfs/loomis/apps/avx/software/Gaussian/16-C.01_AVX/g16/l502.exe)
 Two-electron integral symmetry not used.
 Closed shell SCF:
 Using DIIS extrapolation, IDIIS=  1040.
 NGot=  7784628224 LenX=  7784455381 LenY=  7784371419
 Requested convergence on RMS density matrix=1.00D-08 within 128 cycles.
 Requested convergence on MAX density matrix=1.00D-06.
 Requested convergence on             energy=1.00D-06.
 No special actions if energy rises.
 Fock matrices will be formed incrementally for  20 cycles.

 Cycle   1  Pass 1  IDiag  1:
 FoFJK:  IHMeth= 1 ICntrl=       0 DoSepK=T KAlg= 0 I1Cent=           0 FoldK=F
 IRaf=         1 NMat=       1 IRICut=       1 DoRegI=T DoRafI=F ISym2E= 0 IDoP0=0 IntGTp=1.
 FoFCou: FMM=F IPFlag=           0 FMFlag=      100000 FMFlg1=           0
         NFxFlg=           0 DoJE=T BraDBF=F KetDBF=F FulRan=T
         wScrn=  0.000000 ICntrl=       500 IOpCl=  0 I1Cent=           0 NGrid=           0
         NMat0=    1 NMatS0=      1 NMatT0=    0 NMatD0=    1 NMtDS0=    0 NMtDT0=    0
 Symmetry not used in FoFCou.
 Inv3:  Mode=1 IEnd=    14480427.
 Iteration    1 A*A^-1 deviation from unit magnitude is 4.00D-15 for   2196.
 Iteration    1 A*A^-1 deviation from orthogonality  is 2.34D-15 for   2194   2095.
 Iteration    1 A^-1*A deviation from unit magnitude is 4.22D-15 for   2196.
 Iteration    1 A^-1*A deviation from orthogonality  is 2.59D-15 for   2194   2095.
 E= -1028.42582682387    
 DIIS: error= 3.19D-02 at cycle   1 NSaved=   1.
 NSaved= 1 IEnMin= 1 EnMin= -1028.42582682387     IErMin= 1 ErrMin= 3.19D-02
 ErrMax= 3.19D-02  0.00D+00 EMaxC= 1.00D-01 BMatC= 3.73D-01 BMatP= 3.73D-01
 IDIUse=3 WtCom= 6.81D-01 WtEn= 3.19D-01
 Coeff-Com:  0.100D+01
 Coeff-En:   0.100D+01
 Coeff:      0.100D+01
 Gap=     0.368 Goal=   None    Shift=    0.000
 GapD=    0.368 DampG=1.000 DampE=0.500 DampFc=0.5000 IDamp=-1.
 Damping current iteration by 5.00D-01
 RMSDP=3.43D-03 MaxDP=2.28D-01              OVMax= 1.79D-01

 Cycle   2  Pass 1  IDiag  1:
 RMSU=  1.71D-03    CP:  9.94D-01
 E= -1028.53586917003     Delta-E=       -0.110042346157 Rises=F Damp=T
 DIIS: error= 1.11D-02 at cycle   2 NSaved=   2.
 NSaved= 2 IEnMin= 2 EnMin= -1028.53586917003     IErMin= 2 ErrMin= 1.11D-02
 ErrMax= 1.11D-02  0.00D+00 EMaxC= 1.00D-01 BMatC= 5.71D-02 BMatP= 3.73D-01
 IDIUse=3 WtCom= 8.89D-01 WtEn= 1.11D-01
 Coeff-Com: -0.328D+00 0.133D+01
 Coeff-En:   0.000D+00 0.100D+01
 Coeff:     -0.292D+00 0.129D+01
 Gap=     0.300 Goal=   None    Shift=    0.000
 RMSDP=1.15D-03 MaxDP=2.14D-02 DE=-1.10D-01 OVMax= 1.33D-01

 Cycle   3  Pass 1  IDiag  1:
 RMSU=  1.09D-03    CP:  9.91D-01  1.20D+00
 E= -1028.63122696612     Delta-E=       -0.095357796092 Rises=F Damp=F
 DIIS: error= 6.71D-03 at cycle   3 NSaved=   3.
 NSaved= 3 IEnMin= 3 EnMin= -1028.63122696612     IErMin= 3 ErrMin= 6.71D-03
 ErrMax= 6.71D-03  0.00D+00 EMaxC= 1.00D-01 BMatC= 1.26D-02 BMatP= 5.71D-02
 IDIUse=3 WtCom= 9.33D-01 WtEn= 6.71D-02
 Coeff-Com: -0.211D+00 0.497D+00 0.714D+00
 Coeff-En:   0.000D+00 0.000D+00 0.100D+01
 Coeff:     -0.197D+00 0.464D+00 0.733D+00
 Gap=     0.263 Goal=   None    Shift=    0.000
 RMSDP=5.14D-04 MaxDP=2.19D-02 DE=-9.54D-02 OVMax= 4.21D-02

 Cycle   4  Pass 1  IDiag  1:
 RMSU=  3.74D-04    CP:  9.89D-01  1.38D+00  8.31D-01
 E= -1028.64350227249     Delta-E=       -0.012275306374 Rises=F Damp=F
 DIIS: error= 2.45D-03 at cycle   4 NSaved=   4.
 NSaved= 4 IEnMin= 4 EnMin= -1028.64350227249     IErMin= 4 ErrMin= 2.45D-03
 ErrMax= 2.45D-03  0.00D+00 EMaxC= 1.00D-01 BMatC= 2.00D-03 BMatP= 1.26D-02
 IDIUse=3 WtCom= 9.76D-01 WtEn= 2.45D-02
 Coeff-Com: -0.829D-01 0.166D+00 0.374D+00 0.542D+00
 Coeff-En:   0.000D+00 0.000D+00 0.242D-02 0.998D+00
 Coeff:     -0.809D-01 0.162D+00 0.365D+00 0.554D+00
 Gap=     0.261 Goal=   None    Shift=    0.000
 RMSDP=1.67D-04 MaxDP=1.00D-02 DE=-1.23D-02 OVMax= 1.24D-02

 Cycle   5  Pass 1  IDiag  1:
 RMSU=  1.06D-04    CP:  9.89D-01  1.38D+00  9.06D-01  7.37D-01
 E= -1028.64555258797     Delta-E=       -0.002050315478 Rises=F Damp=F
 DIIS: error= 4.99D-04 at cycle   5 NSaved=   5.
 NSaved= 5 IEnMin= 5 EnMin= -1028.64555258797     IErMin= 5 ErrMin= 4.99D-04
 ErrMax= 4.99D-04  0.00D+00 EMaxC= 1.00D-01 BMatC= 7.61D-05 BMatP= 2.00D-03
 IDIUse=3 WtCom= 9.95D-01 WtEn= 4.99D-03
 Coeff-Com: -0.726D-02 0.867D-02 0.590D-01 0.195D+00 0.745D+00
 Coeff-En:   0.000D+00 0.000D+00 0.000D+00 0.000D+00 0.100D+01
 Coeff:     -0.722D-02 0.863D-02 0.588D-01 0.194D+00 0.746D+00
 Gap=     0.262 Goal=   None    Shift=    0.000
 RMSDP=4.95D-05 MaxDP=1.59D-03 DE=-2.05D-03 OVMax= 4.94D-03

 Cycle   6  Pass 1  IDiag  1:
 RMSU=  3.46D-05    CP:  9.89D-01  1.39D+00  9.21D-01  8.17D-01  1.03D+00
 E= -1028.64567717961     Delta-E=       -0.000124591635 Rises=F Damp=F
 DIIS: error= 1.68D-04 at cycle   6 NSaved=   6.
 NSaved= 6 IEnMin= 6 EnMin= -1028.64567717961     IErMin= 6 ErrMin= 1.68D-04
 ErrMax= 1.68D-04  0.00D+00 EMaxC= 1.00D-01 BMatC= 9.96D-06 BMatP= 7.61D-05
 IDIUse=3 WtCom= 9.98D-01 WtEn= 1.68D-03
 Coeff-Com:  0.155D-01-0.324D-01-0.569D-01-0.451D-01 0.207D+00 0.912D+00
 Coeff-En:   0.000D+00 0.000D+00 0.000D+00 0.000D+00 0.000D+00 0.100D+01
 Coeff:      0.155D-01-0.323D-01-0.568D-01-0.451D-01 0.206D+00 0.912D+00
 Gap=     0.263 Goal=   None    Shift=    0.000
 RMSDP=3.30D-05 MaxDP=1.56D-03 DE=-1.25D-04 OVMax= 3.06D-03

 Cycle   7  Pass 1  IDiag  1:
 RMSU=  1.76D-05    CP:  9.89D-01  1.39D+00  9.34D-01  8.58D-01  1.20D+00
                    CP:  1.20D+00
 E= -1028.64570684664     Delta-E=       -0.000029667030 Rises=F Damp=F
 DIIS: error= 1.26D-04 at cycle   7 NSaved=   7.
 NSaved= 7 IEnMin= 7 EnMin= -1028.64570684664     IErMin= 7 ErrMin= 1.26D-04
 ErrMax= 1.26D-04  0.00D+00 EMaxC= 1.00D-01 BMatC= 2.14D-06 BMatP= 9.96D-06
 IDIUse=3 WtCom= 9.99D-01 WtEn= 1.26D-03
 Coeff-Com:  0.732D-02-0.141D-01-0.311D-01-0.458D-01-0.281D-01 0.376D+00
 Coeff-Com:  0.736D+00
 Coeff-En:   0.000D+00 0.000D+00 0.000D+00 0.000D+00 0.000D+00 0.000D+00
 Coeff-En:   0.100D+01
 Coeff:      0.731D-02-0.141D-01-0.310D-01-0.458D-01-0.280D-01 0.376D+00
 Coeff:      0.736D+00
 Gap=     0.263 Goal=   None    Shift=    0.000
 RMSDP=1.11D-05 MaxDP=5.71D-04 DE=-2.97D-05 OVMax= 1.36D-03

 Cycle   8  Pass 1  IDiag  1:
 RMSU=  7.21D-06    CP:  9.89D-01  1.39D+00  9.35D-01  8.63D-01  1.24D+00
                    CP:  1.39D+00  1.06D+00
 E= -1028.64571157902     Delta-E=       -0.000004732382 Rises=F Damp=F
 DIIS: error= 3.54D-05 at cycle   8 NSaved=   8.
 NSaved= 8 IEnMin= 8 EnMin= -1028.64571157902     IErMin= 8 ErrMin= 3.54D-05
 ErrMax= 3.54D-05  0.00D+00 EMaxC= 1.00D-01 BMatC= 2.54D-07 BMatP= 2.14D-06
 IDIUse=1 WtCom= 1.00D+00 WtEn= 0.00D+00
 Coeff-Com: -0.858D-03 0.203D-02 0.193D-02-0.328D-02-0.388D-01-0.489D-01
 Coeff-Com:  0.218D+00 0.869D+00
 Coeff:     -0.858D-03 0.203D-02 0.193D-02-0.328D-02-0.388D-01-0.489D-01
 Coeff:      0.218D+00 0.869D+00
 Gap=     0.263 Goal=   None    Shift=    0.000
 RMSDP=4.70D-06 MaxDP=1.39D-04 DE=-4.73D-06 OVMax= 6.29D-04

 Cycle   9  Pass 1  IDiag  1:
 RMSU=  2.25D-06    CP:  9.89D-01  1.39D+00  9.35D-01  8.64D-01  1.24D+00
                    CP:  1.46D+00  1.24D+00  1.10D+00
 E= -1028.64571229040     Delta-E=       -0.000000711387 Rises=F Damp=F
 DIIS: error= 1.65D-05 at cycle   9 NSaved=   9.
 NSaved= 9 IEnMin= 9 EnMin= -1028.64571229040     IErMin= 9 ErrMin= 1.65D-05
 ErrMax= 1.65D-05  0.00D+00 EMaxC= 1.00D-01 BMatC= 4.74D-08 BMatP= 2.54D-07
 IDIUse=1 WtCom= 1.00D+00 WtEn= 0.00D+00
 Coeff-Com: -0.123D-02 0.247D-02 0.463D-02 0.512D-02-0.102D-01-0.694D-01
 Coeff-Com: -0.150D-01 0.323D+00 0.761D+00
 Coeff:     -0.123D-02 0.247D-02 0.463D-02 0.512D-02-0.102D-01-0.694D-01
 Coeff:     -0.150D-01 0.323D+00 0.761D+00
 Gap=     0.263 Goal=   None    Shift=    0.000
 RMSDP=1.82D-06 MaxDP=5.84D-05 DE=-7.11D-07 OVMax= 1.65D-04

 Cycle  10  Pass 1  IDiag  1:
 RMSU=  9.43D-07    CP:  9.89D-01  1.39D+00  9.35D-01  8.64D-01  1.25D+00
                    CP:  1.48D+00  1.28D+00  1.25D+00  1.09D+00
 E= -1028.64571240562     Delta-E=       -0.000000115213 Rises=F Damp=F
 DIIS: error= 6.87D-06 at cycle  10 NSaved=  10.
 NSaved=10 IEnMin=10 EnMin= -1028.64571240562     IErMin=10 ErrMin= 6.87D-06
 ErrMax= 6.87D-06  0.00D+00 EMaxC= 1.00D-01 BMatC= 6.39D-09 BMatP= 4.74D-08
 IDIUse=1 WtCom= 1.00D+00 WtEn= 0.00D+00
 Coeff-Com: -0.259D-03 0.481D-03 0.120D-02 0.239D-02 0.278D-02-0.189D-01
 Coeff-Com: -0.421D-01-0.293D-01 0.221D+00 0.863D+00
 Coeff:     -0.259D-03 0.481D-03 0.120D-02 0.239D-02 0.278D-02-0.189D-01
 Coeff:     -0.421D-01-0.293D-01 0.221D+00 0.863D+00
 Gap=     0.263 Goal=   None    Shift=    0.000
 RMSDP=9.21D-07 MaxDP=2.95D-05 DE=-1.15D-07 OVMax= 1.33D-04

 Cycle  11  Pass 1  IDiag  1:
 RMSU=  4.38D-07    CP:  9.89D-01  1.39D+00  9.35D-01  8.64D-01  1.25D+00
                    CP:  1.49D+00  1.31D+00  1.30D+00  1.29D+00  1.15D+00
 E= -1028.64571243120     Delta-E=       -0.000000025587 Rises=F Damp=F
 DIIS: error= 2.83D-06 at cycle  11 NSaved=  11.
 NSaved=11 IEnMin=11 EnMin= -1028.64571243120     IErMin=11 ErrMin= 2.83D-06
 ErrMax= 2.83D-06  0.00D+00 EMaxC= 1.00D-01 BMatC= 1.71D-09 BMatP= 6.39D-09
 IDIUse=1 WtCom= 1.00D+00 WtEn= 0.00D+00
 Coeff-Com:  0.138D-03-0.289D-03-0.452D-03-0.479D-04 0.274D-02 0.426D-02
 Coeff-Com: -0.928D-02-0.521D-01-0.691D-01 0.320D+00 0.804D+00
 Coeff:      0.138D-03-0.289D-03-0.452D-03-0.479D-04 0.274D-02 0.426D-02
 Coeff:     -0.928D-02-0.521D-01-0.691D-01 0.320D+00 0.804D+00
 Gap=     0.263 Goal=   None    Shift=    0.000
 RMSDP=3.66D-07 MaxDP=7.54D-06 DE=-2.56D-08 OVMax= 5.37D-05

 Cycle  12  Pass 1  IDiag  1:
 RMSU=  1.68D-07    CP:  9.89D-01  1.39D+00  9.35D-01  8.64D-01  1.25D+00
                    CP:  1.49D+00  1.31D+00  1.32D+00  1.36D+00  1.40D+00
                    CP:  1.11D+00
 E= -1028.64571243653     Delta-E=       -0.000000005322 Rises=F Damp=F
 DIIS: error= 1.04D-06 at cycle  12 NSaved=  12.
 NSaved=12 IEnMin=12 EnMin= -1028.64571243653     IErMin=12 ErrMin= 1.04D-06
 ErrMax= 1.04D-06  0.00D+00 EMaxC= 1.00D-01 BMatC= 2.90D-10 BMatP= 1.71D-09
 IDIUse=1 WtCom= 1.00D+00 WtEn= 0.00D+00
 Coeff-Com:  0.109D-03-0.214D-03-0.455D-03-0.581D-03 0.407D-03 0.596D-02
 Coeff-Com:  0.708D-02-0.926D-02-0.942D-01-0.993D-01 0.217D+00 0.974D+00
 Coeff:      0.109D-03-0.214D-03-0.455D-03-0.581D-03 0.407D-03 0.596D-02
 Coeff:      0.708D-02-0.926D-02-0.942D-01-0.993D-01 0.217D+00 0.974D+00
 Gap=     0.263 Goal=   None    Shift=    0.000
 RMSDP=2.31D-07 MaxDP=5.18D-06 DE=-5.32D-09 OVMax= 3.53D-05

 Cycle  13  Pass 1  IDiag  1:
 RMSU=  7.12D-08    CP:  9.89D-01  1.39D+00  9.35D-01  8.64D-01  1.25D+00
                    CP:  1.49D+00  1.31D+00  1.33D+00  1.41D+00  1.52D+00
                    CP:  1.39D+00  1.27D+00
 E= -1028.64571243793     Delta-E=       -0.000000001404 Rises=F Damp=F
 DIIS: error= 4.71D-07 at cycle  13 NSaved=  13.
 NSaved=13 IEnMin=13 EnMin= -1028.64571243793     IErMin=13 ErrMin= 4.71D-07
 ErrMax= 4.71D-07  0.00D+00 EMaxC= 1.00D-01 BMatC= 3.25D-11 BMatP= 2.90D-10
 IDIUse=1 WtCom= 1.00D+00 WtEn= 0.00D+00
 Coeff-Com:  0.103D-05 0.193D-06-0.269D-04-0.104D-03-0.217D-03 0.714D-03
 Coeff-Com:  0.287D-02 0.699D-02-0.113D-01-0.609D-01-0.893D-01 0.213D+00
 Coeff-Com:  0.938D+00
 Coeff:      0.103D-05 0.193D-06-0.269D-04-0.104D-03-0.217D-03 0.714D-03
 Coeff:      0.287D-02 0.699D-02-0.113D-01-0.609D-01-0.893D-01 0.213D+00
 Coeff:      0.938D+00
 Gap=     0.263 Goal=   None    Shift=    0.000
 RMSDP=6.92D-08 MaxDP=1.65D-06 DE=-1.40D-09 OVMax= 9.32D-06

 Cycle  14  Pass 1  IDiag  1:
 RMSU=  2.70D-08    CP:  9.89D-01  1.39D+00  9.35D-01  8.64D-01  1.25D+00
                    CP:  1.49D+00  1.31D+00  1.33D+00  1.41D+00  1.56D+00
                    CP:  1.46D+00  1.49D+00  1.20D+00
 E= -1028.64571243806     Delta-E=       -0.000000000125 Rises=F Damp=F
 DIIS: error= 1.28D-07 at cycle  14 NSaved=  14.
 NSaved=14 IEnMin=14 EnMin= -1028.64571243806     IErMin=14 ErrMin= 1.28D-07
 ErrMax= 1.28D-07  0.00D+00 EMaxC= 1.00D-01 BMatC= 5.20D-12 BMatP= 3.25D-11
 IDIUse=1 WtCom= 1.00D+00 WtEn= 0.00D+00
 Coeff-Com: -0.115D-04 0.233D-04 0.403D-04 0.259D-04-0.121D-03-0.394D-03
 Coeff-Com:  0.167D-03 0.342D-02 0.538D-02-0.908D-02-0.550D-01-0.314D-01
 Coeff-Com:  0.337D+00 0.750D+00
 Coeff:     -0.115D-04 0.233D-04 0.403D-04 0.259D-04-0.121D-03-0.394D-03
 Coeff:      0.167D-03 0.342D-02 0.538D-02-0.908D-02-0.550D-01-0.314D-01
 Coeff:      0.337D+00 0.750D+00
 Gap=     0.263 Goal=   None    Shift=    0.000
 RMSDP=1.76D-08 MaxDP=4.07D-07 DE=-1.25D-10 OVMax= 2.48D-06

 Cycle  15  Pass 1  IDiag  1:
 RMSU=  8.98D-09    CP:  9.89D-01  1.39D+00  9.35D-01  8.64D-01  1.25D+00
                    CP:  1.49D+00  1.31D+00  1.33D+00  1.42D+00  1.56D+00
                    CP:  1.48D+00  1.53D+00  1.34D+00  1.07D+00
 E= -1028.64571243806     Delta-E=       -0.000000000005 Rises=F Damp=F
 DIIS: error= 5.06D-08 at cycle  15 NSaved=  15.
 NSaved=15 IEnMin=15 EnMin= -1028.64571243806     IErMin=15 ErrMin= 5.06D-08
 ErrMax= 5.06D-08  0.00D+00 EMaxC= 1.00D-01 BMatC= 4.88D-13 BMatP= 5.20D-12
 IDIUse=1 WtCom= 1.00D+00 WtEn= 0.00D+00
 Coeff-Com: -0.250D-05 0.466D-05 0.136D-04 0.240D-04 0.198D-05-0.226D-03
 Coeff-Com: -0.499D-03-0.310D-03 0.316D-02 0.879D-02 0.201D-02-0.444D-01
 Coeff-Com: -0.764D-01 0.139D+00 0.969D+00
 Coeff:     -0.250D-05 0.466D-05 0.136D-04 0.240D-04 0.198D-05-0.226D-03
 Coeff:     -0.499D-03-0.310D-03 0.316D-02 0.879D-02 0.201D-02-0.444D-01
 Coeff:     -0.764D-01 0.139D+00 0.969D+00
 Gap=     0.263 Goal=   None    Shift=    0.000
 RMSDP=8.01D-09 MaxDP=1.69D-07 DE=-5.23D-12 OVMax= 7.93D-07

 Error on total polarization charges =  0.00799
 SCF Done:  E(RwB97XD) =  -1028.64571244     A.U. after   15 cycles
            NFock= 15  Conv=0.80D-08     -V/T= 2.0039
 KE= 1.024629290175D+03 PE=-4.606905135318D+03 EE= 1.456395399673D+03
 Leave Link  502 at Tue Oct 27 21:30:36 2020, MaxMem=  7784628224 cpu:             823.0 elap:              83.0
 (Enter /gpfs/loomis/apps/avx/software/Gaussian/16-C.01_AVX/g16/l601.exe)
 Copying SCF densities to generalized density rwf, IOpCl= 0 IROHF=0.

 **********************************************************************

            Population analysis using the SCF Density.

 **********************************************************************

 Alpha  occ. eigenvalues --  -89.08798 -19.27154 -14.45704 -10.39265 -10.38672
 Alpha  occ. eigenvalues --  -10.34477 -10.34325 -10.33268 -10.32535 -10.32264
 Alpha  occ. eigenvalues --  -10.32005 -10.31300 -10.31211 -10.31104 -10.30919
 Alpha  occ. eigenvalues --  -10.30915  -8.10702  -6.05551  -6.05212  -6.04769
 Alpha  occ. eigenvalues --   -1.25671  -1.08001  -0.97161  -0.95591  -0.91348
 Alpha  occ. eigenvalues --   -0.88840  -0.86714  -0.84275  -0.82783  -0.77265
 Alpha  occ. eigenvalues --   -0.73059  -0.70304  -0.69562  -0.68579  -0.64730
 Alpha  occ. eigenvalues --   -0.60223  -0.59446  -0.58367  -0.56240  -0.54768
 Alpha  occ. eigenvalues --   -0.53874  -0.53490  -0.52632  -0.51036  -0.51036
 Alpha  occ. eigenvalues --   -0.49345  -0.48453  -0.46038  -0.45637  -0.44979
 Alpha  occ. eigenvalues --   -0.43572  -0.43272  -0.42156  -0.39600  -0.36917
 Alpha  occ. eigenvalues --   -0.36474  -0.32286  -0.31631  -0.28138
 Alpha virt. eigenvalues --   -0.01863   0.05406   0.06605   0.07156   0.07795
 Alpha virt. eigenvalues --    0.11489   0.13480   0.15217   0.16045   0.18116
 Alpha virt. eigenvalues --    0.18573   0.21263   0.21823   0.22292   0.22990
 Alpha virt. eigenvalues --    0.23402   0.23773   0.25129   0.28114   0.30858
 Alpha virt. eigenvalues --    0.32072   0.33581   0.35145   0.36297   0.36932
 Alpha virt. eigenvalues --    0.37937   0.38493   0.40822   0.44076   0.46142
 Alpha virt. eigenvalues --    0.46827   0.48577   0.50937   0.51277   0.51828
 Alpha virt. eigenvalues --    0.52336   0.53598   0.54623   0.54908   0.55850
 Alpha virt. eigenvalues --    0.55997   0.56387   0.57364   0.58075   0.58157
 Alpha virt. eigenvalues --    0.58754   0.59033   0.59641   0.59869   0.60048
 Alpha virt. eigenvalues --    0.60713   0.60939   0.62142   0.62690   0.64116
 Alpha virt. eigenvalues --    0.65147   0.66037   0.66503   0.68591   0.69075
 Alpha virt. eigenvalues --    0.70376   0.71997   0.72478   0.72936   0.73231
 Alpha virt. eigenvalues --    0.74034   0.75536   0.76193   0.77272   0.78624
 Alpha virt. eigenvalues --    0.79448   0.79451   0.81013   0.82409   0.82544
 Alpha virt. eigenvalues --    0.83775   0.88808   0.91849   0.93279   0.93815
 Alpha virt. eigenvalues --    0.95059   0.95094   0.96182   0.96822   0.97703
 Alpha virt. eigenvalues --    0.98673   0.99136   1.00441   1.01022   1.02178
 Alpha virt. eigenvalues --    1.03085   1.04834   1.06085   1.07433   1.07865
 Alpha virt. eigenvalues --    1.08107   1.08946   1.09486   1.10690   1.10977
 Alpha virt. eigenvalues --    1.12072   1.13223   1.13241   1.15361   1.15729
 Alpha virt. eigenvalues --    1.16977   1.18825   1.20598   1.22064   1.24224
 Alpha virt. eigenvalues --    1.25270   1.28855   1.33476   1.34718   1.34895
 Alpha virt. eigenvalues --    1.35376   1.36447   1.38627   1.43371   1.44112
 Alpha virt. eigenvalues --    1.47920   1.48855   1.51864   1.52973   1.54644
 Alpha virt. eigenvalues --    1.55419   1.56149   1.57129   1.57480   1.58324
 Alpha virt. eigenvalues --    1.59229   1.59582   1.62151   1.66303   1.66380
 Alpha virt. eigenvalues --    1.68217   1.68344   1.70288   1.70780   1.70811
 Alpha virt. eigenvalues --    1.72024   1.72633   1.72809   1.73921   1.74775
 Alpha virt. eigenvalues --    1.76427   1.77434   1.80020   1.81291   1.82279
 Alpha virt. eigenvalues --    1.82950   1.83543   1.84860   1.85960   1.86047
 Alpha virt. eigenvalues --    1.86693   1.88308   1.89056   1.90437   1.92229
 Alpha virt. eigenvalues --    1.92496   1.93053   1.93921   1.94487   1.94894
 Alpha virt. eigenvalues --    2.00565   2.00754   2.02321   2.03748   2.04647
 Alpha virt. eigenvalues --    2.07822   2.08561   2.09288   2.11211   2.12010
 Alpha virt. eigenvalues --    2.16576   2.17928   2.20768   2.24821   2.26179
 Alpha virt. eigenvalues --    2.26395   2.28371   2.36843   2.38607   2.41957
 Alpha virt. eigenvalues --    2.42092   2.44005   2.47467   2.47826   2.48420
 Alpha virt. eigenvalues --    2.50048   2.51063   2.54159   2.61278   2.62772
 Alpha virt. eigenvalues --    2.66457   2.72711   2.74983   2.78500   2.81454
 Alpha virt. eigenvalues --    2.82371   2.84250   2.89441   2.91618   2.99608
 Alpha virt. eigenvalues --    3.02963   3.10177   3.30127   3.33910   3.34256
 Alpha virt. eigenvalues --    3.54962   3.57221   3.72672   4.56910
          Condensed to atoms (all electrons):
               1          2          3          4          5          6
     1  C    4.761197   0.440346   0.012443  -0.053865  -0.012779   0.525754
     2  C    0.440346   5.343358   0.337645  -0.036926  -0.064261  -0.007465
     3  C    0.012443   0.337645   4.740632   0.489772  -0.006335  -0.064851
     4  C   -0.053865  -0.036926   0.489772   4.780930   0.526592  -0.014183
     5  C   -0.012779  -0.064261  -0.006335   0.526592   4.734769   0.486677
     6  C    0.525754  -0.007465  -0.064851  -0.014183   0.486677   4.750707
     7  H    0.400999  -0.038729   0.008061  -0.000440   0.008043  -0.038917
     8  H   -0.001125   0.012374  -0.030479   0.391439  -0.045095   0.008078
     9  H    0.008870  -0.000776   0.008748  -0.039731   0.405023  -0.045581
    10  H   -0.042018   0.009806  -0.000654   0.008761  -0.044050   0.405414
    11  N    0.009287  -0.065038   0.520933  -0.042347   0.003126  -0.000039
    12  S   -0.064131   0.347490  -0.099542   0.007235   0.000190   0.003468
    13  C   -0.000152   0.004061   0.007837  -0.000803   0.000010   0.000001
    14  C   -0.000006  -0.000035   0.000371   0.000007  -0.000000  -0.000000
    15  C    0.000005   0.000036  -0.001429   0.000010  -0.000001   0.000000
    16  C    0.000000  -0.000001   0.000004  -0.000000   0.000000   0.000000
    17  H   -0.000002   0.000045  -0.000007  -0.000000   0.000000  -0.000000
    18  C    0.000000   0.000006  -0.000039  -0.000000  -0.000000   0.000000
    19  C   -0.000000   0.000000   0.000003  -0.000000   0.000000   0.000000
    20  H   -0.000000  -0.000000  -0.000000   0.000000   0.000000  -0.000000
    21  H   -0.000000  -0.000000   0.000001   0.000000   0.000000  -0.000000
    22  H   -0.000000  -0.000000   0.000000  -0.000000   0.000000   0.000000
    23  C    0.004944  -0.057804  -0.135147   0.000269   0.000243  -0.000186
    24  O    0.000001  -0.000041  -0.001117  -0.000016  -0.000000  -0.000000
    25  H   -0.000062   0.001602  -0.002224  -0.000785   0.000010   0.000009
               7          8          9         10         11         12
     1  C    0.400999  -0.001125   0.008870  -0.042018   0.009287  -0.064131
     2  C   -0.038729   0.012374  -0.000776   0.009806  -0.065038   0.347490
     3  C    0.008061  -0.030479   0.008748  -0.000654   0.520933  -0.099542
     4  C   -0.000440   0.391439  -0.039731   0.008761  -0.042347   0.007235
     5  C    0.008043  -0.045095   0.405023  -0.044050   0.003126   0.000190
     6  C   -0.038917   0.008078  -0.045581   0.405414  -0.000039   0.003468
     7  H    0.662430   0.000036  -0.000147  -0.012146  -0.000128  -0.006459
     8  H    0.000036   0.662515  -0.012491  -0.000127  -0.000710  -0.000096
     9  H   -0.000147  -0.012491   0.670790  -0.012322  -0.000111   0.000021
    10  H   -0.012146  -0.000127  -0.012322   0.667491  -0.000002  -0.000142
    11  N   -0.000128  -0.000710  -0.000111  -0.000002   6.433456  -0.081031
    12  S   -0.006459  -0.000096   0.000021  -0.000142  -0.081031  15.495958
    13  C    0.000006   0.000044  -0.000000  -0.000000  -0.016748  -0.061620
    14  C    0.000000   0.000001   0.000000  -0.000000   0.003545  -0.005153
    15  C   -0.000000  -0.000055   0.000000   0.000000  -0.024376   0.004613
    16  C   -0.000000  -0.000000  -0.000000   0.000000  -0.000095  -0.000096
    17  H    0.000001   0.000000  -0.000000  -0.000000   0.000186   0.006098
    18  C   -0.000000   0.000000  -0.000000  -0.000000  -0.000241  -0.000077
    19  C    0.000000   0.000000  -0.000000  -0.000000   0.000055   0.000015
    20  H   -0.000000  -0.000000   0.000000   0.000000   0.000001  -0.000001
    21  H   -0.000000  -0.000000   0.000000   0.000000  -0.000006   0.000002
    22  H    0.000000   0.000000  -0.000000  -0.000000   0.000000  -0.000000
    23  C    0.000038  -0.001049   0.000009   0.000003   0.550381   0.304908
    24  O   -0.000000  -0.000157   0.000000  -0.000000  -0.032930  -0.000114
    25  H    0.000001   0.001296  -0.000003   0.000000   0.056963   0.002380
              13         14         15         16         17         18
     1  C   -0.000152  -0.000006   0.000005   0.000000  -0.000002   0.000000
     2  C    0.004061  -0.000035   0.000036  -0.000001   0.000045   0.000006
     3  C    0.007837   0.000371  -0.001429   0.000004  -0.000007  -0.000039
     4  C   -0.000803   0.000007   0.000010  -0.000000  -0.000000  -0.000000
     5  C    0.000010  -0.000000  -0.000001   0.000000   0.000000  -0.000000
     6  C    0.000001  -0.000000   0.000000   0.000000  -0.000000   0.000000
     7  H    0.000006   0.000000  -0.000000  -0.000000   0.000001  -0.000000
     8  H    0.000044   0.000001  -0.000055  -0.000000   0.000000   0.000000
     9  H   -0.000000   0.000000   0.000000  -0.000000  -0.000000  -0.000000
    10  H   -0.000000  -0.000000   0.000000   0.000000  -0.000000  -0.000000
    11  N   -0.016748   0.003545  -0.024376  -0.000095   0.000186  -0.000241
    12  S   -0.061620  -0.005153   0.004613  -0.000096   0.006098  -0.000077
    13  C    5.341237   0.503198   0.265066  -0.010389  -0.037653  -0.079201
    14  C    0.503198   4.785374  -0.018531   0.528583   0.403088  -0.052838
    15  C    0.265066  -0.018531   4.901229  -0.065038   0.008327   0.490260
    16  C   -0.010389   0.528583  -0.065038   4.745635  -0.037183  -0.015135
    17  H   -0.037653   0.403088   0.008327  -0.037183   0.670072  -0.000780
    18  C   -0.079201  -0.052838   0.490260  -0.015135  -0.000780   4.826029
    19  C   -0.044175  -0.017068  -0.007532   0.488188   0.008442   0.503656
    20  H    0.008675  -0.035410  -0.000342   0.402143  -0.012972   0.008478
    21  H    0.011109  -0.000382  -0.024263   0.007106   0.000038   0.383521
    22  H   -0.000850   0.008811   0.009096  -0.042881  -0.000143  -0.041905
    23  C    0.292971  -0.089434  -0.065671   0.007703  -0.020285   0.007655
    24  O   -0.067713   0.003409   0.487855   0.000030  -0.000054  -0.060491
    25  H   -0.054037  -0.001227   0.008446  -0.000041   0.000040   0.011054
              19         20         21         22         23         24
     1  C   -0.000000  -0.000000  -0.000000  -0.000000   0.004944   0.000001
     2  C    0.000000  -0.000000  -0.000000  -0.000000  -0.057804  -0.000041
     3  C    0.000003  -0.000000   0.000001   0.000000  -0.135147  -0.001117
     4  C   -0.000000   0.000000   0.000000  -0.000000   0.000269  -0.000016
     5  C    0.000000   0.000000   0.000000   0.000000   0.000243  -0.000000
     6  C    0.000000  -0.000000  -0.000000   0.000000  -0.000186  -0.000000
     7  H    0.000000  -0.000000  -0.000000   0.000000   0.000038  -0.000000
     8  H    0.000000  -0.000000  -0.000000   0.000000  -0.001049  -0.000157
     9  H   -0.000000   0.000000   0.000000  -0.000000   0.000009   0.000000
    10  H   -0.000000   0.000000   0.000000  -0.000000   0.000003  -0.000000
    11  N    0.000055   0.000001  -0.000006   0.000000   0.550381  -0.032930
    12  S    0.000015  -0.000001   0.000002  -0.000000   0.304908  -0.000114
    13  C   -0.044175   0.008675   0.011109  -0.000850   0.292971  -0.067713
    14  C   -0.017068  -0.035410  -0.000382   0.008811  -0.089434   0.003409
    15  C   -0.007532  -0.000342  -0.024263   0.009096  -0.065671   0.487855
    16  C    0.488188   0.402143   0.007106  -0.042881   0.007703   0.000030
    17  H    0.008442  -0.012972   0.000038  -0.000143  -0.020285  -0.000054
    18  C    0.503656   0.008478   0.383521  -0.041905   0.007655  -0.060491
    19  C    4.731683  -0.046952  -0.043047   0.407441   0.000378   0.002738
    20  H   -0.046952   0.673249  -0.000154  -0.011683  -0.000318   0.000003
    21  H   -0.043047  -0.000154   0.652075  -0.011707  -0.000405   0.001629
    22  H    0.407441  -0.011683  -0.011707   0.658502   0.000002  -0.000055
    23  C    0.000378  -0.000318  -0.000405   0.000002   5.132515  -0.002219
    24  O    0.002738   0.000003   0.001629  -0.000055  -0.002219   7.101192
    25  H   -0.000069  -0.000001   0.000288   0.000005   0.006651   0.446596
              25
     1  C   -0.000062
     2  C    0.001602
     3  C   -0.002224
     4  C   -0.000785
     5  C    0.000010
     6  C    0.000009
     7  H    0.000001
     8  H    0.001296
     9  H   -0.000003
    10  H    0.000000
    11  N    0.056963
    12  S    0.002380
    13  C   -0.054037
    14  C   -0.001227
    15  C    0.008446
    16  C   -0.000041
    17  H    0.000040
    18  C    0.011054
    19  C   -0.000069
    20  H   -0.000001
    21  H    0.000288
    22  H    0.000005
    23  C    0.006651
    24  O    0.446596
    25  H    0.654478
 Mulliken charges:
               1
     1  C    0.010292
     2  C   -0.225694
     3  C    0.215373
     4  C   -0.015918
     5  C    0.007839
     6  C   -0.008887
     7  H    0.017352
     8  H    0.015601
     9  H    0.017703
    10  H    0.019988
    11  N   -0.314130
    12  S    0.146085
    13  C   -0.060874
    14  C   -0.016302
    15  C    0.032295
    16  C   -0.008533
    17  H    0.012742
    18  C    0.020046
    19  C    0.016244
    20  H    0.015283
    21  H    0.024194
    22  H    0.025368
    23  C    0.063849
    24  O    0.121452
    25  H   -0.131368
 Sum of Mulliken charges =  -0.00000
 Mulliken charges with hydrogens summed into heavy atoms:
               1
     1  C    0.027644
     2  C   -0.225694
     3  C    0.215373
     4  C   -0.000317
     5  C    0.025542
     6  C    0.011101
    11  N   -0.314130
    12  S    0.146085
    13  C   -0.060874
    14  C   -0.003561
    15  C    0.032295
    16  C    0.006750
    18  C    0.044240
    19  C    0.041613
    23  C    0.063849
    24  O   -0.009915
 Electronic spatial extent (au):  <R**2>=           4356.4253
 Charge=             -0.0000 electrons
 Dipole moment (field-independent basis, Debye):
    X=             -0.9021    Y=             -1.1668    Z=              0.0000  Tot=              1.4748
 Quadrupole moment (field-independent basis, Debye-Ang):
   XX=            -82.8740   YY=            -86.8741   ZZ=           -104.1553
   XY=             -7.6069   XZ=             -0.0001   YZ=              0.0002
 Traceless Quadrupole moment (field-independent basis, Debye-Ang):
   XX=              8.4272   YY=              4.4270   ZZ=            -12.8542
   XY=             -7.6069   XZ=             -0.0001   YZ=              0.0002
 Octapole moment (field-independent basis, Debye-Ang**2):
  XXX=              3.8043  YYY=             -3.4641  ZZZ=              0.0000  XYY=             -8.7721
  XXY=              6.2409  XXZ=              0.0001  XZZ=              0.7721  YZZ=              3.6361
  YYZ=              0.0008  XYZ=             -0.0007
 Hexadecapole moment (field-independent basis, Debye-Ang**3):
 XXXX=          -2598.2772 YYYY=          -2587.3203 ZZZZ=           -113.4613 XXXY=            800.8028
 XXXZ=              0.0096 YYYX=            759.7069 YYYZ=             -0.0107 ZZZX=              0.0131
 ZZZY=             -0.0184 XXYY=           -845.2313 XXZZ=           -571.4013 YYZZ=           -551.1151
 XXYZ=             -0.0028 YYXZ=              0.0000 ZZXY=            356.2509
 N-N= 1.097234733032D+03 E-N=-4.606905138234D+03  KE= 1.024629290175D+03
 No NMR shielding tensors so no spin-rotation constants.
 Leave Link  601 at Tue Oct 27 21:30:36 2020, MaxMem=  7784628224 cpu:               1.1 elap:               0.1
 (Enter /gpfs/loomis/apps/avx/software/Gaussian/16-C.01_AVX/g16/l701.exe)
 ... and contract with generalized density number  0.
 Compute integral first derivatives.
 R6Disp: Adding Grimme-D2 dispersion energy 1st derivatives to the gradient.
 D1PCM: PCM CHGder 1st derivatives, ID1Alg=3 FixD1E=F DoIter=F DoCFld=F I1PDM=0.
 GePol: Maximum number of non-zero 1st derivatives   =     264
 Leave Link  701 at Tue Oct 27 21:30:38 2020, MaxMem=  7784628224 cpu:              14.0 elap:               1.4
 (Enter /gpfs/loomis/apps/avx/software/Gaussian/16-C.01_AVX/g16/l702.exe)
 L702 exits ... SP integral derivatives will be done elsewhere.
 Leave Link  702 at Tue Oct 27 21:30:38 2020, MaxMem=  7784628224 cpu:               0.2 elap:               0.0
 (Enter /gpfs/loomis/apps/avx/software/Gaussian/16-C.01_AVX/g16/l703.exe)
 Integral derivatives from FoFJK, PRISM(SPDF).
 Compute integral first derivatives, UseDBF=F ICtDFT=           0.
 Calling FoFJK, ICntrl=      2127 FMM=F ISym2X=0 I1Cent= 0 IOpClX= 0 NMat=1 NMatS=1 NMatT=0.
 FoFJK:  IHMeth= 1 ICntrl=    2127 DoSepK=T KAlg= 0 I1Cent=           0 FoldK=F
 IRaf=         1 NMat=       1 IRICut=       1 DoRegI=T DoRafI=F ISym2E= 0 IDoP0=0 IntGTp=1.
 FoFCou: FMM=F IPFlag=           0 FMFlag=      100000 FMFlg1=         800
         NFxFlg=           0 DoJE=F BraDBF=F KetDBF=F FulRan=T
         wScrn=  0.000000 ICntrl=      2527 IOpCl=  0 I1Cent=           0 NGrid=           0
         NMat0=    1 NMatS0=      1 NMatT0=    0 NMatD0=    1 NMtDS0=    0 NMtDT0=    0
 Symmetry not used in FoFCou.
 Leave Link  703 at Tue Oct 27 21:30:51 2020, MaxMem=  7784628224 cpu:             135.5 elap:              13.6
 (Enter /gpfs/loomis/apps/avx/software/Gaussian/16-C.01_AVX/g16/l716.exe)
 Dipole        =-3.54907501D-01-4.59054464D-01 6.22151630D-06
 -------------------------------------------------------------------
 Center     Atomic                   Forces (Hartrees/Bohr)
 Number     Number              X              Y              Z
 -------------------------------------------------------------------
      1        6           0.006235452   -0.006406835    0.000000019
      2        6           0.004272165    0.014272538   -0.000000097
      3        6           0.027758476   -0.048350545   -0.000000257
      4        6          -0.017751270    0.002265584   -0.000000072
      5        6           0.000126623   -0.008812446    0.000000002
      6        6          -0.004743174    0.004364169   -0.000000007
      7        1           0.000494037    0.000203905   -0.000000032
      8        1          -0.000465570   -0.000659687   -0.000000008
      9        1          -0.000541751   -0.000013142    0.000000002
     10        1          -0.000501439    0.000358273    0.000000012
     11        7          -0.067360961    0.024763236    0.000000527
     12       16           0.005576072    0.013599727    0.000000154
     13        6          -0.030630096    0.063361550    0.000000981
     14        6           0.023108900   -0.000113217    0.000000328
     15        6          -0.012782114   -0.034361577   -0.000000646
     16        6          -0.004540616    0.014950512    0.000000396
     17        1          -0.001476224   -0.000751582    0.000000029
     18        6          -0.003117938   -0.004687211   -0.000000165
     19        6           0.001163415   -0.021529590   -0.000000690
     20        1           0.000772494   -0.000178265   -0.000000002
     21        1           0.000007832   -0.000481977    0.000000019
     22        1          -0.000189274   -0.000276266   -0.000000072
     23        6           0.066986542   -0.025924998   -0.000000704
     24        8          -0.440514580    0.752996987    0.000014779
     25        1           0.448113000   -0.738589141   -0.000014496
 -------------------------------------------------------------------
 Cartesian Forces:  Max     0.752996987 RMS     0.142797269
 Leave Link  716 at Tue Oct 27 21:30:51 2020, MaxMem=  7784628224 cpu:               0.3 elap:               0.0
 (Enter /gpfs/loomis/apps/avx/software/Gaussian/16-C.01_AVX/g16/l103.exe)

 GradGradGradGradGradGradGradGradGradGradGradGradGradGradGradGradGradGrad
 Berny optimization.
 FormGI is forming the generalized inverse of G from B-inverse, IUseBI=4.
 Internal  Forces:  Max     0.814415576 RMS     0.073411024
 Search for a local minimum.
 Step number   1 out of a maximum of  143
 All quantities printed in internal units (Hartrees-Bohrs-Radians)
 RMS Force = .73969D-01 SwitMx=.10000D-02 MixMth= 1
 Mixed Optimization -- RFO/linear search
 Second derivative matrix not updated -- first step.
 ITU=  0
     Eigenvalues ---    0.01285   0.01391   0.01598   0.01654   0.01740
     Eigenvalues ---    0.01779   0.01932   0.01945   0.01950   0.01985
     Eigenvalues ---    0.01988   0.02010   0.02034   0.02087   0.02089
     Eigenvalues ---    0.02115   0.02160   0.02162   0.02181   0.02201
     Eigenvalues ---    0.02239   0.02691   0.16000   0.16000   0.16000
     Eigenvalues ---    0.16000   0.16000   0.16000   0.16000   0.16003
     Eigenvalues ---    0.16083   0.22000   0.22029   0.22520   0.22582
     Eigenvalues ---    0.24471   0.24554   0.25000   0.25000   0.25000
     Eigenvalues ---    0.26274   0.29153   0.32508   0.34568   0.34569
     Eigenvalues ---    0.34622   0.34632   0.34633   0.34719   0.34725
     Eigenvalues ---    0.34760   0.36948   0.38998   0.39766   0.40802
     Eigenvalues ---    0.42447   0.42942   0.43955   0.44342   0.46053
     Eigenvalues ---    0.46600   0.47740   0.48621   0.50633   0.58811
     Eigenvalues ---    0.60746   2.002801000.000001000.000001000.00000
     Eigenvalues --- 1000.000001000.000001000.000001000.000001000.00000
     Eigenvalues --- 1000.000001000.000001000.000001000.000001000.00000
     Eigenvalues --- 1000.000001000.000001000.000001000.000001000.00000
     Eigenvalues --- 1000.000001000.000001000.000001000.000001000.00000
     Eigenvalues --- 1000.000001000.000001000.000001000.000001000.00000
     Eigenvalues --- 1000.000001000.000001000.000001000.000001000.00000
     Eigenvalues --- 1000.000001000.000001000.000001000.000001000.00000
     Eigenvalues --- 1000.000001000.000001000.000001000.000001000.00000
     Eigenvalues --- 1000.000001000.000001000.000001000.000001000.00000
     Eigenvalues --- 1000.000001000.000001000.000001000.000001000.00000
     Eigenvalues --- 1000.000001000.000001000.000001000.000001000.00000
     Eigenvalues --- 1000.000001000.000001000.000001000.000001000.00000
     Eigenvalues --- 1000.000001000.000001000.00000
 RFO step:  Lambda=-3.16575524D-01 EMin= 1.28528165D-02
 Linear search not attempted -- first point.
 Maximum step size (   0.300) exceeded in Quadratic search.
    -- Step size scaled by   0.783
 Iteration  1 RMS(Cart)=  0.02307701 RMS(Int)=  0.00631666
 Iteration  2 RMS(Cart)=  0.00651024 RMS(Int)=  0.00021255
 Iteration  3 RMS(Cart)=  0.00009223 RMS(Int)=  0.00020016
 Iteration  4 RMS(Cart)=  0.00000012 RMS(Int)=  0.00020026
 Iteration  1 RMS(Cart)=  0.00000093 RMS(Int)=  0.00000021
 ITry= 1 IFail=0 DXMaxC= 2.06D-01 DCOld= 1.00D+10 DXMaxT= 3.00D-01 DXLimC= 3.00D+00 Rises=F
 Variable       Old X    -DE/DX   Delta X   Delta X   Delta X     New X
                                 (Linear)    (Quad)   (Total)
    R1        2.63042   0.01877   0.00000   0.00880   0.00866   2.63908
    R2        2.63980   0.00870   0.00000  -0.00200  -0.00216   2.63764
    R3        2.06275  -0.00006   0.00000  -0.00048  -0.00048   2.06227
    R4        2.70426  -0.01325   0.00000  -0.01796  -0.01800   2.68626
    R5        3.32209   0.01123   0.00000   0.00229   0.00215   3.32424
    R6        2.69634  -0.02618   0.00000  -0.02091  -0.02081   2.67553
    R7        2.49182   0.00975   0.00000   0.02660   0.02692   2.51874
    R8        2.60409  -0.01343   0.00000  -0.00140  -0.00123   2.60286
    R9        2.06293  -0.00053   0.00000  -0.00081  -0.00081   2.06212
   R10        2.67131  -0.00067   0.00000  -0.00480  -0.00486   2.66645
   R11        2.06380  -0.00026   0.00000  -0.00054  -0.00054   2.06326
   R12        2.06277  -0.00064   0.00000  -0.00073  -0.00072   2.06204
   R13        2.56775  -0.06557   0.00000  -0.04980  -0.04964   2.51812
   R14        3.38883   0.04900   0.00000   0.00878   0.00819   3.39703
   R15        2.69997   0.00582   0.00000  -0.01094  -0.01116   2.68880
   R16        2.79347   0.03888   0.00000  -0.01636  -0.01708   2.77639
   R17        2.66541   0.07645   0.00000   0.04517   0.04472   2.71013
   R18        2.61345   0.00025   0.00000   0.00113   0.00114   2.61459
   R19        2.06133   0.00119   0.00000   0.00141   0.00141   2.06274
   R20        2.64474  -0.02087   0.00000  -0.00798  -0.00780   2.63694
   R21        2.50285   0.02255   0.00000   0.01046   0.01029   2.51314
   R22        2.68757  -0.02074   0.00000  -0.02197  -0.02196   2.66561
   R23        2.06382  -0.00110   0.00000  -0.00098  -0.00098   2.06284
   R24        2.62293  -0.02840   0.00000  -0.00936  -0.00909   2.61384
   R25        2.06123   0.00005   0.00000  -0.00034  -0.00034   2.06089
   R26        2.06066  -0.00022   0.00000  -0.00007  -0.00007   2.06059
   R27        1.28732   0.81442   0.00000   0.27520   0.27574   1.56306
    A1        2.07111  -0.00763   0.00000  -0.00488  -0.00485   2.06627
    A2        2.11048   0.00621   0.00000   0.00399   0.00395   2.11443
    A3        2.10159   0.00143   0.00000   0.00089   0.00089   2.10249
    A4        2.11061  -0.01457   0.00000  -0.00357  -0.00340   2.10721
    A5        2.26561   0.03947   0.00000   0.01836   0.01801   2.28361
    A6        1.90697  -0.02490   0.00000  -0.01479  -0.01461   1.89236
    A7        2.08317   0.02015   0.00000   0.00932   0.00915   2.09232
    A8        2.01824   0.02104   0.00000   0.00756   0.00735   2.02559
    A9        2.18178  -0.04118   0.00000  -0.01688  -0.01650   2.16527
   A10        2.07479   0.00229   0.00000   0.00095   0.00095   2.07574
   A11        2.07645  -0.00309   0.00000  -0.00158  -0.00156   2.07489
   A12        2.13194   0.00080   0.00000   0.00063   0.00062   2.13256
   A13        2.11364  -0.00606   0.00000  -0.00392  -0.00388   2.10976
   A14        2.09016   0.00149   0.00000   0.00107   0.00106   2.09122
   A15        2.07939   0.00456   0.00000   0.00285   0.00282   2.08220
   A16        2.11305   0.00582   0.00000   0.00211   0.00203   2.11508
   A17        2.08296  -0.00169   0.00000  -0.00058  -0.00055   2.08241
   A18        2.08717  -0.00413   0.00000  -0.00153  -0.00148   2.08569
   A19        1.99016   0.01051   0.00000   0.00263   0.00254   1.99270
   A20        1.55515   0.00476   0.00000   0.00661   0.00658   1.56173
   A21        2.01248  -0.03023   0.00000  -0.00170  -0.00131   2.01117
   A22        2.21259  -0.03791   0.00000  -0.02020  -0.01989   2.19270
   A23        2.05811   0.06814   0.00000   0.02190   0.02120   2.07931
   A24        2.11601   0.01284   0.00000   0.00776   0.00765   2.12365
   A25        2.07038  -0.00381   0.00000  -0.00126  -0.00122   2.06916
   A26        2.09680  -0.00904   0.00000  -0.00650  -0.00643   2.09037
   A27        2.13215   0.00406   0.00000  -0.00562  -0.00572   2.12642
   A28        2.08927   0.10139   0.00000   0.04734   0.04639   2.13566
   A29        2.06177  -0.10545   0.00000  -0.04172  -0.04067   2.02110
   A30        2.13062   0.00083   0.00000  -0.00900  -0.00909   2.12153
   A31        2.07810   0.00052   0.00000   0.00483   0.00487   2.08297
   A32        2.07446  -0.00135   0.00000   0.00417   0.00423   2.07869
   A33        2.09303   0.01208   0.00000   0.00686   0.00676   2.09980
   A34        2.05853  -0.00779   0.00000  -0.00457  -0.00451   2.05402
   A35        2.13162  -0.00429   0.00000  -0.00228  -0.00225   2.12937
   A36        2.08208   0.00042   0.00000   0.00170   0.00172   2.08380
   A37        2.09803   0.00164   0.00000  -0.00033  -0.00036   2.09767
   A38        2.10308  -0.00207   0.00000  -0.00137  -0.00136   2.10172
   A39        1.95426  -0.01140   0.00000  -0.00200  -0.00187   1.95239
   A40        2.10589  -0.01001   0.00000  -0.00971  -0.00966   2.09623
   A41        2.22303   0.02141   0.00000   0.01171   0.01153   2.23456
   A42        1.92874   0.02511   0.00000   0.01965   0.01938   1.94812
    D1        0.00000   0.00000   0.00000   0.00000   0.00000   0.00000
    D2       -3.14159   0.00000   0.00000   0.00000   0.00000  -3.14159
    D3        3.14159   0.00000   0.00000   0.00000   0.00000   3.14159
    D4       -0.00000   0.00000   0.00000   0.00000   0.00000  -0.00000
    D5       -0.00000   0.00000   0.00000   0.00000   0.00000  -0.00000
    D6        3.14159   0.00000   0.00000   0.00000   0.00000   3.14159
    D7       -3.14159   0.00000   0.00000   0.00000   0.00000  -3.14159
    D8        0.00000  -0.00000   0.00000  -0.00000  -0.00000   0.00000
    D9       -0.00000  -0.00000   0.00000  -0.00000  -0.00000  -0.00000
   D10        3.14159  -0.00000   0.00000  -0.00000  -0.00000   3.14159
   D11        3.14159  -0.00000   0.00000  -0.00000  -0.00000   3.14159
   D12       -0.00000  -0.00000   0.00000  -0.00000  -0.00000  -0.00000
   D13        3.14159   0.00000   0.00000   0.00000   0.00000   3.14159
   D14       -0.00000   0.00000   0.00000   0.00000   0.00000  -0.00000
   D15        0.00000   0.00000   0.00000   0.00000   0.00000   0.00000
   D16       -3.14159   0.00000   0.00000   0.00000   0.00000  -3.14159
   D17       -3.14159   0.00000   0.00000   0.00000   0.00000  -3.14159
   D18        0.00000   0.00000   0.00000   0.00000   0.00000   0.00000
   D19        0.00000  -0.00000   0.00000  -0.00000  -0.00000   0.00000
   D20       -3.14159  -0.00000   0.00000  -0.00000  -0.00000  -3.14159
   D21       -0.00000  -0.00000   0.00000  -0.00000  -0.00000  -0.00000
   D22       -3.14159  -0.00000   0.00000  -0.00000  -0.00000   3.14159
   D23       -3.14159   0.00000   0.00000   0.00000   0.00000  -3.14159
   D24        0.00000   0.00000   0.00000   0.00000   0.00000   0.00000
   D25       -0.00000  -0.00000   0.00000  -0.00000  -0.00000  -0.00000
   D26       -3.14159  -0.00000   0.00000  -0.00000  -0.00000   3.14159
   D27        3.14159  -0.00000   0.00000  -0.00000  -0.00000   3.14159
   D28       -0.00000   0.00000   0.00000   0.00000   0.00000  -0.00000
   D29       -0.00000   0.00000   0.00000   0.00000   0.00000  -0.00000
   D30        3.14158   0.00000   0.00000   0.00000   0.00000   3.14158
   D31        0.00000  -0.00000   0.00000  -0.00000  -0.00000   0.00000
   D32       -3.14158  -0.00000   0.00000  -0.00000  -0.00000  -3.14158
   D33       -0.00001  -0.00000   0.00000  -0.00000  -0.00000  -0.00001
   D34        3.14159  -0.00000   0.00000  -0.00000  -0.00000   3.14159
   D35        3.14158  -0.00000   0.00000  -0.00000  -0.00000   3.14158
   D36       -0.00001  -0.00000   0.00000  -0.00000  -0.00000  -0.00001
   D37        0.00001   0.00000   0.00000   0.00000   0.00000   0.00001
   D38       -3.14159   0.00000   0.00000   0.00000   0.00000  -3.14159
   D39       -3.14158   0.00000   0.00000   0.00000   0.00000  -3.14158
   D40        0.00001   0.00000   0.00000   0.00000   0.00000   0.00001
   D41        3.14158  -0.00000   0.00000  -0.00000  -0.00000   3.14158
   D42       -0.00002  -0.00000   0.00000  -0.00000  -0.00000  -0.00002
   D43       -0.00001  -0.00000   0.00000  -0.00000  -0.00000  -0.00001
   D44        3.14157  -0.00000   0.00000  -0.00000  -0.00000   3.14157
   D45        0.00000  -0.00000   0.00000  -0.00000  -0.00000   0.00000
   D46       -3.14159   0.00000   0.00000   0.00000   0.00000  -3.14159
   D47        3.14159  -0.00000   0.00000  -0.00000  -0.00000   3.14159
   D48        0.00000  -0.00000   0.00000  -0.00000  -0.00000  -0.00000
[...]
 00000003,0.00007779,0.00000002,0.,-0.00008700,0.,0.,0.00001221,0.00000
 001,0.,-0.00004528,0.,0.,0.00002522,0.,0.,-0.00003947,0.,0.00000029,0.
 00032116,-0.00000008,0.00000002,0.00116726,0.00000110,-0.00000298,-0.0
 7076135,-0.00000285,0.00000074,0.00169425,-0.00000701,0.00001064,0.175
 11504,0.00012857,-0.00005285,0.,-0.00026945,0.00057955,0.00000001,0.00
 036911,-0.00078076,0.,-0.00015566,0.00022291,0.,-0.00000476,-0.0000024
 1,0.,-0.00010634,0.00005813,0.,-0.00001063,0.00002262,0.,0.00003967,-0
 .00001081,0.,-0.00002401,0.00001735,0.,-0.00000376,0.00001121,0.,-0.00
 304653,0.00196121,0.,-0.00013967,0.00059043,-0.00000002,-0.04203768,0.
 01573397,0.00000016,-0.22623144,0.15666238,0.00000341,0.00094527,0.016
 29640,0.00000027,0.76454455,-0.00048541,0.00085815,0.,0.00119263,-0.00
 080154,0.,-0.00042620,0.00122261,0.00000004,-0.00039825,-0.00013399,0.
 ,-0.00012688,-0.00079423,-0.00000001,0.00102453,-0.00015392,-0.0000000
 1,-0.00003350,-0.00007633,0.,0.00001683,0.00003932,0.,0.00010154,-0.00
 003638,0.,0.00005808,-0.00003146,0.,0.00574375,0.00190995,0.,-0.001401
 23,-0.00096999,-0.00000003,0.06814148,0.03722973,0.00000093,0.08356513
 ,-0.27193887,-0.00000463,0.02502162,-0.07490485,-0.00000218,0.00078963
 ,0.67954445,-0.00000003,0.00000003,0.00005039,0.00000006,-0.00000002,0
 .00029277,0.00000001,0.,-0.00069874,-0.00000003,0.,-0.00011833,0.,-0.0
 0000004,0.00007056,0.00000004,0.,-0.00001368,0.,0.,0.00000108,0.,0.,-0
 .00000104,0.,0.,0.00001473,0.,0.,-0.00002413,0.00000008,0.00000009,0.0
 0011442,-0.00000002,-0.00000007,-0.00054330,0.00000150,0.00000085,0.00
 711514,0.00000185,-0.00000503,-0.06281639,0.00000075,-0.00000182,-0.00
 432297,0.00000282,0.00001650,0.12849034,0.00025268,0.00006632,0.,-0.00
 063324,0.00018194,0.00000006,0.00029137,-0.00006140,0.,0.00000801,0.00
 002623,0.,0.00004737,0.00004655,0.,-0.00005129,-0.00008156,0.,-0.00001
 188,-0.00001035,0.,0.00003276,0.00000751,0.,0.00001068,-0.00000076,0.,
 0.00003028,-0.00000490,0.,0.00022405,0.00039409,0.,-0.00031637,0.00138
 104,-0.00000011,-0.00565533,-0.02793577,-0.00000069,-0.09714945,-0.098
 05518,-0.00000277,-0.00553670,0.00110023,-0.00000003,0.01098851,0.0193
 0939,0.00000050,0.09878642,-0.00001929,-0.00003944,0.,-0.00001055,0.00
 039068,0.00000001,0.00018247,-0.00015865,0.,-0.00000271,0.00004183,0.,
 0.00000814,0.00003661,0.,-0.00005527,0.00002458,0.,-0.00000394,0.00001
 012,0.,0.00001209,-0.00000035,0.,-0.00000584,0.00000173,0.,-0.00000598
 ,0.00000237,0.,-0.00054111,0.00020728,0.,-0.00022918,0.00021155,0.,0.0
 0123717,-0.00064525,-0.00000008,-0.09589581,-0.30135196,-0.00000689,0.
 00001448,0.00185401,-0.00000014,-0.01290878,-0.01709594,-0.00000056,0.
 10305678,0.31886317,0.00000002,0.,-0.00000996,-0.00000005,0.00000003,-
 0.00048914,0.,0.00000001,0.00010443,0.00000001,0.,0.00008155,0.,0.0000
 0001,-0.00002562,0.,-0.00000001,0.00002538,0.,0.,-0.00001208,0.,0.,-0.
 00001525,0.,0.,-0.00000608,0.,0.,0.00001839,0.00000007,0.00000001,0.00
 006226,-0.00000008,0.00000005,0.00099732,0.00000034,-0.00000012,0.0031
 0505,-0.00000311,-0.00000678,-0.03744620,-0.00000002,-0.00000024,0.005
 84654,-0.00000014,-0.00000076,0.00477348,0.00000294,0.00000766,0.02485
 280,0.00012620,0.00034628,0.00000001,0.00035949,-0.00010955,0.00000002
 ,0.00098616,-0.00015340,0.,-0.00037013,-0.00014685,0.,-0.00000051,-0.0
 0032366,0.,0.00030363,-0.00008676,0.,-0.00003207,-0.00000701,0.,0.0000
 9984,0.00001593,0.,0.00003795,-0.00001574,0.,0.00003165,0.00000019,0.,
 0.00201601,0.00351997,-0.00000006,0.00039222,0.00007093,-0.00000003,0.
 05736268,0.03263710,0.00000125,-0.06184073,0.02778437,0.00000069,-0.18
 003895,0.06172582,0.00000241,-0.00824278,-0.08843887,-0.00000233,-0.00
 083273,0.00063300,-0.00000019,0.78416854,0.00034851,-0.00025525,0.,-0.
 00092152,-0.00021811,0.,-0.00034196,0.00008148,0.,0.00039383,0.0000426
 5,0.,0.00008167,0.00046514,0.,-0.00044897,-0.00006043,0.,-0.00000183,0
 .00002375,0.,0.00000245,-0.00001023,0.,-0.00002803,0.00001532,0.,0.000
 00816,0.00000372,0.,-0.00104693,-0.00076623,0.,0.00128127,-0.00020488,
 0.,-0.00591701,-0.03685376,-0.00000135,0.02370362,-0.01350754,-0.00000
 028,0.13293085,-0.26437474,-0.00000639,-0.03791942,0.02109512,0.000000
 23,0.00035683,0.00052668,0.00000015,0.04530859,0.72614455,0.00000002,-
 0.00000002,-0.00022032,-0.00000007,0.,-0.00003222,-0.00000002,0.,-0.00
 037096,0.00000002,0.,0.00000755,0.,0.00000003,0.00001122,-0.00000003,0
 .,0.00002005,0.,0.,-0.00001461,0.,0.,-0.00000954,0.,0.,-0.00000724,0.,
 0.,0.00003918,-0.00000006,-0.00000005,0.00073649,0.00000007,-0.0000000
 2,-0.00006250,-0.00000010,-0.00000069,0.00724405,0.00000061,-0.0000003
 2,-0.00353367,0.00000426,-0.00000686,-0.07086837,-0.00000107,0.0000001
 7,0.00836362,0.,0.00000006,-0.00104017,-0.00000263,0.00001717,0.123627
 89,0.00033176,-0.00061213,0.,-0.00113961,0.00036505,-0.00000001,-0.000
 38695,-0.00012415,0.,0.00057790,0.00010356,0.,0.00006911,0.00074271,0.
 ,-0.00078910,0.00004095,0.,0.00002258,0.00005666,0.,-0.00002732,-0.000
 03623,0.,-0.00007680,0.00003252,0.,-0.00003879,0.00002099,0.,-0.002820
 98,-0.00141958,0.00000002,0.00095563,0.00024412,0.00000002,-0.04225381
 ,-0.02350358,-0.00000069,0.06582401,-0.00959455,-0.00000027,-0.0523154
 5,0.06486250,0.00000208,-0.15535631,-0.03152857,-0.00000157,-0.0020645
 0,0.00420929,0.00000021,-0.39778033,-0.07811358,-0.00000098,0.75350838
 ,0.00010753,-0.00019525,0.,-0.00020749,0.00027133,0.,0.00030916,-0.000
 81759,-0.00000002,-0.00008633,0.00013542,0.,0.00004194,0.00008331,0.,-
 0.00021194,0.00009397,0.,0.00000983,0.00001394,0.,-0.00001443,-0.00000
 652,0.,-0.00002725,0.00001088,0.,-0.00001047,0.00000640,0.,-0.00352216
 ,-0.00063042,0.00000003,0.00033421,0.00022576,0.00000002,-0.03918142,-
 0.02362331,-0.00000074,0.04793395,-0.05931662,-0.00000189,0.00849213,0
 .06139619,0.00000158,-0.10554954,-0.30767788,-0.00000842,0.00343813,-0
 .00225470,-0.00000011,-0.00621466,-0.13965011,-0.00000188,-0.03387980,
 0.71419058,0.,0.,0.00001763,0.,0.00000001,-0.00000882,0.00000002,-0.00
 000003,0.00019035,0.,0.,0.00000909,0.,0.,-0.00001508,0.,0.,0.00000308,
 0.,0.,-0.00000013,0.,0.,0.00000737,0.,0.,-0.00000108,0.,0.,-0.00000714
 ,-0.00000012,-0.00000002,-0.00014320,0.,0.00000001,0.00001987,-0.00000
 113,-0.00000052,-0.00377629,0.00000131,-0.00000176,0.00681658,0.000000
 54,0.00000154,0.00047336,-0.00000352,-0.00000839,-0.06420134,0.0000000
 5,-0.00000024,0.00752513,0.00000033,-0.00000205,-0.05820836,-0.0000017
 0,0.00001840,0.14164614,0.00001781,-0.00006769,0.,-0.00006807,0.000119
 35,0.,-0.00003188,-0.00005086,0.,0.00004254,0.00003467,0.,-0.00000741,
 0.00006039,0.,-0.00007415,0.00001299,0.,0.00000192,0.00001069,0.,0.000
 00334,-0.00000588,0.,-0.00001149,0.00000593,0.,-0.00000896,0.00000552,
 0.,-0.00041523,0.00033730,0.,0.00002684,0.00005546,0.,0.00014943,0.003
 55242,0.00000004,-0.01410382,-0.00687735,-0.00000026,0.00056464,0.0002
 2484,0.,-0.34061277,-0.04680479,-0.00000256,0.00077359,0.00008929,0.00
 000003,0.00132895,-0.00212808,-0.00000010,-0.00631213,0.00244580,0.000
 00007,0.35881439,-0.00000191,0.00002185,0.,0.00002874,-0.00006282,0.,0
 .00007003,0.00004880,0.,-0.00000585,-0.00004120,0.,0.00001103,-0.00001
 104,0.,0.00002078,-0.00000752,0.,0.00000035,-0.00000453,0.,0.00000020,
 0.00000238,0.,0.00000482,-0.00000416,0.,0.00000320,-0.00000156,0.,0.00
 042239,-0.00029540,0.,0.00000793,0.00002385,0.,0.00238543,-0.00348877,
 -0.00000026,0.02552051,0.00706387,0.00000025,0.00044983,-0.00158218,-0
 .00000003,-0.04757479,-0.06559970,-0.00000125,-0.00015735,0.00093723,0
 .00000016,-0.00111419,-0.00525436,-0.00000038,-0.02976387,0.00041600,-
 0.00000013,0.05009298,0.06578800,0.,0.,-0.00000137,0.,0.,-0.00000841,0
 .,0.,-0.00018631,0.,0.,-0.00000553,0.,0.,0.00001459,0.,0.,-0.00000526,
 0.,0.,0.00000110,0.,0.,-0.00000410,0.,0.,0.00000204,0.,0.,0.00000424,0
 .00000001,0.,-0.00012649,0.,0.,0.00001423,0.00000012,-0.00000019,0.007
 30910,0.00000051,0.00000020,0.00180242,0.00000005,-0.00000010,-0.00070
 226,-0.00000250,-0.00000130,-0.03373350,0.00000003,0.00000014,-0.00468
 014,-0.00000002,-0.00000040,0.00634037,-0.00000094,0.,0.00185551,0.000
 00276,0.00000146,0.02511539,-0.00003277,-0.00000597,0.,0.00000678,0.00
 009119,0.,-0.00000454,0.00002120,0.,-0.00000237,0.00000646,0.,-0.00000
 994,-0.00001630,0.,0.00001313,0.00000992,0.,0.00000157,-0.00000085,0.,
 -0.00000828,0.00000034,0.,0.00000014,0.00000071,0.,-0.00000329,-0.0000
 0144,0.,0.00007976,-0.00009550,0.,-0.00021658,0.00002998,0.,-0.0020767
 5,0.00224401,0.00000010,-0.00113417,0.00059202,0.00000002,0.00892735,0
 .01918602,0.00000051,-0.00526514,0.00027087,0.00000006,0.00008553,-0.0
 0009791,0.,-0.09979392,-0.10500693,-0.00000243,-0.00497976,-0.02881016
 ,-0.00000074,-0.00041486,-0.00139338,-0.00000007,0.10227325,0.00002241
 ,0.00007904,0.,-0.00000420,-0.00013061,0.,0.00007907,0.00003589,0.,-0.
 00003880,-0.00001982,0.,0.00001049,-0.00004399,0.,0.00005358,-0.000022
 99,0.,-0.00000537,-0.00000376,0.,0.00000789,0.00000514,0.,0.00000925,-
 0.00000371,0.,0.00001076,-0.00000258,0.,0.00013945,0.00032309,0.,0.000
 20331,-0.00016594,0.,0.00375736,-0.00204288,-0.00000021,0.00100795,0.0
 0037788,0.00000004,-0.01375867,-0.01834232,-0.00000052,-0.00030100,0.0
 0200712,-0.00000015,-0.00005670,-0.00006068,0.00000002,-0.10158264,-0.
 30508832,-0.00000692,0.00192809,0.00089854,-0.00000005,0.00009694,-0.0
 0005439,0.,0.11122387,0.32011604,0.,0.,0.00001196,0.,-0.00000001,-0.00
 002192,0.,0.,-0.00002700,0.,0.,-0.00000056,0.,0.,-0.00000411,0.,0.,0.0
 0000185,0.,0.,0.00000168,0.,0.,0.00000443,0.,0.,0.00000246,0.,0.,-0.00
 000124,0.,0.00000001,-0.00000533,0.00000002,0.,-0.00005420,0.00000005,
 -0.00000030,0.00503219,0.00000024,-0.00000003,-0.00091026,-0.00000065,
 -0.00000038,0.00491931,-0.00000001,0.00000002,0.00758035,0.,0.00000001
 ,-0.00064230,-0.00000198,-0.00000695,-0.03532347,-0.00000020,-0.000000
 09,0.00273043,0.,0.,0.00041283,0.00000264,0.00000749,0.02493311,0.0000
 1352,-0.00002902,0.,-0.00002948,0.00007877,0.,0.00006925,-0.00005269,0
 .,0.00001015,0.00000885,0.,0.00000143,0.00002849,0.,-0.00003626,0.0000
 0823,0.,0.00000040,0.00000498,0.,0.00000581,-0.00000288,0.,-0.00000621
 ,0.00000243,0.,-0.00000391,0.00000328,0.,-0.00009128,0.00013623,0.,-0.
 00000600,0.00013191,0.,-0.00086188,-0.00058266,-0.00000002,0.00055038,
 -0.00283867,-0.00000010,-0.00400278,-0.00257238,-0.00000003,0.01025926
 ,-0.01008851,-0.00000033,0.00036989,-0.00053858,0.,-0.01268312,0.02646
 887,0.00000081,-0.17154155,0.13865484,0.00000439,0.00065213,0.00045586
 ,0.00000002,0.00108924,-0.00023926,-0.00000003,0.17775884,0.00001567,0
 .00002190,0.,-0.00004916,-0.00000452,0.,0.00000702,0.00002455,0.,-0.00
 000376,-0.00000548,0.,0.00000682,-0.00000792,0.,0.00001193,-0.00001190
 ,0.,-0.00000239,-0.00000401,0.,0.00000061,0.00000310,0.,0.00000520,-0.
 00000147,0.,0.00000583,-0.00000303,0.,0.00011844,-0.00008118,0.,-0.000
 03002,0.00000912,0.,-0.00085311,0.00015897,0.00000003,-0.00331799,-0.0
 0432769,-0.00000037,-0.00217251,0.00109921,-0.00000023,0.02096259,-0.0
 1468097,-0.00000057,0.00096170,-0.00103134,0.,-0.00572224,0.00685888,0
 .00000007,0.13978410,-0.23331226,-0.00000626,-0.00014227,0.00101935,0.
 00000015,0.00020944,0.00065324,0.00000016,-0.14993374,0.24316245,0.,0.
 ,-0.00000287,0.,0.,-0.00004154,0.,0.,0.00007148,0.,0.,0.00000870,0.,0.
 ,-0.00000618,0.,0.,-0.00000130,0.,0.,0.00000156,0.,0.,-0.00000073,0.,0
 .,-0.00000015,0.,0.,0.00000420,0.00000001,0.,-0.00007816,0.,0.00000001
 ,0.00011338,-0.00000008,0.00000002,-0.00097632,-0.00000018,-0.00000037
 ,0.00664111,-0.00000002,-0.00000011,0.00893185,0.00000070,-0.00000060,
 0.00418640,0.00000005,-0.00000005,-0.00013364,0.00000003,0.00000005,0.
 00487063,0.00000431,-0.00000625,-0.04072314,0.00000001,0.00000015,-0.0
 0363334,-0.00000003,0.00000015,-0.00464999,-0.00000477,0.00000697,0.02
 681345,-0.00214520,-0.00759133,-0.00000007,-0.00359313,0.01538003,0.00
 000003,-0.09670734,0.04536209,0.00000018,0.01747274,-0.00277183,-0.000
 00002,-0.00390590,0.01131119,0.00000012,-0.00600492,-0.00603147,-0.000
 00002,0.00057321,-0.00096388,-0.00000003,-0.00050527,-0.00011472,0.000
 00001,0.00016445,0.00013759,0.,-0.00076063,-0.00013060,0.,-0.47055986,
 -0.06678119,-0.00000054,-0.04668139,-0.01286060,0.00000015,-0.14016186
 ,0.06399647,0.00000025,-0.03476700,0.02924146,0.00000028,0.02777878,0.
 01170132,-0.00000019,-0.00141107,-0.01181996,-0.00000039,0.00070471,0.
 00101946,0.00000002,-0.00239442,-0.00173095,-0.00000006,0.00312767,0.0
 0335676,0.00000013,-0.00028355,0.00080490,0.00000003,0.00029538,-0.001
 11615,-0.00000004,0.00022414,-0.00000785,0.00000001,0.77575854,0.00168
 247,-0.00294704,0.00000011,0.02943435,-0.02414907,-0.00000005,0.017203
 70,0.00247640,0.00000001,0.00840339,-0.00824897,-0.00000004,-0.0017943
 0,0.00607782,0.00000006,-0.00354626,-0.00452827,-0.00000006,0.00038734
 ,-0.00083556,-0.00000001,-0.00044268,0.00022841,0.,0.00025473,-0.00032
 448,0.,-0.00044067,0.00002907,-0.00000002,-0.08140658,-0.12001922,-0.0
 0000032,0.00952104,-0.08761502,-0.00000008,0.05839519,-0.18161759,-0.0
 0000071,0.01448496,0.00773962,0.00000021,0.01316426,-0.03514086,-0.000
 00013,-0.00624905,0.01020697,0.00000017,-0.00190787,-0.00016697,0.,-0.
 00064267,-0.00623352,-0.00000023,-0.00622290,-0.00439468,-0.00000013,-
 0.00108132,0.00081154,0.00000002,0.00107147,-0.00045815,-0.00000005,-0
 .00025212,0.00014668,0.,-0.05531024,0.44194233,-0.00000005,0.00000009,
 -0.00026719,0.00000016,-0.00000044,0.00430615,0.00000035,-0.00000018,0
 .00560088,-0.00000009,0.00000003,0.00328840,0.,-0.00000010,0.00033723,
 0.00000009,0.00000001,0.00073401,-0.00000001,0.,-0.00028376,0.,0.,-0.0
 0019330,0.,0.,-0.00049195,0.,0.,0.00005021,-0.00000070,-0.00000016,-0.
 06249652,0.00000013,0.00000015,-0.03860929,0.00000003,-0.00000012,-0.0
 5267504,-0.00000004,0.00000028,-0.00274522,0.00000027,-0.00000080,0.00
 238147,-0.00000006,-0.00000023,0.00663418,0.,0.00000009,-0.00324389,-0
 .00000005,-0.00000015,0.00491315,0.00000005,0.00000001,-0.00096765,0.,
 -0.00000002,0.00090106,0.,-0.00000002,0.00004368,0.,0.00000003,-0.0008
 7125,-0.00000012,0.00000131,0.13534892,-0.00035410,0.00167311,0.,0.001
 59221,0.00051715,-0.00000002,0.00624264,-0.00083501,0.00000003,-0.0016
 6539,-0.00021854,0.,0.00002122,-0.00156815,-0.00000002,0.00159764,0.00
 013468,0.,-0.00013065,0.00007027,0.,0.00033823,0.00002472,0.,0.0000593
 7,-0.00003431,0.,0.00006235,0.00004504,0.,0.00987880,0.01783569,-0.000
 00009,-0.00019281,0.00012978,0.00000004,-0.01061545,-0.02679795,0.0000
 0027,-0.00826358,0.00487406,0.00000029,-0.31677789,-0.08463056,0.00000
 242,-0.00510743,-0.01484442,-0.00000044,-0.00082879,-0.00031297,-0.000
 00005,-0.08060475,0.00739691,0.00000186,0.01514490,0.01164731,0.000000
 28,-0.00009139,-0.00025886,0.,0.00134818,-0.00161562,-0.00000003,-0.00
 149016,0.00030305,-0.00000003,-0.01949749,0.01309801,0.00000004,0.5891
 0441,-0.00044554,-0.00021343,0.,0.00022686,-0.00183829,0.,-0.00608889,
 -0.00100453,0.00000007,-0.00021191,-0.00036370,0.,0.00032501,-0.000028
 74,0.,0.00013529,-0.00002492,0.,0.00010707,-0.00017703,0.,0.00001817,0
 .00007274,0.,0.00011498,-0.00007978,0.,0.00007149,-0.00005102,0.,0.008
 21943,-0.02491192,-0.00000008,-0.00091451,-0.00302437,0.,-0.04034276,-
 0.00708983,0.00000019,0.00687168,-0.00744214,-0.00000021,-0.04992812,-
 0.13447456,-0.00000088,-0.00194670,0.00574827,0.00000018,-0.00162996,-
 0.00016078,-0.00000004,0.04392160,0.01482097,-0.00000034,-0.00179372,-
 0.00932455,-0.00000041,-0.00002111,0.00043762,0.00000003,0.00017992,0.
 00207245,0.00000009,0.00155065,0.00022309,0.00000002,0.00341964,0.0052
 5785,0.00000007,-0.13611031,0.49673347,0.,-0.00000002,-0.00007919,-0.0
 0000002,-0.00000003,-0.00008358,-0.00000015,0.00000004,0.00055093,0.00
 000003,0.,0.00014083,0.,0.00000003,-0.00003219,-0.00000002,0.,0.000034
 51,0.,0.,-0.00001279,0.,0.,-0.00004211,0.,0.,-0.00001683,0.,0.,-0.0000
 0303,-0.00000005,-0.00000043,0.00433549,0.00000002,0.00000002,-0.00057
 334,-0.00000090,-0.00000028,0.00998810,0.00000054,-0.00000036,0.006364
 49,0.00000343,0.00000034,-0.05287649,-0.00000006,0.00000063,-0.0010690
 3,0.,-0.00000001,0.00040701,0.00000261,-0.00000014,0.01076887,-0.00000
 049,-0.00000065,0.00473160,0.,0.00000004,-0.00060105,-0.00000007,0.000
 00014,-0.00333867,0.00000005,0.,-0.00020101,0.00000035,-0.00000020,-0.
 00276942,-0.00001084,0.00000937,0.03430019,0.00011433,-0.00032019,0.,-
 0.00064975,0.00038599,0.,-0.00010364,0.00205040,-0.00000002,0.00069261
 ,0.00039981,0.,-0.00016942,0.00017172,0.,-0.00027806,-0.00002825,0.,0.
 00000310,0.00001074,0.,-0.00046920,-0.00003548,0.,-0.00000028,0.000009
 21,0.,-0.00002299,-0.00004610,0.,-0.01104569,-0.00088068,0.00000009,-0
 .00072973,-0.00070754,-0.00000001,0.00212913,0.00239070,-0.00000005,0.
 00028768,0.00092319,0.,-0.04453119,0.03498333,0.00000131,0.00075050,0.
 00116111,0.00000003,0.00047445,0.00016574,0.00000002,-0.00259890,-0.00
 467635,-0.00000012,-0.00167853,0.00094404,0.00000010,0.00006010,-0.000
 00876,0.,-0.00017796,0.00016800,0.,-0.00025183,-0.00015736,-0.00000001
 ,0.00327942,-0.00780426,0.,-0.17977008,0.17427175,0.00000554,0.2346859
 3,0.00021009,0.00075936,0.,0.00081110,0.00263666,0.,0.00927254,-0.0025
 5859,-0.00000004,-0.00084972,0.00075480,0.,-0.00036438,-0.00067553,0.,
 0.00042592,0.00031086,0.,-0.00015758,0.00024387,0.,0.00033815,-0.00005
 948,0.,-0.00015697,0.00011016,0.,-0.00007061,0.00009183,0.,0.00204813,
 0.00385505,-0.00000027,0.00116186,0.00408003,0.00000006,0.00001023,-0.
 00625781,-0.00000004,-0.00341236,0.00032398,0.00000004,0.01144526,0.01
 927234,0.00000018,-0.00061229,-0.00496561,-0.00000014,-0.00042493,-0.0
 0014177,-0.00000003,-0.01140553,0.00239920,0.00000021,0.00420212,0.003
 46158,0.00000004,0.00003480,-0.00016284,0.,0.00029103,-0.00012832,0.00
 000003,-0.00040288,0.00009122,0.,-0.01850014,0.00176272,0.00000013,0.2
 0947694,-0.33515687,-0.00000847,-0.20337077,0.30995316,0.,0.,0.0001388
 2,0.00000003,-0.00000002,0.00026570,0.,-0.00000004,-0.00022326,-0.0000
 0001,0.,-0.00027640,0.,-0.00000002,-0.00001856,0.00000001,0.,-0.000031
 98,0.,0.,0.00001756,0.,0.,0.00016280,0.,0.,0.00002087,0.,0.,-0.0000004
 8,0.00000008,0.00000009,-0.00803846,-0.00000002,-0.00000002,0.00085831
 ,-0.00000002,0.,-0.00177496,-0.00000011,0.00000001,-0.00017194,0.00000
 061,-0.00000040,-0.00080090,-0.00000001,-0.00000014,-0.00014503,-0.000
 00001,0.,-0.00005486,-0.00000005,0.00000008,0.00274834,0.00000016,-0.0
 0000001,0.00202606,0.,0.,-0.00008511,0.,0.00000004,-0.00069525,0.00000
 001,0.00000002,-0.00032315,-0.00000007,0.00000013,0.00107514,0.0000063
 0,-0.00000803,-0.00992329,-0.00000688,0.00000830,0.01525004\\0.0020963
 5,-0.00190351,-0.00000032,-0.00228912,-0.00475546,-0.00000039,-0.00571
 329,-0.00048672,0.00000004,-0.00116909,0.00145139,0.00000016,0.0009238
 8,0.00477982,0.00000008,0.00191913,0.00185063,-0.00000012,0.00043704,-
 0.00032852,0.00000005,-0.00042109,0.00033036,0.,0.00005297,0.00044846,
 0.,0.00033835,0.00023780,0.00000004,0.00272182,-0.00612819,0.00000073,
 -0.00309735,-0.01198880,0.00000095,0.00235928,-0.00279355,-0.00000029,
 -0.00508807,0.00236260,-0.00000068,-0.00564731,-0.00292959,0.00000056,
 0.00120120,0.00025194,-0.00000019,-0.00039754,0.00019047,-0.00000001,0
 .00353693,0.00032297,0.00000020,0.00459062,0.00339617,0.00000032,0.000
 09134,0.00039625,0.,0.00051326,-0.00003104,0.00000001,0.00051867,0.000
 41871,0.00000002,0.00159760,0.00062053,-0.00000037,0.00465909,0.002168
 10,-0.00000062,-0.00373466,0.01211917,-0.00000018\\\@
 The archive entry for this job was punched.


 THE TRULY SUCCESSFUL PERFORMANCE OF RESEARCHES IN
 INORGANIC CHEMISTRY IS POSSIBLE ONLY TO ONE WHO IS NOT
 ONLY A THEORETICAL CHEMIST, BUT ALSO AN ACCOMPLISHED
 ANALYST AND, MOREOVER, NOT MERELY A PRACTICALLY TRAINED,
 MECHANICAL WORKER, BUT A THINKING CREATIVE ARTIST.
   --  CLEMENS WINKLER, BER. 33, 1697(1900)
 Job cpu time:       0 days  0 hours 58 minutes 25.6 seconds.
 Elapsed time:       0 days  0 hours  5 minutes 52.9 seconds.
 File lengths (MBytes):  RWF=    544 Int=      0 D2E=      0 Chk=     40 Scr=      8
 Normal termination of Gaussian 16 at Tue Oct 27 21:45:06 2020.
