 Entering Gaussian System, Link 0=g16
 Initial command:
 /gpfs/loomis/apps/avx/software/Gaussian/16-C.01_AVX/g16/l1.exe "/home/fas/batista/pev4/scratch60/gauss-scratch/Gau-5789.inp" -scrdir="/home/fas/batista/pev4/scratch60/gauss-scratch/"
 Entering Link 1 = /gpfs/loomis/apps/avx/software/Gaussian/16-C.01_AVX/g16/l1.exe PID=      5790.
  
 Copyright (c) 1988-2019, Gaussian, Inc.  All Rights Reserved.
  
 This is part of the Gaussian(R) 16 program.  It is based on
 the Gaussian(R) 09 system (copyright 2009, Gaussian, Inc.),
 the Gaussian(R) 03 system (copyright 2003, Gaussian, Inc.),
 the Gaussian(R) 98 system (copyright 1998, Gaussian, Inc.),
 the Gaussian(R) 94 system (copyright 1995, Gaussian, Inc.),
 the Gaussian 92(TM) system (copyright 1992, Gaussian, Inc.),
 the Gaussian 90(TM) system (copyright 1990, Gaussian, Inc.),
 the Gaussian 88(TM) system (copyright 1988, Gaussian, Inc.),
 the Gaussian 86(TM) system (copyright 1986, Carnegie Mellon
 University), and the Gaussian 82(TM) system (copyright 1983,
 Carnegie Mellon University). Gaussian is a federally registered
 trademark of Gaussian, Inc.
  
 This software contains proprietary and confidential information,
 including trade secrets, belonging to Gaussian, Inc.
  
 This software is provided under written license and may be
 used, copied, transmitted, or stored only in accord with that
 written license.
  
 The following legend is applicable only to US Government
 contracts under FAR:
  
                    RESTRICTED RIGHTS LEGEND
  
 Use, reproduction and disclosure by the US Government is
 subject to restrictions as set forth in subparagraphs (a)
 and (c) of the Commercial Computer Software - Restricted
 Rights clause in FAR 52.227-19.
  
 Gaussian, Inc.
 340 Quinnipiac St., Bldg. 40, Wallingford CT 06492
  
  
 ---------------------------------------------------------------
 Warning -- This program may not be used in any manner that
 competes with the business of Gaussian, Inc. or will provide
 assistance to any competitor of Gaussian, Inc.  The licensee
 of this program is prohibited from giving any competitor of
 Gaussian, Inc. access to this program.  By using this program,
 the user acknowledges that Gaussian, Inc. is engaged in the
 business of creating and licensing software in the field of
 computational chemistry and represents and warrants to the
 licensee that it is not a competitor of Gaussian, Inc. and that
 it will not use this program in any manner prohibited above.
 ---------------------------------------------------------------
  

 Cite this work as:
 Gaussian 16, Revision C.01,
 M. J. Frisch, G. W. Trucks, H. B. Schlegel, G. E. Scuseria, 
 M. A. Robb, J. R. Cheeseman, G. Scalmani, V. Barone, 
 G. A. Petersson, H. Nakatsuji, X. Li, M. Caricato, A. V. Marenich, 
 J. Bloino, B. G. Janesko, R. Gomperts, B. Mennucci, H. P. Hratchian, 
 J. V. Ortiz, A. F. Izmaylov, J. L. Sonnenberg, D. Williams-Young, 
 F. Ding, F. Lipparini, F. Egidi, J. Goings, B. Peng, A. Petrone, 
 T. Henderson, D. Ranasinghe, V. G. Zakrzewski, J. Gao, N. Rega, 
 G. Zheng, W. Liang, M. Hada, M. Ehara, K. Toyota, R. Fukuda, 
 J. Hasegawa, M. Ishida, T. Nakajima, Y. Honda, O. Kitao, H. Nakai, 
 T. Vreven, K. Throssell, J. A. Montgomery, Jr., J. E. Peralta, 
 F. Ogliaro, M. J. Bearpark, J. J. Heyd, E. N. Brothers, K. N. Kudin, 
 V. N. Staroverov, T. A. Keith, R. Kobayashi, J. Normand, 
 K. Raghavachari, A. P. Rendell, J. C. Burant, S. S. Iyengar, 
 J. Tomasi, M. Cossi, J. M. Millam, M. Klene, C. Adamo, R. Cammi, 
 J. W. Ochterski, R. L. Martin, K. Morokuma, O. Farkas, 
 J. B. Foresman, and D. J. Fox, Gaussian, Inc., Wallingford CT, 2019.
 
 ******************************************
 Gaussian 16:  ES64L-G16RevC.01  3-Jul-2019
                28-Oct-2020 
 ******************************************
 %chk=config_10_17.chk
 %mem=58GB
 %nprocshared=10
 Will use up to   10 processors via shared memory.
 ----------------------------------------------------------------------
 #p opt=addgic freq wb97xd/cc-pvdz nosymm int=ultrafine scrf=(solvent=C
 arbonTetraChloride)
 ----------------------------------------------------------------------
 1/18=20,19=15,26=6,38=1,145=903/1,3;
 2/9=110,12=2,15=1,17=6,18=5,40=1/2;
 3/5=16,11=2,25=1,30=1,70=2201,71=1,72=11,74=-58,75=-5/1,2,3;
 4//1;
 5/5=2,38=5,53=11/2;
 6/7=2,8=2,9=2,10=2,28=1/1;
 7/30=1/1,2,3,16;
 1/18=20,19=15,26=6,145=903/3(2);
 2/9=110,15=1/2;
 99//99;
 2/9=110,15=1/2;
 3/5=16,11=2,25=1,30=1,70=2205,71=1,72=11,74=-58,75=-5/1,2,3;
 4/5=5,16=3,69=1/1;
 5/5=2,38=5,53=11/2;
 7/30=1/1,2,3,16;
 1/18=20,19=15,26=6,145=903/3(-5);
 2/9=110,15=1/2;
 6/7=2,8=2,9=2,10=2,19=2,28=1/1;
 99/9=1/99;
 Leave Link    1 at Wed Oct 28 00:30:55 2020, MaxMem=  7784628224 cpu:               4.3 elap:               0.5
 (Enter /gpfs/loomis/apps/avx/software/Gaussian/16-C.01_AVX/g16/l101.exe)
 ------------------------------------------------
 NM 2D-scan of HBT TD-WB97XD pVDZ in CTC Relaxed.
 ------------------------------------------------
 Symbolic Z-matrix:
 Charge =  0 Multiplicity = 1
 C                     1.53449  -3.24638  -0.00002 
 C                     1.00639  -1.95077  -0.00002 
 C                     1.80906  -0.77382  -0.00003 
 C                     3.20377  -0.94228  -0.00003 
 C                     3.7349   -2.24294  -0.00002 
 C                     2.92295  -3.38793  -0.00002 
 H                     0.86632  -4.11769  -0.00001 
 H                     3.87079  -0.06988  -0.00004 
 H                     4.82366  -2.36086  -0.00002 
 H                     3.37478  -4.3851   -0.00001 
 N                     1.03216   0.38998  -0.00003 
 S                    -0.69688  -1.58049  -0.00003 
 C                    -1.32226   1.0782    0.00001 
 C                    -2.66461   0.72144   0.00002 
 C                    -0.89287   2.48732   0.00004 
 C                    -3.65804   1.73816   0.00003 
 H                    -2.97167  -0.33136   0.00002 
 C                    -1.9398    3.47147   0.00004 
 C                    -3.29571   3.08985   0.00003 
 H                    -4.71485   1.44986   0.00004 
 H                    -1.64015   4.52647   0.00006 
 H                    -4.07567   3.85756   0.00004 
 C                    -0.29897   0.09639  -0.00002 
 O                     0.34456   2.72857   0.00006 
 H                     1.10625   1.19576   0.00001 
 
 Initializing the GIC definitions file.
 Number of initial coordinates =   134
 Number of input entries/lines =    52
 Number of additional coordinates =     2
 Number of removed coordinates =     0
 Number of frozen coordinates =     2
 Number of final active and frozen coordinates =   136
 ITRead=  0  0  0  0  0  0  0  0  0  0  0  0  0  0  0  0  0  0  0  0
 ITRead=  0  0  0  0  0
 MicOpt= -1 -1 -1 -1 -1 -1 -1 -1 -1 -1 -1 -1 -1 -1 -1 -1 -1 -1 -1 -1
 MicOpt= -1 -1 -1 -1 -1
 NAtoms=     25 NQM=       25 NQMF=       0 NMMI=      0 NMMIF=      0
                NMic=       0 NMicF=      0.
                    Isotopes and Nuclear Properties:
 (Nuclear quadrupole moments (NQMom) in fm**2, nuclear magnetic moments (NMagM)
  in nuclear magnetons)

  Atom         1           2           3           4           5           6           7           8           9          10
 IAtWgt=          12          12          12          12          12          12           1           1           1           1
 AtmWgt=  12.0000000  12.0000000  12.0000000  12.0000000  12.0000000  12.0000000   1.0078250   1.0078250   1.0078250   1.0078250
 NucSpn=           0           0           0           0           0           0           1           1           1           1
 AtZEff=  -0.0000000  -0.0000000  -0.0000000  -0.0000000  -0.0000000  -0.0000000  -0.0000000  -0.0000000  -0.0000000  -0.0000000
 NQMom=    0.0000000   0.0000000   0.0000000   0.0000000   0.0000000   0.0000000   0.0000000   0.0000000   0.0000000   0.0000000
 NMagM=    0.0000000   0.0000000   0.0000000   0.0000000   0.0000000   0.0000000   2.7928460   2.7928460   2.7928460   2.7928460
 AtZNuc=   6.0000000   6.0000000   6.0000000   6.0000000   6.0000000   6.0000000   1.0000000   1.0000000   1.0000000   1.0000000

  Atom        11          12          13          14          15          16          17          18          19          20
 IAtWgt=          14          32          12          12          12          12           1          12          12           1
 AtmWgt=  14.0030740  31.9720718  12.0000000  12.0000000  12.0000000  12.0000000   1.0078250  12.0000000  12.0000000   1.0078250
 NucSpn=           2           0           0           0           0           0           1           0           0           1
 AtZEff=  -0.0000000  -0.0000000  -0.0000000  -0.0000000  -0.0000000  -0.0000000  -0.0000000  -0.0000000  -0.0000000  -0.0000000
 NQMom=    2.0440000   0.0000000   0.0000000   0.0000000   0.0000000   0.0000000   0.0000000   0.0000000   0.0000000   0.0000000
 NMagM=    0.4037610   0.0000000   0.0000000   0.0000000   0.0000000   0.0000000   2.7928460   0.0000000   0.0000000   2.7928460
 AtZNuc=   7.0000000  16.0000000   6.0000000   6.0000000   6.0000000   6.0000000   1.0000000   6.0000000   6.0000000   1.0000000

  Atom        21          22          23          24          25
 IAtWgt=           1           1          12          16           1
 AtmWgt=   1.0078250   1.0078250  12.0000000  15.9949146   1.0078250
 NucSpn=           1           1           0           0           1
 AtZEff=  -0.0000000  -0.0000000  -0.0000000  -0.0000000  -0.0000000
 NQMom=    0.0000000   0.0000000   0.0000000   0.0000000   0.0000000
 NMagM=    2.7928460   2.7928460   0.0000000   0.0000000   2.7928460
 AtZNuc=   1.0000000   1.0000000   6.0000000   8.0000000   1.0000000
 Leave Link  101 at Wed Oct 28 00:30:59 2020, MaxMem=  7784628224 cpu:              32.7 elap:               3.3
 (Enter /gpfs/loomis/apps/avx/software/Gaussian/16-C.01_AVX/g16/l103.exe)

 GradGradGradGradGradGradGradGradGradGradGradGradGradGradGradGradGradGrad
 Berny optimization.
 Initialization pass.
                           ----------------------------
                           !    Initial Parameters    !
                           ! (Angstroms and Degrees)  !
 --------------------------                            --------------------------
 ! Name  Definition              Value          Derivative Info.                !
 --------------------------------------------------------------------------------
 ! R1    R(1,2)                  1.3991         estimate D2E/DX2                !
 ! R2    R(1,6)                  1.3957         estimate D2E/DX2                !
 ! R3    R(1,7)                  1.098          estimate D2E/DX2                !
 ! R4    R(2,3)                  1.4246         estimate D2E/DX2                !
 ! R5    R(2,12)                 1.743          estimate D2E/DX2                !
 ! R6    R(3,4)                  1.4048         estimate D2E/DX2                !
 ! R7    R(3,11)                 1.3993         estimate D2E/DX2                !
 ! R8    R(4,5)                  1.4049         estimate D2E/DX2                !
 ! R9    R(4,8)                  1.0982         estimate D2E/DX2                !
 ! R10   R(5,6)                  1.4037         estimate D2E/DX2                !
 ! R11   R(5,9)                  1.0951         estimate D2E/DX2                !
 ! R12   R(6,10)                 1.0948         estimate D2E/DX2                !
 ! R13   R(11,23)                1.3631         estimate D2E/DX2                !
 ! R14   R(11,25)                0.8092         estimate D2E/DX2                !
 ! R15   R(12,23)                1.7234         estimate D2E/DX2                !
 ! R16   R(13,14)                1.3889         estimate D2E/DX2                !
 ! R17   R(13,15)                1.4731         estimate D2E/DX2                !
 ! R18   R(13,23)                1.4181         estimate D2E/DX2                !
 ! R19   R(14,16)                1.4215         estimate D2E/DX2                !
 ! R20   R(14,17)                1.0967         estimate D2E/DX2                !
 ! R21   R(15,18)                1.4369         estimate D2E/DX2                !
 ! R22   R(15,24)                1.2607         estimate D2E/DX2                !
 ! R23   R(16,19)                1.3994         estimate D2E/DX2                !
 ! R24   R(16,20)                1.0954         estimate D2E/DX2                !
 ! R25   R(18,19)                1.4086         estimate D2E/DX2                !
 ! R26   R(18,21)                1.0967         estimate D2E/DX2                !
 ! R27   R(19,22)                1.0944         estimate D2E/DX2                !
 ! A1    A(2,1,6)              117.9978         estimate D2E/DX2                !
 ! A2    A(2,1,7)              120.3407         estimate D2E/DX2                !
 ! A3    A(6,1,7)              121.6615         estimate D2E/DX2                !
 ! A4    A(1,2,3)              123.5297         estimate D2E/DX2                !
 ! A5    A(1,2,12)             124.4412         estimate D2E/DX2                !
 ! A6    A(3,2,12)             112.0291         estimate D2E/DX2                !
 ! A7    A(2,3,4)              117.4066         estimate D2E/DX2                !
 ! A8    A(2,3,11)             111.9809         estimate D2E/DX2                !
 ! A9    A(4,3,11)             130.6124         estimate D2E/DX2                !
 ! A10   A(3,4,5)              119.1004         estimate D2E/DX2                !
 ! A11   A(3,4,8)              120.5135         estimate D2E/DX2                !
 ! A12   A(5,4,8)              120.3861         estimate D2E/DX2                !
 ! A13   A(4,5,6)              122.4453         estimate D2E/DX2                !
 ! A14   A(4,5,9)              118.3948         estimate D2E/DX2                !
 ! A15   A(6,5,9)              119.1599         estimate D2E/DX2                !
 ! A16   A(1,6,5)              119.5202         estimate D2E/DX2                !
 ! A17   A(1,6,10)             120.1971         estimate D2E/DX2                !
 ! A18   A(5,6,10)             120.2827         estimate D2E/DX2                !
 ! A19   A(3,11,23)            111.2873         estimate D2E/DX2                !
 ! A20   A(3,11,25)            141.0219         estimate D2E/DX2                !
 ! A21   A(23,11,25)           107.6909         estimate D2E/DX2                !
 ! A22   A(2,12,23)             88.9159         estimate D2E/DX2                !
 ! A23   A(14,13,15)           121.8307         estimate D2E/DX2                !
 ! A24   A(14,13,23)           121.3014         estimate D2E/DX2                !
 ! A25   A(15,13,23)           116.8679         estimate D2E/DX2                !
 ! A26   A(13,14,16)           119.4526         estimate D2E/DX2                !
 ! A27   A(13,14,17)           121.1441         estimate D2E/DX2                !
 ! A28   A(16,14,17)           119.4034         estimate D2E/DX2                !
 ! A29   A(13,15,18)           116.2828         estimate D2E/DX2                !
 ! A30   A(13,15,24)           117.9791         estimate D2E/DX2                !
 ! A31   A(18,15,24)           125.7381         estimate D2E/DX2                !
 ! A32   A(14,16,19)           120.6581         estimate D2E/DX2                !
 ! A33   A(14,16,20)           119.0774         estimate D2E/DX2                !
 ! A34   A(19,16,20)           120.2645         estimate D2E/DX2                !
 ! A35   A(15,18,19)           121.0512         estimate D2E/DX2                !
 ! A36   A(15,18,21)           117.3737         estimate D2E/DX2                !
 ! A37   A(19,18,21)           121.5751         estimate D2E/DX2                !
 ! A38   A(16,19,18)           120.7246         estimate D2E/DX2                !
 ! A39   A(16,19,22)           119.5412         estimate D2E/DX2                !
 ! A40   A(18,19,22)           119.7342         estimate D2E/DX2                !
 ! A41   A(11,23,12)           115.7868         estimate D2E/DX2                !
 ! A42   A(11,23,13)           123.7472         estimate D2E/DX2                !
 ! A43   A(12,23,13)           120.466          estimate D2E/DX2                !
 ! D1    D(6,1,2,3)             -0.0001         estimate D2E/DX2                !
 ! D2    D(6,1,2,12)           180.0            estimate D2E/DX2                !
 ! D3    D(7,1,2,3)            179.9999         estimate D2E/DX2                !
 ! D4    D(7,1,2,12)            -0.0001         estimate D2E/DX2                !
 ! D5    D(2,1,6,5)             -0.0001         estimate D2E/DX2                !
 ! D6    D(2,1,6,10)           179.9999         estimate D2E/DX2                !
 ! D7    D(7,1,6,5)            179.9999         estimate D2E/DX2                !
 ! D8    D(7,1,6,10)             0.0            estimate D2E/DX2                !
 ! D9    D(1,2,3,4)              0.0003         estimate D2E/DX2                !
 ! D10   D(1,2,3,11)          -179.9999         estimate D2E/DX2                !
 ! D11   D(12,2,3,4)          -179.9998         estimate D2E/DX2                !
 ! D12   D(12,2,3,11)            0.0            estimate D2E/DX2                !
 ! D13   D(1,2,12,23)          179.9996         estimate D2E/DX2                !
 ! D14   D(3,2,12,23)           -0.0003         estimate D2E/DX2                !
 ! D15   D(2,3,4,5)             -0.0003         estimate D2E/DX2                !
 ! D16   D(2,3,4,8)            179.9998         estimate D2E/DX2                !
 ! D17   D(11,3,4,5)           180.0            estimate D2E/DX2                !
 ! D18   D(11,3,4,8)             0.0001         estimate D2E/DX2                !
 ! D19   D(2,3,11,23)            0.0004         estimate D2E/DX2                !
 ! D20   D(2,3,11,25)          179.9954         estimate D2E/DX2                !
 ! D21   D(4,3,11,23)         -179.9999         estimate D2E/DX2                !
 ! D22   D(4,3,11,25)           -0.0048         estimate D2E/DX2                !
 ! D23   D(3,4,5,6)              0.0001         estimate D2E/DX2                !
 ! D24   D(3,4,5,9)           -179.9999         estimate D2E/DX2                !
 ! D25   D(8,4,5,6)            180.0            estimate D2E/DX2                !
 ! D26   D(8,4,5,9)              0.0            estimate D2E/DX2                !
 ! D27   D(4,5,6,1)              0.0001         estimate D2E/DX2                !
 ! D28   D(4,5,6,10)          -179.9999         estimate D2E/DX2                !
 ! D29   D(9,5,6,1)           -179.9999         estimate D2E/DX2                !
 ! D30   D(9,5,6,10)             0.0            estimate D2E/DX2                !
 ! D31   D(3,11,23,12)          -0.0007         estimate D2E/DX2                !
 ! D32   D(3,11,23,13)         179.9982         estimate D2E/DX2                !
 ! D33   D(25,11,23,12)       -179.9974         estimate D2E/DX2                !
 ! D34   D(25,11,23,13)          0.0015         estimate D2E/DX2                !
 ! D35   D(2,12,23,11)           0.0006         estimate D2E/DX2                !
 ! D36   D(2,12,23,13)        -179.9984         estimate D2E/DX2                !
 ! D37   D(15,13,14,16)          0.0013         estimate D2E/DX2                !
 ! D38   D(15,13,14,17)       -179.9992         estimate D2E/DX2                !
 ! D39   D(23,13,14,16)       -179.9988         estimate D2E/DX2                !
 ! D40   D(23,13,14,17)          0.0007         estimate D2E/DX2                !
 ! D41   D(14,13,15,18)         -0.0016         estimate D2E/DX2                !
 ! D42   D(14,13,15,24)        179.9982         estimate D2E/DX2                !
 ! D43   D(23,13,15,18)        179.9985         estimate D2E/DX2                !
 ! D44   D(23,13,15,24)         -0.0017         estimate D2E/DX2                !
 ! D45   D(14,13,23,11)       -179.9998         estimate D2E/DX2                !
 ! D46   D(14,13,23,12)         -0.0009         estimate D2E/DX2                !
 ! D47   D(15,13,23,11)          0.0001         estimate D2E/DX2                !
 ! D48   D(15,13,23,12)        179.999          estimate D2E/DX2                !
 ! D49   D(13,14,16,19)         -0.0003         estimate D2E/DX2                !
 ! D50   D(13,14,16,20)        179.9997         estimate D2E/DX2                !
 ! D51   D(17,14,16,19)       -179.9998         estimate D2E/DX2                !
 ! D52   D(17,14,16,20)          0.0001         estimate D2E/DX2                !
 ! D53   D(13,15,18,19)          0.0008         estimate D2E/DX2                !
 ! D54   D(13,15,18,21)       -180.0            estimate D2E/DX2                !
 ! D55   D(24,15,18,19)       -179.9989         estimate D2E/DX2                !
 ! D56   D(24,15,18,21)          0.0003         estimate D2E/DX2                !
 ! D57   D(14,16,19,18)         -0.0005         estimate D2E/DX2                !
 ! D58   D(14,16,19,22)        179.9998         estimate D2E/DX2                !
 ! D59   D(20,16,19,18)        179.9996         estimate D2E/DX2                !
 ! D60   D(20,16,19,22)         -0.0001         estimate D2E/DX2                !
 ! D61   D(15,18,19,16)          0.0002         estimate D2E/DX2                !
 ! D62   D(15,18,19,22)        179.9999         estimate D2E/DX2                !
 ! D63   D(21,18,19,16)       -179.999          estimate D2E/DX2                !
 ! D64   D(21,18,19,22)          0.0007         estimate D2E/DX2                !
 ! Qtot  GIC-1                  40.0            Frozen                          !
 ! Ptot  GIC-2                 180.0            Frozen                          !
 --------------------------------------------------------------------------------
 NOTE: GIC-type coordinates are in arbitrary units.
 Trust Radius=3.00D-01 FncErr=5.00D-06 GrdErr=5.00D-06 EigMax=2.50D+02 EigMin=1.00D-04
 Number of steps in this run=    146 maximum allowed number of steps=    150.
 GradGradGradGradGradGradGradGradGradGradGradGradGradGradGradGradGradGrad

 Leave Link  103 at Wed Oct 28 00:30:59 2020, MaxMem=  7784628224 cpu:               0.1 elap:               0.0
 (Enter /gpfs/loomis/apps/avx/software/Gaussian/16-C.01_AVX/g16/l202.exe)
                          Input orientation:                          
 ---------------------------------------------------------------------
 Center     Atomic      Atomic             Coordinates (Angstroms)
 Number     Number       Type             X           Y           Z
 ---------------------------------------------------------------------
      1          6           0        1.534491   -3.246375   -0.000017
      2          6           0        1.006387   -1.950769   -0.000023
      3          6           0        1.809063   -0.773819   -0.000027
      4          6           0        3.203765   -0.942281   -0.000030
      5          6           0        3.734900   -2.242937   -0.000024
      6          6           0        2.922950   -3.387933   -0.000016
      7          1           0        0.866322   -4.117689   -0.000012
      8          1           0        3.870788   -0.069876   -0.000036
      9          1           0        4.823660   -2.360861   -0.000025
     10          1           0        3.374776   -4.385102   -0.000010
     11          7           0        1.032165    0.389982   -0.000031
     12         16           0       -0.696879   -1.580494   -0.000026
     13          6           0       -1.322260    1.078199    0.000012
     14          6           0       -2.664607    0.721437    0.000025
     15          6           0       -0.892873    2.487319    0.000036
     16          6           0       -3.658042    1.738160    0.000033
     17          1           0       -2.971674   -0.331357    0.000020
     18          6           0       -1.939796    3.471469    0.000039
     19          6           0       -3.295715    3.089852    0.000035
     20          1           0       -4.714855    1.449864    0.000037
     21          1           0       -1.640145    4.526468    0.000056
     22          1           0       -4.075665    3.857560    0.000038
     23          6           0       -0.298970    0.096389   -0.000022
     24          8           0        0.344558    2.728571    0.000059
     25          1           0        1.106247    1.195761    0.000007
 ---------------------------------------------------------------------
                    Distance matrix (angstroms):
                    1          2          3          4          5
     1  C    0.000000
     2  C    1.399103   0.000000
     3  C    2.487755   1.424606   0.000000
     4  C    2.845228   2.417751   1.404839   0.000000
     5  C    2.418406   2.744112   2.422221   1.404923   0.000000
     6  C    1.395656   2.395549   2.841538   2.461721   1.403667
     7  H    1.098016   2.171442   3.474224   3.942950   3.426870
     8  H    3.943150   3.426741   2.178588   1.098185   2.177305
     9  H    3.406284   3.839239   3.406831   2.153237   1.095127
    10  H    2.164104   3.396357   3.936092   3.447065   2.172225
    11  N    3.670889   2.340893   1.399286   2.547699   3.773200
    12  S    2.784632   1.743048   2.632578   3.952510   4.481015
    13  C    5.182950   3.820634   3.638015   4.956535   6.050191
    14  C    5.777193   4.540581   4.716939   6.099651   7.052744
    15  C    6.226343   4.827403   4.235030   5.342715   6.617523
    16  C    7.197776   5.946855   6.016583   7.366760   8.396709
    17  H    5.366830   4.295051   4.801169   6.205585   6.973685
    18  C    7.563075   6.170953   5.663605   6.777715   8.053361
    19  C    7.967350   6.626910   6.402086   7.648616   8.824295
    20  H    7.817224   6.655593   6.892479   8.272055   9.221450
    21  H    8.396155   6.997052   6.323771   7.305525   8.643840
    22  H    9.052058   7.717768   7.488638   8.719437   9.910651
    23  C    3.812565   2.427923   2.280584   3.653489   4.663105
    24  O    6.092284   4.725912   3.796250   4.652980   6.017501
    25  H    4.462731   3.148114   2.091218   2.995130   4.328332
                    6          7          8          9         10
     6  C    0.000000
     7  H    2.182261   0.000000
     8  H    3.450782   5.040993   0.000000
     9  H    2.160458   4.329778   2.481245   0.000000
    10  H    1.094757   2.522668   4.343639   2.489341   0.000000
    11  N    4.224655   4.510721   2.875631   4.684290   5.318764
    12  S    4.045985   2.980093   4.810982   5.575421   4.944107
    13  C    6.161829   5.638008   5.318442   7.042689   7.204845
    14  C    6.935972   5.990375   6.583127   8.097821   7.908911
    15  C    7.005648   6.835269   5.406637   7.495572   8.089685
    16  C    8.341839   7.400056   7.742885   9.420257   9.324958
    17  H    6.639974   5.391338   6.847457   8.055193   7.530623
    18  C    8.408192   8.091330   6.804705   8.930869   9.485272
    19  C    8.979615   8.322932   7.832154   9.779290  10.018502
    20  H    9.041037   7.883348   8.719110  10.271558   9.974415
    21  H    9.135622   9.000213   7.176125   9.445427  10.225728
    22  H   10.073618   9.382315   8.864022  10.856646  11.110830
    23  C    4.745657   4.372225   4.173071   5.681497   5.794839
    24  O    6.637750   6.866114   4.501734   6.779725   7.732177
    25  H    4.930584   5.318864   3.040481   5.144775   6.024305
                   11         12         13         14         15
    11  N    0.000000
    12  S    2.621520   0.000000
    13  C    2.452949   2.731254   0.000000
    14  C    3.711601   3.028339   1.388947   0.000000
    15  C    2.846857   4.072532   1.473090   2.501475   0.000000
    16  C    4.880125   4.447690   2.427226   1.421492   2.864855
    17  H    4.068299   2.595195   2.169658   1.096661   3.502335
    18  C    4.281135   5.202612   2.471658   2.843946   1.436871
    19  C    5.100965   5.344724   2.818026   2.451059   2.477235
    20  H    5.843936   5.032614   3.412893   2.175804   3.960285
    21  H    4.924608   6.179380   3.462891   3.940531   2.171761
    22  H    6.173656   6.402236   3.912300   3.438947   3.465216
    23  C    1.363127   1.723446   1.418123   2.446819   2.463589
    24  O    2.437582   4.433129   2.345636   3.617134   1.260729
    25  H    0.809177   3.310416   2.431351   3.800569   2.380044
                   16         17         18         19         20
    16  C    0.000000
    17  H    2.180366   0.000000
    18  C    2.440641   3.940337   0.000000
    19  C    1.399412   3.436520   1.408598   0.000000
    20  H    1.095431   2.492273   3.433342   2.168760   0.000000
    21  H    3.441885   5.037006   1.096729   2.191980   4.349636
    22  H    2.160155   4.331953   2.170485   1.094394   2.491097
    23  C    3.738820   2.706717   3.752796   4.235718   4.618651
    24  O    4.123314   4.512267   2.402118   3.658156   5.218501
    25  H    4.795065   4.354484   3.802267   4.792166   5.826646
                   21         22         23         24         25
    21  H    0.000000
    22  H    2.525707   0.000000
    23  C    4.628646   5.330088   0.000000
    24  O    2.677962   4.562125   2.709707   0.000000
    25  H    4.316977   5.825581   1.784168   1.711630   0.000000
 Symmetry turned off by external request.
 Stoichiometry    C13H9NOS
 Framework group  C1[X(C13H9NOS)]
 Deg. of freedom    69
 Full point group                 C1      NOp   1
 Rotational constants (GHZ):           1.4187989           0.2863137           0.2382374
 Leave Link  202 at Wed Oct 28 00:30:59 2020, MaxMem=  7784628224 cpu:               0.1 elap:               0.0
 (Enter /gpfs/loomis/apps/avx/software/Gaussian/16-C.01_AVX/g16/l301.exe)
 Standard basis: CC-pVDZ (5D, 7F)
 Ernie: Thresh=  0.10000D-02 Tol=  0.10000D-05 Strict=F.
 Ernie:  40 primitive shells out of 425 were deleted.
   273 basis functions,   629 primitive gaussians,   289 cartesian basis functions
    59 alpha electrons       59 beta electrons
       nuclear repulsion energy      1102.7485018991 Hartrees.
 IExCor= 4639 DFT=T Ex+Corr=wB97XD ExCW=0 ScaHFX=  1.000000
 ScaDFX=  1.000000  1.000000  1.000000  1.000000 ScalE2=  1.000000  1.000000
 IRadAn=      5 IRanWt=     -1 IRanGd=            0 ICorTp=0 IEmpDi=121
 HFx  wShort=  0.000000 wLong=  0.200000 cFull=  0.222036 cShort=  0.000000 cLong=  0.777964
 DFx  wShort=  0.000000 wLong=  0.200000 cFull=  0.000000 cShort=  0.000000 cLong=  1.000000
 NAtoms=   25 NActive=   25 NUniq=   25 SFac= 1.00D+00 NAtFMM=   60 NAOKFM=F Big=F
 Integral buffers will be    131072 words long.
 Raffenetti 2 integral format.
 Two-electron integral symmetry is turned off.
 R6Disp:  Grimme-D2 Dispersion energy=       -0.0139578001 Hartrees.
 Nuclear repulsion after empirical dispersion term =     1102.7345440990 Hartrees.
 ------------------------------------------------------------------------------
 Polarizable Continuum Model (PCM)
 =================================
 Model                : PCM.
 Atomic radii         : UFF (Universal Force Field).
 Polarization charges : Total charges.
 Charge compensation  : None.
 Solution method      : On-the-fly selection.
 Cavity type          : Scaled VdW (van der Waals Surface) (Alpha=1.100).
 Cavity algorithm     : GePol (No added spheres)
                        Default sphere list used, NSphG=   25.
                        Lebedev-Laikov grids with approx.  5.0 points / Ang**2.
                        Smoothing algorithm: York/Karplus (Gamma=1.0000).
                        Polarization charges: spherical gaussians, with
                                              point-specific exponents (IZeta= 3).
                        Self-potential: point-specific (ISelfS= 7).
                        Self-field    : sphere-specific E.n sum rule (ISelfD= 2).
 1st derivatives      : Analytical E(r).r(x)/FMM algorithm (CHGder, D1EAlg=3).
                        Cavity 1st derivative terms included.
 Solvent              : CarbonTetraChloride, Eps=   2.228000 Eps(inf)=   2.131892
 ------------------------------------------------------------------------------
 GePol: Number of generator spheres                  =      25
 GePol: Total number of spheres                      =      25
 GePol: Number of exposed spheres                    =      25 (100.00%)
 GePol: Number of points                             =    2191
 GePol: Average weight of points                     =       0.12
 GePol: Minimum weight of points                     =   0.68D-07
 GePol: Maximum weight of points                     =    0.20577
 GePol: Number of points with low weight             =     146
 GePol: Fraction of low-weight points (<1% of avg)   =       6.66%
 GePol: Cavity surface area                          =    271.622 Ang**2
 GePol: Cavity volume                                =    291.904 Ang**3
 Leave Link  301 at Wed Oct 28 00:30:59 2020, MaxMem=  7784628224 cpu:               0.8 elap:               0.1
 (Enter /gpfs/loomis/apps/avx/software/Gaussian/16-C.01_AVX/g16/l302.exe)
 NPDir=0 NMtPBC=     1 NCelOv=     1 NCel=       1 NClECP=     1 NCelD=      1
         NCelK=      1 NCelE2=     1 NClLst=     1 CellRange=     0.0.
 One-electron integrals computed using PRISM.
 NBasis=   273 RedAO= T EigKep=  3.16D-04  NBF=   273
 NBsUse=   273 1.00D-06 EigRej= -1.00D+00 NBFU=   273
 Precomputing XC quadrature grid using
 IXCGrd= 4 IRadAn=           5 IRanWt=          -1 IRanGd=           0 AccXCQ= 0.00D+00.
 Generated NRdTot=       0 NPtTot=           0 NUsed=           0 NTot=          32
 NSgBfM=   288   288   288   288   288 MxSgAt=    25 MxSgA2=    25.
 Leave Link  302 at Wed Oct 28 00:30:59 2020, MaxMem=  7784628224 cpu:               2.5 elap:               0.3
 (Enter /gpfs/loomis/apps/avx/software/Gaussian/16-C.01_AVX/g16/l303.exe)
 DipDrv:  MaxL=1.
 Leave Link  303 at Wed Oct 28 00:30:59 2020, MaxMem=  7784628224 cpu:               0.4 elap:               0.1
 (Enter /gpfs/loomis/apps/avx/software/Gaussian/16-C.01_AVX/g16/l401.exe)
 ExpMin= 1.22D-01 ExpMax= 1.11D+05 ExpMxC= 1.07D+03 IAcc=3 IRadAn=         5 AccDes= 0.00D+00
 Harris functional with IExCor= 4639 and IRadAn=       5 diagonalized for initial guess.
 HarFok:  IExCor= 4639 AccDes= 0.00D+00 IRadAn=         5 IDoV= 1 UseB2=F ITyADJ=14
 ICtDFT=  3500011 ScaDFX=  1.000000  1.000000  1.000000  1.000000
 FoFCou: FMM=F IPFlag=           0 FMFlag=      100000 FMFlg1=           0
         NFxFlg=           0 DoJE=T BraDBF=F KetDBF=T FulRan=T
         wScrn=  0.000000 ICntrl=       500 IOpCl=  0 I1Cent=   200000004 NGrid=           0
         NMat0=    1 NMatS0=      1 NMatT0=    0 NMatD0=    1 NMtDS0=    0 NMtDT0=    0
 Symmetry not used in FoFCou.
 Harris En= -994.372054963131    
 JPrj=0 DoOrth=F DoCkMO=F.
 Leave Link  401 at Wed Oct 28 00:31:01 2020, MaxMem=  7784628224 cpu:              13.7 elap:               1.4
 (Enter /gpfs/loomis/apps/avx/software/Gaussian/16-C.01_AVX/g16/l502.exe)
 Two-electron integral symmetry not used.
 Closed shell SCF:
 Using DIIS extrapolation, IDIIS=  1040.
 NGot=  7784628224 LenX=  7784455381 LenY=  7784371419
 Requested convergence on RMS density matrix=1.00D-08 within 128 cycles.
 Requested convergence on MAX density matrix=1.00D-06.
 Requested convergence on             energy=1.00D-06.
 No special actions if energy rises.
 Fock matrices will be formed incrementally for  20 cycles.

 Cycle   1  Pass 1  IDiag  1:
 FoFJK:  IHMeth= 1 ICntrl=       0 DoSepK=T KAlg= 0 I1Cent=           0 FoldK=F
 IRaf=         1 NMat=       1 IRICut=       1 DoRegI=T DoRafI=F ISym2E= 0 IDoP0=0 IntGTp=1.
 FoFCou: FMM=F IPFlag=           0 FMFlag=      100000 FMFlg1=           0
         NFxFlg=           0 DoJE=T BraDBF=F KetDBF=F FulRan=T
         wScrn=  0.000000 ICntrl=       500 IOpCl=  0 I1Cent=           0 NGrid=           0
         NMat0=    1 NMatS0=      1 NMatT0=    0 NMatD0=    1 NMtDS0=    0 NMtDT0=    0
 Symmetry not used in FoFCou.
 Inv3:  Mode=1 IEnd=    14401443.
 Iteration    1 A*A^-1 deviation from unit magnitude is 3.55D-15 for   2151.
 Iteration    1 A*A^-1 deviation from orthogonality  is 1.88D-15 for   2178   2014.
 Iteration    1 A^-1*A deviation from unit magnitude is 3.33D-15 for   2151.
 Iteration    1 A^-1*A deviation from orthogonality  is 2.83D-15 for   2177   2077.
 E= -1028.48975404981    
 DIIS: error= 4.44D-02 at cycle   1 NSaved=   1.
 NSaved= 1 IEnMin= 1 EnMin= -1028.48975404981     IErMin= 1 ErrMin= 4.44D-02
 ErrMax= 4.44D-02  0.00D+00 EMaxC= 1.00D-01 BMatC= 3.88D-01 BMatP= 3.88D-01
 IDIUse=3 WtCom= 5.56D-01 WtEn= 4.44D-01
 Coeff-Com:  0.100D+01
 Coeff-En:   0.100D+01
 Coeff:      0.100D+01
 Gap=     0.304 Goal=   None    Shift=    0.000
 GapD=    0.304 DampG=1.000 DampE=0.500 DampFc=0.5000 IDamp=-1.
 Damping current iteration by 5.00D-01
 RMSDP=3.59D-03 MaxDP=2.45D-01              OVMax= 2.05D-01

 Cycle   2  Pass 1  IDiag  1:
 RMSU=  1.79D-03    CP:  9.95D-01
 E= -1028.60751646680     Delta-E=       -0.117762416990 Rises=F Damp=T
 DIIS: error= 1.20D-02 at cycle   2 NSaved=   2.
 NSaved= 2 IEnMin= 2 EnMin= -1028.60751646680     IErMin= 2 ErrMin= 1.20D-02
 ErrMax= 1.20D-02  0.00D+00 EMaxC= 1.00D-01 BMatC= 5.84D-02 BMatP= 3.88D-01
 IDIUse=3 WtCom= 8.80D-01 WtEn= 1.20D-01
 Coeff-Com: -0.298D+00 0.130D+01
 Coeff-En:   0.000D+00 0.100D+01
 Coeff:     -0.262D+00 0.126D+01
 Gap=     0.277 Goal=   None    Shift=    0.000
 RMSDP=1.15D-03 MaxDP=2.54D-02 DE=-1.18D-01 OVMax= 1.44D-01

 Cycle   3  Pass 1  IDiag  1:
 RMSU=  1.12D-03    CP:  9.94D-01  1.16D+00
 E= -1028.71317440562     Delta-E=       -0.105657938823 Rises=F Damp=F
 DIIS: error= 6.14D-03 at cycle   3 NSaved=   3.
 NSaved= 3 IEnMin= 3 EnMin= -1028.71317440562     IErMin= 3 ErrMin= 6.14D-03
 ErrMax= 6.14D-03  0.00D+00 EMaxC= 1.00D-01 BMatC= 1.52D-02 BMatP= 5.84D-02
 IDIUse=3 WtCom= 9.39D-01 WtEn= 6.14D-02
 Coeff-Com: -0.209D+00 0.507D+00 0.702D+00
 Coeff-En:   0.000D+00 0.000D+00 0.100D+01
 Coeff:     -0.196D+00 0.476D+00 0.720D+00
 Gap=     0.237 Goal=   None    Shift=    0.000
 RMSDP=5.52D-04 MaxDP=1.75D-02 DE=-1.06D-01 OVMax= 4.67D-02

 Cycle   4  Pass 1  IDiag  1:
 RMSU=  4.32D-04    CP:  9.92D-01  1.32D+00  8.37D-01
 E= -1028.72827690156     Delta-E=       -0.015102495942 Rises=F Damp=F
 DIIS: error= 1.92D-03 at cycle   4 NSaved=   4.
 NSaved= 4 IEnMin= 4 EnMin= -1028.72827690156     IErMin= 4 ErrMin= 1.92D-03
 ErrMax= 1.92D-03  0.00D+00 EMaxC= 1.00D-01 BMatC= 1.85D-03 BMatP= 1.52D-02
 IDIUse=3 WtCom= 9.81D-01 WtEn= 1.92D-02
 Coeff-Com: -0.736D-01 0.146D+00 0.340D+00 0.588D+00
 Coeff-En:   0.000D+00 0.000D+00 0.000D+00 0.100D+01
 Coeff:     -0.721D-01 0.143D+00 0.333D+00 0.596D+00
 Gap=     0.238 Goal=   None    Shift=    0.000
 RMSDP=1.74D-04 MaxDP=9.33D-03 DE=-1.51D-02 OVMax= 1.32D-02

 Cycle   5  Pass 1  IDiag  1:
 RMSU=  1.11D-04    CP:  9.92D-01  1.34D+00  9.12D-01  7.64D-01
 E= -1028.73028204065     Delta-E=       -0.002005139084 Rises=F Damp=F
 DIIS: error= 4.61D-04 at cycle   5 NSaved=   5.
 NSaved= 5 IEnMin= 5 EnMin= -1028.73028204065     IErMin= 5 ErrMin= 4.61D-04
 ErrMax= 4.61D-04  0.00D+00 EMaxC= 1.00D-01 BMatC= 6.37D-05 BMatP= 1.85D-03
 IDIUse=3 WtCom= 9.95D-01 WtEn= 4.61D-03
 Coeff-Com: -0.152D-02-0.338D-02 0.323D-01 0.164D+00 0.808D+00
 Coeff-En:   0.000D+00 0.000D+00 0.000D+00 0.000D+00 0.100D+01
 Coeff:     -0.151D-02-0.336D-02 0.322D-01 0.163D+00 0.809D+00
 Gap=     0.239 Goal=   None    Shift=    0.000
 RMSDP=6.14D-05 MaxDP=2.00D-03 DE=-2.01D-03 OVMax= 6.08D-03

 Cycle   6  Pass 1  IDiag  1:
 RMSU=  4.09D-05    CP:  9.91D-01  1.34D+00  9.28D-01  8.56D-01  1.11D+00
 E= -1028.73042390991     Delta-E=       -0.000141869266 Rises=F Damp=F
 DIIS: error= 3.01D-04 at cycle   6 NSaved=   6.
 NSaved= 6 IEnMin= 6 EnMin= -1028.73042390991     IErMin= 6 ErrMin= 3.01D-04
 ErrMax= 3.01D-04  0.00D+00 EMaxC= 1.00D-01 BMatC= 1.18D-05 BMatP= 6.37D-05
 IDIUse=3 WtCom= 9.97D-01 WtEn= 3.01D-03
 Coeff-Com:  0.179D-01-0.367D-01-0.660D-01-0.770D-01 0.212D+00 0.950D+00
 Coeff-En:   0.000D+00 0.000D+00 0.000D+00 0.000D+00 0.000D+00 0.100D+01
 Coeff:      0.178D-01-0.366D-01-0.658D-01-0.767D-01 0.211D+00 0.950D+00
 Gap=     0.240 Goal=   None    Shift=    0.000
 RMSDP=4.03D-05 MaxDP=1.93D-03 DE=-1.42D-04 OVMax= 5.33D-03

 Cycle   7  Pass 1  IDiag  1:
 RMSU=  2.11D-05    CP:  9.91D-01  1.34D+00  9.41D-01  8.93D-01  1.32D+00
                    CP:  1.28D+00
 E= -1028.73046634173     Delta-E=       -0.000042431814 Rises=F Damp=F
 DIIS: error= 1.03D-04 at cycle   7 NSaved=   7.
 NSaved= 7 IEnMin= 7 EnMin= -1028.73046634173     IErMin= 7 ErrMin= 1.03D-04
 ErrMax= 1.03D-04  0.00D+00 EMaxC= 1.00D-01 BMatC= 3.85D-06 BMatP= 1.18D-05
 IDIUse=3 WtCom= 9.99D-01 WtEn= 1.03D-03
 Coeff-Com:  0.856D-02-0.164D-01-0.335D-01-0.594D-01-0.251D-01 0.477D+00
 Coeff-Com:  0.649D+00
 Coeff-En:   0.000D+00 0.000D+00 0.000D+00 0.000D+00 0.000D+00 0.000D+00
 Coeff-En:   0.100D+01
 Coeff:      0.855D-02-0.164D-01-0.334D-01-0.593D-01-0.250D-01 0.477D+00
 Coeff:      0.649D+00
 Gap=     0.240 Goal=   None    Shift=    0.000
 RMSDP=1.51D-05 MaxDP=5.88D-04 DE=-4.24D-05 OVMax= 1.53D-03

 Cycle   8  Pass 1  IDiag  1:
 RMSU=  8.80D-06    CP:  9.91D-01  1.34D+00  9.43D-01  9.02D-01  1.37D+00
                    CP:  1.52D+00  1.06D+00
 E= -1028.73047400685     Delta-E=       -0.000007665126 Rises=F Damp=F
 DIIS: error= 6.33D-05 at cycle   8 NSaved=   8.
 NSaved= 8 IEnMin= 8 EnMin= -1028.73047400685     IErMin= 8 ErrMin= 6.33D-05
 ErrMax= 6.33D-05  0.00D+00 EMaxC= 1.00D-01 BMatC= 3.84D-07 BMatP= 3.85D-06
 IDIUse=1 WtCom= 1.00D+00 WtEn= 0.00D+00
 Coeff-Com: -0.142D-02 0.316D-02 0.630D-02 0.598D-03-0.489D-01-0.681D-01
 Coeff-Com:  0.128D+00 0.981D+00
 Coeff:     -0.142D-02 0.316D-02 0.630D-02 0.598D-03-0.489D-01-0.681D-01
 Coeff:      0.128D+00 0.981D+00
 Gap=     0.240 Goal=   None    Shift=    0.000
 RMSDP=8.71D-06 MaxDP=2.33D-04 DE=-7.67D-06 OVMax= 1.46D-03

 Cycle   9  Pass 1  IDiag  1:
 RMSU=  3.36D-06    CP:  9.91D-01  1.34D+00  9.43D-01  9.02D-01  1.39D+00
                    CP:  1.65D+00  1.32D+00  1.25D+00
 E= -1028.73047606897     Delta-E=       -0.000002062113 Rises=F Damp=F
 DIIS: error= 2.16D-05 at cycle   9 NSaved=   9.
 NSaved= 9 IEnMin= 9 EnMin= -1028.73047606897     IErMin= 9 ErrMin= 2.16D-05
 ErrMax= 2.16D-05  0.00D+00 EMaxC= 1.00D-01 BMatC= 1.33D-07 BMatP= 3.84D-07
 IDIUse=1 WtCom= 1.00D+00 WtEn= 0.00D+00
 Coeff-Com: -0.148D-02 0.291D-02 0.658D-02 0.797D-02-0.128D-01-0.904D-01
 Coeff-Com: -0.983D-01 0.344D+00 0.841D+00
 Coeff:     -0.148D-02 0.291D-02 0.658D-02 0.797D-02-0.128D-01-0.904D-01
 Coeff:     -0.983D-01 0.344D+00 0.841D+00
 Gap=     0.240 Goal=   None    Shift=    0.000
 RMSDP=4.41D-06 MaxDP=1.33D-04 DE=-2.06D-06 OVMax= 6.76D-04

 Cycle  10  Pass 1  IDiag  1:
 RMSU=  1.58D-06    CP:  9.91D-01  1.34D+00  9.43D-01  9.03D-01  1.40D+00
                    CP:  1.71D+00  1.41D+00  1.51D+00  1.24D+00
 E= -1028.73047653763     Delta-E=       -0.000000468661 Rises=F Damp=F
 DIIS: error= 9.57D-06 at cycle  10 NSaved=  10.
 NSaved=10 IEnMin=10 EnMin= -1028.73047653763     IErMin=10 ErrMin= 9.57D-06
 ErrMax= 9.57D-06  0.00D+00 EMaxC= 1.00D-01 BMatC= 2.40D-08 BMatP= 1.33D-07
 IDIUse=1 WtCom= 1.00D+00 WtEn= 0.00D+00
 Coeff-Com:  0.674D-04-0.211D-03 0.123D-03 0.151D-02 0.824D-02-0.512D-02
 Coeff-Com: -0.802D-01-0.105D+00 0.287D+00 0.893D+00
 Coeff:      0.674D-04-0.211D-03 0.123D-03 0.151D-02 0.824D-02-0.512D-02
 Coeff:     -0.802D-01-0.105D+00 0.287D+00 0.893D+00
 Gap=     0.240 Goal=   None    Shift=    0.000
 RMSDP=2.11D-06 MaxDP=5.24D-05 DE=-4.69D-07 OVMax= 3.59D-04

 Cycle  11  Pass 1  IDiag  1:
 RMSU=  6.03D-07    CP:  9.91D-01  1.34D+00  9.43D-01  9.03D-01  1.41D+00
                    CP:  1.73D+00  1.44D+00  1.63D+00  1.56D+00  1.21D+00
 E= -1028.73047663872     Delta-E=       -0.000000101093 Rises=F Damp=F
 DIIS: error= 3.67D-06 at cycle  11 NSaved=  11.
 NSaved=11 IEnMin=11 EnMin= -1028.73047663872     IErMin=11 ErrMin= 3.67D-06
 ErrMax= 3.67D-06  0.00D+00 EMaxC= 1.00D-01 BMatC= 3.88D-09 BMatP= 2.40D-08
 IDIUse=1 WtCom= 1.00D+00 WtEn= 0.00D+00
 Coeff-Com:  0.292D-03-0.601D-03-0.104D-02-0.969D-03 0.503D-02 0.144D-01
 Coeff-Com: -0.153D-01-0.777D-01-0.503D-01 0.247D+00 0.879D+00
 Coeff:      0.292D-03-0.601D-03-0.104D-02-0.969D-03 0.503D-02 0.144D-01
 Coeff:     -0.153D-01-0.777D-01-0.503D-01 0.247D+00 0.879D+00
 Gap=     0.240 Goal=   None    Shift=    0.000
 RMSDP=7.62D-07 MaxDP=2.03D-05 DE=-1.01D-07 OVMax= 1.24D-04

 Cycle  12  Pass 1  IDiag  1:
 RMSU=  2.42D-07    CP:  9.91D-01  1.34D+00  9.43D-01  9.03D-01  1.41D+00
                    CP:  1.74D+00  1.45D+00  1.67D+00  1.67D+00  1.44D+00
                    CP:  1.20D+00
 E= -1028.73047665217     Delta-E=       -0.000000013446 Rises=F Damp=F
 DIIS: error= 1.31D-06 at cycle  12 NSaved=  12.
 NSaved=12 IEnMin=12 EnMin= -1028.73047665217     IErMin=12 ErrMin= 1.31D-06
 ErrMax= 1.31D-06  0.00D+00 EMaxC= 1.00D-01 BMatC= 6.61D-10 BMatP= 3.88D-09
 IDIUse=1 WtCom= 1.00D+00 WtEn= 0.00D+00
 Coeff-Com:  0.120D-03-0.232D-03-0.486D-03-0.843D-03 0.543D-03 0.779D-02
 Coeff-Com:  0.779D-02-0.909D-02-0.777D-01-0.794D-01 0.316D+00 0.836D+00
 Coeff:      0.120D-03-0.232D-03-0.486D-03-0.843D-03 0.543D-03 0.779D-02
 Coeff:      0.779D-02-0.909D-02-0.777D-01-0.794D-01 0.316D+00 0.836D+00
 Gap=     0.240 Goal=   None    Shift=    0.000
 RMSDP=3.14D-07 MaxDP=8.95D-06 DE=-1.34D-08 OVMax= 4.92D-05

 Cycle  13  Pass 1  IDiag  1:
 RMSU=  9.12D-08    CP:  9.91D-01  1.34D+00  9.43D-01  9.03D-01  1.41D+00
                    CP:  1.74D+00  1.45D+00  1.68D+00  1.72D+00  1.53D+00
                    CP:  1.43D+00  1.08D+00
 E= -1028.73047665436     Delta-E=       -0.000000002194 Rises=F Damp=F
 DIIS: error= 4.43D-07 at cycle  13 NSaved=  13.
 NSaved=13 IEnMin=13 EnMin= -1028.73047665436     IErMin=13 ErrMin= 4.43D-07
 ErrMax= 4.43D-07  0.00D+00 EMaxC= 1.00D-01 BMatC= 5.73D-11 BMatP= 6.61D-10
 IDIUse=1 WtCom= 1.00D+00 WtEn= 0.00D+00
 Coeff-Com: -0.170D-04 0.365D-04 0.563D-04-0.274D-04-0.368D-03-0.109D-03
 Coeff-Com:  0.230D-02 0.771D-02-0.714D-02-0.423D-01-0.684D-01 0.151D+00
 Coeff-Com:  0.957D+00
 Coeff:     -0.170D-04 0.365D-04 0.563D-04-0.274D-04-0.368D-03-0.109D-03
 Coeff:      0.230D-02 0.771D-02-0.714D-02-0.423D-01-0.684D-01 0.151D+00
 Coeff:      0.957D+00
 Gap=     0.240 Goal=   None    Shift=    0.000
 RMSDP=9.50D-08 MaxDP=2.24D-06 DE=-2.19D-09 OVMax= 1.20D-05

 Cycle  14  Pass 1  IDiag  1:
 RMSU=  3.26D-08    CP:  9.91D-01  1.34D+00  9.43D-01  9.03D-01  1.41D+00
                    CP:  1.74D+00  1.45D+00  1.69D+00  1.73D+00  1.56D+00
                    CP:  1.49D+00  1.25D+00  1.21D+00
 E= -1028.73047665456     Delta-E=       -0.000000000198 Rises=F Damp=F
 DIIS: error= 1.37D-07 at cycle  14 NSaved=  14.
 NSaved=14 IEnMin=14 EnMin= -1028.73047665456     IErMin=14 ErrMin= 1.37D-07
 ErrMax= 1.37D-07  0.00D+00 EMaxC= 1.00D-01 BMatC= 4.84D-12 BMatP= 5.73D-11
 IDIUse=1 WtCom= 1.00D+00 WtEn= 0.00D+00
 Coeff-Com: -0.116D-04 0.230D-04 0.473D-04 0.610D-04-0.103D-03-0.624D-03
 Coeff-Com: -0.478D-03 0.224D-02 0.595D-02 0.204D-02-0.346D-01-0.501D-01
 Coeff-Com:  0.177D+00 0.898D+00
 Coeff:     -0.116D-04 0.230D-04 0.473D-04 0.610D-04-0.103D-03-0.624D-03
 Coeff:     -0.478D-03 0.224D-02 0.595D-02 0.204D-02-0.346D-01-0.501D-01
 Coeff:      0.177D+00 0.898D+00
 Gap=     0.240 Goal=   None    Shift=    0.000
 RMSDP=1.97D-08 MaxDP=4.74D-07 DE=-1.98D-10 OVMax= 2.68D-06

 Cycle  15  Pass 1  IDiag  1:
 RMSU=  1.14D-08    CP:  9.91D-01  1.34D+00  9.43D-01  9.03D-01  1.41D+00
                    CP:  1.74D+00  1.45D+00  1.69D+00  1.73D+00  1.56D+00
                    CP:  1.50D+00  1.28D+00  1.34D+00  1.18D+00
 E= -1028.73047665456     Delta-E=       -0.000000000003 Rises=F Damp=F
 DIIS: error= 7.94D-08 at cycle  15 NSaved=  15.
 NSaved=15 IEnMin=15 EnMin= -1028.73047665456     IErMin=15 ErrMin= 7.94D-08
 ErrMax= 7.94D-08  0.00D+00 EMaxC= 1.00D-01 BMatC= 9.58D-13 BMatP= 4.84D-12
 IDIUse=1 WtCom= 1.00D+00 WtEn= 0.00D+00
 Coeff-Com: -0.224D-05 0.398D-05 0.107D-04 0.306D-04 0.788D-05-0.259D-03
 Coeff-Com: -0.541D-03-0.447D-03 0.297D-02 0.691D-02-0.154D-02-0.482D-01
 Coeff-Com: -0.934D-01 0.256D+00 0.879D+00
 Coeff:     -0.224D-05 0.398D-05 0.107D-04 0.306D-04 0.788D-05-0.259D-03
 Coeff:     -0.541D-03-0.447D-03 0.297D-02 0.691D-02-0.154D-02-0.482D-01
 Coeff:     -0.934D-01 0.256D+00 0.879D+00
 Gap=     0.240 Goal=   None    Shift=    0.000
 RMSDP=1.23D-08 MaxDP=3.56D-07 DE=-2.96D-12 OVMax= 1.67D-06

 Cycle  16  Pass 1  IDiag  1:
 RMSU=  4.47D-09    CP:  9.91D-01  1.34D+00  9.43D-01  9.03D-01  1.41D+00
                    CP:  1.74D+00  1.45D+00  1.69D+00  1.73D+00  1.56D+00
                    CP:  1.51D+00  1.30D+00  1.39D+00  1.36D+00  1.14D+00
 E= -1028.73047665457     Delta-E=       -0.000000000012 Rises=F Damp=F
 DIIS: error= 2.29D-08 at cycle  16 NSaved=  16.
 NSaved=16 IEnMin=16 EnMin= -1028.73047665457     IErMin=16 ErrMin= 2.29D-08
 ErrMax= 2.29D-08  0.00D+00 EMaxC= 1.00D-01 BMatC= 1.15D-13 BMatP= 9.58D-13
 IDIUse=1 WtCom= 1.00D+00 WtEn= 0.00D+00
 Coeff-Com:  0.936D-06-0.193D-05-0.325D-05-0.964D-06 0.119D-04 0.157D-04
 Coeff-Com: -0.644D-04-0.312D-03 0.291D-05 0.131D-02 0.418D-02-0.515D-02
 Coeff-Com: -0.332D-01-0.613D-01 0.210D+00 0.884D+00
 Coeff:      0.936D-06-0.193D-05-0.325D-05-0.964D-06 0.119D-04 0.157D-04
 Coeff:     -0.644D-04-0.312D-03 0.291D-05 0.131D-02 0.418D-02-0.515D-02
 Coeff:     -0.332D-01-0.613D-01 0.210D+00 0.884D+00
 Gap=     0.240 Goal=   None    Shift=    0.000
 RMSDP=3.05D-09 MaxDP=9.70D-08 DE=-1.23D-11 OVMax= 3.53D-07

 Error on total polarization charges =  0.00842
 SCF Done:  E(RwB97XD) =  -1028.73047665     A.U. after   16 cycles
            NFock= 16  Conv=0.30D-08     -V/T= 2.0045
 KE= 1.024152875916D+03 PE=-4.617419139674D+03 EE= 1.461801243004D+03
 Leave Link  502 at Wed Oct 28 00:32:30 2020, MaxMem=  7784628224 cpu:             884.0 elap:              89.6
 (Enter /gpfs/loomis/apps/avx/software/Gaussian/16-C.01_AVX/g16/l601.exe)
 Copying SCF densities to generalized density rwf, IOpCl= 0 IROHF=0.

 **********************************************************************

            Population analysis using the SCF Density.

 **********************************************************************

 Alpha  occ. eigenvalues --  -89.10273 -19.20574 -14.51193 -10.41385 -10.38479
 Alpha  occ. eigenvalues --  -10.36435 -10.35657 -10.33567 -10.33461 -10.32836
 Alpha  occ. eigenvalues --  -10.32669 -10.31658 -10.31066 -10.30428 -10.29495
 Alpha  occ. eigenvalues --  -10.28747  -8.12402  -6.07257  -6.06900  -6.06419
 Alpha  occ. eigenvalues --   -1.14503  -1.09122  -0.99091  -0.96249  -0.93410
 Alpha  occ. eigenvalues --   -0.89302  -0.87232  -0.83515  -0.81303  -0.77323
 Alpha  occ. eigenvalues --   -0.74694  -0.72223  -0.68985  -0.67981  -0.65880
 Alpha  occ. eigenvalues --   -0.60912  -0.59632  -0.56866  -0.56171  -0.56050
 Alpha  occ. eigenvalues --   -0.55002  -0.53886  -0.53010  -0.50260  -0.49024
 Alpha  occ. eigenvalues --   -0.48844  -0.48797  -0.47005  -0.45425  -0.44938
 Alpha  occ. eigenvalues --   -0.44012  -0.43205  -0.42571  -0.40054  -0.36764
 Alpha  occ. eigenvalues --   -0.33743  -0.31466  -0.31463  -0.25969
 Alpha virt. eigenvalues --   -0.01957   0.03479   0.05127   0.06549   0.09271
 Alpha virt. eigenvalues --    0.10621   0.14227   0.14921   0.16789   0.17402
 Alpha virt. eigenvalues --    0.18589   0.19988   0.20800   0.21211   0.22994
 Alpha virt. eigenvalues --    0.23382   0.24450   0.25645   0.27602   0.29536
 Alpha virt. eigenvalues --    0.30931   0.33891   0.35311   0.35441   0.36440
 Alpha virt. eigenvalues --    0.37420   0.39002   0.40364   0.41576   0.44211
 Alpha virt. eigenvalues --    0.47029   0.47947   0.50712   0.51230   0.51697
 Alpha virt. eigenvalues --    0.52559   0.52650   0.53147   0.54228   0.55095
 Alpha virt. eigenvalues --    0.56342   0.56406   0.56520   0.56888   0.57606
 Alpha virt. eigenvalues --    0.58029   0.58700   0.59450   0.59577   0.60016
 Alpha virt. eigenvalues --    0.61306   0.61467   0.62009   0.62744   0.63229
 Alpha virt. eigenvalues --    0.64824   0.66438   0.67001   0.68631   0.69380
 Alpha virt. eigenvalues --    0.70545   0.70638   0.71851   0.72752   0.72954
 Alpha virt. eigenvalues --    0.74222   0.75283   0.75737   0.77282   0.78028
 Alpha virt. eigenvalues --    0.78360   0.79873   0.80688   0.81842   0.84010
 Alpha virt. eigenvalues --    0.85046   0.89092   0.90300   0.91690   0.92653
 Alpha virt. eigenvalues --    0.94066   0.94277   0.96126   0.96800   0.97641
 Alpha virt. eigenvalues --    0.98381   0.99094   1.00568   1.00979   1.01290
 Alpha virt. eigenvalues --    1.02625   1.05162   1.05246   1.06282   1.07250
 Alpha virt. eigenvalues --    1.08214   1.09732   1.09910   1.10338   1.10883
 Alpha virt. eigenvalues --    1.12346   1.13136   1.14335   1.14561   1.15117
 Alpha virt. eigenvalues --    1.16916   1.19704   1.20049   1.22321   1.24055
 Alpha virt. eigenvalues --    1.25647   1.28050   1.31522   1.32838   1.33972
 Alpha virt. eigenvalues --    1.35864   1.36664   1.38660   1.40891   1.45812
 Alpha virt. eigenvalues --    1.48734   1.49640   1.52841   1.54293   1.54739
 Alpha virt. eigenvalues --    1.56173   1.57174   1.57191   1.57633   1.58962
 Alpha virt. eigenvalues --    1.60491   1.61843   1.62074   1.64998   1.67466
 Alpha virt. eigenvalues --    1.67864   1.69886   1.70250   1.71186   1.71810
 Alpha virt. eigenvalues --    1.72219   1.73219   1.73309   1.74310   1.75046
 Alpha virt. eigenvalues --    1.77755   1.79186   1.79994   1.81233   1.81370
 Alpha virt. eigenvalues --    1.82960   1.84112   1.84119   1.85163   1.85496
 Alpha virt. eigenvalues --    1.87581   1.89216   1.90621   1.91294   1.91650
 Alpha virt. eigenvalues --    1.93711   1.94355   1.94675   1.96672   1.98299
 Alpha virt. eigenvalues --    1.99277   1.99810   2.02036   2.03232   2.04155
 Alpha virt. eigenvalues --    2.06455   2.08068   2.09799   2.10125   2.16595
 Alpha virt. eigenvalues --    2.16970   2.17390   2.21726   2.23349   2.25800
 Alpha virt. eigenvalues --    2.26293   2.28541   2.33355   2.36658   2.38255
 Alpha virt. eigenvalues --    2.41667   2.42482   2.45576   2.47822   2.48652
 Alpha virt. eigenvalues --    2.50882   2.54739   2.60422   2.61899   2.62727
 Alpha virt. eigenvalues --    2.69658   2.71456   2.73603   2.76459   2.78603
 Alpha virt. eigenvalues --    2.80435   2.80960   2.83798   2.86902   2.90259
 Alpha virt. eigenvalues --    2.92621   3.01576   3.17347   3.29025   3.48831
 Alpha virt. eigenvalues --    3.51036   3.56938   3.68501   3.91009
          Condensed to atoms (all electrons):
               1          2          3          4          5          6
     1  C    4.745544   0.490254   0.008538  -0.053401  -0.012697   0.503974
     2  C    0.490254   5.333164   0.282927  -0.050959  -0.073550  -0.004071
     3  C    0.008538   0.282927   4.949844   0.510199  -0.001107  -0.066210
     4  C   -0.053401  -0.050959   0.510199   4.798934   0.512971  -0.010038
     5  C   -0.012697  -0.073550  -0.001107   0.512971   4.737587   0.497829
     6  C    0.503974  -0.004071  -0.066210  -0.010038   0.497829   4.737454
     7  H    0.403872  -0.038391   0.009027  -0.000686   0.007911  -0.039130
     8  H   -0.000532   0.010226  -0.030135   0.396269  -0.039886   0.007249
     9  H    0.008876  -0.000633   0.008229  -0.037914   0.405357  -0.043903
    10  H   -0.042666   0.009209  -0.000483   0.008155  -0.041456   0.407645
    11  N    0.003439  -0.030245   0.366216  -0.052767   0.001856   0.000327
    12  S   -0.072603   0.330475  -0.130471   0.004686   0.000133   0.004620
    13  C   -0.000261  -0.000897   0.015421  -0.000204   0.000012   0.000002
    14  C   -0.000013   0.000099   0.000592   0.000009  -0.000000  -0.000000
    15  C    0.000005  -0.000174  -0.000240   0.000013  -0.000001   0.000000
    16  C    0.000000  -0.000008   0.000003  -0.000000   0.000000  -0.000000
    17  H   -0.000015   0.000261   0.000008   0.000001  -0.000000   0.000000
    18  C    0.000000   0.000010  -0.000027  -0.000000  -0.000000  -0.000000
    19  C   -0.000000   0.000000   0.000002   0.000000  -0.000000   0.000000
    20  H   -0.000000  -0.000000  -0.000000  -0.000000  -0.000000  -0.000000
    21  H   -0.000000   0.000000  -0.000001  -0.000000  -0.000000   0.000000
    22  H    0.000000  -0.000000  -0.000000  -0.000000   0.000000  -0.000000
    23  C    0.003328  -0.049072  -0.107519   0.002012   0.000332  -0.000366
    24  O    0.000001  -0.000158  -0.000145   0.000035   0.000001  -0.000000
    25  H    0.000283   0.015299  -0.057819  -0.009153  -0.000218  -0.000013
               7          8          9         10         11         12
     1  C    0.403872  -0.000532   0.008876  -0.042666   0.003439  -0.072603
     2  C   -0.038391   0.010226  -0.000633   0.009209  -0.030245   0.330475
     3  C    0.009027  -0.030135   0.008229  -0.000483   0.366216  -0.130471
     4  C   -0.000686   0.396269  -0.037914   0.008155  -0.052767   0.004686
     5  C    0.007911  -0.039886   0.405357  -0.041456   0.001856   0.000133
     6  C   -0.039130   0.007249  -0.043903   0.407645   0.000327   0.004620
     7  H    0.644883   0.000026  -0.000147  -0.010593  -0.000085  -0.008022
     8  H    0.000026   0.634843  -0.011941  -0.000097  -0.004202  -0.000239
     9  H   -0.000147  -0.011941   0.652909  -0.011813  -0.000091   0.000018
    10  H   -0.010593  -0.000097  -0.011813   0.651837   0.000005  -0.000156
    11  N   -0.000085  -0.004202  -0.000091   0.000005   5.829330  -0.046336
    12  S   -0.008022  -0.000239   0.000018  -0.000156  -0.046336  15.464275
    13  C   -0.000003   0.000028  -0.000000  -0.000000  -0.021765  -0.073275
    14  C    0.000002   0.000000   0.000000  -0.000000   0.004079  -0.013397
    15  C   -0.000000  -0.000006   0.000000   0.000000  -0.009281   0.005825
    16  C    0.000000   0.000000  -0.000000  -0.000000  -0.000071   0.000508
    17  H    0.000001   0.000000   0.000000  -0.000000   0.000246   0.008528
    18  C    0.000000  -0.000000   0.000000  -0.000000  -0.000472  -0.000200
    19  C   -0.000000   0.000000  -0.000000   0.000000   0.000015   0.000021
    20  H    0.000000  -0.000000   0.000000   0.000000   0.000001   0.000015
    21  H   -0.000000   0.000000  -0.000000   0.000000   0.000005   0.000004
    22  H    0.000000  -0.000000   0.000000  -0.000000  -0.000000  -0.000000
    23  C    0.000278  -0.000582   0.000006   0.000005   0.510665   0.306674
    24  O    0.000000  -0.000102   0.000000  -0.000000  -0.031698   0.000044
    25  H    0.000008   0.000679  -0.000010  -0.000000   0.380954   0.007888
              13         14         15         16         17         18
     1  C   -0.000261  -0.000013   0.000005   0.000000  -0.000015   0.000000
     2  C   -0.000897   0.000099  -0.000174  -0.000008   0.000261   0.000010
     3  C    0.015421   0.000592  -0.000240   0.000003   0.000008  -0.000027
     4  C   -0.000204   0.000009   0.000013  -0.000000   0.000001  -0.000000
     5  C    0.000012  -0.000000  -0.000001   0.000000  -0.000000  -0.000000
     6  C    0.000002  -0.000000   0.000000  -0.000000   0.000000  -0.000000
     7  H   -0.000003   0.000002  -0.000000   0.000000   0.000001   0.000000
     8  H    0.000028   0.000000  -0.000006   0.000000   0.000000  -0.000000
     9  H   -0.000000   0.000000   0.000000  -0.000000   0.000000   0.000000
    10  H   -0.000000  -0.000000   0.000000  -0.000000  -0.000000  -0.000000
    11  N   -0.021765   0.004079  -0.009281  -0.000071   0.000246  -0.000472
    12  S   -0.073275  -0.013397   0.005825   0.000508   0.008528  -0.000200
    13  C    5.507420   0.416683   0.156859  -0.006072  -0.039060  -0.042193
    14  C    0.416683   4.895087   0.007568   0.538061   0.397520  -0.062723
    15  C    0.156859   0.007568   4.733211  -0.052224   0.005353   0.441301
    16  C   -0.006072   0.538061  -0.052224   4.762108  -0.029787  -0.018471
    17  H   -0.039060   0.397520   0.005353  -0.029787   0.665354  -0.000863
    18  C   -0.042193  -0.062723   0.441301  -0.018471  -0.000863   4.944571
    19  C   -0.053877  -0.019246  -0.001064   0.475907   0.007810   0.494795
    20  H    0.008994  -0.036535  -0.000156   0.400022  -0.011368   0.008078
    21  H    0.015827  -0.000648  -0.026423   0.007562   0.000052   0.372283
    22  H   -0.001865   0.009941   0.008312  -0.045854  -0.000200  -0.039672
    23  C    0.354603  -0.095007  -0.066014   0.005860  -0.022728   0.011596
    24  O   -0.108727   0.006760   0.680988  -0.000213  -0.000075  -0.066403
    25  H   -0.057737  -0.001137  -0.003877   0.000076  -0.000118   0.003547
              19         20         21         22         23         24
     1  C   -0.000000  -0.000000  -0.000000   0.000000   0.003328   0.000001
     2  C    0.000000  -0.000000   0.000000  -0.000000  -0.049072  -0.000158
     3  C    0.000002  -0.000000  -0.000001  -0.000000  -0.107519  -0.000145
     4  C    0.000000  -0.000000  -0.000000  -0.000000   0.002012   0.000035
     5  C   -0.000000  -0.000000  -0.000000   0.000000   0.000332   0.000001
     6  C    0.000000  -0.000000   0.000000  -0.000000  -0.000366  -0.000000
     7  H   -0.000000   0.000000  -0.000000   0.000000   0.000278   0.000000
     8  H    0.000000  -0.000000   0.000000  -0.000000  -0.000582  -0.000102
     9  H   -0.000000   0.000000  -0.000000   0.000000   0.000006   0.000000
    10  H    0.000000   0.000000   0.000000  -0.000000   0.000005  -0.000000
    11  N    0.000015   0.000001   0.000005  -0.000000   0.510665  -0.031698
    12  S    0.000021   0.000015   0.000004  -0.000000   0.306674   0.000044
    13  C   -0.053877   0.008994   0.015827  -0.001865   0.354603  -0.108727
    14  C   -0.019246  -0.036535  -0.000648   0.009941  -0.095007   0.006760
    15  C   -0.001064  -0.000156  -0.026423   0.008312  -0.066014   0.680988
    16  C    0.475907   0.400022   0.007562  -0.045854   0.005860  -0.000213
    17  H    0.007810  -0.011368   0.000052  -0.000200  -0.022728  -0.000075
    18  C    0.494795   0.008078   0.372283  -0.039672   0.011596  -0.066403
    19  C    4.751161  -0.046141  -0.046156   0.402696   0.000374   0.004197
    20  H   -0.046141   0.685723  -0.000145  -0.012342  -0.000397   0.000001
    21  H   -0.046156  -0.000145   0.680719  -0.012632  -0.000510   0.004894
    22  H    0.402696  -0.012342  -0.012632   0.674287   0.000003  -0.000065
    23  C    0.000374  -0.000397  -0.000510   0.000003   5.111367  -0.014005
    24  O    0.004197   0.000001   0.004894  -0.000065  -0.014005   7.843820
    25  H   -0.000331  -0.000000  -0.000009   0.000004   0.047596   0.080015
              25
     1  C    0.000283
     2  C    0.015299
     3  C   -0.057819
     4  C   -0.009153
     5  C   -0.000218
     6  C   -0.000013
     7  H    0.000008
     8  H    0.000679
     9  H   -0.000010
    10  H   -0.000000
    11  N    0.380954
    12  S    0.007888
    13  C   -0.057737
    14  C   -0.001137
    15  C   -0.003877
    16  C    0.000076
    17  H   -0.000118
    18  C    0.003547
    19  C   -0.000331
    20  H   -0.000000
    21  H   -0.000009
    22  H    0.000004
    23  C    0.047596
    24  O    0.080015
    25  H    0.658627
 Mulliken charges:
               1
     1  C    0.014073
     2  C   -0.223766
     3  C    0.243152
     4  C   -0.018161
     5  C    0.004924
     6  C    0.004632
     7  H    0.031049
     8  H    0.038403
     9  H    0.031057
    10  H    0.030408
    11  N    0.099874
    12  S    0.210986
    13  C   -0.069913
    14  C   -0.047695
    15  C    0.120024
    16  C   -0.037408
    17  H    0.019079
    18  C   -0.045156
    19  C    0.029837
    20  H    0.004252
    21  H    0.005178
    22  H    0.017386
    23  C    0.001503
    24  O   -0.399164
    25  H   -0.064554
 Sum of Mulliken charges =  -0.00000
 Mulliken charges with hydrogens summed into heavy atoms:
               1
     1  C    0.045122
     2  C   -0.223766
     3  C    0.243152
     4  C    0.020241
     5  C    0.035981
     6  C    0.035040
    11  N    0.035320
    12  S    0.210986
    13  C   -0.069913
    14  C   -0.028616
    15  C    0.120024
    16  C   -0.033156
    18  C   -0.039978
    19  C    0.047223
    23  C    0.001503
    24  O   -0.399164
 Electronic spatial extent (au):  <R**2>=           4320.8852
 Charge=             -0.0000 electrons
 Dipole moment (field-independent basis, Debye):
    X=              1.6250    Y=             -6.0020    Z=             -0.0001  Tot=              6.2181
 Quadrupole moment (field-independent basis, Debye-Ang):
   XX=            -81.9988   YY=            -95.3915   ZZ=           -104.0262
   XY=             -6.8144   XZ=             -0.0001   YZ=             -0.0002
 Traceless Quadrupole moment (field-independent basis, Debye-Ang):
   XX=             11.8067   YY=             -1.5860   ZZ=            -10.2207
   XY=             -6.8144   XZ=             -0.0001   YZ=             -0.0002
 Octapole moment (field-independent basis, Debye-Ang**2):
  XXX=             35.6290  YYY=            -64.3266  ZZZ=             -0.0000  XYY=              2.5854
  XXY=             -9.3116  XXZ=             -0.0001  XZZ=              2.6452  YZZ=              2.8313
  YYZ=             -0.0005  XYZ=             -0.0004
 Hexadecapole moment (field-independent basis, Debye-Ang**3):
 XXXX=          -2593.6296 YYYY=          -2651.3095 ZZZZ=           -112.9498 XXXY=            812.0870
 XXXZ=              0.0100 YYYX=            775.8386 YYYZ=             -0.0161 ZZZX=              0.0142
 ZZZY=             -0.0170 XXYY=           -841.5478 XXZZ=           -573.3238 YYZZ=           -543.3850
 XXYZ=             -0.0044 YYXZ=              0.0026 ZZXY=            360.4491
 N-N= 1.102734544099D+03 E-N=-4.617419138818D+03  KE= 1.024152875916D+03
 No NMR shielding tensors so no spin-rotation constants.
 Leave Link  601 at Wed Oct 28 00:32:30 2020, MaxMem=  7784628224 cpu:               1.2 elap:               0.2
 (Enter /gpfs/loomis/apps/avx/software/Gaussian/16-C.01_AVX/g16/l701.exe)
 ... and contract with generalized density number  0.
 Compute integral first derivatives.
 R6Disp: Adding Grimme-D2 dispersion energy 1st derivatives to the gradient.
 D1PCM: PCM CHGder 1st derivatives, ID1Alg=3 FixD1E=F DoIter=F DoCFld=F I1PDM=0.
 GePol: Maximum number of non-zero 1st derivatives   =     252
 Leave Link  701 at Wed Oct 28 00:32:32 2020, MaxMem=  7784628224 cpu:              14.2 elap:               1.4
 (Enter /gpfs/loomis/apps/avx/software/Gaussian/16-C.01_AVX/g16/l702.exe)
 L702 exits ... SP integral derivatives will be done elsewhere.
 Leave Link  702 at Wed Oct 28 00:32:32 2020, MaxMem=  7784628224 cpu:               0.2 elap:               0.0
 (Enter /gpfs/loomis/apps/avx/software/Gaussian/16-C.01_AVX/g16/l703.exe)
 Integral derivatives from FoFJK, PRISM(SPDF).
 Compute integral first derivatives, UseDBF=F ICtDFT=           0.
 Calling FoFJK, ICntrl=      2127 FMM=F ISym2X=0 I1Cent= 0 IOpClX= 0 NMat=1 NMatS=1 NMatT=0.
 FoFJK:  IHMeth= 1 ICntrl=    2127 DoSepK=T KAlg= 0 I1Cent=           0 FoldK=F
 IRaf=         1 NMat=       1 IRICut=       1 DoRegI=T DoRafI=F ISym2E= 0 IDoP0=0 IntGTp=1.
 FoFCou: FMM=F IPFlag=           0 FMFlag=      100000 FMFlg1=         800
         NFxFlg=           0 DoJE=F BraDBF=F KetDBF=F FulRan=T
         wScrn=  0.000000 ICntrl=      2527 IOpCl=  0 I1Cent=           0 NGrid=           0
         NMat0=    1 NMatS0=      1 NMatT0=    0 NMatD0=    1 NMtDS0=    0 NMtDT0=    0
 Symmetry not used in FoFCou.
 Leave Link  703 at Wed Oct 28 00:32:46 2020, MaxMem=  7784628224 cpu:             137.0 elap:              13.8
 (Enter /gpfs/loomis/apps/avx/software/Gaussian/16-C.01_AVX/g16/l716.exe)
 Dipole        = 6.39342812D-01-2.36138028D+00-3.86601408D-05
 -------------------------------------------------------------------
 Center     Atomic                   Forces (Hartrees/Bohr)
 Number     Number              X              Y              Z
 -------------------------------------------------------------------
      1        6           0.003321604    0.004492869   -0.000000102
      2        6           0.011276092   -0.001318257   -0.000000296
      3        6           0.006652993   -0.014530782   -0.000000018
      4        6          -0.001059610    0.002316510    0.000000147
      5        6          -0.000782733    0.005148498    0.000000069
      6        6          -0.001667673    0.004990796   -0.000000139
      7        1           0.003409637    0.004141979   -0.000000067
      8        1          -0.003496267   -0.004067899    0.000000070
      9        1          -0.002839155    0.000835806   -0.000000002
     10        1          -0.001113406    0.003063928   -0.000000021
     11        7          -0.081669737   -0.410427383   -0.000016431
     12       16           0.006509140   -0.001920258   -0.000000545
     13        6           0.022604948    0.009796908   -0.000000753
     14        6          -0.045922218    0.027017110   -0.000000630
     15        6           0.007207436   -0.013734663    0.000000511
     16        6           0.011622549   -0.041786126   -0.000000215
     17        1          -0.000958090    0.003224788    0.000000045
     18        6          -0.023361350   -0.001215234    0.000000538
     19        6           0.035642869    0.014433333    0.000000309
     20        1           0.003168185    0.000766076    0.000000054
     21        1          -0.001543867   -0.003542529   -0.000000435
     22        1           0.001712430   -0.000544430    0.000000065
     23        6          -0.010700457    0.016961346    0.000001468
     24        8          -0.008313857    0.018505672   -0.000000596
     25        1           0.070300537    0.377391941    0.000016974
 -------------------------------------------------------------------
 Cartesian Forces:  Max     0.410427383 RMS     0.066486546
 Leave Link  716 at Wed Oct 28 00:32:46 2020, MaxMem=  7784628224 cpu:               0.3 elap:               0.0
 (Enter /gpfs/loomis/apps/avx/software/Gaussian/16-C.01_AVX/g16/l103.exe)

 GradGradGradGradGradGradGradGradGradGradGradGradGradGradGradGradGradGrad
 Berny optimization.
 FormGI is forming the generalized inverse of G from B-inverse, IUseBI=4.
 Internal  Forces:  Max     0.259035034 RMS     0.028364880
 Search for a local minimum.
 Step number   1 out of a maximum of  146
 All quantities printed in internal units (Hartrees-Bohrs-Radians)
 RMS Force = .28574D-01 SwitMx=.10000D-02 MixMth= 1
 Mixed Optimization -- RFO/linear search
 Second derivative matrix not updated -- first step.
 ITU=  0
     Eigenvalues ---    0.01356   0.01502   0.01606   0.01740   0.01774
     Eigenvalues ---    0.01797   0.01824   0.01849   0.01855   0.01882
     Eigenvalues ---    0.01909   0.01940   0.01965   0.01996   0.02024
     Eigenvalues ---    0.02033   0.02036   0.02038   0.02078   0.02091
     Eigenvalues ---    0.02099   0.02125   0.16000   0.16000   0.16000
     Eigenvalues ---    0.16000   0.16000   0.16000   0.16000   0.16003
     Eigenvalues ---    0.17001   0.22007   0.22010   0.22533   0.22588
     Eigenvalues ---    0.24404   0.24481   0.24596   0.25000   0.25000
     Eigenvalues ---    0.30262   0.30549   0.33771   0.33884   0.33905
     Eigenvalues ---    0.34047   0.34054   0.34193   0.34227   0.34269
     Eigenvalues ---    0.34310   0.35687   0.38132   0.40760   0.41069
     Eigenvalues ---    0.42212   0.42611   0.43157   0.43906   0.44610
     Eigenvalues ---    0.44888   0.45400   0.45941   0.46589   0.49880
     Eigenvalues ---    0.72133   0.870341000.000001000.000001000.00000
     Eigenvalues --- 1000.000001000.000001000.000001000.000001000.00000
     Eigenvalues --- 1000.000001000.000001000.000001000.000001000.00000
     Eigenvalues --- 1000.000001000.000001000.000001000.000001000.00000
     Eigenvalues --- 1000.000001000.000001000.000001000.000001000.00000
     Eigenvalues --- 1000.000001000.000001000.000001000.000001000.00000
     Eigenvalues --- 1000.000001000.000001000.000001000.000001000.00000
     Eigenvalues --- 1000.000001000.000001000.000001000.000001000.00000
     Eigenvalues --- 1000.000001000.000001000.000001000.000001000.00000
     Eigenvalues --- 1000.000001000.000001000.000001000.000001000.00000
     Eigenvalues --- 1000.000001000.000001000.000001000.000001000.00000
     Eigenvalues --- 1000.000001000.000001000.000001000.000001000.00000
     Eigenvalues --- 1000.000001000.000001000.000001000.000001000.00000
     Eigenvalues --- 1000.000001000.000001000.000001000.000001000.00000
     Eigenvalues --- 1000.00000
 RFO step:  Lambda=-1.31979616D-01 EMin= 1.35591644D-02
 Linear search not attempted -- first point.
 Maximum step size (   0.300) exceeded in Quadratic search.
    -- Step size scaled by   0.699
 Iteration  1 RMS(Cart)=  0.03340432 RMS(Int)=  0.00193573
 Iteration  2 RMS(Cart)=  0.00241951 RMS(Int)=  0.00199876
 Iteration  3 RMS(Cart)=  0.00001822 RMS(Int)=  0.00210459
 Iteration  4 RMS(Cart)=  0.00000040 RMS(Int)=  0.00210339
 Iteration  1 RMS(Cart)=  0.00003944 RMS(Int)=  0.00004505
 Iteration  2 RMS(Cart)=  0.00000085 RMS(Int)=  0.00002163
 ITry= 1 IFail=0 DXMaxC= 2.14D-01 DCOld= 1.00D+10 DXMaxT= 3.00D-01 DXLimC= 3.00D+00 Rises=F
 Variable       Old X    -DE/DX   Delta X   Delta X   Delta X     New X
                                 (Linear)    (Quad)   (Total)
    R1        2.64392  -0.02149   0.00000  -0.01634  -0.01570   2.62822
    R2        2.63741  -0.00620   0.00000  -0.00427  -0.00419   2.63321
    R3        2.07495  -0.00646   0.00000  -0.00862  -0.00855   2.06640
    R4        2.69212  -0.06558   0.00000  -0.05273  -0.05052   2.64160
    R5        3.29388   0.02462   0.00000   0.02377   0.02255   3.31644
    R6        2.65476  -0.00634   0.00000  -0.01052  -0.01061   2.64415
    R7        2.64427  -0.01801   0.00000  -0.01644  -0.01577   2.62850
    R8        2.65492  -0.00439   0.00000  -0.01103  -0.01136   2.64356
    R9        2.07527  -0.00492   0.00000  -0.00768  -0.00771   2.06756
   R10        2.65255  -0.01704   0.00000  -0.01096  -0.01031   2.64223
   R11        2.06949  -0.00308   0.00000  -0.00439  -0.00439   2.06511
   R12        2.06879  -0.00341   0.00000  -0.00488  -0.00487   2.06392
   R13        2.57594   0.01637   0.00000   0.00284   0.00172   2.57766
   R14        1.52912   0.25904   0.00000   0.19430   0.20055   1.72968
   R15        3.25684  -0.04785   0.00000  -0.01826  -0.01521   3.24163
   R16        2.62473   0.00361   0.00000   0.01826   0.01933   2.64406
   R17        2.78374  -0.02289   0.00000  -0.00681  -0.00517   2.77857
   R18        2.67986   0.03438   0.00000   0.02303   0.02160   2.70147
   R19        2.68623  -0.01281   0.00000  -0.03674  -0.03823   2.64800
   R20        2.07239  -0.00311   0.00000  -0.00435  -0.00434   2.06805
   R21        2.71529   0.03175   0.00000   0.01546   0.01366   2.72895
   R22        2.38243  -0.04952   0.00000  -0.01717  -0.01472   2.36771
   R23        2.64450  -0.00564   0.00000   0.00356   0.00435   2.64885
   R24        2.07006  -0.00264   0.00000  -0.00443  -0.00447   2.06559
   R25        2.66186  -0.01068   0.00000  -0.02708  -0.02809   2.63377
   R26        2.07252  -0.00410   0.00000  -0.00583  -0.00581   2.06671
   R27        2.06811  -0.00045   0.00000  -0.00167  -0.00173   2.06637
    A1        2.05945   0.00934   0.00000   0.00637   0.00571   2.06516
    A2        2.10034  -0.00708   0.00000  -0.00523  -0.00477   2.09557
    A3        2.12339  -0.00225   0.00000  -0.00114  -0.00094   2.12245
    A4        2.15600  -0.00904   0.00000  -0.01589  -0.01552   2.14048
    A5        2.17191   0.00073   0.00000   0.01930   0.02014   2.19204
    A6        1.95528   0.00831   0.00000  -0.00341  -0.00462   1.95066
    A7        2.04913   0.02081   0.00000   0.02721   0.02665   2.07578
    A8        1.95444  -0.03781   0.00000  -0.02947  -0.02767   1.92677
    A9        2.27962   0.01700   0.00000   0.00226   0.00102   2.28064
   A10        2.07869  -0.00805   0.00000  -0.00876  -0.00840   2.07030
   A11        2.10336   0.00545   0.00000   0.00529   0.00502   2.10838
   A12        2.10113   0.00260   0.00000   0.00347   0.00338   2.10451
   A13        2.13707  -0.01052   0.00000  -0.01150  -0.01114   2.12593
   A14        2.06638   0.00535   0.00000   0.00504   0.00484   2.07122
   A15        2.07973   0.00517   0.00000   0.00646   0.00630   2.08603
   A16        2.08602  -0.00254   0.00000   0.00257   0.00270   2.08872
   A17        2.09783   0.00108   0.00000  -0.00108  -0.00113   2.09670
   A18        2.09933   0.00146   0.00000  -0.00150  -0.00157   2.09776
   A19        1.94233   0.07152   0.00000   0.07743   0.07504   2.01737
   A20        2.46130  -0.10075   0.00000  -0.14019  -0.13605   2.32525
   A21        1.87956   0.02923   0.00000   0.06276   0.06101   1.94057
   A22        1.55188   0.02447   0.00000   0.03172   0.03070   1.58258
   A23        2.12635  -0.00120   0.00000  -0.00991  -0.01027   2.11607
   A24        2.11711   0.00110   0.00000  -0.00917  -0.00989   2.10722
   A25        2.03973   0.00010   0.00000   0.01908   0.02016   2.05989
   A26        2.08484   0.01385   0.00000   0.01885   0.01851   2.10335
   A27        2.11436  -0.00631   0.00000  -0.00613  -0.00589   2.10847
   A28        2.08398  -0.00754   0.00000  -0.01272  -0.01262   2.07137
   A29        2.02952  -0.01234   0.00000  -0.01333  -0.01293   2.01659
   A30        2.05912  -0.01848   0.00000   0.01400   0.01634   2.07546
   A31        2.19454   0.03081   0.00000  -0.00068  -0.00341   2.19113
   A32        2.10588  -0.00535   0.00000  -0.01067  -0.01066   2.09522
   A33        2.07829   0.00264   0.00000   0.00517   0.00517   2.08346
   A34        2.09901   0.00271   0.00000   0.00550   0.00549   2.10450
   A35        2.11274   0.00859   0.00000   0.01122   0.01097   2.12371
   A36        2.04856  -0.00228   0.00000  -0.00290  -0.00286   2.04570
   A37        2.12189  -0.00632   0.00000  -0.00832  -0.00811   2.11377
   A38        2.10704  -0.00356   0.00000   0.00385   0.00438   2.11142
   A39        2.08639   0.00021   0.00000  -0.00223  -0.00236   2.08402
   A40        2.08976   0.00335   0.00000  -0.00161  -0.00201   2.08774
   A41        2.02086  -0.06648   0.00000  -0.07627  -0.07345   1.94741
   A42        2.15980   0.03924   0.00000   0.04139   0.03970   2.19950
   A43        2.10253   0.02724   0.00000   0.03489   0.03376   2.13628
    D1       -0.00000   0.00000   0.00000   0.00000   0.00000  -0.00000
    D2        3.14159  -0.00000   0.00000  -0.00000  -0.00000   3.14159
    D3        3.14159   0.00000   0.00000   0.00000   0.00000   3.14159
    D4       -0.00000  -0.00000   0.00000  -0.00000  -0.00000  -0.00000
    D5       -0.00000  -0.00000   0.00000  -0.00000  -0.00000  -0.00000
    D6        3.14159  -0.00000   0.00000  -0.00000  -0.00000   3.14159
    D7        3.14159  -0.00000   0.00000  -0.00000  -0.00000   3.14159
    D8       -0.00000  -0.00000   0.00000  -0.00000  -0.00000  -0.00000
    D9        0.00000   0.00000   0.00000   0.00000   0.00000   0.00000
   D10       -3.14159  -0.00000   0.00000  -0.00000  -0.00000  -3.14159
   D11       -3.14159   0.00000   0.00000   0.00000   0.00000  -3.14159
   D12        0.00000   0.00000   0.00000   0.00000   0.00000   0.00000
   D13        3.14159  -0.00000   0.00000  -0.00000   0.00000   3.14159
   D14       -0.00001  -0.00000   0.00000  -0.00000  -0.00000  -0.00001
   D15       -0.00000  -0.00000   0.00000  -0.00000  -0.00000  -0.00001
   D16        3.14159  -0.00000   0.00000  -0.00000  -0.00000   3.14159
   D17        3.14159   0.00000   0.00000   0.00000   0.00000  -3.14159
   D18        0.00000   0.00000   0.00000   0.00000   0.00000   0.00000
   D19        0.00001   0.00000   0.00000   0.00000   0.00000   0.00001
   D20        3.14151   0.00000   0.00000   0.00001   0.00001   3.14152
   D21       -3.14159   0.00000   0.00000  -0.00000  -0.00000  -3.14159
   D22       -0.00008   0.00000   0.00000   0.00001   0.00001  -0.00008
   D23        0.00000   0.00000   0.00000   0.00000   0.00000   0.00000
   D24       -3.14159   0.00000   0.00000   0.00000   0.00000  -3.14159
   D25        3.14159   0.00000   0.00000   0.00000   0.00000   3.14159
   D26        0.00000  -0.00000   0.00000  -0.00000  -0.00000   0.00000
   D27        0.00000   0.00000   0.00000   0.00000  -0.00000   0.00000
[...]
 .07053217,0.57491375,0.00000005,-0.00000008,0.00056281,-0.00000007,-0.
 00000005,0.00070709,-0.00000017,0.00000002,-0.00127680,0.00000008,-0.0
 0000002,-0.00015628,0.,0.00000009,0.00015570,-0.00000009,-0.00000002,-
 0.00019241,0.,0.,0.00005222,0.,0.,-0.00006392,0.,0.,0.00004723,0.,0.,-
 0.00008902,-0.00000035,-0.00000047,-0.00094230,0.00000021,0.00000013,0
 .00259343,-0.00000059,0.00000114,-0.07332314,0.00000058,-0.00000019,0.
 00035785,0.00001199,0.00000508,0.20142526,0.00068512,-0.00096898,-0.00
 000001,-0.00115020,0.00164020,0.,0.00008498,-0.00170918,-0.00000002,0.
 00070227,0.00009126,0.,0.00002437,0.00110183,0.,-0.00122533,-0.0000761
 6,0.,0.00003669,0.00003379,0.,0.00002040,-0.00004991,0.,-0.00007959,0.
 00007188,0.,-0.00004940,0.00003755,0.,-0.00812472,0.00037206,0.0000001
 1,0.00132086,0.00237230,0.00000005,-0.05517365,0.02091668,0.00000043,-
 0.28069234,0.18122770,0.00000077,-0.00395635,0.01792396,0.00000007,0.7
 8283175,-0.00121872,0.00217507,0.00000003,0.00216559,-0.00151903,-0.00
 000002,0.00056603,0.00136500,0.00000009,-0.00173150,0.00055237,0.00000
 001,-0.00013625,-0.00247735,-0.00000002,0.00257510,0.00018928,0.,-0.00
 013189,-0.00005443,0.,0.00008670,0.00007781,0.,0.00015208,-0.00010826,
 0.,0.00013573,-0.00007119,0.,0.01345092,0.00400249,-0.00000029,-0.0041
 5467,-0.00516843,0.,0.05512941,0.01035347,-0.00000060,0.12310015,-0.26
 781344,-0.00000012,0.03015612,-0.03824942,0.00000060,-0.02650627,0.666
 93965,0.,0.,0.00007117,0.,-0.00000002,0.00063791,-0.00000002,0.0000000
 3,-0.00047702,0.,0.,-0.00013745,0.,0.,0.00004511,0.,0.,-0.00003003,0.,
 0.,0.00000708,0.,0.,0.00000977,0.,0.,0.00001806,0.,0.,-0.00003271,0.00
 000011,0.,-0.00011362,-0.00000004,0.00000005,-0.00116502,0.00000045,-0
 .00000023,0.00984067,0.00000067,-0.00000035,-0.06076157,0.00000019,-0.
 00000002,-0.00657413,-0.00000400,-0.00000133,0.11950162,0.00040938,-0.
 00003575,0.,-0.00087971,0.00040719,-0.00000001,0.00035673,-0.00029852,
 0.,0.00007956,0.00006299,0.,0.00006476,0.00012596,0.,-0.00015569,-0.00
 011386,0.,-0.00001901,-0.00001304,0.,0.00004789,-0.00000171,0.,0.00000
 860,0.00000142,0.,0.00003875,-0.00001027,0.,-0.00012874,0.00038606,0.0
 0000001,-0.00143570,0.00234387,0.00000010,-0.00300606,-0.02751454,0.00
 000029,-0.07589213,-0.07222952,0.00000070,-0.00489496,0.00305144,0.000
 00005,0.00982961,0.02287545,-0.00000009,0.07667880,0.00012248,-0.00004
 693,0.,-0.00007400,0.00103840,-0.00000007,0.00050755,-0.00052382,0.,0.
 00007774,0.00014018,0.,0.00002394,0.00013508,0.,-0.00016976,-0.0000308
 9,0.,-0.00002294,0.00000757,0.,0.00004687,-0.00000717,0.,-0.00000396,0
 .00000858,0.,0.00001159,0.00000082,0.,-0.00131547,0.00012110,0.,0.0012
 5707,-0.00069020,-0.00000012,0.00002699,-0.00405517,0.00000008,-0.0689
 5479,-0.31774923,0.00000187,-0.00020504,0.00277013,0.00000005,-0.01020
 197,-0.01657438,0.00000014,0.07327834,0.33895935,-0.00000002,0.,-0.000
 01639,0.00000002,-0.00000002,-0.00073364,0.,0.,0.00010080,0.,0.,0.0000
 8524,0.,-0.00000001,-0.00002177,0.00000001,0.,0.00003395,0.,0.,-0.0000
 1295,0.,0.,-0.00002045,0.,0.,-0.00000191,0.,0.,0.00002100,-0.00000002,
 0.,-0.00013529,0.00000009,-0.00000021,0.00181872,0.00000002,0.00000020
 ,0.00258530,0.00000079,0.00000201,-0.03699430,0.00000010,-0.00000011,0
 .00440286,0.00000003,-0.00000006,0.00632940,-0.00000092,-0.00000191,0.
 02329098,-0.00045615,0.00120046,0.,0.00099083,-0.00080956,-0.00000002,
 0.00145584,0.00073749,0.00000007,-0.00099641,0.00022413,0.,-0.00005116
 ,-0.00136133,-0.00000001,0.00137439,0.00010713,0.,-0.00008193,0.000013
 03,0.,0.00011982,0.00002501,0.,0.00007333,-0.00005524,0.,0.00007298,-0
 .00002230,0.,0.00774789,0.00432402,-0.00000012,-0.00186032,-0.00210645
 ,0.,0.04319219,0.00597069,-0.00000034,-0.04684545,0.01735996,0.0000001
 3,-0.13858991,0.04285207,0.00000183,0.00513398,-0.07055073,-0.00000035
 ,-0.00009233,0.00038019,0.,0.71925711,0.00073477,-0.00064296,-0.000000
 02,-0.00128900,0.00017689,0.,-0.00006065,-0.00036903,-0.00000001,0.000
 57965,-0.00015456,0.,0.00010595,0.00082579,0.,-0.00086230,-0.00015980,
 0.,0.00001056,0.00003220,0.,0.00000485,-0.00002303,0.,-0.00003237,0.00
 003267,0.,-0.00000270,0.00000758,0.,-0.00420257,-0.00003255,0.00000009
 ,0.00229783,0.00070670,0.00000003,0.01056572,-0.02241385,-0.00000032,0
 .00814119,-0.00422952,-0.00000003,0.06482913,-0.19752049,-0.00000142,-
 0.03756124,-0.00219565,0.00000025,-0.00009802,0.00056434,-0.00000008,0
 .09986689,0.69187392,-0.00000002,0.00000002,-0.00014469,0.00000005,-0.
 00000002,-0.00029168,0.,0.00000003,-0.00089841,-0.00000001,0.,0.000023
 68,0.,-0.00000002,0.00004188,0.00000003,0.,0.00004986,0.,0.,-0.0000564
 3,0.,0.,-0.00003554,0.,0.,-0.00000469,0.,0.,0.00003954,0.00000004,-0.0
 0000006,0.00082690,-0.00000004,0.00000004,-0.00079689,-0.00000011,-0.0
 0000009,0.01056295,0.00000044,-0.00000007,-0.00064806,0.00000183,-0.00
 000134,-0.07836925,-0.00000021,0.00000054,0.00763725,0.,-0.00000001,-0
 .00005526,-0.00000049,0.00000409,0.11992916,0.00081099,-0.00134396,-0.
 00000002,-0.00152428,0.00096325,0.,-0.00058179,-0.00071601,-0.00000005
 ,0.00112934,-0.00029790,0.,0.00008266,0.00157690,0.00000001,-0.0016268
 5,-0.00015858,0.,0.00007477,0.00003192,0.,-0.00005770,-0.00004927,0.,-
 0.00009170,0.00007074,0.,-0.00007500,0.00003937,0.,-0.00805633,-0.0019
 3063,0.00000018,0.00255470,0.00275020,0.00000002,-0.03053903,0.0037001
 0,0.00000038,0.04654881,0.00748338,-0.00000024,-0.05055880,0.02090485,
 -0.00000073,-0.13483284,-0.01549782,0.00000085,-0.00325377,0.00441699,
 -0.00000001,-0.41020503,-0.11018025,0.00000060,0.77010401,0.00082262,-
 0.00138619,-0.00000002,-0.00131617,0.00122587,0.,-0.00032254,-0.001703
 18,-0.00000006,0.00095030,-0.00016465,0.,0.00008086,0.00152534,0.00000
 001,-0.00166500,-0.00009894,0.,0.00008296,0.00001864,0.,-0.00006081,-0
 .00004442,0.,-0.00009991,0.00007683,0.,-0.00007605,0.00004162,0.,-0.01
 106088,-0.00263080,0.00000017,0.00286052,0.00270100,0.,-0.03923867,-0.
 00385437,0.00000063,0.05079325,-0.05339443,-0.00000019,-0.00817674,0.0
 5156101,-0.00000028,-0.07880969,-0.28387924,0.00000094,0.00269539,-0.0
 0159905,0.,-0.05189715,-0.15662371,-0.00000104,-0.01678745,0.67054795,
 0.,0.,-0.00000205,0.,-0.00000001,0.00018470,0.,0.00000001,0.00035837,0
 .,0.,0.00000047,0.,0.,-0.00003102,0.,0.,-0.00000028,0.,0.,0.00001002,0
 .,0.,0.00003269,0.,0.,-0.00000443,0.,0.,-0.00001352,0.00000003,0.00000
 002,-0.00005331,0.,0.,-0.00026979,0.00000001,-0.00000013,-0.00478552,-
 0.00000015,0.00000003,0.00713733,0.00000018,0.00000025,-0.00013002,0.0
 0000045,0.00000029,-0.06258098,0.00000007,0.00000005,0.00859919,0.0000
 0112,-0.00000020,-0.05827124,-0.00000195,0.00000012,0.14472622,0.00000
 912,-0.00008280,0.,-0.00000919,0.00013660,0.,-0.00003764,-0.00016946,0
 .,0.00004609,0.00003006,0.,-0.00001200,0.00006896,0.,-0.00008457,0.000
 01046,0.,0.00000652,0.00000467,0.,-0.00000033,-0.00000494,0.,-0.000009
 31,0.00000852,0.,-0.00000980,0.00000608,0.,-0.00048253,0.00041602,0.,0
 .00003918,0.00009077,0.,-0.00038708,0.00394455,0.00000006,-0.01605397,
 -0.00955799,0.00000017,0.00054759,0.00022540,0.,-0.32772670,-0.0739564
 6,0.00000234,0.00074088,0.00013802,-0.00000005,0.00142601,-0.00110285,
 0.00000003,-0.00306341,0.00252235,0.00000003,0.34524473,-0.00000043,0.
 00002257,0.,0.00001113,-0.00006775,0.,0.00006801,0.00010074,0.,-0.0000
 1423,-0.00003961,0.,0.00001156,-0.00001530,0.,0.00002155,-0.00000411,0
 .,-0.00000025,-0.00000240,0.,0.00000058,0.00000140,0.,0.00000291,-0.00
 000456,0.,0.00000231,-0.00000115,0.,0.00031115,-0.00032147,0.,0.000013
 02,0.00003231,0.,0.00237965,-0.00285145,0.,0.02322094,0.00898035,-0.00
 000020,0.00067512,-0.00141633,0.,-0.07530290,-0.07745051,0.00000077,-0
 .00006873,0.00097625,-0.00000003,0.00020039,-0.00528856,0.,-0.02974774
 ,-0.00265029,0.00000023,0.07874898,0.07805590,0.,0.,0.00000908,0.,0.,-
 0.00009843,0.,0.,-0.00036755,0.,0.,-0.00003145,0.,0.,0.00003966,0.,0.,
 -0.00000863,0.,0.,-0.00000020,0.,0.,-0.00001925,0.,0.,0.00000969,0.,0.
 ,0.00000564,0.,0.,-0.00064310,0.,-0.00000002,0.00029961,-0.00000004,-0
 .00000005,0.00827568,0.00000021,-0.00000004,0.00171123,-0.00000004,0.0
 0000005,-0.00069660,0.00000241,0.00000089,-0.03096027,-0.00000006,-0.0
 0000004,-0.00561492,-0.00000001,0.00000002,0.00411278,0.00000008,-0.00
 000006,0.00056856,-0.00000256,-0.00000076,0.02373094,-0.00007462,0.000
 01026,0.,0.00010390,0.00010301,0.,-0.00003786,-0.00000171,0.,-0.000019
 03,0.00001100,0.,-0.00001076,-0.00003200,0.,0.00003550,0.00001751,0.,0
 .00000066,-0.00000424,0.,-0.00000299,-0.00000020,0.,0.00000050,-0.0000
 0089,0.,-0.00000461,-0.00000020,0.,0.00035509,-0.00008759,0.,-0.000347
 49,0.00016427,0.,-0.00294378,0.00255733,0.00000004,-0.00148906,0.00023
 345,0.,0.00922768,0.02287695,0.00000011,-0.00472489,-0.00038991,0.0000
 0005,0.00012931,-0.00007238,0.,-0.07206285,-0.06643052,-0.00000038,-0.
 00258593,-0.02996260,-0.00000018,-0.00030173,-0.00142566,0.00000003,0.
 07190361,0.00002248,0.00010655,0.,-0.00006979,-0.00018985,0.,0.0000266
 9,0.00015367,0.,-0.00005435,-0.00000533,0.,0.00001348,-0.00008546,0.,0
 .00009448,-0.00001700,0.,-0.00000839,0.00000064,0.,0.00000534,0.000006
 25,0.,0.00001116,-0.00000715,0.,0.00001423,-0.00000640,0.,0.00038991,0
 .00007752,-0.00000001,0.00018071,-0.00038022,0.,0.00400534,-0.00225268
 ,-0.00000014,0.00097555,0.00051814,0.00000002,-0.01200868,-0.01593590,
 -0.00000007,-0.00131440,0.00209920,-0.00000014,-0.00004745,-0.00010897
 ,0.00000002,-0.06690068,-0.32853421,-0.00000248,0.00213833,-0.00383004
 ,-0.00000003,0.00003238,-0.00029357,0.,0.07364598,0.34489487,0.,0.,0.0
 0004370,0.,0.,0.00001937,0.,0.,-0.00002338,0.,0.,-0.00000125,0.,0.,0.0
 0000192,0.,0.,-0.00000667,0.,0.,0.00000447,0.,0.,0.00000010,0.,0.,0.00
 000251,0.,0.,-0.00000753,0.00000001,0.,-0.00006628,0.,-0.00000001,0.00
 010232,0.00000017,-0.00000003,0.00388688,-0.00000010,0.00000007,-0.000
 75542,0.00000002,-0.00000062,0.00442285,0.00000004,-0.00000009,0.00916
 762,-0.00000001,-0.00000001,-0.00100839,-0.00000078,-0.00000223,-0.034
 29401,0.00000024,0.00000016,0.00324290,0.,-0.00000001,0.00051091,0.000
 00034,0.00000264,0.02428074,0.00004199,-0.00008481,0.,-0.00004238,0.00
 014426,0.,0.00008271,-0.00016090,0.,0.00004817,0.00000244,0.,0.0000007
 2,0.00008742,0.,-0.00010140,0.00000201,0.,0.00000482,0.00000323,0.,0.0
 0000375,-0.00000554,0.,-0.00000916,0.00000644,0.,-0.00000733,0.0000055
 0,0.,-0.00051682,0.00013868,0.00000001,0.00007138,0.00027678,0.,-0.000
 84369,0.00030051,0.,0.00116615,-0.00199470,0.00000003,-0.00226836,-0.0
 0448201,-0.00000006,0.00825385,-0.00732831,-0.00000001,0.00029482,-0.0
 0036124,-0.00000001,-0.01623962,0.02373730,0.00000033,-0.20389444,0.14
 068036,0.00000049,0.00058582,0.00041007,-0.00000002,0.00094844,-0.0003
 0772,0.00000001,0.21351535,0.00002612,0.00002513,0.,-0.00009071,0.0000
 4844,0.,0.00003211,0.00006281,0.,0.00000071,0.00000140,0.,0.00001077,-
 0.00001036,0.,0.00001394,-0.00001269,0.,-0.00000660,-0.00000066,0.,0.0
 0000588,0.00000149,0.,0.00000509,-0.00000244,0.,0.00000721,-0.00000383
 ,0.,0.00016305,-0.00006035,0.,-0.00008971,-0.00001505,0.,-0.00078660,0
 .00058650,-0.00000001,-0.00315071,-0.00537934,0.00000004,-0.00255787,-
 0.00025270,0.,0.02406803,-0.01384105,-0.00000016,0.00113603,-0.0011007
 9,0.,-0.00859136,0.00895753,0.00000013,0.14136408,-0.19626354,-0.00000
 059,-0.00024498,0.00105402,-0.00000001,0.00008935,0.00087886,0.,-0.151
 45594,0.20471487,0.,0.,-0.00000311,-0.00000001,0.,-0.00008292,0.,0.,0.
 00013427,0.,0.,0.00000901,0.,0.,-0.00000799,0.,0.,-0.00000236,0.,0.,0.
 00000559,0.,0.,-0.00000134,0.,0.,-0.00000002,0.,0.,0.00000379,-0.00000
 005,0.,-0.00008477,0.00000002,0.,0.00030950,-0.00000009,0.00000003,-0.
 00116518,0.00000013,-0.00000003,0.00442667,-0.00000016,0.00000003,0.01
 145182,0.00000004,0.00000021,0.00476176,0.,0.,-0.00039897,0.00000022,-
 0.00000024,0.00731469,0.00000035,-0.00000062,-0.04238543,-0.00000003,0
 .,-0.00230779,-0.00000004,0.00000009,-0.00612805,-0.00000072,0.0000005
 8,0.02678239,-0.00909688,0.00034574,0.00000009,0.00716873,0.01553654,0
 .00000030,-0.06159029,0.04874235,0.00000078,0.00690271,-0.00377237,-0.
 00000004,-0.00289156,0.00063794,0.,0.00254486,-0.00248445,-0.00000003,
 -0.00003166,-0.00096915,0.,-0.00056681,0.00004135,0.,0.00052140,-0.000
 34527,0.,-0.00056631,-0.00012656,-0.00000001,-0.35701403,-0.03655068,0
 .00000212,-0.06547229,-0.05844359,-0.00000078,-0.18323928,0.09044045,0
 .00000208,-0.06634157,0.03225226,0.00000084,0.04504192,0.02480577,0.00
 000087,0.00783450,-0.02888640,0.,0.00194424,0.00169412,-0.00000009,-0.
 01272098,0.00379013,0.,0.01357881,0.01559973,-0.00000005,-0.00033038,0
 .00080946,-0.00000001,0.00025600,-0.00150202,-0.00000005,0.00088389,-0
 .00001010,0.00000005,0.71774616,0.00249566,-0.00310578,-0.00000010,0.0
 1981241,-0.02295909,-0.00000035,0.01642696,0.01587151,-0.00000020,0.00
 634069,-0.00975578,-0.00000011,-0.00056180,0.00629012,0.00000003,-0.00
 454046,-0.00337571,-0.00000001,0.00021450,-0.00047437,0.,-0.00063021,-
 0.00002482,0.,0.00005660,-0.00037969,0.,-0.00042542,0.00015140,0.00000
 002,-0.04246493,-0.14942173,0.00000015,-0.01035398,-0.16823094,-0.0000
 0187,0.09018443,-0.21680283,-0.00000160,0.03329949,0.00766801,-0.00000
 043,0.00339999,-0.04088551,-0.00000128,-0.01535027,0.02216758,0.000000
 14,-0.00311800,-0.00141019,0.00000008,0.00887926,-0.01120833,0.0000001
 4,-0.01339552,-0.01545691,0.00000003,-0.00116410,0.00078906,0.,0.00149
 129,-0.00031463,0.00000001,-0.00069278,0.00014091,-0.00000007,-0.08049
 173,0.57278332,0.00000010,-0.00000010,-0.00004196,0.,-0.00000003,0.001
 25087,0.00000016,-0.00000003,0.00067550,0.00000010,-0.00000007,0.00098
 634,0.,0.00000013,0.00126393,-0.00000013,-0.00000003,0.00102515,0.,0.,
 -0.00052599,0.,0.,-0.00043267,0.,0.,-0.00026695,0.,0.,-0.00007839,0.00
 000275,-0.00000045,-0.05416916,-0.00000002,-0.00000180,-0.03286646,0.0
 0000192,-0.00000225,-0.05776392,0.00000079,-0.00000018,-0.00560979,-0.
 00000053,-0.00000011,0.00442971,-0.00000018,0.00000044,0.00494347,-0.0
 0000004,-0.00000003,-0.00211296,0.00000019,-0.00000009,0.00381204,-0.0
 0000023,-0.00000024,-0.00077543,0.,0.,0.00168184,0.,0.00000003,-0.0003
 6819,-0.00000002,0.,-0.00065424,-0.00000527,0.00000434,0.13808422,-0.0
 0107904,0.00302018,0.00000004,0.00195439,-0.00085746,0.00000003,0.0067
 6102,0.00086619,0.00000006,-0.00269542,0.00074359,0.,-0.00003793,-0.00
 339953,-0.00000002,0.00330357,0.00051427,0.,-0.00019773,0.00012379,0.,
 0.00026669,0.00006263,0.,0.00011298,-0.00008851,0.,0.00015251,-0.00001
 313,0.,0.01637804,0.02109932,-0.00000028,-0.00313210,-0.00514993,-0.00
 000007,-0.00714475,-0.06714029,-0.00000190,-0.01426488,0.00181341,0.,-
 0.55468224,-0.11789579,-0.00001359,0.00099147,-0.02107907,-0.00000016,
 -0.00107909,-0.00068594,0.00000008,-0.08332220,0.00751319,-0.00000215,
 0.01690689,0.02374286,-0.00000003,-0.00020492,-0.00033726,0.00000001,0
 .00166271,0.00069130,0.00000008,-0.00210728,0.00008494,0.00000028,-0.0
 3941774,0.02437080,0.00000070,0.65377368,-0.00033625,0.00010807,0.0000
 0002,0.00028637,-0.00143723,0.00000002,-0.00371140,-0.00096064,-0.0000
 0019,-0.00025554,-0.00019839,0.,0.00026372,-0.00018002,0.,0.00031790,-
 0.00004345,0.,0.00001334,-0.00012108,0.,0.00011739,0.00004914,0.,0.000
 08709,-0.00008805,0.,0.00006369,-0.00005205,0.,0.01144068,-0.01285772,
 -0.00000019,-0.00029423,-0.00157323,-0.00000005,-0.05623857,-0.0197261
 2,-0.00000129,0.00888678,-0.00856037,-0.00000018,-0.12829414,-0.131750
 76,-0.00000394,-0.00384750,0.00510159,0.,-0.00248159,-0.00084844,0.000
 00010,0.02810767,0.02518749,0.00000031,0.00093210,-0.00944147,-0.00000
 008,-0.00012056,0.00051603,0.,-0.00284695,0.00331154,0.00000012,0.0012
 5842,0.00048348,-0.00000001,-0.00294121,0.00675510,0.00000008,0.155099
 72,0.15210099,-0.00000002,0.00000004,-0.00019919,0.00000002,-0.0000000
 3,-0.00003125,-0.00000003,-0.00000012,0.00162214,-0.00000006,0.,0.0000
 4488,0.00000001,-0.00000005,-0.00009949,0.00000005,0.,0.00004629,0.,0.
 ,0.00002067,0.,0.,0.00002020,0.,0.,-0.00001510,0.,0.,0.00000158,0.0000
 0059,-0.00000002,0.00087745,-0.00000007,-0.00000021,-0.00008588,-0.000
 00049,-0.00000100,0.01895262,-0.00000033,0.,0.00461793,-0.00001528,-0.
 00000455,-0.06902028,0.,-0.00000050,-0.00021192,-0.00000007,-0.0000000
 3,-0.00008752,-0.00000123,0.00000020,0.01838106,0.00000048,0.00000037,
 0.00441839,-0.00000001,0.,-0.00039941,0.00000004,0.00000008,-0.0030135
 4,-0.00000003,0.,-0.00180815,-0.00000062,0.00000062,-0.00273644,0.0000
 1724,0.00000532,0.03390222,0.00139092,0.00024827,0.,-0.00361322,0.0052
 8180,0.00000003,0.01523783,0.01866798,0.00000005,0.00132291,0.00002692
 ,0.,-0.00014909,0.00021407,0.,-0.00045678,-0.00002971,0.,-0.00016058,0
 .00033804,0.,-0.00117595,-0.00020022,0.,-0.00002941,0.00001104,0.,-0.0
 0005518,-0.00004215,0.,-0.13468371,-0.15577521,-0.00000020,-0.00393748
 ,-0.00156006,0.00000009,-0.00043171,0.00372113,0.00000002,0.00070536,-
 0.00006575,-0.00000004,-0.01138587,-0.00141840,-0.00000019,-0.00001384
 ,0.00117470,0.00000002,0.00021386,0.00008559,-0.00000001,0.00267996,-0
 .00035469,0.00000009,-0.00084408,-0.00135754,-0.00000002,0.00006763,0.
 00001039,0.,-0.00001781,-0.00003389,0.,0.00012861,-0.00002274,-0.00000
 001,-0.00514345,-0.03378287,-0.00000029,0.00710137,-0.00550692,-0.0000
 0021,0.13324970,-0.00108071,0.00071874,0.,0.00350518,-0.00057019,0.,-0
 .00360506,-0.01310081,0.00000006,-0.00171567,0.00173791,0.00000002,-0.
 00033432,-0.00162582,-0.00000001,0.00101763,0.00070869,0.,0.00007927,-
 0.00001416,0.,0.00088229,-0.00081661,-0.00000001,-0.00008535,0.0001128
 1,0.,0.00001826,0.00005526,0.,-0.14815534,-0.39445773,-0.00000145,0.00
 085161,0.00313238,0.00000003,0.00740384,-0.01102505,-0.00000017,-0.005
 81845,-0.00036680,0.00000011,0.02075546,0.01123498,0.00000071,0.001841
 21,-0.00562113,-0.00000004,-0.00033313,0.00002341,0.00000002,-0.007953
 58,0.00103112,-0.00000019,0.00373291,0.00532296,0.,0.00002035,-0.00012
 157,0.,0.00005443,-0.00008585,0.,-0.00017946,-0.00001265,0.00000004,-0
 .01817232,0.01118930,0.00000037,-0.02309926,-0.00577440,-0.00000013,0.
 17037022,0.39832520,-0.00000001,0.,0.00085465,0.00000003,-0.00000004,0
 .00213850,-0.00000005,-0.00000009,-0.00336363,-0.00000001,0.,-0.000690
 37,0.,0.,-0.00023090,0.,0.,-0.00007694,0.,0.,-0.00001025,0.,-0.0000000
 1,-0.00017478,0.,0.,0.00005264,0.,0.,0.00000074,-0.00000020,-0.0000010
 0,-0.01041252,0.00000001,-0.00000007,0.00438178,0.00000006,-0.00000023
 ,-0.00303290,-0.00000011,-0.00000002,-0.00069900,0.00000025,0.00000040
 ,0.00022531,0.00000003,-0.00000009,0.00007381,0.,0.,-0.00005271,-0.000
 00021,-0.00000005,0.00113433,0.00000004,0.00000011,0.00002416,0.,0.,0.
 00019195,0.,0.,-0.00001358,-0.00000001,0.,-0.00016918,-0.00000018,0.00
 000045,0.00024949,-0.00000034,-0.00000003,-0.00519724,0.00000068,0.000
 00067,0.01479662\\-0.00031953,0.00269490,-0.00000007,0.00359301,0.0061
 4703,0.,0.00744340,0.00010451,0.00000048,0.00013387,0.00002788,-0.0000
 0012,-0.00052046,-0.00350746,0.00000005,-0.00048415,-0.00026336,0.0000
 0007,-0.00025629,0.00040162,0.,0.00033082,-0.00012317,0.00000002,-0.00
 002172,-0.00016598,0.,-0.00011198,-0.00004682,0.,-0.00788629,0.0074661
 4,-0.00000038,0.00293134,0.00999294,-0.00000030,-0.00490255,0.00380682
 ,0.00000250,0.00606257,-0.00131513,0.00000050,0.00926064,0.00266374,-0
 .00000796,-0.00170858,0.00310865,0.00000007,0.00027561,-0.00013019,0.0
 0000003,-0.00342390,-0.00006946,0.00000228,-0.00474994,-0.00229866,0.0
 0000006,-0.00009820,-0.00027216,0.00000002,-0.00044257,0.00000380,0.00
 000012,-0.00049450,-0.00030440,-0.00000040,-0.00442013,-0.00265728,0.0
 0000026,-0.00570317,-0.00646640,0.00000351,0.00551269,-0.01879755,-0.0
 0000075\\\@
 The archive entry for this job was punched.


 ON A TOMBSTONE, "HERE LIES LESTER MOORE,
 FOUR SLUGS FROM A 44, NO LES, NO MORE".
 Job cpu time:       0 days  0 hours 59 minutes 21.9 seconds.
 Elapsed time:       0 days  0 hours  5 minutes 58.2 seconds.
 File lengths (MBytes):  RWF=    544 Int=      0 D2E=      0 Chk=     36 Scr=      8
 Normal termination of Gaussian 16 at Wed Oct 28 00:46:28 2020.
