 Entering Gaussian System, Link 0=g16
 Initial command:
 /gpfs/loomis/apps/avx/software/Gaussian/16-C.01_AVX/g16/l1.exe "/home/fas/batista/pev4/scratch60/gauss-scratch/Gau-247298.inp" -scrdir="/home/fas/batista/pev4/scratch60/gauss-scratch/"
 Entering Link 1 = /gpfs/loomis/apps/avx/software/Gaussian/16-C.01_AVX/g16/l1.exe PID=    247299.
  
 Copyright (c) 1988-2019, Gaussian, Inc.  All Rights Reserved.
  
 This is part of the Gaussian(R) 16 program.  It is based on
 the Gaussian(R) 09 system (copyright 2009, Gaussian, Inc.),
 the Gaussian(R) 03 system (copyright 2003, Gaussian, Inc.),
 the Gaussian(R) 98 system (copyright 1998, Gaussian, Inc.),
 the Gaussian(R) 94 system (copyright 1995, Gaussian, Inc.),
 the Gaussian 92(TM) system (copyright 1992, Gaussian, Inc.),
 the Gaussian 90(TM) system (copyright 1990, Gaussian, Inc.),
 the Gaussian 88(TM) system (copyright 1988, Gaussian, Inc.),
 the Gaussian 86(TM) system (copyright 1986, Carnegie Mellon
 University), and the Gaussian 82(TM) system (copyright 1983,
 Carnegie Mellon University). Gaussian is a federally registered
 trademark of Gaussian, Inc.
  
 This software contains proprietary and confidential information,
 including trade secrets, belonging to Gaussian, Inc.
  
 This software is provided under written license and may be
 used, copied, transmitted, or stored only in accord with that
 written license.
  
 The following legend is applicable only to US Government
 contracts under FAR:
  
                    RESTRICTED RIGHTS LEGEND
  
 Use, reproduction and disclosure by the US Government is
 subject to restrictions as set forth in subparagraphs (a)
 and (c) of the Commercial Computer Software - Restricted
 Rights clause in FAR 52.227-19.
  
 Gaussian, Inc.
 340 Quinnipiac St., Bldg. 40, Wallingford CT 06492
  
  
 ---------------------------------------------------------------
 Warning -- This program may not be used in any manner that
 competes with the business of Gaussian, Inc. or will provide
 assistance to any competitor of Gaussian, Inc.  The licensee
 of this program is prohibited from giving any competitor of
 Gaussian, Inc. access to this program.  By using this program,
 the user acknowledges that Gaussian, Inc. is engaged in the
 business of creating and licensing software in the field of
 computational chemistry and represents and warrants to the
 licensee that it is not a competitor of Gaussian, Inc. and that
 it will not use this program in any manner prohibited above.
 ---------------------------------------------------------------
  

 Cite this work as:
 Gaussian 16, Revision C.01,
 M. J. Frisch, G. W. Trucks, H. B. Schlegel, G. E. Scuseria, 
 M. A. Robb, J. R. Cheeseman, G. Scalmani, V. Barone, 
 G. A. Petersson, H. Nakatsuji, X. Li, M. Caricato, A. V. Marenich, 
 J. Bloino, B. G. Janesko, R. Gomperts, B. Mennucci, H. P. Hratchian, 
 J. V. Ortiz, A. F. Izmaylov, J. L. Sonnenberg, D. Williams-Young, 
 F. Ding, F. Lipparini, F. Egidi, J. Goings, B. Peng, A. Petrone, 
 T. Henderson, D. Ranasinghe, V. G. Zakrzewski, J. Gao, N. Rega, 
 G. Zheng, W. Liang, M. Hada, M. Ehara, K. Toyota, R. Fukuda, 
 J. Hasegawa, M. Ishida, T. Nakajima, Y. Honda, O. Kitao, H. Nakai, 
 T. Vreven, K. Throssell, J. A. Montgomery, Jr., J. E. Peralta, 
 F. Ogliaro, M. J. Bearpark, J. J. Heyd, E. N. Brothers, K. N. Kudin, 
 V. N. Staroverov, T. A. Keith, R. Kobayashi, J. Normand, 
 K. Raghavachari, A. P. Rendell, J. C. Burant, S. S. Iyengar, 
 J. Tomasi, M. Cossi, J. M. Millam, M. Klene, C. Adamo, R. Cammi, 
 J. W. Ochterski, R. L. Martin, K. Morokuma, O. Farkas, 
 J. B. Foresman, and D. J. Fox, Gaussian, Inc., Wallingford CT, 2019.
 
 ******************************************
 Gaussian 16:  ES64L-G16RevC.01  3-Jul-2019
                27-Oct-2020 
 ******************************************
 %chk=config_10_10.chk
 %mem=58GB
 %nprocshared=10
 Will use up to   10 processors via shared memory.
 ----------------------------------------------------------------------
 #p opt=addgic freq wb97xd/cc-pvdz nosymm int=ultrafine scrf=(solvent=C
 arbonTetraChloride)
 ----------------------------------------------------------------------
 1/18=20,19=15,26=6,38=1,145=903/1,3;
 2/9=110,12=2,15=1,17=6,18=5,40=1/2;
 3/5=16,11=2,25=1,30=1,70=2201,71=1,72=11,74=-58,75=-5/1,2,3;
 4//1;
 5/5=2,38=5,53=11/2;
 6/7=2,8=2,9=2,10=2,28=1/1;
 7/30=1/1,2,3,16;
 1/18=20,19=15,26=6,145=903/3(2);
 2/9=110,15=1/2;
 99//99;
 2/9=110,15=1/2;
 3/5=16,11=2,25=1,30=1,70=2205,71=1,72=11,74=-58,75=-5/1,2,3;
 4/5=5,16=3,69=1/1;
 5/5=2,38=5,53=11/2;
 7/30=1/1,2,3,16;
 1/18=20,19=15,26=6,145=903/3(-5);
 2/9=110,15=1/2;
 6/7=2,8=2,9=2,10=2,19=2,28=1/1;
 99/9=1/99;
 Leave Link    1 at Tue Oct 27 22:41:09 2020, MaxMem=  7784628224 cpu:               4.3 elap:               0.5
 (Enter /gpfs/loomis/apps/avx/software/Gaussian/16-C.01_AVX/g16/l101.exe)
 ------------------------------------------------
 NM 2D-scan of HBT TD-WB97XD pVDZ in CTC Relaxed.
 ------------------------------------------------
 Symbolic Z-matrix:
 Charge =  0 Multiplicity = 1
 C                     1.6349   -3.25644  -0.00002 
 C                     1.007    -2.01204  -0.00002 
 C                     1.74528  -0.79978  -0.00002 
 C                     3.1417   -0.85301  -0.00002 
 C                     3.76416  -2.09913  -0.00002 
 C                     3.02794  -3.29057  -0.00002 
 H                     1.04811  -4.17639  -0.00002 
 H                     3.72523   0.06864  -0.00003 
 H                     4.85459  -2.14327  -0.00002 
 H                     3.54527  -4.2508   -0.00002 
 N                     0.93576   0.32042  -0.00002 
 S                    -0.7216   -1.70223  -0.00002 
 C                    -1.37213   1.04379   0.00001 
 C                    -2.73513   0.80085   0.00001 
 C                    -0.87074   2.44074   0.00003 
 C                    -3.65267   1.88102   0.00003 
 H                    -3.11825  -0.22237  -0.00001 
 C                    -1.84174   3.48653   0.00005 
 C                    -3.21052   3.20621   0.00005 
 H                    -4.7219    1.66206   0.00003 
 H                    -1.46007   4.50875   0.00007 
 H                    -3.93563   4.02063   0.00006 
 C                    -0.38899   0.01265  -0.00002 
 O                     0.37358   2.66089   0.00004 
 H                     1.05825   1.1741    0. 
 
 Initializing the GIC definitions file.
 Number of initial coordinates =   134
 Number of input entries/lines =    52
 Number of additional coordinates =     2
 Number of removed coordinates =     0
 Number of frozen coordinates =     2
 Number of final active and frozen coordinates =   136
 ITRead=  0  0  0  0  0  0  0  0  0  0  0  0  0  0  0  0  0  0  0  0
 ITRead=  0  0  0  0  0
 MicOpt= -1 -1 -1 -1 -1 -1 -1 -1 -1 -1 -1 -1 -1 -1 -1 -1 -1 -1 -1 -1
 MicOpt= -1 -1 -1 -1 -1
 NAtoms=     25 NQM=       25 NQMF=       0 NMMI=      0 NMMIF=      0
                NMic=       0 NMicF=      0.
                    Isotopes and Nuclear Properties:
 (Nuclear quadrupole moments (NQMom) in fm**2, nuclear magnetic moments (NMagM)
  in nuclear magnetons)

  Atom         1           2           3           4           5           6           7           8           9          10
 IAtWgt=          12          12          12          12          12          12           1           1           1           1
 AtmWgt=  12.0000000  12.0000000  12.0000000  12.0000000  12.0000000  12.0000000   1.0078250   1.0078250   1.0078250   1.0078250
 NucSpn=           0           0           0           0           0           0           1           1           1           1
 AtZEff=  -0.0000000  -0.0000000  -0.0000000  -0.0000000  -0.0000000  -0.0000000  -0.0000000  -0.0000000  -0.0000000  -0.0000000
 NQMom=    0.0000000   0.0000000   0.0000000   0.0000000   0.0000000   0.0000000   0.0000000   0.0000000   0.0000000   0.0000000
 NMagM=    0.0000000   0.0000000   0.0000000   0.0000000   0.0000000   0.0000000   2.7928460   2.7928460   2.7928460   2.7928460
 AtZNuc=   6.0000000   6.0000000   6.0000000   6.0000000   6.0000000   6.0000000   1.0000000   1.0000000   1.0000000   1.0000000

  Atom        11          12          13          14          15          16          17          18          19          20
 IAtWgt=          14          32          12          12          12          12           1          12          12           1
 AtmWgt=  14.0030740  31.9720718  12.0000000  12.0000000  12.0000000  12.0000000   1.0078250  12.0000000  12.0000000   1.0078250
 NucSpn=           2           0           0           0           0           0           1           0           0           1
 AtZEff=  -0.0000000  -0.0000000  -0.0000000  -0.0000000  -0.0000000  -0.0000000  -0.0000000  -0.0000000  -0.0000000  -0.0000000
 NQMom=    2.0440000   0.0000000   0.0000000   0.0000000   0.0000000   0.0000000   0.0000000   0.0000000   0.0000000   0.0000000
 NMagM=    0.4037610   0.0000000   0.0000000   0.0000000   0.0000000   0.0000000   2.7928460   0.0000000   0.0000000   2.7928460
 AtZNuc=   7.0000000  16.0000000   6.0000000   6.0000000   6.0000000   6.0000000   1.0000000   6.0000000   6.0000000   1.0000000

  Atom        21          22          23          24          25
 IAtWgt=           1           1          12          16           1
 AtmWgt=   1.0078250   1.0078250  12.0000000  15.9949146   1.0078250
 NucSpn=           1           1           0           0           1
 AtZEff=  -0.0000000  -0.0000000  -0.0000000  -0.0000000  -0.0000000
 NQMom=    0.0000000   0.0000000   0.0000000   0.0000000   0.0000000
 NMagM=    2.7928460   2.7928460   0.0000000   0.0000000   2.7928460
 AtZNuc=   1.0000000   1.0000000   6.0000000   8.0000000   1.0000000
 Leave Link  101 at Tue Oct 27 22:41:12 2020, MaxMem=  7784628224 cpu:              32.7 elap:               3.3
 (Enter /gpfs/loomis/apps/avx/software/Gaussian/16-C.01_AVX/g16/l103.exe)

 GradGradGradGradGradGradGradGradGradGradGradGradGradGradGradGradGradGrad
 Berny optimization.
 Initialization pass.
                           ----------------------------
                           !    Initial Parameters    !
                           ! (Angstroms and Degrees)  !
 --------------------------                            --------------------------
 ! Name  Definition              Value          Derivative Info.                !
 --------------------------------------------------------------------------------
 ! R1    R(1,2)                  1.3938         estimate D2E/DX2                !
 ! R2    R(1,6)                  1.3935         estimate D2E/DX2                !
 ! R3    R(1,7)                  1.0912         estimate D2E/DX2                !
 ! R4    R(2,3)                  1.4194         estimate D2E/DX2                !
 ! R5    R(2,12)                 1.7561         estimate D2E/DX2                !
 ! R6    R(3,4)                  1.3974         estimate D2E/DX2                !
 ! R7    R(3,11)                 1.3821         estimate D2E/DX2                !
 ! R8    R(4,5)                  1.3929         estimate D2E/DX2                !
 ! R9    R(4,8)                  1.0908         estimate D2E/DX2                !
 ! R10   R(5,6)                  1.4006         estimate D2E/DX2                !
 ! R11   R(5,9)                  1.0913         estimate D2E/DX2                !
 ! R12   R(6,10)                 1.0907         estimate D2E/DX2                !
 ! R13   R(11,23)                1.36           estimate D2E/DX2                !
 ! R14   R(11,25)                0.8624         estimate D2E/DX2                !
 ! R15   R(12,23)                1.7468         estimate D2E/DX2                !
 ! R16   R(13,14)                1.3845         estimate D2E/DX2                !
 ! R17   R(13,15)                1.4842         estimate D2E/DX2                !
 ! R18   R(13,23)                1.4247         estimate D2E/DX2                !
 ! R19   R(14,16)                1.4173         estimate D2E/DX2                !
 ! R20   R(14,17)                1.0926         estimate D2E/DX2                !
 ! R21   R(15,18)                1.4271         estimate D2E/DX2                !
 ! R22   R(15,24)                1.2636         estimate D2E/DX2                !
 ! R23   R(16,19)                1.397          estimate D2E/DX2                !
 ! R24   R(16,20)                1.0914         estimate D2E/DX2                !
 ! R25   R(18,19)                1.3972         estimate D2E/DX2                !
 ! R26   R(18,21)                1.0912         estimate D2E/DX2                !
 ! R27   R(19,22)                1.0904         estimate D2E/DX2                !
 ! A1    A(2,1,6)              118.1779         estimate D2E/DX2                !
 ! A2    A(2,1,7)              120.694          estimate D2E/DX2                !
 ! A3    A(6,1,7)              121.1281         estimate D2E/DX2                !
 ! A4    A(1,2,3)              121.8835         estimate D2E/DX2                !
 ! A5    A(1,2,12)             126.9357         estimate D2E/DX2                !
 ! A6    A(3,2,12)             111.1808         estimate D2E/DX2                !
 ! A7    A(2,3,4)              119.1587         estimate D2E/DX2                !
 ! A8    A(2,3,11)             112.8039         estimate D2E/DX2                !
 ! A9    A(4,3,11)             128.0374         estimate D2E/DX2                !
 ! A10   A(3,4,5)              118.7261         estimate D2E/DX2                !
 ! A11   A(3,4,8)              120.1561         estimate D2E/DX2                !
 ! A12   A(5,4,8)              121.1178         estimate D2E/DX2                !
 ! A13   A(4,5,6)              121.7442         estimate D2E/DX2                !
 ! A14   A(4,5,9)              118.8614         estimate D2E/DX2                !
 ! A15   A(6,5,9)              119.3944         estimate D2E/DX2                !
 ! A16   A(1,6,5)              120.3096         estimate D2E/DX2                !
 ! A17   A(1,6,10)             119.7169         estimate D2E/DX2                !
 ! A18   A(5,6,10)             119.9735         estimate D2E/DX2                !
 ! A19   A(3,11,23)            112.7751         estimate D2E/DX2                !
 ! A20   A(3,11,25)            135.9801         estimate D2E/DX2                !
 ! A21   A(23,11,25)           111.2447         estimate D2E/DX2                !
 ! A22   A(2,12,23)             89.1846         estimate D2E/DX2                !
 ! A23   A(14,13,15)           119.8502         estimate D2E/DX2                !
 ! A24   A(14,13,23)           123.5285         estimate D2E/DX2                !
 ! A25   A(15,13,23)           116.6213         estimate D2E/DX2                !
 ! A26   A(13,14,16)           120.2398         estimate D2E/DX2                !
 ! A27   A(13,14,17)           120.6334         estimate D2E/DX2                !
 ! A28   A(16,14,17)           119.1268         estimate D2E/DX2                !
 ! A29   A(13,15,18)           117.3797         estimate D2E/DX2                !
 ! A30   A(13,15,24)           119.7771         estimate D2E/DX2                !
 ! A31   A(18,15,24)           122.8432         estimate D2E/DX2                !
 ! A32   A(14,16,19)           121.2027         estimate D2E/DX2                !
 ! A33   A(14,16,20)           118.7728         estimate D2E/DX2                !
 ! A34   A(19,16,20)           120.0246         estimate D2E/DX2                !
 ! A35   A(15,18,19)           121.3023         estimate D2E/DX2                !
 ! A36   A(15,18,21)           116.6495         estimate D2E/DX2                !
 ! A37   A(19,18,21)           122.0481         estimate D2E/DX2                !
 ! A38   A(16,19,18)           120.0253         estimate D2E/DX2                !
 ! A39   A(16,19,22)           119.8686         estimate D2E/DX2                !
 ! A40   A(18,19,22)           120.106          estimate D2E/DX2                !
 ! A41   A(11,23,12)           114.0556         estimate D2E/DX2                !
 ! A42   A(11,23,13)           120.5556         estimate D2E/DX2                !
 ! A43   A(12,23,13)           125.3888         estimate D2E/DX2                !
 ! D1    D(6,1,2,3)              0.0            estimate D2E/DX2                !
 ! D2    D(6,1,2,12)          -180.0            estimate D2E/DX2                !
 ! D3    D(7,1,2,3)            179.9999         estimate D2E/DX2                !
 ! D4    D(7,1,2,12)             0.0            estimate D2E/DX2                !
 ! D5    D(2,1,6,5)             -0.0001         estimate D2E/DX2                !
 ! D6    D(2,1,6,10)           179.9999         estimate D2E/DX2                !
 ! D7    D(7,1,6,5)           -180.0            estimate D2E/DX2                !
 ! D8    D(7,1,6,10)             0.0            estimate D2E/DX2                !
 ! D9    D(1,2,3,4)              0.0001         estimate D2E/DX2                !
 ! D10   D(1,2,3,11)           180.0            estimate D2E/DX2                !
 ! D11   D(12,2,3,4)          -179.9999         estimate D2E/DX2                !
 ! D12   D(12,2,3,11)            0.0            estimate D2E/DX2                !
 ! D13   D(1,2,12,23)          179.9998         estimate D2E/DX2                !
 ! D14   D(3,2,12,23)           -0.0002         estimate D2E/DX2                !
 ! D15   D(2,3,4,5)             -0.0001         estimate D2E/DX2                !
 ! D16   D(2,3,4,8)            179.9999         estimate D2E/DX2                !
 ! D17   D(11,3,4,5)          -180.0            estimate D2E/DX2                !
 ! D18   D(11,3,4,8)             0.0            estimate D2E/DX2                !
 ! D19   D(2,3,11,23)            0.0003         estimate D2E/DX2                !
 ! D20   D(2,3,11,25)          179.9976         estimate D2E/DX2                !
 ! D21   D(4,3,11,23)         -179.9998         estimate D2E/DX2                !
 ! D22   D(4,3,11,25)           -0.0025         estimate D2E/DX2                !
 ! D23   D(3,4,5,6)              0.0            estimate D2E/DX2                !
 ! D24   D(3,4,5,9)           -179.9999         estimate D2E/DX2                !
 ! D25   D(8,4,5,6)            180.0            estimate D2E/DX2                !
 ! D26   D(8,4,5,9)              0.0            estimate D2E/DX2                !
 ! D27   D(4,5,6,1)              0.0001         estimate D2E/DX2                !
 ! D28   D(4,5,6,10)          -180.0            estimate D2E/DX2                !
 ! D29   D(9,5,6,1)           -180.0            estimate D2E/DX2                !
 ! D30   D(9,5,6,10)             0.0            estimate D2E/DX2                !
 ! D31   D(3,11,23,12)          -0.0004         estimate D2E/DX2                !
 ! D32   D(3,11,23,13)         179.9989         estimate D2E/DX2                !
 ! D33   D(25,11,23,12)       -179.9984         estimate D2E/DX2                !
 ! D34   D(25,11,23,13)          0.0009         estimate D2E/DX2                !
 ! D35   D(2,12,23,11)           0.0003         estimate D2E/DX2                !
 ! D36   D(2,12,23,13)        -179.9989         estimate D2E/DX2                !
 ! D37   D(15,13,14,16)          0.0003         estimate D2E/DX2                !
 ! D38   D(15,13,14,17)       -179.9999         estimate D2E/DX2                !
 ! D39   D(23,13,14,16)       -179.9998         estimate D2E/DX2                !
 ! D40   D(23,13,14,17)          0.0            estimate D2E/DX2                !
 ! D41   D(14,13,15,18)         -0.0004         estimate D2E/DX2                !
 ! D42   D(14,13,15,24)        179.9994         estimate D2E/DX2                !
 ! D43   D(23,13,15,18)        179.9997         estimate D2E/DX2                !
 ! D44   D(23,13,15,24)         -0.0005         estimate D2E/DX2                !
 ! D45   D(14,13,23,11)        179.9997         estimate D2E/DX2                !
 ! D46   D(14,13,23,12)         -0.0011         estimate D2E/DX2                !
 ! D47   D(15,13,23,11)         -0.0004         estimate D2E/DX2                !
 ! D48   D(15,13,23,12)        179.9988         estimate D2E/DX2                !
 ! D49   D(13,14,16,19)          0.0            estimate D2E/DX2                !
 ! D50   D(13,14,16,20)        179.9999         estimate D2E/DX2                !
 ! D51   D(17,14,16,19)       -179.9999         estimate D2E/DX2                !
 ! D52   D(17,14,16,20)          0.0001         estimate D2E/DX2                !
 ! D53   D(13,15,18,19)          0.0003         estimate D2E/DX2                !
 ! D54   D(13,15,18,21)        179.9999         estimate D2E/DX2                !
 ! D55   D(24,15,18,19)       -179.9995         estimate D2E/DX2                !
 ! D56   D(24,15,18,21)          0.0001         estimate D2E/DX2                !
 ! D57   D(14,16,19,18)         -0.0001         estimate D2E/DX2                !
 ! D58   D(14,16,19,22)        180.0            estimate D2E/DX2                !
 ! D59   D(20,16,19,18)        179.9999         estimate D2E/DX2                !
 ! D60   D(20,16,19,22)          0.0            estimate D2E/DX2                !
 ! D61   D(15,18,19,16)         -0.0001         estimate D2E/DX2                !
 ! D62   D(15,18,19,22)        179.9999         estimate D2E/DX2                !
 ! D63   D(21,18,19,16)       -179.9997         estimate D2E/DX2                !
 ! D64   D(21,18,19,22)          0.0003         estimate D2E/DX2                !
 ! Qtot  GIC-1                  40.0            Frozen                          !
 ! Ptot  GIC-2                  40.0            Frozen                          !
 --------------------------------------------------------------------------------
 NOTE: GIC-type coordinates are in arbitrary units.
 Trust Radius=3.00D-01 FncErr=5.00D-06 GrdErr=5.00D-06 EigMax=2.50D+02 EigMin=1.00D-04
 Number of steps in this run=    146 maximum allowed number of steps=    150.
 GradGradGradGradGradGradGradGradGradGradGradGradGradGradGradGradGradGrad

 Leave Link  103 at Tue Oct 27 22:41:12 2020, MaxMem=  7784628224 cpu:               0.3 elap:               0.0
 (Enter /gpfs/loomis/apps/avx/software/Gaussian/16-C.01_AVX/g16/l202.exe)
                          Input orientation:                          
 ---------------------------------------------------------------------
 Center     Atomic      Atomic             Coordinates (Angstroms)
 Number     Number       Type             X           Y           Z
 ---------------------------------------------------------------------
      1          6           0        1.634897   -3.256440   -0.000021
      2          6           0        1.006997   -2.012040   -0.000022
      3          6           0        1.745280   -0.799775   -0.000023
      4          6           0        3.141702   -0.853010   -0.000025
      5          6           0        3.764159   -2.099126   -0.000023
      6          6           0        3.027942   -3.290565   -0.000020
      7          1           0        1.048113   -4.176394   -0.000019
      8          1           0        3.725225    0.068636   -0.000026
      9          1           0        4.854592   -2.143274   -0.000023
     10          1           0        3.545270   -4.250803   -0.000018
     11          7           0        0.935757    0.320420   -0.000024
     12         16           0       -0.721602   -1.702228   -0.000022
     13          6           0       -1.372126    1.043790    0.000006
     14          6           0       -2.735126    0.800851    0.000007
     15          6           0       -0.870735    2.440739    0.000033
     16          6           0       -3.652667    1.881019    0.000028
     17          1           0       -3.118249   -0.222374   -0.000011
     18          6           0       -1.841737    3.486528    0.000051
     19          6           0       -3.210517    3.206206    0.000048
     20          1           0       -4.721899    1.662057    0.000027
     21          1           0       -1.460069    4.508752    0.000072
     22          1           0       -3.935629    4.020626    0.000064
     23          6           0       -0.388993    0.012651   -0.000018
     24          8           0        0.373577    2.660885    0.000044
     25          1           0        1.058252    1.174096    0.000000
 ---------------------------------------------------------------------
                    Distance matrix (angstroms):
                    1          2          3          4          5
     1  C    0.000000
     2  C    1.393840   0.000000
     3  C    2.459144   1.419383   0.000000
     4  C    2.836713   2.429057   1.397436   0.000000
     5  C    2.423455   2.758537   2.400872   1.392932   0.000000
     6  C    1.393462   2.391410   2.801652   2.440209   1.400551
     7  H    1.091160   2.164744   3.447839   3.927849   3.419349
     8  H    3.927544   3.423153   2.162018   1.090839   2.168111
     9  H    3.406695   3.849832   3.387154   2.144476   1.091326
    10  H    2.153667   3.384507   3.892243   3.421676   2.162782
    11  N    3.644547   2.333548   1.382087   2.498625   3.722104
    12  S    2.822883   1.756143   2.626771   3.955539   4.503285
    13  C    5.247301   3.872767   3.621733   4.896171   6.021573
    14  C    5.963113   4.681436   4.757735   6.105109   7.116921
    15  C    6.223829   4.832507   4.164669   5.191188   6.487882
    16  C    7.372369   6.071934   6.026980   7.323821   8.417295
    17  H    5.638968   4.496727   4.897683   6.291636   7.133704
    18  C    7.586476   6.192701   5.589194   6.608044   7.913634
    19  C    8.077366   6.709509   6.372425   7.538429   8.763141
    20  H    8.037442   6.805824   6.919900   8.256014   9.282224
    21  H    8.359248   6.971883   6.201188   7.065747   8.423575
    22  H    9.164413   7.798886   7.450436   8.593075   9.835553
    23  C    3.844878   2.459301   2.283672   3.635268   4.659214
    24  O    6.050262   4.715661   3.722599   4.473251   5.844121
    25  H    4.467905   3.186548   2.090018   2.906875   4.246871
                    6          7          8          9         10
     6  C    0.000000
     7  H    2.168966   0.000000
     8  H    3.430807   5.018686   0.000000
     9  H    2.157064   4.315420   2.483549   0.000000
    10  H    1.090727   2.498265   4.323185   2.481128   0.000000
    11  N    4.173302   4.498217   2.800808   4.628936   5.263614
    12  S    4.072087   3.041939   4.786463   5.593609   4.970054
    13  C    6.176344   5.753945   5.189789   6.994954   7.225891
    14  C    7.067717   6.251869   6.501714   8.140742   8.059937
    15  C    6.931632   6.889733   5.172014   7.334340   8.017346
    16  C    8.448421   7.667437   7.597238   9.411078   9.455662
    17  H    6.869458   5.743940   6.849659   8.200978   7.786573
    18  C    8.345224   8.189726   6.532462   8.748457   9.427944
    19  C    9.007019   8.522835   7.612415   9.677960  10.062188
    20  H    9.197200   8.208566   8.596098  10.304840  10.164054
    21  H    8.998422   9.040063   6.826559   9.171935  10.088767
    22  H   10.096773   9.593165   8.620146  10.735998  11.152596
    23  C    4.752544   4.428698   4.114599   5.669497   5.801333
    24  O    6.516549   6.870472   4.237134   6.569585   7.604674
    25  H    4.879844   5.350499   2.887004   5.041542   5.967812
                   11         12         13         14         15
    11  N    0.000000
    12  S    2.614946   0.000000
    13  C    2.418592   2.822020   0.000000
    14  C    3.702188   3.212426   1.384482   0.000000
    15  C    2.785528   4.145650   1.484203   2.482979   0.000000
    16  C    4.846556   4.629341   2.429367   1.417267   2.837681
    17  H    4.090182   2.816715   2.156877   1.092599   3.484750
    18  C    4.211736   5.308285   2.487469   2.830372   1.427067
    19  C    5.051668   5.503400   2.838261   2.451883   2.461812
    20  H    5.814556   5.226929   3.406352   2.165397   3.929097
    21  H    4.825154   6.254727   3.466078   3.921008   2.150348
    22  H    6.117347   6.563614   3.928499   3.436300   3.448133
    23  C    1.360031   1.746836   1.424710   2.474995   2.475417
    24  O    2.407037   4.498463   2.379595   3.622673   1.263636
    25  H    0.862420   3.382472   2.433868   3.811696   2.307678
                   16         17         18         19         20
    16  C    0.000000
    17  H    2.170222   0.000000
    18  C    2.420150   3.922427   0.000000
    19  C    1.397003   3.429821   1.397189   0.000000
    20  H    1.091421   2.474424   3.409402   2.160710   0.000000
    21  H    3.422349   5.013294   1.091152   2.181902   4.329342
    22  H    2.158237   4.321013   2.160936   1.090444   2.486174
    23  C    3.760634   2.739356   3.765407   4.261431   4.636229
    24  O    4.101077   4.528358   2.364170   3.625341   5.192449
    25  H    4.763664   4.403781   3.709081   4.727775   5.800711
                   21         22         23         24         25
    21  H    0.000000
    22  H    2.523226   0.000000
    23  C    4.621919   5.351868   0.000000
    24  O    2.603242   4.518645   2.755841   0.000000
    25  H    4.178741   5.748181   1.855659   1.636864   0.000000
 Symmetry turned off by external request.
 Stoichiometry    C13H9NOS
 Framework group  C1[X(C13H9NOS)]
 Deg. of freedom    69
 Full point group                 C1      NOp   1
 Rotational constants (GHZ):           1.3970262           0.2860308           0.2374207
 Leave Link  202 at Tue Oct 27 22:41:12 2020, MaxMem=  7784628224 cpu:               0.2 elap:               0.0
 (Enter /gpfs/loomis/apps/avx/software/Gaussian/16-C.01_AVX/g16/l301.exe)
 Standard basis: CC-pVDZ (5D, 7F)
 Ernie: Thresh=  0.10000D-02 Tol=  0.10000D-05 Strict=F.
 Ernie:  40 primitive shells out of 425 were deleted.
   273 basis functions,   629 primitive gaussians,   289 cartesian basis functions
    59 alpha electrons       59 beta electrons
       nuclear repulsion energy      1100.9760269197 Hartrees.
 IExCor= 4639 DFT=T Ex+Corr=wB97XD ExCW=0 ScaHFX=  1.000000
 ScaDFX=  1.000000  1.000000  1.000000  1.000000 ScalE2=  1.000000  1.000000
 IRadAn=      5 IRanWt=     -1 IRanGd=            0 ICorTp=0 IEmpDi=121
 HFx  wShort=  0.000000 wLong=  0.200000 cFull=  0.222036 cShort=  0.000000 cLong=  0.777964
 DFx  wShort=  0.000000 wLong=  0.200000 cFull=  0.000000 cShort=  0.000000 cLong=  1.000000
 NAtoms=   25 NActive=   25 NUniq=   25 SFac= 1.00D+00 NAtFMM=   60 NAOKFM=F Big=F
 Integral buffers will be    131072 words long.
 Raffenetti 2 integral format.
 Two-electron integral symmetry is turned off.
 R6Disp:  Grimme-D2 Dispersion energy=       -0.0140380301 Hartrees.
 Nuclear repulsion after empirical dispersion term =     1100.9619888896 Hartrees.
 ------------------------------------------------------------------------------
 Polarizable Continuum Model (PCM)
 =================================
 Model                : PCM.
 Atomic radii         : UFF (Universal Force Field).
 Polarization charges : Total charges.
 Charge compensation  : None.
 Solution method      : On-the-fly selection.
 Cavity type          : Scaled VdW (van der Waals Surface) (Alpha=1.100).
 Cavity algorithm     : GePol (No added spheres)
                        Default sphere list used, NSphG=   25.
                        Lebedev-Laikov grids with approx.  5.0 points / Ang**2.
                        Smoothing algorithm: York/Karplus (Gamma=1.0000).
                        Polarization charges: spherical gaussians, with
                                              point-specific exponents (IZeta= 3).
                        Self-potential: point-specific (ISelfS= 7).
                        Self-field    : sphere-specific E.n sum rule (ISelfD= 2).
 1st derivatives      : Analytical E(r).r(x)/FMM algorithm (CHGder, D1EAlg=3).
                        Cavity 1st derivative terms included.
 Solvent              : CarbonTetraChloride, Eps=   2.228000 Eps(inf)=   2.131892
 ------------------------------------------------------------------------------
 GePol: Number of generator spheres                  =      25
 GePol: Total number of spheres                      =      25
 GePol: Number of exposed spheres                    =      25 (100.00%)
 GePol: Number of points                             =    2187
 GePol: Average weight of points                     =       0.12
 GePol: Minimum weight of points                     =   0.17D-09
 GePol: Maximum weight of points                     =    0.20577
 GePol: Number of points with low weight             =     141
 GePol: Fraction of low-weight points (<1% of avg)   =       6.45%
 GePol: Cavity surface area                          =    272.518 Ang**2
 GePol: Cavity volume                                =    291.955 Ang**3
 Leave Link  301 at Tue Oct 27 22:41:12 2020, MaxMem=  7784628224 cpu:               0.8 elap:               0.1
 (Enter /gpfs/loomis/apps/avx/software/Gaussian/16-C.01_AVX/g16/l302.exe)
 NPDir=0 NMtPBC=     1 NCelOv=     1 NCel=       1 NClECP=     1 NCelD=      1
         NCelK=      1 NCelE2=     1 NClLst=     1 CellRange=     0.0.
 One-electron integrals computed using PRISM.
 NBasis=   273 RedAO= T EigKep=  3.03D-04  NBF=   273
 NBsUse=   273 1.00D-06 EigRej= -1.00D+00 NBFU=   273
 Precomputing XC quadrature grid using
 IXCGrd= 4 IRadAn=           5 IRanWt=          -1 IRanGd=           0 AccXCQ= 0.00D+00.
 Generated NRdTot=       0 NPtTot=           0 NUsed=           0 NTot=          32
 NSgBfM=   288   288   288   288   288 MxSgAt=    25 MxSgA2=    25.
 Leave Link  302 at Tue Oct 27 22:41:12 2020, MaxMem=  7784628224 cpu:               2.7 elap:               0.3
 (Enter /gpfs/loomis/apps/avx/software/Gaussian/16-C.01_AVX/g16/l303.exe)
 DipDrv:  MaxL=1.
 Leave Link  303 at Tue Oct 27 22:41:13 2020, MaxMem=  7784628224 cpu:               0.6 elap:               0.1
 (Enter /gpfs/loomis/apps/avx/software/Gaussian/16-C.01_AVX/g16/l401.exe)
 ExpMin= 1.22D-01 ExpMax= 1.11D+05 ExpMxC= 1.07D+03 IAcc=3 IRadAn=         5 AccDes= 0.00D+00
 Harris functional with IExCor= 4639 and IRadAn=       5 diagonalized for initial guess.
 HarFok:  IExCor= 4639 AccDes= 0.00D+00 IRadAn=         5 IDoV= 1 UseB2=F ITyADJ=14
 ICtDFT=  3500011 ScaDFX=  1.000000  1.000000  1.000000  1.000000
 FoFCou: FMM=F IPFlag=           0 FMFlag=      100000 FMFlg1=           0
         NFxFlg=           0 DoJE=T BraDBF=F KetDBF=T FulRan=T
         wScrn=  0.000000 ICntrl=       500 IOpCl=  0 I1Cent=   200000004 NGrid=           0
         NMat0=    1 NMatS0=      1 NMatT0=    0 NMatD0=    1 NMtDS0=    0 NMtDT0=    0
 Symmetry not used in FoFCou.
 Harris En= -994.409787768806    
 JPrj=0 DoOrth=F DoCkMO=F.
 Leave Link  401 at Tue Oct 27 22:41:14 2020, MaxMem=  7784628224 cpu:              13.9 elap:               1.4
 (Enter /gpfs/loomis/apps/avx/software/Gaussian/16-C.01_AVX/g16/l502.exe)
 Two-electron integral symmetry not used.
 Closed shell SCF:
 Using DIIS extrapolation, IDIIS=  1040.
 NGot=  7784628224 LenX=  7784455381 LenY=  7784371419
 Requested convergence on RMS density matrix=1.00D-08 within 128 cycles.
 Requested convergence on MAX density matrix=1.00D-06.
 Requested convergence on             energy=1.00D-06.
 No special actions if energy rises.
 Fock matrices will be formed incrementally for  20 cycles.

 Cycle   1  Pass 1  IDiag  1:
 FoFJK:  IHMeth= 1 ICntrl=       0 DoSepK=T KAlg= 0 I1Cent=           0 FoldK=F
 IRaf=         1 NMat=       1 IRICut=       1 DoRegI=T DoRafI=F ISym2E= 0 IDoP0=0 IntGTp=1.
 FoFCou: FMM=F IPFlag=           0 FMFlag=      100000 FMFlg1=           0
         NFxFlg=           0 DoJE=T BraDBF=F KetDBF=F FulRan=T
         wScrn=  0.000000 ICntrl=       500 IOpCl=  0 I1Cent=           0 NGrid=           0
         NMat0=    1 NMatS0=      1 NMatT0=    0 NMatD0=    1 NMtDS0=    0 NMtDT0=    0
 Symmetry not used in FoFCou.
 Inv3:  Mode=1 IEnd=    14348907.
 Iteration    1 A*A^-1 deviation from unit magnitude is 3.55D-15 for   1152.
 Iteration    1 A*A^-1 deviation from orthogonality  is 2.19D-15 for   1795    261.
 Iteration    1 A^-1*A deviation from unit magnitude is 3.55D-15 for   1152.
 Iteration    1 A^-1*A deviation from orthogonality  is 1.50D-15 for   2159   2021.
 E= -1028.52131899958    
 DIIS: error= 3.92D-02 at cycle   1 NSaved=   1.
 NSaved= 1 IEnMin= 1 EnMin= -1028.52131899958     IErMin= 1 ErrMin= 3.92D-02
 ErrMax= 3.92D-02  0.00D+00 EMaxC= 1.00D-01 BMatC= 3.93D-01 BMatP= 3.93D-01
 IDIUse=3 WtCom= 6.08D-01 WtEn= 3.92D-01
 Coeff-Com:  0.100D+01
 Coeff-En:   0.100D+01
 Coeff:      0.100D+01
 Gap=     0.310 Goal=   None    Shift=    0.000
 GapD=    0.310 DampG=1.000 DampE=0.500 DampFc=0.5000 IDamp=-1.
 Damping current iteration by 5.00D-01
 RMSDP=3.65D-03 MaxDP=2.45D-01              OVMax= 2.08D-01

 Cycle   2  Pass 1  IDiag  1:
 RMSU=  1.82D-03    CP:  9.95D-01
 E= -1028.64206837452     Delta-E=       -0.120749374934 Rises=F Damp=T
 DIIS: error= 1.22D-02 at cycle   2 NSaved=   2.
 NSaved= 2 IEnMin= 2 EnMin= -1028.64206837452     IErMin= 2 ErrMin= 1.22D-02
 ErrMax= 1.22D-02  0.00D+00 EMaxC= 1.00D-01 BMatC= 5.84D-02 BMatP= 3.93D-01
 IDIUse=3 WtCom= 8.78D-01 WtEn= 1.22D-01
 Coeff-Com: -0.285D+00 0.128D+01
 Coeff-En:   0.000D+00 0.100D+01
 Coeff:     -0.250D+00 0.125D+01
 Gap=     0.279 Goal=   None    Shift=    0.000
 RMSDP=1.17D-03 MaxDP=2.64D-02 DE=-1.21D-01 OVMax= 1.46D-01

 Cycle   3  Pass 1  IDiag  1:
 RMSU=  1.13D-03    CP:  9.93D-01  1.16D+00
 E= -1028.75126985358     Delta-E=       -0.109201479065 Rises=F Damp=F
 DIIS: error= 6.60D-03 at cycle   3 NSaved=   3.
 NSaved= 3 IEnMin= 3 EnMin= -1028.75126985358     IErMin= 3 ErrMin= 6.60D-03
 ErrMax= 6.60D-03  0.00D+00 EMaxC= 1.00D-01 BMatC= 1.55D-02 BMatP= 5.84D-02
 IDIUse=3 WtCom= 9.34D-01 WtEn= 6.60D-02
 Coeff-Com: -0.204D+00 0.500D+00 0.704D+00
 Coeff-En:   0.000D+00 0.000D+00 0.100D+01
 Coeff:     -0.191D+00 0.467D+00 0.724D+00
 Gap=     0.237 Goal=   None    Shift=    0.000
 RMSDP=5.57D-04 MaxDP=1.84D-02 DE=-1.09D-01 OVMax= 4.67D-02

 Cycle   4  Pass 1  IDiag  1:
 RMSU=  4.40D-04    CP:  9.91D-01  1.32D+00  8.41D-01
 E= -1028.76652621962     Delta-E=       -0.015256366040 Rises=F Damp=F
 DIIS: error= 2.18D-03 at cycle   4 NSaved=   4.
 NSaved= 4 IEnMin= 4 EnMin= -1028.76652621962     IErMin= 4 ErrMin= 2.18D-03
 ErrMax= 2.18D-03  0.00D+00 EMaxC= 1.00D-01 BMatC= 1.91D-03 BMatP= 1.55D-02
 IDIUse=3 WtCom= 9.78D-01 WtEn= 2.18D-02
 Coeff-Com: -0.718D-01 0.142D+00 0.341D+00 0.589D+00
 Coeff-En:   0.000D+00 0.000D+00 0.000D+00 0.100D+01
 Coeff:     -0.702D-01 0.139D+00 0.333D+00 0.598D+00
 Gap=     0.238 Goal=   None    Shift=    0.000
 RMSDP=1.76D-04 MaxDP=9.86D-03 DE=-1.53D-02 OVMax= 1.38D-02

 Cycle   5  Pass 1  IDiag  1:
 RMSU=  1.12D-04    CP:  9.91D-01  1.33D+00  9.16D-01  7.65D-01
 E= -1028.76861535164     Delta-E=       -0.002089132019 Rises=F Damp=F
 DIIS: error= 5.45D-04 at cycle   5 NSaved=   5.
 NSaved= 5 IEnMin= 5 EnMin= -1028.76861535164     IErMin= 5 ErrMin= 5.45D-04
 ErrMax= 5.45D-04  0.00D+00 EMaxC= 1.00D-01 BMatC= 6.10D-05 BMatP= 1.91D-03
 IDIUse=3 WtCom= 9.95D-01 WtEn= 5.45D-03
 Coeff-Com: -0.421D-03-0.559D-02 0.256D-01 0.154D+00 0.827D+00
 Coeff-En:   0.000D+00 0.000D+00 0.000D+00 0.000D+00 0.100D+01
 Coeff:     -0.418D-03-0.556D-02 0.254D-01 0.153D+00 0.828D+00
 Gap=     0.239 Goal=   None    Shift=    0.000
 RMSDP=6.05D-05 MaxDP=1.96D-03 DE=-2.09D-03 OVMax= 6.27D-03

 Cycle   6  Pass 1  IDiag  1:
 RMSU=  3.88D-05    CP:  9.91D-01  1.33D+00  9.32D-01  8.55D-01  1.12D+00
 E= -1028.76875892674     Delta-E=       -0.000143575101 Rises=F Damp=F
 DIIS: error= 2.71D-04 at cycle   6 NSaved=   6.
 NSaved= 6 IEnMin= 6 EnMin= -1028.76875892674     IErMin= 6 ErrMin= 2.71D-04
 ErrMax= 2.71D-04  0.00D+00 EMaxC= 1.00D-01 BMatC= 1.07D-05 BMatP= 6.10D-05
 IDIUse=3 WtCom= 9.97D-01 WtEn= 2.71D-03
 Coeff-Com:  0.176D-01-0.357D-01-0.689D-01-0.864D-01 0.190D+00 0.984D+00
 Coeff-En:   0.000D+00 0.000D+00 0.000D+00 0.000D+00 0.000D+00 0.100D+01
 Coeff:      0.176D-01-0.356D-01-0.687D-01-0.861D-01 0.189D+00 0.984D+00
 Gap=     0.240 Goal=   None    Shift=    0.000
 RMSDP=3.98D-05 MaxDP=1.87D-03 DE=-1.44D-04 OVMax= 5.04D-03

 Cycle   7  Pass 1  IDiag  1:
 RMSU=  1.92D-05    CP:  9.91D-01  1.33D+00  9.45D-01  8.92D-01  1.33D+00
                    CP:  1.34D+00
 E= -1028.76879972082     Delta-E=       -0.000040794074 Rises=F Damp=F
 DIIS: error= 8.22D-05 at cycle   7 NSaved=   7.
 NSaved= 7 IEnMin= 7 EnMin= -1028.76879972082     IErMin= 7 ErrMin= 8.22D-05
 ErrMax= 8.22D-05  0.00D+00 EMaxC= 1.00D-01 BMatC= 2.64D-06 BMatP= 1.07D-05
 IDIUse=1 WtCom= 1.00D+00 WtEn= 0.00D+00
 Coeff-Com:  0.704D-02-0.134D-01-0.286D-01-0.528D-01-0.233D-01 0.426D+00
 Coeff-Com:  0.686D+00
 Coeff:      0.704D-02-0.134D-01-0.286D-01-0.528D-01-0.233D-01 0.426D+00
 Coeff:      0.686D+00
 Gap=     0.240 Goal=   None    Shift=    0.000
 RMSDP=1.30D-05 MaxDP=4.69D-04 DE=-4.08D-05 OVMax= 1.38D-03

 Cycle   8  Pass 1  IDiag  1:
 RMSU=  8.06D-06    CP:  9.91D-01  1.33D+00  9.46D-01  8.97D-01  1.37D+00
                    CP:  1.56D+00  1.11D+00
 E= -1028.76880556276     Delta-E=       -0.000005841948 Rises=F Damp=F
 DIIS: error= 6.25D-05 at cycle   8 NSaved=   8.
 NSaved= 8 IEnMin= 8 EnMin= -1028.76880556276     IErMin= 8 ErrMin= 6.25D-05
 ErrMax= 6.25D-05  0.00D+00 EMaxC= 1.00D-01 BMatC= 3.90D-07 BMatP= 2.64D-06
 IDIUse=1 WtCom= 1.00D+00 WtEn= 0.00D+00
 Coeff-Com: -0.144D-02 0.316D-02 0.662D-02 0.170D-02-0.437D-01-0.815D-01
 Coeff-Com:  0.191D+00 0.924D+00
 Coeff:     -0.144D-02 0.316D-02 0.662D-02 0.170D-02-0.437D-01-0.815D-01
 Coeff:      0.191D+00 0.924D+00
 Gap=     0.240 Goal=   None    Shift=    0.000
 RMSDP=7.82D-06 MaxDP=2.21D-04 DE=-5.84D-06 OVMax= 1.33D-03

 Cycle   9  Pass 1  IDiag  1:
 RMSU=  3.29D-06    CP:  9.91D-01  1.33D+00  9.46D-01  8.97D-01  1.39D+00
                    CP:  1.67D+00  1.38D+00  1.17D+00
 E= -1028.76880732110     Delta-E=       -0.000001758340 Rises=F Damp=F
 DIIS: error= 1.81D-05 at cycle   9 NSaved=   9.
 NSaved= 9 IEnMin= 9 EnMin= -1028.76880732110     IErMin= 9 ErrMin= 1.81D-05
 ErrMax= 1.81D-05  0.00D+00 EMaxC= 1.00D-01 BMatC= 1.33D-07 BMatP= 3.90D-07
 IDIUse=1 WtCom= 1.00D+00 WtEn= 0.00D+00
 Coeff-Com: -0.147D-02 0.291D-02 0.677D-02 0.815D-02-0.136D-01-0.990D-01
 Coeff-Com: -0.732D-01 0.375D+00 0.795D+00
 Coeff:     -0.147D-02 0.291D-02 0.677D-02 0.815D-02-0.136D-01-0.990D-01
 Coeff:     -0.732D-01 0.375D+00 0.795D+00
 Gap=     0.240 Goal=   None    Shift=    0.000
 RMSDP=4.08D-06 MaxDP=1.26D-04 DE=-1.76D-06 OVMax= 5.92D-04

 Cycle  10  Pass 1  IDiag  1:
 RMSU=  1.58D-06    CP:  9.91D-01  1.33D+00  9.46D-01  8.97D-01  1.40D+00
                    CP:  1.73D+00  1.47D+00  1.44D+00  1.19D+00
 E= -1028.76880773722     Delta-E=       -0.000000416114 Rises=F Damp=F
 DIIS: error= 1.06D-05 at cycle  10 NSaved=  10.
 NSaved=10 IEnMin=10 EnMin= -1028.76880773722     IErMin=10 ErrMin= 1.06D-05
 ErrMax= 1.06D-05  0.00D+00 EMaxC= 1.00D-01 BMatC= 2.21D-08 BMatP= 1.33D-07
 IDIUse=1 WtCom= 1.00D+00 WtEn= 0.00D+00
 Coeff-Com:  0.508D-04-0.176D-03 0.169D-03 0.148D-02 0.764D-02-0.800D-02
 Coeff-Com: -0.897D-01-0.775D-01 0.280D+00 0.886D+00
 Coeff:      0.508D-04-0.176D-03 0.169D-03 0.148D-02 0.764D-02-0.800D-02
 Coeff:     -0.897D-01-0.775D-01 0.280D+00 0.886D+00
 Gap=     0.241 Goal=   None    Shift=    0.000
 RMSDP=2.00D-06 MaxDP=5.09D-05 DE=-4.16D-07 OVMax= 3.52D-04

 Cycle  11  Pass 1  IDiag  1:
 RMSU=  6.10D-07    CP:  9.91D-01  1.33D+00  9.46D-01  8.97D-01  1.40D+00
                    CP:  1.75D+00  1.51D+00  1.55D+00  1.50D+00  1.20D+00
 E= -1028.76880783285     Delta-E=       -0.000000095629 Rises=F Damp=F
 DIIS: error= 4.20D-06 at cycle  11 NSaved=  11.
 NSaved=11 IEnMin=11 EnMin= -1028.76880783285     IErMin=11 ErrMin= 4.20D-06
 ErrMax= 4.20D-06  0.00D+00 EMaxC= 1.00D-01 BMatC= 4.42D-09 BMatP= 2.21D-08
 IDIUse=1 WtCom= 1.00D+00 WtEn= 0.00D+00
 Coeff-Com:  0.293D-03-0.604D-03-0.108D-02-0.100D-02 0.537D-02 0.146D-01
 Coeff-Com: -0.236D-01-0.788D-01-0.528D-01 0.288D+00 0.849D+00
 Coeff:      0.293D-03-0.604D-03-0.108D-02-0.100D-02 0.537D-02 0.146D-01
 Coeff:     -0.236D-01-0.788D-01-0.528D-01 0.288D+00 0.849D+00
 Gap=     0.241 Goal=   None    Shift=    0.000
 RMSDP=7.76D-07 MaxDP=1.94D-05 DE=-9.56D-08 OVMax= 1.25D-04

 Cycle  12  Pass 1  IDiag  1:
 RMSU=  2.43D-07    CP:  9.91D-01  1.33D+00  9.46D-01  8.98D-01  1.40D+00
                    CP:  1.76D+00  1.52D+00  1.60D+00  1.61D+00  1.44D+00
                    CP:  1.18D+00
 E= -1028.76880784686     Delta-E=       -0.000000014010 Rises=F Damp=F
 DIIS: error= 1.41D-06 at cycle  12 NSaved=  12.
 NSaved=12 IEnMin=12 EnMin= -1028.76880784686     IErMin=12 ErrMin= 1.41D-06
 ErrMax= 1.41D-06  0.00D+00 EMaxC= 1.00D-01 BMatC= 6.32D-10 BMatP= 4.42D-09
 IDIUse=1 WtCom= 1.00D+00 WtEn= 0.00D+00
 Coeff-Com:  0.121D-03-0.234D-03-0.498D-03-0.845D-03 0.809D-03 0.815D-02
 Coeff-Com:  0.667D-02-0.129D-01-0.795D-01-0.614D-01 0.284D+00 0.855D+00
 Coeff:      0.121D-03-0.234D-03-0.498D-03-0.845D-03 0.809D-03 0.815D-02
 Coeff:      0.667D-02-0.129D-01-0.795D-01-0.614D-01 0.284D+00 0.855D+00
 Gap=     0.241 Goal=   None    Shift=    0.000
 RMSDP=3.18D-07 MaxDP=7.95D-06 DE=-1.40D-08 OVMax= 5.08D-05

 Cycle  13  Pass 1  IDiag  1:
 RMSU=  9.07D-08    CP:  9.91D-01  1.33D+00  9.47D-01  8.98D-01  1.40D+00
                    CP:  1.76D+00  1.53D+00  1.61D+00  1.66D+00  1.54D+00
                    CP:  1.40D+00  1.10D+00
 E= -1028.76880784906     Delta-E=       -0.000000002203 Rises=F Damp=F
 DIIS: error= 4.20D-07 at cycle  13 NSaved=  13.
 NSaved=13 IEnMin=13 EnMin= -1028.76880784906     IErMin=13 ErrMin= 4.20D-07
 ErrMax= 4.20D-07  0.00D+00 EMaxC= 1.00D-01 BMatC= 5.82D-11 BMatP= 6.32D-10
 IDIUse=1 WtCom= 1.00D+00 WtEn= 0.00D+00
 Coeff-Com: -0.162D-04 0.349D-04 0.579D-04-0.246D-04-0.339D-03-0.729D-04
 Coeff-Com:  0.294D-02 0.728D-02-0.792D-02-0.417D-01-0.709D-01 0.156D+00
 Coeff-Com:  0.954D+00
 Coeff:     -0.162D-04 0.349D-04 0.579D-04-0.246D-04-0.339D-03-0.729D-04
 Coeff:      0.294D-02 0.728D-02-0.792D-02-0.417D-01-0.709D-01 0.156D+00
 Coeff:      0.954D+00
 Gap=     0.241 Goal=   None    Shift=    0.000
 RMSDP=9.46D-08 MaxDP=1.99D-06 DE=-2.20D-09 OVMax= 1.23D-05

 Cycle  14  Pass 1  IDiag  1:
 RMSU=  3.26D-08    CP:  9.91D-01  1.33D+00  9.47D-01  8.98D-01  1.40D+00
                    CP:  1.76D+00  1.53D+00  1.62D+00  1.67D+00  1.57D+00
                    CP:  1.46D+00  1.26D+00  1.20D+00
 E= -1028.76880784924     Delta-E=       -0.000000000182 Rises=F Damp=F
 DIIS: error= 1.35D-07 at cycle  14 NSaved=  14.
 NSaved=14 IEnMin=14 EnMin= -1028.76880784924     IErMin=14 ErrMin= 1.35D-07
 ErrMax= 1.35D-07  0.00D+00 EMaxC= 1.00D-01 BMatC= 5.37D-12 BMatP= 5.82D-11
 IDIUse=1 WtCom= 1.00D+00 WtEn= 0.00D+00
 Coeff-Com: -0.117D-04 0.233D-04 0.482D-04 0.535D-04-0.137D-03-0.613D-03
 Coeff-Com: -0.627D-04 0.288D-02 0.480D-02-0.180D-02-0.366D-01-0.357D-01
 Coeff-Com:  0.236D+00 0.831D+00
 Coeff:     -0.117D-04 0.233D-04 0.482D-04 0.535D-04-0.137D-03-0.613D-03
 Coeff:     -0.627D-04 0.288D-02 0.480D-02-0.180D-02-0.366D-01-0.357D-01
 Coeff:      0.236D+00 0.831D+00
 Gap=     0.241 Goal=   None    Shift=    0.000
 RMSDP=1.77D-08 MaxDP=3.79D-07 DE=-1.82D-10 OVMax= 2.10D-06

 Cycle  15  Pass 1  IDiag  1:
 RMSU=  1.11D-08    CP:  9.91D-01  1.33D+00  9.47D-01  8.98D-01  1.40D+00
                    CP:  1.76D+00  1.53D+00  1.62D+00  1.67D+00  1.57D+00
                    CP:  1.46D+00  1.28D+00  1.31D+00  1.14D+00
 E= -1028.76880784926     Delta-E=       -0.000000000017 Rises=F Damp=F
 DIIS: error= 7.94D-08 at cycle  15 NSaved=  15.
 NSaved=15 IEnMin=15 EnMin= -1028.76880784926     IErMin=15 ErrMin= 7.94D-08
 ErrMax= 7.94D-08  0.00D+00 EMaxC= 1.00D-01 BMatC= 8.60D-13 BMatP= 5.37D-12
 IDIUse=1 WtCom= 1.00D+00 WtEn= 0.00D+00
 Coeff-Com: -0.229D-05 0.410D-05 0.110D-04 0.298D-04-0.282D-05-0.268D-03
 Coeff-Com: -0.564D-03-0.203D-03 0.296D-02 0.639D-02-0.122D-02-0.461D-01
 Coeff-Com: -0.830D-01 0.226D+00 0.896D+00
 Coeff:     -0.229D-05 0.410D-05 0.110D-04 0.298D-04-0.282D-05-0.268D-03
 Coeff:     -0.564D-03-0.203D-03 0.296D-02 0.639D-02-0.122D-02-0.461D-01
 Coeff:     -0.830D-01 0.226D+00 0.896D+00
 Gap=     0.241 Goal=   None    Shift=    0.000
 RMSDP=1.13D-08 MaxDP=3.19D-07 DE=-1.71D-11 OVMax= 1.59D-06

 Cycle  16  Pass 1  IDiag  1:
 RMSU=  4.35D-09    CP:  9.91D-01  1.33D+00  9.47D-01  8.98D-01  1.40D+00
                    CP:  1.76D+00  1.53D+00  1.62D+00  1.67D+00  1.57D+00
                    CP:  1.47D+00  1.30D+00  1.37D+00  1.32D+00  1.14D+00
 E= -1028.76880784925     Delta-E=        0.000000000005 Rises=F Damp=F
 DIIS: error= 2.59D-08 at cycle  16 NSaved=  16.
 NSaved=16 IEnMin=15 EnMin= -1028.76880784926     IErMin=16 ErrMin= 2.59D-08
 ErrMax= 2.59D-08  0.00D+00 EMaxC= 1.00D-01 BMatC= 1.20D-13 BMatP= 8.60D-13
 IDIUse=1 WtCom= 1.00D+00 WtEn= 0.00D+00
 Coeff-Com:  0.801D-06-0.167D-05-0.286D-05 0.112D-06 0.109D-04 0.765D-05
 Coeff-Com: -0.109D-03-0.306D-03 0.963D-04 0.148D-02 0.377D-02-0.658D-02
 Coeff-Com: -0.357D-01-0.665D-01 0.214D+00 0.890D+00
 Coeff:      0.801D-06-0.167D-05-0.286D-05 0.112D-06 0.109D-04 0.765D-05
 Coeff:     -0.109D-03-0.306D-03 0.963D-04 0.148D-02 0.377D-02-0.658D-02
 Coeff:     -0.357D-01-0.665D-01 0.214D+00 0.890D+00
 Gap=     0.241 Goal=   None    Shift=    0.000
 RMSDP=3.09D-09 MaxDP=1.13D-07 DE= 4.77D-12 OVMax= 3.55D-07

 Error on total polarization charges =  0.00864
 SCF Done:  E(RwB97XD) =  -1028.76880785     A.U. after   16 cycles
            NFock= 16  Conv=0.31D-08     -V/T= 2.0045
 KE= 1.024153482217D+03 PE=-4.613991332789D+03 EE= 1.460107053834D+03
 Leave Link  502 at Tue Oct 27 22:42:43 2020, MaxMem=  7784628224 cpu:             878.9 elap:              88.6
 (Enter /gpfs/loomis/apps/avx/software/Gaussian/16-C.01_AVX/g16/l601.exe)
 Copying SCF densities to generalized density rwf, IOpCl= 0 IROHF=0.

 **********************************************************************

            Population analysis using the SCF Density.

 **********************************************************************

 Alpha  occ. eigenvalues --  -89.10565 -19.20710 -14.51070 -10.41645 -10.37813
 Alpha  occ. eigenvalues --  -10.36396 -10.35724 -10.33416 -10.32979 -10.32572
 Alpha  occ. eigenvalues --  -10.32423 -10.31483 -10.30811 -10.30754 -10.29274
 Alpha  occ. eigenvalues --  -10.28439  -8.12580  -6.07450  -6.07088  -6.06595
 Alpha  occ. eigenvalues --   -1.14094  -1.09215  -0.98818  -0.95783  -0.93479
 Alpha  occ. eigenvalues --   -0.89270  -0.87029  -0.83827  -0.81295  -0.76659
 Alpha  occ. eigenvalues --   -0.74604  -0.72216  -0.69135  -0.67898  -0.65713
 Alpha  occ. eigenvalues --   -0.60885  -0.59752  -0.56773  -0.56123  -0.55986
 Alpha  occ. eigenvalues --   -0.55025  -0.53798  -0.53116  -0.50589  -0.49158
 Alpha  occ. eigenvalues --   -0.48854  -0.48697  -0.46966  -0.45449  -0.44886
 Alpha  occ. eigenvalues --   -0.44219  -0.43101  -0.42407  -0.40157  -0.36802
 Alpha  occ. eigenvalues --   -0.33711  -0.31607  -0.31543  -0.25975
 Alpha virt. eigenvalues --   -0.01922   0.03662   0.05562   0.06239   0.09330
 Alpha virt. eigenvalues --    0.10595   0.13822   0.14694   0.16445   0.17430
 Alpha virt. eigenvalues --    0.18884   0.20198   0.21210   0.21299   0.23132
 Alpha virt. eigenvalues --    0.23597   0.24210   0.25659   0.28545   0.29757
 Alpha virt. eigenvalues --    0.30929   0.33882   0.35604   0.35811   0.36628
 Alpha virt. eigenvalues --    0.38148   0.39410   0.39924   0.41795   0.44442
 Alpha virt. eigenvalues --    0.46687   0.48455   0.50921   0.51109   0.51405
 Alpha virt. eigenvalues --    0.52837   0.52868   0.53011   0.54381   0.55483
 Alpha virt. eigenvalues --    0.56324   0.56462   0.56472   0.56876   0.57788
 Alpha virt. eigenvalues --    0.58071   0.58846   0.59508   0.59580   0.60254
 Alpha virt. eigenvalues --    0.60887   0.61504   0.61845   0.62714   0.62951
 Alpha virt. eigenvalues --    0.64758   0.66589   0.67072   0.68673   0.69118
 Alpha virt. eigenvalues --    0.70345   0.70820   0.72013   0.72356   0.73025
 Alpha virt. eigenvalues --    0.74336   0.75207   0.76052   0.76639   0.78361
 Alpha virt. eigenvalues --    0.78849   0.79640   0.81369   0.81374   0.83390
 Alpha virt. eigenvalues --    0.83888   0.88424   0.89275   0.91551   0.92558
 Alpha virt. eigenvalues --    0.93947   0.94448   0.95937   0.97086   0.97413
 Alpha virt. eigenvalues --    0.98630   0.99287   1.00329   1.00790   1.01291
 Alpha virt. eigenvalues --    1.02687   1.05184   1.05780   1.06178   1.07321
 Alpha virt. eigenvalues --    1.08330   1.09184   1.10170   1.11070   1.11257
 Alpha virt. eigenvalues --    1.12580   1.13191   1.13349   1.14701   1.15175
 Alpha virt. eigenvalues --    1.17067   1.19177   1.20159   1.23198   1.24097
 Alpha virt. eigenvalues --    1.26621   1.27474   1.32101   1.33531   1.34068
 Alpha virt. eigenvalues --    1.34543   1.36935   1.38266   1.40919   1.45577
 Alpha virt. eigenvalues --    1.49175   1.49368   1.53227   1.54753   1.54940
 Alpha virt. eigenvalues --    1.56451   1.57288   1.57532   1.57874   1.59609
 Alpha virt. eigenvalues --    1.60404   1.61960   1.62878   1.65425   1.67670
 Alpha virt. eigenvalues --    1.68584   1.70062   1.71399   1.71623   1.71985
 Alpha virt. eigenvalues --    1.72035   1.73514   1.73527   1.74378   1.75013
 Alpha virt. eigenvalues --    1.78518   1.79106   1.80469   1.81895   1.81935
 Alpha virt. eigenvalues --    1.83138   1.84748   1.84750   1.85401   1.86379
 Alpha virt. eigenvalues --    1.86956   1.89648   1.91347   1.91812   1.92251
 Alpha virt. eigenvalues --    1.93807   1.94141   1.95798   1.96222   1.98198
 Alpha virt. eigenvalues --    2.00268   2.00421   2.01773   2.04354   2.04768
 Alpha virt. eigenvalues --    2.06988   2.07254   2.10117   2.10288   2.14630
 Alpha virt. eigenvalues --    2.17471   2.17521   2.22300   2.24033   2.25572
 Alpha virt. eigenvalues --    2.27224   2.29641   2.34420   2.38095   2.39626
 Alpha virt. eigenvalues --    2.41187   2.42656   2.46612   2.48766   2.50230
 Alpha virt. eigenvalues --    2.52325   2.54586   2.57793   2.61207   2.63258
 Alpha virt. eigenvalues --    2.66000   2.70139   2.74053   2.76358   2.79869
 Alpha virt. eigenvalues --    2.81930   2.82401   2.84393   2.87696   2.90950
 Alpha virt. eigenvalues --    2.93085   3.02172   3.16592   3.31342   3.48981
 Alpha virt. eigenvalues --    3.51595   3.58262   3.65001   3.78678
          Condensed to atoms (all electrons):
               1          2          3          4          5          6
     1  C    4.729258   0.487723   0.008398  -0.052058  -0.011587   0.511032
     2  C    0.487723   5.361974   0.276984  -0.058957  -0.072054  -0.004821
     3  C    0.008398   0.276984   4.896493   0.521012  -0.001163  -0.067985
     4  C   -0.052058  -0.058957   0.521012   4.787029   0.518442  -0.012971
     5  C   -0.011587  -0.072054  -0.001163   0.518442   4.723246   0.499946
     6  C    0.511032  -0.004821  -0.067985  -0.012971   0.499946   4.734411
     7  H    0.404564  -0.040042   0.009238  -0.000596   0.008157  -0.038856
     8  H   -0.000589   0.010823  -0.026298   0.394256  -0.041066   0.007397
     9  H    0.008743  -0.000426   0.008266  -0.038166   0.405508  -0.043902
    10  H   -0.042564   0.009546  -0.000531   0.008588  -0.042578   0.407685
    11  N    0.003700  -0.034379   0.391355  -0.054593   0.002305   0.000368
    12  S   -0.067549   0.335438  -0.131004   0.004188   0.000165   0.004188
    13  C   -0.000234  -0.000014   0.015110  -0.000312   0.000013  -0.000001
    14  C   -0.000007   0.000052   0.000417   0.000008  -0.000000  -0.000000
    15  C    0.000003  -0.000197   0.000188   0.000026  -0.000001   0.000000
    16  C    0.000000  -0.000003   0.000003  -0.000000   0.000000   0.000000
    17  H   -0.000006   0.000124   0.000001   0.000000   0.000000   0.000000
    18  C    0.000000   0.000010  -0.000040  -0.000000  -0.000000  -0.000000
    19  C   -0.000000   0.000000   0.000002  -0.000000  -0.000000   0.000000
    20  H   -0.000000  -0.000000  -0.000000   0.000000  -0.000000  -0.000000
    21  H   -0.000000   0.000000  -0.000001  -0.000000  -0.000000   0.000000
    22  H    0.000000  -0.000000  -0.000000  -0.000000   0.000000  -0.000000
    23  C    0.003352  -0.050825  -0.101782   0.003246   0.000332  -0.000329
    24  O    0.000002  -0.000210  -0.000522   0.000059   0.000000  -0.000000
    25  H    0.000240   0.013407  -0.039391  -0.010863  -0.000226  -0.000018
               7          8          9         10         11         12
     1  C    0.404564  -0.000589   0.008743  -0.042564   0.003700  -0.067549
     2  C   -0.040042   0.010823  -0.000426   0.009546  -0.034379   0.335438
     3  C    0.009238  -0.026298   0.008266  -0.000531   0.391355  -0.131004
     4  C   -0.000596   0.394256  -0.038166   0.008588  -0.054593   0.004188
     5  C    0.008157  -0.041066   0.405508  -0.042578   0.002305   0.000165
     6  C   -0.038856   0.007397  -0.043902   0.407685   0.000368   0.004188
     7  H    0.649783   0.000028  -0.000144  -0.011523  -0.000096  -0.007345
     8  H    0.000028   0.639133  -0.011896  -0.000113  -0.004899  -0.000243
     9  H   -0.000144  -0.011896   0.656592  -0.012216  -0.000103   0.000021
    10  H   -0.011523  -0.000113  -0.012216   0.656745   0.000005  -0.000142
    11  N   -0.000096  -0.004899  -0.000103   0.000005   5.873687  -0.046298
    12  S   -0.007345  -0.000243   0.000021  -0.000142  -0.046298  15.444504
    13  C    0.000004   0.000042  -0.000000  -0.000000  -0.027042  -0.068615
    14  C    0.000001   0.000001   0.000000  -0.000000   0.003626  -0.008277
    15  C   -0.000000  -0.000005   0.000000   0.000000  -0.005222   0.004627
    16  C    0.000000  -0.000000  -0.000000  -0.000000  -0.000085   0.000102
    17  H    0.000001   0.000000   0.000000  -0.000000   0.000257   0.007139
    18  C    0.000000  -0.000000  -0.000000  -0.000000  -0.000573  -0.000127
    19  C    0.000000   0.000000  -0.000000   0.000000   0.000031   0.000018
    20  H    0.000000  -0.000000   0.000000   0.000000   0.000001   0.000002
    21  H   -0.000000   0.000000  -0.000000   0.000000   0.000009   0.000004
    22  H    0.000000  -0.000000  -0.000000  -0.000000  -0.000000  -0.000000
    23  C    0.000205  -0.000640   0.000006   0.000004   0.513624   0.313956
    24  O    0.000000  -0.000189   0.000000  -0.000000  -0.042285  -0.000135
    25  H    0.000007   0.000873  -0.000012  -0.000000   0.376749   0.005813
              13         14         15         16         17         18
     1  C   -0.000234  -0.000007   0.000003   0.000000  -0.000006   0.000000
     2  C   -0.000014   0.000052  -0.000197  -0.000003   0.000124   0.000010
     3  C    0.015110   0.000417   0.000188   0.000003   0.000001  -0.000040
     4  C   -0.000312   0.000008   0.000026  -0.000000   0.000000  -0.000000
     5  C    0.000013  -0.000000  -0.000001   0.000000   0.000000  -0.000000
     6  C   -0.000001  -0.000000   0.000000   0.000000   0.000000  -0.000000
     7  H    0.000004   0.000001  -0.000000   0.000000   0.000001   0.000000
     8  H    0.000042   0.000001  -0.000005  -0.000000   0.000000  -0.000000
     9  H   -0.000000   0.000000   0.000000  -0.000000   0.000000  -0.000000
    10  H   -0.000000  -0.000000   0.000000  -0.000000  -0.000000  -0.000000
    11  N   -0.027042   0.003626  -0.005222  -0.000085   0.000257  -0.000573
    12  S   -0.068615  -0.008277   0.004627   0.000102   0.007139  -0.000127
    13  C    5.493482   0.426419   0.167749  -0.004632  -0.042127  -0.040495
    14  C    0.426419   4.861818   0.011390   0.538670   0.399391  -0.063182
    15  C    0.167749   0.011390   4.734723  -0.056063   0.006302   0.462150
    16  C   -0.004632   0.538670  -0.056063   4.766091  -0.031909  -0.018034
    17  H   -0.042127   0.399391   0.006302  -0.031909   0.679960  -0.000927
    18  C   -0.040495  -0.063182   0.462150  -0.018034  -0.000927   4.903888
    19  C   -0.052826  -0.017621  -0.005308   0.475329   0.008367   0.497013
    20  H    0.009193  -0.036553  -0.000161   0.400198  -0.012200   0.008336
    21  H    0.015864  -0.000651  -0.023972   0.007713   0.000055   0.371348
    22  H   -0.001666   0.009747   0.008687  -0.046691  -0.000200  -0.039313
    23  C    0.346504  -0.098355  -0.070353   0.006465  -0.020953   0.010887
    24  O   -0.097097   0.006436   0.657753  -0.000169  -0.000075  -0.067002
    25  H   -0.048956  -0.000836  -0.008208   0.000067  -0.000086   0.003958
              19         20         21         22         23         24
     1  C   -0.000000  -0.000000  -0.000000   0.000000   0.003352   0.000002
     2  C    0.000000  -0.000000   0.000000  -0.000000  -0.050825  -0.000210
     3  C    0.000002  -0.000000  -0.000001  -0.000000  -0.101782  -0.000522
     4  C   -0.000000   0.000000  -0.000000  -0.000000   0.003246   0.000059
     5  C   -0.000000  -0.000000  -0.000000   0.000000   0.000332   0.000000
     6  C    0.000000  -0.000000   0.000000  -0.000000  -0.000329  -0.000000
     7  H    0.000000   0.000000  -0.000000   0.000000   0.000205   0.000000
     8  H    0.000000  -0.000000   0.000000  -0.000000  -0.000640  -0.000189
     9  H   -0.000000   0.000000  -0.000000  -0.000000   0.000006   0.000000
    10  H    0.000000   0.000000   0.000000  -0.000000   0.000004  -0.000000
    11  N    0.000031   0.000001   0.000009  -0.000000   0.513624  -0.042285
    12  S    0.000018   0.000002   0.000004  -0.000000   0.313956  -0.000135
    13  C   -0.052826   0.009193   0.015864  -0.001666   0.346504  -0.097097
    14  C   -0.017621  -0.036553  -0.000651   0.009747  -0.098355   0.006436
    15  C   -0.005308  -0.000161  -0.023972   0.008687  -0.070353   0.657753
    16  C    0.475329   0.400198   0.007713  -0.046691   0.006465  -0.000169
    17  H    0.008367  -0.012200   0.000055  -0.000200  -0.020953  -0.000075
    18  C    0.497013   0.008336   0.371348  -0.039313   0.010887  -0.067002
    19  C    4.749605  -0.047373  -0.047604   0.402901   0.000315   0.004651
    20  H   -0.047373   0.689814  -0.000166  -0.012640  -0.000392   0.000001
    21  H   -0.047604  -0.000166   0.683484  -0.012912  -0.000486   0.005585
    22  H    0.402901  -0.012640  -0.012912   0.677825   0.000009  -0.000080
    23  C    0.000315  -0.000392  -0.000486   0.000009   5.114689  -0.016483
    24  O    0.004651   0.000001   0.005585  -0.000080  -0.016483   7.861674
    25  H   -0.000383  -0.000001   0.000004   0.000006   0.027035   0.089919
              25
     1  C    0.000240
     2  C    0.013407
     3  C   -0.039391
     4  C   -0.010863
     5  C   -0.000226
     6  C   -0.000018
     7  H    0.000007
     8  H    0.000873
     9  H   -0.000012
    10  H   -0.000000
    11  N    0.376749
    12  S    0.005813
    13  C   -0.048956
    14  C   -0.000836
    15  C   -0.008208
    16  C    0.000067
    17  H   -0.000086
    18  C    0.003958
    19  C   -0.000383
    20  H   -0.000001
    21  H    0.000004
    22  H    0.000006
    23  C    0.027035
    24  O    0.089919
    25  H    0.599895
 Mulliken charges:
               1
     1  C    0.017580
     2  C   -0.234156
     3  C    0.241253
     4  C   -0.008338
     5  C    0.010562
     6  C    0.003855
     7  H    0.026617
     8  H    0.033385
     9  H    0.027729
    10  H    0.027094
    11  N    0.049859
    12  S    0.209569
    13  C   -0.090365
    14  C   -0.032493
    15  C    0.115889
    16  C   -0.037052
    17  H    0.006886
    18  C   -0.027896
    19  C    0.032883
    20  H    0.001942
    21  H    0.001726
    22  H    0.014329
    23  C    0.019966
    24  O   -0.401832
    25  H   -0.008993
 Sum of Mulliken charges =  -0.00000
 Mulliken charges with hydrogens summed into heavy atoms:
               1
     1  C    0.044196
     2  C   -0.234156
     3  C    0.241253
     4  C    0.025047
     5  C    0.038291
     6  C    0.030950
    11  N    0.040866
    12  S    0.209569
    13  C   -0.090365
    14  C   -0.025607
    15  C    0.115889
    16  C   -0.035110
    18  C   -0.026170
    19  C    0.047211
    23  C    0.019966
    24  O   -0.401832
 Electronic spatial extent (au):  <R**2>=           4333.5754
 Charge=             -0.0000 electrons
 Dipole moment (field-independent basis, Debye):
    X=              1.5937    Y=             -5.7041    Z=             -0.0001  Tot=              5.9225
 Quadrupole moment (field-independent basis, Debye-Ang):
   XX=            -82.4660   YY=            -94.6863   ZZ=           -103.9797
   XY=             -6.8057   XZ=             -0.0001   YZ=             -0.0000
 Traceless Quadrupole moment (field-independent basis, Debye-Ang):
   XX=             11.2447   YY=             -0.9757   ZZ=            -10.2690
   XY=             -6.8057   XZ=             -0.0001   YZ=             -0.0000
 Octapole moment (field-independent basis, Debye-Ang**2):
  XXX=             36.0535  YYY=            -58.8161  ZZZ=             -0.0001  XYY=              2.0163
  XXY=             -9.5422  XXZ=             -0.0001  XZZ=              2.4959  YZZ=              2.0511
  YYZ=             -0.0001  XYZ=             -0.0005
 Hexadecapole moment (field-independent basis, Debye-Ang**3):
 XXXX=          -2603.0771 YYYY=          -2655.4808 ZZZZ=           -112.8544 XXXY=            813.8242
 XXXZ=              0.0098 YYYX=            774.1267 YYYZ=             -0.0140 ZZZX=              0.0136
 ZZZY=             -0.0179 XXYY=           -847.4277 XXZZ=           -572.1420 YYZZ=           -546.0677
 XXYZ=             -0.0036 YYXZ=              0.0013 ZZXY=            358.7717
 N-N= 1.100961988890D+03 E-N=-4.613991331887D+03  KE= 1.024153482217D+03
 No NMR shielding tensors so no spin-rotation constants.
 Leave Link  601 at Tue Oct 27 22:42:43 2020, MaxMem=  7784628224 cpu:               2.3 elap:               0.3
 (Enter /gpfs/loomis/apps/avx/software/Gaussian/16-C.01_AVX/g16/l701.exe)
 ... and contract with generalized density number  0.
 Compute integral first derivatives.
 R6Disp: Adding Grimme-D2 dispersion energy 1st derivatives to the gradient.
 D1PCM: PCM CHGder 1st derivatives, ID1Alg=3 FixD1E=F DoIter=F DoCFld=F I1PDM=0.
 GePol: Maximum number of non-zero 1st derivatives   =     262
 Leave Link  701 at Tue Oct 27 22:42:45 2020, MaxMem=  7784628224 cpu:              19.8 elap:               2.4
 (Enter /gpfs/loomis/apps/avx/software/Gaussian/16-C.01_AVX/g16/l702.exe)
 L702 exits ... SP integral derivatives will be done elsewhere.
 Leave Link  702 at Tue Oct 27 22:42:45 2020, MaxMem=  7784628224 cpu:               0.3 elap:               0.1
 (Enter /gpfs/loomis/apps/avx/software/Gaussian/16-C.01_AVX/g16/l703.exe)
 Integral derivatives from FoFJK, PRISM(SPDF).
 Compute integral first derivatives, UseDBF=F ICtDFT=           0.
 Calling FoFJK, ICntrl=      2127 FMM=F ISym2X=0 I1Cent= 0 IOpClX= 0 NMat=1 NMatS=1 NMatT=0.
 FoFJK:  IHMeth= 1 ICntrl=    2127 DoSepK=T KAlg= 0 I1Cent=           0 FoldK=F
 IRaf=         1 NMat=       1 IRICut=       1 DoRegI=T DoRafI=F ISym2E= 0 IDoP0=0 IntGTp=1.
 FoFCou: FMM=F IPFlag=           0 FMFlag=      100000 FMFlg1=         800
         NFxFlg=           0 DoJE=F BraDBF=F KetDBF=F FulRan=T
         wScrn=  0.000000 ICntrl=      2527 IOpCl=  0 I1Cent=           0 NGrid=           0
         NMat0=    1 NMatS0=      1 NMatT0=    0 NMatD0=    1 NMtDS0=    0 NMtDT0=    0
 Symmetry not used in FoFCou.
 Leave Link  703 at Tue Oct 27 22:43:03 2020, MaxMem=  7784628224 cpu:             138.9 elap:              17.4
 (Enter /gpfs/loomis/apps/avx/software/Gaussian/16-C.01_AVX/g16/l716.exe)
 Dipole        = 6.27024173D-01-2.24415688D+00-3.16612168D-05
 -------------------------------------------------------------------
 Center     Atomic                   Forces (Hartrees/Bohr)
 Number     Number              X              Y              Z
 -------------------------------------------------------------------
      1        6           0.001323029    0.002120629   -0.000000026
      2        6           0.007706129    0.005923765   -0.000000172
      3        6           0.005811121   -0.013637739   -0.000000188
      4        6          -0.001581648    0.001991483    0.000000079
      5        6           0.000864482    0.000285486    0.000000039
      6        6          -0.001309662    0.002195691   -0.000000053
      7        1           0.000336439    0.000525809   -0.000000043
      8        1          -0.000089698   -0.000382056    0.000000013
      9        1          -0.000343585    0.000117112   -0.000000002
     10        1          -0.000118418    0.000277705    0.000000000
     11        7          -0.070536444   -0.267436894   -0.000006022
     12       16           0.005526237    0.007843255   -0.000000200
     13        6           0.027230136    0.011486970   -0.000000316
     14        6          -0.043245235    0.023564517    0.000000297
     15        6           0.012765988   -0.015084194   -0.000000095
     16        6           0.006651216   -0.041167371   -0.000000688
     17        1          -0.001169852   -0.000290079   -0.000000008
     18        6          -0.023235315    0.000971786    0.000000447
     19        6           0.031025629    0.009134444    0.000000086
     20        1           0.000422335   -0.000261753   -0.000000002
     21        1          -0.000599875   -0.000013861   -0.000000174
     22        1          -0.000379924    0.001076068    0.000000004
     23        6          -0.004429793    0.018304213    0.000000852
     24        8          -0.007342181    0.014619160   -0.000000084
     25        1           0.054718889    0.237835856    0.000006255
 -------------------------------------------------------------------
 Cartesian Forces:  Max     0.267436894 RMS     0.043836961
 Leave Link  716 at Tue Oct 27 22:43:03 2020, MaxMem=  7784628224 cpu:               0.3 elap:               0.1
 (Enter /gpfs/loomis/apps/avx/software/Gaussian/16-C.01_AVX/g16/l103.exe)

 GradGradGradGradGradGradGradGradGradGradGradGradGradGradGradGradGradGrad
 Berny optimization.
 FormGI is forming the generalized inverse of G from B-inverse, IUseBI=4.
 Internal  Forces:  Max     0.170660744 RMS     0.018876023
 Search for a local minimum.
 Step number   1 out of a maximum of  146
 All quantities printed in internal units (Hartrees-Bohrs-Radians)
 RMS Force = .19016D-01 SwitMx=.10000D-02 MixMth= 1
 Mixed Optimization -- RFO/linear search
 Second derivative matrix not updated -- first step.
 ITU=  0
     Eigenvalues ---    0.01314   0.01501   0.01543   0.01719   0.01760
     Eigenvalues ---    0.01762   0.01836   0.01926   0.01967   0.01976
     Eigenvalues ---    0.01985   0.02018   0.02053   0.02057   0.02115
     Eigenvalues ---    0.02127   0.02134   0.02135   0.02135   0.02156
     Eigenvalues ---    0.02164   0.02173   0.16000   0.16000   0.16000
     Eigenvalues ---    0.16000   0.16000   0.16000   0.16000   0.16003
     Eigenvalues ---    0.17334   0.22005   0.22011   0.22535   0.22587
     Eigenvalues ---    0.24383   0.24477   0.24600   0.25000   0.25000
     Eigenvalues ---    0.29072   0.29273   0.32752   0.34514   0.34649
     Eigenvalues ---    0.34660   0.34677   0.34680   0.34716   0.34729
     Eigenvalues ---    0.34760   0.35731   0.39020   0.40989   0.41961
     Eigenvalues ---    0.42045   0.43569   0.43796   0.45279   0.46018
     Eigenvalues ---    0.46379   0.46534   0.46749   0.47529   0.50538
     Eigenvalues ---    0.64624   0.790561000.000001000.000001000.00000
     Eigenvalues --- 1000.000001000.000001000.000001000.000001000.00000
     Eigenvalues --- 1000.000001000.000001000.000001000.000001000.00000
     Eigenvalues --- 1000.000001000.000001000.000001000.000001000.00000
     Eigenvalues --- 1000.000001000.000001000.000001000.000001000.00000
     Eigenvalues --- 1000.000001000.000001000.000001000.000001000.00000
     Eigenvalues --- 1000.000001000.000001000.000001000.000001000.00000
     Eigenvalues --- 1000.000001000.000001000.000001000.000001000.00000
     Eigenvalues --- 1000.000001000.000001000.000001000.000001000.00000
     Eigenvalues --- 1000.000001000.000001000.000001000.000001000.00000
     Eigenvalues --- 1000.000001000.000001000.000001000.000001000.00000
     Eigenvalues --- 1000.000001000.000001000.000001000.000001000.00000
     Eigenvalues --- 1000.000001000.000001000.000001000.000001000.00000
     Eigenvalues --- 1000.000001000.000001000.000001000.000001000.00000
     Eigenvalues --- 1000.00000
 RFO step:  Lambda=-7.58203866D-02 EMin= 1.31436181D-02
 Linear search not attempted -- first point.
 Maximum step size (   0.300) exceeded in Quadratic search.
    -- Step size scaled by   0.817
 Iteration  1 RMS(Cart)=  0.03264216 RMS(Int)=  0.00180488
 Iteration  2 RMS(Cart)=  0.00238804 RMS(Int)=  0.00154998
 Iteration  3 RMS(Cart)=  0.00001552 RMS(Int)=  0.00161595
 Iteration  4 RMS(Cart)=  0.00000015 RMS(Int)=  0.00161466
 Iteration  1 RMS(Cart)=  0.00002818 RMS(Int)=  0.00002578
 Iteration  2 RMS(Cart)=  0.00000045 RMS(Int)=  0.00001566
 ITry= 1 IFail=0 DXMaxC= 2.09D-01 DCOld= 1.00D+10 DXMaxT= 3.00D-01 DXLimC= 3.00D+00 Rises=F
 Variable       Old X    -DE/DX   Delta X   Delta X   Delta X     New X
                                 (Linear)    (Quad)   (Total)
    R1        2.63398  -0.00849   0.00000  -0.00621  -0.00565   2.62833
    R2        2.63326  -0.00053   0.00000   0.00239   0.00248   2.63574
    R3        2.06199  -0.00145   0.00000  -0.00190  -0.00183   2.06017
    R4        2.68225  -0.04671   0.00000  -0.05138  -0.04906   2.63319
    R5        3.31863   0.01700   0.00000   0.02589   0.02470   3.34333
    R6        2.64077  -0.00211   0.00000  -0.00579  -0.00586   2.63491
    R7        2.61177  -0.00913   0.00000  -0.01125  -0.01061   2.60115
    R8        2.63226  -0.00027   0.00000  -0.00443  -0.00471   2.62755
    R9        2.06139  -0.00018   0.00000  -0.00052  -0.00054   2.06085
   R10        2.64666  -0.00891   0.00000  -0.00542  -0.00477   2.64189
   R11        2.06231  -0.00047   0.00000  -0.00074  -0.00073   2.06158
   R12        2.06118  -0.00045   0.00000  -0.00074  -0.00073   2.06045
   R13        2.57009   0.00166   0.00000  -0.00987  -0.01096   2.55912
   R14        1.62974   0.17066   0.00000   0.19317   0.19900   1.82874
   R15        3.30104  -0.02959   0.00000  -0.01854  -0.01586   3.28518
   R16        2.61629   0.01593   0.00000   0.03457   0.03560   2.65189
   R17        2.80474  -0.01520   0.00000  -0.00816  -0.00661   2.79813
   R18        2.69231   0.01791   0.00000   0.01401   0.01268   2.70499
   R19        2.67825  -0.01841   0.00000  -0.04507  -0.04645   2.63180
   R20        2.06471   0.00039   0.00000   0.00104   0.00105   2.06577
   R21        2.69677   0.02290   0.00000   0.01825   0.01656   2.71332
   R22        2.38793  -0.03097   0.00000  -0.01422  -0.01190   2.37603
   R23        2.63995   0.00328   0.00000   0.01315   0.01394   2.65389
   R24        2.06249  -0.00004   0.00000  -0.00049  -0.00053   2.06196
   R25        2.64031  -0.00903   0.00000  -0.02543  -0.02646   2.61385
   R26        2.06198  -0.00039   0.00000  -0.00050  -0.00048   2.06150
   R27        2.06064   0.00169   0.00000   0.00256   0.00251   2.06315
    A1        2.06259   0.00516   0.00000   0.00449   0.00384   2.06643
    A2        2.10651  -0.00389   0.00000  -0.00363  -0.00319   2.10332
    A3        2.11408  -0.00127   0.00000  -0.00086  -0.00065   2.11343
    A4        2.12727  -0.00600   0.00000  -0.01629  -0.01595   2.11132
    A5        2.21545   0.00531   0.00000   0.02686   0.02750   2.24294
    A6        1.94047   0.00069   0.00000  -0.01057  -0.01154   1.92893
    A7        2.07971   0.01542   0.00000   0.02969   0.02914   2.10885
    A8        1.96880  -0.02316   0.00000  -0.02844  -0.02674   1.94206
    A9        2.23467   0.00774   0.00000  -0.00125  -0.00240   2.23227
   A10        2.07216  -0.00522   0.00000  -0.00909  -0.00871   2.06345
   A11        2.09712   0.00361   0.00000   0.00574   0.00547   2.10259
   A12        2.11390   0.00162   0.00000   0.00334   0.00324   2.11714
   A13        2.12484  -0.00750   0.00000  -0.01226  -0.01192   2.11292
   A14        2.07452   0.00381   0.00000   0.00549   0.00530   2.07982
   A15        2.08383   0.00369   0.00000   0.00677   0.00662   2.09044
   A16        2.09980  -0.00186   0.00000   0.00346   0.00360   2.10340
   A17        2.08945   0.00090   0.00000  -0.00123  -0.00129   2.08816
   A18        2.09393   0.00097   0.00000  -0.00223  -0.00230   2.09163
   A19        1.96830   0.04989   0.00000   0.08050   0.07827   2.04656
   A20        2.37330  -0.06884   0.00000  -0.13532  -0.13097   2.24233
   A21        1.94159   0.01896   0.00000   0.05482   0.05270   1.99429
   A22        1.55656   0.01855   0.00000   0.03469   0.03341   1.58998
   A23        2.09178   0.00152   0.00000  -0.00164  -0.00198   2.08980
   A24        2.15598  -0.00197   0.00000  -0.01498  -0.01577   2.14021
   A25        2.03543   0.00045   0.00000   0.01662   0.01775   2.05318
   A26        2.09858   0.00907   0.00000   0.01697   0.01660   2.11518
   A27        2.10545  -0.00406   0.00000  -0.00530  -0.00505   2.10041
   A28        2.07915  -0.00500   0.00000  -0.01168  -0.01155   2.06760
   A29        2.04866  -0.01219   0.00000  -0.02094  -0.02048   2.02819
   A30        2.09050  -0.00621   0.00000   0.02434   0.02658   2.11709
   A31        2.14402   0.01840   0.00000  -0.00340  -0.00611   2.13791
   A32        2.11539  -0.00687   0.00000  -0.01780  -0.01770   2.09769
   A33        2.07298   0.00334   0.00000   0.00851   0.00847   2.08144
   A34        2.09482   0.00353   0.00000   0.00928   0.00923   2.10406
   A35        2.11713   0.00647   0.00000   0.01138   0.01110   2.12822
   A36        2.03592  -0.00199   0.00000  -0.00318  -0.00312   2.03280
   A37        2.13014  -0.00448   0.00000  -0.00820  -0.00798   2.12216
   A38        2.09484   0.00201   0.00000   0.01203   0.01246   2.10729
   A39        2.09210  -0.00179   0.00000  -0.00568  -0.00577   2.08634
   A40        2.09625  -0.00022   0.00000  -0.00634  -0.00669   2.08956
   A41        1.99065  -0.04597   0.00000  -0.07618  -0.07339   1.91725
   A42        2.10409   0.02733   0.00000   0.04165   0.04005   2.14414
   A43        2.18845   0.01863   0.00000   0.03453   0.03335   2.22179
    D1       -0.00000   0.00000   0.00000   0.00000   0.00000   0.00000
    D2       -3.14159  -0.00000   0.00000  -0.00000  -0.00000  -3.14159
    D3        3.14159   0.00000   0.00000   0.00000   0.00000   3.14159
    D4       -0.00000  -0.00000   0.00000  -0.00000  -0.00000  -0.00000
    D5       -0.00000  -0.00000   0.00000  -0.00000   0.00000  -0.00000
    D6        3.14159  -0.00000   0.00000  -0.00000  -0.00000   3.14159
    D7       -3.14159  -0.00000   0.00000  -0.00000  -0.00000   3.14159
    D8        0.00000  -0.00000   0.00000  -0.00000  -0.00000   0.00000
    D9        0.00000   0.00000   0.00000  -0.00000  -0.00000   0.00000
   D10        3.14159  -0.00000   0.00000  -0.00000  -0.00000   3.14159
   D11       -3.14159   0.00000   0.00000   0.00000   0.00000  -3.14159
   D12       -0.00000   0.00000   0.00000  -0.00000  -0.00000  -0.00000
   D13        3.14159   0.00000   0.00000   0.00000   0.00000   3.14159
   D14       -0.00000  -0.00000   0.00000   0.00000   0.00000  -0.00000
   D15       -0.00000  -0.00000   0.00000  -0.00000  -0.00000  -0.00000
   D16        3.14159  -0.00000   0.00000  -0.00000  -0.00000   3.14159
   D17       -3.14159   0.00000   0.00000   0.00000   0.00000  -3.14159
   D18        0.00000   0.00000   0.00000   0.00000   0.00000   0.00000
   D19        0.00000   0.00000   0.00000   0.00000   0.00000   0.00001
   D20        3.14155   0.00000   0.00000   0.00001   0.00001   3.14156
   D21       -3.14159   0.00000   0.00000  -0.00000  -0.00000  -3.14159
   D22       -0.00004   0.00000   0.00000   0.00001   0.00001  -0.00004
   D23        0.00000   0.00000   0.00000   0.00000   0.00000   0.00000
   D24       -3.14159   0.00000   0.00000  -0.00000  -0.00000  -3.14159
   D25        3.14159   0.00000   0.00000   0.00000   0.00000  -3.14159
   D26        0.00000   0.00000   0.00000   0.00000   0.00000   0.00000
   D27        0.00000  -0.00000   0.00000  -0.00000  -0.00000   0.00000
   D28       -3.14159  -0.00000   0.00000  -0.00000  -0.00000  -3.14159
[...]
 84956,0.01465734,0.00000021,0.03962649,0.56601119,0.,-0.00000004,0.000
 55533,0.,0.,0.00066154,-0.00000011,-0.00000001,-0.00146337,0.00000004,
 0.,-0.00012984,0.,0.00000004,0.00015842,-0.00000004,0.,-0.00016242,0.,
 0.,0.00003907,0.,0.,-0.00007711,0.,0.,0.00004429,0.,0.,-0.00008913,-0.
 00000028,-0.00000049,-0.00029352,0.00000001,0.00000013,0.00228211,-0.0
 0000018,-0.00000119,-0.07336483,-0.00000085,0.00000002,0.00030230,0.00
 000579,0.00000781,0.20024292,0.00060646,-0.00076776,0.,-0.00109650,0.0
 0129815,0.,0.00014412,-0.00144394,0.,0.00049689,0.00015117,0.,-0.00002
 618,0.00085625,0.,-0.00099205,-0.00008710,0.,0.00002805,0.00003498,0.,
 0.00002724,-0.00004630,0.,-0.00007158,0.00005759,0.,-0.00004388,0.0000
 2921,0.,-0.00700654,0.00011919,-0.00000001,0.00075341,0.00201549,0.000
 00003,-0.04924594,0.02413919,0.00000035,-0.25205472,0.17372188,0.00000
 267,-0.00061534,0.01561830,0.00000037,0.77318696,-0.00145055,0.0022219
 2,0.00000001,0.00259897,-0.00173387,0.,0.00044307,0.00165626,0.0000000
 6,-0.00175478,0.00034725,0.00000002,-0.00005632,-0.00253906,-0.0000000
 2,0.00270965,0.00029362,0.,-0.00012248,-0.00006338,0.,0.00006339,0.000
 09007,0.,0.00016437,-0.00010603,0.,0.00013306,-0.00005840,0.,0.0145811
 9,0.00558019,-0.00000010,-0.00377558,-0.00474052,-0.00000005,0.0614952
 2,0.00700324,-0.00000019,0.11348000,-0.28316021,-0.00000333,0.02913796
 ,-0.04442766,-0.00000038,-0.02589452,0.66824944,-0.00000003,0.00000004
 ,0.00005042,0.00000006,-0.00000004,0.00043326,0.,0.00000002,-0.0005367
 9,-0.00000004,0.,-0.00011229,0.,-0.00000005,0.00004698,0.00000005,0.,-
 0.00001693,0.,0.,0.00000062,0.,0.,-0.00000001,0.,0.,0.00001588,0.,0.,-
 0.00002513,0.00000024,0.00000009,-0.00003364,-0.00000006,-0.00000010,-
 0.00086484,0.00000112,-0.00000008,0.00951503,0.00000169,-0.00000352,-0
 .06176770,0.00000057,-0.00000062,-0.00628674,-0.00000076,0.00000940,0.
 12036260,0.00029583,-0.00001206,0.,-0.00065523,0.00035663,0.00000002,0
 .00035120,-0.00024702,0.,0.00004137,0.00004989,0.,0.00004762,0.0000944
 7,0.,-0.00011527,-0.00008141,0.,-0.00001392,-0.00000667,0.,0.00003766,
 0.00000089,0.,0.00000587,0.00000128,0.,0.00002792,-0.00000513,0.,-0.00
 004198,0.00032704,0.,-0.00179131,0.00235666,-0.00000002,-0.00511107,-0
 .02823297,-0.00000031,-0.08804218,-0.08735489,-0.00000122,-0.00478893,
 0.00334532,0.00000002,0.01086583,0.02076578,0.00000031,0.09002169,0.00
 009136,-0.00008310,0.,-0.00023022,0.00066577,0.,0.00034456,-0.00030906
 ,0.,0.00005295,0.00007337,0.,0.00001411,0.00012388,0.,-0.00015660,-0.0
 0001058,0.,-0.00000979,0.00001404,0.,0.00002598,-0.00000585,0.,-0.0000
 0779,0.00000755,0.,-0.00000055,0.00000360,0.,-0.00117274,0.00010952,0.
 00000002,0.00043747,-0.00030758,0.00000001,0.00018978,-0.00185242,-0.0
 0000007,-0.08378157,-0.30717069,-0.00000389,0.00024925,0.00245866,-0.0
 0000005,-0.01229172,-0.01707429,-0.00000034,0.09038758,0.32662943,0.,0
 .,-0.00001027,0.,0.,-0.00058723,0.,0.,0.00012332,0.,0.,0.00007506,0.,0
 .,-0.00001794,0.,0.,0.00002790,0.,0.,-0.00001098,0.,0.,-0.00001348,0.,
 0.,-0.00000385,0.,0.,0.00001657,0.00000004,0.00000002,-0.00018535,-0.0
 0000003,0.00000001,0.00111429,0.00000020,-0.00000006,0.00288139,-0.000
 00133,-0.00000388,-0.03726674,0.00000010,-0.00000012,0.00471118,-0.000
 00009,-0.00000044,0.00595753,0.00000122,0.00000436,0.02415853,-0.00049
 765,0.00122444,0.,0.00113389,-0.00076343,0.,0.00176005,0.00071310,0.00
 000003,-0.00104338,0.00012348,0.,0.00001178,-0.00137136,0.,0.00138587,
 0.00016708,0.,-0.00008576,0.00001602,0.,0.00013208,0.00002117,0.,0.000
 07266,-0.00004877,0.,0.00007268,-0.00001074,0.,0.00820134,0.00710567,-
 0.00000002,-0.00127648,-0.00194280,-0.00000003,0.04597795,0.00328482,0
 .00000005,-0.04745037,0.02130959,0.00000038,-0.13546439,0.04255641,0.0
 0000194,-0.00300142,-0.07345518,-0.00000143,-0.00015103,0.00043985,-0.
 00000006,0.74167951,0.00080517,-0.00069427,0.,-0.00146759,0.00018558,0
 .00000001,-0.00021783,-0.00042805,0.,0.00066190,-0.00011751,0.,0.00007
 510,0.00093816,0.,-0.00097647,-0.00020187,0.,0.00001468,0.00003384,0.,
 -0.00000704,-0.00002134,0.,-0.00004130,0.00003573,0.,-0.00000764,0.000
 00715,0.,-0.00488892,-0.00076275,0.00000002,0.00226994,0.00074672,0.00
 000005,0.00466323,-0.02322996,-0.00000089,0.01203283,-0.00734536,-0.00
 000011,0.06792145,-0.21034562,-0.00000378,-0.03800402,0.00712755,0.000
 00010,-0.00001992,0.00055088,-0.00000001,0.09240181,0.68193565,0.00000
 001,0.,-0.00015616,-0.00000002,-0.00000002,-0.00026265,-0.00000003,0.0
 0000004,-0.00091749,0.00000002,0.,0.00005774,0.,0.00000002,0.00003012,
 -0.00000001,0.,0.00005185,0.,0.,-0.00005741,0.,0.,-0.00004173,0.,0.,-0
 .00001020,0.,0.,0.00004261,-0.00000009,-0.00000013,0.00124354,0.000000
 06,0.00000004,-0.00083242,0.00000007,-0.00000027,0.01002872,0.00000045
 ,-0.00000017,-0.00095852,0.00000243,-0.00000398,-0.07707069,-0.0000008
 4,0.00000022,0.00779213,-0.00000001,0.00000001,-0.00017118,0.00000064,
 0.00001330,0.11957548,0.00097300,-0.00143398,0.,-0.00183969,0.00103930
 ,0.,-0.00063775,-0.00088536,-0.00000003,0.00121410,-0.00019286,-0.0000
 0001,0.00002943,0.00170059,0.,-0.00178453,-0.00023120,0.,0.00007558,0.
 00003881,0.,-0.00005665,-0.00005551,0.,-0.00010459,0.00007235,0.,-0.00
 007860,0.00003296,0.,-0.00916527,-0.00327829,0.00000008,0.00244494,0.0
 0263020,0.00000004,-0.03449928,0.00376531,0.00000019,0.05227172,-0.000
 88676,-0.00000011,-0.05092311,0.03068268,0.00000014,-0.14307447,-0.025
 44825,-0.00000018,-0.00273730,0.00450753,0.00000005,-0.41873905,-0.090
 66592,-0.00000102,0.76627964,0.00085002,-0.00128106,0.,-0.00139904,0.0
 0108090,0.,-0.00035020,-0.00154936,-0.00000003,0.00085961,-0.00007079,
 0.,0.00002066,0.00139971,0.,-0.00156178,-0.00015292,0.,0.00007464,0.00
 002040,0.,-0.00005447,-0.00004284,0.,-0.00009456,0.00006481,0.,-0.0000
 6971,0.00002912,0.,-0.01070346,-0.00408043,0.00000004,0.00218460,0.002
 37133,0.00000004,-0.03827515,-0.00295740,0.00000019,0.04496004,-0.0571
 2112,-0.00000123,-0.00171554,0.05140188,0.00000086,-0.09074563,-0.2802
 4178,-0.00000406,0.00287958,-0.00211996,-0.00000012,-0.03053341,-0.146
 47919,-0.00000216,-0.02425780,0.67673138,0.00000002,-0.00000002,-0.000
 00283,-0.00000003,0.00000002,0.00014607,0.,-0.00000004,0.00036190,0.00
 000001,0.,-0.00000491,0.,0.00000002,-0.00002911,-0.00000003,0.,-0.0000
 0061,0.,0.,0.00001065,0.,0.,0.00002788,0.,0.,-0.00000283,0.,0.,-0.0000
 1144,-0.00000021,-0.00000005,-0.00018422,0.00000004,0.00000003,-0.0001
 5636,-0.00000074,-0.00000002,-0.00454953,0.00000080,-0.00000106,0.0069
 0706,0.00000025,0.00000108,-0.00037353,-0.00000158,-0.00000429,-0.0622
 8423,0.00000006,-0.00000014,0.00841940,0.00000026,-0.00000179,-0.05824
 072,-0.00000189,0.00001067,0.14452883,0.00001749,-0.00008077,0.,-0.000
 02779,0.00013195,0.,-0.00001680,-0.00015881,0.,0.00003861,0.00003157,0
 .,-0.00001171,0.00006454,0.,-0.00008359,0.00000804,0.,0.00000550,0.000
 00554,0.,0.00000193,-0.00000635,0.,-0.00000981,0.00000766,0.,-0.000009
 46,0.00000530,0.,-0.00047105,0.00040558,0.,0.00003461,0.00009204,0.,0.
 00000181,0.00373733,0.00000006,-0.01491022,-0.00779154,-0.00000010,0.0
 0058016,0.00009914,0.,-0.33745942,-0.05499456,-0.00000050,0.00076944,0
 .00013659,0.,0.00136966,-0.00163631,-0.00000003,-0.00514142,0.00262308
 ,0.00000006,0.35554167,-0.00000303,0.00002805,0.,0.00002029,-0.0000651
 6,0.,0.00007686,0.00009932,0.,-0.00001404,-0.00004069,0.,0.00001351,-0
 .00001892,0.,0.00002741,-0.00000345,0.,-0.00000079,-0.00000275,0.,0.00
 000118,0.00000186,0.,0.00000404,-0.00000486,0.,0.00000315,-0.00000140,
 0.,0.00035587,-0.00030089,0.,0.00000525,0.00003398,0.,0.00219010,-0.00
 331178,-0.00000018,0.02496700,0.00780242,0.00000006,0.00051714,-0.0014
 6051,-0.00000001,-0.05619427,-0.06801560,-0.00000055,-0.00018576,0.000
 95184,0.00000010,-0.00030570,-0.00519347,-0.00000019,-0.02971077,-0.00
 073306,0.00000004,0.05861715,0.06826036,0.,0.,0.00000204,0.,0.,-0.0000
 8273,0.,0.,-0.00036584,0.,0.,-0.00002779,0.,0.,0.00003709,0.,0.,-0.000
 00673,0.,0.,-0.00000119,0.,0.,-0.00001658,0.,0.,0.00000876,0.,0.,0.000
 00612,0.00000003,0.,-0.00057562,0.,0.,0.00021420,0.00000002,-0.0000002
 2,0.00809773,0.00000045,0.00000006,0.00153936,0.,0.,-0.00072049,-0.000
 00043,-0.00000051,-0.03087889,-0.00000002,0.00000009,-0.00548131,-0.00
 000005,-0.00000017,0.00436916,-0.00000049,0.,0.00059251,0.00000053,0.0
 0000068,0.02377859,-0.00007469,0.00001595,0.,0.00009720,0.00008264,0.,
 -0.00004264,0.00000489,0.,-0.00002333,0.00000951,0.,-0.00000918,-0.000
 04260,0.,0.00004627,0.00001800,0.,0.00000085,-0.00000449,0.,-0.0000045
 7,0.00000137,0.,0.00000182,-0.00000143,0.,-0.00000330,-0.00000129,0.,0
 .00039051,-0.00014320,0.,-0.00032181,0.00011447,0.,-0.00233568,0.00239
 678,0.00000008,-0.00137845,0.00039673,0.,0.00948144,0.02118102,0.00000
 046,-0.00486020,0.00010402,0.00000004,0.00011918,-0.00009754,0.,-0.084
 34918,-0.08639659,-0.00000185,-0.00453497,-0.02972944,-0.00000067,-0.0
 0040416,-0.00141495,-0.00000002,0.08526800,0.00002249,0.00010906,0.,-0
 .00006883,-0.00019624,0.,0.00002179,0.00016918,0.,-0.00004575,-0.00001
 316,0.,0.00001609,-0.00007508,0.,0.00008907,-0.00001759,0.,-0.00000853
 ,0.00000081,0.,0.00000459,0.00000610,0.,0.00001132,-0.00000649,0.,0.00
 001450,-0.00000489,0.,0.00030579,0.00017358,0.,0.00021659,-0.00038836,
 0.,0.00399124,-0.00264969,-0.00000021,0.00109130,0.00040060,0.00000004
 ,-0.01369279,-0.01706464,-0.00000039,-0.00078166,0.00219503,-0.0000002
 2,-0.00006559,-0.00009031,0.00000003,-0.08635199,-0.31668192,-0.000006
 84,0.00216626,-0.00160204,-0.00000009,0.00004613,-0.00018477,-0.000000
 02,0.09425683,0.33264231,0.,0.,0.00004636,0.,-0.00000001,0.00002014,0.
 ,0.,-0.00004450,0.,0.,-0.00000133,0.,0.,0.00000295,0.,0.,-0.00000657,0
 .,0.,0.00000395,0.,0.,0.00000056,0.,0.,0.00000294,0.,0.,-0.00000803,0.
 00000003,0.,-0.00005495,0.,0.,0.00008804,0.00000015,-0.00000020,0.0040
 0973,0.00000002,0.00000005,-0.00075575,-0.00000035,-0.00000072,0.00449
 031,0.00000002,-0.00000015,0.00898380,0.,0.,-0.00098365,-0.00000204,-0
 .00000660,-0.03425490,0.00000015,0.,0.00309635,0.,-0.00000001,0.000534
 64,0.00000203,0.00000738,0.02429046,0.00004622,-0.00007860,0.,-0.00005
 733,0.00014239,0.,0.00010597,-0.00014931,0.,0.00003947,0.00000536,0.,-
 0.00000093,0.00007931,0.,-0.00009639,-0.00000009,0.,0.00000394,0.00000
 407,0.,0.00000542,-0.00000618,0.,-0.00000924,0.00000586,0.,-0.00000705
 ,0.00000473,0.,-0.00043672,0.00020275,0.,0.00004848,0.00028158,0.,-0.0
 0091070,0.00030184,0.,0.00080171,-0.00250135,-0.00000002,-0.00289783,-
 0.00409038,-0.00000012,0.00939285,-0.00897444,-0.00000019,0.00035205,-
 0.00047175,0.,-0.01478395,0.02562365,0.00000071,-0.18310212,0.13948031
 ,0.00000307,0.00060263,0.00045532,0.,0.00096697,-0.00030049,0.,0.19104
 388,0.00001465,0.00003131,0.,-0.00007323,0.00000739,0.,0.00000727,0.00
 007556,0.,-0.00000224,-0.00000330,0.,0.00000885,-0.00001510,0.,0.00002
 290,-0.00001042,0.,-0.00000536,-0.00000104,0.,0.00000247,0.00000319,0.
 ,0.00000541,-0.00000256,0.,0.00000671,-0.00000333,0.,0.00019124,-0.000
 07829,0.,-0.00008393,-0.00001872,0.,-0.00068196,0.00057694,0.00000003,
 -0.00356590,-0.00488920,-0.00000018,-0.00240369,0.00035382,-0.00000022
 ,0.02233216,-0.01486772,-0.00000046,0.00104873,-0.00114668,0.,-0.00673
 082,0.00768018,0.00000008,0.14025594,-0.21702280,-0.00000390,-0.000218
 74,0.00103501,0.00000007,0.00010638,0.00085940,0.00000014,-0.15042977,
 0.22687241,0.,0.,-0.00000095,0.,0.,-0.00005027,0.,0.,0.00014739,0.,0.,
 0.00000120,0.,0.,-0.00000649,0.,0.,-0.00000481,0.,0.,0.00000651,0.,0.,
 0.00000197,0.,0.,0.00000056,0.,0.,0.00000255,-0.00000002,0.,-0.0001586
 1,0.,0.,0.00026669,-0.00000011,0.00000003,-0.00115282,0.,-0.00000023,0
 .00468806,-0.00000013,-0.00000011,0.01124082,0.00000048,-0.00000022,0.
 00469751,0.00000003,-0.00000003,-0.00034689,0.00000011,-0.00000014,0.0
 0708963,0.00000293,-0.00000396,-0.04229633,-0.00000001,0.00000007,-0.0
 0246630,-0.00000003,0.00000019,-0.00595213,-0.00000344,0.00000438,0.02
 679845,-0.00823814,-0.00100511,0.00000002,0.00564752,0.01680721,0.0000
 0010,-0.06623221,0.04564221,0.00000034,0.00851647,-0.00330784,0.000000
 01,-0.00306434,0.00159420,0.,0.00190794,-0.00282840,-0.00000001,0.0000
 8249,-0.00096980,-0.00000001,-0.00055943,0.00001680,0.,0.00051797,-0.0
 0026326,0.,-0.00058526,-0.00016103,0.,-0.36652309,-0.04410222,0.000001
 89,-0.06215457,-0.05008712,-0.00000013,-0.17052361,0.08191458,0.000000
 89,-0.06070421,0.03556872,0.00000075,0.04891672,0.02102149,0.00000052,
 0.00497173,-0.02898631,-0.00000049,0.00150495,0.00184110,-0.00000006,-
 0.01292810,0.00442343,0.00000015,0.01448191,0.01433667,0.00000026,-0.0
 0027276,0.00087589,0.,0.00013708,-0.00152768,-0.00000008,0.00080752,-0
 .00006345,0.00000003,0.71067817,0.00267678,-0.00344671,0.,0.02105135,-
 0.02178518,-0.00000010,0.01385681,0.01627308,-0.00000019,0.00762970,-0
 .00926914,-0.00000004,-0.00097928,0.00664621,0.00000003,-0.00474207,-0
 .00381239,-0.00000001,0.00028301,-0.00055055,0.,-0.00060154,-0.0000725
 0,0.,0.00008697,-0.00034270,0.,-0.00045814,0.00010787,0.,-0.05365810,-
 0.15295746,0.00000033,-0.00267082,-0.16175480,-0.00000022,0.08056528,-
 0.21342674,-0.00000123,0.03276614,0.00363437,-0.00000021,-0.00063787,-
 0.04143865,-0.00000082,-0.01270406,0.02339931,0.00000039,-0.00258308,-
 0.00084085,0.00000008,0.00833167,-0.01168195,-0.00000023,-0.01450395,-
 0.01408633,-0.00000025,-0.00107112,0.00077200,0.00000002,0.00143960,-0
 .00039550,0.,-0.00064671,0.00020328,-0.00000003,-0.06454917,0.56751433
 ,0.00000010,-0.00000004,-0.00033444,-0.00000010,-0.00000007,0.00151602
 ,0.00000019,-0.00000017,0.00123632,0.00000003,0.00000001,0.00136649,0.
 ,0.00000005,0.00119509,-0.00000006,-0.00000002,0.00095176,0.,0.0000000
 1,-0.00044617,0.,0.,-0.00043877,0.,0.,-0.00030680,0.,0.,-0.00003646,0.
 00000187,0.00000017,-0.05671144,0.00000019,-0.00000020,-0.03372327,0.0
 0000079,-0.00000126,-0.05713751,0.00000046,0.00000008,-0.00592776,-0.0
 0000028,-0.00000044,0.00386967,-0.00000013,0.00000021,0.00523369,0.,0.
 00000003,-0.00232183,0.00000016,-0.00000019,0.00375559,-0.00000017,-0.
 00000018,-0.00079084,0.,-0.00000002,0.00166716,0.,0.,-0.00035112,-0.00
 000001,0.00000002,-0.00067102,-0.00000363,0.00000172,0.13909934,-0.001
 26592,0.00321272,0.,0.00241430,-0.00041274,-0.00000003,0.00818531,0.00
 108261,0.00000003,-0.00293500,0.00047285,0.00000003,0.00009062,-0.0035
 2137,-0.00000002,0.00342761,0.00067751,0.,-0.00022293,0.00014283,0.,0.
 00032077,0.00003602,0.,0.00010624,-0.00007667,0.,0.00014669,0.00002153
 ,0.,0.02086083,0.03425284,0.00000008,-0.00251586,-0.00444825,-0.000000
 03,-0.01101864,-0.06708841,-0.00000163,-0.01503373,0.00326665,0.000000
 07,-0.54185549,-0.08831643,-0.00000773,-0.00094357,-0.02240475,-0.0000
 0045,-0.00123237,-0.00060133,0.,-0.08511215,0.01451038,-0.00000066,0.0
 1998150,0.02274997,0.00000035,-0.00021593,-0.00030994,-0.00000001,0.00
 186389,0.00060586,0.00000007,-0.00203155,0.00030085,0.00000017,-0.0428
 8511,0.02649969,0.00000054,0.64432803,-0.00033896,-0.00034258,0.000000
 02,0.00027951,-0.00195825,0.00000002,-0.00643375,-0.00235252,-0.000000
 18,0.00000998,-0.00030436,0.,0.00032028,0.00024635,0.,-0.00002984,-0.0
 0012053,0.,0.00007904,-0.00018522,0.,0.00010725,0.00007313,0.,0.000100
 45,-0.00009355,0.,0.00006446,-0.00005630,0.,0.01378715,-0.02957469,-0.
 00000041,-0.00001337,-0.00172862,-0.00000002,-0.05413435,-0.01048466,-
 0.00000099,0.00983192,-0.00923639,-0.00000025,-0.10220283,-0.11977821,
 -0.00000218,-0.00328692,0.00747737,0.00000012,-0.00233037,-0.00058933,
 0.00000004,0.03664388,0.02118443,0.00000037,-0.00167542,-0.01108452,-0
 .00000033,-0.00006170,0.00054632,0.00000002,-0.00245969,0.00296871,0.0
 0000012,0.00138219,0.00033371,0.,0.00246652,0.00473574,-0.00000003,0.1
 1672292,0.15472718,-0.00000002,0.,-0.00023338,0.00000004,-0.00000006,-
 0.00012723,-0.00000016,-0.00000017,0.00189944,-0.00000003,0.,0.0000303
 5,0.00000001,-0.00000002,-0.00009783,0.00000002,0.,0.00004250,0.,0.,0.
 00002700,0.,0.,0.00002588,0.,0.,-0.00001205,0.,0.,0.00000322,0.0000006
 3,-0.00000069,0.00243314,-0.00000004,-0.00000014,-0.00009182,-0.000000
 95,-0.00000073,0.01794117,0.,-0.00000012,0.00478832,-0.00000913,-0.000
 00259,-0.06905585,-0.00000010,-0.00000010,-0.00034687,-0.00000005,0.,-
 0.00003434,0.00000035,0.00000022,0.01760888,0.00000023,-0.00000020,0.0
 0468301,0.,0.00000002,-0.00043511,-0.00000005,0.00000014,-0.00314577,0
 .00000003,0.00000004,-0.00163420,-0.00000018,0.00000038,-0.00212370,0.
 00000991,0.00000374,0.03581690,0.00140177,0.00028143,0.,-0.00412504,0.
 00477859,0.00000002,0.01384292,0.02000565,-0.00000010,0.00171883,0.000
 11431,-0.00000001,-0.00014623,0.00027498,0.,-0.00050565,-0.00010404,0.
 ,-0.00018166,0.00032026,0.,-0.00054352,-0.00050005,0.,-0.00001730,0.00
 000250,0.,-0.00005112,-0.00005589,0.,-0.11550170,-0.12921214,0.0000005
 1,-0.00391340,-0.00209296,0.00000007,-0.00087355,0.00434250,0.00000001
 ,0.00119074,-0.00011773,-0.00000003,-0.01503015,0.00102932,0.00000004,
 0.00001826,0.00164104,0.00000003,0.00023997,0.00010351,0.,0.00308542,-
 0.00107399,0.00000001,-0.00133303,-0.00152899,-0.00000004,0.00007063,0
 .00000910,0.,-0.00003105,-0.00001652,0.,0.00011670,-0.00004445,0.,-0.0
 0349961,-0.03538110,0.00000005,0.00554245,-0.00882833,-0.00000050,0.11
 852529,-0.00097391,0.00128520,0.,0.00372779,0.00121868,-0.00000002,0.0
 0318763,-0.01117696,0.00000007,-0.00226424,0.00224286,0.00000002,-0.00
 033570,-0.00218216,-0.00000001,0.00137720,0.00093640,0.,-0.00002650,0.
 00012274,0.,0.00030674,0.00000064,0.,-0.00013542,0.00014280,0.,0.00000
 262,0.00008822,0.,-0.11520416,-0.36902464,0.00000148,0.00064764,0.0041
 9255,-0.00000003,0.00921838,-0.01619309,-0.00000020,-0.00845737,0.0001
 0194,0.00000011,0.03416335,0.01474482,0.00000072,0.00187432,-0.0086127
 2,-0.00000017,-0.00048899,0.00001216,-0.00000001,-0.01282476,0.0027574
 0,-0.00000008,0.00633415,0.00752606,0.00000013,0.00000825,-0.00019385,
 -0.00000001,0.00016305,-0.00015410,0.,-0.00032030,0.00002698,0.0000000
 4,-0.02865744,0.01257526,0.00000030,-0.03737533,-0.00440321,0.00000028
 ,0.14605301,0.36396603,0.,0.00000002,0.00087205,0.00000001,0.,0.002176
 84,0.00000015,-0.00000009,-0.00323836,-0.00000004,0.,-0.00066767,0.,-0
 .00000003,-0.00023270,0.00000002,0.00000001,-0.00008419,0.,0.,-0.00000
 696,0.,0.,0.00005773,0.,0.,0.00005576,0.,0.,0.00000174,0.00000068,0.00
 000231,-0.01463504,0.,-0.00000007,0.00441382,0.00000009,-0.00000029,-0
 .00328043,-0.00000014,0.,-0.00090159,0.00000054,0.00000043,0.00048956,
 0.00000004,-0.00000013,0.00006460,-0.00000001,0.,-0.00005011,-0.000000
 30,-0.00000004,0.00132862,0.00000008,0.00000015,0.00015384,0.,0.,0.000
 21121,0.,0.,-0.00001153,-0.00000002,0.,-0.00020053,-0.00000037,0.00000
 038,0.00143000,-0.00000066,-0.00000004,-0.00796166,-0.00000007,-0.0000
 0262,0.02001499\\0.00081094,0.00269541,-0.00000007,0.00375839,0.005587
 08,-0.00000002,0.00688904,-0.00013517,0.00000048,-0.00056400,0.0010161
 5,-0.00000001,-0.00021899,-0.00203869,0.00000002,0.00075405,0.00084809
 ,-0.00000002,-0.00011318,0.00036622,-0.00000002,0.00019638,-0.00001860
 ,0.00000001,-0.00000553,0.00001336,0.,0.00002157,0.00006619,0.,-0.0095
 9405,0.00620769,0.,0.00235142,0.00672596,-0.00000006,-0.00587792,0.003
 53797,0.00000163,0.00591277,-0.00067556,0.00000017,0.00974942,0.002395
 68,-0.00000513,-0.00196724,0.00527151,0.00000002,0.00009646,0.00000595
 ,0.,-0.00222744,0.00005759,0.00000145,-0.00406237,-0.00113313,0.000000
 17,-0.00009208,-0.00007629,0.00000002,-0.00024936,0.00000899,0.0000000
 8,-0.00034771,-0.00011428,-0.00000020,-0.00570159,-0.00383888,0.000000
 07,-0.00534896,-0.00769742,0.00000229,0.00582997,-0.01907583,-0.000000
 87\\\@
 The archive entry for this job was punched.


 I CLAIM NOT TO HAVE CONTROLLED EVENTS,
 BUT CONFESS PLAINLY THAT EVENTS HAVE CONTROLLED ME.

                                         A. LINCOLN
 Job cpu time:       0 days  1 hours  0 minutes  9.1 seconds.
 Elapsed time:       0 days  0 hours  6 minutes  4.5 seconds.
 File lengths (MBytes):  RWF=    544 Int=      0 D2E=      0 Chk=     36 Scr=      8
 Normal termination of Gaussian 16 at Tue Oct 27 22:56:08 2020.
