 Entering Gaussian System, Link 0=g16
 Initial command:
 /gpfs/loomis/apps/avx/software/Gaussian/16-C.01_AVX/g16/l1.exe "/home/fas/batista/pev4/scratch60/gauss-scratch/Gau-32670.inp" -scrdir="/home/fas/batista/pev4/scratch60/gauss-scratch/"
 Entering Link 1 = /gpfs/loomis/apps/avx/software/Gaussian/16-C.01_AVX/g16/l1.exe PID=     32671.
  
 Copyright (c) 1988-2019, Gaussian, Inc.  All Rights Reserved.
  
 This is part of the Gaussian(R) 16 program.  It is based on
 the Gaussian(R) 09 system (copyright 2009, Gaussian, Inc.),
 the Gaussian(R) 03 system (copyright 2003, Gaussian, Inc.),
 the Gaussian(R) 98 system (copyright 1998, Gaussian, Inc.),
 the Gaussian(R) 94 system (copyright 1995, Gaussian, Inc.),
 the Gaussian 92(TM) system (copyright 1992, Gaussian, Inc.),
 the Gaussian 90(TM) system (copyright 1990, Gaussian, Inc.),
 the Gaussian 88(TM) system (copyright 1988, Gaussian, Inc.),
 the Gaussian 86(TM) system (copyright 1986, Carnegie Mellon
 University), and the Gaussian 82(TM) system (copyright 1983,
 Carnegie Mellon University). Gaussian is a federally registered
 trademark of Gaussian, Inc.
  
 This software contains proprietary and confidential information,
 including trade secrets, belonging to Gaussian, Inc.
  
 This software is provided under written license and may be
 used, copied, transmitted, or stored only in accord with that
 written license.
  
 The following legend is applicable only to US Government
 contracts under FAR:
  
                    RESTRICTED RIGHTS LEGEND
  
 Use, reproduction and disclosure by the US Government is
 subject to restrictions as set forth in subparagraphs (a)
 and (c) of the Commercial Computer Software - Restricted
 Rights clause in FAR 52.227-19.
  
 Gaussian, Inc.
 340 Quinnipiac St., Bldg. 40, Wallingford CT 06492
  
  
 ---------------------------------------------------------------
 Warning -- This program may not be used in any manner that
 competes with the business of Gaussian, Inc. or will provide
 assistance to any competitor of Gaussian, Inc.  The licensee
 of this program is prohibited from giving any competitor of
 Gaussian, Inc. access to this program.  By using this program,
 the user acknowledges that Gaussian, Inc. is engaged in the
 business of creating and licensing software in the field of
 computational chemistry and represents and warrants to the
 licensee that it is not a competitor of Gaussian, Inc. and that
 it will not use this program in any manner prohibited above.
 ---------------------------------------------------------------
  

 Cite this work as:
 Gaussian 16, Revision C.01,
 M. J. Frisch, G. W. Trucks, H. B. Schlegel, G. E. Scuseria, 
 M. A. Robb, J. R. Cheeseman, G. Scalmani, V. Barone, 
 G. A. Petersson, H. Nakatsuji, X. Li, M. Caricato, A. V. Marenich, 
 J. Bloino, B. G. Janesko, R. Gomperts, B. Mennucci, H. P. Hratchian, 
 J. V. Ortiz, A. F. Izmaylov, J. L. Sonnenberg, D. Williams-Young, 
 F. Ding, F. Lipparini, F. Egidi, J. Goings, B. Peng, A. Petrone, 
 T. Henderson, D. Ranasinghe, V. G. Zakrzewski, J. Gao, N. Rega, 
 G. Zheng, W. Liang, M. Hada, M. Ehara, K. Toyota, R. Fukuda, 
 J. Hasegawa, M. Ishida, T. Nakajima, Y. Honda, O. Kitao, H. Nakai, 
 T. Vreven, K. Throssell, J. A. Montgomery, Jr., J. E. Peralta, 
 F. Ogliaro, M. J. Bearpark, J. J. Heyd, E. N. Brothers, K. N. Kudin, 
 V. N. Staroverov, T. A. Keith, R. Kobayashi, J. Normand, 
 K. Raghavachari, A. P. Rendell, J. C. Burant, S. S. Iyengar, 
 J. Tomasi, M. Cossi, J. M. Millam, M. Klene, C. Adamo, R. Cammi, 
 J. W. Ochterski, R. L. Martin, K. Morokuma, O. Farkas, 
 J. B. Foresman, and D. J. Fox, Gaussian, Inc., Wallingford CT, 2019.
 
 ******************************************
 Gaussian 16:  ES64L-G16RevC.01  3-Jul-2019
                27-Oct-2020 
 ******************************************
 %chk=config_9_7.chk
 %mem=58GB
 %nprocshared=10
 Will use up to   10 processors via shared memory.
 ----------------------------------------------------------------------
 #p opt=addgic freq wb97xd/cc-pvdz nosymm int=ultrafine scrf=(solvent=C
 arbonTetraChloride)
 ----------------------------------------------------------------------
 1/18=20,19=15,26=6,38=1,145=903/1,3;
 2/9=110,12=2,15=1,17=6,18=5,40=1/2;
 3/5=16,11=2,25=1,30=1,70=2201,71=1,72=11,74=-58,75=-5/1,2,3;
 4//1;
 5/5=2,38=5,53=11/2;
 6/7=2,8=2,9=2,10=2,28=1/1;
 7/30=1/1,2,3,16;
 1/18=20,19=15,26=6,145=903/3(2);
 2/9=110,15=1/2;
 99//99;
 2/9=110,15=1/2;
 3/5=16,11=2,25=1,30=1,70=2205,71=1,72=11,74=-58,75=-5/1,2,3;
 4/5=5,16=3,69=1/1;
 5/5=2,38=5,53=11/2;
 7/30=1/1,2,3,16;
 1/18=20,19=15,26=6,145=903/3(-5);
 2/9=110,15=1/2;
 6/7=2,8=2,9=2,10=2,19=2,28=1/1;
 99/9=1/99;
 Leave Link    1 at Tue Oct 27 21:59:31 2020, MaxMem=  7784628224 cpu:               4.5 elap:               0.5
 (Enter /gpfs/loomis/apps/avx/software/Gaussian/16-C.01_AVX/g16/l101.exe)
 ------------------------------------------------
 NM 2D-scan of HBT TD-WB97XD pVDZ in CTC Relaxed.
 ------------------------------------------------
 Symbolic Z-matrix:
 Charge =  0 Multiplicity = 1
 C                     1.67757  -3.26203  -0.00002 
 C                     1.00548  -2.04094  -0.00002 
 C                     1.71464  -0.81084  -0.00002 
 C                     3.11542  -0.81527  -0.00002 
 C                     3.77681  -2.03651  -0.00002 
 C                     3.07254  -3.24926  -0.00002 
 H                     1.12688  -4.20354  -0.00002 
 H                     3.66171   0.12837  -0.00002 
 H                     4.86802  -2.04987  -0.00002 
 H                     3.61847  -4.19343  -0.00002 
 N                     0.89838   0.2879   -0.00002 
 S                    -0.73262  -1.75556  -0.00002 
 C                    -1.39077   1.02732   0. 
 C                    -2.76807   0.83518  0. 
 C                    -0.86606   2.41975   0.00003 
 C                    -3.64941   1.93976   0.00003 
 H                    -3.18189  -0.17583  -0.00002 
 C                    -1.79854   3.49287   0.00006 
 C                    -3.1722    3.25645   0.00005 
 H                    -4.72438   1.75265   0.00002 
 H                    -1.382     4.50107   0.00008 
 H                    -3.87376   4.09092   0.00008 
 C                    -0.42477  -0.0214   -0.00002 
 O                     0.38796   2.63466   0.00004 
 H                     1.00447   1.27616   0. 
 
 Initializing the GIC definitions file.
 Number of initial coordinates =   134
 Number of input entries/lines =    52
 Number of additional coordinates =     2
 Number of removed coordinates =     0
 Number of frozen coordinates =     2
 Number of final active and frozen coordinates =   136
 ITRead=  0  0  0  0  0  0  0  0  0  0  0  0  0  0  0  0  0  0  0  0
 ITRead=  0  0  0  0  0
 MicOpt= -1 -1 -1 -1 -1 -1 -1 -1 -1 -1 -1 -1 -1 -1 -1 -1 -1 -1 -1 -1
 MicOpt= -1 -1 -1 -1 -1
 NAtoms=     25 NQM=       25 NQMF=       0 NMMI=      0 NMMIF=      0
                NMic=       0 NMicF=      0.
                    Isotopes and Nuclear Properties:
 (Nuclear quadrupole moments (NQMom) in fm**2, nuclear magnetic moments (NMagM)
  in nuclear magnetons)

  Atom         1           2           3           4           5           6           7           8           9          10
 IAtWgt=          12          12          12          12          12          12           1           1           1           1
 AtmWgt=  12.0000000  12.0000000  12.0000000  12.0000000  12.0000000  12.0000000   1.0078250   1.0078250   1.0078250   1.0078250
 NucSpn=           0           0           0           0           0           0           1           1           1           1
 AtZEff=  -0.0000000  -0.0000000  -0.0000000  -0.0000000  -0.0000000  -0.0000000  -0.0000000  -0.0000000  -0.0000000  -0.0000000
 NQMom=    0.0000000   0.0000000   0.0000000   0.0000000   0.0000000   0.0000000   0.0000000   0.0000000   0.0000000   0.0000000
 NMagM=    0.0000000   0.0000000   0.0000000   0.0000000   0.0000000   0.0000000   2.7928460   2.7928460   2.7928460   2.7928460
 AtZNuc=   6.0000000   6.0000000   6.0000000   6.0000000   6.0000000   6.0000000   1.0000000   1.0000000   1.0000000   1.0000000

  Atom        11          12          13          14          15          16          17          18          19          20
 IAtWgt=          14          32          12          12          12          12           1          12          12           1
 AtmWgt=  14.0030740  31.9720718  12.0000000  12.0000000  12.0000000  12.0000000   1.0078250  12.0000000  12.0000000   1.0078250
 NucSpn=           2           0           0           0           0           0           1           0           0           1
 AtZEff=  -0.0000000  -0.0000000  -0.0000000  -0.0000000  -0.0000000  -0.0000000  -0.0000000  -0.0000000  -0.0000000  -0.0000000
 NQMom=    2.0440000   0.0000000   0.0000000   0.0000000   0.0000000   0.0000000   0.0000000   0.0000000   0.0000000   0.0000000
 NMagM=    0.4037610   0.0000000   0.0000000   0.0000000   0.0000000   0.0000000   2.7928460   0.0000000   0.0000000   2.7928460
 AtZNuc=   7.0000000  16.0000000   6.0000000   6.0000000   6.0000000   6.0000000   1.0000000   6.0000000   6.0000000   1.0000000

  Atom        21          22          23          24          25
 IAtWgt=           1           1          12          16           1
 AtmWgt=   1.0078250   1.0078250  12.0000000  15.9949146   1.0078250
 NucSpn=           1           1           0           0           1
 AtZEff=  -0.0000000  -0.0000000  -0.0000000  -0.0000000  -0.0000000
 NQMom=    0.0000000   0.0000000   0.0000000   0.0000000   0.0000000
 NMagM=    2.7928460   2.7928460   0.0000000   0.0000000   2.7928460
 AtZNuc=   1.0000000   1.0000000   6.0000000   8.0000000   1.0000000
 Leave Link  101 at Tue Oct 27 21:59:34 2020, MaxMem=  7784628224 cpu:              31.6 elap:               3.2
 (Enter /gpfs/loomis/apps/avx/software/Gaussian/16-C.01_AVX/g16/l103.exe)

 GradGradGradGradGradGradGradGradGradGradGradGradGradGradGradGradGradGrad
 Berny optimization.
 Initialization pass.
                           ----------------------------
                           !    Initial Parameters    !
                           ! (Angstroms and Degrees)  !
 --------------------------                            --------------------------
 ! Name  Definition              Value          Derivative Info.                !
 --------------------------------------------------------------------------------
 ! R1    R(1,2)                  1.3938         estimate D2E/DX2                !
 ! R2    R(1,6)                  1.395          estimate D2E/DX2                !
 ! R3    R(1,7)                  1.0907         estimate D2E/DX2                !
 ! R4    R(2,3)                  1.4199         estimate D2E/DX2                !
 ! R5    R(2,12)                 1.7614         estimate D2E/DX2                !
 ! R6    R(3,4)                  1.4008         estimate D2E/DX2                !
 ! R7    R(3,11)                 1.3688         estimate D2E/DX2                !
 ! R8    R(4,5)                  1.3888         estimate D2E/DX2                !
 ! R9    R(4,8)                  1.0904         estimate D2E/DX2                !
 ! R10   R(5,6)                  1.4024         estimate D2E/DX2                !
 ! R11   R(5,9)                  1.0913         estimate D2E/DX2                !
 ! R12   R(6,10)                 1.0906         estimate D2E/DX2                !
 ! R13   R(11,23)                1.3588         estimate D2E/DX2                !
 ! R14   R(11,25)                0.9939         estimate D2E/DX2                !
 ! R15   R(12,23)                1.7613         estimate D2E/DX2                !
 ! R16   R(13,14)                1.3906         estimate D2E/DX2                !
 ! R17   R(13,15)                1.488          estimate D2E/DX2                !
 ! R18   R(13,23)                1.4258         estimate D2E/DX2                !
 ! R19   R(14,16)                1.4131         estimate D2E/DX2                !
 ! R20   R(14,17)                1.0924         estimate D2E/DX2                !
 ! R21   R(15,18)                1.4217         estimate D2E/DX2                !
 ! R22   R(15,24)                1.2723         estimate D2E/DX2                !
 ! R23   R(16,19)                1.4005         estimate D2E/DX2                !
 ! R24   R(16,20)                1.0911         estimate D2E/DX2                !
 ! R25   R(18,19)                1.3939         estimate D2E/DX2                !
 ! R26   R(18,21)                1.0909         estimate D2E/DX2                !
 ! R27   R(19,22)                1.0902         estimate D2E/DX2                !
 ! A1    A(2,1,6)              118.3038         estimate D2E/DX2                !
 ! A2    A(2,1,7)              120.8483         estimate D2E/DX2                !
 ! A3    A(6,1,7)              120.848          estimate D2E/DX2                !
 ! A4    A(1,2,3)              121.2078         estimate D2E/DX2                !
 ! A5    A(1,2,12)             128.1528         estimate D2E/DX2                !
 ! A6    A(3,2,12)             110.6394         estimate D2E/DX2                !
 ! A7    A(2,3,4)              119.7826         estimate D2E/DX2                !
 ! A8    A(2,3,11)             113.4276         estimate D2E/DX2                !
 ! A9    A(4,3,11)             126.7898         estimate D2E/DX2                !
 ! A10   A(3,4,5)              118.6201         estimate D2E/DX2                !
 ! A11   A(3,4,8)              119.8863         estimate D2E/DX2                !
 ! A12   A(5,4,8)              121.4936         estimate D2E/DX2                !
 ! A13   A(4,5,6)              121.4166         estimate D2E/DX2                !
 ! A14   A(4,5,9)              119.1403         estimate D2E/DX2                !
 ! A15   A(6,5,9)              119.4431         estimate D2E/DX2                !
 ! A16   A(1,6,5)              120.6692         estimate D2E/DX2                !
 ! A17   A(1,6,10)             119.512          estimate D2E/DX2                !
 ! A18   A(5,6,10)             119.8188         estimate D2E/DX2                !
 ! A19   A(3,11,23)            113.4512         estimate D2E/DX2                !
 ! A20   A(3,11,25)            137.2644         estimate D2E/DX2                !
 ! A21   A(23,11,25)           109.2844         estimate D2E/DX2                !
 ! A22   A(2,12,23)             89.2581         estimate D2E/DX2                !
 ! A23   A(14,13,15)           118.5899         estimate D2E/DX2                !
 ! A24   A(14,13,23)           124.7066         estimate D2E/DX2                !
 ! A25   A(15,13,23)           116.7035         estimate D2E/DX2                !
 ! A26   A(13,14,16)           120.6442         estimate D2E/DX2                !
 ! A27   A(13,14,17)           120.2023         estimate D2E/DX2                !
 ! A28   A(16,14,17)           119.1536         estimate D2E/DX2                !
 ! A29   A(13,15,18)           118.3635         estimate D2E/DX2                !
 ! A30   A(13,15,24)           120.3728         estimate D2E/DX2                !
 ! A31   A(18,15,24)           121.2636         estimate D2E/DX2                !
 ! A32   A(14,16,19)           121.4917         estimate D2E/DX2                !
 ! A33   A(14,16,20)           118.7122         estimate D2E/DX2                !
 ! A34   A(19,16,20)           119.796          estimate D2E/DX2                !
 ! A35   A(15,18,19)           121.223          estimate D2E/DX2                !
 ! A36   A(15,18,21)           116.5631         estimate D2E/DX2                !
 ! A37   A(19,18,21)           122.2139         estimate D2E/DX2                !
 ! A38   A(16,19,18)           119.6877         estimate D2E/DX2                !
 ! A39   A(16,19,22)           120.0233         estimate D2E/DX2                !
 ! A40   A(18,19,22)           120.2891         estimate D2E/DX2                !
 ! A41   A(11,23,12)           113.2236         estimate D2E/DX2                !
 ! A42   A(11,23,13)           119.4912         estimate D2E/DX2                !
 ! A43   A(12,23,13)           127.2852         estimate D2E/DX2                !
 ! D1    D(6,1,2,3)              0.0            estimate D2E/DX2                !
 ! D2    D(6,1,2,12)          -179.9999         estimate D2E/DX2                !
 ! D3    D(7,1,2,3)            179.9999         estimate D2E/DX2                !
 ! D4    D(7,1,2,12)             0.0            estimate D2E/DX2                !
 ! D5    D(2,1,6,5)              0.0            estimate D2E/DX2                !
 ! D6    D(2,1,6,10)           180.0            estimate D2E/DX2                !
 ! D7    D(7,1,6,5)           -180.0            estimate D2E/DX2                !
 ! D8    D(7,1,6,10)             0.0            estimate D2E/DX2                !
 ! D9    D(1,2,3,4)              0.0            estimate D2E/DX2                !
 ! D10   D(1,2,3,11)           180.0            estimate D2E/DX2                !
 ! D11   D(12,2,3,4)          -180.0            estimate D2E/DX2                !
 ! D12   D(12,2,3,11)           -0.0001         estimate D2E/DX2                !
 ! D13   D(1,2,12,23)          179.9999         estimate D2E/DX2                !
 ! D14   D(3,2,12,23)           -0.0001         estimate D2E/DX2                !
 ! D15   D(2,3,4,5)             -0.0001         estimate D2E/DX2                !
 ! D16   D(2,3,4,8)            180.0            estimate D2E/DX2                !
 ! D17   D(11,3,4,5)          -180.0            estimate D2E/DX2                !
 ! D18   D(11,3,4,8)             0.0            estimate D2E/DX2                !
 ! D19   D(2,3,11,23)            0.0002         estimate D2E/DX2                !
 ! D20   D(2,3,11,25)          179.9982         estimate D2E/DX2                !
 ! D21   D(4,3,11,23)         -179.9998         estimate D2E/DX2                !
 ! D22   D(4,3,11,25)           -0.0019         estimate D2E/DX2                !
 ! D23   D(3,4,5,6)              0.0            estimate D2E/DX2                !
 ! D24   D(3,4,5,9)           -180.0            estimate D2E/DX2                !
 ! D25   D(8,4,5,6)           -180.0            estimate D2E/DX2                !
 ! D26   D(8,4,5,9)              0.0            estimate D2E/DX2                !
 ! D27   D(4,5,6,1)              0.0            estimate D2E/DX2                !
 ! D28   D(4,5,6,10)          -180.0            estimate D2E/DX2                !
 ! D29   D(9,5,6,1)           -180.0            estimate D2E/DX2                !
 ! D30   D(9,5,6,10)             0.0            estimate D2E/DX2                !
 ! D31   D(3,11,23,12)          -0.0003         estimate D2E/DX2                !
 ! D32   D(3,11,23,13)         179.9991         estimate D2E/DX2                !
 ! D33   D(25,11,23,12)       -179.9988         estimate D2E/DX2                !
 ! D34   D(25,11,23,13)          0.0006         estimate D2E/DX2                !
 ! D35   D(2,12,23,11)           0.0002         estimate D2E/DX2                !
 ! D36   D(2,12,23,13)        -179.9992         estimate D2E/DX2                !
 ! D37   D(15,13,14,16)         -0.0001         estimate D2E/DX2                !
 ! D38   D(15,13,14,17)        179.9999         estimate D2E/DX2                !
 ! D39   D(23,13,14,16)        179.9998         estimate D2E/DX2                !
 ! D40   D(23,13,14,17)         -0.0002         estimate D2E/DX2                !
 ! D41   D(14,13,15,18)          0.0001         estimate D2E/DX2                !
 ! D42   D(14,13,15,24)        180.0            estimate D2E/DX2                !
 ! D43   D(23,13,15,18)       -179.9998         estimate D2E/DX2                !
 ! D44   D(23,13,15,24)          0.0001         estimate D2E/DX2                !
 ! D45   D(14,13,23,11)        179.9995         estimate D2E/DX2                !
 ! D46   D(14,13,23,12)         -0.0012         estimate D2E/DX2                !
 ! D47   D(15,13,23,11)         -0.0006         estimate D2E/DX2                !
 ! D48   D(15,13,23,12)        179.9987         estimate D2E/DX2                !
 ! D49   D(13,14,16,19)          0.0            estimate D2E/DX2                !
 ! D50   D(13,14,16,20)       -179.9999         estimate D2E/DX2                !
 ! D51   D(17,14,16,19)       -180.0            estimate D2E/DX2                !
 ! D52   D(17,14,16,20)          0.0001         estimate D2E/DX2                !
 ! D53   D(13,15,18,19)          0.0001         estimate D2E/DX2                !
 ! D54   D(13,15,18,21)        179.9998         estimate D2E/DX2                !
 ! D55   D(24,15,18,19)       -179.9998         estimate D2E/DX2                !
 ! D56   D(24,15,18,21)          0.0            estimate D2E/DX2                !
 ! D57   D(14,16,19,18)          0.0001         estimate D2E/DX2                !
 ! D58   D(14,16,19,22)       -179.9999         estimate D2E/DX2                !
 ! D59   D(20,16,19,18)       -179.9999         estimate D2E/DX2                !
 ! D60   D(20,16,19,22)          0.0001         estimate D2E/DX2                !
 ! D61   D(15,18,19,16)         -0.0002         estimate D2E/DX2                !
 ! D62   D(15,18,19,22)        179.9999         estimate D2E/DX2                !
 ! D63   D(21,18,19,16)       -179.9999         estimate D2E/DX2                !
 ! D64   D(21,18,19,22)          0.0001         estimate D2E/DX2                !
 ! Qtot  GIC-1                  30.0            Frozen                          !
 ! Ptot  GIC-2                 -20.0            Frozen                          !
 --------------------------------------------------------------------------------
 NOTE: GIC-type coordinates are in arbitrary units.
 Trust Radius=3.00D-01 FncErr=5.00D-06 GrdErr=5.00D-06 EigMax=2.50D+02 EigMin=1.00D-04
 Number of steps in this run=    146 maximum allowed number of steps=    150.
 GradGradGradGradGradGradGradGradGradGradGradGradGradGradGradGradGradGrad

 Leave Link  103 at Tue Oct 27 21:59:34 2020, MaxMem=  7784628224 cpu:               0.2 elap:               0.0
 (Enter /gpfs/loomis/apps/avx/software/Gaussian/16-C.01_AVX/g16/l202.exe)
                          Input orientation:                          
 ---------------------------------------------------------------------
 Center     Atomic      Atomic             Coordinates (Angstroms)
 Number     Number       Type             X           Y           Z
 ---------------------------------------------------------------------
      1          6           0        1.677568   -3.262035   -0.000022
      2          6           0        1.005475   -2.040941   -0.000021
      3          6           0        1.714637   -0.810841   -0.000021
      4          6           0        3.115419   -0.815271   -0.000022
      5          6           0        3.776810   -2.036506   -0.000022
      6          6           0        3.072543   -3.249259   -0.000022
      7          1           0        1.126884   -4.203540   -0.000021
      8          1           0        3.661715    0.128370   -0.000022
      9          1           0        4.868021   -2.049866   -0.000023
     10          1           0        3.618468   -4.193432   -0.000022
     11          7           0        0.898381    0.287903   -0.000021
     12         16           0       -0.732616   -1.755561   -0.000020
     13          6           0       -1.390770    1.027323    0.000003
     14          6           0       -2.768069    0.835177   -0.000001
     15          6           0       -0.866064    2.419748    0.000032
     16          6           0       -3.649409    1.939758    0.000025
     17          1           0       -3.181893   -0.175830   -0.000024
     18          6           0       -1.798541    3.492872    0.000056
     19          6           0       -3.172201    3.256448    0.000054
     20          1           0       -4.724381    1.752648    0.000022
     21          1           0       -1.381999    4.501065    0.000080
     22          1           0       -3.873761    4.090916    0.000075
     23          6           0       -0.424772   -0.021402   -0.000016
     24          8           0        0.387960    2.634665    0.000037
     25          1           0        1.004465    1.276162    0.000001
 ---------------------------------------------------------------------
                    Distance matrix (angstroms):
                    1          2          3          4          5
     1  C    0.000000
     2  C    1.393835   0.000000
     3  C    2.451474   1.419880   0.000000
     4  C    2.837969   2.440109   1.400789   0.000000
     5  C    2.430790   2.771338   2.398919   1.388832   0.000000
     6  C    1.395034   2.394327   2.791020   2.434366   1.402413
     7  H    1.090727   2.166004   3.443234   3.928694   3.423177
     8  H    3.928319   3.429507   2.161765   1.090366   2.167934
     9  H    3.412967   3.862556   3.388069   2.143791   1.091292
    10  H    2.152811   3.385402   3.881559   3.415411   2.162730
    11  N    3.634445   2.331306   1.368763   2.476338   3.699762
    12  S    2.842261   1.761365   2.623270   3.961252   4.518170
    13  C    5.273830   3.893102   3.608656   4.868356   6.007573
    14  C    6.045728   4.744649   4.775356   6.110598   7.147168
    15  C    6.225168   4.837397   4.134818   5.130063   6.435409
    16  C    7.445490   6.124861   6.028166   7.304319   8.423741
    17  H    5.756650   4.583961   4.937535   6.329694   7.203171
    18  C    7.596848   6.203676   5.555571   6.535067   7.852297
    19  C    8.124708   6.746504   6.357989   7.490865   8.735223
    20  H    8.132158   6.871868   6.930543   8.249646   9.307413
    21  H    8.344259   6.964042   6.148618   6.963490   8.327854
    22  H    9.213204   7.836238   7.433533   8.539280   9.801864
    23  C    3.862840   2.474701   2.280413   3.628109   4.659822
    24  O    6.036071   4.716208   3.692097   4.397850   5.770975
    25  H    4.587842   3.317103   2.204523   2.971568   4.319684
                    6          7          8          9         10
     6  C    0.000000
     7  H    2.167081   0.000000
     8  H    3.428630   5.019045   0.000000
     9  H    2.159233   4.316760   2.489958   0.000000
    10  H    1.090640   2.491604   4.322019   2.481181   0.000000
    11  N    4.151927   4.497252   2.767935   4.606865   5.242255
    12  S    4.087832   3.074141   4.781144   5.608364   4.987499
    13  C    6.181450   5.805214   5.131833   6.974350   7.235244
    14  C    7.127087   6.368620   6.468515   8.162924   8.128638
    15  C    6.902917   6.916631   5.074563   7.270294   7.990318
    16  C    8.491792   7.781586   7.532175   9.405515   9.509892
    17  H    6.968783   5.898136   6.850366   8.265176   7.898483
    18  C    8.317680   8.233642   6.413600   8.669775   9.403364
    19  C    9.017819   8.610084   7.515801   9.633386  10.080372
    20  H    9.263428   8.349459   8.541948  10.318589  10.244950
    21  H    8.939266   9.058954   6.675291   9.054140  10.029903
    22  H   10.105905   9.685270   8.513822  10.683068  11.169777
    23  C    4.759230   4.460708   4.089230   5.668185   5.809787
    24  O    6.467422   6.878012   4.122982   6.481958   7.553747
    25  H    4.975578   5.481069   2.894546   5.097992   6.062134
                   11         12         13         14         15
    11  N    0.000000
    12  S    2.614555   0.000000
    13  C    2.405609   2.859652   0.000000
    14  C    3.707069   3.294691   1.390638   0.000000
    15  C    2.767314   4.177441   1.488006   2.475579   0.000000
    16  C    4.838493   4.707766   2.435978   1.413103   2.824430
    17  H    4.106542   2.914534   2.157708   1.092422   3.478519
    18  C    4.188700   5.355580   2.499041   2.829015   1.421657
    19  C    5.038045   5.574209   2.853506   2.454766   2.453230
    20  H    5.810416   5.314293   3.411607   2.160766   3.915563
    21  H    4.790706   6.290236   3.473753   3.919174   2.144311
    22  H    6.102151   6.636873   3.943456   3.438371   3.440791
    23  C    1.358824   1.761271   1.425825   2.494948   2.480716
    24  O    2.401629   4.530979   2.397379   3.632998   1.272307
    25  H    0.993936   3.494109   2.408126   3.798221   2.192412
                   16         17         18         19         20
    16  C    0.000000
    17  H    2.166630   0.000000
    18  C    2.416169   3.920847   0.000000
    19  C    1.400500   3.432292   1.393857   0.000000
    20  H    1.091135   2.469473   3.404250   2.161175   0.000000
    21  H    3.420737   5.011284   1.090853   2.180343   4.327276
    22  H    2.162826   4.322477   2.159674   1.090194   2.488182
    23  C    3.774180   2.761443   3.773243   4.276993   4.651225
    24  O    4.096736   4.543428   2.348895   3.614050   5.187869
    25  H    4.700948   4.431014   3.573605   4.622345   5.748628
                   21         22         23         24         25
    21  H    0.000000
    22  H    2.525292   0.000000
    23  C    4.622661   5.367186   0.000000
    24  O    2.572198   4.503658   2.777630   0.000000
    25  H    4.011884   5.632045   1.930386   1.491848   0.000000
 Symmetry turned off by external request.
 Stoichiometry    C13H9NOS
 Framework group  C1[X(C13H9NOS)]
 Deg. of freedom    69
 Full point group                 C1      NOp   1
 Rotational constants (GHZ):           1.3811375           0.2858341           0.2368224
 Leave Link  202 at Tue Oct 27 21:59:34 2020, MaxMem=  7784628224 cpu:               0.1 elap:               0.0
 (Enter /gpfs/loomis/apps/avx/software/Gaussian/16-C.01_AVX/g16/l301.exe)
 Standard basis: CC-pVDZ (5D, 7F)
 Ernie: Thresh=  0.10000D-02 Tol=  0.10000D-05 Strict=F.
 Ernie:  40 primitive shells out of 425 were deleted.
   273 basis functions,   629 primitive gaussians,   289 cartesian basis functions
    59 alpha electrons       59 beta electrons
       nuclear repulsion energy      1098.8722731781 Hartrees.
 IExCor= 4639 DFT=T Ex+Corr=wB97XD ExCW=0 ScaHFX=  1.000000
 ScaDFX=  1.000000  1.000000  1.000000  1.000000 ScalE2=  1.000000  1.000000
 IRadAn=      5 IRanWt=     -1 IRanGd=            0 ICorTp=0 IEmpDi=121
 HFx  wShort=  0.000000 wLong=  0.200000 cFull=  0.222036 cShort=  0.000000 cLong=  0.777964
 DFx  wShort=  0.000000 wLong=  0.200000 cFull=  0.000000 cShort=  0.000000 cLong=  1.000000
 NAtoms=   25 NActive=   25 NUniq=   25 SFac= 1.00D+00 NAtFMM=   60 NAOKFM=F Big=F
 Integral buffers will be    131072 words long.
 Raffenetti 2 integral format.
 Two-electron integral symmetry is turned off.
 R6Disp:  Grimme-D2 Dispersion energy=       -0.0140295753 Hartrees.
 Nuclear repulsion after empirical dispersion term =     1098.8582436028 Hartrees.
 ------------------------------------------------------------------------------
 Polarizable Continuum Model (PCM)
 =================================
 Model                : PCM.
 Atomic radii         : UFF (Universal Force Field).
 Polarization charges : Total charges.
 Charge compensation  : None.
 Solution method      : On-the-fly selection.
 Cavity type          : Scaled VdW (van der Waals Surface) (Alpha=1.100).
 Cavity algorithm     : GePol (No added spheres)
                        Default sphere list used, NSphG=   25.
                        Lebedev-Laikov grids with approx.  5.0 points / Ang**2.
                        Smoothing algorithm: York/Karplus (Gamma=1.0000).
                        Polarization charges: spherical gaussians, with
                                              point-specific exponents (IZeta= 3).
                        Self-potential: point-specific (ISelfS= 7).
                        Self-field    : sphere-specific E.n sum rule (ISelfD= 2).
 1st derivatives      : Analytical E(r).r(x)/FMM algorithm (CHGder, D1EAlg=3).
                        Cavity 1st derivative terms included.
 Solvent              : CarbonTetraChloride, Eps=   2.228000 Eps(inf)=   2.131892
 ------------------------------------------------------------------------------
 GePol: Number of generator spheres                  =      25
 GePol: Total number of spheres                      =      25
 GePol: Number of exposed spheres                    =      25 (100.00%)
 GePol: Number of points                             =    2194
 GePol: Average weight of points                     =       0.12
 GePol: Minimum weight of points                     =   0.25D-07
 GePol: Maximum weight of points                     =    0.20577
 GePol: Number of points with low weight             =     148
 GePol: Fraction of low-weight points (<1% of avg)   =       6.75%
 GePol: Cavity surface area                          =    273.838 Ang**2
 GePol: Cavity volume                                =    293.099 Ang**3
 Leave Link  301 at Tue Oct 27 21:59:34 2020, MaxMem=  7784628224 cpu:               0.8 elap:               0.1
 (Enter /gpfs/loomis/apps/avx/software/Gaussian/16-C.01_AVX/g16/l302.exe)
 NPDir=0 NMtPBC=     1 NCelOv=     1 NCel=       1 NClECP=     1 NCelD=      1
         NCelK=      1 NCelE2=     1 NClLst=     1 CellRange=     0.0.
 One-electron integrals computed using PRISM.
 NBasis=   273 RedAO= T EigKep=  3.05D-04  NBF=   273
 NBsUse=   273 1.00D-06 EigRej= -1.00D+00 NBFU=   273
 Precomputing XC quadrature grid using
 IXCGrd= 4 IRadAn=           5 IRanWt=          -1 IRanGd=           0 AccXCQ= 0.00D+00.
 Generated NRdTot=       0 NPtTot=           0 NUsed=           0 NTot=          32
 NSgBfM=   288   288   288   288   288 MxSgAt=    25 MxSgA2=    25.
 Leave Link  302 at Tue Oct 27 21:59:34 2020, MaxMem=  7784628224 cpu:               2.5 elap:               0.3
 (Enter /gpfs/loomis/apps/avx/software/Gaussian/16-C.01_AVX/g16/l303.exe)
 DipDrv:  MaxL=1.
 Leave Link  303 at Tue Oct 27 21:59:35 2020, MaxMem=  7784628224 cpu:               0.4 elap:               0.2
 (Enter /gpfs/loomis/apps/avx/software/Gaussian/16-C.01_AVX/g16/l401.exe)
 ExpMin= 1.22D-01 ExpMax= 1.11D+05 ExpMxC= 1.07D+03 IAcc=3 IRadAn=         5 AccDes= 0.00D+00
 Harris functional with IExCor= 4639 and IRadAn=       5 diagonalized for initial guess.
 HarFok:  IExCor= 4639 AccDes= 0.00D+00 IRadAn=         5 IDoV= 1 UseB2=F ITyADJ=14
 ICtDFT=  3500011 ScaDFX=  1.000000  1.000000  1.000000  1.000000
 FoFCou: FMM=F IPFlag=           0 FMFlag=      100000 FMFlg1=           0
         NFxFlg=           0 DoJE=T BraDBF=F KetDBF=T FulRan=T
         wScrn=  0.000000 ICntrl=       500 IOpCl=  0 I1Cent=   200000004 NGrid=           0
         NMat0=    1 NMatS0=      1 NMatT0=    0 NMatD0=    1 NMtDS0=    0 NMtDT0=    0
 Symmetry not used in FoFCou.
 Harris En= -994.449908265617    
 JPrj=0 DoOrth=F DoCkMO=F.
 Leave Link  401 at Tue Oct 27 21:59:36 2020, MaxMem=  7784628224 cpu:              14.1 elap:               1.5
 (Enter /gpfs/loomis/apps/avx/software/Gaussian/16-C.01_AVX/g16/l502.exe)
 Two-electron integral symmetry not used.
 Closed shell SCF:
 Using DIIS extrapolation, IDIIS=  1040.
 NGot=  7784628224 LenX=  7784455381 LenY=  7784371419
 Requested convergence on RMS density matrix=1.00D-08 within 128 cycles.
 Requested convergence on MAX density matrix=1.00D-06.
 Requested convergence on             energy=1.00D-06.
 No special actions if energy rises.
 Fock matrices will be formed incrementally for  20 cycles.

 Cycle   1  Pass 1  IDiag  1:
 FoFJK:  IHMeth= 1 ICntrl=       0 DoSepK=T KAlg= 0 I1Cent=           0 FoldK=F
 IRaf=         1 NMat=       1 IRICut=       1 DoRegI=T DoRafI=F ISym2E= 0 IDoP0=0 IntGTp=1.
 FoFCou: FMM=F IPFlag=           0 FMFlag=      100000 FMFlg1=           0
         NFxFlg=           0 DoJE=T BraDBF=F KetDBF=F FulRan=T
         wScrn=  0.000000 ICntrl=       500 IOpCl=  0 I1Cent=           0 NGrid=           0
         NMat0=    1 NMatS0=      1 NMatT0=    0 NMatD0=    1 NMtDS0=    0 NMtDT0=    0
 Symmetry not used in FoFCou.
 Inv3:  Mode=1 IEnd=    14440908.
 Iteration    1 A*A^-1 deviation from unit magnitude is 5.22D-15 for   2176.
 Iteration    1 A*A^-1 deviation from orthogonality  is 1.97D-15 for   1707   1572.
 Iteration    1 A^-1*A deviation from unit magnitude is 5.44D-15 for   2176.
 Iteration    1 A^-1*A deviation from orthogonality  is 1.66D-15 for   1834    354.
 E= -1028.55350845599    
 DIIS: error= 3.96D-02 at cycle   1 NSaved=   1.
 NSaved= 1 IEnMin= 1 EnMin= -1028.55350845599     IErMin= 1 ErrMin= 3.96D-02
 ErrMax= 3.96D-02  0.00D+00 EMaxC= 1.00D-01 BMatC= 3.96D-01 BMatP= 3.96D-01
 IDIUse=3 WtCom= 6.04D-01 WtEn= 3.96D-01
 Coeff-Com:  0.100D+01
 Coeff-En:   0.100D+01
 Coeff:      0.100D+01
 Gap=     0.320 Goal=   None    Shift=    0.000
 GapD=    0.320 DampG=1.000 DampE=0.500 DampFc=0.5000 IDamp=-1.
 Damping current iteration by 5.00D-01
 RMSDP=3.63D-03 MaxDP=2.38D-01              OVMax= 1.93D-01

 Cycle   2  Pass 1  IDiag  1:
 RMSU=  1.81D-03    CP:  9.94D-01
 E= -1028.67490820072     Delta-E=       -0.121399744731 Rises=F Damp=T
 DIIS: error= 1.08D-02 at cycle   2 NSaved=   2.
 NSaved= 2 IEnMin= 2 EnMin= -1028.67490820072     IErMin= 2 ErrMin= 1.08D-02
 ErrMax= 1.08D-02  0.00D+00 EMaxC= 1.00D-01 BMatC= 5.85D-02 BMatP= 3.96D-01
 IDIUse=3 WtCom= 8.92D-01 WtEn= 1.08D-01
 Coeff-Com: -0.277D+00 0.128D+01
 Coeff-En:   0.000D+00 0.100D+01
 Coeff:     -0.247D+00 0.125D+01
 Gap=     0.287 Goal=   None    Shift=    0.000
 RMSDP=1.17D-03 MaxDP=2.57D-02 DE=-1.21D-01 OVMax= 1.37D-01

 Cycle   3  Pass 1  IDiag  1:
 RMSU=  1.13D-03    CP:  9.93D-01  1.17D+00
 E= -1028.78415872359     Delta-E=       -0.109250522866 Rises=F Damp=F
 DIIS: error= 6.88D-03 at cycle   3 NSaved=   3.
 NSaved= 3 IEnMin= 3 EnMin= -1028.78415872359     IErMin= 3 ErrMin= 6.88D-03
 ErrMax= 6.88D-03  0.00D+00 EMaxC= 1.00D-01 BMatC= 1.60D-02 BMatP= 5.85D-02
 IDIUse=3 WtCom= 9.31D-01 WtEn= 6.88D-02
 Coeff-Com: -0.205D+00 0.501D+00 0.703D+00
 Coeff-En:   0.000D+00 0.000D+00 0.100D+01
 Coeff:     -0.191D+00 0.467D+00 0.724D+00
 Gap=     0.241 Goal=   None    Shift=    0.000
 RMSDP=5.62D-04 MaxDP=2.00D-02 DE=-1.09D-01 OVMax= 4.42D-02

 Cycle   4  Pass 1  IDiag  1:
 RMSU=  4.45D-04    CP:  9.91D-01  1.32D+00  8.34D-01
 E= -1028.79964835287     Delta-E=       -0.015489629290 Rises=F Damp=F
 DIIS: error= 2.35D-03 at cycle   4 NSaved=   4.
 NSaved= 4 IEnMin= 4 EnMin= -1028.79964835287     IErMin= 4 ErrMin= 2.35D-03
 ErrMax= 2.35D-03  0.00D+00 EMaxC= 1.00D-01 BMatC= 1.98D-03 BMatP= 1.60D-02
 IDIUse=3 WtCom= 9.76D-01 WtEn= 2.35D-02
 Coeff-Com: -0.720D-01 0.142D+00 0.344D+00 0.586D+00
 Coeff-En:   0.000D+00 0.000D+00 0.000D+00 0.100D+01
 Coeff:     -0.703D-01 0.139D+00 0.336D+00 0.596D+00
 Gap=     0.242 Goal=   None    Shift=    0.000
 RMSDP=1.79D-04 MaxDP=1.04D-02 DE=-1.55D-02 OVMax= 1.39D-02

 Cycle   5  Pass 1  IDiag  1:
 RMSU=  1.12D-04    CP:  9.90D-01  1.34D+00  9.10D-01  7.59D-01
 E= -1028.80180179203     Delta-E=       -0.002153439151 Rises=F Damp=F
 DIIS: error= 5.18D-04 at cycle   5 NSaved=   5.
 NSaved= 5 IEnMin= 5 EnMin= -1028.80180179203     IErMin= 5 ErrMin= 5.18D-04
 ErrMax= 5.18D-04  0.00D+00 EMaxC= 1.00D-01 BMatC= 5.85D-05 BMatP= 1.98D-03
 IDIUse=3 WtCom= 9.95D-01 WtEn= 5.18D-03
 Coeff-Com: -0.504D-03-0.536D-02 0.259D-01 0.151D+00 0.829D+00
 Coeff-En:   0.000D+00 0.000D+00 0.000D+00 0.000D+00 0.100D+01
 Coeff:     -0.501D-03-0.533D-02 0.257D-01 0.150D+00 0.830D+00
 Gap=     0.243 Goal=   None    Shift=    0.000
 RMSDP=5.78D-05 MaxDP=1.83D-03 DE=-2.15D-03 OVMax= 6.01D-03

 Cycle   6  Pass 1  IDiag  1:
 RMSU=  3.64D-05    CP:  9.90D-01  1.34D+00  9.27D-01  8.44D-01  1.11D+00
 E= -1028.80193909825     Delta-E=       -0.000137306222 Rises=F Damp=F
 DIIS: error= 2.40D-04 at cycle   6 NSaved=   6.
 NSaved= 6 IEnMin= 6 EnMin= -1028.80193909825     IErMin= 6 ErrMin= 2.40D-04
 ErrMax= 2.40D-04  0.00D+00 EMaxC= 1.00D-01 BMatC= 1.05D-05 BMatP= 5.85D-05
 IDIUse=3 WtCom= 9.98D-01 WtEn= 2.40D-03
 Coeff-Com:  0.168D-01-0.341D-01-0.662D-01-0.815D-01 0.196D+00 0.969D+00
 Coeff-En:   0.000D+00 0.000D+00 0.000D+00 0.000D+00 0.000D+00 0.100D+01
 Coeff:      0.167D-01-0.341D-01-0.660D-01-0.813D-01 0.195D+00 0.969D+00
 Gap=     0.244 Goal=   None    Shift=    0.000
 RMSDP=3.68D-05 MaxDP=1.71D-03 DE=-1.37D-04 OVMax= 4.40D-03

 Cycle   7  Pass 1  IDiag  1:
 RMSU=  1.71D-05    CP:  9.90D-01  1.34D+00  9.39D-01  8.78D-01  1.30D+00
                    CP:  1.36D+00
 E= -1028.80197641347     Delta-E=       -0.000037315223 Rises=F Damp=F
 DIIS: error= 9.83D-05 at cycle   7 NSaved=   7.
 NSaved= 7 IEnMin= 7 EnMin= -1028.80197641347     IErMin= 7 ErrMin= 9.83D-05
 ErrMax= 9.83D-05  0.00D+00 EMaxC= 1.00D-01 BMatC= 1.92D-06 BMatP= 1.05D-05
 IDIUse=1 WtCom= 1.00D+00 WtEn= 0.00D+00
 Coeff-Com:  0.592D-02-0.111D-01-0.248D-01-0.462D-01-0.215D-01 0.358D+00
 Coeff-Com:  0.740D+00
 Coeff:      0.592D-02-0.111D-01-0.248D-01-0.462D-01-0.215D-01 0.358D+00
 Coeff:      0.740D+00
 Gap=     0.244 Goal=   None    Shift=    0.000
 RMSDP=1.16D-05 MaxDP=4.45D-04 DE=-3.73D-05 OVMax= 1.47D-03

 Cycle   8  Pass 1  IDiag  1:
 RMSU=  6.73D-06    CP:  9.90D-01  1.34D+00  9.40D-01  8.83D-01  1.34D+00
                    CP:  1.56D+00  1.21D+00
 E= -1028.80198163981     Delta-E=       -0.000005226339 Rises=F Damp=F
 DIIS: error= 5.68D-05 at cycle   8 NSaved=   8.
 NSaved= 8 IEnMin= 8 EnMin= -1028.80198163981     IErMin= 8 ErrMin= 5.68D-05
 ErrMax= 5.68D-05  0.00D+00 EMaxC= 1.00D-01 BMatC= 3.76D-07 BMatP= 1.92D-06
 IDIUse=1 WtCom= 1.00D+00 WtEn= 0.00D+00
 Coeff-Com: -0.185D-02 0.393D-02 0.803D-02 0.497D-02-0.418D-01-0.120D+00
 Coeff-Com:  0.210D+00 0.937D+00
 Coeff:     -0.185D-02 0.393D-02 0.803D-02 0.497D-02-0.418D-01-0.120D+00
 Coeff:      0.210D+00 0.937D+00
 Gap=     0.244 Goal=   None    Shift=    0.000
 RMSDP=7.34D-06 MaxDP=1.80D-04 DE=-5.23D-06 OVMax= 1.21D-03

 Cycle   9  Pass 1  IDiag  1:
 RMSU=  2.83D-06    CP:  9.90D-01  1.34D+00  9.40D-01  8.83D-01  1.36D+00
                    CP:  1.68D+00  1.48D+00  1.25D+00
 E= -1028.80198323408     Delta-E=       -0.000001594275 Rises=F Damp=F
 DIIS: error= 1.87D-05 at cycle   9 NSaved=   9.
 NSaved= 9 IEnMin= 9 EnMin= -1028.80198323408     IErMin= 9 ErrMin= 1.87D-05
 ErrMax= 1.87D-05  0.00D+00 EMaxC= 1.00D-01 BMatC= 5.79D-08 BMatP= 3.76D-07
 IDIUse=1 WtCom= 1.00D+00 WtEn= 0.00D+00
 Coeff-Com: -0.101D-02 0.195D-02 0.475D-02 0.673D-02-0.471D-02-0.785D-01
 Coeff-Com: -0.784D-01 0.182D+00 0.967D+00
 Coeff:     -0.101D-02 0.195D-02 0.475D-02 0.673D-02-0.471D-02-0.785D-01
 Coeff:     -0.784D-01 0.182D+00 0.967D+00
 Gap=     0.244 Goal=   None    Shift=    0.000
 RMSDP=3.69D-06 MaxDP=9.51D-05 DE=-1.59D-06 OVMax= 6.11D-04

 Cycle  10  Pass 1  IDiag  1:
 RMSU=  1.22D-06    CP:  9.90D-01  1.34D+00  9.40D-01  8.83D-01  1.36D+00
                    CP:  1.73D+00  1.60D+00  1.50D+00  1.39D+00
 E= -1028.80198356340     Delta-E=       -0.000000329316 Rises=F Damp=F
 DIIS: error= 9.70D-06 at cycle  10 NSaved=  10.
 NSaved=10 IEnMin=10 EnMin= -1028.80198356340     IErMin=10 ErrMin= 9.70D-06
 ErrMax= 9.70D-06  0.00D+00 EMaxC= 1.00D-01 BMatC= 1.58D-08 BMatP= 5.79D-08
 IDIUse=1 WtCom= 1.00D+00 WtEn= 0.00D+00
 Coeff-Com:  0.139D-03-0.343D-03-0.237D-03 0.877D-03 0.798D-02-0.809D-03
 Coeff-Com: -0.720D-01-0.133D+00 0.350D+00 0.848D+00
 Coeff:      0.139D-03-0.343D-03-0.237D-03 0.877D-03 0.798D-02-0.809D-03
 Coeff:     -0.720D-01-0.133D+00 0.350D+00 0.848D+00
 Gap=     0.244 Goal=   None    Shift=    0.000
 RMSDP=1.58D-06 MaxDP=3.98D-05 DE=-3.29D-07 OVMax= 2.80D-04

 Cycle  11  Pass 1  IDiag  1:
 RMSU=  5.00D-07    CP:  9.90D-01  1.34D+00  9.40D-01  8.83D-01  1.37D+00
                    CP:  1.74D+00  1.63D+00  1.60D+00  1.70D+00  1.22D+00
 E= -1028.80198362616     Delta-E=       -0.000000062756 Rises=F Damp=F
 DIIS: error= 2.95D-06 at cycle  11 NSaved=  11.
 NSaved=11 IEnMin=11 EnMin= -1028.80198362616     IErMin=11 ErrMin= 2.95D-06
 ErrMax= 2.95D-06  0.00D+00 EMaxC= 1.00D-01 BMatC= 2.02D-09 BMatP= 1.58D-08
 IDIUse=1 WtCom= 1.00D+00 WtEn= 0.00D+00
 Coeff-Com:  0.279D-03-0.562D-03-0.108D-02-0.134D-02 0.380D-02 0.158D-01
 Coeff-Com: -0.500D-02-0.701D-01-0.825D-01 0.170D+00 0.971D+00
 Coeff:      0.279D-03-0.562D-03-0.108D-02-0.134D-02 0.380D-02 0.158D-01
 Coeff:     -0.500D-02-0.701D-01-0.825D-01 0.170D+00 0.971D+00
 Gap=     0.244 Goal=   None    Shift=    0.000
 RMSDP=6.73D-07 MaxDP=1.67D-05 DE=-6.28D-08 OVMax= 1.16D-04

 Cycle  12  Pass 1  IDiag  1:
 RMSU=  2.05D-07    CP:  9.90D-01  1.34D+00  9.40D-01  8.83D-01  1.37D+00
                    CP:  1.75D+00  1.65D+00  1.64D+00  1.85D+00  1.47D+00
                    CP:  1.21D+00
 E= -1028.80198363580     Delta-E=       -0.000000009644 Rises=F Damp=F
 DIIS: error= 1.29D-06 at cycle  12 NSaved=  12.
 NSaved=12 IEnMin=12 EnMin= -1028.80198363580     IErMin=12 ErrMin= 1.29D-06
 ErrMax= 1.29D-06  0.00D+00 EMaxC= 1.00D-01 BMatC= 4.57D-10 BMatP= 2.02D-09
 IDIUse=1 WtCom= 1.00D+00 WtEn= 0.00D+00
 Coeff-Com:  0.864D-04-0.167D-03-0.365D-03-0.665D-03 0.558D-03 0.634D-02
 Coeff-Com:  0.662D-02-0.108D-01-0.800D-01-0.616D-01 0.382D+00 0.758D+00
 Coeff:      0.864D-04-0.167D-03-0.365D-03-0.665D-03 0.558D-03 0.634D-02
 Coeff:      0.662D-02-0.108D-01-0.800D-01-0.616D-01 0.382D+00 0.758D+00
 Gap=     0.244 Goal=   None    Shift=    0.000
 RMSDP=2.31D-07 MaxDP=4.63D-06 DE=-9.64D-09 OVMax= 3.49D-05

 Cycle  13  Pass 1  IDiag  1:
 RMSU=  8.42D-08    CP:  9.90D-01  1.34D+00  9.40D-01  8.83D-01  1.37D+00
                    CP:  1.75D+00  1.65D+00  1.65D+00  1.89D+00  1.55D+00
                    CP:  1.42D+00  9.61D-01
 E= -1028.80198363700     Delta-E=       -0.000000001196 Rises=F Damp=F
 DIIS: error= 4.87D-07 at cycle  13 NSaved=  13.
 NSaved=13 IEnMin=13 EnMin= -1028.80198363700     IErMin=13 ErrMin= 4.87D-07
 ErrMax= 4.87D-07  0.00D+00 EMaxC= 1.00D-01 BMatC= 6.42D-11 BMatP= 4.57D-10
 IDIUse=1 WtCom= 1.00D+00 WtEn= 0.00D+00
 Coeff-Com: -0.157D-04 0.339D-04 0.542D-04-0.203D-04-0.324D-03-0.160D-03
 Coeff-Com:  0.292D-02 0.835D-02-0.127D-01-0.501D-01-0.423D-01 0.283D+00
 Coeff-Com:  0.811D+00
 Coeff:     -0.157D-04 0.339D-04 0.542D-04-0.203D-04-0.324D-03-0.160D-03
 Coeff:      0.292D-02 0.835D-02-0.127D-01-0.501D-01-0.423D-01 0.283D+00
 Coeff:      0.811D+00
 Gap=     0.244 Goal=   None    Shift=    0.000
 RMSDP=6.57D-08 MaxDP=1.59D-06 DE=-1.20D-09 OVMax= 7.70D-06

 Cycle  14  Pass 1  IDiag  1:
 RMSU=  2.88D-08    CP:  9.90D-01  1.34D+00  9.40D-01  8.83D-01  1.37D+00
                    CP:  1.75D+00  1.65D+00  1.65D+00  1.90D+00  1.57D+00
                    CP:  1.47D+00  1.12D+00  1.05D+00
 E= -1028.80198363712     Delta-E=       -0.000000000127 Rises=F Damp=F
 DIIS: error= 9.74D-08 at cycle  14 NSaved=  14.
 NSaved=14 IEnMin=14 EnMin= -1028.80198363712     IErMin=14 ErrMin= 9.74D-08
 ErrMax= 9.74D-08  0.00D+00 EMaxC= 1.00D-01 BMatC= 3.93D-12 BMatP= 6.42D-11
 IDIUse=1 WtCom= 1.00D+00 WtEn= 0.00D+00
 Coeff-Com: -0.108D-04 0.216D-04 0.446D-04 0.526D-04-0.130D-03-0.605D-03
 Coeff-Com: -0.804D-04 0.280D-02 0.450D-02-0.286D-02-0.453D-01 0.492D-02
 Coeff-Com:  0.178D+00 0.858D+00
 Coeff:     -0.108D-04 0.216D-04 0.446D-04 0.526D-04-0.130D-03-0.605D-03
 Coeff:     -0.804D-04 0.280D-02 0.450D-02-0.286D-02-0.453D-01 0.492D-02
 Coeff:      0.178D+00 0.858D+00
 Gap=     0.244 Goal=   None    Shift=    0.000
 RMSDP=1.62D-08 MaxDP=3.08D-07 DE=-1.27D-10 OVMax= 1.65D-06

 Cycle  15  Pass 1  IDiag  1:
 RMSU=  9.92D-09    CP:  9.90D-01  1.34D+00  9.40D-01  8.83D-01  1.37D+00
                    CP:  1.75D+00  1.65D+00  1.65D+00  1.90D+00  1.57D+00
                    CP:  1.47D+00  1.16D+00  1.15D+00  1.16D+00
 E= -1028.80198363713     Delta-E=       -0.000000000011 Rises=F Damp=F
 DIIS: error= 5.94D-08 at cycle  15 NSaved=  15.
 NSaved=15 IEnMin=15 EnMin= -1028.80198363713     IErMin=15 ErrMin= 5.94D-08
 ErrMax= 5.94D-08  0.00D+00 EMaxC= 1.00D-01 BMatC= 7.93D-13 BMatP= 3.93D-12
 IDIUse=1 WtCom= 1.00D+00 WtEn= 0.00D+00
 Coeff-Com: -0.193D-05 0.343D-05 0.996D-05 0.259D-04-0.525D-05-0.239D-03
 Coeff-Com: -0.531D-03-0.134D-03 0.363D-02 0.738D-02-0.133D-01-0.429D-01
 Coeff-Com: -0.642D-01 0.291D+00 0.820D+00
 Coeff:     -0.193D-05 0.343D-05 0.996D-05 0.259D-04-0.525D-05-0.239D-03
 Coeff:     -0.531D-03-0.134D-03 0.363D-02 0.738D-02-0.133D-01-0.429D-01
 Coeff:     -0.642D-01 0.291D+00 0.820D+00
 Gap=     0.244 Goal=   None    Shift=    0.000
 RMSDP=8.24D-09 MaxDP=2.16D-07 DE=-1.11D-11 OVMax= 1.02D-06

 Error on total polarization charges =  0.00853
 SCF Done:  E(RwB97XD) =  -1028.80198364     A.U. after   15 cycles
            NFock= 15  Conv=0.82D-08     -V/T= 2.0048
 KE= 1.023876169175D+03 PE=-4.609731499086D+03 EE= 1.458195102671D+03
 Leave Link  502 at Tue Oct 27 22:01:01 2020, MaxMem=  7784628224 cpu:             837.1 elap:              84.4
 (Enter /gpfs/loomis/apps/avx/software/Gaussian/16-C.01_AVX/g16/l601.exe)
 Copying SCF densities to generalized density rwf, IOpCl= 0 IROHF=0.

 **********************************************************************

            Population analysis using the SCF Density.

 **********************************************************************

 Alpha  occ. eigenvalues --  -89.10504 -19.21481 -14.51014 -10.41592 -10.37344
 Alpha  occ. eigenvalues --  -10.36244 -10.36116 -10.33301 -10.32709 -10.32397
 Alpha  occ. eigenvalues --  -10.32282 -10.31609 -10.31132 -10.30944 -10.29371
 Alpha  occ. eigenvalues --  -10.28608  -8.12468  -6.07341  -6.06980  -6.06488
 Alpha  occ. eigenvalues --   -1.13268  -1.09542  -0.98249  -0.95333  -0.93237
 Alpha  occ. eigenvalues --   -0.89163  -0.86533  -0.83858  -0.81464  -0.76132
 Alpha  occ. eigenvalues --   -0.73000  -0.71962  -0.68805  -0.67921  -0.65168
 Alpha  occ. eigenvalues --   -0.60859  -0.59653  -0.56899  -0.55657  -0.55567
 Alpha  occ. eigenvalues --   -0.54861  -0.53691  -0.53071  -0.50787  -0.49390
 Alpha  occ. eigenvalues --   -0.48927  -0.48402  -0.46812  -0.45324  -0.44953
 Alpha  occ. eigenvalues --   -0.44269  -0.43115  -0.42140  -0.40385  -0.36751
 Alpha  occ. eigenvalues --   -0.33478  -0.32377  -0.31433  -0.26301
 Alpha virt. eigenvalues --   -0.01914   0.03863   0.05914   0.06286   0.09036
 Alpha virt. eigenvalues --    0.10509   0.13406   0.14709   0.16276   0.17514
 Alpha virt. eigenvalues --    0.18936   0.20354   0.21308   0.21433   0.23016
 Alpha virt. eigenvalues --    0.23652   0.23957   0.25364   0.28856   0.29420
 Alpha virt. eigenvalues --    0.31293   0.33562   0.35559   0.35863   0.36610
 Alpha virt. eigenvalues --    0.38432   0.39115   0.40072   0.42049   0.43911
 Alpha virt. eigenvalues --    0.46519   0.48351   0.50495   0.51093   0.51461
 Alpha virt. eigenvalues --    0.52752   0.52938   0.53162   0.54592   0.55331
 Alpha virt. eigenvalues --    0.56234   0.56246   0.56508   0.56628   0.57895
 Alpha virt. eigenvalues --    0.58156   0.58615   0.59293   0.59697   0.59747
 Alpha virt. eigenvalues --    0.60611   0.61364   0.61850   0.62465   0.62969
 Alpha virt. eigenvalues --    0.64825   0.66173   0.67046   0.68459   0.68692
 Alpha virt. eigenvalues --    0.70256   0.70806   0.72063   0.72283   0.72967
 Alpha virt. eigenvalues --    0.73936   0.75071   0.75552   0.76166   0.77679
 Alpha virt. eigenvalues --    0.79071   0.79344   0.80480   0.81688   0.82299
 Alpha virt. eigenvalues --    0.83107   0.88151   0.88724   0.91154   0.92581
 Alpha virt. eigenvalues --    0.93913   0.94583   0.95775   0.96645   0.97238
 Alpha virt. eigenvalues --    0.98636   0.99098   1.00057   1.00494   1.01254
 Alpha virt. eigenvalues --    1.02638   1.05084   1.06003   1.06138   1.07351
 Alpha virt. eigenvalues --    1.08078   1.08795   1.10308   1.11189   1.11334
 Alpha virt. eigenvalues --    1.12410   1.12559   1.13207   1.14770   1.15225
 Alpha virt. eigenvalues --    1.16767   1.18928   1.20177   1.23651   1.23810
 Alpha virt. eigenvalues --    1.26791   1.27348   1.32727   1.33513   1.33860
 Alpha virt. eigenvalues --    1.34735   1.36684   1.38311   1.40848   1.45840
 Alpha virt. eigenvalues --    1.49176   1.49481   1.53336   1.54086   1.54925
 Alpha virt. eigenvalues --    1.56708   1.57103   1.57515   1.58492   1.59661
 Alpha virt. eigenvalues --    1.60168   1.61357   1.64492   1.65301   1.67713
 Alpha virt. eigenvalues --    1.68470   1.69883   1.70969   1.71225   1.71775
 Alpha virt. eigenvalues --    1.72125   1.72669   1.73260   1.73800   1.75022
 Alpha virt. eigenvalues --    1.78236   1.79709   1.80271   1.81423   1.82054
 Alpha virt. eigenvalues --    1.82948   1.84466   1.84845   1.85356   1.86125
 Alpha virt. eigenvalues --    1.86682   1.89335   1.91103   1.91849   1.92105
 Alpha virt. eigenvalues --    1.93129   1.93481   1.95238   1.96441   1.97250
 Alpha virt. eigenvalues --    1.98760   2.00345   2.01329   2.03932   2.04514
 Alpha virt. eigenvalues --    2.05695   2.07203   2.09642   2.10267   2.13551
 Alpha virt. eigenvalues --    2.15837   2.17385   2.20796   2.21731   2.23964
 Alpha virt. eigenvalues --    2.27219   2.29921   2.33673   2.38452   2.40512
 Alpha virt. eigenvalues --    2.40539   2.42483   2.46745   2.48539   2.49444
 Alpha virt. eigenvalues --    2.51156   2.51914   2.53505   2.54604   2.61846
 Alpha virt. eigenvalues --    2.62513   2.70109   2.74077   2.75079   2.80017
 Alpha virt. eigenvalues --    2.81942   2.82920   2.85987   2.86468   2.89961
 Alpha virt. eigenvalues --    2.92742   3.01931   3.14792   3.28773   3.45268
 Alpha virt. eigenvalues --    3.49525   3.56402   3.57904   3.76529
          Condensed to atoms (all electrons):
               1          2          3          4          5          6
     1  C    4.723665   0.487737   0.005287  -0.050474  -0.012406   0.517190
     2  C    0.487737   5.347015   0.299062  -0.057517  -0.067737  -0.008337
     3  C    0.005287   0.299062   4.847406   0.520878  -0.002972  -0.065733
     4  C   -0.050474  -0.057517   0.520878   4.779087   0.521394  -0.014981
     5  C   -0.012406  -0.067737  -0.002972   0.521394   4.718988   0.498947
     6  C    0.517190  -0.008337  -0.065733  -0.014981   0.498947   4.735506
     7  H    0.404422  -0.040520   0.008936  -0.000543   0.008148  -0.038311
     8  H   -0.000605   0.010819  -0.025843   0.393544  -0.041253   0.007400
     9  H    0.008637  -0.000391   0.008271  -0.038349   0.405397  -0.043893
    10  H   -0.042273   0.009584  -0.000555   0.008686  -0.042975   0.407319
    11  N    0.004103  -0.039151   0.392209  -0.051875   0.002578   0.000347
    12  S   -0.064560   0.335294  -0.124022   0.004485   0.000224   0.003791
    13  C   -0.000201   0.001175   0.013288  -0.000517   0.000011  -0.000000
    14  C   -0.000005   0.000054   0.000284   0.000006  -0.000000  -0.000000
    15  C    0.000002  -0.000267   0.000563   0.000064  -0.000000   0.000000
    16  C    0.000000  -0.000002   0.000004  -0.000000   0.000000   0.000000
    17  H   -0.000004   0.000083  -0.000001  -0.000000   0.000000   0.000000
    18  C    0.000000   0.000009  -0.000037  -0.000000  -0.000000  -0.000000
    19  C   -0.000000   0.000000   0.000002  -0.000000   0.000000   0.000000
    20  H   -0.000000  -0.000000  -0.000000   0.000000  -0.000000  -0.000000
    21  H   -0.000000   0.000000  -0.000000  -0.000000  -0.000000   0.000000
    22  H    0.000000  -0.000000  -0.000000  -0.000000   0.000000  -0.000000
    23  C    0.003373  -0.049118  -0.106317   0.002889   0.000263  -0.000243
    24  O    0.000002  -0.000201  -0.000666   0.000018  -0.000000  -0.000000
    25  H    0.000147   0.009230  -0.030932  -0.006790  -0.000131  -0.000011
               7          8          9         10         11         12
     1  C    0.404422  -0.000605   0.008637  -0.042273   0.004103  -0.064560
     2  C   -0.040520   0.010819  -0.000391   0.009584  -0.039151   0.335294
     3  C    0.008936  -0.025843   0.008271  -0.000555   0.392209  -0.124022
     4  C   -0.000543   0.393544  -0.038349   0.008686  -0.051875   0.004485
     5  C    0.008148  -0.041253   0.405397  -0.042975   0.002578   0.000224
     6  C   -0.038311   0.007400  -0.043893   0.407319   0.000347   0.003791
     7  H    0.650903   0.000029  -0.000141  -0.011776  -0.000098  -0.006838
     8  H    0.000029   0.640847  -0.011775  -0.000119  -0.004393  -0.000238
     9  H   -0.000141  -0.011775   0.658085  -0.012241  -0.000112   0.000022
    10  H   -0.011776  -0.000119  -0.012241   0.658379   0.000004  -0.000136
    11  N   -0.000098  -0.004393  -0.000112   0.000004   6.069627  -0.050690
    12  S   -0.006838  -0.000238   0.000022  -0.000136  -0.050690  15.436072
    13  C    0.000005   0.000048  -0.000000  -0.000000  -0.030302  -0.063961
    14  C    0.000000   0.000001   0.000000  -0.000000   0.003260  -0.006773
    15  C   -0.000000  -0.000003   0.000000   0.000000  -0.003282   0.004001
    16  C   -0.000000  -0.000000  -0.000000   0.000000  -0.000091   0.000000
    17  H    0.000001   0.000000  -0.000000  -0.000000   0.000247   0.006371
    18  C    0.000000  -0.000000  -0.000000  -0.000000  -0.000553  -0.000110
    19  C    0.000000   0.000000  -0.000000   0.000000   0.000046   0.000019
    20  H   -0.000000  -0.000000   0.000000   0.000000   0.000001   0.000000
    21  H   -0.000000   0.000000  -0.000000   0.000000   0.000017   0.000004
    22  H    0.000000  -0.000000  -0.000000  -0.000000  -0.000000  -0.000000
    23  C    0.000149  -0.000666   0.000006   0.000004   0.524036   0.320975
    24  O    0.000000  -0.000247   0.000000  -0.000000  -0.063876  -0.000264
    25  H    0.000005   0.001022  -0.000011  -0.000000   0.335974   0.003921
              13         14         15         16         17         18
     1  C   -0.000201  -0.000005   0.000002   0.000000  -0.000004   0.000000
     2  C    0.001175   0.000054  -0.000267  -0.000002   0.000083   0.000009
     3  C    0.013288   0.000284   0.000563   0.000004  -0.000001  -0.000037
     4  C   -0.000517   0.000006   0.000064  -0.000000  -0.000000  -0.000000
     5  C    0.000011  -0.000000  -0.000000   0.000000   0.000000  -0.000000
     6  C   -0.000000  -0.000000   0.000000   0.000000   0.000000  -0.000000
     7  H    0.000005   0.000000  -0.000000  -0.000000   0.000001   0.000000
     8  H    0.000048   0.000001  -0.000003  -0.000000   0.000000  -0.000000
     9  H   -0.000000   0.000000   0.000000  -0.000000  -0.000000  -0.000000
    10  H   -0.000000  -0.000000   0.000000   0.000000  -0.000000  -0.000000
    11  N   -0.030302   0.003260  -0.003282  -0.000091   0.000247  -0.000553
    12  S   -0.063961  -0.006773   0.004001   0.000000   0.006371  -0.000110
    13  C    5.447258   0.436808   0.193741  -0.005704  -0.041938  -0.039608
    14  C    0.436808   4.840767   0.010917   0.537505   0.399971  -0.060439
    15  C    0.193741   0.010917   4.739393  -0.057777   0.006767   0.481068
    16  C   -0.005704   0.537505  -0.057777   4.767947  -0.033221  -0.019247
    17  H   -0.041938   0.399971   0.006767  -0.033221   0.682050  -0.000872
    18  C   -0.039608  -0.060439   0.481068  -0.019247  -0.000872   4.865155
    19  C   -0.051356  -0.017539  -0.009388   0.477637   0.008438   0.503961
    20  H    0.009141  -0.036400  -0.000181   0.400382  -0.012472   0.008334
    21  H    0.015250  -0.000660  -0.022837   0.007654   0.000052   0.372209
    22  H   -0.001494   0.009508   0.008876  -0.046475  -0.000189  -0.039431
    23  C    0.350139  -0.096349  -0.076414   0.006741  -0.020155   0.009284
    24  O   -0.089027   0.006003   0.619985  -0.000112  -0.000072  -0.064924
    25  H   -0.036177  -0.000623  -0.016874   0.000049  -0.000062   0.004020
              19         20         21         22         23         24
     1  C   -0.000000  -0.000000  -0.000000   0.000000   0.003373   0.000002
     2  C    0.000000  -0.000000   0.000000  -0.000000  -0.049118  -0.000201
     3  C    0.000002  -0.000000  -0.000000  -0.000000  -0.106317  -0.000666
     4  C   -0.000000   0.000000  -0.000000  -0.000000   0.002889   0.000018
     5  C    0.000000  -0.000000  -0.000000   0.000000   0.000263  -0.000000
     6  C    0.000000  -0.000000   0.000000  -0.000000  -0.000243  -0.000000
     7  H    0.000000  -0.000000  -0.000000   0.000000   0.000149   0.000000
     8  H    0.000000  -0.000000   0.000000  -0.000000  -0.000666  -0.000247
     9  H   -0.000000   0.000000  -0.000000  -0.000000   0.000006   0.000000
    10  H    0.000000   0.000000   0.000000  -0.000000   0.000004  -0.000000
    11  N    0.000046   0.000001   0.000017  -0.000000   0.524036  -0.063876
    12  S    0.000019   0.000000   0.000004  -0.000000   0.320975  -0.000264
    13  C   -0.051356   0.009141   0.015250  -0.001494   0.350139  -0.089027
    14  C   -0.017539  -0.036400  -0.000660   0.009508  -0.096349   0.006003
    15  C   -0.009388  -0.000181  -0.022837   0.008876  -0.076414   0.619985
    16  C    0.477637   0.400382   0.007654  -0.046475   0.006741  -0.000112
    17  H    0.008438  -0.012472   0.000052  -0.000189  -0.020155  -0.000072
    18  C    0.503961   0.008334   0.372209  -0.039431   0.009284  -0.064924
    19  C    4.743595  -0.047552  -0.047566   0.403323   0.000365   0.004486
    20  H   -0.047552   0.688805  -0.000171  -0.012528  -0.000375   0.000001
    21  H   -0.047566  -0.000171   0.679935  -0.012718  -0.000452   0.005571
    22  H    0.403323  -0.012528  -0.012718   0.675920   0.000009  -0.000084
    23  C    0.000365  -0.000375  -0.000452   0.000009   5.093297  -0.014563
    24  O    0.004486   0.000001   0.005571  -0.000084  -0.014563   7.879696
    25  H   -0.000405  -0.000001   0.000014   0.000008   0.012960   0.122888
              25
     1  C    0.000147
     2  C    0.009230
     3  C   -0.030932
     4  C   -0.006790
     5  C   -0.000131
     6  C   -0.000011
     7  H    0.000005
     8  H    0.001022
     9  H   -0.000011
    10  H   -0.000000
    11  N    0.335974
    12  S    0.003921
    13  C   -0.036177
    14  C   -0.000623
    15  C   -0.016874
    16  C    0.000049
    17  H   -0.000062
    18  C    0.004020
    19  C   -0.000405
    20  H   -0.000001
    21  H    0.000014
    22  H    0.000008
    23  C    0.012960
    24  O    0.122888
    25  H    0.497528
 Mulliken charges:
               1
     1  C    0.015963
     2  C   -0.236819
     3  C    0.260889
     4  C   -0.010004
     5  C    0.011526
     6  C    0.001010
     7  H    0.025631
     8  H    0.031432
     9  H    0.026493
    10  H    0.026100
    11  N   -0.088025
    12  S    0.202412
    13  C   -0.106578
    14  C   -0.026297
    15  C    0.121649
    16  C   -0.035290
    17  H    0.005005
    18  C   -0.018820
    19  C    0.031934
    20  H    0.003015
    21  H    0.003697
    22  H    0.015276
    23  C    0.040162
    24  O   -0.404612
    25  H    0.104252
 Sum of Mulliken charges =  -0.00000
 Mulliken charges with hydrogens summed into heavy atoms:
               1
     1  C    0.041594
     2  C   -0.236819
     3  C    0.260889
     4  C    0.021428
     5  C    0.038020
     6  C    0.027110
    11  N    0.016227
    12  S    0.202412
    13  C   -0.106578
    14  C   -0.021292
    15  C    0.121649
    16  C   -0.032275
    18  C   -0.015124
    19  C    0.047210
    23  C    0.040162
    24  O   -0.404612
 Electronic spatial extent (au):  <R**2>=           4343.6075
 Charge=             -0.0000 electrons
 Dipole moment (field-independent basis, Debye):
    X=              1.3445    Y=             -5.1684    Z=             -0.0001  Tot=              5.3404
 Quadrupole moment (field-independent basis, Debye-Ang):
   XX=            -82.8013   YY=            -93.8743   ZZ=           -104.1385
   XY=             -6.8176   XZ=             -0.0001   YZ=              0.0000
 Traceless Quadrupole moment (field-independent basis, Debye-Ang):
   XX=             10.8034   YY=             -0.2696   ZZ=            -10.5338
   XY=             -6.8176   XZ=             -0.0001   YZ=              0.0000
 Octapole moment (field-independent basis, Debye-Ang**2):
  XXX=             32.9631  YYY=            -52.3212  ZZZ=             -0.0001  XYY=              0.6058
  XXY=             -8.2225  XXZ=             -0.0001  XZZ=              2.1849  YZZ=              1.7983
  YYZ=              0.0001  XYZ=             -0.0006
 Hexadecapole moment (field-independent basis, Debye-Ang**3):
 XXXX=          -2607.9349 YYYY=          -2655.1422 ZZZZ=           -113.0878 XXXY=            812.8009
 XXXZ=              0.0097 YYYX=            770.5657 YYYZ=             -0.0130 ZZZX=              0.0133
 ZZZY=             -0.0183 XXYY=           -849.8710 XXZZ=           -572.5332 YYZZ=           -548.7502
 XXYZ=             -0.0033 YYXZ=              0.0007 ZZXY=            358.0721
 N-N= 1.098858243603D+03 E-N=-4.609731506389D+03  KE= 1.023876169175D+03
 No NMR shielding tensors so no spin-rotation constants.
 Leave Link  601 at Tue Oct 27 22:01:01 2020, MaxMem=  7784628224 cpu:               1.1 elap:               0.1
 (Enter /gpfs/loomis/apps/avx/software/Gaussian/16-C.01_AVX/g16/l701.exe)
 ... and contract with generalized density number  0.
 Compute integral first derivatives.
 R6Disp: Adding Grimme-D2 dispersion energy 1st derivatives to the gradient.
 D1PCM: PCM CHGder 1st derivatives, ID1Alg=3 FixD1E=F DoIter=F DoCFld=F I1PDM=0.
 GePol: Maximum number of non-zero 1st derivatives   =     264
 Leave Link  701 at Tue Oct 27 22:01:03 2020, MaxMem=  7784628224 cpu:              23.2 elap:               2.6
 (Enter /gpfs/loomis/apps/avx/software/Gaussian/16-C.01_AVX/g16/l702.exe)
 L702 exits ... SP integral derivatives will be done elsewhere.
 Leave Link  702 at Tue Oct 27 22:01:03 2020, MaxMem=  7784628224 cpu:               0.3 elap:               0.0
 (Enter /gpfs/loomis/apps/avx/software/Gaussian/16-C.01_AVX/g16/l703.exe)
 Integral derivatives from FoFJK, PRISM(SPDF).
 Compute integral first derivatives, UseDBF=F ICtDFT=           0.
 Calling FoFJK, ICntrl=      2127 FMM=F ISym2X=0 I1Cent= 0 IOpClX= 0 NMat=1 NMatS=1 NMatT=0.
 FoFJK:  IHMeth= 1 ICntrl=    2127 DoSepK=T KAlg= 0 I1Cent=           0 FoldK=F
 IRaf=         1 NMat=       1 IRICut=       1 DoRegI=T DoRafI=F ISym2E= 0 IDoP0=0 IntGTp=1.
 FoFCou: FMM=F IPFlag=           0 FMFlag=      100000 FMFlg1=         800
         NFxFlg=           0 DoJE=F BraDBF=F KetDBF=F FulRan=T
         wScrn=  0.000000 ICntrl=      2527 IOpCl=  0 I1Cent=           0 NGrid=           0
         NMat0=    1 NMatS0=      1 NMatT0=    0 NMatD0=    1 NMtDS0=    0 NMtDT0=    0
 Symmetry not used in FoFCou.
 Leave Link  703 at Tue Oct 27 22:01:18 2020, MaxMem=  7784628224 cpu:             137.4 elap:              14.1
 (Enter /gpfs/loomis/apps/avx/software/Gaussian/16-C.01_AVX/g16/l716.exe)
 Dipole        = 5.28953366D-01-2.03340412D+00-2.52243441D-05
 -------------------------------------------------------------------
 Center     Atomic                   Forces (Hartrees/Bohr)
 Number     Number              X              Y              Z
 -------------------------------------------------------------------
      1        6           0.001916901    0.000752979   -0.000000000
      2        6           0.006798978    0.008998363   -0.000000112
      3        6           0.011388574   -0.017670294   -0.000000145
      4        6          -0.004289189    0.001510306    0.000000032
      5        6           0.000644928   -0.002035487    0.000000014
      6        6          -0.002325368    0.001926313   -0.000000021
      7        1           0.000055549    0.000280854   -0.000000044
      8        1           0.000153126   -0.000141536    0.000000005
      9        1          -0.000324913   -0.000014021   -0.000000002
     10        1          -0.000192154    0.000082160    0.000000004
     11        7          -0.045388762   -0.079626005   -0.000000865
     12       16           0.005724794    0.011626501   -0.000000093
     13        6           0.018704513    0.018440591    0.000000026
     14        6          -0.032850402    0.020529149    0.000000629
     15        6           0.013134118   -0.017452168   -0.000000349
     16        6           0.004038009   -0.033991360   -0.000000744
     17        1          -0.001126631   -0.000495568    0.000000009
     18        6          -0.021488712    0.001123661    0.000000389
     19        6           0.026375121    0.002930818   -0.000000081
     20        1           0.000190448   -0.000430047   -0.000000030
     21        1          -0.000480503   -0.000058409   -0.000000083
     22        1          -0.000521891    0.000954997   -0.000000029
     23        6           0.005493686    0.011315538    0.000000355
     24        8          -0.004540110    0.009684529    0.000000006
     25        1           0.018909890    0.061758138    0.000001127
 -------------------------------------------------------------------
 Cartesian Forces:  Max     0.079626005 RMS     0.015760881
 Leave Link  716 at Tue Oct 27 22:01:18 2020, MaxMem=  7784628224 cpu:               0.4 elap:               0.1
 (Enter /gpfs/loomis/apps/avx/software/Gaussian/16-C.01_AVX/g16/l103.exe)

 GradGradGradGradGradGradGradGradGradGradGradGradGradGradGradGradGradGrad
 Berny optimization.
 FormGI is forming the generalized inverse of G from B-inverse, IUseBI=4.
 Internal  Forces:  Max     0.046879038 RMS     0.007334146
 Search for a local minimum.
 Step number   1 out of a maximum of  146
 All quantities printed in internal units (Hartrees-Bohrs-Radians)
 RMS Force = .73886D-02 SwitMx=.10000D-02 MixMth= 1
 Mixed Optimization -- RFO/linear search
 Second derivative matrix not updated -- first step.
 ITU=  0
     Eigenvalues ---    0.01300   0.01495   0.01497   0.01688   0.01712
     Eigenvalues ---    0.01747   0.01812   0.01974   0.01991   0.02020
     Eigenvalues ---    0.02031   0.02035   0.02054   0.02098   0.02102
     Eigenvalues ---    0.02117   0.02129   0.02139   0.02152   0.02160
     Eigenvalues ---    0.02163   0.02178   0.16000   0.16000   0.16000
     Eigenvalues ---    0.16000   0.16000   0.16000   0.16000   0.16003
     Eigenvalues ---    0.17374   0.22004   0.22012   0.22534   0.22585
     Eigenvalues ---    0.24364   0.24472   0.24596   0.25000   0.25000
     Eigenvalues ---    0.28088   0.28837   0.32143   0.34533   0.34646
     Eigenvalues ---    0.34666   0.34689   0.34715   0.34739   0.34756
     Eigenvalues ---    0.34771   0.34804   0.39239   0.40541   0.41795
     Eigenvalues ---    0.42192   0.43402   0.43515   0.44333   0.45737
     Eigenvalues ---    0.45950   0.46255   0.46964   0.47162   0.48402
     Eigenvalues ---    0.51313   0.740391000.000001000.000001000.00000
     Eigenvalues --- 1000.000001000.000001000.000001000.000001000.00000
     Eigenvalues --- 1000.000001000.000001000.000001000.000001000.00000
     Eigenvalues --- 1000.000001000.000001000.000001000.000001000.00000
     Eigenvalues --- 1000.000001000.000001000.000001000.000001000.00000
     Eigenvalues --- 1000.000001000.000001000.000001000.000001000.00000
     Eigenvalues --- 1000.000001000.000001000.000001000.000001000.00000
     Eigenvalues --- 1000.000001000.000001000.000001000.000001000.00000
     Eigenvalues --- 1000.000001000.000001000.000001000.000001000.00000
     Eigenvalues --- 1000.000001000.000001000.000001000.000001000.00000
     Eigenvalues --- 1000.000001000.000001000.000001000.000001000.00000
     Eigenvalues --- 1000.000001000.000001000.000001000.000001000.00000
     Eigenvalues --- 1000.000001000.000001000.000001000.000001000.00000
     Eigenvalues --- 1000.000001000.000001000.000001000.000001000.00000
     Eigenvalues --- 1000.00000
 RFO step:  Lambda=-1.97917334D-02 EMin= 1.30026638D-02
 Linear search not attempted -- first point.
 Iteration  1 RMS(Cart)=  0.02663004 RMS(Int)=  0.00102296
 Iteration  2 RMS(Cart)=  0.00153903 RMS(Int)=  0.00062975
 Iteration  3 RMS(Cart)=  0.00000429 RMS(Int)=  0.00063318
 Iteration  4 RMS(Cart)=  0.00000003 RMS(Int)=  0.00063310
 Iteration  1 RMS(Cart)=  0.00000672 RMS(Int)=  0.00000418
 Iteration  2 RMS(Cart)=  0.00000004 RMS(Int)=  0.00000378
 ITry= 1 IFail=0 DXMaxC= 1.48D-01 DCOld= 1.00D+10 DXMaxT= 3.00D-01 DXLimC= 3.00D+00 Rises=F
 Variable       Old X    -DE/DX   Delta X   Delta X   Delta X     New X
                                 (Linear)    (Quad)   (Total)
    R1        2.63397  -0.00144   0.00000  -0.00089  -0.00057   2.63340
    R2        2.63623  -0.00072   0.00000   0.00035   0.00039   2.63662
    R3        2.06117  -0.00050   0.00000  -0.00102  -0.00097   2.06020
    R4        2.68318  -0.02408   0.00000  -0.04589  -0.04441   2.63878
    R5        3.32850   0.00660   0.00000   0.01897   0.01827   3.34677
    R6        2.64711  -0.00489   0.00000  -0.01186  -0.01187   2.63524
    R7        2.58659   0.00320   0.00000   0.00567   0.00611   2.59269
    R8        2.62451  -0.00134   0.00000  -0.00392  -0.00408   2.62043
    R9        2.06049   0.00002   0.00000   0.00002   0.00002   2.06051
   R10        2.65018  -0.00357   0.00000  -0.00389  -0.00353   2.64664
   R11        2.06224  -0.00033   0.00000  -0.00084  -0.00084   2.06141
   R12        2.06101  -0.00022   0.00000  -0.00057  -0.00056   2.06045
   R13        2.56781  -0.01562   0.00000  -0.03343  -0.03406   2.53374
   R14        1.87827   0.04688   0.00000   0.11415   0.11762   1.99589
   R15        3.32832  -0.00945   0.00000  -0.01373  -0.01231   3.31601
   R16        2.62792   0.01808   0.00000   0.04141   0.04204   2.66996
   R17        2.81192  -0.00992   0.00000  -0.01905  -0.01816   2.79376
   R18        2.69442   0.00424   0.00000   0.00440   0.00364   2.69806
   R19        2.67038  -0.02669   0.00000  -0.06372  -0.06448   2.60589
   R20        2.06438   0.00078   0.00000   0.00224   0.00225   2.06663
   R21        2.68654   0.00778   0.00000   0.01098   0.00999   2.69653
   R22        2.40431  -0.00848   0.00000  -0.00582  -0.00447   2.39984
   R23        2.64656   0.00676   0.00000   0.01625   0.01671   2.66327
   R24        2.06195  -0.00007   0.00000  -0.00033  -0.00035   2.06160
   R25        2.63401  -0.01353   0.00000  -0.03262  -0.03325   2.60075
   R26        2.06141  -0.00023   0.00000  -0.00054  -0.00053   2.06089
   R27        2.06017   0.00123   0.00000   0.00311   0.00309   2.06326
    A1        2.06479   0.00049   0.00000  -0.00047  -0.00084   2.06395
    A2        2.10920  -0.00048   0.00000   0.00019   0.00044   2.10964
    A3        2.10919  -0.00001   0.00000   0.00028   0.00040   2.10959
    A4        2.11547  -0.00271   0.00000  -0.01284  -0.01266   2.10281
    A5        2.23669   0.00688   0.00000   0.03039   0.03065   2.26734
    A6        1.93102  -0.00417   0.00000  -0.01754  -0.01799   1.91304
    A7        2.09060   0.00847   0.00000   0.02704   0.02671   2.11731
    A8        1.97969  -0.00745   0.00000  -0.01806  -0.01695   1.96274
    A9        2.21290  -0.00103   0.00000  -0.00898  -0.00977   2.20313
   A10        2.07031  -0.00207   0.00000  -0.00753  -0.00726   2.06305
   A11        2.09241   0.00128   0.00000   0.00421   0.00403   2.09644
   A12        2.12046   0.00079   0.00000   0.00332   0.00323   2.12370
   A13        2.11912  -0.00391   0.00000  -0.01135  -0.01116   2.10796
   A14        2.07939   0.00184   0.00000   0.00465   0.00455   2.08394
   A15        2.08467   0.00208   0.00000   0.00669   0.00661   2.09129
   A16        2.10608  -0.00027   0.00000   0.00515   0.00522   2.11129
   A17        2.08588   0.00017   0.00000  -0.00215  -0.00217   2.08370
   A18        2.09123   0.00011   0.00000  -0.00300  -0.00304   2.08819
   A19        1.98010   0.02128   0.00000   0.06234   0.06109   2.04119
   A20        2.39572  -0.02858   0.00000  -0.10670  -0.10424   2.29148
   A21        1.90737   0.00730   0.00000   0.04436   0.04314   1.95051
   A22        1.55785   0.00917   0.00000   0.03142   0.03048   1.58833
   A23        2.06978   0.00354   0.00000   0.01400   0.01385   2.08363
   A24        2.17654  -0.00560   0.00000  -0.02543  -0.02596   2.15058
   A25        2.03686   0.00206   0.00000   0.01143   0.01212   2.04898
   A26        2.10564   0.00353   0.00000   0.01256   0.01240   2.11804
   A27        2.09793  -0.00085   0.00000  -0.00060  -0.00049   2.09744
   A28        2.07962  -0.00267   0.00000  -0.01196  -0.01191   2.06771
   A29        2.06583  -0.01042   0.00000  -0.03327  -0.03301   2.03282
   A30        2.10090   0.00946   0.00000   0.04903   0.05033   2.15123
   A31        2.11645   0.00095   0.00000  -0.01576  -0.01732   2.09913
   A32        2.12043  -0.00674   0.00000  -0.02952  -0.02942   2.09102
   A33        2.07192   0.00314   0.00000   0.01344   0.01339   2.08530
   A34        2.09084   0.00360   0.00000   0.01608   0.01603   2.10687
   A35        2.11574   0.00339   0.00000   0.00978   0.00954   2.12528
   A36        2.03441  -0.00126   0.00000  -0.00318  -0.00310   2.03130
   A37        2.13304  -0.00213   0.00000  -0.00660  -0.00644   2.12660
   A38        2.08894   0.00669   0.00000   0.02645   0.02664   2.11558
   A39        2.09480  -0.00322   0.00000  -0.01130  -0.01132   2.08348
   A40        2.09944  -0.00347   0.00000  -0.01515  -0.01532   2.08412
   A41        1.97612  -0.01883   0.00000  -0.05815  -0.05665   1.91948
   A42        2.08552   0.00943   0.00000   0.02573   0.02492   2.11043
   A43        2.22155   0.00940   0.00000   0.03242   0.03173   2.25328
    D1        0.00000   0.00000   0.00000   0.00000   0.00000   0.00000
    D2       -3.14159  -0.00000   0.00000  -0.00000  -0.00000  -3.14159
    D3        3.14159   0.00000   0.00000   0.00000   0.00000  -3.14159
    D4       -0.00000  -0.00000   0.00000   0.00000   0.00000  -0.00000
    D5       -0.00000  -0.00000   0.00000   0.00000   0.00000  -0.00000
    D6        3.14159   0.00000   0.00000   0.00000   0.00000   3.14159
    D7       -3.14159  -0.00000   0.00000  -0.00000  -0.00000  -3.14159
    D8        0.00000  -0.00000   0.00000  -0.00000  -0.00000   0.00000
    D9        0.00000   0.00000   0.00000  -0.00000  -0.00000  -0.00000
   D10        3.14159  -0.00000   0.00000  -0.00000  -0.00000   3.14159
   D11       -3.14159   0.00000   0.00000  -0.00000  -0.00000   3.14159
   D12       -0.00000  -0.00000   0.00000  -0.00000  -0.00000  -0.00000
   D13        3.14159   0.00000   0.00000   0.00000   0.00000  -3.14159
   D14       -0.00000   0.00000   0.00000   0.00000   0.00000   0.00000
   D15       -0.00000  -0.00000   0.00000   0.00000   0.00000  -0.00000
   D16        3.14159  -0.00000   0.00000   0.00000   0.00000   3.14159
   D17       -3.14159   0.00000   0.00000   0.00000   0.00000  -3.14159
   D18        0.00000   0.00000   0.00000   0.00000   0.00000   0.00000
   D19        0.00000   0.00000   0.00000  -0.00000  -0.00000   0.00000
   D20        3.14156   0.00000   0.00000   0.00001   0.00001   3.14157
   D21       -3.14159  -0.00000   0.00000  -0.00000  -0.00000  -3.14159
   D22       -0.00003   0.00000   0.00000   0.00001   0.00001  -0.00003
   D23        0.00000   0.00000   0.00000   0.00000   0.00000   0.00000
   D24       -3.14159  -0.00000   0.00000  -0.00000  -0.00000  -3.14159
   D25       -3.14159   0.00000   0.00000   0.00000   0.00000  -3.14159
   D26        0.00000   0.00000   0.00000   0.00000   0.00000   0.00000
   D27        0.00000  -0.00000   0.00000  -0.00000  -0.00000  -0.00000
   D28       -3.14159  -0.00000   0.00000  -0.00000  -0.00000   3.14159
   D29       -3.14159   0.00000   0.00000  -0.00000  -0.00000  -3.14159
   D30        0.00000   0.00000   0.00000   0.00000   0.00000   0.00000
   D31       -0.00001  -0.00000   0.00000   0.00000   0.00000  -0.00000
   D32        3.14158   0.00000   0.00000   0.00001   0.00001   3.14158
   D33       -3.14157   0.00000   0.00000  -0.00000  -0.00000  -3.14157
   D34        0.00001   0.00000   0.00000   0.00000   0.00000   0.00001
   D35        0.00000  -0.00000   0.00000  -0.00000  -0.00000   0.00000
   D36       -3.14158  -0.00000   0.00000  -0.00001  -0.00001  -3.14158
   D37       -0.00000  -0.00000   0.00000  -0.00000  -0.00000  -0.00001
   D38        3.14159  -0.00000   0.00000  -0.00000  -0.00000   3.14159
   D39        3.14159  -0.00000   0.00000  -0.00000  -0.00000   3.14159
   D40       -0.00000  -0.00000   0.00000  -0.00000  -0.00000  -0.00001
   D41        0.00000   0.00000   0.00000   0.00001   0.00001   0.00001
   D42        3.14159   0.00000   0.00000   0.00001   0.00001  -3.14159
   D43       -3.14159   0.00000   0.00000   0.00001   0.00001  -3.14158
   D44        0.00000   0.00000   0.00000   0.00001   0.00001   0.00001
   D45        3.14158   0.00000   0.00000   0.00000   0.00000   3.14158
[...]
 01,0.,0.00007713,-0.00002475,0.,-0.00006962,-0.00004438,0.,-0.00007804
 ,0.00005588,0.,-0.00006563,0.00001745,0.,-0.01215895,-0.01444082,-0.00
 000014,0.00172853,0.00488508,0.,-0.01217324,-0.21039837,-0.00000176,-0
 .06275466,0.01805394,0.00000033,0.01198817,0.58593399,0.,0.,0.00051460
 ,0.00000002,0.,0.00058752,0.,-0.00000002,-0.00152471,0.,0.,-0.00010623
 ,0.,0.,0.00014456,0.,0.,-0.00014039,0.,0.,0.00003239,0.,0.,-0.00008486
 ,0.,0.,0.00004108,0.,0.,-0.00008167,-0.00000009,-0.00000006,0.00040795
 ,-0.00000002,0.00000004,0.00208074,0.00000009,-0.00000202,-0.07336097,
 -0.00000112,0.00000033,0.00020618,-0.00000158,0.00000565,0.19861198,0.
 00049282,-0.00058065,0.,-0.00095451,0.00106345,0.00000001,0.00019681,-
 0.00125638,-0.00000001,0.00033393,0.00018671,0.,-0.00003417,0.00064244
 ,0.,-0.00076881,-0.00005851,0.,0.00001892,0.00003372,0.,0.00003165,-0.
 00003230,0.,-0.00006259,0.00004626,0.,-0.00003633,0.00002378,0.,-0.006
 04918,-0.00002383,0.,0.00051153,0.00159457,0.00000002,-0.04646892,0.02
 415730,0.00000034,-0.24119283,0.17190481,0.00000259,0.00126169,0.01461
 582,0.00000022,0.77198423,-0.00143357,0.00212412,0.00000001,0.00273044
 ,-0.00158399,-0.00000002,0.00049155,0.00174128,0.00000004,-0.00165592,
 0.00022406,0.00000001,-0.00004375,-0.00242728,-0.00000002,0.00261283,0
 .00027457,0.,-0.00011784,-0.00006598,0.,0.00005806,0.00007253,0.,0.000
 16639,-0.00009513,0.,0.00012895,-0.00004908,0.,0.01446700,0.00824227,0
 .00000004,-0.00347706,-0.00416844,-0.00000005,0.06560135,0.00815910,0.
 00000003,0.10851545,-0.29130099,-0.00000350,0.02953471,-0.05072919,-0.
 00000081,-0.02848911,0.66961844,-0.00000002,0.00000003,0.00004528,0.00
 000005,-0.00000003,0.00037601,0.00000001,0.00000002,-0.00057057,-0.000
 00003,0.,-0.00010906,0.,-0.00000004,0.00005123,0.00000004,0.,-0.000014
 07,0.,0.,-0.00000112,0.,0.,-0.00000169,0.,0.,0.00001499,0.,0.,-0.00002
 342,0.00000020,0.00000013,0.00003708,-0.00000005,-0.00000007,-0.000773
 93,0.00000102,0.,0.00925206,0.00000164,-0.00000359,-0.06172580,0.00000
 044,-0.00000070,-0.00587853,-0.00000020,0.00000892,0.12124174,0.000272
 40,0.00000643,0.,-0.00061495,0.00029138,0.00000001,0.00035610,-0.00023
 295,0.,0.00002716,0.00004560,0.,0.00004261,0.00008109,0.,-0.00009925,-
 0.00007556,0.,-0.00001347,-0.00000443,0.,0.00003506,0.00000194,0.,0.00
 000519,0.00000138,0.,0.00002605,-0.00000345,0.,-0.00001350,0.00042048,
 0.,-0.00112130,0.00200600,0.,-0.00580489,-0.02812644,-0.00000045,-0.09
 351177,-0.09372569,-0.00000150,-0.00485967,0.00307883,0.00000003,0.011
 15438,0.01960465,0.00000031,0.09505528,0.00007296,-0.00007853,0.,-0.00
 025096,0.00060664,0.00000001,0.00031437,-0.00024336,0.,0.00003983,0.00
 006614,0.,0.00001250,0.00010503,0.,-0.00013529,-0.00000356,0.,-0.00000
 899,0.00001329,0.,0.00002281,-0.00000432,0.,-0.00000717,0.00000620,0.,
 -0.00000189,0.00000290,0.,-0.00103400,0.00013049,0.00000001,0.00010488
 ,-0.00045251,0.,0.00044115,-0.00087409,-0.00000007,-0.09043435,-0.3020
 0571,-0.00000428,0.00038048,0.00225705,-0.00000006,-0.01315129,-0.0170
 5099,-0.00000036,0.09799941,0.32076151,0.,0.,-0.00000813,0.,0.00000002
 ,-0.00052050,0.,0.,0.00012795,0.,0.,0.00007159,0.,0.,-0.00001656,0.,0.
 ,0.00002445,0.,0.,-0.00000984,0.,0.,-0.00001301,0.,0.,-0.00000425,0.,0
 .,0.00001555,0.,0.00000001,-0.00021794,-0.00000001,0.00000002,0.000863
 57,0.00000008,-0.00000006,0.00288768,-0.00000155,-0.00000431,-0.037335
 55,0.00000003,-0.00000006,0.00498491,-0.00000018,-0.00000039,0.0057433
 4,0.00000158,0.00000478,0.02451246,-0.00042984,0.00117577,0.00000001,0
 .00118758,-0.00050025,0.,0.00221583,0.00058924,0.,-0.00103949,0.000069
 34,0.,0.00002081,-0.00130306,-0.00000001,0.00129250,0.00016718,0.,-0.0
 0009022,0.00002263,0.,0.00013571,0.00002002,0.,0.00006678,-0.00003937,
 0.,0.00006772,-0.00000262,0.,0.00801967,0.01143353,0.00000009,-0.00095
 632,-0.00147758,-0.00000003,0.04889448,0.00498969,0.00000013,-0.050008
 66,0.02371745,0.00000040,-0.14101625,0.04809514,0.00000076,-0.00642990
 ,-0.07661439,-0.00000117,-0.00029385,0.00049413,-0.00000002,0.75617149
 ,0.00079173,-0.00069887,0.,-0.00154563,0.00011426,0.,-0.00042791,-0.00
 039116,0.,0.00070569,-0.00008544,0.,0.00006356,0.00096987,0.,-0.000993
 50,-0.00020828,0.,0.00001723,0.00003174,0.,-0.00001523,-0.00001663,0.,
 -0.00004472,0.00003414,0.,-0.00000959,0.00000531,0.,-0.00491365,-0.002
 22729,-0.00000003,0.00220730,0.00060735,0.00000002,0.00060609,-0.02424
 941,-0.00000059,0.01537570,-0.00916287,-0.00000013,0.07889219,-0.22621
 660,-0.00000265,-0.03708972,0.01308457,0.00000008,0.00006936,0.0005190
 9,0.00000003,0.08091932,0.68695366,0.00000002,-0.00000001,-0.00015192,
 -0.00000004,0.,-0.00022558,-0.00000002,0.00000001,-0.00095038,0.000000
 02,0.,0.00006581,0.,0.00000002,0.00002363,-0.00000002,0.,0.00004795,0.
 ,0.,-0.00005672,0.,0.,-0.00004031,0.,0.,-0.00001306,0.,0.,0.00004277,-
 0.00000011,-0.00000011,0.00186812,0.00000005,0.,-0.00083846,0.,-0.0000
 0040,0.00941300,0.00000028,-0.00000014,-0.00146650,0.00000124,-0.00000
 273,-0.07556060,-0.00000059,0.00000011,0.00786451,0.,0.00000002,-0.000
 37176,0.00000031,0.00000923,0.11964875,0.00097763,-0.00141744,0.,-0.00
 199854,0.00091092,0.,-0.00082548,-0.00087381,-0.00000001,0.00122967,-0
 .00012530,0.,0.00001761,0.00170211,0.00000002,-0.00177864,-0.00023412,
 0.,0.00007648,0.00004048,0.,-0.00005900,-0.00004757,0.,-0.00010910,0.0
 0006727,0.,-0.00007864,0.00002763,0.,-0.00921083,-0.00557944,-0.000000
 03,0.00234891,0.00228532,0.00000003,-0.03783636,0.00164492,0.,0.056430
 62,-0.00563167,-0.00000012,-0.05271999,0.03896757,0.00000072,-0.148584
 78,-0.02798483,-0.00000051,-0.00241522,0.00444367,0.00000008,-0.418379
 93,-0.08321841,-0.00000087,0.76366400,0.00074713,-0.00111133,0.,-0.001
 33178,0.00082488,0.,-0.00045300,-0.00138207,-0.00000002,0.00072931,-0.
 00001087,0.,0.00001190,0.00120160,0.00000001,-0.00135099,-0.00013136,0
 .,0.00006751,0.00001750,0.,-0.00005000,-0.00003108,0.,-0.00008457,0.00
 005140,0.,-0.00006085,0.00002058,0.,-0.00985657,-0.00602794,-0.0000000
 3,0.00180161,0.00184269,0.00000003,-0.03828586,-0.00521362,-0.00000006
 ,0.04349873,-0.05891532,-0.00000109,0.00169152,0.05228458,0.00000087,-
 0.09603794,-0.27754548,-0.00000363,0.00301922,-0.00234070,-0.00000014,
 -0.01976092,-0.14299608,-0.00000130,-0.02831773,0.68056691,0.00000001,
 -0.00000002,-0.00000256,-0.00000002,0.00000001,0.00011424,0.,-0.000000
 03,0.00036155,0.,0.,-0.00000469,0.,0.00000002,-0.00002780,-0.00000002,
 0.,0.00000032,0.,0.,0.00000943,0.,0.,0.00002401,0.,0.,-0.00000194,0.,0
 .,-0.00001013,-0.00000015,-0.00000009,-0.00035984,0.00000003,0.0000000
 2,-0.00008600,-0.00000060,0.,-0.00431247,0.00000067,-0.00000102,0.0067
 8645,0.00000014,0.00000079,-0.00044955,-0.00000155,-0.00000366,-0.0628
 0015,0.00000004,-0.00000017,0.00829744,0.00000004,-0.00000129,-0.05793
 894,-0.00000110,0.00000906,0.14449112,0.00002044,-0.00007772,0.,-0.000
 04103,0.00012870,0.,-0.00000824,-0.00014445,0.,0.00003699,0.00003230,0
 .,-0.00001131,0.00006369,0.,-0.00008199,0.00000791,0.,0.00000484,0.000
 00626,0.,0.00000248,-0.00000517,0.,-0.00001019,0.00000704,0.,-0.000009
 45,0.00000495,0.,-0.00047109,0.00039611,0.,0.00003212,0.00009360,0.,0.
 00015211,0.00366712,0.00000005,-0.01426717,-0.00704870,-0.00000012,0.0
 0057047,0.00005546,0.,-0.34105621,-0.04548424,-0.00000083,0.00077720,0
 .00013137,0.,0.00133972,-0.00187930,-0.00000004,-0.00612949,0.00270238
 ,0.00000004,0.35932554,-0.00000349,0.00003046,0.,0.00002497,-0.0000641
 7,0.,0.00008450,0.00009765,0.,-0.00001374,-0.00004142,0.,0.00001393,-0
 .00002075,0.,0.00002996,-0.00000350,0.,-0.00000109,-0.00000286,0.,0.00
 000112,0.00000189,0.,0.00000463,-0.00000489,0.,0.00000353,-0.00000151,
 0.,0.00039024,-0.00023522,0.,0.00000235,0.00003722,0.,0.00213885,-0.00
 352874,-0.00000017,0.02568747,0.00722321,0.00000010,0.00045810,-0.0014
 7234,-0.00000001,-0.04663961,-0.06453828,-0.00000058,-0.00021366,0.000
 96894,0.00000010,-0.00057070,-0.00513973,-0.00000017,-0.02962075,0.000
 13688,-0.00000001,0.04856539,0.06462004,0.,0.,-0.00000118,0.,0.,-0.000
 06586,0.,0.,-0.00034413,0.,0.,-0.00002329,0.,0.,0.00003364,0.,0.,-0.00
 000594,0.,0.,-0.00000093,0.,0.,-0.00001424,0.,0.,0.00000751,0.,0.,0.00
 000591,0.00000001,0.,-0.00048002,0.,0.,0.00015485,0.00000005,-0.000000
 18,0.00792325,0.00000038,0.00000009,0.00150128,0.00000002,-0.00000002,
 -0.00074535,-0.00000085,-0.00000060,-0.03107582,0.,0.00000010,-0.00533
 336,-0.00000002,-0.00000016,0.00473775,-0.00000047,0.00000001,0.000661
 00,0.00000090,0.00000069,0.02391893,-0.00006874,0.00001376,0.,0.000079
 12,0.00007426,0.,-0.00005110,0.00000802,0.,-0.00002140,0.00000715,0.,-
 0.00000827,-0.00004153,0.,0.00004444,0.00001618,0.,0.00000133,-0.00000
 444,0.,-0.00000580,0.00000148,0.,0.00000236,-0.00000134,0.,-0.00000257
 ,-0.00000175,0.,0.00035482,-0.00026005,0.,-0.00029670,0.00007298,0.,-0
 .00206954,0.00226280,0.00000005,-0.00129729,0.00047430,0.,0.00940601,0
 .02034905,0.00000033,-0.00487260,0.00033662,0.00000002,0.00010840,-0.0
 0010517,0.,-0.09146972,-0.09569622,-0.00000143,-0.00528605,-0.02939472
 ,-0.00000046,-0.00044195,-0.00139434,-0.00000002,0.09317433,0.00002630
 ,0.00010273,0.,-0.00006594,-0.00017543,0.,0.00004759,0.00016271,0.,-0.
 00004059,-0.00001605,0.,0.00001607,-0.00006488,0.,0.00007756,-0.000018
 44,0.,-0.00000841,0.00000128,0.,0.00000529,0.00000455,0.,0.00001047,-0
 .00000546,0.,0.00001373,-0.00000359,0.,0.00021298,0.00038401,0.,0.0002
 2404,-0.00037135,0.,0.00393250,-0.00268424,-0.00000012,0.00113107,0.00
 033886,0.00000002,-0.01428317,-0.01772089,-0.00000033,-0.00048420,0.00
 220275,-0.00000011,-0.00007115,-0.00007586,0.00000001,-0.09490654,-0.3
 0985366,-0.00000436,0.00220784,-0.00043360,-0.00000006,0.00006408,-0.0
 0012326,-0.00000001,0.10352539,0.32554105,0.,0.,0.00004259,0.,0.,0.000
 01090,0.,0.,-0.00006063,0.,0.,0.00000037,0.,0.,0.00000223,0.,0.,-0.000
 00450,0.,0.,0.00000306,0.,0.,0.00000066,0.,0.,0.00000298,0.,0.,-0.0000
 0719,0.,0.,-0.00000619,0.,0.,0.00005305,0.00000005,-0.00000013,0.00423
 964,0.00000005,0.,-0.00076128,-0.00000029,-0.00000034,0.00456844,0.,-0
 .00000008,0.00872982,0.,0.00000001,-0.00094332,-0.00000138,-0.00000436
 ,-0.03434467,0.00000001,-0.00000003,0.00292261,0.,0.,0.00053192,0.0000
 0160,0.00000477,0.02441104,0.00004304,-0.00006769,0.,-0.00005812,0.000
 13450,0.,0.00012145,-0.00013453,0.,0.00003249,0.00000785,0.,-0.0000016
 4,0.00006963,0.,-0.00008556,0.00000108,0.,0.00000300,0.00000463,0.,0.0
 0000547,-0.00000436,0.,-0.00000911,0.00000520,0.,-0.00000677,0.0000042
 6,0.,-0.00034551,0.00029579,0.,0.00004138,0.00027379,0.,-0.00093831,0.
 00017813,0.,0.00062685,-0.00273457,-0.00000004,-0.00344336,-0.00363740
 ,-0.00000005,0.00984732,-0.00979200,-0.00000017,0.00036755,-0.00052697
 ,0.,-0.01393762,0.02644589,0.00000045,-0.17357413,0.13774402,0.0000024
 4,0.00063202,0.00045649,0.,0.00098541,-0.00030564,-0.00000001,0.180812
 26,0.00001294,0.00002949,0.,-0.00006637,-0.00000472,0.,-0.00000729,0.0
 0007199,0.,-0.00000125,-0.00000525,0.,0.00000828,-0.00001352,0.,0.0000
 2150,-0.00001085,0.,-0.00000476,-0.00000159,0.,0.00000132,0.00000272,0
 .,0.00000557,-0.00000230,0.,0.00000667,-0.00000315,0.,0.00018019,-0.00
 011316,0.,-0.00006579,-0.00002594,0.,-0.00068534,0.00054433,0.00000003
 ,-0.00366474,-0.00465558,-0.00000016,-0.00232388,0.00068677,-0.0000001
 7,0.02142729,-0.01518595,-0.00000034,0.00099278,-0.00113788,0.,-0.0059
 6337,0.00699938,0.,0.13870211,-0.22667434,-0.00000326,-0.00019975,0.00
 101886,0.00000006,0.00011496,0.00082096,0.00000011,-0.14878057,0.23711
 320,0.,0.,-0.00000358,0.,0.,-0.00004442,0.,0.,0.00015545,0.,0.,-0.0000
 0154,0.,0.,-0.00000543,0.,0.,-0.00000504,0.,0.,0.00000674,0.,0.,0.0000
 0266,0.,0.,0.00000090,0.,0.,0.00000276,0.,0.,-0.00026108,0.,0.,0.00025
 544,-0.00000003,0.00000002,-0.00112673,-0.00000006,-0.00000016,0.00504
 156,-0.00000001,-0.00000014,0.01089194,0.00000035,-0.00000031,0.004620
 79,0.00000002,-0.00000002,-0.00030693,-0.00000003,-0.00000002,0.006755
 92,0.00000243,-0.00000328,-0.04224812,0.,0.00000006,-0.00267940,0.,0.0
 0000011,-0.00570992,-0.00000264,0.00000369,0.02688004,-0.00718888,-0.0
 0206223,-0.00000004,0.00331220,0.01763440,0.00000015,-0.07219712,0.045
 30298,0.00000047,0.01007847,-0.00310061,0.,-0.00331094,0.00295860,0.00
 000002,0.00081622,-0.00339650,-0.00000003,0.00017372,-0.00094283,-0.00
 000001,-0.00052245,-0.00009913,0.,0.00047627,-0.00016921,0.,-0.0006032
 0,-0.00015409,0.,-0.37987013,-0.04811982,0.00000031,-0.06010518,-0.043
 03157,-0.00000034,-0.16545093,0.07887835,0.00000082,-0.05682367,0.0363
 5323,0.00000050,0.05083970,0.01946591,0.00000006,0.00303165,-0.0280990
 7,-0.00000044,0.00145426,0.00158688,0.00000001,-0.01270882,0.00450947,
 0.00000012,0.01437680,0.01303130,0.00000020,-0.00024631,0.00088348,0.0
 0000001,0.00010482,-0.00147304,-0.00000003,0.00069186,-0.00005949,0.,0
 .71983184,0.00274263,-0.00339910,-0.00000002,0.02279037,-0.02193205,-0
 .00000021,0.01291546,0.01610293,0.,0.00839732,-0.00913548,-0.00000009,
 -0.00130873,0.00673995,0.00000005,-0.00463450,-0.00414849,-0.00000004,
 0.00030784,-0.00059611,0.,-0.00061426,-0.00005990,0.,0.00011986,-0.000
 33722,0.,-0.00047424,0.00008135,0.,-0.06463595,-0.15570523,-0.00000054
 ,0.00117297,-0.15222415,-0.00000092,0.07724429,-0.20964219,-0.00000164
 ,0.03050109,0.00259224,0.00000007,-0.00174218,-0.04163252,-0.00000041,
 -0.01082405,0.02256884,0.00000028,-0.00235097,-0.00067996,0.00000003,0
 .00739639,-0.01154820,-0.00000027,-0.01433947,-0.01243779,-0.00000018,
 -0.00105485,0.00078306,0.,0.00137603,-0.00044566,0.,-0.00058985,0.0002
 0462,0.00000001,-0.05320060,0.56013972,0.00000006,-0.00000003,-0.00039
 057,0.00000012,-0.00000023,0.00235107,0.00000017,0.00000002,0.00284116
 ,0.00000007,-0.00000007,0.00182761,0.,0.00000006,0.00106132,-0.0000000
 5,-0.00000004,0.00093337,0.,0.,-0.00043369,0.,0.,-0.00041448,0.,0.,-0.
 00035775,0.,0.,-0.00002550,0.00000022,-0.00000062,-0.06217598,0.000000
 05,-0.00000088,-0.03563645,0.00000076,-0.00000143,-0.05597022,0.000000
 40,0.00000009,-0.00591186,-0.00000008,-0.00000063,0.00339259,-0.000000
 13,0.00000020,0.00554274,-0.00000002,0.00000004,-0.00249835,0.00000011
 ,-0.00000021,0.00381749,-0.00000018,-0.00000016,-0.00083753,0.,-0.0000
 0002,0.00159784,0.00000001,0.,-0.00030635,0.,0.00000001,-0.00066521,-0
 .00000160,0.00000370,0.14026556,-0.00122629,0.00330712,0.00000002,0.00
 269858,0.00048531,-0.00000001,0.01034931,0.00077335,0.00000003,-0.0031
 1172,0.00038121,0.00000002,0.00008217,-0.00356125,-0.00000003,0.003406
 66,0.00074323,0.,-0.00025491,0.00017760,0.,0.00035479,0.00003429,0.,0.
 00008522,-0.00005388,0.,0.00012992,0.00004580,0.,0.02448950,0.05296736
 ,0.00000045,-0.00218126,-0.00342977,-0.00000005,-0.01050000,-0.0650932
 9,-0.00000065,-0.01567859,0.00466192,0.00000011,-0.48576912,-0.0716911
 6,0.00000042,-0.00241576,-0.02362660,-0.00000036,-0.00125114,-0.000514
 41,-0.00000003,-0.08636255,0.01748512,0.00000069,0.02210350,0.02178445
 ,0.00000032,-0.00019266,-0.00030812,-0.00000001,0.00170083,0.00008448,
 -0.00000003,-0.00189240,0.00042286,0.,-0.04584157,0.02764924,0.0000003
 8,0.59112461,-0.00041784,-0.00087148,0.,0.00019112,-0.00304394,-0.0000
 0001,-0.01081761,-0.00341572,-0.00000007,0.00030641,-0.00046086,0.,0.0
 0041934,0.00068168,0.,-0.00036694,-0.00023885,0.,0.00016809,-0.0002813
 8,0.,0.00009453,0.00011909,0.,0.00013503,-0.00011654,0.,0.00007812,-0.
 00007416,0.,0.01572652,-0.06044252,-0.00000071,0.00000878,-0.00272166,
 -0.00000001,-0.05190645,-0.00405158,-0.00000019,0.01130515,-0.00928594
 ,-0.00000020,-0.09072993,-0.12016468,-0.00000043,-0.00284792,0.0098807
 6,0.00000016,-0.00202069,-0.00041569,0.,0.04328732,0.01781167,-0.00000
 005,-0.00415790,-0.01260833,-0.00000028,-0.00003010,0.00057826,0.00000
 002,-0.00217799,0.00287002,0.00000007,0.00150009,0.00022838,0.00000002
 ,0.01003209,0.00258854,0.,0.09904699,0.17199762,0.,-0.00000002,-0.0002
 6805,0.,-0.00000005,-0.00018638,-0.00000019,-0.00000008,0.00217979,0.0
 0000001,0.,0.00004407,0.,0.00000002,-0.00009041,-0.00000001,0.,0.00004
 392,0.,0.,0.00002783,0.,0.,0.00002783,0.,0.,-0.00001112,0.,0.,0.000003
 59,0.00000022,-0.00000106,0.00473228,0.,-0.00000001,-0.00021552,-0.000
 00069,-0.00000011,0.01694871,0.00000023,-0.00000021,0.00521736,0.00000
 021,-0.00000045,-0.06959973,-0.00000005,0.00000023,-0.00054000,-0.0000
 0002,0.,0.00007511,0.00000105,0.,0.01621199,-0.00000012,-0.00000035,0.
 00495531,0.,0.00000002,-0.00050127,-0.00000010,0.00000008,-0.00332583,
 0.00000003,0.00000003,-0.00134338,0.00000028,-0.00000003,-0.00183713,-
 0.00000057,0.00000139,0.04196223,0.00127300,0.00003240,0.,-0.00447947,
 0.00320248,0.00000003,0.00990957,0.01603152,0.00000011,0.00167078,-0.0
 0009949,0.,-0.00007898,0.00048419,0.,-0.00059135,-0.00016152,0.,-0.000
 13902,0.00024904,0.,-0.00110245,-0.00012032,0.,-0.00000766,-0.00000334
 ,0.,-0.00003813,-0.00005415,0.,-0.08652057,-0.06650245,-0.00000045,-0.
 00350272,-0.00302850,0.,-0.00288484,0.00572403,0.00000006,0.00201543,-
 0.00016285,0.,-0.02312863,0.00622442,0.00000020,0.00006166,0.00257038,
 0.00000004,0.00031738,0.00012608,0.,0.00371088,-0.00225477,-0.00000005
 ,-0.00223903,-0.00184413,-0.00000002,0.00007313,0.00002050,0.,-0.00007
 016,0.00005931,0.,0.00008241,-0.00007387,0.,-0.00031864,-0.03684384,-0
 .00000028,0.00015290,-0.01682622,-0.00000030,0.10583449,-0.00060107,0.
 00229111,0.00000001,0.00352005,0.00456776,0.,0.01497916,-0.00510051,0.
 ,-0.00284027,0.00217693,0.00000003,-0.00048339,-0.00293552,-0.00000002
 ,0.00188844,0.00118998,0.,-0.00022572,0.00036273,0.,0.00055222,-0.0003
 2040,0.,-0.00021148,0.00019260,0.,-0.00003766,0.00012815,0.,-0.0496286
 7,-0.24088690,-0.00000141,0.00019267,0.00568065,-0.00000003,0.01222869
 ,-0.02433582,-0.00000023,-0.01238214,0.00065053,0.00000004,0.05806757,
 0.02090516,0.00000006,0.00181938,-0.01345250,-0.00000021,-0.00079358,-
 0.00007412,-0.00000002,-0.02123836,0.00566318,0.00000015,0.01054862,0.
 01091289,0.00000016,-0.00000206,-0.00031978,-0.00000001,0.00044456,-0.
 00043656,0.,-0.00054776,0.00011352,0.,-0.04672850,0.01212280,0.0000001
 9,-0.06177185,0.01143732,0.00000063,0.09325113,0.20946681,0.,0.0000000
 3,0.00088899,0.00000002,0.00000004,0.00189985,0.00000019,0.00000002,-0
 .00504093,-0.00000003,0.00000001,-0.00061051,0.,-0.00000003,-0.0001375
 0,0.00000003,0.00000001,-0.00011338,0.,0.,0.00001771,0.,0.00000001,0.0
 0006874,0.,0.,0.00004963,0.,0.,0.00000188,-0.00000032,-0.00000123,-0.0
 2385179,0.00000002,0.,0.00390760,0.00000013,-0.00000025,-0.00327201,-0
 .00000014,0.00000002,-0.00097290,0.00000072,0.00000019,0.00106773,0.00
 000002,-0.00000016,-0.00000544,-0.00000001,0.,-0.00002455,-0.00000025,
 0.00000005,0.00146123,0.00000013,0.00000012,0.00045622,0.,0.,0.0001969
 3,0.,0.,-0.00004945,0.,0.,-0.00021342,-0.00000047,0.00000022,0.0038302
 7,-0.00000070,0.00000028,-0.01451120,0.00000069,0.00000066,0.03495629\
 \0.00068021,0.00093223,-0.00000003,0.00134614,0.00173758,0.00000003,0.
 00218702,-0.00015323,0.00000018,-0.00046383,0.00071671,0.,0.00002797,-
 0.00014281,0.,0.00072091,0.00071491,-0.00000002,0.00001605,0.00010812,
 0.,0.00001637,0.00003210,0.,0.00000654,0.00006573,0.,0.00005999,0.0000
 6396,0.,-0.00383156,0.00191954,-0.00000002,0.00056969,0.00101329,0.000
 00003,-0.00236934,0.00108622,-0.00000002,0.00185664,0.00009413,-0.0000
 0007,0.00373727,0.00066180,0.00000016,-0.00068405,0.00250843,0.0000000
 3,-0.00001313,0.00004176,-0.00000004,-0.00036921,0.00010204,-0.0000000
 2,-0.00111499,0.00008080,0.00000002,-0.00002797,0.00005210,0.,-0.00001
 758,0.00000530,0.00000002,-0.00005628,0.00002694,0.00000002,-0.0024176
 6,-0.00165920,0.00000006,-0.00181230,-0.00311919,-0.00000007,0.0019530
 9,-0.00688924,-0.00000025\\\@
 The archive entry for this job was punched.


 PERICLES, SOPHOCLES,
 PELOPONESIAN WAR,
 FRENCH VERBS, LATIN VERBS
 H2SO4.
 Job cpu time:       0 days  1 hours  0 minutes 25.8 seconds.
 Elapsed time:       0 days  0 hours  6 minutes  5.9 seconds.
 File lengths (MBytes):  RWF=    544 Int=      0 D2E=      0 Chk=     36 Scr=      8
 Normal termination of Gaussian 16 at Tue Oct 27 22:15:09 2020.
