 Entering Gaussian System, Link 0=g16
 Initial command:
 /gpfs/loomis/apps/avx/software/Gaussian/16-C.01_AVX/g16/l1.exe "/home/fas/batista/pev4/scratch60/gauss-scratch/Gau-230002.inp" -scrdir="/home/fas/batista/pev4/scratch60/gauss-scratch/"
 Entering Link 1 = /gpfs/loomis/apps/avx/software/Gaussian/16-C.01_AVX/g16/l1.exe PID=    230003.
  
 Copyright (c) 1988-2019, Gaussian, Inc.  All Rights Reserved.
  
 This is part of the Gaussian(R) 16 program.  It is based on
 the Gaussian(R) 09 system (copyright 2009, Gaussian, Inc.),
 the Gaussian(R) 03 system (copyright 2003, Gaussian, Inc.),
 the Gaussian(R) 98 system (copyright 1998, Gaussian, Inc.),
 the Gaussian(R) 94 system (copyright 1995, Gaussian, Inc.),
 the Gaussian 92(TM) system (copyright 1992, Gaussian, Inc.),
 the Gaussian 90(TM) system (copyright 1990, Gaussian, Inc.),
 the Gaussian 88(TM) system (copyright 1988, Gaussian, Inc.),
 the Gaussian 86(TM) system (copyright 1986, Carnegie Mellon
 University), and the Gaussian 82(TM) system (copyright 1983,
 Carnegie Mellon University). Gaussian is a federally registered
 trademark of Gaussian, Inc.
  
 This software contains proprietary and confidential information,
 including trade secrets, belonging to Gaussian, Inc.
  
 This software is provided under written license and may be
 used, copied, transmitted, or stored only in accord with that
 written license.
  
 The following legend is applicable only to US Government
 contracts under FAR:
  
                    RESTRICTED RIGHTS LEGEND
  
 Use, reproduction and disclosure by the US Government is
 subject to restrictions as set forth in subparagraphs (a)
 and (c) of the Commercial Computer Software - Restricted
 Rights clause in FAR 52.227-19.
  
 Gaussian, Inc.
 340 Quinnipiac St., Bldg. 40, Wallingford CT 06492
  
  
 ---------------------------------------------------------------
 Warning -- This program may not be used in any manner that
 competes with the business of Gaussian, Inc. or will provide
 assistance to any competitor of Gaussian, Inc.  The licensee
 of this program is prohibited from giving any competitor of
 Gaussian, Inc. access to this program.  By using this program,
 the user acknowledges that Gaussian, Inc. is engaged in the
 business of creating and licensing software in the field of
 computational chemistry and represents and warrants to the
 licensee that it is not a competitor of Gaussian, Inc. and that
 it will not use this program in any manner prohibited above.
 ---------------------------------------------------------------
  

 Cite this work as:
 Gaussian 16, Revision C.01,
 M. J. Frisch, G. W. Trucks, H. B. Schlegel, G. E. Scuseria, 
 M. A. Robb, J. R. Cheeseman, G. Scalmani, V. Barone, 
 G. A. Petersson, H. Nakatsuji, X. Li, M. Caricato, A. V. Marenich, 
 J. Bloino, B. G. Janesko, R. Gomperts, B. Mennucci, H. P. Hratchian, 
 J. V. Ortiz, A. F. Izmaylov, J. L. Sonnenberg, D. Williams-Young, 
 F. Ding, F. Lipparini, F. Egidi, J. Goings, B. Peng, A. Petrone, 
 T. Henderson, D. Ranasinghe, V. G. Zakrzewski, J. Gao, N. Rega, 
 G. Zheng, W. Liang, M. Hada, M. Ehara, K. Toyota, R. Fukuda, 
 J. Hasegawa, M. Ishida, T. Nakajima, Y. Honda, O. Kitao, H. Nakai, 
 T. Vreven, K. Throssell, J. A. Montgomery, Jr., J. E. Peralta, 
 F. Ogliaro, M. J. Bearpark, J. J. Heyd, E. N. Brothers, K. N. Kudin, 
 V. N. Staroverov, T. A. Keith, R. Kobayashi, J. Normand, 
 K. Raghavachari, A. P. Rendell, J. C. Burant, S. S. Iyengar, 
 J. Tomasi, M. Cossi, J. M. Millam, M. Klene, C. Adamo, R. Cammi, 
 J. W. Ochterski, R. L. Martin, K. Morokuma, O. Farkas, 
 J. B. Foresman, and D. J. Fox, Gaussian, Inc., Wallingford CT, 2019.
 
 ******************************************
 Gaussian 16:  ES64L-G16RevC.01  3-Jul-2019
                27-Oct-2020 
 ******************************************
 %chk=config_6_8.chk
 %mem=58GB
 %nprocshared=10
 Will use up to   10 processors via shared memory.
 ----------------------------------------------------------------------
 #p opt=addgic freq wb97xd/cc-pvdz nosymm int=ultrafine scrf=(solvent=C
 arbonTetraChloride)
 ----------------------------------------------------------------------
 1/18=20,19=15,26=6,38=1,145=903/1,3;
 2/9=110,12=2,15=1,17=6,18=5,40=1/2;
 3/5=16,11=2,25=1,30=1,70=2201,71=1,72=11,74=-58,75=-5/1,2,3;
 4//1;
 5/5=2,38=5,53=11/2;
 6/7=2,8=2,9=2,10=2,28=1/1;
 7/30=1/1,2,3,16;
 1/18=20,19=15,26=6,145=903/3(2);
 2/9=110,15=1/2;
 99//99;
 2/9=110,15=1/2;
 3/5=16,11=2,25=1,30=1,70=2205,71=1,72=11,74=-58,75=-5/1,2,3;
 4/5=5,16=3,69=1/1;
 5/5=2,38=5,53=11/2;
 7/30=1/1,2,3,16;
 1/18=20,19=15,26=6,145=903/3(-5);
 2/9=110,15=1/2;
 6/7=2,8=2,9=2,10=2,19=2,28=1/1;
 99/9=1/99;
 Leave Link    1 at Tue Oct 27 22:35:26 2020, MaxMem=  7784628224 cpu:               3.0 elap:               0.5
 (Enter /gpfs/loomis/apps/avx/software/Gaussian/16-C.01_AVX/g16/l101.exe)
 ------------------------------------------------
 NM 2D-scan of HBT TD-WB97XD pVDZ in CTC Relaxed.
 ------------------------------------------------
 Symbolic Z-matrix:
 Charge =  0 Multiplicity = 1
 C                     1.66214  -3.26444  -0.00002 
 C                     1.00004  -2.04011  -0.00002 
 C                     1.71383  -0.80696  -0.00002 
 C                     3.12523  -0.82959  -0.00002 
 C                     3.77297  -2.05409  -0.00002 
 C                     3.05636  -3.26444  -0.00002 
 H                     1.10349  -4.20111  -0.00002 
 H                     3.67913   0.1097   -0.00002 
 H                     4.86412  -2.08048  -0.00002 
 H                     3.5945   -4.21318  -0.00002 
 N                     0.92398   0.28973  -0.00002 
 S                    -0.73034  -1.74166  -0.00002 
 C                    -1.37547   1.02708   0. 
 C                    -2.76615   0.82471   0. 
 C                    -0.88367   2.42332   0.00003 
 C                    -3.64731   1.91189   0.00003 
 H                    -3.16344  -0.19189  -0.00002 
 C                    -1.80904   3.49039   0.00005 
 C                    -3.17896   3.24096   0.00005 
 H                    -4.72177   1.72129   0.00002 
 H                    -1.40504   4.50331   0.00008 
 H                    -3.88821   4.06884   0.00007 
 C                    -0.4035   -0.00394  -0.00002 
 O                     0.38965   2.6527    0.00004 
 H                     0.91167   1.61331   0.00001 
 
 Add virtual bond connecting atoms H25        and O24        Dist= 2.20D+00.
 Initializing the GIC definitions file.
 Number of initial coordinates =   131
 Number of input entries/lines =    52
 Number of additional coordinates =     2
 Number of removed coordinates =     0
 Number of frozen coordinates =     2
 Number of final active and frozen coordinates =   133
 ITRead=  0  0  0  0  0  0  0  0  0  0  0  0  0  0  0  0  0  0  0  0
 ITRead=  0  0  0  0  0
 MicOpt= -1 -1 -1 -1 -1 -1 -1 -1 -1 -1 -1 -1 -1 -1 -1 -1 -1 -1 -1 -1
 MicOpt= -1 -1 -1 -1 -1
 NAtoms=     25 NQM=       25 NQMF=       0 NMMI=      0 NMMIF=      0
                NMic=       0 NMicF=      0.
                    Isotopes and Nuclear Properties:
 (Nuclear quadrupole moments (NQMom) in fm**2, nuclear magnetic moments (NMagM)
  in nuclear magnetons)

  Atom         1           2           3           4           5           6           7           8           9          10
 IAtWgt=          12          12          12          12          12          12           1           1           1           1
 AtmWgt=  12.0000000  12.0000000  12.0000000  12.0000000  12.0000000  12.0000000   1.0078250   1.0078250   1.0078250   1.0078250
 NucSpn=           0           0           0           0           0           0           1           1           1           1
 AtZEff=  -0.0000000  -0.0000000  -0.0000000  -0.0000000  -0.0000000  -0.0000000  -0.0000000  -0.0000000  -0.0000000  -0.0000000
 NQMom=    0.0000000   0.0000000   0.0000000   0.0000000   0.0000000   0.0000000   0.0000000   0.0000000   0.0000000   0.0000000
 NMagM=    0.0000000   0.0000000   0.0000000   0.0000000   0.0000000   0.0000000   2.7928460   2.7928460   2.7928460   2.7928460
 AtZNuc=   6.0000000   6.0000000   6.0000000   6.0000000   6.0000000   6.0000000   1.0000000   1.0000000   1.0000000   1.0000000

  Atom        11          12          13          14          15          16          17          18          19          20
 IAtWgt=          14          32          12          12          12          12           1          12          12           1
 AtmWgt=  14.0030740  31.9720718  12.0000000  12.0000000  12.0000000  12.0000000   1.0078250  12.0000000  12.0000000   1.0078250
 NucSpn=           2           0           0           0           0           0           1           0           0           1
 AtZEff=  -0.0000000  -0.0000000  -0.0000000  -0.0000000  -0.0000000  -0.0000000  -0.0000000  -0.0000000  -0.0000000  -0.0000000
 NQMom=    2.0440000   0.0000000   0.0000000   0.0000000   0.0000000   0.0000000   0.0000000   0.0000000   0.0000000   0.0000000
 NMagM=    0.4037610   0.0000000   0.0000000   0.0000000   0.0000000   0.0000000   2.7928460   0.0000000   0.0000000   2.7928460
 AtZNuc=   7.0000000  16.0000000   6.0000000   6.0000000   6.0000000   6.0000000   1.0000000   6.0000000   6.0000000   1.0000000

  Atom        21          22          23          24          25
 IAtWgt=           1           1          12          16           1
 AtmWgt=   1.0078250   1.0078250  12.0000000  15.9949146   1.0078250
 NucSpn=           1           1           0           0           1
 AtZEff=  -0.0000000  -0.0000000  -0.0000000  -0.0000000  -0.0000000
 NQMom=    0.0000000   0.0000000   0.0000000   0.0000000   0.0000000
 NMagM=    2.7928460   2.7928460   0.0000000   0.0000000   2.7928460
 AtZNuc=   1.0000000   1.0000000   6.0000000   8.0000000   1.0000000
 Leave Link  101 at Tue Oct 27 22:35:29 2020, MaxMem=  7784628224 cpu:              19.1 elap:               3.2
 (Enter /gpfs/loomis/apps/avx/software/Gaussian/16-C.01_AVX/g16/l103.exe)

 GradGradGradGradGradGradGradGradGradGradGradGradGradGradGradGradGradGrad
 Berny optimization.
 Initialization pass.
                           ----------------------------
                           !    Initial Parameters    !
                           ! (Angstroms and Degrees)  !
 --------------------------                            --------------------------
 ! Name  Definition              Value          Derivative Info.                !
 --------------------------------------------------------------------------------
 ! R1    R(1,2)                  1.3919         estimate D2E/DX2                !
 ! R2    R(1,6)                  1.3942         estimate D2E/DX2                !
 ! R3    R(1,7)                  1.0906         estimate D2E/DX2                !
 ! R4    R(2,3)                  1.4248         estimate D2E/DX2                !
 ! R5    R(2,12)                 1.7559         estimate D2E/DX2                !
 ! R6    R(3,4)                  1.4116         estimate D2E/DX2                !
 ! R7    R(3,11)                 1.3515         estimate D2E/DX2                !
 ! R8    R(4,5)                  1.3853         estimate D2E/DX2                !
 ! R9    R(4,8)                  1.0904         estimate D2E/DX2                !
 ! R10   R(5,6)                  1.4066         estimate D2E/DX2                !
 ! R11   R(5,9)                  1.0915         estimate D2E/DX2                !
 ! R12   R(6,10)                 1.0907         estimate D2E/DX2                !
 ! R13   R(11,23)                1.3596         estimate D2E/DX2                !
 ! R14   R(12,23)                1.7682         estimate D2E/DX2                !
 ! R15   R(13,14)                1.4053         estimate D2E/DX2                !
 ! R16   R(13,15)                1.4803         estimate D2E/DX2                !
 ! R17   R(13,23)                1.4169         estimate D2E/DX2                !
 ! R18   R(14,16)                1.3994         estimate D2E/DX2                !
 ! R19   R(14,17)                1.0915         estimate D2E/DX2                !
 ! R20   R(15,18)                1.4124         estimate D2E/DX2                !
 ! R21   R(15,24)                1.2938         estimate D2E/DX2                !
 ! R22   R(16,19)                1.4092         estimate D2E/DX2                !
 ! R23   R(16,20)                1.0912         estimate D2E/DX2                !
 ! R24   R(18,19)                1.3925         estimate D2E/DX2                !
 ! R25   R(18,21)                1.0905         estimate D2E/DX2                !
 ! R26   R(19,22)                1.0901         estimate D2E/DX2                !
 ! R27   R(24,25)                1.1631         estimate D2E/DX2                !
 ! A1    A(2,1,6)              118.4041         estimate D2E/DX2                !
 ! A2    A(2,1,7)              120.7834         estimate D2E/DX2                !
 ! A3    A(6,1,7)              120.8125         estimate D2E/DX2                !
 ! A4    A(1,2,3)              121.5324         estimate D2E/DX2                !
 ! A5    A(1,2,12)             128.1902         estimate D2E/DX2                !
 ! A6    A(3,2,12)             110.2774         estimate D2E/DX2                !
 ! A7    A(2,3,4)              119.145          estimate D2E/DX2                !
 ! A8    A(2,3,11)             114.1744         estimate D2E/DX2                !
 ! A9    A(4,3,11)             126.6806         estimate D2E/DX2                !
 ! A10   A(3,4,5)              118.7963         estimate D2E/DX2                !
 ! A11   A(3,4,8)              119.6093         estimate D2E/DX2                !
 ! A12   A(5,4,8)              121.5944         estimate D2E/DX2                !
 ! A13   A(4,5,6)              121.4939         estimate D2E/DX2                !
 ! A14   A(4,5,9)              119.2629         estimate D2E/DX2                !
 ! A15   A(6,5,9)              119.2432         estimate D2E/DX2                !
 ! A16   A(1,6,5)              120.6284         estimate D2E/DX2                !
 ! A17   A(1,6,10)             119.5625         estimate D2E/DX2                !
 ! A18   A(5,6,10)             119.8091         estimate D2E/DX2                !
 ! A19   A(3,11,23)            113.2881         estimate D2E/DX2                !
 ! A20   A(2,12,23)             89.1342         estimate D2E/DX2                !
 ! A21   A(14,13,15)           117.683          estimate D2E/DX2                !
 ! A22   A(14,13,23)           125.0318         estimate D2E/DX2                !
 ! A23   A(15,13,23)           117.2852         estimate D2E/DX2                !
 ! A24   A(13,14,16)           120.7451         estimate D2E/DX2                !
 ! A25   A(13,14,17)           119.6248         estimate D2E/DX2                !
 ! A26   A(16,14,17)           119.63           estimate D2E/DX2                !
 ! A27   A(13,15,18)           119.6647         estimate D2E/DX2                !
 ! A28   A(13,15,24)           119.6153         estimate D2E/DX2                !
 ! A29   A(18,15,24)           120.72           estimate D2E/DX2                !
 ! A30   A(14,16,19)           121.5634         estimate D2E/DX2                !
 ! A31   A(14,16,20)           118.9652         estimate D2E/DX2                !
 ! A32   A(19,16,20)           119.4714         estimate D2E/DX2                !
 ! A33   A(15,18,19)           120.6125         estimate D2E/DX2                !
 ! A34   A(15,18,21)           117.324          estimate D2E/DX2                !
 ! A35   A(19,18,21)           122.0635         estimate D2E/DX2                !
 ! A36   A(16,19,18)           119.7312         estimate D2E/DX2                !
 ! A37   A(16,19,22)           120.0014         estimate D2E/DX2                !
 ! A38   A(18,19,22)           120.2673         estimate D2E/DX2                !
 ! A39   A(11,23,12)           113.126          estimate D2E/DX2                !
 ! A40   A(11,23,13)           120.8373         estimate D2E/DX2                !
 ! A41   A(12,23,13)           126.0368         estimate D2E/DX2                !
 ! A42   A(15,24,25)           106.4556         estimate D2E/DX2                !
 ! D1    D(6,1,2,3)              0.0            estimate D2E/DX2                !
 ! D2    D(6,1,2,12)          -180.0            estimate D2E/DX2                !
 ! D3    D(7,1,2,3)            179.9999         estimate D2E/DX2                !
 ! D4    D(7,1,2,12)             0.0            estimate D2E/DX2                !
 ! D5    D(2,1,6,5)              0.0            estimate D2E/DX2                !
 ! D6    D(2,1,6,10)           180.0            estimate D2E/DX2                !
 ! D7    D(7,1,6,5)           -180.0            estimate D2E/DX2                !
 ! D8    D(7,1,6,10)             0.0            estimate D2E/DX2                !
 ! D9    D(1,2,3,4)              0.0            estimate D2E/DX2                !
 ! D10   D(1,2,3,11)           180.0            estimate D2E/DX2                !
 ! D11   D(12,2,3,4)          -180.0            estimate D2E/DX2                !
 ! D12   D(12,2,3,11)            0.0            estimate D2E/DX2                !
 ! D13   D(1,2,12,23)          179.9998         estimate D2E/DX2                !
 ! D14   D(3,2,12,23)           -0.0001         estimate D2E/DX2                !
 ! D15   D(2,3,4,5)             -0.0001         estimate D2E/DX2                !
 ! D16   D(2,3,4,8)            180.0            estimate D2E/DX2                !
 ! D17   D(11,3,4,5)          -180.0            estimate D2E/DX2                !
 ! D18   D(11,3,4,8)             0.0            estimate D2E/DX2                !
 ! D19   D(2,3,11,23)            0.0003         estimate D2E/DX2                !
 ! D20   D(4,3,11,23)         -179.9998         estimate D2E/DX2                !
 ! D21   D(3,4,5,6)              0.0            estimate D2E/DX2                !
 ! D22   D(3,4,5,9)           -180.0            estimate D2E/DX2                !
 ! D23   D(8,4,5,6)           -180.0            estimate D2E/DX2                !
 ! D24   D(8,4,5,9)              0.0            estimate D2E/DX2                !
 ! D25   D(4,5,6,1)              0.0            estimate D2E/DX2                !
 ! D26   D(4,5,6,10)          -180.0            estimate D2E/DX2                !
 ! D27   D(9,5,6,1)           -180.0            estimate D2E/DX2                !
 ! D28   D(9,5,6,10)             0.0            estimate D2E/DX2                !
 ! D29   D(3,11,23,12)          -0.0004         estimate D2E/DX2                !
 ! D30   D(3,11,23,13)         179.999          estimate D2E/DX2                !
 ! D31   D(2,12,23,11)           0.0003         estimate D2E/DX2                !
 ! D32   D(2,12,23,13)        -179.9991         estimate D2E/DX2                !
 ! D33   D(15,13,14,16)          0.0            estimate D2E/DX2                !
 ! D34   D(15,13,14,17)        180.0            estimate D2E/DX2                !
 ! D35   D(23,13,14,16)        179.9999         estimate D2E/DX2                !
 ! D36   D(23,13,14,17)         -0.0001         estimate D2E/DX2                !
 ! D37   D(14,13,15,18)         -0.0001         estimate D2E/DX2                !
 ! D38   D(14,13,15,24)        179.9998         estimate D2E/DX2                !
 ! D39   D(23,13,15,18)       -180.0            estimate D2E/DX2                !
 ! D40   D(23,13,15,24)         -0.0001         estimate D2E/DX2                !
 ! D41   D(14,13,23,11)        179.9995         estimate D2E/DX2                !
 ! D42   D(14,13,23,12)         -0.0011         estimate D2E/DX2                !
 ! D43   D(15,13,23,11)         -0.0006         estimate D2E/DX2                !
 ! D44   D(15,13,23,12)        179.9987         estimate D2E/DX2                !
 ! D45   D(13,14,16,19)          0.0            estimate D2E/DX2                !
 ! D46   D(13,14,16,20)       -180.0            estimate D2E/DX2                !
 ! D47   D(17,14,16,19)       -180.0            estimate D2E/DX2                !
 ! D48   D(17,14,16,20)          0.0001         estimate D2E/DX2                !
 ! D49   D(13,15,18,19)          0.0001         estimate D2E/DX2                !
 ! D50   D(13,15,18,21)        179.9999         estimate D2E/DX2                !
 ! D51   D(24,15,18,19)       -179.9997         estimate D2E/DX2                !
 ! D52   D(24,15,18,21)          0.0            estimate D2E/DX2                !
 ! D53   D(13,15,24,25)          0.0004         estimate D2E/DX2                !
 ! D54   D(18,15,24,25)       -179.9997         estimate D2E/DX2                !
 ! D55   D(14,16,19,18)          0.0            estimate D2E/DX2                !
 ! D56   D(14,16,19,22)       -179.9999         estimate D2E/DX2                !
 ! D57   D(20,16,19,18)       -180.0            estimate D2E/DX2                !
 ! D58   D(20,16,19,22)          0.0001         estimate D2E/DX2                !
 ! D59   D(15,18,19,16)         -0.0001         estimate D2E/DX2                !
 ! D60   D(15,18,19,22)        179.9999         estimate D2E/DX2                !
 ! D61   D(21,18,19,16)       -179.9999         estimate D2E/DX2                !
 ! D62   D(21,18,19,22)          0.0001         estimate D2E/DX2                !
 ! Qtot  GIC-1                   0.0            Frozen                          !
 ! Ptot  GIC-2                   0.0            Frozen                          !
 --------------------------------------------------------------------------------
 NOTE: GIC-type coordinates are in arbitrary units.
 Trust Radius=3.00D-01 FncErr=5.00D-06 GrdErr=5.00D-06 EigMax=2.50D+02 EigMin=1.00D-04
 Number of steps in this run=    143 maximum allowed number of steps=    150.
 GradGradGradGradGradGradGradGradGradGradGradGradGradGradGradGradGradGrad

 Leave Link  103 at Tue Oct 27 22:35:29 2020, MaxMem=  7784628224 cpu:               0.2 elap:               0.1
 (Enter /gpfs/loomis/apps/avx/software/Gaussian/16-C.01_AVX/g16/l202.exe)
                          Input orientation:                          
 ---------------------------------------------------------------------
 Center     Atomic      Atomic             Coordinates (Angstroms)
 Number     Number       Type             X           Y           Z
 ---------------------------------------------------------------------
      1          6           0        1.662141   -3.264439   -0.000022
      2          6           0        1.000039   -2.040114   -0.000022
      3          6           0        1.713828   -0.806956   -0.000022
      4          6           0        3.125232   -0.829585   -0.000023
      5          6           0        3.772966   -2.054093   -0.000023
      6          6           0        3.056359   -3.264439   -0.000022
      7          1           0        1.103492   -4.201114   -0.000020
      8          1           0        3.679129    0.109701   -0.000024
      9          1           0        4.864120   -2.080478   -0.000023
     10          1           0        3.594496   -4.213177   -0.000021
     11          7           0        0.923977    0.289728   -0.000022
     12         16           0       -0.730341   -1.741656   -0.000021
     13          6           0       -1.375466    1.027079    0.000004
     14          6           0       -2.766155    0.824707    0.000002
     15          6           0       -0.883675    2.423320    0.000032
     16          6           0       -3.647313    1.911890    0.000026
     17          1           0       -3.163436   -0.191889   -0.000019
     18          6           0       -1.809037    3.490391    0.000054
     19          6           0       -3.178964    3.240956    0.000052
     20          1           0       -4.721765    1.721286    0.000023
     21          1           0       -1.405041    4.503312    0.000077
     22          1           0       -3.888207    4.068835    0.000072
     23          6           0       -0.403504   -0.003935   -0.000017
     24          8           0        0.389655    2.652698    0.000039
     25          1           0        0.911672    1.613310    0.000011
 ---------------------------------------------------------------------
                    Distance matrix (angstroms):
                    1          2          3          4          5
     1  C    0.000000
     2  C    1.391887   0.000000
     3  C    2.458026   1.424842   0.000000
     4  C    2.840625   2.445777   1.411585   0.000000
     5  C    2.433212   2.772962   2.407363   1.385272   0.000000
     6  C    1.394219   2.393204   2.800288   2.435828   1.406578
     7  H    1.090618   2.163475   3.448597   3.931239   3.425754
     8  H    3.931038   3.435000   2.168563   1.090440   2.165827
     9  H    3.413860   3.864292   3.397970   2.142070   1.091474
    10  H    2.152696   3.384289   3.890920   3.415978   2.166448
    11  N    3.630012   2.331084   1.351511   2.469491   3.689205
    12  S    2.835990   1.755931   2.616797   3.961984   4.514132
    13  C    5.257773   3.879522   3.592689   4.868622   5.999997
    14  C    6.027513   4.731957   4.767868   6.119242   7.144759
    15  C    6.231515   4.844649   4.145082   5.162628   6.459994
    16  C    7.415165   6.100509   6.011152   7.306370   8.413653
    17  H    5.720730   4.555267   4.915893   6.320918   7.182024
    18  C    7.594524   6.203015   5.556777   6.558140   7.867659
    19  C    8.109036   6.734521   6.350197   7.504145   8.738814
    20  H    8.100105   6.847421   6.914395   8.251200   9.295909
    21  H    8.351381   6.971430   6.158432   6.997368   8.355316
    22  H    9.196916   7.823951   7.426718   8.554698   9.807335
    23  C    3.859763   2.473046   2.264495   3.624042   4.652531
    24  O    6.052415   4.732341   3.704408   4.428282   5.796609
    25  H    4.935143   3.654493   2.549734   3.296602   4.651542
                    6          7          8          9         10
     6  C    0.000000
     7  H    2.165883   0.000000
     8  H    3.431131   5.021656   0.000000
     9  H    2.160963   4.317339   2.490198   0.000000
    10  H    1.090732   2.491033   4.323706   2.482005   0.000000
    11  N    4.144775   4.494429   2.761028   4.598109   5.235249
    12  S    4.081418   3.067879   4.782358   5.604712   4.981228
    13  C    6.169132   5.786124   5.137169   6.970606   7.222243
    14  C    7.114969   6.342952   6.484822   8.164631   8.114071
    15  C    6.919138   6.916065   5.115859   7.302147   8.006067
    16  C    8.469569   7.742026   7.544842   9.401250   9.484737
    17  H    6.937320   5.854960   6.849208   8.246722   7.863867
    18  C    8.324651   8.224480   6.445854   8.692848   9.409736
    19  C    9.011072   8.586259   7.539111   9.644110  10.071934
    20  H    9.238867   8.307132   8.554077  10.312255  10.216558
    21  H    8.957792   9.058685   6.719569   9.091132  10.048510
    22  H   10.099699   9.659665   8.540452  10.696602  11.161657
    23  C    4.754108   4.459523   4.084214   5.662146   5.805319
    24  O    6.490287   6.890885   4.157821   6.513355   7.577021
    25  H    5.328426   5.817587   3.149549   5.409799   6.414476
                   11         12         13         14         15
    11  N    0.000000
    12  S    2.619788   0.000000
    13  C    2.414771   2.842899   0.000000
    14  C    3.728709   3.275783   1.405336   0.000000
    15  C    2.796394   4.167797   1.480320   2.469675   0.000000
    16  C    4.850577   4.675160   2.438069   1.399431   2.810561
    17  H    4.115689   2.884740   2.163959   1.091467   3.469385
    18  C    4.208753   5.342087   2.501178   2.832304   1.412422
    19  C    5.054094   5.551772   2.855496   2.451259   2.436571
    20  H    5.824410   5.284262   3.417549   2.151340   3.901767
    21  H    4.814417   6.281309   3.476359   3.922342   2.144339
    22  H    6.118722   6.613163   3.945397   3.432691   3.425629
    23  C    1.359575   1.768190   1.416933   2.503750   2.474294
    24  O    2.422628   4.534836   2.399643   3.647010   1.293825
    25  H    1.323639   3.735238   2.361073   3.761423   1.969616
                   16         17         18         19         20
    16  C    0.000000
    17  H    2.158709   0.000000
    18  C    2.422999   3.923466   0.000000
    19  C    1.409173   3.432881   1.392450   0.000000
    20  H    1.091228   2.467515   3.407891   2.165556   0.000000
    21  H    3.426843   5.013668   1.090515   2.177234   4.329011
    22  H    2.170356   4.321929   2.158135   1.090142   2.491146
    23  C    3.767317   2.766324   3.766409   4.269953   4.650136
    24  O    4.104376   4.551498   2.352865   3.616778   5.195589
    25  H    4.568751   4.457044   3.305403   4.402559   5.634471
                   21         22         23         24         25
    21  H    0.000000
    22  H    2.520890   0.000000
    23  C    4.617180   5.360095   0.000000
    24  O    2.577926   4.506168   2.772508   0.000000
    25  H    3.703953   5.391516   2.084507   1.163112   0.000000
 Symmetry turned off by external request.
 Stoichiometry    C13H9NOS
 Framework group  C1[X(C13H9NOS)]
 Deg. of freedom    69
 Full point group                 C1      NOp   1
 Rotational constants (GHZ):           1.3789682           0.2859804           0.2368589
 Leave Link  202 at Tue Oct 27 22:35:29 2020, MaxMem=  7784628224 cpu:               0.2 elap:               0.1
 (Enter /gpfs/loomis/apps/avx/software/Gaussian/16-C.01_AVX/g16/l301.exe)
 Standard basis: CC-pVDZ (5D, 7F)
 Ernie: Thresh=  0.10000D-02 Tol=  0.10000D-05 Strict=F.
 Ernie:  40 primitive shells out of 425 were deleted.
   273 basis functions,   629 primitive gaussians,   289 cartesian basis functions
    59 alpha electrons       59 beta electrons
       nuclear repulsion energy      1098.2591766714 Hartrees.
 IExCor= 4639 DFT=T Ex+Corr=wB97XD ExCW=0 ScaHFX=  1.000000
 ScaDFX=  1.000000  1.000000  1.000000  1.000000 ScalE2=  1.000000  1.000000
 IRadAn=      5 IRanWt=     -1 IRanGd=            0 ICorTp=0 IEmpDi=121
 HFx  wShort=  0.000000 wLong=  0.200000 cFull=  0.222036 cShort=  0.000000 cLong=  0.777964
 DFx  wShort=  0.000000 wLong=  0.200000 cFull=  0.000000 cShort=  0.000000 cLong=  1.000000
 NAtoms=   25 NActive=   25 NUniq=   25 SFac= 1.00D+00 NAtFMM=   60 NAOKFM=F Big=F
 Integral buffers will be    131072 words long.
 Raffenetti 2 integral format.
 Two-electron integral symmetry is turned off.
 R6Disp:  Grimme-D2 Dispersion energy=       -0.0139519120 Hartrees.
 Nuclear repulsion after empirical dispersion term =     1098.2452247594 Hartrees.
 ------------------------------------------------------------------------------
 Polarizable Continuum Model (PCM)
 =================================
 Model                : PCM.
 Atomic radii         : UFF (Universal Force Field).
 Polarization charges : Total charges.
 Charge compensation  : None.
 Solution method      : On-the-fly selection.
 Cavity type          : Scaled VdW (van der Waals Surface) (Alpha=1.100).
 Cavity algorithm     : GePol (No added spheres)
                        Default sphere list used, NSphG=   25.
                        Lebedev-Laikov grids with approx.  5.0 points / Ang**2.
                        Smoothing algorithm: York/Karplus (Gamma=1.0000).
                        Polarization charges: spherical gaussians, with
                                              point-specific exponents (IZeta= 3).
                        Self-potential: point-specific (ISelfS= 7).
                        Self-field    : sphere-specific E.n sum rule (ISelfD= 2).
 1st derivatives      : Analytical E(r).r(x)/FMM algorithm (CHGder, D1EAlg=3).
                        Cavity 1st derivative terms included.
 Solvent              : CarbonTetraChloride, Eps=   2.228000 Eps(inf)=   2.131892
 ------------------------------------------------------------------------------
 GePol: Number of generator spheres                  =      25
 GePol: Total number of spheres                      =      25
 GePol: Number of exposed spheres                    =      25 (100.00%)
 GePol: Number of points                             =    2178
 GePol: Average weight of points                     =       0.13
 GePol: Minimum weight of points                     =   0.55D-11
 GePol: Maximum weight of points                     =    0.20577
 GePol: Number of points with low weight             =     128
 GePol: Fraction of low-weight points (<1% of avg)   =       5.88%
 GePol: Cavity surface area                          =    273.881 Ang**2
 GePol: Cavity volume                                =    293.250 Ang**3
 Leave Link  301 at Tue Oct 27 22:35:30 2020, MaxMem=  7784628224 cpu:               0.7 elap:               0.2
 (Enter /gpfs/loomis/apps/avx/software/Gaussian/16-C.01_AVX/g16/l302.exe)
 NPDir=0 NMtPBC=     1 NCelOv=     1 NCel=       1 NClECP=     1 NCelD=      1
         NCelK=      1 NCelE2=     1 NClLst=     1 CellRange=     0.0.
 One-electron integrals computed using PRISM.
 NBasis=   273 RedAO= T EigKep=  3.11D-04  NBF=   273
 NBsUse=   273 1.00D-06 EigRej= -1.00D+00 NBFU=   273
 Precomputing XC quadrature grid using
 IXCGrd= 4 IRadAn=           5 IRanWt=          -1 IRanGd=           0 AccXCQ= 0.00D+00.
 Generated NRdTot=       0 NPtTot=           0 NUsed=           0 NTot=          32
 NSgBfM=   288   288   288   288   288 MxSgAt=    25 MxSgA2=    25.
 Leave Link  302 at Tue Oct 27 22:35:30 2020, MaxMem=  7784628224 cpu:               5.5 elap:               0.9
 (Enter /gpfs/loomis/apps/avx/software/Gaussian/16-C.01_AVX/g16/l303.exe)
 DipDrv:  MaxL=1.
 Leave Link  303 at Tue Oct 27 22:35:31 2020, MaxMem=  7784628224 cpu:               0.5 elap:               0.1
 (Enter /gpfs/loomis/apps/avx/software/Gaussian/16-C.01_AVX/g16/l401.exe)
 ExpMin= 1.22D-01 ExpMax= 1.11D+05 ExpMxC= 1.07D+03 IAcc=3 IRadAn=         5 AccDes= 0.00D+00
 Harris functional with IExCor= 4639 and IRadAn=       5 diagonalized for initial guess.
 HarFok:  IExCor= 4639 AccDes= 0.00D+00 IRadAn=         5 IDoV= 1 UseB2=F ITyADJ=14
 ICtDFT=  3500011 ScaDFX=  1.000000  1.000000  1.000000  1.000000
 FoFCou: FMM=F IPFlag=           0 FMFlag=      100000 FMFlg1=           0
         NFxFlg=           0 DoJE=T BraDBF=F KetDBF=T FulRan=T
         wScrn=  0.000000 ICntrl=       500 IOpCl=  0 I1Cent=   200000004 NGrid=           0
         NMat0=    1 NMatS0=      1 NMatT0=    0 NMatD0=    1 NMtDS0=    0 NMtDT0=    0
 Symmetry not used in FoFCou.
 Harris En= -994.459324468333    
 JPrj=0 DoOrth=F DoCkMO=F.
 Leave Link  401 at Tue Oct 27 22:35:33 2020, MaxMem=  7784628224 cpu:              17.0 elap:               2.6
 (Enter /gpfs/loomis/apps/avx/software/Gaussian/16-C.01_AVX/g16/l502.exe)
 Two-electron integral symmetry not used.
 Closed shell SCF:
 Using DIIS extrapolation, IDIIS=  1040.
 NGot=  7784628224 LenX=  7784455381 LenY=  7784371419
 Requested convergence on RMS density matrix=1.00D-08 within 128 cycles.
 Requested convergence on MAX density matrix=1.00D-06.
 Requested convergence on             energy=1.00D-06.
 No special actions if energy rises.
 Fock matrices will be formed incrementally for  20 cycles.

 Cycle   1  Pass 1  IDiag  1:
 FoFJK:  IHMeth= 1 ICntrl=       0 DoSepK=T KAlg= 0 I1Cent=           0 FoldK=F
 IRaf=         1 NMat=       1 IRICut=       1 DoRegI=T DoRafI=F ISym2E= 0 IDoP0=0 IntGTp=1.
 FoFCou: FMM=F IPFlag=           0 FMFlag=      100000 FMFlg1=           0
         NFxFlg=           0 DoJE=T BraDBF=F KetDBF=F FulRan=T
         wScrn=  0.000000 ICntrl=       500 IOpCl=  0 I1Cent=           0 NGrid=           0
         NMat0=    1 NMatS0=      1 NMatT0=    0 NMatD0=    1 NMtDS0=    0 NMtDT0=    0
 Symmetry not used in FoFCou.
 Inv3:  Mode=1 IEnd=    14231052.
 Iteration    1 A*A^-1 deviation from unit magnitude is 6.22D-15 for   2162.
 Iteration    1 A*A^-1 deviation from orthogonality  is 1.58D-15 for   2162   2020.
 Iteration    1 A^-1*A deviation from unit magnitude is 6.22D-15 for   2162.
 Iteration    1 A^-1*A deviation from orthogonality  is 1.29D-15 for   1116    624.
 E= -1028.57691933986    
 DIIS: error= 3.59D-02 at cycle   1 NSaved=   1.
 NSaved= 1 IEnMin= 1 EnMin= -1028.57691933986     IErMin= 1 ErrMin= 3.59D-02
 ErrMax= 3.59D-02  0.00D+00 EMaxC= 1.00D-01 BMatC= 3.92D-01 BMatP= 3.92D-01
 IDIUse=3 WtCom= 6.41D-01 WtEn= 3.59D-01
 Coeff-Com:  0.100D+01
 Coeff-En:   0.100D+01
 Coeff:      0.100D+01
 Gap=     0.347 Goal=   None    Shift=    0.000
 GapD=    0.347 DampG=1.000 DampE=0.500 DampFc=0.5000 IDamp=-1.
 Damping current iteration by 5.00D-01
 RMSDP=3.53D-03 MaxDP=2.25D-01              OVMax= 1.76D-01

 Cycle   2  Pass 1  IDiag  1:
 RMSU=  1.76D-03    CP:  9.93D-01
 E= -1028.69513162546     Delta-E=       -0.118212285601 Rises=F Damp=T
 DIIS: error= 1.24D-02 at cycle   2 NSaved=   2.
 NSaved= 2 IEnMin= 2 EnMin= -1028.69513162546     IErMin= 2 ErrMin= 1.24D-02
 ErrMax= 1.24D-02  0.00D+00 EMaxC= 1.00D-01 BMatC= 5.77D-02 BMatP= 3.92D-01
 IDIUse=3 WtCom= 8.76D-01 WtEn= 1.24D-01
 Coeff-Com: -0.290D+00 0.129D+01
 Coeff-En:   0.000D+00 0.100D+01
 Coeff:     -0.254D+00 0.125D+01
 Gap=     0.301 Goal=   None    Shift=    0.000
 RMSDP=1.14D-03 MaxDP=2.40D-02 DE=-1.18D-01 OVMax= 1.15D-01

 Cycle   3  Pass 1  IDiag  1:
 RMSU=  1.08D-03    CP:  9.91D-01  1.20D+00
 E= -1028.80029228401     Delta-E=       -0.105160658550 Rises=F Damp=F
 DIIS: error= 5.70D-03 at cycle   3 NSaved=   3.
 NSaved= 3 IEnMin= 3 EnMin= -1028.80029228401     IErMin= 3 ErrMin= 5.70D-03
 ErrMax= 5.70D-03  0.00D+00 EMaxC= 1.00D-01 BMatC= 1.32D-02 BMatP= 5.77D-02
 IDIUse=3 WtCom= 9.43D-01 WtEn= 5.70D-02
 Coeff-Com: -0.199D+00 0.475D+00 0.724D+00
 Coeff-En:   0.000D+00 0.000D+00 0.100D+01
 Coeff:     -0.187D+00 0.448D+00 0.739D+00
 Gap=     0.260 Goal=   None    Shift=    0.000
 RMSDP=5.15D-04 MaxDP=1.78D-02 DE=-1.05D-01 OVMax= 3.77D-02

 Cycle   4  Pass 1  IDiag  1:
 RMSU=  4.06D-04    CP:  9.89D-01  1.35D+00  8.51D-01
 E= -1028.81257201489     Delta-E=       -0.012279730882 Rises=F Damp=F
 DIIS: error= 1.97D-03 at cycle   4 NSaved=   4.
 NSaved= 4 IEnMin= 4 EnMin= -1028.81257201489     IErMin= 4 ErrMin= 1.97D-03
 ErrMax= 1.97D-03  0.00D+00 EMaxC= 1.00D-01 BMatC= 1.60D-03 BMatP= 1.32D-02
 IDIUse=3 WtCom= 9.80D-01 WtEn= 1.97D-02
 Coeff-Com: -0.705D-01 0.139D+00 0.350D+00 0.581D+00
 Coeff-En:   0.000D+00 0.000D+00 0.000D+00 0.100D+01
 Coeff:     -0.691D-01 0.137D+00 0.343D+00 0.589D+00
 Gap=     0.257 Goal=   None    Shift=    0.000
 RMSDP=1.63D-04 MaxDP=9.59D-03 DE=-1.23D-02 OVMax= 1.32D-02

 Cycle   5  Pass 1  IDiag  1:
 RMSU=  1.03D-04    CP:  9.89D-01  1.37D+00  9.19D-01  7.51D-01
 E= -1028.81423892981     Delta-E=       -0.001666914915 Rises=F Damp=F
 DIIS: error= 3.70D-04 at cycle   5 NSaved=   5.
 NSaved= 5 IEnMin= 5 EnMin= -1028.81423892981     IErMin= 5 ErrMin= 3.70D-04
 ErrMax= 3.70D-04  0.00D+00 EMaxC= 1.00D-01 BMatC= 4.95D-05 BMatP= 1.60D-03
 IDIUse=3 WtCom= 9.96D-01 WtEn= 3.70D-03
 Coeff-Com: -0.128D-02-0.339D-02 0.339D-01 0.158D+00 0.813D+00
 Coeff-En:   0.000D+00 0.000D+00 0.000D+00 0.000D+00 0.100D+01
 Coeff:     -0.128D-02-0.338D-02 0.338D-01 0.157D+00 0.814D+00
 Gap=     0.258 Goal=   None    Shift=    0.000
 RMSDP=5.05D-05 MaxDP=1.54D-03 DE=-1.67D-03 OVMax= 4.81D-03

 Cycle   6  Pass 1  IDiag  1:
 RMSU=  3.23D-05    CP:  9.89D-01  1.37D+00  9.37D-01  8.30D-01  1.07D+00
 E= -1028.81434229436     Delta-E=       -0.000103364551 Rises=F Damp=F
 DIIS: error= 1.60D-04 at cycle   6 NSaved=   6.
 NSaved= 6 IEnMin= 6 EnMin= -1028.81434229436     IErMin= 6 ErrMin= 1.60D-04
 ErrMax= 1.60D-04  0.00D+00 EMaxC= 1.00D-01 BMatC= 8.21D-06 BMatP= 4.95D-05
 IDIUse=3 WtCom= 9.98D-01 WtEn= 1.60D-03
 Coeff-Com:  0.143D-01-0.294D-01-0.574D-01-0.616D-01 0.203D+00 0.931D+00
 Coeff-En:   0.000D+00 0.000D+00 0.000D+00 0.000D+00 0.000D+00 0.100D+01
 Coeff:      0.143D-01-0.294D-01-0.573D-01-0.615D-01 0.203D+00 0.931D+00
 Gap=     0.259 Goal=   None    Shift=    0.000
 RMSDP=2.88D-05 MaxDP=1.50D-03 DE=-1.03D-04 OVMax= 2.58D-03

 Cycle   7  Pass 1  IDiag  1:
 RMSU=  1.46D-05    CP:  9.89D-01  1.37D+00  9.47D-01  8.58D-01  1.24D+00
                    CP:  1.25D+00
 E= -1028.81436703076     Delta-E=       -0.000024736408 Rises=F Damp=F
 DIIS: error= 1.04D-04 at cycle   7 NSaved=   7.
 NSaved= 7 IEnMin= 7 EnMin= -1028.81436703076     IErMin= 7 ErrMin= 1.04D-04
 ErrMax= 1.04D-04  0.00D+00 EMaxC= 1.00D-01 BMatC= 1.87D-06 BMatP= 8.21D-06
 IDIUse=3 WtCom= 9.99D-01 WtEn= 1.04D-03
 Coeff-Com:  0.612D-02-0.117D-01-0.281D-01-0.450D-01-0.149D-01 0.402D+00
 Coeff-Com:  0.692D+00
 Coeff-En:   0.000D+00 0.000D+00 0.000D+00 0.000D+00 0.000D+00 0.000D+00
 Coeff-En:   0.100D+01
 Coeff:      0.611D-02-0.117D-01-0.281D-01-0.450D-01-0.148D-01 0.401D+00
 Coeff:      0.692D+00
 Gap=     0.259 Goal=   None    Shift=    0.000
 RMSDP=9.40D-06 MaxDP=3.91D-04 DE=-2.47D-05 OVMax= 1.15D-03

 Cycle   8  Pass 1  IDiag  1:
 RMSU=  5.87D-06    CP:  9.89D-01  1.37D+00  9.49D-01  8.64D-01  1.27D+00
                    CP:  1.42D+00  1.11D+00
 E= -1028.81437068004     Delta-E=       -0.000003649278 Rises=F Damp=F
 DIIS: error= 3.95D-05 at cycle   8 NSaved=   8.
 NSaved= 8 IEnMin= 8 EnMin= -1028.81437068004     IErMin= 8 ErrMin= 3.95D-05
 ErrMax= 3.95D-05  0.00D+00 EMaxC= 1.00D-01 BMatC= 3.01D-07 BMatP= 1.87D-06
 IDIUse=1 WtCom= 1.00D+00 WtEn= 0.00D+00
 Coeff-Com: -0.111D-02 0.249D-02 0.356D-02 0.756D-03-0.405D-01-0.650D-01
 Coeff-Com:  0.246D+00 0.854D+00
 Coeff:     -0.111D-02 0.249D-02 0.356D-02 0.756D-03-0.405D-01-0.650D-01
 Coeff:      0.246D+00 0.854D+00
 Gap=     0.259 Goal=   None    Shift=    0.000
 RMSDP=4.69D-06 MaxDP=1.42D-04 DE=-3.65D-06 OVMax= 6.41D-04

 Cycle   9  Pass 1  IDiag  1:
 RMSU=  2.25D-06    CP:  9.89D-01  1.37D+00  9.49D-01  8.64D-01  1.28D+00
                    CP:  1.49D+00  1.33D+00  1.14D+00
 E= -1028.81437147215     Delta-E=       -0.000000792111 Rises=F Damp=F
 DIIS: error= 1.55D-05 at cycle   9 NSaved=   9.
 NSaved= 9 IEnMin= 9 EnMin= -1028.81437147215     IErMin= 9 ErrMin= 1.55D-05
 ErrMax= 1.55D-05  0.00D+00 EMaxC= 1.00D-01 BMatC= 4.12D-08 BMatP= 3.01D-07
 IDIUse=1 WtCom= 1.00D+00 WtEn= 0.00D+00
 Coeff-Com: -0.111D-02 0.222D-02 0.467D-02 0.636D-02-0.107D-01-0.809D-01
 Coeff-Com: -0.908D-02 0.258D+00 0.830D+00
 Coeff:     -0.111D-02 0.222D-02 0.467D-02 0.636D-02-0.107D-01-0.809D-01
 Coeff:     -0.908D-02 0.258D+00 0.830D+00
 Gap=     0.259 Goal=   None    Shift=    0.000
 RMSDP=2.13D-06 MaxDP=5.66D-05 DE=-7.92D-07 OVMax= 3.36D-04

 Cycle  10  Pass 1  IDiag  1:
 RMSU=  1.03D-06    CP:  9.89D-01  1.37D+00  9.49D-01  8.64D-01  1.28D+00
                    CP:  1.52D+00  1.41D+00  1.29D+00  1.22D+00
 E= -1028.81437163016     Delta-E=       -0.000000158011 Rises=F Damp=F
 DIIS: error= 8.20D-06 at cycle  10 NSaved=  10.
 NSaved=10 IEnMin=10 EnMin= -1028.81437163016     IErMin=10 ErrMin= 8.20D-06
 ErrMax= 8.20D-06  0.00D+00 EMaxC= 1.00D-01 BMatC= 1.15D-08 BMatP= 4.12D-08
 IDIUse=1 WtCom= 1.00D+00 WtEn= 0.00D+00
 Coeff-Com: -0.160D-03 0.268D-03 0.942D-03 0.235D-02 0.420D-02-0.201D-01
 Coeff-Com: -0.470D-01-0.909D-01 0.313D+00 0.838D+00
 Coeff:     -0.160D-03 0.268D-03 0.942D-03 0.235D-02 0.420D-02-0.201D-01
 Coeff:     -0.470D-01-0.909D-01 0.313D+00 0.838D+00
 Gap=     0.259 Goal=   None    Shift=    0.000
 RMSDP=1.17D-06 MaxDP=3.12D-05 DE=-1.58D-07 OVMax= 1.93D-04

 Cycle  11  Pass 1  IDiag  1:
 RMSU=  4.74D-07    CP:  9.89D-01  1.37D+00  9.49D-01  8.64D-01  1.28D+00
                    CP:  1.53D+00  1.44D+00  1.38D+00  1.52D+00  1.23D+00
 E= -1028.81437167304     Delta-E=       -0.000000042873 Rises=F Damp=F
 DIIS: error= 3.95D-06 at cycle  11 NSaved=  11.
 NSaved=11 IEnMin=11 EnMin= -1028.81437167304     IErMin=11 ErrMin= 3.95D-06
 ErrMax= 3.95D-06  0.00D+00 EMaxC= 1.00D-01 BMatC= 1.85D-09 BMatP= 1.15D-08
 IDIUse=1 WtCom= 1.00D+00 WtEn= 0.00D+00
 Coeff-Com:  0.220D-03-0.453D-03-0.825D-03-0.727D-03 0.411D-02 0.995D-02
 Coeff-Com: -0.583D-02-0.825D-01-0.674D-01 0.216D+00 0.928D+00
 Coeff:      0.220D-03-0.453D-03-0.825D-03-0.727D-03 0.411D-02 0.995D-02
 Coeff:     -0.583D-02-0.825D-01-0.674D-01 0.216D+00 0.928D+00
 Gap=     0.259 Goal=   None    Shift=    0.000
 RMSDP=5.45D-07 MaxDP=1.41D-05 DE=-4.29D-08 OVMax= 1.02D-04

 Cycle  12  Pass 1  IDiag  1:
 RMSU=  1.96D-07    CP:  9.89D-01  1.37D+00  9.49D-01  8.64D-01  1.28D+00
                    CP:  1.54D+00  1.45D+00  1.40D+00  1.66D+00  1.52D+00
                    CP:  1.18D+00
 E= -1028.81437168209     Delta-E=       -0.000000009048 Rises=F Damp=F
 DIIS: error= 1.26D-06 at cycle  12 NSaved=  12.
 NSaved=12 IEnMin=12 EnMin= -1028.81437168209     IErMin=12 ErrMin= 1.26D-06
 ErrMax= 1.26D-06  0.00D+00 EMaxC= 1.00D-01 BMatC= 4.76D-10 BMatP= 1.85D-09
 IDIUse=1 WtCom= 1.00D+00 WtEn= 0.00D+00
 Coeff-Com:  0.108D-03-0.211D-03-0.479D-03-0.761D-03 0.881D-03 0.740D-02
 Coeff-Com:  0.905D-02-0.153D-01-0.934D-01-0.127D+00 0.331D+00 0.889D+00
 Coeff:      0.108D-03-0.211D-03-0.479D-03-0.761D-03 0.881D-03 0.740D-02
 Coeff:      0.905D-02-0.153D-01-0.934D-01-0.127D+00 0.331D+00 0.889D+00
 Gap=     0.259 Goal=   None    Shift=    0.000
 RMSDP=2.91D-07 MaxDP=6.74D-06 DE=-9.05D-09 OVMax= 4.74D-05

 Cycle  13  Pass 1  IDiag  1:
 RMSU=  7.70D-08    CP:  9.89D-01  1.37D+00  9.49D-01  8.64D-01  1.28D+00
                    CP:  1.54D+00  1.46D+00  1.41D+00  1.73D+00  1.65D+00
                    CP:  1.48D+00  1.15D+00
 E= -1028.81437168390     Delta-E=       -0.000000001817 Rises=F Damp=F
 DIIS: error= 4.30D-07 at cycle  13 NSaved=  13.
 NSaved=13 IEnMin=13 EnMin= -1028.81437168390     IErMin=13 ErrMin= 4.30D-07
 ErrMax= 4.30D-07  0.00D+00 EMaxC= 1.00D-01 BMatC= 3.47D-11 BMatP= 4.76D-10
 IDIUse=1 WtCom= 1.00D+00 WtEn= 0.00D+00
 Coeff-Com: -0.831D-05 0.194D-04 0.138D-04-0.734D-04-0.249D-03 0.262D-03
 Coeff-Com:  0.343D-02 0.803D-02-0.825D-02-0.605D-01-0.581D-01 0.201D+00
 Coeff-Com:  0.915D+00
 Coeff:     -0.831D-05 0.194D-04 0.138D-04-0.734D-04-0.249D-03 0.262D-03
 Coeff:      0.343D-02 0.803D-02-0.825D-02-0.605D-01-0.581D-01 0.201D+00
 Coeff:      0.915D+00
 Gap=     0.259 Goal=   None    Shift=    0.000
 RMSDP=6.82D-08 MaxDP=1.79D-06 DE=-1.82D-09 OVMax= 1.01D-05

 Cycle  14  Pass 1  IDiag  1:
 RMSU=  2.53D-08    CP:  9.89D-01  1.37D+00  9.49D-01  8.64D-01  1.28D+00
                    CP:  1.54D+00  1.46D+00  1.41D+00  1.75D+00  1.68D+00
                    CP:  1.54D+00  1.32D+00  1.17D+00
 E= -1028.81437168403     Delta-E=       -0.000000000127 Rises=F Damp=F
 DIIS: error= 9.71D-08 at cycle  14 NSaved=  14.
 NSaved=14 IEnMin=14 EnMin= -1028.81437168403     IErMin=14 ErrMin= 9.71D-08
 ErrMax= 9.71D-08  0.00D+00 EMaxC= 1.00D-01 BMatC= 3.41D-12 BMatP= 3.47D-11
 IDIUse=1 WtCom= 1.00D+00 WtEn= 0.00D+00
 Coeff-Com: -0.104D-04 0.210D-04 0.417D-04 0.376D-04-0.124D-03-0.542D-03
 Coeff-Com:  0.171D-03 0.286D-02 0.532D-02-0.504D-02-0.373D-01-0.177D-01
 Coeff-Com:  0.239D+00 0.813D+00
 Coeff:     -0.104D-04 0.210D-04 0.417D-04 0.376D-04-0.124D-03-0.542D-03
 Coeff:      0.171D-03 0.286D-02 0.532D-02-0.504D-02-0.373D-01-0.177D-01
 Coeff:      0.239D+00 0.813D+00
 Gap=     0.259 Goal=   None    Shift=    0.000
 RMSDP=1.45D-08 MaxDP=3.92D-07 DE=-1.27D-10 OVMax= 1.63D-06

 Cycle  15  Pass 1  IDiag  1:
 RMSU=  8.51D-09    CP:  9.89D-01  1.37D+00  9.49D-01  8.64D-01  1.28D+00
                    CP:  1.54D+00  1.46D+00  1.41D+00  1.75D+00  1.68D+00
                    CP:  1.55D+00  1.34D+00  1.27D+00  1.13D+00
 E= -1028.81437168403     Delta-E=        0.000000000000 Rises=F Damp=F
 DIIS: error= 6.33D-08 at cycle  15 NSaved=  15.
 NSaved=15 IEnMin=14 EnMin= -1028.81437168403     IErMin=15 ErrMin= 6.33D-08
 ErrMax= 6.33D-08  0.00D+00 EMaxC= 1.00D-01 BMatC= 6.10D-13 BMatP= 3.41D-12
 IDIUse=1 WtCom= 1.00D+00 WtEn= 0.00D+00
 Coeff-Com: -0.212D-05 0.380D-05 0.126D-04 0.245D-04-0.544D-05-0.263D-03
 Coeff-Com: -0.532D-03-0.304D-03 0.340D-02 0.837D-02-0.405D-02-0.431D-01
 Coeff-Com: -0.703D-01 0.267D+00 0.840D+00
 Coeff:     -0.212D-05 0.380D-05 0.126D-04 0.245D-04-0.544D-05-0.263D-03
 Coeff:     -0.532D-03-0.304D-03 0.340D-02 0.837D-02-0.405D-02-0.431D-01
 Coeff:     -0.703D-01 0.267D+00 0.840D+00
 Gap=     0.259 Goal=   None    Shift=    0.000
 RMSDP=7.21D-09 MaxDP=1.52D-07 DE= 4.55D-13 OVMax= 8.85D-07

 Error on total polarization charges =  0.00833
 SCF Done:  E(RwB97XD) =  -1028.81437168     A.U. after   15 cycles
            NFock= 15  Conv=0.72D-08     -V/T= 2.0050
 KE= 1.023712308684D+03 PE=-4.608619889409D+03 EE= 1.457847984282D+03
 Leave Link  502 at Tue Oct 27 22:36:56 2020, MaxMem=  7784628224 cpu:             817.1 elap:              83.0
 (Enter /gpfs/loomis/apps/avx/software/Gaussian/16-C.01_AVX/g16/l601.exe)
 Copying SCF densities to generalized density rwf, IOpCl= 0 IROHF=0.

 **********************************************************************

            Population analysis using the SCF Density.

 **********************************************************************

 Alpha  occ. eigenvalues --  -89.09592 -19.25612 -14.48497 -10.40501 -10.37413
 Alpha  occ. eigenvalues --  -10.35886 -10.35281 -10.32590 -10.32051 -10.31963
 Alpha  occ. eigenvalues --  -10.31912 -10.31764 -10.31718 -10.31618 -10.30000
 Alpha  occ. eigenvalues --  -10.29693  -8.11564  -6.06419  -6.06069  -6.05612
 Alpha  occ. eigenvalues --   -1.14727  -1.09273  -0.97103  -0.95508  -0.92352
 Alpha  occ. eigenvalues --   -0.88906  -0.85450  -0.83941  -0.82317  -0.75898
 Alpha  occ. eigenvalues --   -0.71264  -0.70671  -0.68751  -0.68122  -0.63519
 Alpha  occ. eigenvalues --   -0.60769  -0.59144  -0.58091  -0.55547  -0.54451
 Alpha  occ. eigenvalues --   -0.54334  -0.53324  -0.52769  -0.51045  -0.49851
 Alpha  occ. eigenvalues --   -0.49781  -0.47208  -0.46256  -0.45579  -0.44919
 Alpha  occ. eigenvalues --   -0.44069  -0.42893  -0.42338  -0.40506  -0.36552
 Alpha  occ. eigenvalues --   -0.35700  -0.32605  -0.31216  -0.27638
 Alpha virt. eigenvalues --   -0.01757   0.04649   0.06719   0.07102   0.07834
 Alpha virt. eigenvalues --    0.10749   0.13853   0.15008   0.16252   0.17865
 Alpha virt. eigenvalues --    0.18749   0.20872   0.21610   0.22258   0.22555
 Alpha virt. eigenvalues --    0.23717   0.23969   0.24569   0.28307   0.30022
 Alpha virt. eigenvalues --    0.32172   0.33196   0.35262   0.35932   0.36959
 Alpha virt. eigenvalues --    0.38282   0.38698   0.40673   0.43121   0.43343
 Alpha virt. eigenvalues --    0.47168   0.47745   0.50160   0.51484   0.51632
 Alpha virt. eigenvalues --    0.52335   0.53249   0.53844   0.54693   0.55308
 Alpha virt. eigenvalues --    0.56036   0.56278   0.56669   0.57335   0.58337
 Alpha virt. eigenvalues --    0.58396   0.58469   0.58898   0.59550   0.60374
 Alpha virt. eigenvalues --    0.60403   0.60713   0.62184   0.62373   0.63072
 Alpha virt. eigenvalues --    0.64922   0.65460   0.66745   0.67631   0.68988
 Alpha virt. eigenvalues --    0.70323   0.70433   0.72075   0.72606   0.72768
 Alpha virt. eigenvalues --    0.72969   0.74582   0.75260   0.76156   0.77662
 Alpha virt. eigenvalues --    0.79085   0.79196   0.80073   0.81891   0.82116
 Alpha virt. eigenvalues --    0.83284   0.88870   0.89158   0.91071   0.93248
 Alpha virt. eigenvalues --    0.94710   0.95037   0.96200   0.96311   0.97030
 Alpha virt. eigenvalues --    0.98434   0.98944   1.00156   1.00227   1.01670
 Alpha virt. eigenvalues --    1.02590   1.05239   1.06238   1.07343   1.07539
 Alpha virt. eigenvalues --    1.08241   1.08726   1.10030   1.11100   1.11876
 Alpha virt. eigenvalues --    1.12342   1.12379   1.13112   1.15097   1.15358
 Alpha virt. eigenvalues --    1.15960   1.19418   1.20167   1.22755   1.23197
 Alpha virt. eigenvalues --    1.25973   1.28368   1.33474   1.34531   1.34535
 Alpha virt. eigenvalues --    1.34906   1.36750   1.38357   1.41298   1.47077
 Alpha virt. eigenvalues --    1.48840   1.49152   1.50580   1.54200   1.55125
 Alpha virt. eigenvalues --    1.56467   1.56618   1.57196   1.58470   1.58589
 Alpha virt. eigenvalues --    1.59357   1.60086   1.64107   1.66644   1.66683
 Alpha virt. eigenvalues --    1.68894   1.69283   1.69744   1.70300   1.71201
 Alpha virt. eigenvalues --    1.72023   1.72580   1.73392   1.73524   1.75310
 Alpha virt. eigenvalues --    1.76904   1.78936   1.80348   1.81085   1.82803
 Alpha virt. eigenvalues --    1.83319   1.83693   1.84619   1.85124   1.85201
 Alpha virt. eigenvalues --    1.87479   1.88557   1.88721   1.88992   1.92203
 Alpha virt. eigenvalues --    1.92497   1.92890   1.93484   1.95021   1.95575
 Alpha virt. eigenvalues --    1.98621   2.00366   2.02027   2.02787   2.03969
 Alpha virt. eigenvalues --    2.04851   2.07947   2.09251   2.11079   2.13422
 Alpha virt. eigenvalues --    2.14444   2.17208   2.18154   2.20832   2.24236
 Alpha virt. eigenvalues --    2.26832   2.29927   2.31990   2.38771   2.40326
 Alpha virt. eigenvalues --    2.41234   2.41252   2.43411   2.45385   2.47274
 Alpha virt. eigenvalues --    2.48317   2.50788   2.52493   2.53252   2.62195
 Alpha virt. eigenvalues --    2.62792   2.71727   2.73665   2.75058   2.80294
 Alpha virt. eigenvalues --    2.81853   2.84213   2.85624   2.90097   2.93185
 Alpha virt. eigenvalues --    2.94156   3.03437   3.09280   3.19595   3.37689
 Alpha virt. eigenvalues --    3.47081   3.57036   3.63194   3.89304
          Condensed to atoms (all electrons):
               1          2          3          4          5          6
     1  C    4.729429   0.477966   0.005048  -0.051390  -0.013450   0.523275
     2  C    0.477966   5.313555   0.338459  -0.043946  -0.065807  -0.009968
     3  C    0.005048   0.338459   4.777249   0.503463  -0.005008  -0.063692
     4  C   -0.051390  -0.043946   0.503463   4.770684   0.523905  -0.014236
     5  C   -0.013450  -0.065807  -0.005008   0.523905   4.727005   0.494126
     6  C    0.523275  -0.009968  -0.063692  -0.014236   0.494126   4.739754
     7  H    0.402558  -0.039070   0.008584  -0.000522   0.008141  -0.039124
     8  H   -0.000747   0.011407  -0.029349   0.393373  -0.042963   0.007697
     9  H    0.008793  -0.000536   0.008529  -0.038766   0.404939  -0.044970
    10  H   -0.042170   0.009596  -0.000531   0.008643  -0.043420   0.406441
    11  N    0.006115  -0.054685   0.428820  -0.039913   0.003019   0.000161
    12  S   -0.065051   0.338725  -0.110806   0.006038   0.000250   0.003658
    13  C   -0.000181   0.002942   0.009037  -0.000693   0.000009   0.000001
    14  C   -0.000005   0.000091   0.000172   0.000006  -0.000000  -0.000000
    15  C    0.000003  -0.000339   0.000639   0.000065  -0.000000   0.000000
    16  C    0.000000  -0.000002   0.000004  -0.000000   0.000000   0.000000
    17  H   -0.000004   0.000082   0.000002  -0.000000   0.000000   0.000000
    18  C    0.000000   0.000006  -0.000022  -0.000000  -0.000000  -0.000000
    19  C   -0.000000   0.000000   0.000001   0.000000   0.000000   0.000000
    20  H   -0.000000  -0.000000  -0.000000   0.000000   0.000000  -0.000000
    21  H   -0.000000  -0.000000   0.000001  -0.000000   0.000000   0.000000
    22  H    0.000000  -0.000000  -0.000000  -0.000000   0.000000  -0.000000
    23  C    0.003859  -0.050854  -0.117923   0.000928   0.000244  -0.000169
    24  O    0.000002  -0.000074  -0.001736  -0.000080  -0.000001  -0.000000
    25  H   -0.000029   0.004275  -0.013730  -0.001676  -0.000030   0.000010
               7          8          9         10         11         12
     1  C    0.402558  -0.000747   0.008793  -0.042170   0.006115  -0.065051
     2  C   -0.039070   0.011407  -0.000536   0.009596  -0.054685   0.338725
     3  C    0.008584  -0.029349   0.008529  -0.000531   0.428820  -0.110806
     4  C   -0.000522   0.393373  -0.038766   0.008643  -0.039913   0.006038
     5  C    0.008141  -0.042963   0.404939  -0.043420   0.003019   0.000250
     6  C   -0.039124   0.007697  -0.044970   0.406441   0.000161   0.003658
     7  H    0.657831   0.000033  -0.000148  -0.011871  -0.000110  -0.006981
     8  H    0.000033   0.652368  -0.012268  -0.000123  -0.002379  -0.000192
     9  H   -0.000148  -0.012268   0.664927  -0.012329  -0.000111   0.000022
    10  H   -0.011871  -0.000123  -0.012329   0.663326   0.000001  -0.000147
    11  N   -0.000110  -0.002379  -0.000111   0.000001   6.458661  -0.065203
    12  S   -0.006981  -0.000192   0.000022  -0.000147  -0.065203  15.456552
    13  C    0.000005   0.000046  -0.000000  -0.000000  -0.020209  -0.062060
    14  C    0.000000   0.000001   0.000000  -0.000000   0.003219  -0.007114
    15  C   -0.000000  -0.000016   0.000000   0.000000  -0.012057   0.003997
    16  C   -0.000000  -0.000000  -0.000000   0.000000  -0.000093  -0.000008
    17  H    0.000001   0.000000  -0.000000  -0.000000   0.000229   0.006927
    18  C   -0.000000  -0.000000  -0.000000  -0.000000  -0.000607  -0.000130
    19  C    0.000000   0.000000  -0.000000  -0.000000   0.000052   0.000022
    20  H    0.000000  -0.000000   0.000000   0.000000   0.000001   0.000001
    21  H   -0.000000   0.000000  -0.000000   0.000000   0.000023   0.000004
    22  H    0.000000  -0.000000  -0.000000  -0.000000  -0.000000  -0.000000
    23  C    0.000108  -0.000826   0.000007   0.000004   0.530215   0.322859
    24  O   -0.000000  -0.000228   0.000000  -0.000000  -0.083359  -0.000329
    25  H    0.000002   0.001232  -0.000006  -0.000000   0.172515   0.002932
              13         14         15         16         17         18
     1  C   -0.000181  -0.000005   0.000003   0.000000  -0.000004   0.000000
     2  C    0.002942   0.000091  -0.000339  -0.000002   0.000082   0.000006
     3  C    0.009037   0.000172   0.000639   0.000004   0.000002  -0.000022
     4  C   -0.000693   0.000006   0.000065  -0.000000  -0.000000  -0.000000
     5  C    0.000009  -0.000000  -0.000000   0.000000   0.000000  -0.000000
     6  C    0.000001  -0.000000   0.000000   0.000000   0.000000  -0.000000
     7  H    0.000005   0.000000  -0.000000  -0.000000   0.000001  -0.000000
     8  H    0.000046   0.000001  -0.000016  -0.000000   0.000000  -0.000000
     9  H   -0.000000   0.000000   0.000000  -0.000000  -0.000000  -0.000000
    10  H   -0.000000  -0.000000   0.000000   0.000000  -0.000000  -0.000000
    11  N   -0.020209   0.003219  -0.012057  -0.000093   0.000229  -0.000607
    12  S   -0.062060  -0.007114   0.003997  -0.000008   0.006927  -0.000130
    13  C    5.335232   0.471209   0.259428  -0.007524  -0.039206  -0.043061
    14  C    0.471209   4.809708   0.001155   0.531931   0.400130  -0.055645
    15  C    0.259428   0.001155   4.763569  -0.059938   0.007223   0.500662
    16  C   -0.007524   0.531931  -0.059938   4.752422  -0.034145  -0.019228
    17  H   -0.039206   0.400130   0.007223  -0.034145   0.673919  -0.000723
    18  C   -0.043061  -0.055645   0.500662  -0.019228  -0.000723   4.814699
    19  C   -0.051338  -0.018348  -0.009707   0.489835   0.008337   0.515102
    20  H    0.008926  -0.035890  -0.000203   0.401082  -0.012563   0.008336
    21  H    0.013469  -0.000533  -0.022995   0.007370   0.000046   0.376783
    22  H   -0.001241   0.009351   0.009044  -0.044758  -0.000168  -0.041277
    23  C    0.339451  -0.091793  -0.078414   0.006969  -0.020323   0.007382
    24  O   -0.085647   0.004700   0.548194  -0.000020  -0.000063  -0.059558
    25  H   -0.023405  -0.000646  -0.026396  -0.000012  -0.000015   0.004008
              19         20         21         22         23         24
     1  C   -0.000000  -0.000000  -0.000000   0.000000   0.003859   0.000002
     2  C    0.000000  -0.000000  -0.000000  -0.000000  -0.050854  -0.000074
     3  C    0.000001  -0.000000   0.000001  -0.000000  -0.117923  -0.001736
     4  C    0.000000   0.000000  -0.000000  -0.000000   0.000928  -0.000080
     5  C    0.000000   0.000000   0.000000   0.000000   0.000244  -0.000001
     6  C    0.000000  -0.000000   0.000000  -0.000000  -0.000169  -0.000000
     7  H    0.000000   0.000000  -0.000000   0.000000   0.000108  -0.000000
     8  H    0.000000  -0.000000   0.000000  -0.000000  -0.000826  -0.000228
     9  H   -0.000000   0.000000  -0.000000  -0.000000   0.000007   0.000000
    10  H   -0.000000   0.000000   0.000000  -0.000000   0.000004  -0.000000
    11  N    0.000052   0.000001   0.000023  -0.000000   0.530215  -0.083359
    12  S    0.000022   0.000001   0.000004  -0.000000   0.322859  -0.000329
    13  C   -0.051338   0.008926   0.013469  -0.001241   0.339451  -0.085647
    14  C   -0.018348  -0.035890  -0.000533   0.009351  -0.091793   0.004700
    15  C   -0.009707  -0.000203  -0.022995   0.009044  -0.078414   0.548194
    16  C    0.489835   0.401082   0.007370  -0.044758   0.006969  -0.000020
    17  H    0.008337  -0.012563   0.000046  -0.000168  -0.020323  -0.000063
    18  C    0.515102   0.008336   0.376783  -0.041277   0.007382  -0.059558
    19  C    4.722009  -0.047035  -0.045576   0.405571   0.000580   0.003323
    20  H   -0.047035   0.682284  -0.000160  -0.012210  -0.000367   0.000002
    21  H   -0.045576  -0.000160   0.667548  -0.012275  -0.000424   0.003764
    22  H    0.405571  -0.012210  -0.012275   0.667807   0.000003  -0.000070
    23  C    0.000580  -0.000367  -0.000424   0.000003   5.078164  -0.004495
    24  O    0.003323   0.000002   0.003764  -0.000070  -0.004495   7.720905
    25  H   -0.000251  -0.000001   0.000009   0.000009  -0.002319   0.263609
              25
     1  C   -0.000029
     2  C    0.004275
     3  C   -0.013730
     4  C   -0.001676
     5  C   -0.000030
     6  C    0.000010
     7  H    0.000002
     8  H    0.001232
     9  H   -0.000006
    10  H   -0.000000
    11  N    0.172515
    12  S    0.002932
    13  C   -0.023405
    14  C   -0.000646
    15  C   -0.026396
    16  C   -0.000012
    17  H   -0.000015
    18  C    0.004008
    19  C   -0.000251
    20  H   -0.000001
    21  H    0.000009
    22  H    0.000009
    23  C   -0.002319
    24  O    0.263609
    25  H    0.402349
 Mulliken charges:
               1
     1  C    0.015981
     2  C   -0.231824
     3  C    0.262789
     4  C   -0.015883
     5  C    0.009041
     6  C   -0.002963
     7  H    0.020562
     8  H    0.022933
     9  H    0.021919
    10  H    0.022579
    11  N   -0.324305
    12  S    0.176035
    13  C   -0.105191
    14  C   -0.021697
    15  C    0.116084
    16  C   -0.023886
    17  H    0.010316
    18  C   -0.006726
    19  C    0.027422
    20  H    0.007797
    21  H    0.012946
    22  H    0.020214
    23  C    0.077135
    24  O   -0.308841
    25  H    0.217566
 Sum of Mulliken charges =  -0.00000
 Mulliken charges with hydrogens summed into heavy atoms:
               1
     1  C    0.036543
     2  C   -0.231824
     3  C    0.262789
     4  C    0.007050
     5  C    0.030960
     6  C    0.019617
    11  N   -0.324305
    12  S    0.176035
    13  C   -0.105191
    14  C   -0.011382
    15  C    0.116084
    16  C   -0.016089
    18  C    0.006219
    19  C    0.047636
    23  C    0.077135
    24  O   -0.091275
 Electronic spatial extent (au):  <R**2>=           4342.5061
 Charge=             -0.0000 electrons
 Dipole moment (field-independent basis, Debye):
    X=              0.2507    Y=             -3.2702    Z=             -0.0000  Tot=              3.2798
 Quadrupole moment (field-independent basis, Debye-Ang):
   XX=            -83.2191   YY=            -90.9443   ZZ=           -104.2943
   XY=             -6.9501   XZ=             -0.0001   YZ=              0.0001
 Traceless Quadrupole moment (field-independent basis, Debye-Ang):
   XX=              9.6001   YY=              1.8749   ZZ=            -11.4751
   XY=             -6.9501   XZ=             -0.0001   YZ=              0.0001
 Octapole moment (field-independent basis, Debye-Ang**2):
  XXX=             18.2318  YYY=            -30.8493  ZZZ=             -0.0000  XYY=             -4.2058
  XXY=             -1.3056  XXZ=              0.0001  XZZ=              1.4048  YZZ=              2.4929
  YYZ=              0.0004  XYZ=             -0.0006
 Hexadecapole moment (field-independent basis, Debye-Ang**3):
 XXXX=          -2606.3118 YYYY=          -2623.5733 ZZZZ=           -113.3328 XXXY=            808.7790
 XXXZ=              0.0097 YYYX=            766.9508 YYYZ=             -0.0125 ZZZX=              0.0134
 ZZZY=             -0.0181 XXYY=           -846.8820 XXZZ=           -571.9187 YYZZ=           -548.8840
 XXYZ=             -0.0032 YYXZ=              0.0008 ZZXY=            357.4169
 N-N= 1.098245224759D+03 E-N=-4.608619895451D+03  KE= 1.023712308684D+03
 No NMR shielding tensors so no spin-rotation constants.
 Leave Link  601 at Tue Oct 27 22:36:56 2020, MaxMem=  7784628224 cpu:               1.6 elap:               0.3
 (Enter /gpfs/loomis/apps/avx/software/Gaussian/16-C.01_AVX/g16/l701.exe)
 ... and contract with generalized density number  0.
 Compute integral first derivatives.
 R6Disp: Adding Grimme-D2 dispersion energy 1st derivatives to the gradient.
 D1PCM: PCM CHGder 1st derivatives, ID1Alg=3 FixD1E=F DoIter=F DoCFld=F I1PDM=0.
 GePol: Maximum number of non-zero 1st derivatives   =     258
 Leave Link  701 at Tue Oct 27 22:36:59 2020, MaxMem=  7784628224 cpu:              19.3 elap:               2.4
 (Enter /gpfs/loomis/apps/avx/software/Gaussian/16-C.01_AVX/g16/l702.exe)
 L702 exits ... SP integral derivatives will be done elsewhere.
 Leave Link  702 at Tue Oct 27 22:36:59 2020, MaxMem=  7784628224 cpu:               0.2 elap:               0.1
 (Enter /gpfs/loomis/apps/avx/software/Gaussian/16-C.01_AVX/g16/l703.exe)
 Integral derivatives from FoFJK, PRISM(SPDF).
 Compute integral first derivatives, UseDBF=F ICtDFT=           0.
 Calling FoFJK, ICntrl=      2127 FMM=F ISym2X=0 I1Cent= 0 IOpClX= 0 NMat=1 NMatS=1 NMatT=0.
 FoFJK:  IHMeth= 1 ICntrl=    2127 DoSepK=T KAlg= 0 I1Cent=           0 FoldK=F
 IRaf=         1 NMat=       1 IRICut=       1 DoRegI=T DoRafI=F ISym2E= 0 IDoP0=0 IntGTp=1.
 FoFCou: FMM=F IPFlag=           0 FMFlag=      100000 FMFlg1=         800
         NFxFlg=           0 DoJE=F BraDBF=F KetDBF=F FulRan=T
         wScrn=  0.000000 ICntrl=      2527 IOpCl=  0 I1Cent=           0 NGrid=           0
         NMat0=    1 NMatS0=      1 NMatT0=    0 NMatD0=    1 NMtDS0=    0 NMtDT0=    0
 Symmetry not used in FoFCou.
 Leave Link  703 at Tue Oct 27 22:37:14 2020, MaxMem=  7784628224 cpu:             137.3 elap:              14.6
 (Enter /gpfs/loomis/apps/avx/software/Gaussian/16-C.01_AVX/g16/l716.exe)
 Dipole        = 9.86298679D-02-1.28661371D+00-1.09447835D-05
 -------------------------------------------------------------------
 Center     Atomic                   Forces (Hartrees/Bohr)
 Number     Number              X              Y              Z
 -------------------------------------------------------------------
      1        6           0.003839781   -0.002847382   -0.000000009
      2        6           0.005396459    0.009720971   -0.000000118
      3        6           0.013229564   -0.029455631   -0.000000298
      4        6          -0.009777189    0.002132851    0.000000010
      5        6           0.000570314   -0.003691188    0.000000028
      6        6          -0.002784477    0.003175770   -0.000000039
      7        1           0.000218159   -0.000148688   -0.000000036
      8        1          -0.000017467    0.000045327    0.000000001
      9        1          -0.000234622    0.000040150    0.000000000
     10        1          -0.000141186    0.000089243    0.000000008
     11        7          -0.049153600    0.005014377    0.000000755
     12       16           0.005323788    0.010224349    0.000000075
     13        6          -0.007291400    0.041174147    0.000000409
     14        6          -0.006403827    0.012762311    0.000000198
     15        6          -0.009206773   -0.029057765   -0.000000476
     16        6           0.000187369   -0.009977794   -0.000000164
     17        1          -0.001208061   -0.000768292   -0.000000011
     18        6          -0.008576065   -0.002780408    0.000000276
     19        6           0.014044738   -0.009582081   -0.000000289
     20        1           0.000267464   -0.000190898    0.000000001
     21        1          -0.000183756    0.000072476   -0.000000072
     22        1          -0.000330110    0.000601399   -0.000000039
     23        6           0.039135743   -0.009003002   -0.000000050
     24        8           0.021278587   -0.009677845   -0.000000601
     25        1          -0.008183433    0.022127603    0.000000439
 -------------------------------------------------------------------
 Cartesian Forces:  Max     0.049153600 RMS     0.011526839
 Leave Link  716 at Tue Oct 27 22:37:14 2020, MaxMem=  7784628224 cpu:               0.4 elap:               0.1
 (Enter /gpfs/loomis/apps/avx/software/Gaussian/16-C.01_AVX/g16/l103.exe)

 GradGradGradGradGradGradGradGradGradGradGradGradGradGradGradGradGradGrad
 Berny optimization.
 FormGI is forming the generalized inverse of G from B-inverse, IUseBI=4.
 Internal  Forces:  Max     0.037088762 RMS     0.005854818
 Search for a local minimum.
 Step number   1 out of a maximum of  143
 All quantities printed in internal units (Hartrees-Bohrs-Radians)
 RMS Force = .58993D-02 SwitMx=.10000D-02 MixMth= 1
 Mixed Optimization -- RFO/linear search
 Second derivative matrix not updated -- first step.
 ITU=  0
     Eigenvalues ---    0.01408   0.01412   0.01647   0.01698   0.01796
     Eigenvalues ---    0.01832   0.01865   0.01979   0.02009   0.02018
     Eigenvalues ---    0.02050   0.02057   0.02060   0.02067   0.02069
     Eigenvalues ---    0.02099   0.02109   0.02123   0.02144   0.02181
     Eigenvalues ---    0.02186   0.03096   0.16000   0.16000   0.16000
     Eigenvalues ---    0.16000   0.16000   0.16000   0.16000   0.16003
     Eigenvalues ---    0.16111   0.22000   0.22028   0.22526   0.22590
     Eigenvalues ---    0.24468   0.24555   0.25000   0.25000   0.25000
     Eigenvalues ---    0.27180   0.28069   0.29343   0.32556   0.34643
     Eigenvalues ---    0.34644   0.34671   0.34728   0.34741   0.34753
     Eigenvalues ---    0.34762   0.34796   0.37667   0.39867   0.41341
     Eigenvalues ---    0.42234   0.42505   0.43336   0.44140   0.44954
     Eigenvalues ---    0.45138   0.46237   0.46329   0.47669   0.49996
     Eigenvalues ---    0.52678   0.687911000.000001000.000001000.00000
     Eigenvalues --- 1000.000001000.000001000.000001000.000001000.00000
     Eigenvalues --- 1000.000001000.000001000.000001000.000001000.00000
     Eigenvalues --- 1000.000001000.000001000.000001000.000001000.00000
     Eigenvalues --- 1000.000001000.000001000.000001000.000001000.00000
     Eigenvalues --- 1000.000001000.000001000.000001000.000001000.00000
     Eigenvalues --- 1000.000001000.000001000.000001000.000001000.00000
     Eigenvalues --- 1000.000001000.000001000.000001000.000001000.00000
     Eigenvalues --- 1000.000001000.000001000.000001000.000001000.00000
     Eigenvalues --- 1000.000001000.000001000.000001000.000001000.00000
     Eigenvalues --- 1000.000001000.000001000.000001000.000001000.00000
     Eigenvalues --- 1000.000001000.000001000.000001000.000001000.00000
     Eigenvalues --- 1000.000001000.000001000.000001000.000001000.00000
     Eigenvalues --- 1000.000001000.000001000.00000
 RFO step:  Lambda=-1.12871075D-02 EMin= 1.40760449D-02
 Linear search not attempted -- first point.
 Iteration  1 RMS(Cart)=  0.02210913 RMS(Int)=  0.00022454
 Iteration  2 RMS(Cart)=  0.00038109 RMS(Int)=  0.00005582
 Iteration  3 RMS(Cart)=  0.00000016 RMS(Int)=  0.00005582
 Iteration  1 RMS(Cart)=  0.00000004 RMS(Int)=  0.00000001
 ITry= 1 IFail=0 DXMaxC= 9.02D-02 DCOld= 1.00D+10 DXMaxT= 3.00D-01 DXLimC= 3.00D+00 Rises=F
 Variable       Old X    -DE/DX   Delta X   Delta X   Delta X     New X
                                 (Linear)    (Quad)   (Total)
    R1        2.63029   0.00138   0.00000   0.00271   0.00273   2.63302
    R2        2.63469  -0.00407   0.00000  -0.00822  -0.00821   2.62648
    R3        2.06097  -0.00004   0.00000  -0.00011  -0.00011   2.06086
    R4        2.69256  -0.01603   0.00000  -0.03543  -0.03536   2.65720
    R5        3.31823  -0.00161   0.00000  -0.00334  -0.00328   3.31495
    R6        2.66751  -0.00838   0.00000  -0.01904  -0.01904   2.64847
    R7        2.55399   0.02141   0.00000   0.03889   0.03887   2.59286
    R8        2.61778   0.00209   0.00000   0.00442   0.00439   2.62217
    R9        2.06063   0.00004   0.00000   0.00010   0.00010   2.06073
   R10        2.65805  -0.00305   0.00000  -0.00621  -0.00622   2.65183
   R11        2.06259  -0.00025   0.00000  -0.00069  -0.00069   2.06189
   R12        2.06118  -0.00015   0.00000  -0.00043  -0.00043   2.06075
   R13        2.56922  -0.03709   0.00000  -0.07008  -0.07015   2.49907
   R14        3.34139  -0.00908   0.00000  -0.03404  -0.03406   3.30733
   R15        2.65570   0.00081   0.00000   0.00156   0.00170   2.65741
   R16        2.79740  -0.02432   0.00000  -0.06870  -0.06864   2.72876
   R17        2.67762   0.01068   0.00000   0.02395   0.02397   2.70158
   R18        2.64454  -0.01704   0.00000  -0.03648  -0.03637   2.60817
   R19        2.06257   0.00114   0.00000   0.00317   0.00317   2.06575
   R20        2.66909  -0.00079   0.00000  -0.00153  -0.00164   2.66745
   R21        2.44497   0.01387   0.00000   0.01974   0.01975   2.46472
   R22        2.66295  -0.00579   0.00000  -0.01283  -0.01287   2.65008
   R23        2.06212  -0.00021   0.00000  -0.00058  -0.00058   2.06155
   R24        2.63135  -0.00619   0.00000  -0.01267  -0.01282   2.61853
   R25        2.06077  -0.00001   0.00000  -0.00004  -0.00004   2.06073
   R26        2.06007   0.00071   0.00000   0.00198   0.00198   2.06205
   R27        2.19796  -0.01798   0.00000  -0.06209  -0.06210   2.13586
    A1        2.06654  -0.00189   0.00000  -0.00605  -0.00603   2.06051
    A2        2.10807   0.00111   0.00000   0.00397   0.00396   2.11203
    A3        2.10858   0.00078   0.00000   0.00208   0.00207   2.11065
    A4        2.12114   0.00229   0.00000   0.00587   0.00584   2.12698
    A5        2.23734   0.00344   0.00000   0.00935   0.00931   2.24665
    A6        1.92470  -0.00573   0.00000  -0.01522  -0.01514   1.90956
    A7        2.07947   0.00229   0.00000   0.00566   0.00568   2.08515
    A8        1.99272  -0.00358   0.00000  -0.00890  -0.00883   1.98389
    A9        2.21099   0.00130   0.00000   0.00324   0.00315   2.21415
   A10        2.07339  -0.00047   0.00000  -0.00143  -0.00142   2.07196
   A11        2.08758   0.00027   0.00000   0.00095   0.00094   2.08852
   A12        2.12222   0.00020   0.00000   0.00048   0.00048   2.12270
   A13        2.12047  -0.00145   0.00000  -0.00378  -0.00380   2.11667
   A14        2.08153   0.00072   0.00000   0.00188   0.00189   2.08342
   A15        2.08119   0.00073   0.00000   0.00191   0.00192   2.08310
   A16        2.10536  -0.00077   0.00000  -0.00026  -0.00026   2.10510
   A17        2.08676   0.00028   0.00000  -0.00049  -0.00050   2.08626
   A18        2.09106   0.00049   0.00000   0.00076   0.00076   2.09182
   A19        1.97725   0.00459   0.00000   0.01399   0.01398   1.99123
   A20        1.55569   0.00435   0.00000   0.01488   0.01485   1.57054
   A21        2.05396   0.00996   0.00000   0.03848   0.03866   2.09262
   A22        2.18222  -0.00564   0.00000  -0.02134  -0.02137   2.16084
   A23        2.04701  -0.00432   0.00000  -0.01714  -0.01729   2.02972
   A24        2.10740   0.00154   0.00000   0.00618   0.00641   2.11381
   A25        2.08785   0.00006   0.00000   0.00170   0.00159   2.08943
   A26        2.08794  -0.00159   0.00000  -0.00788  -0.00799   2.07995
   A27        2.08854  -0.01020   0.00000  -0.03893  -0.03896   2.04958
   A28        2.08768   0.01019   0.00000   0.03792   0.03795   2.12563
   A29        2.10696   0.00001   0.00000   0.00102   0.00101   2.10797
   A30        2.12168  -0.00899   0.00000  -0.03929  -0.03924   2.08244
   A31        2.07633   0.00426   0.00000   0.01826   0.01824   2.09458
   A32        2.08517   0.00473   0.00000   0.02103   0.02100   2.10617
   A33        2.10508   0.00184   0.00000   0.00818   0.00794   2.11303
   A34        2.04769  -0.00066   0.00000  -0.00256  -0.00244   2.04525
   A35        2.13041  -0.00118   0.00000  -0.00562  -0.00550   2.12491
   A36        2.08970   0.00586   0.00000   0.02539   0.02520   2.11490
   A37        2.09442  -0.00288   0.00000  -0.01244  -0.01234   2.08208
   A38        2.09906  -0.00298   0.00000  -0.01295  -0.01286   2.08621
   A39        1.97442   0.00037   0.00000  -0.00476  -0.00485   1.96957
   A40        2.10901  -0.00340   0.00000  -0.00965  -0.00969   2.09932
   A41        2.19976   0.00303   0.00000   0.01441   0.01454   2.21430
   A42        1.85800   0.00363   0.00000   0.02086   0.02086   1.87886
    D1        0.00000   0.00000   0.00000   0.00000   0.00000   0.00000
    D2       -3.14159   0.00000   0.00000   0.00000   0.00000  -3.14159
    D3        3.14159   0.00000   0.00000   0.00000   0.00000   3.14159
    D4       -0.00000   0.00000   0.00000   0.00000   0.00000   0.00000
    D5       -0.00000   0.00000   0.00000   0.00000   0.00000  -0.00000
    D6        3.14159  -0.00000   0.00000  -0.00000  -0.00000   3.14159
    D7       -3.14159   0.00000   0.00000   0.00000   0.00000  -3.14159
    D8        0.00000  -0.00000   0.00000  -0.00000  -0.00000   0.00000
    D9        0.00000  -0.00000   0.00000  -0.00000  -0.00000  -0.00000
   D10        3.14159  -0.00000   0.00000  -0.00000  -0.00000   3.14159
   D11       -3.14159  -0.00000   0.00000  -0.00000  -0.00000   3.14159
   D12       -0.00000  -0.00000   0.00000  -0.00000  -0.00000  -0.00000
   D13        3.14159   0.00000   0.00000   0.00000   0.00000  -3.14159
   D14       -0.00000   0.00000   0.00000   0.00001   0.00001   0.00000
   D15       -0.00000   0.00000   0.00000   0.00000   0.00000   0.00000
   D16        3.14159   0.00000   0.00000   0.00000   0.00000   3.14159
   D17       -3.14159   0.00000   0.00000   0.00000   0.00000  -3.14159
   D18        0.00000  -0.00000   0.00000   0.00000   0.00000   0.00000
   D19        0.00000  -0.00000   0.00000  -0.00000  -0.00000   0.00000
   D20       -3.14159  -0.00000   0.00000  -0.00000  -0.00000  -3.14159
   D21        0.00000   0.00000   0.00000   0.00000   0.00000   0.00000
   D22       -3.14159  -0.00000   0.00000  -0.00000  -0.00000  -3.14159
   D23       -3.14159   0.00000   0.00000   0.00000   0.00000  -3.14159
   D24        0.00000   0.00000   0.00000   0.00000   0.00000   0.00000
   D25        0.00000  -0.00000   0.00000  -0.00000  -0.00000  -0.00000
   D26       -3.14159  -0.00000   0.00000  -0.00000  -0.00000  -3.14159
   D27       -3.14159  -0.00000   0.00000  -0.00000  -0.00000   3.14159
   D28        0.00000   0.00000   0.00000   0.00000   0.00000   0.00000
   D29       -0.00001   0.00000   0.00000   0.00001   0.00001   0.00000
   D30        3.14158   0.00000   0.00000   0.00001   0.00001   3.14159
   D31        0.00000  -0.00000   0.00000  -0.00001  -0.00001  -0.00000
   D32       -3.14158  -0.00000   0.00000  -0.00001  -0.00001  -3.14159
   D33        0.00000  -0.00000   0.00000  -0.00000  -0.00000  -0.00000
   D34        3.14159  -0.00000   0.00000  -0.00000  -0.00000   3.14159
   D35        3.14159  -0.00000   0.00000  -0.00000  -0.00000   3.14159
   D36       -0.00000  -0.00000   0.00000  -0.00000  -0.00000  -0.00000
   D37       -0.00000   0.00000   0.00000   0.00000   0.00000   0.00000
   D38        3.14159   0.00000   0.00000   0.00001   0.00001  -3.14159
   D39       -3.14159   0.00000   0.00000   0.00001   0.00001  -3.14159
   D40       -0.00000   0.00000   0.00000   0.00001   0.00001   0.00001
   D41        3.14158   0.00000   0.00000   0.00001   0.00001   3.14159
   D42       -0.00002   0.00000   0.00000   0.00001   0.00001  -0.00001
   D43       -0.00001   0.00000   0.00000   0.00001   0.00001  -0.00000
   D44        3.14157   0.00000   0.00000   0.00001   0.00001   3.14158
   D45       -0.00000   0.00000   0.00000   0.00000   0.00000   0.00000
   D46       -3.14159   0.00000   0.00000   0.00000   0.00000  -3.14159
   D47       -3.14159  -0.00000   0.00000  -0.00000  -0.00000   3.14159
   D48        0.00000  -0.00000   0.00000  -0.00000  -0.00000  -0.00000
   D49        0.00000  -0.00000   0.00000  -0.00000  -0.00000  -0.00000
[...]
 6,0.,-0.00001917,0.00019108,0.,-0.00028732,0.00001776,0.,-0.00000382,0
 .00002728,0.,0.00003691,-0.00002120,0.,-0.00003382,0.00002810,0.,-0.00
 001155,0.00001498,0.,-0.00361114,0.00119232,0.00000004,0.00003447,0.00
 077767,0.00000002,-0.04576057,0.01743876,-0.00000060,-0.23006630,0.155
 16287,-0.00000405,0.00267264,0.01617092,-0.00000002,0.76706294,-0.0008
 4599,0.00139657,0.00000002,0.00180642,-0.00100773,-0.00000003,0.000356
 70,0.00112887,0.00000007,-0.00104603,0.00011650,0.00000004,-0.00010719
 ,-0.00151838,-0.00000004,0.00166876,0.00005646,-0.00000002,-0.00008173
 ,-0.00005629,0.,0.00004605,0.00004898,0.,0.00012018,-0.00006226,0.,0.0
 0008362,-0.00003796,0.,0.00796913,0.00664634,0.00000040,-0.00221453,-0
 .00214153,-0.00000002,0.06945935,0.03040667,0.00000029,0.08373865,-0.2
 6604308,0.00000352,0.02720163,-0.07057940,0.00000154,0.00389889,0.6752
 4212,0.,-0.00000001,0.00005929,-0.00000001,0.,0.00039093,-0.00000002,-
 0.00000001,-0.00071446,0.,0.,-0.00013544,0.,0.00000001,0.00006515,-0.0
 0000002,0.,-0.00001937,0.,0.,0.00000020,0.,0.,0.00000409,0.,0.,0.00001
 737,0.,0.,-0.00002683,-0.00000018,-0.00000009,0.00023717,0.00000002,0.
 00000008,-0.00075804,-0.00000144,0.,0.00834595,-0.00000338,0.00000468,
 -0.06325737,-0.00000034,0.00000111,-0.00501792,0.00000672,-0.00000928,
 0.12585222,0.00026531,0.00003174,0.,-0.00062534,0.00029303,0.00000001,
 0.00029119,-0.00011152,0.,0.00002969,0.00003734,0.,0.00004395,0.000063
 48,0.,-0.00007049,-0.00008652,0.,-0.00001668,-0.00000759,0.,0.00003667
 ,0.00000399,0.,0.00001017,-0.00000080,0.,0.00002944,-0.00000659,0.,0.0
 0030208,0.00052510,0.00000004,-0.00134288,0.00188355,0.00000002,-0.004
 95284,-0.02864649,0.00000025,-0.09236863,-0.09146690,0.00000025,-0.005
 08400,0.00183766,-0.00000017,0.01127366,0.01952720,-0.00000014,0.09383
 167,0.00002561,-0.00003940,0.,-0.00016243,0.00054429,0.00000003,0.0002
 9880,-0.00013697,0.,0.00002589,0.00006526,0.,0.00001000,0.00006252,0.,
 -0.00008280,0.00000652,0.,-0.00000981,0.00001280,0.,0.00002134,-0.0000
 0518,0.,-0.00000519,0.00000397,0.,-0.00000149,0.00000264,0.,-0.0007140
 3,0.00019716,0.00000002,0.00028266,-0.00059769,-0.00000007,0.00071052,
 -0.00161650,0.00000003,-0.08969097,-0.30626865,0.00000133,0.00020723,0
 .00213623,0.00000005,-0.01250071,-0.01648883,0.00000005,0.09641470,0.3
 2490587,0.,0.,-0.00000972,-0.00000003,0.00000003,-0.00059077,0.0000000
 1,0.,0.00021142,0.,0.,0.00008737,0.,0.,-0.00002485,0.,0.,0.00002827,0.
 ,0.,-0.00001244,0.,0.,-0.00001730,0.,0.,-0.00000593,0.,0.,0.00001889,0
 .,0.,-0.00014148,0.00000002,-0.00000007,0.00090635,-0.00000024,-0.0000
 0035,0.00310363,0.00000044,0.00000096,-0.03761505,-0.00000009,0.000000
 16,0.00620290,0.00000009,0.00000078,0.00496058,-0.00000011,-0.00000148
 ,0.02494250,-0.00005220,0.00073729,-0.00000001,0.00073568,-0.00001919,
 -0.00000002,0.00221778,-0.00000358,0.00000006,-0.00074915,0.00003459,0
 .00000003,-0.00002584,-0.00080279,-0.00000002,0.00072949,0.00004900,0.
 ,-0.00006747,0.00002828,0.,0.00010566,0.00000635,0.,0.00004106,-0.0000
 2044,0.,0.00004191,0.00000083,0.,0.00324198,0.01093294,0.00000086,-0.0
 0011170,-0.00024002,-0.00000002,0.05707774,0.02553169,-0.00000009,-0.0
 6146040,0.02618327,-0.00000100,-0.17155379,0.05031829,-0.00000273,-0.0
 0609320,-0.08710630,0.00000120,-0.00074512,0.00048257,0.00000012,0.723
 45723,0.00056775,-0.00047358,-0.00000002,-0.00127293,-0.00009514,0.,-0
 .00056154,0.00006246,-0.00000005,0.00060407,-0.00006677,-0.00000002,0.
 00007954,0.00072387,0.00000002,-0.00069596,-0.00015292,0.,0.00000816,0
 .00002760,0.,-0.00001178,-0.00001009,0.,-0.00003087,0.00002333,0.,0.00
 000196,0.00000227,0.,-0.00188321,-0.00215340,-0.00000016,0.00170263,-0
 .00011579,-0.00000003,-0.00216191,-0.03469470,0.00000058,0.02053144,-0
 .01103801,0.00000043,0.10611704,-0.24878762,0.00000525,-0.03636445,0.0
 1792281,-0.00000046,0.00025301,0.00052757,-0.00000009,0.05476387,0.717
 37794,-0.00000004,0.00000006,-0.00012415,0.00000010,-0.00000004,-0.000
 12782,0.00000004,0.00000009,-0.00094009,-0.00000004,0.,0.00003935,-0.0
 0000001,-0.00000006,0.00002373,0.00000006,0.,0.00003129,0.,0.,-0.00004
 187,0.,0.,-0.00003163,0.,0.,-0.00000977,0.,0.,0.00003519,0.00000014,0.
 00000016,0.00186769,-0.00000005,0.00000012,-0.00041101,0.00000046,0.00
 000052,0.00842267,-0.00000094,0.00000053,-0.00299371,-0.00000300,0.000
 00478,-0.07151623,0.00000031,-0.00000117,0.00795985,0.,-0.00000002,-0.
 00076576,0.00000824,-0.00000874,0.12513034,0.00060581,-0.00100723,-0.0
 0000001,-0.00157388,0.00053154,0.00000003,-0.00096323,-0.00016938,-0.0
 0000005,0.00099622,-0.00008342,-0.00000003,0.00006201,0.00123810,0.000
 00003,-0.00124662,-0.00011493,0.00000001,0.00005643,0.00003886,0.,-0.0
 0005154,-0.00003771,0.,-0.00008592,0.00004937,0.,-0.00005499,0.0000235
 7,0.,-0.00449559,-0.00508660,-0.00000035,0.00153251,0.00092266,0.,-0.0
 4289300,-0.01594131,-0.00000016,0.06448478,-0.00671037,0.00000080,-0.0
 5311904,0.05907272,-0.00000170,-0.15464899,-0.03312207,-0.00000023,-0.
 00232431,0.00436918,-0.00000029,-0.36982152,-0.08023329,-0.00000220,0.
 72598685,0.00029560,-0.00050485,0.,-0.00060736,0.00035066,0.00000002,-
 0.00025476,-0.00079227,-0.00000002,0.00027317,0.00004807,-0.00000001,0
 .00003727,0.00049147,0.00000001,-0.00058386,-0.00000190,0.,0.00003419,
 0.00000660,0.,-0.00002554,-0.00001294,0.,-0.00004242,0.00002394,0.,-0.
 00002454,0.00001045,0.,-0.00497078,-0.00417757,-0.00000031,0.00083842,
 0.00065015,0.00000001,-0.04025763,-0.02019217,0.00000011,0.05011475,-0
 .05941204,0.00000154,0.00718161,0.06091496,-0.00000083,-0.10775493,-0.
 30888566,0.00000360,0.00340838,-0.00219225,0.00000008,-0.00869966,-0.1
 4117808,0.00000092,-0.03018769,0.71513095,0.,-0.00000001,0.00000665,-0
 .00000002,0.,0.00003801,0.,0.,0.00025136,0.00000002,0.,0.00000388,0.,0
 .00000002,-0.00001929,-0.00000001,0.,0.00000220,0.,0.,0.00000331,0.,0.
 ,0.00001260,0.,0.,-0.00000134,0.,0.,-0.00000763,0.00000002,0.00000003,
 -0.00038529,0.00000001,0.,-0.00000072,0.00000014,0.00000008,-0.0041383
 3,0.00000002,0.00000092,0.00705189,-0.00000101,-0.00000013,-0.00071361
 ,0.00000100,0.00000465,-0.06330379,-0.00000017,0.00000014,0.00753825,-
 0.00000278,0.00000025,-0.05908831,0.00000648,-0.00001061,0.14403349,0.
 00001854,-0.00007637,0.,-0.00006157,0.00012687,0.,-0.00003741,-0.00007
 014,0.,0.00005354,0.00002955,0.,-0.00000970,0.00006963,0.,-0.00008256,
 0.00000850,0.,0.00000453,0.00000793,0.,0.00000088,-0.00000594,0.,-0.00
 001087,0.00000728,0.,-0.00000940,0.00000549,0.,-0.00043359,0.00032746,
 0.00000001,0.00003369,0.00005921,0.,-0.00002056,0.00370575,-0.00000013
 ,-0.01404496,-0.00725497,-0.00000006,0.00049877,0.00016258,0.00000001,
 -0.34027148,-0.04906716,-0.00000280,0.00075350,0.00007638,0.00000006,0
 .00144793,-0.00187402,-0.00000003,-0.00598832,0.00251038,-0.00000014,0
 .35820372,-0.00000120,0.00002723,0.,0.00003032,-0.00006346,0.,0.000090
 75,0.00005952,0.,-0.00001644,-0.00003949,0.,0.00001224,-0.00001862,0.,
 0.00002619,-0.00000492,0.,-0.00000065,-0.00000349,0.,0.00000129,0.0000
 0200,0.,0.00000440,-0.00000463,0.,0.00000331,-0.00000156,0.,0.00038823
 ,-0.00018508,0.,0.00000403,0.00004403,0.,0.00240406,-0.00351853,0.0000
 0017,0.02508815,0.00759179,0.00000020,0.00046950,-0.00149568,0.0000000
 2,-0.04972902,-0.06631001,0.00000002,-0.00032945,0.00094803,-0.0000000
 8,-0.00081196,-0.00503277,0.00000020,-0.02964432,0.00013622,-0.0000003
 2,0.05242988,0.06600959,0.,0.,-0.00000248,0.,0.,-0.00002906,0.,0.,-0.0
 0022166,0.,0.,-0.00001189,0.,0.,0.00001928,0.,0.,-0.00000449,0.,0.,0.0
 0000043,0.,0.,-0.00000691,0.,0.,0.00000402,0.,0.,0.00000440,0.,0.00000
 004,-0.00016669,0.,-0.00000001,0.00005343,-0.00000007,0.00000013,0.007
 34369,-0.00000057,-0.00000016,0.00139583,0.00000006,0.,-0.00073042,-0.
 00000288,-0.00000015,-0.03260110,0.00000007,-0.00000004,-0.00460113,-0
 .00000019,0.00000023,0.00607280,0.00000058,0.00000019,0.00138049,0.000
 00305,-0.00000010,0.02471496,-0.00005573,-0.00000550,0.,0.00005290,0.0
 0008274,0.,-0.00005796,-0.00001786,0.,-0.00001239,0.00000659,0.,-0.000
 00834,-0.00002317,0.,0.00002224,0.00001422,0.,0.00000248,-0.00000436,0
 .,-0.00000695,0.00000172,0.,0.00000116,-0.00000053,0.,-0.00000347,-0.0
 0000144,0.,0.00022652,-0.00038273,-0.00000003,-0.00026590,0.00007555,0
 .,-0.00220196,0.00270735,-0.00000016,-0.00130238,0.00055658,-0.0000000
 1,0.01009275,0.02009136,-0.00000025,-0.00515032,0.00010523,-0.00000018
 ,0.00009786,-0.00008877,0.00000002,-0.09149922,-0.09407234,0.00000038,
 -0.00473925,-0.02936674,0.00000029,-0.00041806,-0.00139545,0.00000003,
 0.09202123,0.00002880,0.00009589,0.,-0.00003786,-0.00014418,0.,0.00009
 640,0.00009181,0.,-0.00004950,-0.00001538,0.,0.00001194,-0.00006208,0.
 ,0.00006992,-0.00002023,0.,-0.00000733,0.00000043,0.,0.00000805,0.0000
 0396,0.,0.00000987,-0.00000509,0.,0.00001207,-0.00000330,0.,0.00011514
 ,0.00051584,0.00000003,0.00021445,-0.00026367,0.,0.00385905,-0.0023975
 4,0.00000015,0.00105435,0.00035710,0.,-0.01367489,-0.01753798,0.000000
 07,-0.00049608,0.00209416,0.00000007,-0.00006804,-0.00007279,-0.000000
 02,-0.09307192,-0.31228536,0.00000247,0.00186376,-0.00041233,0.0000000
 6,0.00007390,-0.00011514,0.,0.10168978,0.32816886,0.,0.,0.00002158,0.,
 0.00000001,-0.00001288,0.,0.,-0.00002626,0.,0.,0.00000137,0.,0.,-0.000
 00290,0.,0.,0.00000079,0.,0.,0.00000184,0.,0.,0.00000361,0.,0.,0.00000
 247,0.,0.,-0.00000343,0.00000002,-0.00000002,0.00002987,-0.00000002,0.
 ,-0.00002896,-0.00000014,0.00000025,0.00540654,-0.00000022,0.,-0.00083
 040,0.00000053,0.00000041,0.00469842,-0.00000009,-0.00000010,0.0077633
 6,0.00000001,0.,-0.00082792,-0.00000004,0.00000238,-0.03448927,0.00000
 013,-0.00000019,0.00232059,-0.00000001,0.,0.00048595,-0.00000038,-0.00
 000265,0.02440903,0.00002222,-0.00003851,0.,-0.00003550,0.00010872,0.,
 0.00010442,-0.00006379,0.,0.00002271,0.00000985,0.,-0.00000154,0.00004
 148,0.,-0.00005065,0.00000498,0.,0.00000124,0.00000485,0.,0.00000398,-
 0.00000380,0.,-0.00000723,0.00000403,0.,-0.00000490,0.00000374,0.,-0.0
 0014963,0.00032628,0.00000003,0.00000984,0.00018364,0.,-0.00082316,-0.
 00048879,0.,0.00073287,-0.00274969,0.,-0.00407989,-0.00283065,-0.00000
 010,0.01001884,-0.00980410,0.00000026,0.00036987,-0.00052040,0.,-0.013
 33910,0.02546271,-0.00000060,-0.17446753,0.13919860,-0.00000371,0.0006
 6426,0.00039680,0.00000002,0.00105209,-0.00022259,0.00000008,0.1811456
 5,0.00001972,0.00002023,0.,-0.00006414,0.00000564,0.,0.00000527,0.0000
 3409,0.,-0.00000297,-0.00000465,0.,0.00000773,-0.00000659,0.,0.0000107
 7,-0.00001218,0.,-0.00000415,-0.00000217,0.,0.00000216,0.00000264,0.,0
 .00000512,-0.00000197,0.,0.00000599,-0.00000313,0.,0.00012299,-0.00011
 141,-0.00000001,-0.00004373,0.00000045,0.,-0.00091637,0.00029794,-0.00
 000004,-0.00330626,-0.00467862,0.00000015,-0.00241030,0.00094999,0.000
 00010,0.02151425,-0.01522185,0.00000058,0.00101383,-0.00106149,0.00000
 002,-0.00609743,0.00697619,-0.00000008,0.13959215,-0.22835783,0.000004
 71,-0.00017469,0.00101730,-0.00000008,0.00018860,0.00072708,-0.0000000
 9,-0.14967583,0.23890204,0.,0.,-0.00001704,0.,0.,-0.00005784,0.,-0.000
 00001,0.00016222,0.,0.,0.00000474,0.,0.,-0.00000645,0.,0.,-0.00000170,
 0.,0.,0.00000473,0.,0.,0.00000052,0.,0.,0.00000008,0.,0.,0.00000559,-0
 .00000002,0.00000002,-0.00027893,0.,-0.00000002,0.00019657,0.00000003,
 -0.00000002,-0.00106843,0.00000009,0.00000016,0.00639069,-0.00000017,0
 .00000007,0.00902237,-0.00000037,0.00000036,0.00465597,-0.00000002,0.0
 0000002,-0.00019630,-0.00000017,0.00000017,0.00494807,-0.00000371,0.00
 000463,-0.04086290,0.00000006,-0.00000008,-0.00356785,0.00000009,-0.00
 000008,-0.00485497,0.00000410,-0.00000524,0.02684028,-0.00458030,-0.00
 541868,-0.00000007,-0.00292608,0.01788441,0.00000054,-0.08562336,0.044
 69929,0.00000229,0.01475075,-0.00373353,-0.00000011,-0.00340936,0.0083
 7856,0.00000014,-0.00379841,-0.00494155,-0.00000003,0.00029070,-0.0010
 0136,-0.00000003,-0.00044586,-0.00015082,0.00000003,0.00027384,0.00001
 715,0.,-0.00072724,-0.00007852,0.,-0.42555711,-0.05755227,0.00000530,-
 0.05020196,-0.03210950,-0.00000078,-0.15490908,0.07193586,-0.00000022,
 -0.04444487,0.03187076,-0.00000024,0.03913689,0.01312452,0.00000076,-0
 .00038043,-0.01817075,0.00000032,0.00092315,0.00124158,-0.00000005,-0.
 00705423,0.00056259,-0.00000009,0.00775132,0.00664994,0.,-0.00026929,0
 .00083950,-0.00000006,0.00035423,-0.00130731,0.00000002,0.00031717,0.0
 0000543,0.,0.74636468,0.00230063,-0.00256968,-0.00000015,0.02841324,-0
 .02720514,-0.00000099,0.01390721,0.00982280,-0.00000032,0.00811892,-0.
 00912398,-0.00000035,-0.00164087,0.00611026,0.00000012,-0.00359944,-0.
 00454410,-0.00000005,0.00021370,-0.00079329,-0.00000002,-0.00050985,0.
 00005064,0.00000003,0.00022056,-0.00037115,0.,-0.00042240,0.00006348,0
 .00000002,-0.07953251,-0.13781254,-0.00000064,-0.00180987,-0.15622620,
 -0.00000330,0.06550317,-0.19095603,-0.00000054,0.01954159,0.00649584,0
 .00000001,0.00833358,-0.03832059,-0.00000042,-0.00757900,0.01462318,-0
 .00000033,-0.00204179,-0.00038431,0.00000002,0.00254425,-0.00876597,0.
 00000022,-0.00952022,-0.00706415,-0.00000002,-0.00107825,0.00079276,-0
 .00000002,0.00124101,-0.00044512,0.00000008,-0.00036930,0.00012819,-0.
 00000001,-0.04281026,0.54171940,-0.00000007,0.00000017,0.00015780,0.00
 000106,-0.00000079,0.00440031,0.00000117,-0.00000064,0.00356342,-0.000
 00026,-0.00000006,0.00291531,0.,-0.00000024,0.00070073,0.00000020,0.00
 000002,0.00091989,0.,0.,-0.00047548,-0.00000001,0.00000001,-0.00036197
 ,0.,0.,-0.00047700,0.,0.,-0.00006111,0.00000420,0.00000026,-0.06587162
 ,-0.00000041,-0.00000267,-0.03669461,0.00000113,-0.00000199,-0.0541718
 6,0.00000004,0.00000025,-0.00353321,-0.00000021,0.00000040,0.00366881,
 -0.00000023,0.00000005,0.00660581,0.,-0.00000005,-0.00334090,0.0000000
 5,0.00000019,0.00438462,0.,-0.00000011,-0.00097080,-0.00000003,0.00000
 005,0.00113846,0.,0.00000003,-0.00014551,0.,-0.00000001,-0.00072610,-0
 .00000580,0.00000608,0.13743098,-0.00054228,0.00260746,0.00000002,0.00
 220422,0.00197723,0.00000004,0.01200108,-0.00079254,0.00000006,-0.0025
 3064,0.00046874,0.00000007,-0.00013193,-0.00262871,-0.00000006,0.00239
 592,0.00053500,-0.00000002,-0.00023184,0.00023078,0.,0.00031722,-0.000
 03378,0.00000002,0.00000117,0.00000355,0.,0.00005195,0.00007358,0.,0.0
 1564621,0.05911177,0.00000360,-0.00038780,0.00103260,0.00000002,-0.020
 34484,-0.04290510,-0.00000086,-0.00940457,0.00349788,-0.00000021,-0.38
 660501,-0.06787097,-0.00000707,-0.00551880,-0.01718214,0.00000023,-0.0
 0130363,-0.00062776,0.00000005,-0.06903381,0.01312132,-0.00000284,0.01
 797922,0.01300116,-0.00000007,-0.00008462,-0.00029540,-0.00000004,0.00
 207465,-0.00043950,0.00000013,-0.00145599,0.00034883,0.00000008,-0.034
 34572,0.01927568,0.00000023,0.53654758,-0.00078026,-0.00128639,0.00000
 004,0.00054189,-0.00444815,-0.00000008,-0.01533163,-0.00424806,-0.0000
 0062,0.00022266,-0.00061972,0.,0.00058775,0.00078203,0.00000002,-0.000
 48886,-0.00021789,0.,0.00024619,-0.00041571,-0.00000001,0.00006250,0.0
 0023369,-0.00000001,0.00018439,-0.00015403,0.,0.00009972,-0.00010688,0
 .,0.02448788,-0.08972796,-0.00000420,-0.00090825,-0.00455947,-0.000000
 08,-0.04874132,-0.00278015,-0.00000070,0.01044114,-0.00841730,0.000000
 19,-0.06072314,-0.12572823,0.00000101,-0.00136759,0.01046450,-0.000000
 19,-0.00146863,-0.00018218,0.00000002,0.04939202,0.01514531,0.00000067
 ,-0.00613613,-0.01301068,0.00000013,-0.00003397,0.00054165,0.,-0.00217
 997,0.00242264,-0.00000007,0.00184449,0.00024077,0.,0.01505432,0.00241
 707,0.00000004,0.01824796,0.34723513,0.,0.00000006,-0.00025247,0.00000
 003,0.00000018,-0.00023658,0.00000069,-0.00000033,0.00196957,-0.000000
 12,0.00000003,0.00012087,0.,-0.00000009,-0.00006673,0.00000005,0.00000
 004,0.00005078,0.,0.00000001,0.00000827,0.,0.,0.00001288,0.,0.,-0.0000
 1103,0.,0.,-0.00000129,0.00000049,0.00000217,0.00920358,-0.00000009,-0
 .00000017,-0.00061605,0.00000034,-0.00000100,0.01500458,-0.00000088,0.
 00000018,0.00654676,-0.00000867,0.00000014,-0.05852248,0.00000011,-0.0
 0000083,-0.00094141,-0.00000005,-0.00000001,0.00016804,-0.00000328,0.0
 0000003,0.00939573,0.00000054,0.00000091,0.00526085,0.,-0.00000004,-0.
 00068724,0.00000019,-0.00000010,-0.00358115,-0.00000010,-0.00000001,-0
 .00033663,-0.00000180,0.00000095,-0.00277213,0.00001399,-0.00000670,0.
 05110388,0.00034719,-0.00060590,-0.00000003,-0.00218428,0.00005702,0.0
 0000003,-0.00141853,0.00603171,0.00000044,0.00110662,-0.00011935,-0.00
 000005,0.00002367,0.00060554,-0.00000001,-0.00057063,-0.00016614,0.,0.
 00003192,-0.00000419,0.,-0.00047245,-0.00006454,0.00000002,0.00004071,
 -0.00003016,0.,-0.00000587,-0.00006550,0.,-0.03217591,-0.02041174,-0.0
 0000233,-0.00208039,-0.00349226,0.00000015,-0.00141225,0.00564009,0.00
 000010,0.00159342,0.00060116,0.,-0.04970096,0.02990380,-0.00000331,0.0
 0068661,0.00276618,-0.00000002,0.00057570,0.00023790,0.,0.00251029,-0.
 00461379,0.00000007,-0.00298142,-0.00076758,-0.00000007,0.00006303,0.0
 0003525,0.,-0.00027617,0.00026754,-0.00000002,-0.00005005,-0.00014695,
 0.00000002,0.00851056,-0.01869978,-0.00000106,-0.05729774,0.01674684,-
 0.00000146,0.13513691,0.00045777,0.00229485,-0.00000006,0.00157793,0.0
 0663785,-0.00000008,0.02341701,-0.00231140,0.00000057,-0.00189472,0.00
 190678,0.00000011,-0.00084379,-0.00220849,-0.00000003,0.00138897,0.000
 85849,0.00000002,-0.00034453,0.00056652,0.,0.00019548,-0.00033325,0.,-
 0.00030283,0.00025369,0.,-0.00012083,0.00017641,0.,-0.00900120,0.01348
 105,0.00000459,0.00159836,0.00843211,-0.00000026,0.00509459,-0.0174452
 0,0.00000037,-0.00889011,0.00006827,0.,0.06267164,0.02317797,0.0000009
 6,-0.00064382,-0.01179417,0.00000016,-0.00105869,-0.00036664,0.0000000
 3,-0.02413192,0.00606084,-0.00000062,0.01029278,0.00843124,0.00000010,
 0.00003471,-0.00037674,-0.00000004,0.00077811,-0.00069758,0.,-0.000822
 73,0.00015937,0.00000002,-0.04498938,0.00235864,-0.00000099,-0.0007576
 5,-0.12358000,0.00000458,-0.01370516,0.08424938,0.00000008,0.00000011,
 0.00045024,-0.00000013,0.00000027,0.00078843,0.00000065,0.00000065,-0.
 00210124,0.00000005,0.00000005,-0.00043055,-0.00000005,0.,0.00000191,0
 .00000001,-0.00000002,-0.00008694,-0.00000002,0.00000003,0.00002985,0.
 00000007,-0.00000004,0.00008461,-0.00000001,0.00000001,0.00002957,0.,0
 .,-0.00000463,-0.00000174,-0.00000351,-0.01828140,0.00000029,0.0000004
 8,0.00204452,0.00000011,-0.00000015,-0.00274470,0.00000004,0.00000009,
 -0.00053480,0.00000082,0.00000129,0.00021374,-0.00000012,-0.00000008,-
 0.00014220,0.00000002,0.,-0.00001866,-0.00000021,0.00000004,0.00222832
 ,0.00000014,0.00000005,0.00158847,0.,0.,0.00001719,0.,-0.00000002,-0.0
 0034178,0.,0.,-0.00025666,-0.00000012,-0.00000036,0.00371616,-0.000007
 36,0.00001058,-0.03082060,0.00000750,-0.00000945,0.04457117\\0.0003138
 3,0.00254068,0.00000012,0.00339297,0.00527946,0.00000045,0.00663936,-0
 .00020067,-0.00000026,-0.00039119,0.00075370,-0.00000010,-0.00034185,-
 0.00241401,0.00000006,0.00046076,0.00049959,-0.00000004,-0.00017470,0.
 00032683,-0.00000009,0.00020649,-0.00010280,0.00000003,-0.00002250,-0.
 00008556,0.,-0.00005530,0.00000449,-0.00000006,-0.00845775,0.00633256,
 -0.00000419,0.00242149,0.00703257,-0.00000027,-0.00501695,0.00343328,-
 0.00000010,0.00527453,-0.00080742,0.00000078,0.00919173,0.00209022,-0.
 00000138,-0.00167945,0.00415261,-0.00000006,0.00021425,0.00000381,-0.0
 0000021,-0.00258595,0.00020040,-0.00000053,-0.00374756,-0.00106602,0.0
 0000006,-0.00011598,0.00002510,-0.00000011,-0.00018921,-0.00000703,0.0
 0000009,-0.00036497,-0.00018014,0.00000009,-0.00508826,-0.00324510,0.0
 0000263,-0.00514895,-0.00686548,-0.00000278,0.00526512,-0.01770108,0.0
 0000586\\\@
 The archive entry for this job was punched.


 Luck is a matter of preparation meeting opportunity.
                                    -- Oprah Winfrey
 Job cpu time:       0 days  1 hours  3 minutes  6.7 seconds.
 Elapsed time:       0 days  0 hours  6 minutes 45.3 seconds.
 File lengths (MBytes):  RWF=    544 Int=      0 D2E=      0 Chk=     40 Scr=      8
 Normal termination of Gaussian 16 at Tue Oct 27 22:53:04 2020.
