 Entering Gaussian System, Link 0=g16
 Initial command:
 /gpfs/loomis/apps/avx/software/Gaussian/16-C.01_AVX/g16/l1.exe "/home/fas/batista/pev4/scratch60/gauss-scratch/Gau-105664.inp" -scrdir="/home/fas/batista/pev4/scratch60/gauss-scratch/"
 Entering Link 1 = /gpfs/loomis/apps/avx/software/Gaussian/16-C.01_AVX/g16/l1.exe PID=    105665.
  
 Copyright (c) 1988-2019, Gaussian, Inc.  All Rights Reserved.
  
 This is part of the Gaussian(R) 16 program.  It is based on
 the Gaussian(R) 09 system (copyright 2009, Gaussian, Inc.),
 the Gaussian(R) 03 system (copyright 2003, Gaussian, Inc.),
 the Gaussian(R) 98 system (copyright 1998, Gaussian, Inc.),
 the Gaussian(R) 94 system (copyright 1995, Gaussian, Inc.),
 the Gaussian 92(TM) system (copyright 1992, Gaussian, Inc.),
 the Gaussian 90(TM) system (copyright 1990, Gaussian, Inc.),
 the Gaussian 88(TM) system (copyright 1988, Gaussian, Inc.),
 the Gaussian 86(TM) system (copyright 1986, Carnegie Mellon
 University), and the Gaussian 82(TM) system (copyright 1983,
 Carnegie Mellon University). Gaussian is a federally registered
 trademark of Gaussian, Inc.
  
 This software contains proprietary and confidential information,
 including trade secrets, belonging to Gaussian, Inc.
  
 This software is provided under written license and may be
 used, copied, transmitted, or stored only in accord with that
 written license.
  
 The following legend is applicable only to US Government
 contracts under FAR:
  
                    RESTRICTED RIGHTS LEGEND
  
 Use, reproduction and disclosure by the US Government is
 subject to restrictions as set forth in subparagraphs (a)
 and (c) of the Commercial Computer Software - Restricted
 Rights clause in FAR 52.227-19.
  
 Gaussian, Inc.
 340 Quinnipiac St., Bldg. 40, Wallingford CT 06492
  
  
 ---------------------------------------------------------------
 Warning -- This program may not be used in any manner that
 competes with the business of Gaussian, Inc. or will provide
 assistance to any competitor of Gaussian, Inc.  The licensee
 of this program is prohibited from giving any competitor of
 Gaussian, Inc. access to this program.  By using this program,
 the user acknowledges that Gaussian, Inc. is engaged in the
 business of creating and licensing software in the field of
 computational chemistry and represents and warrants to the
 licensee that it is not a competitor of Gaussian, Inc. and that
 it will not use this program in any manner prohibited above.
 ---------------------------------------------------------------
  

 Cite this work as:
 Gaussian 16, Revision C.01,
 M. J. Frisch, G. W. Trucks, H. B. Schlegel, G. E. Scuseria, 
 M. A. Robb, J. R. Cheeseman, G. Scalmani, V. Barone, 
 G. A. Petersson, H. Nakatsuji, X. Li, M. Caricato, A. V. Marenich, 
 J. Bloino, B. G. Janesko, R. Gomperts, B. Mennucci, H. P. Hratchian, 
 J. V. Ortiz, A. F. Izmaylov, J. L. Sonnenberg, D. Williams-Young, 
 F. Ding, F. Lipparini, F. Egidi, J. Goings, B. Peng, A. Petrone, 
 T. Henderson, D. Ranasinghe, V. G. Zakrzewski, J. Gao, N. Rega, 
 G. Zheng, W. Liang, M. Hada, M. Ehara, K. Toyota, R. Fukuda, 
 J. Hasegawa, M. Ishida, T. Nakajima, Y. Honda, O. Kitao, H. Nakai, 
 T. Vreven, K. Throssell, J. A. Montgomery, Jr., J. E. Peralta, 
 F. Ogliaro, M. J. Bearpark, J. J. Heyd, E. N. Brothers, K. N. Kudin, 
 V. N. Staroverov, T. A. Keith, R. Kobayashi, J. Normand, 
 K. Raghavachari, A. P. Rendell, J. C. Burant, S. S. Iyengar, 
 J. Tomasi, M. Cossi, J. M. Millam, M. Klene, C. Adamo, R. Cammi, 
 J. W. Ochterski, R. L. Martin, K. Morokuma, O. Farkas, 
 J. B. Foresman, and D. J. Fox, Gaussian, Inc., Wallingford CT, 2019.
 
 ******************************************
 Gaussian 16:  ES64L-G16RevC.01  3-Jul-2019
                27-Oct-2020 
 ******************************************
 %chk=config_6_2.chk
 %mem=58GB
 %nprocshared=10
 Will use up to   10 processors via shared memory.
 ----------------------------------------------------------------------
 #p opt=addgic freq wb97xd/cc-pvdz nosymm int=ultrafine scrf=(solvent=C
 arbonTetraChloride)
 ----------------------------------------------------------------------
 1/18=20,19=15,26=6,38=1,145=903/1,3;
 2/9=110,12=2,15=1,17=6,18=5,40=1/2;
 3/5=16,11=2,25=1,30=1,70=2201,71=1,72=11,74=-58,75=-5/1,2,3;
 4//1;
 5/5=2,38=5,53=11/2;
 6/7=2,8=2,9=2,10=2,28=1/1;
 7/30=1/1,2,3,16;
 1/18=20,19=15,26=6,145=903/3(2);
 2/9=110,15=1/2;
 99//99;
 2/9=110,15=1/2;
 3/5=16,11=2,25=1,30=1,70=2205,71=1,72=11,74=-58,75=-5/1,2,3;
 4/5=5,16=3,69=1/1;
 5/5=2,38=5,53=11/2;
 7/30=1/1,2,3,16;
 1/18=20,19=15,26=6,145=903/3(-5);
 2/9=110,15=1/2;
 6/7=2,8=2,9=2,10=2,19=2,28=1/1;
 99/9=1/99;
 Leave Link    1 at Tue Oct 27 20:40:46 2020, MaxMem=  7784628224 cpu:               3.3 elap:               0.5
 (Enter /gpfs/loomis/apps/avx/software/Gaussian/16-C.01_AVX/g16/l101.exe)
 ------------------------------------------------
 NM 2D-scan of HBT TD-WB97XD pVDZ in CTC Relaxed.
 ------------------------------------------------
 Symbolic Z-matrix:
 Charge =  0 Multiplicity = 1
 C                     1.7482   -3.27307  -0.00002 
 C                     1.00056  -2.09263  -0.00002 
 C                     1.65916  -0.8292   -0.00002 
 C                     3.07203  -0.75307  -0.00002 
 C                     3.79804  -1.93083  -0.00002 
 C                     3.14635  -3.18098  -0.00003 
 H                     1.25931  -4.25143  -0.00003 
 H                     3.55436   0.22842  -0.00002 
 H                     4.89063  -1.89398  -0.00002 
 H                     3.74063  -4.09806  -0.00003 
 N                     0.84134   0.2301   -0.00002 
 S                    -0.75153  -1.846    -0.00002 
 C                    -1.41821   0.99759  0. 
 C                    -2.8266    0.89278  -0.00001 
 C                    -0.8647    2.38339   0.00003 
 C                    -3.64271   2.03434   0.00002 
 H                    -3.28907  -0.09848  -0.00005 
 C                    -1.72499   3.5033    0.00007 
 C                    -3.10594   3.34069   0.00006 
 H                    -4.7278    1.90317   0.00001 
 H                    -1.25069   4.48813   0.00009 
 H                    -3.76818   4.20861   0.00009 
 C                    -0.48067  -0.07571  -0.00001 
 O                     0.41453   2.59468   0.00003 
 H                     0.87053   1.59474   0.00001 
 
 Initializing the GIC definitions file.
 Number of initial coordinates =   131
 Number of input entries/lines =    52
 Number of additional coordinates =     2
 Number of removed coordinates =     0
 Number of frozen coordinates =     2
 Number of final active and frozen coordinates =   133
 ITRead=  0  0  0  0  0  0  0  0  0  0  0  0  0  0  0  0  0  0  0  0
 ITRead=  0  0  0  0  0
 MicOpt= -1 -1 -1 -1 -1 -1 -1 -1 -1 -1 -1 -1 -1 -1 -1 -1 -1 -1 -1 -1
 MicOpt= -1 -1 -1 -1 -1
 NAtoms=     25 NQM=       25 NQMF=       0 NMMI=      0 NMMIF=      0
                NMic=       0 NMicF=      0.
                    Isotopes and Nuclear Properties:
 (Nuclear quadrupole moments (NQMom) in fm**2, nuclear magnetic moments (NMagM)
  in nuclear magnetons)

  Atom         1           2           3           4           5           6           7           8           9          10
 IAtWgt=          12          12          12          12          12          12           1           1           1           1
 AtmWgt=  12.0000000  12.0000000  12.0000000  12.0000000  12.0000000  12.0000000   1.0078250   1.0078250   1.0078250   1.0078250
 NucSpn=           0           0           0           0           0           0           1           1           1           1
 AtZEff=  -0.0000000  -0.0000000  -0.0000000  -0.0000000  -0.0000000  -0.0000000  -0.0000000  -0.0000000  -0.0000000  -0.0000000
 NQMom=    0.0000000   0.0000000   0.0000000   0.0000000   0.0000000   0.0000000   0.0000000   0.0000000   0.0000000   0.0000000
 NMagM=    0.0000000   0.0000000   0.0000000   0.0000000   0.0000000   0.0000000   2.7928460   2.7928460   2.7928460   2.7928460
 AtZNuc=   6.0000000   6.0000000   6.0000000   6.0000000   6.0000000   6.0000000   1.0000000   1.0000000   1.0000000   1.0000000

  Atom        11          12          13          14          15          16          17          18          19          20
 IAtWgt=          14          32          12          12          12          12           1          12          12           1
 AtmWgt=  14.0030740  31.9720718  12.0000000  12.0000000  12.0000000  12.0000000   1.0078250  12.0000000  12.0000000   1.0078250
 NucSpn=           2           0           0           0           0           0           1           0           0           1
 AtZEff=  -0.0000000  -0.0000000  -0.0000000  -0.0000000  -0.0000000  -0.0000000  -0.0000000  -0.0000000  -0.0000000  -0.0000000
 NQMom=    2.0440000   0.0000000   0.0000000   0.0000000   0.0000000   0.0000000   0.0000000   0.0000000   0.0000000   0.0000000
 NMagM=    0.4037610   0.0000000   0.0000000   0.0000000   0.0000000   0.0000000   2.7928460   0.0000000   0.0000000   2.7928460
 AtZNuc=   7.0000000  16.0000000   6.0000000   6.0000000   6.0000000   6.0000000   1.0000000   6.0000000   6.0000000   1.0000000

  Atom        21          22          23          24          25
 IAtWgt=           1           1          12          16           1
 AtmWgt=   1.0078250   1.0078250  12.0000000  15.9949146   1.0078250
 NucSpn=           1           1           0           0           1
 AtZEff=  -0.0000000  -0.0000000  -0.0000000  -0.0000000  -0.0000000
 NQMom=    0.0000000   0.0000000   0.0000000   0.0000000   0.0000000
 NMagM=    2.7928460   2.7928460   0.0000000   0.0000000   2.7928460
 AtZNuc=   1.0000000   1.0000000   6.0000000   8.0000000   1.0000000
 Leave Link  101 at Tue Oct 27 20:40:51 2020, MaxMem=  7784628224 cpu:              29.7 elap:               4.7
 (Enter /gpfs/loomis/apps/avx/software/Gaussian/16-C.01_AVX/g16/l103.exe)

 GradGradGradGradGradGradGradGradGradGradGradGradGradGradGradGradGradGrad
 Berny optimization.
 Initialization pass.
                           ----------------------------
                           !    Initial Parameters    !
                           ! (Angstroms and Degrees)  !
 --------------------------                            --------------------------
 ! Name  Definition              Value          Derivative Info.                !
 --------------------------------------------------------------------------------
 ! R1    R(1,2)                  1.3973         estimate D2E/DX2                !
 ! R2    R(1,6)                  1.4012         estimate D2E/DX2                !
 ! R3    R(1,7)                  1.0937         estimate D2E/DX2                !
 ! R4    R(2,3)                  1.4248         estimate D2E/DX2                !
 ! R5    R(2,12)                 1.7694         estimate D2E/DX2                !
 ! R6    R(3,4)                  1.4149         estimate D2E/DX2                !
 ! R7    R(3,11)                 1.3383         estimate D2E/DX2                !
 ! R8    R(4,5)                  1.3835         estimate D2E/DX2                !
 ! R9    R(4,8)                  1.0936         estimate D2E/DX2                !
 ! R10   R(5,6)                  1.4098         estimate D2E/DX2                !
 ! R11   R(5,9)                  1.0932         estimate D2E/DX2                !
 ! R12   R(6,10)                 1.0928         estimate D2E/DX2                !
 ! R13   R(11,23)                1.3569         estimate D2E/DX2                !
 ! R14   R(12,23)                1.7909         estimate D2E/DX2                !
 ! R15   R(13,14)                1.4123         estimate D2E/DX2                !
 ! R16   R(13,15)                1.4923         estimate D2E/DX2                !
 ! R17   R(13,23)                1.4251         estimate D2E/DX2                !
 ! R18   R(14,16)                1.4033         estimate D2E/DX2                !
 ! R19   R(14,17)                1.0938         estimate D2E/DX2                !
 ! R20   R(15,18)                1.4122         estimate D2E/DX2                !
 ! R21   R(15,24)                1.2966         estimate D2E/DX2                !
 ! R22   R(16,19)                1.4123         estimate D2E/DX2                !
 ! R23   R(16,20)                1.093          estimate D2E/DX2                !
 ! R24   R(18,19)                1.3905         estimate D2E/DX2                !
 ! R25   R(18,21)                1.0931         estimate D2E/DX2                !
 ! R26   R(19,22)                1.0917         estimate D2E/DX2                !
 ! R27   R(24,25)                1.099          estimate D2E/DX2                !
 ! A1    A(2,1,6)              118.5804         estimate D2E/DX2                !
 ! A2    A(2,1,7)              121.1001         estimate D2E/DX2                !
 ! A3    A(6,1,7)              120.3195         estimate D2E/DX2                !
 ! A4    A(1,2,3)              120.1195         estimate D2E/DX2                !
 ! A5    A(1,2,12)             130.3612         estimate D2E/DX2                !
 ! A6    A(3,2,12)             109.5194         estimate D2E/DX2                !
 ! A7    A(2,3,4)              120.6165         estimate D2E/DX2                !
 ! A8    A(2,3,11)             114.7989         estimate D2E/DX2                !
 ! A9    A(4,3,11)             124.5845         estimate D2E/DX2                !
 ! A10   A(3,4,5)              118.5664         estimate D2E/DX2                !
 ! A11   A(3,4,8)              119.2551         estimate D2E/DX2                !
 ! A12   A(5,4,8)              122.1785         estimate D2E/DX2                !
 ! A13   A(4,5,6)              120.8164         estimate D2E/DX2                !
 ! A14   A(4,5,9)              119.7193         estimate D2E/DX2                !
 ! A15   A(6,5,9)              119.4643         estimate D2E/DX2                !
 ! A16   A(1,6,5)              121.3008         estimate D2E/DX2                !
 ! A17   A(1,6,10)             119.1756         estimate D2E/DX2                !
 ! A18   A(5,6,10)             119.5237         estimate D2E/DX2                !
 ! A19   A(3,11,23)            114.6442         estimate D2E/DX2                !
 ! A20   A(2,12,23)             89.3134         estimate D2E/DX2                !
 ! A21   A(14,13,15)           116.0283         estimate D2E/DX2                !
 ! A22   A(14,13,23)           126.8817         estimate D2E/DX2                !
 ! A23   A(15,13,23)           117.0899         estimate D2E/DX2                !
 ! A24   A(13,14,16)           121.305          estimate D2E/DX2                !
 ! A25   A(13,14,17)           119.2675         estimate D2E/DX2                !
 ! A26   A(16,14,17)           119.4275         estimate D2E/DX2                !
 ! A27   A(13,15,18)           120.6969         estimate D2E/DX2                !
 ! A28   A(13,15,24)           121.1511         estimate D2E/DX2                !
 ! A29   A(18,15,24)           118.1519         estimate D2E/DX2                !
 ! A30   A(14,16,19)           122.1016         estimate D2E/DX2                !
 ! A31   A(14,16,20)           118.6681         estimate D2E/DX2                !
 ! A32   A(19,16,20)           119.2303         estimate D2E/DX2                !
 ! A33   A(15,18,19)           120.8149         estimate D2E/DX2                !
 ! A34   A(15,18,21)           116.7536         estimate D2E/DX2                !
 ! A35   A(19,18,21)           122.4314         estimate D2E/DX2                !
 ! A36   A(16,19,18)           119.0532         estimate D2E/DX2                !
 ! A37   A(16,19,22)           120.3182         estimate D2E/DX2                !
 ! A38   A(18,19,22)           120.6286         estimate D2E/DX2                !
 ! A39   A(11,23,12)           111.724          estimate D2E/DX2                !
 ! A40   A(11,23,13)           118.1128         estimate D2E/DX2                !
 ! A41   A(12,23,13)           130.1631         estimate D2E/DX2                !
 ! A42   A(15,24,25)           105.1357         estimate D2E/DX2                !
 ! D1    D(6,1,2,3)              0.0            estimate D2E/DX2                !
 ! D2    D(6,1,2,12)          -179.9999         estimate D2E/DX2                !
 ! D3    D(7,1,2,3)            180.0            estimate D2E/DX2                !
 ! D4    D(7,1,2,12)             0.0            estimate D2E/DX2                !
 ! D5    D(2,1,6,5)              0.0            estimate D2E/DX2                !
 ! D6    D(2,1,6,10)           180.0            estimate D2E/DX2                !
 ! D7    D(7,1,6,5)           -179.9999         estimate D2E/DX2                !
 ! D8    D(7,1,6,10)             0.0001         estimate D2E/DX2                !
 ! D9    D(1,2,3,4)             -0.0001         estimate D2E/DX2                !
 ! D10   D(1,2,3,11)           179.9999         estimate D2E/DX2                !
 ! D11   D(12,2,3,4)           179.9999         estimate D2E/DX2                !
 ! D12   D(12,2,3,11)           -0.0001         estimate D2E/DX2                !
 ! D13   D(1,2,12,23)          180.0            estimate D2E/DX2                !
 ! D14   D(3,2,12,23)            0.0            estimate D2E/DX2                !
 ! D15   D(2,3,4,5)              0.0001         estimate D2E/DX2                !
 ! D16   D(2,3,4,8)           -179.9999         estimate D2E/DX2                !
 ! D17   D(11,3,4,5)          -179.9999         estimate D2E/DX2                !
 ! D18   D(11,3,4,8)             0.0            estimate D2E/DX2                !
 ! D19   D(2,3,11,23)            0.0002         estimate D2E/DX2                !
 ! D20   D(4,3,11,23)         -179.9998         estimate D2E/DX2                !
 ! D21   D(3,4,5,6)              0.0            estimate D2E/DX2                !
 ! D22   D(3,4,5,9)            180.0            estimate D2E/DX2                !
 ! D23   D(8,4,5,6)           -180.0            estimate D2E/DX2                !
 ! D24   D(8,4,5,9)              0.0            estimate D2E/DX2                !
 ! D25   D(4,5,6,1)              0.0            estimate D2E/DX2                !
 ! D26   D(4,5,6,10)           180.0            estimate D2E/DX2                !
 ! D27   D(9,5,6,1)            180.0            estimate D2E/DX2                !
 ! D28   D(9,5,6,10)             0.0            estimate D2E/DX2                !
 ! D29   D(3,11,23,12)          -0.0001         estimate D2E/DX2                !
 ! D30   D(3,11,23,13)         179.9996         estimate D2E/DX2                !
 ! D31   D(2,12,23,11)           0.0001         estimate D2E/DX2                !
 ! D32   D(2,12,23,13)        -179.9996         estimate D2E/DX2                !
 ! D33   D(15,13,14,16)         -0.0008         estimate D2E/DX2                !
 ! D34   D(15,13,14,17)        179.9994         estimate D2E/DX2                !
 ! D35   D(23,13,14,16)        179.999          estimate D2E/DX2                !
 ! D36   D(23,13,14,17)         -0.0007         estimate D2E/DX2                !
 ! D37   D(14,13,15,18)          0.0009         estimate D2E/DX2                !
 ! D38   D(14,13,15,24)       -179.9991         estimate D2E/DX2                !
 ! D39   D(23,13,15,18)       -179.999          estimate D2E/DX2                !
 ! D40   D(23,13,15,24)          0.001          estimate D2E/DX2                !
 ! D41   D(14,13,23,11)        179.9991         estimate D2E/DX2                !
 ! D42   D(14,13,23,12)         -0.0012         estimate D2E/DX2                !
 ! D43   D(15,13,23,11)         -0.001          estimate D2E/DX2                !
 ! D44   D(15,13,23,12)        179.9987         estimate D2E/DX2                !
 ! D45   D(13,14,16,19)          0.0002         estimate D2E/DX2                !
 ! D46   D(13,14,16,20)       -179.9997         estimate D2E/DX2                !
 ! D47   D(17,14,16,19)        179.9999         estimate D2E/DX2                !
 ! D48   D(17,14,16,20)          0.0            estimate D2E/DX2                !
 ! D49   D(13,15,18,19)         -0.0004         estimate D2E/DX2                !
 ! D50   D(13,15,18,21)        179.9997         estimate D2E/DX2                !
 ! D51   D(24,15,18,19)        179.9997         estimate D2E/DX2                !
 ! D52   D(24,15,18,21)         -0.0002         estimate D2E/DX2                !
 ! D53   D(13,15,24,25)         -0.0004         estimate D2E/DX2                !
 ! D54   D(18,15,24,25)        179.9995         estimate D2E/DX2                !
 ! D55   D(14,16,19,18)          0.0004         estimate D2E/DX2                !
 ! D56   D(14,16,19,22)       -179.9997         estimate D2E/DX2                !
 ! D57   D(20,16,19,18)       -179.9997         estimate D2E/DX2                !
 ! D58   D(20,16,19,22)          0.0002         estimate D2E/DX2                !
 ! D59   D(15,18,19,16)         -0.0003         estimate D2E/DX2                !
 ! D60   D(15,18,19,22)        179.9998         estimate D2E/DX2                !
 ! D61   D(21,18,19,16)        179.9996         estimate D2E/DX2                !
 ! D62   D(21,18,19,22)         -0.0003         estimate D2E/DX2                !
 ! Qtot  GIC-1                   0.0            Frozen                          !
 ! Ptot  GIC-2                -120.0            Frozen                          !
 --------------------------------------------------------------------------------
 NOTE: GIC-type coordinates are in arbitrary units.
 Trust Radius=3.00D-01 FncErr=5.00D-06 GrdErr=5.00D-06 EigMax=2.50D+02 EigMin=1.00D-04
 Number of steps in this run=    143 maximum allowed number of steps=    150.
 GradGradGradGradGradGradGradGradGradGradGradGradGradGradGradGradGradGrad

 Leave Link  103 at Tue Oct 27 20:40:51 2020, MaxMem=  7784628224 cpu:               0.2 elap:               0.0
 (Enter /gpfs/loomis/apps/avx/software/Gaussian/16-C.01_AVX/g16/l202.exe)
                          Input orientation:                          
 ---------------------------------------------------------------------
 Center     Atomic      Atomic             Coordinates (Angstroms)
 Number     Number       Type             X           Y           Z
 ---------------------------------------------------------------------
      1          6           0        1.748203   -3.273066   -0.000025
      2          6           0        1.000562   -2.092632   -0.000021
      3          6           0        1.659157   -0.829205   -0.000018
      4          6           0        3.072035   -0.753067   -0.000018
      5          6           0        3.798044   -1.930826   -0.000022
      6          6           0        3.146352   -3.180981   -0.000025
      7          1           0        1.259314   -4.251433   -0.000026
      8          1           0        3.554361    0.228425   -0.000015
      9          1           0        4.890633   -1.893976   -0.000022
     10          1           0        3.740634   -4.098064   -0.000028
     11          7           0        0.841342    0.230104   -0.000016
     12         16           0       -0.751533   -1.845999   -0.000017
     13          6           0       -1.418208    0.997585   -0.000001
     14          6           0       -2.826600    0.892776   -0.000013
     15          6           0       -0.864699    2.383394    0.000030
     16          6           0       -3.642706    2.034341    0.000021
     17          1           0       -3.289071   -0.098476   -0.000045
     18          6           0       -1.724987    3.503298    0.000065
     19          6           0       -3.105937    3.340688    0.000064
     20          1           0       -4.727803    1.903166    0.000014
     21          1           0       -1.250689    4.488127    0.000091
     22          1           0       -3.768176    4.208606    0.000094
     23          6           0       -0.480667   -0.075711   -0.000013
     24          8           0        0.414528    2.594682    0.000026
     25          1           0        0.870533    1.594740    0.000006
 ---------------------------------------------------------------------
                    Distance matrix (angstroms):
                    1          2          3          4          5
     1  C    0.000000
     2  C    1.397280   0.000000
     3  C    2.445483   1.424779   0.000000
     4  C    2.846564   2.466868   1.414928   0.000000
     5  C    2.450195   2.802158   2.405912   1.383549   0.000000
     6  C    1.401178   2.406017   2.782553   2.429051   1.409819
     7  H    1.093715   2.174252   3.445507   3.940117   3.439530
     8  H    3.939879   3.450970   2.170341   1.093601   2.172958
     9  H    3.431728   3.895140   3.402378   2.146852   1.093210
    10  H    2.156479   3.395549   3.875305   3.411163   2.167998
    11  N    3.618646   2.328187   1.338266   2.437748   3.662200
    12  S    2.878402   1.769368   2.616351   3.976703   4.550368
    13  C    5.316448   3.924270   3.578733   4.819446   5.982046
    14  C    6.187331   4.853847   4.804917   6.123944   7.201294
    15  C    6.230794   4.849125   4.085418   5.033415   6.352454
    16  C    7.565082   6.212234   6.025748   7.270309   8.431330
    17  H    5.954171   4.730498   5.001892   6.394698   7.320158
    18  C    7.614602   6.224392   5.497545   6.413116   7.748134
    19  C    8.203927   6.810602   6.331992   7.411219   8.686416
    20  H    8.290478   6.984308   6.946877   8.239723   9.348238
    21  H    8.320425   6.955180   6.061453   6.793825   8.166558
    22  H    9.295475   7.902308   7.405098   8.450248   9.743732
    23  C    3.897556   2.502401   2.268611   3.616698   4.663564
    24  O    6.017404   4.723806   3.643089   4.274314   5.650522
    25  H    4.946296   3.689664   2.549007   3.218510   4.582569
                    6          7          8          9         10
     6  C    0.000000
     7  H    2.169511   0.000000
     8  H    3.433732   5.033524   0.000000
     9  H    2.167694   4.329443   2.508029   0.000000
    10  H    1.092800   2.486056   4.330497   2.486061   0.000000
    11  N    4.116864   4.500985   2.713020   4.572578   5.209504
    12  S    4.120155   3.135222   4.779535   5.642369   5.025073
    13  C    6.188345   5.892479   5.031704   6.939928   7.251158
    14  C    7.229913   6.569442   6.415452   8.204978   8.248457
    15  C    6.859358   6.966517   4.916501   7.170756   7.950999
    16  C    8.561010   7.971245   7.420182   9.394123   9.597922
    17  H    7.135580   6.159128   6.851235   8.374448   8.087859
    18  C    8.271005   8.309145   6.212592   8.537973   9.362356
    19  C    9.034560   8.757609   7.351581   9.557554  10.109924
    20  H    9.372879   8.586306   8.449792  10.340821  10.379267
    21  H    8.840203   9.092855   6.421337   8.857035   9.931565
    22  H   10.120113   9.841134   8.334350  10.593228  11.197455
    23  C    4.774722   4.523736   4.046473   5.670710   5.830841
    24  O    6.389142   6.898039   3.931631   6.339050   7.473675
    25  H    5.290261   5.859086   3.011603   5.322814   6.375382
                   11         12         13         14         15
    11  N    0.000000
    12  S    2.616763   0.000000
    13  C    2.386334   2.920690   0.000000
    14  C    3.727322   3.436101   1.412287   0.000000
    15  C    2.747223   4.230906   1.492259   2.463939   0.000000
    16  C    4.833421   4.839000   2.454232   1.403282   2.799850
    17  H    4.143462   3.081061   2.168290   1.093828   3.469475
    18  C    4.159308   5.437149   2.524423   2.833439   1.412190
    19  C    5.025609   5.696046   2.887657   2.463798   2.437121
    20  H    5.815024   5.465067   3.431253   2.153012   3.892838
    21  H    4.744192   6.353763   3.494559   3.925563   2.139834
    22  H    6.089018   6.764494   3.979071   3.446925   3.429516
    23  C    1.356919   1.790890   1.425113   2.537985   2.488911
    24  O    2.402790   4.591224   2.430974   3.660791   1.296559
    25  H    1.364948   3.803916   2.365359   3.763182   1.906044
                   16         17         18         19         20
    16  C    0.000000
    17  H    2.161935   0.000000
    18  C    2.415675   3.926721   0.000000
    19  C    1.412326   3.444036   1.390492   0.000000
    20  H    1.092997   2.465059   3.402547   2.167237   0.000000
    21  H    3.426778   5.019156   1.093090   2.181412   4.332706
    22  H    2.177882   4.333647   2.161500   1.091715   2.497186
    23  C    3.801422   2.808496   3.789147   4.308575   4.685522
    24  O    4.095745   4.579273   2.324458   3.598639   5.188618
    25  H    4.534597   4.491022   3.221694   4.342884   5.606825
                   21         22         23         24         25
    21  H    0.000000
    22  H    2.532957   0.000000
    23  C    4.628342   5.400286   0.000000
    24  O    2.521524   4.483276   2.816446   0.000000
    25  H    3.587655   5.324464   2.148522   1.099010   0.000000
 Symmetry turned off by external request.
 Stoichiometry    C13H9NOS
 Framework group  C1[X(C13H9NOS)]
 Deg. of freedom    69
 Full point group                 C1      NOp   1
 Rotational constants (GHZ):           1.3467790           0.2853801           0.2354819
 Leave Link  202 at Tue Oct 27 20:40:51 2020, MaxMem=  7784628224 cpu:               0.2 elap:               0.1
 (Enter /gpfs/loomis/apps/avx/software/Gaussian/16-C.01_AVX/g16/l301.exe)
 Standard basis: CC-pVDZ (5D, 7F)
 Ernie: Thresh=  0.10000D-02 Tol=  0.10000D-05 Strict=F.
 Ernie:  40 primitive shells out of 425 were deleted.
   273 basis functions,   629 primitive gaussians,   289 cartesian basis functions
    59 alpha electrons       59 beta electrons
       nuclear repulsion energy      1094.5676731669 Hartrees.
 IExCor= 4639 DFT=T Ex+Corr=wB97XD ExCW=0 ScaHFX=  1.000000
 ScaDFX=  1.000000  1.000000  1.000000  1.000000 ScalE2=  1.000000  1.000000
 IRadAn=      5 IRanWt=     -1 IRanGd=            0 ICorTp=0 IEmpDi=121
 HFx  wShort=  0.000000 wLong=  0.200000 cFull=  0.222036 cShort=  0.000000 cLong=  0.777964
 DFx  wShort=  0.000000 wLong=  0.200000 cFull=  0.000000 cShort=  0.000000 cLong=  1.000000
 NAtoms=   25 NActive=   25 NUniq=   25 SFac= 1.00D+00 NAtFMM=   60 NAOKFM=F Big=F
 Integral buffers will be    131072 words long.
 Raffenetti 2 integral format.
 Two-electron integral symmetry is turned off.
 R6Disp:  Grimme-D2 Dispersion energy=       -0.0140234119 Hartrees.
 Nuclear repulsion after empirical dispersion term =     1094.5536497550 Hartrees.
 ------------------------------------------------------------------------------
 Polarizable Continuum Model (PCM)
 =================================
 Model                : PCM.
 Atomic radii         : UFF (Universal Force Field).
 Polarization charges : Total charges.
 Charge compensation  : None.
 Solution method      : On-the-fly selection.
 Cavity type          : Scaled VdW (van der Waals Surface) (Alpha=1.100).
 Cavity algorithm     : GePol (No added spheres)
                        Default sphere list used, NSphG=   25.
                        Lebedev-Laikov grids with approx.  5.0 points / Ang**2.
                        Smoothing algorithm: York/Karplus (Gamma=1.0000).
                        Polarization charges: spherical gaussians, with
                                              point-specific exponents (IZeta= 3).
                        Self-potential: point-specific (ISelfS= 7).
                        Self-field    : sphere-specific E.n sum rule (ISelfD= 2).
 1st derivatives      : Analytical E(r).r(x)/FMM algorithm (CHGder, D1EAlg=3).
                        Cavity 1st derivative terms included.
 Solvent              : CarbonTetraChloride, Eps=   2.228000 Eps(inf)=   2.131892
 ------------------------------------------------------------------------------
 GePol: Number of generator spheres                  =      25
 GePol: Total number of spheres                      =      25
 GePol: Number of exposed spheres                    =      25 (100.00%)
 GePol: Number of points                             =    2194
 GePol: Average weight of points                     =       0.13
 GePol: Minimum weight of points                     =   0.15D-10
 GePol: Maximum weight of points                     =    0.20577
 GePol: Number of points with low weight             =     130
 GePol: Fraction of low-weight points (<1% of avg)   =       5.93%
 GePol: Cavity surface area                          =    276.065 Ang**2
 GePol: Cavity volume                                =    294.868 Ang**3
 Leave Link  301 at Tue Oct 27 20:40:52 2020, MaxMem=  7784628224 cpu:               1.0 elap:               0.2
 (Enter /gpfs/loomis/apps/avx/software/Gaussian/16-C.01_AVX/g16/l302.exe)
 NPDir=0 NMtPBC=     1 NCelOv=     1 NCel=       1 NClECP=     1 NCelD=      1
         NCelK=      1 NCelE2=     1 NClLst=     1 CellRange=     0.0.
 One-electron integrals computed using PRISM.
 NBasis=   273 RedAO= T EigKep=  3.17D-04  NBF=   273
 NBsUse=   273 1.00D-06 EigRej= -1.00D+00 NBFU=   273
 Precomputing XC quadrature grid using
 IXCGrd= 4 IRadAn=           5 IRanWt=          -1 IRanGd=           0 AccXCQ= 0.00D+00.
 Generated NRdTot=       0 NPtTot=           0 NUsed=           0 NTot=          32
 NSgBfM=   288   288   288   288   288 MxSgAt=    25 MxSgA2=    25.
 Leave Link  302 at Tue Oct 27 20:40:53 2020, MaxMem=  7784628224 cpu:               6.8 elap:               1.2
 (Enter /gpfs/loomis/apps/avx/software/Gaussian/16-C.01_AVX/g16/l303.exe)
 DipDrv:  MaxL=1.
 Leave Link  303 at Tue Oct 27 20:40:53 2020, MaxMem=  7784628224 cpu:               1.6 elap:               0.4
 (Enter /gpfs/loomis/apps/avx/software/Gaussian/16-C.01_AVX/g16/l401.exe)
 ExpMin= 1.22D-01 ExpMax= 1.11D+05 ExpMxC= 1.07D+03 IAcc=3 IRadAn=         5 AccDes= 0.00D+00
 Harris functional with IExCor= 4639 and IRadAn=       5 diagonalized for initial guess.
 HarFok:  IExCor= 4639 AccDes= 0.00D+00 IRadAn=         5 IDoV= 1 UseB2=F ITyADJ=14
 ICtDFT=  3500011 ScaDFX=  1.000000  1.000000  1.000000  1.000000
 FoFCou: FMM=F IPFlag=           0 FMFlag=      100000 FMFlg1=           0
         NFxFlg=           0 DoJE=T BraDBF=F KetDBF=T FulRan=T
         wScrn=  0.000000 ICntrl=       500 IOpCl=  0 I1Cent=   200000004 NGrid=           0
         NMat0=    1 NMatS0=      1 NMatT0=    0 NMatD0=    1 NMtDS0=    0 NMtDT0=    0
 Symmetry not used in FoFCou.
 Harris En= -994.460063142893    
 JPrj=0 DoOrth=F DoCkMO=F.
 Leave Link  401 at Tue Oct 27 20:40:56 2020, MaxMem=  7784628224 cpu:              16.6 elap:               2.4
 (Enter /gpfs/loomis/apps/avx/software/Gaussian/16-C.01_AVX/g16/l502.exe)
 Two-electron integral symmetry not used.
 Closed shell SCF:
 Using DIIS extrapolation, IDIIS=  1040.
 NGot=  7784628224 LenX=  7784455381 LenY=  7784371419
 Requested convergence on RMS density matrix=1.00D-08 within 128 cycles.
 Requested convergence on MAX density matrix=1.00D-06.
 Requested convergence on             energy=1.00D-06.
 No special actions if energy rises.
 Fock matrices will be formed incrementally for  20 cycles.

 Cycle   1  Pass 1  IDiag  1:
 FoFJK:  IHMeth= 1 ICntrl=       0 DoSepK=T KAlg= 0 I1Cent=           0 FoldK=F
 IRaf=         1 NMat=       1 IRICut=       1 DoRegI=T DoRafI=F ISym2E= 0 IDoP0=0 IntGTp=1.
 FoFCou: FMM=F IPFlag=           0 FMFlag=      100000 FMFlg1=           0
         NFxFlg=           0 DoJE=T BraDBF=F KetDBF=F FulRan=T
         wScrn=  0.000000 ICntrl=       500 IOpCl=  0 I1Cent=           0 NGrid=           0
         NMat0=    1 NMatS0=      1 NMatT0=    0 NMatD0=    1 NMtDS0=    0 NMtDT0=    0
 Symmetry not used in FoFCou.
 Inv3:  Mode=1 IEnd=    14440908.
 Iteration    1 A*A^-1 deviation from unit magnitude is 6.88D-15 for   2187.
 Iteration    1 A*A^-1 deviation from orthogonality  is 2.05D-15 for   1090    633.
 Iteration    1 A^-1*A deviation from unit magnitude is 6.66D-15 for   2187.
 Iteration    1 A^-1*A deviation from orthogonality  is 1.55D-15 for   1869   1486.
 E= -1028.57655081972    
 DIIS: error= 2.81D-02 at cycle   1 NSaved=   1.
 NSaved= 1 IEnMin= 1 EnMin= -1028.57655081972     IErMin= 1 ErrMin= 2.81D-02
 ErrMax= 2.81D-02  0.00D+00 EMaxC= 1.00D-01 BMatC= 3.89D-01 BMatP= 3.89D-01
 IDIUse=3 WtCom= 7.19D-01 WtEn= 2.81D-01
 Coeff-Com:  0.100D+01
 Coeff-En:   0.100D+01
 Coeff:      0.100D+01
 Gap=     0.350 Goal=   None    Shift=    0.000
 GapD=    0.350 DampG=1.000 DampE=0.500 DampFc=0.5000 IDamp=-1.
 Damping current iteration by 5.00D-01
 RMSDP=3.51D-03 MaxDP=2.26D-01              OVMax= 1.74D-01

 Cycle   2  Pass 1  IDiag  1:
 RMSU=  1.75D-03    CP:  9.93D-01
 E= -1028.69408429551     Delta-E=       -0.117533475788 Rises=F Damp=T
 DIIS: error= 1.19D-02 at cycle   2 NSaved=   2.
 NSaved= 2 IEnMin= 2 EnMin= -1028.69408429551     IErMin= 2 ErrMin= 1.19D-02
 ErrMax= 1.19D-02  0.00D+00 EMaxC= 1.00D-01 BMatC= 5.76D-02 BMatP= 3.89D-01
 IDIUse=3 WtCom= 8.81D-01 WtEn= 1.19D-01
 Coeff-Com: -0.297D+00 0.130D+01
 Coeff-En:   0.000D+00 0.100D+01
 Coeff:     -0.261D+00 0.126D+01
 Gap=     0.299 Goal=   None    Shift=    0.000
 RMSDP=1.14D-03 MaxDP=2.31D-02 DE=-1.18D-01 OVMax= 1.13D-01

 Cycle   3  Pass 1  IDiag  1:
 RMSU=  1.08D-03    CP:  9.92D-01  1.20D+00
 E= -1028.79835515374     Delta-E=       -0.104270858230 Rises=F Damp=F
 DIIS: error= 5.34D-03 at cycle   3 NSaved=   3.
 NSaved= 3 IEnMin= 3 EnMin= -1028.79835515374     IErMin= 3 ErrMin= 5.34D-03
 ErrMax= 5.34D-03  0.00D+00 EMaxC= 1.00D-01 BMatC= 1.28D-02 BMatP= 5.76D-02
 IDIUse=3 WtCom= 9.47D-01 WtEn= 5.34D-02
 Coeff-Com: -0.200D+00 0.474D+00 0.726D+00
 Coeff-En:   0.000D+00 0.000D+00 0.100D+01
 Coeff:     -0.189D+00 0.449D+00 0.740D+00
 Gap=     0.260 Goal=   None    Shift=    0.000
 RMSDP=4.97D-04 MaxDP=1.73D-02 DE=-1.04D-01 OVMax= 3.76D-02

 Cycle   4  Pass 1  IDiag  1:
 RMSU=  3.87D-04    CP:  9.89D-01  1.36D+00  8.58D-01
 E= -1028.81053531371     Delta-E=       -0.012180159968 Rises=F Damp=F
 DIIS: error= 1.97D-03 at cycle   4 NSaved=   4.
 NSaved= 4 IEnMin= 4 EnMin= -1028.81053531371     IErMin= 4 ErrMin= 1.97D-03
 ErrMax= 1.97D-03  0.00D+00 EMaxC= 1.00D-01 BMatC= 1.47D-03 BMatP= 1.28D-02
 IDIUse=3 WtCom= 9.80D-01 WtEn= 1.97D-02
 Coeff-Com: -0.713D-01 0.141D+00 0.347D+00 0.583D+00
 Coeff-En:   0.000D+00 0.000D+00 0.000D+00 0.100D+01
 Coeff:     -0.699D-01 0.138D+00 0.341D+00 0.591D+00
 Gap=     0.257 Goal=   None    Shift=    0.000
 RMSDP=1.54D-04 MaxDP=8.99D-03 DE=-1.22D-02 OVMax= 1.17D-02

 Cycle   5  Pass 1  IDiag  1:
 RMSU=  1.02D-04    CP:  9.89D-01  1.37D+00  9.22D-01  7.65D-01
 E= -1028.81208029246     Delta-E=       -0.001544978751 Rises=F Damp=F
 DIIS: error= 3.16D-04 at cycle   5 NSaved=   5.
 NSaved= 5 IEnMin= 5 EnMin= -1028.81208029246     IErMin= 5 ErrMin= 3.16D-04
 ErrMax= 3.16D-04  0.00D+00 EMaxC= 1.00D-01 BMatC= 5.02D-05 BMatP= 1.47D-03
 IDIUse=3 WtCom= 9.97D-01 WtEn= 3.16D-03
 Coeff-Com: -0.111D-02-0.375D-02 0.328D-01 0.162D+00 0.810D+00
 Coeff-En:   0.000D+00 0.000D+00 0.000D+00 0.000D+00 0.100D+01
 Coeff:     -0.111D-02-0.374D-02 0.327D-01 0.162D+00 0.810D+00
 Gap=     0.258 Goal=   None    Shift=    0.000
 RMSDP=4.99D-05 MaxDP=1.53D-03 DE=-1.54D-03 OVMax= 4.90D-03

 Cycle   6  Pass 1  IDiag  1:
 RMSU=  3.26D-05    CP:  9.89D-01  1.37D+00  9.40D-01  8.45D-01  1.07D+00
 E= -1028.81218470245     Delta-E=       -0.000104409995 Rises=F Damp=F
 DIIS: error= 1.53D-04 at cycle   6 NSaved=   6.
 NSaved= 6 IEnMin= 6 EnMin= -1028.81218470245     IErMin= 6 ErrMin= 1.53D-04
 ErrMax= 1.53D-04  0.00D+00 EMaxC= 1.00D-01 BMatC= 7.62D-06 BMatP= 5.02D-05
 IDIUse=3 WtCom= 9.98D-01 WtEn= 1.53D-03
 Coeff-Com:  0.144D-01-0.295D-01-0.576D-01-0.628D-01 0.190D+00 0.945D+00
 Coeff-En:   0.000D+00 0.000D+00 0.000D+00 0.000D+00 0.000D+00 0.100D+01
 Coeff:      0.144D-01-0.295D-01-0.575D-01-0.627D-01 0.190D+00 0.945D+00
 Gap=     0.259 Goal=   None    Shift=    0.000
 RMSDP=2.93D-05 MaxDP=1.49D-03 DE=-1.04D-04 OVMax= 2.43D-03

 Cycle   7  Pass 1  IDiag  1:
 RMSU=  1.52D-05    CP:  9.89D-01  1.37D+00  9.51D-01  8.75D-01  1.24D+00
                    CP:  1.24D+00
 E= -1028.81220960586     Delta-E=       -0.000024903404 Rises=F Damp=F
 DIIS: error= 7.36D-05 at cycle   7 NSaved=   7.
 NSaved= 7 IEnMin= 7 EnMin= -1028.81220960586     IErMin= 7 ErrMin= 7.36D-05
 ErrMax= 7.36D-05  0.00D+00 EMaxC= 1.00D-01 BMatC= 1.68D-06 BMatP= 7.62D-06
 IDIUse=1 WtCom= 1.00D+00 WtEn= 0.00D+00
 Coeff-Com:  0.596D-02-0.114D-01-0.272D-01-0.444D-01-0.213D-01 0.390D+00
 Coeff-Com:  0.708D+00
 Coeff:      0.596D-02-0.114D-01-0.272D-01-0.444D-01-0.213D-01 0.390D+00
 Coeff:      0.708D+00
 Gap=     0.259 Goal=   None    Shift=    0.000
 RMSDP=9.32D-06 MaxDP=3.73D-04 DE=-2.49D-05 OVMax= 1.15D-03

 Cycle   8  Pass 1  IDiag  1:
 RMSU=  5.77D-06    CP:  9.89D-01  1.37D+00  9.52D-01  8.81D-01  1.27D+00
                    CP:  1.42D+00  1.09D+00
 E= -1028.81221304846     Delta-E=       -0.000003442604 Rises=F Damp=F
 DIIS: error= 2.80D-05 at cycle   8 NSaved=   8.
 NSaved= 8 IEnMin= 8 EnMin= -1028.81221304846     IErMin= 8 ErrMin= 2.80D-05
 ErrMax= 2.80D-05  0.00D+00 EMaxC= 1.00D-01 BMatC= 2.73D-07 BMatP= 1.68D-06
 IDIUse=1 WtCom= 1.00D+00 WtEn= 0.00D+00
 Coeff-Com: -0.123D-02 0.271D-02 0.388D-02 0.130D-02-0.403D-01-0.639D-01
 Coeff-Com:  0.251D+00 0.846D+00
 Coeff:     -0.123D-02 0.271D-02 0.388D-02 0.130D-02-0.403D-01-0.639D-01
 Coeff:      0.251D+00 0.846D+00
 Gap=     0.259 Goal=   None    Shift=    0.000
 RMSDP=4.45D-06 MaxDP=1.28D-04 DE=-3.44D-06 OVMax= 5.64D-04

 Cycle   9  Pass 1  IDiag  1:
 RMSU=  2.17D-06    CP:  9.89D-01  1.37D+00  9.52D-01  8.80D-01  1.28D+00
                    CP:  1.48D+00  1.30D+00  1.10D+00
 E= -1028.81221375399     Delta-E=       -0.000000705524 Rises=F Damp=F
 DIIS: error= 1.64D-05 at cycle   9 NSaved=   9.
 NSaved= 9 IEnMin= 9 EnMin= -1028.81221375399     IErMin= 9 ErrMin= 1.64D-05
 ErrMax= 1.64D-05  0.00D+00 EMaxC= 1.00D-01 BMatC= 3.46D-08 BMatP= 2.73D-07
 IDIUse=1 WtCom= 1.00D+00 WtEn= 0.00D+00
 Coeff-Com: -0.105D-02 0.210D-02 0.434D-02 0.616D-02-0.955D-02-0.759D-01
 Coeff-Com: -0.147D-01 0.231D+00 0.858D+00
 Coeff:     -0.105D-02 0.210D-02 0.434D-02 0.616D-02-0.955D-02-0.759D-01
 Coeff:     -0.147D-01 0.231D+00 0.858D+00
 Gap=     0.259 Goal=   None    Shift=    0.000
 RMSDP=2.04D-06 MaxDP=5.52D-05 DE=-7.06D-07 OVMax= 3.08D-04

 Cycle  10  Pass 1  IDiag  1:
 RMSU=  9.64D-07    CP:  9.89D-01  1.37D+00  9.52D-01  8.80D-01  1.28D+00
                    CP:  1.51D+00  1.37D+00  1.26D+00  1.22D+00
 E= -1028.81221389266     Delta-E=       -0.000000138670 Rises=F Damp=F
 DIIS: error= 6.46D-06 at cycle  10 NSaved=  10.
 NSaved=10 IEnMin=10 EnMin= -1028.81221389266     IErMin=10 ErrMin= 6.46D-06
 ErrMax= 6.46D-06  0.00D+00 EMaxC= 1.00D-01 BMatC= 9.03D-09 BMatP= 3.46D-08
 IDIUse=1 WtCom= 1.00D+00 WtEn= 0.00D+00
 Coeff-Com: -0.136D-03 0.225D-03 0.788D-03 0.219D-02 0.404D-02-0.179D-01
 Coeff-Com: -0.432D-01-0.859D-01 0.303D+00 0.837D+00
 Coeff:     -0.136D-03 0.225D-03 0.788D-03 0.219D-02 0.404D-02-0.179D-01
 Coeff:     -0.432D-01-0.859D-01 0.303D+00 0.837D+00
 Gap=     0.259 Goal=   None    Shift=    0.000
 RMSDP=1.01D-06 MaxDP=2.54D-05 DE=-1.39D-07 OVMax= 1.66D-04

 Cycle  11  Pass 1  IDiag  1:
 RMSU=  4.31D-07    CP:  9.89D-01  1.37D+00  9.52D-01  8.81D-01  1.28D+00
                    CP:  1.52D+00  1.40D+00  1.32D+00  1.50D+00  1.24D+00
 E= -1028.81221392617     Delta-E=       -0.000000033517 Rises=F Damp=F
 DIIS: error= 3.63D-06 at cycle  11 NSaved=  11.
 NSaved=11 IEnMin=11 EnMin= -1028.81221392617     IErMin=11 ErrMin= 3.63D-06
 ErrMax= 3.63D-06  0.00D+00 EMaxC= 1.00D-01 BMatC= 1.58D-09 BMatP= 9.03D-09
 IDIUse=1 WtCom= 1.00D+00 WtEn= 0.00D+00
 Coeff-Com:  0.212D-03-0.434D-03-0.800D-03-0.705D-03 0.363D-02 0.922D-02
 Coeff-Com: -0.397D-02-0.760D-01-0.772D-01 0.216D+00 0.930D+00
 Coeff:      0.212D-03-0.434D-03-0.800D-03-0.705D-03 0.363D-02 0.922D-02
 Coeff:     -0.397D-02-0.760D-01-0.772D-01 0.216D+00 0.930D+00
 Gap=     0.259 Goal=   None    Shift=    0.000
 RMSDP=5.01D-07 MaxDP=1.29D-05 DE=-3.35D-08 OVMax= 9.22D-05

 Cycle  12  Pass 1  IDiag  1:
 RMSU=  1.83D-07    CP:  9.89D-01  1.37D+00  9.52D-01  8.81D-01  1.28D+00
                    CP:  1.52D+00  1.41D+00  1.34D+00  1.64D+00  1.52D+00
                    CP:  1.19D+00
 E= -1028.81221393391     Delta-E=       -0.000000007733 Rises=F Damp=F
 DIIS: error= 1.10D-06 at cycle  12 NSaved=  12.
 NSaved=12 IEnMin=12 EnMin= -1028.81221393391     IErMin=12 ErrMin= 1.10D-06
 ErrMax= 1.10D-06  0.00D+00 EMaxC= 1.00D-01 BMatC= 4.61D-10 BMatP= 1.58D-09
 IDIUse=1 WtCom= 1.00D+00 WtEn= 0.00D+00
 Coeff-Com:  0.108D-03-0.212D-03-0.474D-03-0.744D-03 0.835D-03 0.725D-02
 Coeff-Com:  0.906D-02-0.162D-01-0.101D+00-0.124D+00 0.375D+00 0.850D+00
 Coeff:      0.108D-03-0.212D-03-0.474D-03-0.744D-03 0.835D-03 0.725D-02
 Coeff:      0.906D-02-0.162D-01-0.101D+00-0.124D+00 0.375D+00 0.850D+00
 Gap=     0.259 Goal=   None    Shift=    0.000
 RMSDP=2.64D-07 MaxDP=5.95D-06 DE=-7.73D-09 OVMax= 4.22D-05

 Cycle  13  Pass 1  IDiag  1:
 RMSU=  7.72D-08    CP:  9.89D-01  1.37D+00  9.52D-01  8.81D-01  1.28D+00
                    CP:  1.52D+00  1.41D+00  1.36D+00  1.70D+00  1.66D+00
                    CP:  1.49D+00  1.12D+00
 E= -1028.81221393549     Delta-E=       -0.000000001583 Rises=F Damp=F
 DIIS: error= 4.54D-07 at cycle  13 NSaved=  13.
 NSaved=13 IEnMin=13 EnMin= -1028.81221393549     IErMin=13 ErrMin= 4.54D-07
 ErrMax= 4.54D-07  0.00D+00 EMaxC= 1.00D-01 BMatC= 3.44D-11 BMatP= 4.61D-10
 IDIUse=1 WtCom= 1.00D+00 WtEn= 0.00D+00
 Coeff-Com: -0.889D-05 0.203D-04 0.164D-04-0.670D-04-0.219D-03 0.234D-03
 Coeff-Com:  0.350D-02 0.739D-02-0.786D-02-0.651D-01-0.491D-01 0.200D+00
 Coeff-Com:  0.911D+00
 Coeff:     -0.889D-05 0.203D-04 0.164D-04-0.670D-04-0.219D-03 0.234D-03
 Coeff:      0.350D-02 0.739D-02-0.786D-02-0.651D-01-0.491D-01 0.200D+00
 Coeff:      0.911D+00
 Gap=     0.259 Goal=   None    Shift=    0.000
 RMSDP=6.63D-08 MaxDP=1.78D-06 DE=-1.58D-09 OVMax= 9.83D-06

 Cycle  14  Pass 1  IDiag  1:
 RMSU=  2.62D-08    CP:  9.89D-01  1.37D+00  9.52D-01  8.81D-01  1.28D+00
                    CP:  1.52D+00  1.41D+00  1.36D+00  1.72D+00  1.69D+00
                    CP:  1.56D+00  1.29D+00  1.15D+00
 E= -1028.81221393561     Delta-E=       -0.000000000117 Rises=F Damp=F
 DIIS: error= 1.04D-07 at cycle  14 NSaved=  14.
 NSaved=14 IEnMin=14 EnMin= -1028.81221393561     IErMin=14 ErrMin= 1.04D-07
 ErrMax= 1.04D-07  0.00D+00 EMaxC= 1.00D-01 BMatC= 4.34D-12 BMatP= 3.44D-11
 IDIUse=1 WtCom= 1.00D+00 WtEn= 0.00D+00
 Coeff-Com: -0.109D-04 0.221D-04 0.419D-04 0.327D-04-0.135D-03-0.536D-03
 Coeff-Com:  0.408D-03 0.327D-02 0.544D-02-0.110D-01-0.429D-01-0.744D-02
 Coeff-Com:  0.291D+00 0.762D+00
 Coeff:     -0.109D-04 0.221D-04 0.419D-04 0.327D-04-0.135D-03-0.536D-03
 Coeff:      0.408D-03 0.327D-02 0.544D-02-0.110D-01-0.429D-01-0.744D-02
 Coeff:      0.291D+00 0.762D+00
 Gap=     0.259 Goal=   None    Shift=    0.000
 RMSDP=1.59D-08 MaxDP=4.76D-07 DE=-1.17D-10 OVMax= 2.02D-06

 Cycle  15  Pass 1  IDiag  1:
 RMSU=  8.56D-09    CP:  9.89D-01  1.37D+00  9.52D-01  8.81D-01  1.28D+00
                    CP:  1.52D+00  1.41D+00  1.36D+00  1.72D+00  1.69D+00
                    CP:  1.57D+00  1.32D+00  1.26D+00  1.09D+00
 E= -1028.81221393561     Delta-E=       -0.000000000009 Rises=F Damp=F
 DIIS: error= 6.77D-08 at cycle  15 NSaved=  15.
 NSaved=15 IEnMin=15 EnMin= -1028.81221393561     IErMin=15 ErrMin= 6.77D-08
 ErrMax= 6.77D-08  0.00D+00 EMaxC= 1.00D-01 BMatC= 8.23D-13 BMatP= 4.34D-12
 IDIUse=1 WtCom= 1.00D+00 WtEn= 0.00D+00
 Coeff-Com: -0.286D-05 0.533D-05 0.154D-04 0.273D-04-0.121D-04-0.301D-03
 Coeff-Com: -0.533D-03-0.798D-04 0.406D-02 0.873D-02-0.838D-02-0.453D-01
 Coeff-Com: -0.522D-01 0.295D+00 0.798D+00
 Coeff:     -0.286D-05 0.533D-05 0.154D-04 0.273D-04-0.121D-04-0.301D-03
 Coeff:     -0.533D-03-0.798D-04 0.406D-02 0.873D-02-0.838D-02-0.453D-01
 Coeff:     -0.522D-01 0.295D+00 0.798D+00
 Gap=     0.259 Goal=   None    Shift=    0.000
 RMSDP=7.31D-09 MaxDP=2.86D-07 DE=-9.32D-12 OVMax= 8.67D-07

 Error on total polarization charges =  0.00846
 SCF Done:  E(RwB97XD) =  -1028.81221394     A.U. after   15 cycles
            NFock= 15  Conv=0.73D-08     -V/T= 2.0051
 KE= 1.023598506257D+03 PE=-4.601156010131D+03 EE= 1.454191640183D+03
 Leave Link  502 at Tue Oct 27 20:42:20 2020, MaxMem=  7784628224 cpu:             820.2 elap:              84.3
 (Enter /gpfs/loomis/apps/avx/software/Gaussian/16-C.01_AVX/g16/l601.exe)
 Copying SCF densities to generalized density rwf, IOpCl= 0 IROHF=0.

 **********************************************************************

            Population analysis using the SCF Density.

 **********************************************************************

 Alpha  occ. eigenvalues --  -89.09707 -19.26244 -14.47741 -10.40568 -10.37683
 Alpha  occ. eigenvalues --  -10.35495 -10.35363 -10.32738 -10.32497 -10.32195
 Alpha  occ. eigenvalues --  -10.31870 -10.31811 -10.31729 -10.31675 -10.30138
 Alpha  occ. eigenvalues --  -10.29791  -8.11580  -6.06448  -6.06096  -6.05624
 Alpha  occ. eigenvalues --   -1.15713  -1.09133  -0.96837  -0.95260  -0.91899
 Alpha  occ. eigenvalues --   -0.88841  -0.85069  -0.83992  -0.82304  -0.75918
 Alpha  occ. eigenvalues --   -0.71104  -0.70280  -0.68758  -0.68402  -0.63378
 Alpha  occ. eigenvalues --   -0.60613  -0.58944  -0.58252  -0.55538  -0.54280
 Alpha  occ. eigenvalues --   -0.54239  -0.53151  -0.52548  -0.51219  -0.49907
 Alpha  occ. eigenvalues --   -0.49750  -0.47526  -0.46114  -0.45504  -0.44802
 Alpha  occ. eigenvalues --   -0.43832  -0.42756  -0.42417  -0.40310  -0.36499
 Alpha  occ. eigenvalues --   -0.35994  -0.32566  -0.31134  -0.27678
 Alpha virt. eigenvalues --   -0.01796   0.04665   0.06860   0.06997   0.07618
 Alpha virt. eigenvalues --    0.10749   0.12840   0.14993   0.15898   0.17836
 Alpha virt. eigenvalues --    0.18739   0.20808   0.21626   0.22275   0.22408
 Alpha virt. eigenvalues --    0.23306   0.24217   0.24302   0.28498   0.30343
 Alpha virt. eigenvalues --    0.31941   0.32947   0.35255   0.36004   0.36783
 Alpha virt. eigenvalues --    0.37813   0.38615   0.40557   0.43472   0.44293
 Alpha virt. eigenvalues --    0.46988   0.47811   0.49622   0.51630   0.51672
 Alpha virt. eigenvalues --    0.52221   0.53345   0.54065   0.55021   0.55324
 Alpha virt. eigenvalues --    0.55933   0.55962   0.56476   0.57470   0.58145
 Alpha virt. eigenvalues --    0.58275   0.58475   0.59013   0.59621   0.59900
 Alpha virt. eigenvalues --    0.60448   0.60717   0.62024   0.62325   0.62819
 Alpha virt. eigenvalues --    0.64643   0.65353   0.66752   0.67636   0.68949
 Alpha virt. eigenvalues --    0.70015   0.70225   0.71782   0.72557   0.72636
 Alpha virt. eigenvalues --    0.72832   0.74384   0.75275   0.76269   0.76783
 Alpha virt. eigenvalues --    0.78845   0.79463   0.79698   0.81972   0.82449
 Alpha virt. eigenvalues --    0.82629   0.87627   0.89563   0.91217   0.92772
 Alpha virt. eigenvalues --    0.94407   0.95176   0.96012   0.96194   0.96672
 Alpha virt. eigenvalues --    0.98552   0.98599   0.99903   1.00136   1.01455
 Alpha virt. eigenvalues --    1.02545   1.04777   1.05594   1.07385   1.07768
 Alpha virt. eigenvalues --    1.07890   1.08267   1.09876   1.10206   1.11804
 Alpha virt. eigenvalues --    1.11842   1.12306   1.13302   1.14953   1.15324
 Alpha virt. eigenvalues --    1.15927   1.18704   1.20278   1.22565   1.24126
 Alpha virt. eigenvalues --    1.26027   1.27615   1.33031   1.33159   1.34804
 Alpha virt. eigenvalues --    1.35297   1.35591   1.38466   1.41385   1.46130
 Alpha virt. eigenvalues --    1.48542   1.48946   1.50757   1.54040   1.55118
 Alpha virt. eigenvalues --    1.56030   1.56197   1.57018   1.57857   1.58482
 Alpha virt. eigenvalues --    1.58927   1.59400   1.63852   1.65905   1.66620
 Alpha virt. eigenvalues --    1.68049   1.68985   1.69605   1.69938   1.70415
 Alpha virt. eigenvalues --    1.71600   1.72484   1.73077   1.73460   1.74394
 Alpha virt. eigenvalues --    1.76991   1.77915   1.80238   1.80549   1.81878
 Alpha virt. eigenvalues --    1.83110   1.83171   1.84634   1.84651   1.85189
 Alpha virt. eigenvalues --    1.87062   1.88125   1.88307   1.89630   1.91978
 Alpha virt. eigenvalues --    1.91985   1.92269   1.92983   1.94242   1.95158
 Alpha virt. eigenvalues --    1.98908   2.00088   2.01487   2.03313   2.03739
 Alpha virt. eigenvalues --    2.05362   2.07458   2.08556   2.10732   2.12355
 Alpha virt. eigenvalues --    2.13243   2.16862   2.19142   2.20528   2.23928
 Alpha virt. eigenvalues --    2.26458   2.29560   2.34298   2.38102   2.40346
 Alpha virt. eigenvalues --    2.40676   2.40779   2.43764   2.45828   2.46832
 Alpha virt. eigenvalues --    2.47880   2.50185   2.52570   2.52862   2.61509
 Alpha virt. eigenvalues --    2.61886   2.71085   2.73180   2.73989   2.79914
 Alpha virt. eigenvalues --    2.81239   2.83458   2.84826   2.89308   2.93010
 Alpha virt. eigenvalues --    2.97586   3.02628   3.08082   3.21231   3.36890
 Alpha virt. eigenvalues --    3.48005   3.55603   3.60715   3.92613
          Condensed to atoms (all electrons):
               1          2          3          4          5          6
     1  C    4.738322   0.470978   0.002760  -0.049881  -0.013473   0.525762
     2  C    0.470978   5.321689   0.344588  -0.048856  -0.061659  -0.012885
     3  C    0.002760   0.344588   4.746576   0.506111  -0.007793  -0.061989
     4  C   -0.049881  -0.048856   0.506111   4.778354   0.523921  -0.017477
     5  C   -0.013473  -0.061659  -0.007793   0.523921   4.727204   0.492375
     6  C    0.525762  -0.012885  -0.061989  -0.017477   0.492375   4.746113
     7  H    0.402830  -0.040445   0.008163  -0.000450   0.007988  -0.037761
     8  H   -0.000755   0.010952  -0.026697   0.392327  -0.042933   0.007512
     9  H    0.008457  -0.000484   0.008341  -0.039079   0.405056  -0.044185
    10  H   -0.041742   0.009552  -0.000626   0.008753  -0.043636   0.406001
    11  N    0.006301  -0.055433   0.443856  -0.039938   0.002977   0.000262
    12  S   -0.059374   0.341463  -0.109695   0.005698   0.000221   0.003257
    13  C   -0.000142   0.003379   0.009339  -0.000831   0.000009  -0.000000
    14  C   -0.000003   0.000032   0.000088   0.000005  -0.000000  -0.000000
    15  C    0.000001  -0.000294   0.000686   0.000097  -0.000000   0.000000
    16  C    0.000000  -0.000001   0.000004  -0.000000   0.000000   0.000000
    17  H   -0.000002   0.000031  -0.000000  -0.000000   0.000000  -0.000000
    18  C    0.000000   0.000006  -0.000031  -0.000000  -0.000000   0.000000
    19  C   -0.000000   0.000000   0.000001  -0.000000   0.000000   0.000000
    20  H   -0.000000  -0.000000  -0.000000   0.000000   0.000000  -0.000000
    21  H   -0.000000  -0.000000   0.000002  -0.000000   0.000000   0.000000
    22  H    0.000000  -0.000000  -0.000000  -0.000000   0.000000  -0.000000
    23  C    0.003722  -0.052393  -0.118407   0.001801   0.000172  -0.000143
    24  O    0.000002  -0.000057  -0.001876  -0.000101  -0.000001  -0.000000
    25  H   -0.000046   0.003979  -0.012187  -0.002128  -0.000005   0.000011
               7          8          9         10         11         12
     1  C    0.402830  -0.000755   0.008457  -0.041742   0.006301  -0.059374
     2  C   -0.040445   0.010952  -0.000484   0.009552  -0.055433   0.341463
     3  C    0.008163  -0.026697   0.008341  -0.000626   0.443856  -0.109695
     4  C   -0.000450   0.392327  -0.039079   0.008753  -0.039938   0.005698
     5  C    0.007988  -0.042933   0.405056  -0.043636   0.002977   0.000221
     6  C   -0.037761   0.007512  -0.044185   0.406001   0.000262   0.003257
     7  H    0.654735   0.000032  -0.000136  -0.012000  -0.000122  -0.005996
     8  H    0.000032   0.649187  -0.011616  -0.000131  -0.002408  -0.000184
     9  H   -0.000136  -0.011616   0.663203  -0.012129  -0.000119   0.000021
    10  H   -0.012000  -0.000131  -0.012129   0.662342   0.000000  -0.000127
    11  N   -0.000122  -0.002408  -0.000119   0.000000   6.473603  -0.067200
    12  S   -0.005996  -0.000184   0.000021  -0.000127  -0.067200  15.453785
    13  C    0.000006   0.000063  -0.000000  -0.000000  -0.021924  -0.059413
    14  C    0.000000   0.000001   0.000000  -0.000000   0.002974  -0.004041
    15  C   -0.000000  -0.000027   0.000000   0.000000  -0.010857   0.003213
    16  C   -0.000000  -0.000000  -0.000000   0.000000  -0.000099  -0.000089
    17  H    0.000000   0.000000  -0.000000  -0.000000   0.000208   0.004986
    18  C   -0.000000  -0.000000  -0.000000  -0.000000  -0.000497  -0.000079
    19  C    0.000000   0.000000  -0.000000  -0.000000   0.000062   0.000017
    20  H   -0.000000  -0.000000   0.000000   0.000000   0.000001  -0.000001
    21  H   -0.000000   0.000000  -0.000000   0.000000   0.000028   0.000003
    22  H    0.000000  -0.000000  -0.000000  -0.000000  -0.000000  -0.000000
    23  C    0.000053  -0.000824   0.000007   0.000003   0.533167   0.321476
    24  O   -0.000000  -0.000306   0.000000  -0.000000  -0.087514  -0.000342
    25  H    0.000002   0.001570  -0.000008   0.000000   0.150064   0.002667
              13         14         15         16         17         18
     1  C   -0.000142  -0.000003   0.000001   0.000000  -0.000002   0.000000
     2  C    0.003379   0.000032  -0.000294  -0.000001   0.000031   0.000006
     3  C    0.009339   0.000088   0.000686   0.000004  -0.000000  -0.000031
     4  C   -0.000831   0.000005   0.000097  -0.000000  -0.000000  -0.000000
     5  C    0.000009  -0.000000  -0.000000   0.000000   0.000000  -0.000000
     6  C   -0.000000  -0.000000   0.000000   0.000000  -0.000000   0.000000
     7  H    0.000006   0.000000  -0.000000  -0.000000   0.000000  -0.000000
     8  H    0.000063   0.000001  -0.000027  -0.000000   0.000000  -0.000000
     9  H   -0.000000   0.000000   0.000000  -0.000000  -0.000000  -0.000000
    10  H   -0.000000  -0.000000   0.000000   0.000000  -0.000000  -0.000000
    11  N   -0.021924   0.002974  -0.010857  -0.000099   0.000208  -0.000497
    12  S   -0.059413  -0.004041   0.003213  -0.000089   0.004986  -0.000079
    13  C    5.330957   0.475887   0.275730  -0.008289  -0.039728  -0.044088
    14  C    0.475887   4.798783   0.002202   0.527570   0.402441  -0.054089
    15  C    0.275730   0.002202   4.768544  -0.061828   0.007564   0.507490
    16  C   -0.008289   0.527570  -0.061828   4.765318  -0.036089  -0.019762
    17  H   -0.039728   0.402441   0.007564  -0.036089   0.675916  -0.000764
    18  C   -0.044088  -0.054089   0.507490  -0.019762  -0.000764   4.806781
    19  C   -0.047950  -0.016943  -0.011462   0.487458   0.008387   0.512564
    20  H    0.008769  -0.036125  -0.000273   0.401200  -0.012709   0.008356
    21  H    0.012651  -0.000530  -0.022881   0.007298   0.000043   0.378060
    22  H   -0.001093   0.008881   0.008997  -0.044360  -0.000152  -0.040982
    23  C    0.325713  -0.091772  -0.079055   0.007297  -0.018828   0.006875
    24  O   -0.079778   0.004201   0.530922   0.000009  -0.000059  -0.060742
    25  H   -0.024065  -0.000534  -0.028573  -0.000032  -0.000001   0.004656
              19         20         21         22         23         24
     1  C   -0.000000  -0.000000  -0.000000   0.000000   0.003722   0.000002
     2  C    0.000000  -0.000000  -0.000000  -0.000000  -0.052393  -0.000057
     3  C    0.000001  -0.000000   0.000002  -0.000000  -0.118407  -0.001876
     4  C   -0.000000   0.000000  -0.000000  -0.000000   0.001801  -0.000101
     5  C    0.000000   0.000000   0.000000   0.000000   0.000172  -0.000001
     6  C    0.000000  -0.000000   0.000000  -0.000000  -0.000143  -0.000000
     7  H    0.000000  -0.000000  -0.000000   0.000000   0.000053  -0.000000
     8  H    0.000000  -0.000000   0.000000  -0.000000  -0.000824  -0.000306
     9  H   -0.000000   0.000000  -0.000000  -0.000000   0.000007   0.000000
    10  H   -0.000000   0.000000   0.000000  -0.000000   0.000003  -0.000000
    11  N    0.000062   0.000001   0.000028  -0.000000   0.533167  -0.087514
    12  S    0.000017  -0.000001   0.000003  -0.000000   0.321476  -0.000342
    13  C   -0.047950   0.008769   0.012651  -0.001093   0.325713  -0.079778
    14  C   -0.016943  -0.036125  -0.000530   0.008881  -0.091772   0.004201
    15  C   -0.011462  -0.000273  -0.022881   0.008997  -0.079055   0.530922
    16  C    0.487458   0.401200   0.007298  -0.044360   0.007297   0.000009
    17  H    0.008387  -0.012709   0.000043  -0.000152  -0.018828  -0.000059
    18  C    0.512564   0.008356   0.378060  -0.040982   0.006875  -0.060742
    19  C    4.725400  -0.047057  -0.045202   0.405811   0.000345   0.003419
    20  H   -0.047057   0.680173  -0.000170  -0.011946  -0.000320   0.000002
    21  H   -0.045202  -0.000170   0.663491  -0.011826  -0.000402   0.003926
    22  H    0.405811  -0.011946  -0.011826   0.665225   0.000006  -0.000074
    23  C    0.000345  -0.000320  -0.000402   0.000006   5.087818  -0.003305
    24  O    0.003419   0.000002   0.003926  -0.000074  -0.003305   7.660722
    25  H   -0.000259  -0.000001   0.000022   0.000011  -0.001759   0.295949
              25
     1  C   -0.000046
     2  C    0.003979
     3  C   -0.012187
     4  C   -0.002128
     5  C   -0.000005
     6  C    0.000011
     7  H    0.000002
     8  H    0.001570
     9  H   -0.000008
    10  H    0.000000
    11  N    0.150064
    12  S    0.002667
    13  C   -0.024065
    14  C   -0.000534
    15  C   -0.028573
    16  C   -0.000032
    17  H   -0.000001
    18  C    0.004656
    19  C   -0.000259
    20  H   -0.000001
    21  H    0.000022
    22  H    0.000011
    23  C   -0.001759
    24  O    0.295949
    25  H    0.413309
 Mulliken charges:
               1
     1  C    0.006282
     2  C   -0.234142
     3  C    0.268785
     4  C   -0.018326
     5  C    0.009579
     6  C   -0.006851
     7  H    0.023101
     8  H    0.024238
     9  H    0.022669
    10  H    0.023740
    11  N   -0.327391
    12  S    0.169735
    13  C   -0.115200
    14  C   -0.019028
    15  C    0.109802
    16  C   -0.025605
    17  H    0.008755
    18  C   -0.003754
    19  C    0.025408
    20  H    0.010100
    21  H    0.015488
    22  H    0.021503
    23  C    0.078752
    24  O   -0.264994
    25  H    0.197356
 Sum of Mulliken charges =  -0.00000
 Mulliken charges with hydrogens summed into heavy atoms:
               1
     1  C    0.029383
     2  C   -0.234142
     3  C    0.268785
     4  C    0.005913
     5  C    0.032247
     6  C    0.016889
    11  N   -0.327391
    12  S    0.169735
    13  C   -0.115200
    14  C   -0.010274
    15  C    0.109802
    16  C   -0.015505
    18  C    0.011734
    19  C    0.046911
    23  C    0.078752
    24  O   -0.067638
 Electronic spatial extent (au):  <R**2>=           4365.4975
 Charge=             -0.0000 electrons
 Dipole moment (field-independent basis, Debye):
    X=              0.2458    Y=             -2.8305    Z=             -0.0000  Tot=              2.8412
 Quadrupole moment (field-independent basis, Debye-Ang):
   XX=            -83.3275   YY=            -90.1059   ZZ=           -104.4762
   XY=             -6.8860   XZ=             -0.0001   YZ=              0.0002
 Traceless Quadrupole moment (field-independent basis, Debye-Ang):
   XX=              9.3091   YY=              2.5306   ZZ=            -11.8397
   XY=             -6.8860   XZ=             -0.0001   YZ=              0.0002
 Octapole moment (field-independent basis, Debye-Ang**2):
  XXX=             18.2769  YYY=            -24.5874  ZZZ=             -0.0001  XYY=             -4.0194
  XXY=             -1.3283  XXZ=             -0.0000  XZZ=              1.2821  YZZ=              2.0697
  YYZ=              0.0008  XYZ=             -0.0007
 Hexadecapole moment (field-independent basis, Debye-Ang**3):
 XXXX=          -2614.3116 YYYY=          -2632.0709 ZZZZ=           -113.7602 XXXY=            808.2393
 XXXZ=              0.0097 YYYX=            763.0074 YYYZ=             -0.0105 ZZZX=              0.0128
 ZZZY=             -0.0189 XXYY=           -853.4453 XXZZ=           -574.0329 YYZZ=           -554.6795
 XXYZ=             -0.0026 YYXZ=             -0.0005 ZZXY=            357.0868
 N-N= 1.094553649755D+03 E-N=-4.601156015452D+03  KE= 1.023598506257D+03
 No NMR shielding tensors so no spin-rotation constants.
 Leave Link  601 at Tue Oct 27 20:42:21 2020, MaxMem=  7784628224 cpu:               2.9 elap:               0.5
 (Enter /gpfs/loomis/apps/avx/software/Gaussian/16-C.01_AVX/g16/l701.exe)
 ... and contract with generalized density number  0.
 Compute integral first derivatives.
 R6Disp: Adding Grimme-D2 dispersion energy 1st derivatives to the gradient.
 D1PCM: PCM CHGder 1st derivatives, ID1Alg=3 FixD1E=F DoIter=F DoCFld=F I1PDM=0.
 GePol: Maximum number of non-zero 1st derivatives   =     273
 Leave Link  701 at Tue Oct 27 20:42:24 2020, MaxMem=  7784628224 cpu:              21.8 elap:               3.1
 (Enter /gpfs/loomis/apps/avx/software/Gaussian/16-C.01_AVX/g16/l702.exe)
 L702 exits ... SP integral derivatives will be done elsewhere.
 Leave Link  702 at Tue Oct 27 20:42:24 2020, MaxMem=  7784628224 cpu:               0.2 elap:               0.1
 (Enter /gpfs/loomis/apps/avx/software/Gaussian/16-C.01_AVX/g16/l703.exe)
 Integral derivatives from FoFJK, PRISM(SPDF).
 Compute integral first derivatives, UseDBF=F ICtDFT=           0.
 Calling FoFJK, ICntrl=      2127 FMM=F ISym2X=0 I1Cent= 0 IOpClX= 0 NMat=1 NMatS=1 NMatT=0.
 FoFJK:  IHMeth= 1 ICntrl=    2127 DoSepK=T KAlg= 0 I1Cent=           0 FoldK=F
 IRaf=         1 NMat=       1 IRICut=       1 DoRegI=T DoRafI=F ISym2E= 0 IDoP0=0 IntGTp=1.
 FoFCou: FMM=F IPFlag=           0 FMFlag=      100000 FMFlg1=         800
         NFxFlg=           0 DoJE=F BraDBF=F KetDBF=F FulRan=T
         wScrn=  0.000000 ICntrl=      2527 IOpCl=  0 I1Cent=           0 NGrid=           0
         NMat0=    1 NMatS0=      1 NMatT0=    0 NMatD0=    1 NMtDS0=    0 NMtDT0=    0
 Symmetry not used in FoFCou.
 Leave Link  703 at Tue Oct 27 20:42:41 2020, MaxMem=  7784628224 cpu:             133.5 elap:              16.7
 (Enter /gpfs/loomis/apps/avx/software/Gaussian/16-C.01_AVX/g16/l716.exe)
 Dipole        = 9.66936381D-02-1.11362322D+00-5.52158131D-06
 -------------------------------------------------------------------
 Center     Atomic                   Forces (Hartrees/Bohr)
 Number     Number              X              Y              Z
 -------------------------------------------------------------------
      1        6           0.004289126   -0.002518182    0.000000042
      2        6           0.006032525    0.011265202   -0.000000034
      3        6           0.019115770   -0.031325820   -0.000000068
      4        6          -0.010388815   -0.000285951   -0.000000064
      5        6          -0.000823559   -0.005363410   -0.000000035
      6        6          -0.006313554    0.002130612    0.000000040
      7        1           0.000896587    0.001899245   -0.000000043
      8        1          -0.000831206   -0.002109601   -0.000000011
      9        1          -0.001540919   -0.000246728   -0.000000003
     10        1          -0.001150782    0.000996397    0.000000011
     11        7          -0.052338170    0.006255420    0.000000222
     12       16           0.006880269    0.015177392    0.000000015
     13        6          -0.009912051    0.045448298    0.000000717
     14        6          -0.001404273    0.011016001    0.000001137
     15        6          -0.015521245   -0.026312606   -0.000000603
     16        6           0.000000357   -0.009165041   -0.000000304
     17        1          -0.000446213    0.000776656    0.000000121
     18        6          -0.008803698   -0.003310660   -0.000000093
     19        6           0.011068833   -0.014023975   -0.000000654
     20        1           0.001371088   -0.000334091   -0.000000049
     21        1          -0.001194997   -0.001557763    0.000000027
     22        1           0.000278088   -0.000581928   -0.000000107
     23        6           0.045580381   -0.009102801   -0.000000603
     24        8           0.019086875   -0.007126256    0.000000151
     25        1          -0.003930416    0.018399590    0.000000189
 -------------------------------------------------------------------
 Cartesian Forces:  Max     0.052338170 RMS     0.012348084
 Leave Link  716 at Tue Oct 27 20:42:41 2020, MaxMem=  7784628224 cpu:               0.7 elap:               0.2
 (Enter /gpfs/loomis/apps/avx/software/Gaussian/16-C.01_AVX/g16/l103.exe)

 GradGradGradGradGradGradGradGradGradGradGradGradGradGradGradGradGradGrad
 Berny optimization.
 FormGI is forming the generalized inverse of G from B-inverse, IUseBI=4.
 GSVD:  received Info=                   1 from GESDD.
 Internal  Forces:  Max     0.040467150 RMS     0.006324841
 Search for a local minimum.
 Step number   1 out of a maximum of  143
 All quantities printed in internal units (Hartrees-Bohrs-Radians)
 RMS Force = .63729D-02 SwitMx=.10000D-02 MixMth= 1
 Mixed Optimization -- RFO/linear search
 Second derivative matrix not updated -- first step.
 ITU=  0
     Eigenvalues ---    0.01281   0.01297   0.01501   0.01602   0.01719
     Eigenvalues ---    0.01742   0.01757   0.01964   0.01970   0.01975
     Eigenvalues ---    0.01996   0.02010   0.02020   0.02049   0.02057
     Eigenvalues ---    0.02095   0.02100   0.02103   0.02113   0.02148
     Eigenvalues ---    0.02181   0.03060   0.16000   0.16000   0.16000
     Eigenvalues ---    0.16000   0.16000   0.16000   0.16000   0.16003
     Eigenvalues ---    0.16067   0.22000   0.22031   0.22520   0.22587
     Eigenvalues ---    0.24465   0.24559   0.25000   0.25000   0.25000
     Eigenvalues ---    0.26413   0.28237   0.31097   0.33429   0.34374
     Eigenvalues ---    0.34387   0.34400   0.34444   0.34458   0.34469
     Eigenvalues ---    0.34491   0.34615   0.37587   0.39422   0.40902
     Eigenvalues ---    0.41352   0.41764   0.42940   0.43645   0.44217
     Eigenvalues ---    0.44561   0.45387   0.46354   0.47683   0.50705
     Eigenvalues ---    0.54943   0.680341000.000001000.000001000.00000
     Eigenvalues --- 1000.000001000.000001000.000001000.000001000.00000
     Eigenvalues --- 1000.000001000.000001000.000001000.000001000.00000
     Eigenvalues --- 1000.000001000.000001000.000001000.000001000.00000
     Eigenvalues --- 1000.000001000.000001000.000001000.000001000.00000
     Eigenvalues --- 1000.000001000.000001000.000001000.000001000.00000
     Eigenvalues --- 1000.000001000.000001000.000001000.000001000.00000
     Eigenvalues --- 1000.000001000.000001000.000001000.000001000.00000
     Eigenvalues --- 1000.000001000.000001000.000001000.000001000.00000
     Eigenvalues --- 1000.000001000.000001000.000001000.000001000.00000
     Eigenvalues --- 1000.000001000.000001000.000001000.000001000.00000
     Eigenvalues --- 1000.000001000.000001000.000001000.000001000.00000
     Eigenvalues --- 1000.000001000.000001000.000001000.000001000.00000
     Eigenvalues --- 1000.000001000.000001000.00000
 RFO step:  Lambda=-1.26553013D-02 EMin= 1.28149942D-02
 Linear search not attempted -- first point.
 Iteration  1 RMS(Cart)=  0.02543884 RMS(Int)=  0.00034344
 Iteration  2 RMS(Cart)=  0.00053173 RMS(Int)=  0.00007333
 Iteration  3 RMS(Cart)=  0.00000048 RMS(Int)=  0.00007316
 Iteration  1 RMS(Cart)=  0.00000039 RMS(Int)=  0.00000010
 ITry= 1 IFail=0 DXMaxC= 1.36D-01 DCOld= 1.00D+10 DXMaxT= 3.00D-01 DXLimC= 3.00D+00 Rises=F
 Variable       Old X    -DE/DX   Delta X   Delta X   Delta X     New X
                                 (Linear)    (Quad)   (Total)
    R1        2.64048  -0.00046   0.00000  -0.00085  -0.00087   2.63961
    R2        2.64784  -0.00766   0.00000  -0.01584  -0.01588   2.63196
    R3        2.06682  -0.00219   0.00000  -0.00613  -0.00613   2.06069
    R4        2.69244  -0.01802   0.00000  -0.03980  -0.03975   2.65270
    R5        3.34362  -0.00256   0.00000  -0.00613  -0.00612   3.33750
    R6        2.67383  -0.01222   0.00000  -0.02802  -0.02799   2.64583
    R7        2.52896   0.02295   0.00000   0.03911   0.03918   2.56814
    R8        2.61453  -0.00066   0.00000  -0.00145  -0.00143   2.61310
    R9        2.06661  -0.00218   0.00000  -0.00612  -0.00612   2.06049
   R10        2.66417  -0.00506   0.00000  -0.01071  -0.01074   2.65343
   R11        2.06587  -0.00151   0.00000  -0.00422  -0.00423   2.06164
   R12        2.06509  -0.00149   0.00000  -0.00418  -0.00418   2.06091
   R13        2.56421  -0.04047   0.00000  -0.07562  -0.07564   2.48857
   R14        3.38429  -0.00854   0.00000  -0.03319  -0.03337   3.35092
   R15        2.66884  -0.00296   0.00000  -0.00647  -0.00640   2.66244
   R16        2.81996  -0.02571   0.00000  -0.07396  -0.07410   2.74586
   R17        2.69307   0.01409   0.00000   0.03304   0.03292   2.72599
   R18        2.65182  -0.01747   0.00000  -0.03780  -0.03771   2.61411
   R19        2.06704  -0.00058   0.00000  -0.00162  -0.00162   2.06541
   R20        2.66865  -0.00387   0.00000  -0.00859  -0.00863   2.66002
   R21        2.45014   0.01619   0.00000   0.02336   0.02332   2.47346
   R22        2.66891  -0.00930   0.00000  -0.02085  -0.02089   2.64802
   R23        2.06546  -0.00132   0.00000  -0.00371  -0.00371   2.06176
   R24        2.62765  -0.00753   0.00000  -0.01567  -0.01573   2.61192
   R25        2.06564  -0.00186   0.00000  -0.00520  -0.00520   2.06044
   R26        2.06304  -0.00055   0.00000  -0.00153  -0.00153   2.06152
   R27        2.07683  -0.01400   0.00000  -0.04030  -0.04015   2.03668
    A1        2.06962  -0.00208   0.00000  -0.00654  -0.00651   2.06310
    A2        2.11360   0.00116   0.00000   0.00399   0.00397   2.11757
    A3        2.09997   0.00092   0.00000   0.00255   0.00254   2.10251
    A4        2.09648   0.00217   0.00000   0.00514   0.00516   2.10164
    A5        2.27523   0.00387   0.00000   0.01133   0.01119   2.28643
    A6        1.91147  -0.00603   0.00000  -0.01647  -0.01636   1.89512
    A7        2.10516   0.00235   0.00000   0.00633   0.00630   2.11146
    A8        2.00362  -0.00312   0.00000  -0.00679  -0.00679   1.99683
    A9        2.17441   0.00077   0.00000   0.00046   0.00048   2.17489
   A10        2.06937  -0.00032   0.00000  -0.00112  -0.00112   2.06826
   A11        2.08139   0.00016   0.00000   0.00054   0.00054   2.08193
   A12        2.13242   0.00016   0.00000   0.00058   0.00058   2.13299
   A13        2.10864  -0.00133   0.00000  -0.00371  -0.00372   2.10493
   A14        2.08950   0.00061   0.00000   0.00149   0.00149   2.09099
   A15        2.08504   0.00073   0.00000   0.00222   0.00222   2.08727
   A16        2.11710  -0.00078   0.00000  -0.00009  -0.00012   2.11698
   A17        2.08001   0.00022   0.00000  -0.00093  -0.00092   2.07909
   A18        2.08608   0.00056   0.00000   0.00102   0.00104   2.08712
   A19        2.00092   0.00464   0.00000   0.01396   0.01393   2.01485
   A20        1.55881   0.00427   0.00000   0.01500   0.01497   1.57378
   A21        2.02508   0.00952   0.00000   0.03622   0.03650   2.06158
   A22        2.21450  -0.00567   0.00000  -0.02184  -0.02179   2.19271
   A23        2.04360  -0.00385   0.00000  -0.01438  -0.01472   2.02889
   A24        2.11717   0.00162   0.00000   0.00682   0.00699   2.12416
   A25        2.08161   0.00014   0.00000   0.00212   0.00203   2.08364
   A26        2.08440  -0.00176   0.00000  -0.00894  -0.00902   2.07538
   A27        2.10656  -0.00985   0.00000  -0.03687  -0.03693   2.06963
   A28        2.11449   0.01021   0.00000   0.03933   0.03910   2.15359
   A29        2.06214  -0.00037   0.00000  -0.00246  -0.00217   2.05997
   A30        2.13107  -0.00889   0.00000  -0.03868  -0.03866   2.09241
   A31        2.07115   0.00421   0.00000   0.01798   0.01797   2.08912
   A32        2.08096   0.00468   0.00000   0.02069   0.02069   2.10165
   A33        2.10862   0.00190   0.00000   0.00840   0.00816   2.11678
   A34        2.03774  -0.00071   0.00000  -0.00284  -0.00272   2.03502
   A35        2.13683  -0.00119   0.00000  -0.00556  -0.00545   2.13139
   A36        2.07787   0.00570   0.00000   0.02411   0.02393   2.10180
   A37        2.09995  -0.00280   0.00000  -0.01171  -0.01163   2.08832
   A38        2.10537  -0.00291   0.00000  -0.01240  -0.01231   2.09306
   A39        1.94995   0.00025   0.00000  -0.00570  -0.00575   1.94420
   A40        2.06146  -0.00320   0.00000  -0.00912  -0.00914   2.05232
   A41        2.27178   0.00295   0.00000   0.01482   0.01489   2.28667
   A42        1.83496   0.00704   0.00000   0.04096   0.04091   1.87587
    D1        0.00000   0.00000   0.00000   0.00000   0.00000   0.00000
    D2       -3.14159   0.00000   0.00000   0.00000   0.00000  -3.14159
    D3        3.14159   0.00000   0.00000   0.00000   0.00000  -3.14159
    D4       -0.00000   0.00000   0.00000   0.00000   0.00000   0.00000
    D5        0.00000   0.00000   0.00000   0.00000   0.00000   0.00000
    D6        3.14159   0.00000   0.00000   0.00000   0.00000   3.14159
    D7       -3.14159  -0.00000   0.00000   0.00000   0.00000  -3.14159
    D8        0.00000  -0.00000   0.00000  -0.00000  -0.00000   0.00000
    D9       -0.00000  -0.00000   0.00000  -0.00000  -0.00000  -0.00000
   D10        3.14159  -0.00000   0.00000  -0.00000  -0.00000   3.14159
   D11        3.14159  -0.00000   0.00000  -0.00000  -0.00000   3.14159
   D12       -0.00000  -0.00000   0.00000  -0.00000  -0.00000  -0.00001
   D13        3.14159   0.00000   0.00000   0.00000   0.00000  -3.14159
   D14        0.00000   0.00000   0.00000   0.00001   0.00001   0.00001
   D15        0.00000   0.00000   0.00000   0.00000   0.00000   0.00000
   D16       -3.14159  -0.00000   0.00000  -0.00000  -0.00000  -3.14159
   D17       -3.14159   0.00000   0.00000   0.00000   0.00000  -3.14159
   D18        0.00000   0.00000   0.00000   0.00000   0.00000   0.00000
   D19        0.00000  -0.00000   0.00000  -0.00000  -0.00000   0.00000
   D20       -3.14159  -0.00000   0.00000  -0.00000  -0.00000  -3.14159
   D21       -0.00000  -0.00000   0.00000  -0.00000  -0.00000  -0.00000
   D22        3.14159  -0.00000   0.00000  -0.00000  -0.00000   3.14159
   D23       -3.14159   0.00000   0.00000   0.00000   0.00000  -3.14159
   D24        0.00000   0.00000   0.00000   0.00000   0.00000   0.00000
   D25       -0.00000  -0.00000   0.00000  -0.00000  -0.00000  -0.00000
   D26        3.14159  -0.00000   0.00000  -0.00000  -0.00000   3.14159
   D27        3.14159  -0.00000   0.00000  -0.00000  -0.00000   3.14159
   D28       -0.00000   0.00000   0.00000   0.00000   0.00000   0.00000
   D29       -0.00000   0.00000   0.00000   0.00001   0.00001   0.00000
   D30        3.14159   0.00000   0.00000   0.00000   0.00000   3.14159
   D31        0.00000  -0.00000   0.00000  -0.00001  -0.00001  -0.00000
   D32       -3.14159  -0.00000   0.00000  -0.00000  -0.00000  -3.14159
   D33       -0.00001   0.00000   0.00000   0.00000   0.00000  -0.00001
   D34        3.14158  -0.00000   0.00000   0.00000   0.00000   3.14158
   D35        3.14158   0.00000   0.00000   0.00000   0.00000   3.14158
   D36       -0.00001  -0.00000   0.00000  -0.00000  -0.00000  -0.00001
   D37        0.00002  -0.00000   0.00000   0.00000   0.00000   0.00002
   D38       -3.14158   0.00000   0.00000   0.00000   0.00000  -3.14158
   D39       -3.14157   0.00000   0.00000   0.00000   0.00000  -3.14157
   D40        0.00002   0.00000   0.00000   0.00000   0.00000   0.00002
   D41        3.14158   0.00000   0.00000   0.00001   0.00001   3.14158
   D42       -0.00002   0.00000   0.00000   0.00000   0.00000  -0.00002
   D43       -0.00002   0.00000   0.00000   0.00001   0.00001  -0.00001
   D44        3.14157   0.00000   0.00000   0.00000   0.00000   3.14157
   D45        0.00000  -0.00000   0.00000  -0.00000  -0.00000  -0.00000
   D46       -3.14159  -0.00000   0.00000  -0.00000  -0.00000  -3.14159
   D47        3.14159  -0.00000   0.00000  -0.00000  -0.00000   3.14159
   D48        0.00000  -0.00000   0.00000  -0.00000  -0.00000  -0.00000
   D49       -0.00001  -0.00000   0.00000  -0.00000  -0.00000  -0.00001
   D50        3.14159  -0.00000   0.00000  -0.00000  -0.00000   3.14159
   D51        3.14159  -0.00000   0.00000  -0.00001  -0.00001   3.14158
[...]
 001,-0.00017821,0.00072223,0.,-0.03963672,0.02052505,0.00000091,-0.213
 60214,0.14915486,0.00000526,0.00409252,0.01225674,-0.00000004,0.762393
 91,-0.00087505,0.00127199,0.00000003,0.00190604,-0.00103773,0.,0.00007
 736,0.00115022,-0.00000009,-0.00089099,-0.00005142,0.,-0.00006885,-0.0
 0136838,-0.00000002,0.00157038,0.00005138,0.,-0.00005438,-0.00007964,0
 .,0.00003449,0.00004873,0.,0.00012249,-0.00004996,0.,0.00007521,-0.000
 03247,0.,0.00819136,0.00576212,-0.00000033,-0.00185328,-0.00163541,0.0
 0000006,0.07280508,0.02695982,-0.00000026,0.07723345,-0.27609093,-0.00
 000546,0.02332530,-0.07316381,-0.00000223,0.00243262,0.67316086,-0.000
 00001,0.00000002,0.00002434,0.00000003,-0.00000003,0.00025420,0.,0.000
 00005,-0.00073391,-0.00000001,0.,-0.00010673,0.,-0.00000002,0.00006312
 ,0.00000003,0.,-0.00001003,0.,0.,-0.00000267,0.,0.,-0.00000383,0.,0.,0
 .00001419,0.,0.,-0.00001649,0.00000030,0.00000012,0.00024076,-0.000000
 03,-0.00000005,-0.00051924,0.00000199,0.00000011,0.00778105,0.00000404
 ,-0.00000679,-0.06347882,0.00000052,-0.00000175,-0.00473569,-0.0000071
 3,0.00001446,0.12631908,0.00022254,0.00004941,0.,-0.00056957,0.0002482
 2,0.,0.00030932,-0.00008704,0.,0.00000462,0.00002781,0.,0.00004179,0.0
 0004675,0.,-0.00005211,-0.00007126,0.,-0.00001307,-0.00000732,0.,0.000
 03234,0.00000628,0.,0.00000962,-0.00000041,0.,0.00002594,-0.00000402,0
 .,0.00025376,0.00044273,-0.00000003,-0.00074868,0.00155381,0.00000006,
 -0.00673580,-0.02838947,-0.00000045,-0.10485625,-0.10442590,-0.0000014
 2,-0.00526382,0.00194117,0.00000014,0.01143871,0.01791734,0.00000029,0
 .10702126,-0.00000988,-0.00006426,0.,-0.00008809,0.00039131,0.,0.00018
 056,-0.00009160,0.,0.00001567,0.00003670,0.,0.00000336,0.00005385,0.,-
 0.00007529,0.00002274,0.,-0.00000301,0.00001323,0.,0.00001051,-0.00000
 468,0.,-0.00000791,0.00000289,0.,-0.00000886,0.00000323,0.,-0.00062380
 ,0.00015425,-0.00000002,-0.00022136,0.00001529,0.,0.00132196,0.0003770
 6,-0.00000003,-0.10239673,-0.29370513,-0.00000383,0.00051447,0.0019728
 9,-0.00000012,-0.01421755,-0.01696111,-0.00000023,0.11055823,0.3105404
 6,0.,0.,0.00000490,0.00000003,0.,-0.00041488,0.,-0.00000001,0.00016913
 ,0.,0.,0.00007409,0.,0.,-0.00001935,0.,0.,0.00001989,0.,0.,-0.00000854
 ,0.,0.,-0.00001243,0.,0.,-0.00000603,0.,0.,0.00001241,-0.00000004,0.,-
 0.00012159,0.00000002,-0.00000001,0.00082829,0.00000038,0.00000038,0.0
 0322985,-0.00000162,-0.00000349,-0.03770525,0.00000011,-0.00000025,0.0
 0612667,-0.00000025,-0.00000105,0.00481675,0.00000126,0.00000432,0.024
 97333,-0.00005027,0.00066081,0.00000003,0.00073969,-0.00009747,0.00000
 002,0.00190570,-0.00016483,-0.00000009,-0.00068483,-0.00007167,-0.0000
 0002,0.00001353,-0.00068282,-0.00000001,0.00063781,0.00002994,0.,-0.00
 005657,0.00000998,0.,0.00011487,0.00001713,0.,0.00004161,-0.00001697,0
 .,0.00004041,0.00000499,0.,0.00393383,0.00960273,-0.00000080,0.0002599
 5,-0.00002742,0.00000006,0.05758604,0.02202082,0.00000031,-0.05856083,
 0.02943344,0.00000135,-0.16497756,0.05042759,0.00000320,-0.01367659,-0
 .08591211,-0.00000175,-0.00070973,0.00062668,-0.00000017,0.75374304,0.
 00052131,-0.00043346,-0.00000001,-0.00124914,-0.00016650,0.,-0.0006357
 6,0.00005096,0.00000009,0.00058506,0.00001161,0.,0.00005607,0.00069474
 ,0.00000001,-0.00067122,-0.00014147,0.,0.00000602,0.00002731,0.,-0.000
 01744,-0.00000998,0.,-0.00003531,0.00002080,0.,0.00000137,0.00000215,0
 .,-0.00220465,-0.00255534,0.00000017,0.00150878,-0.00009596,0.,-0.0082
 3008,-0.03475173,-0.00000101,0.02361080,-0.01468823,-0.00000059,0.1105
 5234,-0.26286259,-0.00000709,-0.03537629,0.02525576,0.00000083,0.00033
 882,0.00049915,0.00000016,0.04999383,0.71337123,0.00000003,-0.00000004
 ,-0.00016580,-0.00000008,0.00000004,-0.00008979,-0.00000003,-0.0000000
 9,-0.00068726,0.00000002,0.,0.00003733,0.,0.00000004,0.00000946,-0.000
 00005,0.,0.00002721,0.,0.,-0.00003178,-0.00000001,0.,-0.00002048,0.,0.
 ,-0.00001195,0.,0.,0.00003912,-0.00000009,-0.00000011,0.00156821,0.000
 00001,-0.00000009,-0.00027991,-0.00000079,-0.00000100,0.00779593,0.000
 00124,-0.00000075,-0.00314640,0.00000456,-0.00000671,-0.07128960,-0.00
 000050,0.00000148,0.00824283,0.,0.00000004,-0.00085307,-0.00001162,0.0
 0001373,0.12371746,0.00060540,-0.00092102,-0.00000003,-0.00161170,0.00
 049722,0.,-0.00080987,-0.00018552,0.00000009,0.00090275,0.00005078,0.,
 0.00002688,0.00113695,0.00000002,-0.00117604,-0.00010088,0.,0.00003962
 ,0.00005549,0.,-0.00004786,-0.00003982,0.,-0.00009008,0.00004135,0.,-0
 .00005091,0.00001980,0.,-0.00482519,-0.00463296,0.00000031,0.00129037,
 0.00063155,-0.00000003,-0.04524660,-0.01604182,0.00000002,0.06637004,-
 0.01459561,-0.00000112,-0.04989873,0.06543624,0.00000263,-0.16219117,-
 0.04011634,-0.00000019,-0.00184574,0.00429634,0.00000038,-0.38552626,-
 0.06646991,0.00000407,0.73434155,0.00028224,-0.00041811,-0.00000001,-0
 .00056323,0.00033799,0.,-0.00007920,-0.00069704,0.,0.00017451,0.000085
 76,0.,0.00002094,0.00037809,0.,-0.00049079,0.00000235,0.,0.00002263,0.
 00001491,0.,-0.00002444,-0.00001248,0.,-0.00003796,0.00001684,0.,-0.00
 002063,0.00000736,0.,-0.00482675,-0.00333161,0.00000030,0.00052834,0.0
 0047225,-0.00000004,-0.03882305,-0.01755598,-0.00000013,0.04258455,-0.
 06094332,-0.00000222,0.01260272,0.05701469,0.00000109,-0.11451335,-0.3
 0169173,-0.00000573,0.00339442,-0.00265222,-0.00000015,0.00495252,-0.1
 3702068,-0.00000153,-0.03217775,0.71769229,0.,0.,0.00000846,0.00000002
 ,0.,0.00002395,0.,0.,0.00024232,-0.00000001,0.,0.00000232,0.,-0.000000
 01,-0.00001724,0.00000001,0.,0.00000228,0.,0.,0.00000267,0.,0.,0.00000
 825,0.,0.,-0.00000062,0.,0.,-0.00000702,-0.00000007,-0.00000006,-0.000
 36135,0.,0.00000001,0.00000290,-0.00000034,-0.00000007,-0.00398469,0.0
 0000008,-0.00000141,0.00682103,0.00000131,0.00000025,-0.00044188,-0.00
 000200,-0.00000689,-0.06325583,0.00000020,-0.00000027,0.00751673,0.000
 00510,-0.00000068,-0.05843110,-0.00000972,0.00001687,0.14296382,0.0000
 2246,-0.00007143,0.,-0.00006868,0.00011897,0.,-0.00002186,-0.00006263,
 0.,0.00004433,0.00003187,0.,-0.00000953,0.00006386,0.,-0.00007795,0.00
 000829,0.,0.00000245,0.00000971,0.,0.00000235,-0.00000577,0.,-0.000011
 10,0.00000573,0.,-0.00000893,0.00000506,0.,-0.00042988,0.00031981,-0.0
 0000001,0.00001894,0.00006348,0.,0.00035184,0.00343370,0.00000015,-0.0
 1308007,-0.00599196,0.00000002,0.00054858,0.00007773,-0.00000002,-0.34
 366255,-0.03401288,0.00000288,0.00076752,0.00009507,-0.00000006,0.0012
 5264,-0.00233232,-0.00000001,-0.00754916,0.00285180,0.00000021,0.36196
 891,-0.00000449,0.00003042,0.,0.00003855,-0.00006424,0.,0.00008968,0.0
 0005013,0.00000001,-0.00001532,-0.00004045,0.,0.00001292,-0.00002032,0
 .,0.00003004,-0.00000501,0.,-0.00000045,-0.00000431,0.,0.00000116,0.00
 000259,0.,0.00000538,-0.00000450,0.,0.00000385,-0.00000165,0.,0.000441
 65,-0.00019925,0.,0.00001103,0.00003567,0.,0.00215804,-0.00383104,-0.0
 0000028,0.02635469,0.00629190,-0.00000019,0.00037604,-0.00154141,-0.00
 000003,-0.03464344,-0.06153325,-0.00000043,-0.00025358,0.00095609,0.00
 000014,-0.00124424,-0.00498554,-0.00000031,-0.02940064,0.00158412,0.00
 000038,0.03641551,0.06134029,0.,0.,-0.00000429,0.,0.,-0.00002198,0.,0.
 ,-0.00022265,0.,0.,-0.00001034,0.,0.,0.00001792,0.,0.,-0.00000433,0.,0
 .,0.00000010,0.,0.,-0.00000579,0.,0.,0.00000355,0.,0.,0.00000475,0.000
 00001,-0.00000003,-0.00014671,0.,0.,0.00003183,0.00000016,-0.00000019,
 0.00724004,0.00000074,0.00000027,0.00140336,-0.00000003,-0.00000009,-0
 .00076349,0.00000296,-0.00000043,-0.03252978,-0.00000007,0.00000010,-0
 .00463916,0.00000011,-0.00000033,0.00613717,-0.00000076,-0.00000006,0.
 00148606,-0.00000314,0.00000057,0.02463694,-0.00004536,-0.00000319,0.,
 0.00002933,0.00008399,0.,-0.00002719,0.00000799,0.,-0.00000967,0.00000
 448,0.,-0.00000823,-0.00002470,0.,0.00002265,0.00001251,0.,0.00000227,
 -0.00000274,0.,-0.00000740,0.00000120,0.,0.00000121,-0.00000011,0.,-0.
 00000298,-0.00000181,0.,0.00014269,-0.00026511,0.00000004,-0.00024399,
 0.00002079,0.,-0.00177825,0.00237038,0.00000020,-0.00114352,0.00064375
 ,0.00000002,0.00967733,0.01844727,0.00000036,-0.00518586,0.00056495,0.
 00000025,0.00008525,-0.00010169,-0.00000002,-0.10547925,-0.10924611,-0
 .00000107,-0.00620904,-0.02882959,-0.00000050,-0.00048708,-0.00137715,
 -0.00000005,0.10756884,0.00002615,0.00009402,0.,-0.00002680,-0.0001437
 3,0.,0.00009571,0.00008439,0.,-0.00004241,-0.00002058,0.,0.00001354,-0
 .00005084,0.,0.00006207,-0.00002152,0.,-0.00000671,-0.00000148,0.,0.00
 000834,0.00000400,0.,0.00000957,-0.00000412,0.,0.00001165,-0.00000202,
 0.,0.00011898,0.00059919,-0.00000003,0.00023776,-0.00021438,0.,0.00376
 079,-0.00252554,-0.00000025,0.00113866,0.00025280,0.00000002,-0.015208
 41,-0.01832637,-0.00000018,-0.00003547,0.00209995,-0.00000013,-0.00007
 072,-0.00005652,0.00000002,-0.10722898,-0.29846954,-0.00000413,0.00216
 932,0.00152131,-0.00000006,0.00010373,-0.00002596,0.,0.11704466,0.3132
 0121,0.,0.,0.00002326,0.,0.,-0.00001404,0.,0.,-0.00004411,0.,0.,0.0000
 0140,0.,0.,-0.00000264,0.,0.,0.00000035,0.,0.,0.00000178,0.,0.,0.00000
 351,0.,0.,0.00000268,0.,0.,-0.00000335,-0.00000002,0.00000003,0.000055
 15,0.00000002,-0.00000001,-0.00003292,0.00000012,-0.00000031,0.0052380
 8,0.00000028,-0.00000006,-0.00084936,-0.00000076,-0.00000051,0.0047999
 3,0.00000018,0.00000007,0.00767931,-0.00000001,0.00000002,-0.00077307,
 -0.00000058,-0.00000417,-0.03461258,-0.00000012,0.00000035,0.00241360,
 0.00000002,0.00000002,0.00049571,0.00000108,0.00000441,0.02454970,0.00
 002191,-0.00003648,0.,-0.00003811,0.00009740,0.,0.00009677,-0.00006435
 ,0.,0.00001622,0.00000995,0.,-0.00000135,0.00003786,0.,-0.00004747,0.0
 0000493,0.,0.00000033,0.00000569,0.,0.00000511,-0.00000309,0.,-0.00000
 717,0.00000310,0.,-0.00000466,0.00000345,0.,-0.00009707,0.00027330,-0.
 00000003,0.00000023,0.00017868,0.,-0.00093492,-0.00042819,-0.00000001,
 0.00037532,-0.00304421,0.,-0.00426069,-0.00249551,0.00000017,0.0105536
 4,-0.01114496,-0.00000042,0.00038862,-0.00060073,-0.00000001,-0.011900
 45,0.02686903,0.00000096,-0.15958852,0.13527777,0.00000545,0.00067213,
 0.00042995,-0.00000004,0.00105845,-0.00026060,-0.00000012,0.16496253,0
 .00001170,0.00002353,0.,-0.00004610,-0.00001574,0.,-0.00000781,0.00003
 559,0.,-0.00000347,-0.00000693,0.,0.00000662,-0.00000984,0.,0.00001555
 ,-0.00001095,0.,-0.00000248,-0.00000375,0.,0.00000031,0.00000307,0.,0.
 00000539,-0.00000161,0.,0.00000570,-0.00000299,0.,0.00012594,-0.000134
 01,0.00000001,-0.00004059,-0.00000413,0.,-0.00082135,0.00032993,0.0000
 0005,-0.00357476,-0.00419827,-0.00000026,-0.00207256,0.00125681,-0.000
 00017,0.02001647,-0.01548849,-0.00000082,0.00092869,-0.00108417,-0.000
 00003,-0.00490786,0.00585339,0.00000009,0.13592995,-0.24373031,-0.0000
 0771,-0.00015102,0.00101496,0.00000014,0.00018838,0.00069908,0.0000001
 4,-0.14590391,0.25499821,0.,0.,-0.00000629,0.,0.,-0.00003341,0.,0.0000
 0001,0.00013310,0.,0.,0.00000229,0.,0.,-0.00000497,0.,0.,-0.00000298,0
 .,0.,0.00000407,0.,0.,0.00000224,0.,0.,0.00000040,0.,0.,0.00000327,0.,
 -0.00000004,-0.00023721,0.,0.,0.00014363,-0.00000006,0.00000008,-0.001
 02126,-0.00000011,-0.00000027,0.00647881,0.00000019,-0.00000009,0.0090
 5166,0.00000052,-0.00000047,0.00447318,0.00000003,-0.00000004,-0.00016
 421,0.00000027,-0.00000036,0.00498063,0.00000541,-0.00000764,-0.040949
 35,-0.00000006,0.00000013,-0.00358436,-0.00000012,0.00000013,-0.004775
 84,-0.00000604,0.00000854,0.02690183,-0.00328144,-0.00648926,-0.000000
 16,-0.00320965,0.01713656,0.00000019,-0.08936592,0.04044224,-0.0000010
 8,0.01591958,-0.00243017,0.00000007,-0.00396281,0.00917254,0.00000019,
 -0.00426507,-0.00548033,-0.00000018,0.00044440,-0.00095209,-0.00000003
 ,-0.00040648,-0.00017438,0.,0.00023436,0.00008626,0.00000001,-0.000732
 36,-0.00014105,0.,-0.43948403,-0.06518895,-0.00000809,-0.04919712,-0.0
 2207709,-0.00000020,-0.14107516,0.06342119,0.00000122,-0.03827036,0.03
 210254,0.00000046,0.03750582,0.01095802,-0.00000081,-0.00142927,-0.016
 43020,-0.00000045,0.00086466,0.00102206,0.00000005,-0.00617549,0.00043
 669,0.,0.00691750,0.00556428,0.00000004,-0.00020489,0.00084165,0.00000
 006,0.00025549,-0.00127953,-0.00000003,0.00029420,-0.00001159,0.000000
 03,0.74422443,0.00237582,-0.00308467,0.00000008,0.02782826,-0.02314388
 ,0.00000007,0.01227196,0.00800388,0.00000033,0.00904004,-0.00814082,-0
 .00000002,-0.00199568,0.00647222,0.00000010,-0.00383853,-0.00483317,-0
 .00000018,0.00032663,-0.00076782,0.,-0.00045553,0.00007194,0.,0.000229
 00,-0.00031373,-0.00000001,-0.00044511,0.00002783,-0.00000002,-0.08547
 564,-0.13536076,-0.00000107,0.00685638,-0.13103695,-0.00000102,0.05503
 169,-0.18235226,-0.00000115,0.01878055,0.00443381,0.00000016,0.0077765
 9,-0.03806801,-0.00000008,-0.00616244,0.01422304,0.00000038,-0.0017451
 8,-0.00009165,0.,0.00143459,-0.00826746,-0.00000013,-0.00907545,-0.005
 96314,-0.00000002,-0.00099635,0.00076434,0.00000002,0.00117749,-0.0005
 3278,-0.00000009,-0.00033223,0.00016259,0.,-0.03513373,0.49978153,0.00
 000003,-0.00000012,-0.00020112,0.00000016,-0.00000048,0.00410683,-0.00
 000098,0.00000065,0.00431586,0.00000040,-0.00000021,0.00310764,-0.0000
 0010,0.00000025,0.00055139,-0.00000015,-0.00000019,0.00082756,0.,0.,-0
 .00036475,0.,0.,-0.00030434,0.,0.00000001,-0.00049074,-0.00000001,0.,0
 .00000221,-0.00000749,-0.00000204,-0.06489030,0.00000012,-0.00000105,-
 0.03742202,0.00000017,-0.00000027,-0.05337669,0.00000018,-0.00000014,-
 0.00389869,0.00000019,-0.00000062,0.00299203,0.00000011,0.,0.00663531,
 -0.00000005,0.00000009,-0.00328314,0.00000005,-0.00000024,0.00435116,-
 0.00000007,0.00000001,-0.00093518,0.00000002,-0.00000004,0.00111311,0.
 ,-0.00000002,-0.00010651,-0.00000002,0.00000002,-0.00078778,0.00000696
 ,0.00000360,0.13771219,-0.00061840,0.00232071,0.00000009,0.00224432,0.
 00155814,0.00000006,0.01015327,-0.00109414,-0.00000010,-0.00238987,0.0
 0007348,-0.00000007,-0.00000964,-0.00228220,-0.00000005,0.00214876,0.0
 0046037,0.00000002,-0.00020554,0.00016763,0.,0.00037386,0.00000330,-0.
 00000002,0.00001594,-0.00000704,0.,0.00005038,0.00007856,0.,0.02046529
 ,0.05000962,-0.00000292,-0.00007866,0.00106793,0.00000016,-0.01878489,
 -0.03902510,0.00000118,-0.00937483,0.00450633,0.00000027,-0.37690377,-
 0.06384431,0.00000885,-0.00630181,-0.01693579,-0.00000038,-0.00120091,
 -0.00046287,-0.00000005,-0.07255228,0.01650473,0.00000336,0.01860828,0
 .01209346,0.00000012,-0.00010447,-0.00028950,0.00000002,0.00196922,-0.
 00093151,-0.00000007,-0.00142196,0.00044688,-0.00000004,-0.03141287,0.
 01885483,-0.00000012,0.53611199,-0.00067812,-0.00117846,-0.00000013,0.
 00029177,-0.00416036,-0.00000011,-0.01428660,-0.00401420,0.00000064,0.
 00018646,-0.00068902,0.,0.00058989,0.00065637,0.00000001,-0.00038208,-
 0.00017282,0.,0.00026852,-0.00038668,-0.00000001,0.00002500,0.00019865
 ,0.00000003,0.00019061,-0.00013961,0.,0.00010710,-0.00009973,0.,0.0166
 3000,-0.08781897,0.00000388,-0.00113421,-0.00530436,-0.00000018,-0.044
 44435,-0.00020498,0.00000092,0.00966227,-0.00886198,-0.00000027,-0.053
 75981,-0.12346334,-0.00000035,-0.00067607,0.01033463,0.00000028,-0.001
 41904,-0.00007121,-0.00000002,0.05364654,0.01145320,-0.00000127,-0.006
 64384,-0.01239282,-0.00000029,0.00000850,0.00055701,0.00000001,-0.0014
 0841,0.00269025,0.00000013,0.00186422,0.00009411,0.,0.01480681,0.00247
 157,0.00000020,-0.01270584,0.39289549,0.00000003,-0.00000005,-0.000201
 11,-0.00000011,-0.00000010,-0.00025897,-0.00000047,0.00000037,0.001403
 08,0.00000014,-0.00000002,0.00017955,-0.00000002,0.00000011,-0.0000476
 8,-0.00000007,-0.00000005,0.00004641,0.,0.,0.00000077,0.,0.,-0.0000186
 5,0.,0.,-0.00001366,0.,0.,-0.00000123,-0.00000098,-0.00000131,0.010137
 84,0.00000013,0.00000027,-0.00080610,-0.00000047,0.00000092,0.01368621
 ,0.00000108,-0.00000042,0.00641475,0.00001022,0.00000086,-0.05847906,-
 0.00000006,0.00000113,-0.00099548,0.00000005,0.,0.00025476,0.00000417,
 -0.00000054,0.01030586,-0.00000087,-0.00000104,0.00516249,0.,0.0000000
 4,-0.00063486,-0.00000017,0.00000019,-0.00360608,0.00000009,0.,-0.0003
 2193,0.00000160,-0.00000107,-0.00246734,-0.00001681,0.00000615,0.04841
 396,0.00037208,-0.00038954,0.00000001,-0.00185588,0.00047476,0.,0.0002
 1962,0.00610797,-0.00000030,0.00107515,0.00020517,0.00000006,-0.000086
 92,0.00038049,0.00000003,-0.00042976,-0.00013402,-0.00000001,-0.000003
 51,0.00002606,0.,-0.00066078,-0.00011882,0.,0.00003228,-0.00001947,0.,
 -0.00001365,-0.00006812,0.,-0.03046546,-0.01461768,0.00000171,-0.00175
 947,-0.00253203,-0.00000024,-0.00039168,0.00408308,-0.00000013,0.00111
 656,0.00069042,0.00000002,-0.04758791,0.03519625,0.00000304,0.00075029
 ,0.00203876,0.00000003,0.00052973,0.00017287,0.,0.00008099,-0.00451662
 ,-0.00000002,-0.00243550,0.00003657,0.00000010,0.00006400,0.00001866,0
 .,-0.00018492,0.00029021,0.00000001,-0.00014311,-0.00013810,-0.0000000
 3,0.00581250,-0.01632799,0.00000058,-0.07078140,0.03926067,0.00000251,
 0.14674675,0.00025664,0.00196781,0.00000015,0.00168812,0.00586985,0.00
 000027,0.02063753,-0.00289887,-0.00000054,-0.00178748,0.00180147,-0.00
 000007,-0.00078337,-0.00191375,-0.00000007,0.00115826,0.00077536,0.000
 00002,-0.00034511,0.00050168,0.00000002,0.00030633,-0.00022667,0.,-0.0
 0030452,0.00022675,0.00000001,-0.00012814,0.00016521,0.,-0.00092132,0.
 01388900,-0.00000477,0.00177757,0.00838308,0.00000068,0.00331011,-0.01
 608701,-0.00000024,-0.00838680,0.00064560,-0.00000002,0.05901105,0.019
 77843,-0.00000155,-0.00121192,-0.01113415,-0.00000026,-0.00097977,-0.0
 0025656,-0.00000002,-0.02250722,0.00720820,0.00000072,0.01013656,0.007
 28149,-0.00000002,0.00001155,-0.00037059,0.00000002,0.00069276,-0.0008
 5084,0.,-0.00074109,0.00021991,0.,-0.04020248,0.00554434,0.00000058,0.
 02943232,-0.17239272,-0.00000544,-0.05011959,0.13187300,-0.00000008,-0
 .00000011,0.00034309,0.00000016,-0.00000032,0.00071100,-0.00000064,-0.
 00000061,-0.00102230,-0.00000005,-0.00000002,-0.00049502,0.00000005,-0
 .00000002,-0.00004183,0.,0.00000002,-0.00006620,0.00000002,-0.00000003
 ,0.00002511,-0.00000005,0.00000004,0.00018760,0.00000001,-0.00000001,0
 .00003151,0.,0.,0.00000098,0.00000139,0.00000208,-0.01763673,-0.000000
 29,-0.00000051,0.00198054,-0.00000005,0.00000014,-0.00271261,-0.000000
 06,-0.00000005,-0.00046949,-0.00000005,-0.00000160,0.00114879,0.000000
 07,0.00000002,-0.00015563,-0.00000001,0.,-0.00002608,0.00000035,0.0000
 0003,0.00240734,-0.00000002,-0.00000009,0.00172738,0.,0.,-0.00000284,-
 0.00000002,0.00000004,-0.00044395,0.00000002,0.00000001,-0.00028552,0.
 00000014,0.00000010,0.00281330,0.00000648,-0.00000963,-0.02815354,-0.0
 0000738,0.00001050,0.04013511\\0.00173154,0.00144183,-0.00000021,0.002
 17993,0.00242026,-0.00000044,0.00320388,-0.00045059,0.00000042,-0.0011
 9031,0.00180730,0.00000023,0.00023948,0.00068898,0.,0.00188803,0.00180
 743,-0.00000004,0.00011974,0.00014265,0.00000004,-0.00004521,0.0001176
 9,-0.00000004,0.00002442,0.00023093,-0.00000001,0.00018311,0.00017873,
 0.00000003,-0.00706795,0.00270665,0.00000278,0.00051043,-0.00048057,0.
 00000068,-0.00395185,0.00164925,0.00000037,0.00235470,0.00067240,-0.00
 000091,0.00613174,0.00063547,0.00000107,-0.00105818,0.00489732,0.00000
 005,-0.00006934,0.00013557,0.00000004,-0.00012951,0.00032711,0.0000003
 1,-0.00109116,0.00105973,0.00000017,-0.00007327,0.00027395,0.00000007,
 0.00009930,-0.00001780,0.,-0.00005061,0.00012266,-0.00000003,-0.004603
 32,-0.00333892,-0.00000185,-0.00266798,-0.00567123,0.00000148,0.003332
 37,-0.01135679,-0.00000419\\\@
 The archive entry for this job was punched.


 "WOULD YOU TELL ME PLEASE, WHICH WAY I OUGHT TO WALK FROM HERE?"
 "THAT DEPENDS A GREAT DEAL ON WHERE YOU WANT TO GO," SAID THE CAT.
 "I DON'T MUCH CARE WHERE -- ", SAID ALICE.
 "THEN IT DOESN'T MATTER WHICH WAY YOU WALK," SAID THE CAT.

                                      -- LEWIS CARROLL
 Job cpu time:       0 days  1 hours  0 minutes  0.7 seconds.
 Elapsed time:       0 days  0 hours  6 minutes 23.7 seconds.
 File lengths (MBytes):  RWF=    544 Int=      0 D2E=      0 Chk=     36 Scr=      8
 Normal termination of Gaussian 16 at Tue Oct 27 20:59:23 2020.
