 Entering Gaussian System, Link 0=g16
 Initial command:
 /gpfs/loomis/apps/avx/software/Gaussian/16-C.01_AVX/g16/l1.exe "/home/fas/batista/pev4/scratch60/gauss-scratch/Gau-38095.inp" -scrdir="/home/fas/batista/pev4/scratch60/gauss-scratch/"
 Entering Link 1 = /gpfs/loomis/apps/avx/software/Gaussian/16-C.01_AVX/g16/l1.exe PID=     38096.
  
 Copyright (c) 1988-2019, Gaussian, Inc.  All Rights Reserved.
  
 This is part of the Gaussian(R) 16 program.  It is based on
 the Gaussian(R) 09 system (copyright 2009, Gaussian, Inc.),
 the Gaussian(R) 03 system (copyright 2003, Gaussian, Inc.),
 the Gaussian(R) 98 system (copyright 1998, Gaussian, Inc.),
 the Gaussian(R) 94 system (copyright 1995, Gaussian, Inc.),
 the Gaussian 92(TM) system (copyright 1992, Gaussian, Inc.),
 the Gaussian 90(TM) system (copyright 1990, Gaussian, Inc.),
 the Gaussian 88(TM) system (copyright 1988, Gaussian, Inc.),
 the Gaussian 86(TM) system (copyright 1986, Carnegie Mellon
 University), and the Gaussian 82(TM) system (copyright 1983,
 Carnegie Mellon University). Gaussian is a federally registered
 trademark of Gaussian, Inc.
  
 This software contains proprietary and confidential information,
 including trade secrets, belonging to Gaussian, Inc.
  
 This software is provided under written license and may be
 used, copied, transmitted, or stored only in accord with that
 written license.
  
 The following legend is applicable only to US Government
 contracts under FAR:
  
                    RESTRICTED RIGHTS LEGEND
  
 Use, reproduction and disclosure by the US Government is
 subject to restrictions as set forth in subparagraphs (a)
 and (c) of the Commercial Computer Software - Restricted
 Rights clause in FAR 52.227-19.
  
 Gaussian, Inc.
 340 Quinnipiac St., Bldg. 40, Wallingford CT 06492
  
  
 ---------------------------------------------------------------
 Warning -- This program may not be used in any manner that
 competes with the business of Gaussian, Inc. or will provide
 assistance to any competitor of Gaussian, Inc.  The licensee
 of this program is prohibited from giving any competitor of
 Gaussian, Inc. access to this program.  By using this program,
 the user acknowledges that Gaussian, Inc. is engaged in the
 business of creating and licensing software in the field of
 computational chemistry and represents and warrants to the
 licensee that it is not a competitor of Gaussian, Inc. and that
 it will not use this program in any manner prohibited above.
 ---------------------------------------------------------------
  

 Cite this work as:
 Gaussian 16, Revision C.01,
 M. J. Frisch, G. W. Trucks, H. B. Schlegel, G. E. Scuseria, 
 M. A. Robb, J. R. Cheeseman, G. Scalmani, V. Barone, 
 G. A. Petersson, H. Nakatsuji, X. Li, M. Caricato, A. V. Marenich, 
 J. Bloino, B. G. Janesko, R. Gomperts, B. Mennucci, H. P. Hratchian, 
 J. V. Ortiz, A. F. Izmaylov, J. L. Sonnenberg, D. Williams-Young, 
 F. Ding, F. Lipparini, F. Egidi, J. Goings, B. Peng, A. Petrone, 
 T. Henderson, D. Ranasinghe, V. G. Zakrzewski, J. Gao, N. Rega, 
 G. Zheng, W. Liang, M. Hada, M. Ehara, K. Toyota, R. Fukuda, 
 J. Hasegawa, M. Ishida, T. Nakajima, Y. Honda, O. Kitao, H. Nakai, 
 T. Vreven, K. Throssell, J. A. Montgomery, Jr., J. E. Peralta, 
 F. Ogliaro, M. J. Bearpark, J. J. Heyd, E. N. Brothers, K. N. Kudin, 
 V. N. Staroverov, T. A. Keith, R. Kobayashi, J. Normand, 
 K. Raghavachari, A. P. Rendell, J. C. Burant, S. S. Iyengar, 
 J. Tomasi, M. Cossi, J. M. Millam, M. Klene, C. Adamo, R. Cammi, 
 J. W. Ochterski, R. L. Martin, K. Morokuma, O. Farkas, 
 J. B. Foresman, and D. J. Fox, Gaussian, Inc., Wallingford CT, 2019.
 
 ******************************************
 Gaussian 16:  ES64L-G16RevC.01  3-Jul-2019
                27-Oct-2020 
 ******************************************
 %chk=config_9_9.chk
 %mem=58GB
 %nprocshared=10
 Will use up to   10 processors via shared memory.
 ----------------------------------------------------------------------
 #p opt=addgic freq wb97xd/cc-pvdz nosymm int=ultrafine scrf=(solvent=C
 arbonTetraChloride)
 ----------------------------------------------------------------------
 1/18=20,19=15,26=6,38=1,145=903/1,3;
 2/9=110,12=2,15=1,17=6,18=5,40=1/2;
 3/5=16,11=2,25=1,30=1,70=2201,71=1,72=11,74=-58,75=-5/1,2,3;
 4//1;
 5/5=2,38=5,53=11/2;
 6/7=2,8=2,9=2,10=2,28=1/1;
 7/30=1/1,2,3,16;
 1/18=20,19=15,26=6,145=903/3(2);
 2/9=110,15=1/2;
 99//99;
 2/9=110,15=1/2;
 3/5=16,11=2,25=1,30=1,70=2205,71=1,72=11,74=-58,75=-5/1,2,3;
 4/5=5,16=3,69=1/1;
 5/5=2,38=5,53=11/2;
 7/30=1/1,2,3,16;
 1/18=20,19=15,26=6,145=903/3(-5);
 2/9=110,15=1/2;
 6/7=2,8=2,9=2,10=2,19=2,28=1/1;
 99/9=1/99;
 Leave Link    1 at Tue Oct 27 22:30:28 2020, MaxMem=  7784628224 cpu:               3.7 elap:               0.4
 (Enter /gpfs/loomis/apps/avx/software/Gaussian/16-C.01_AVX/g16/l101.exe)
 ------------------------------------------------
 NM 2D-scan of HBT TD-WB97XD pVDZ in CTC Relaxed.
 ------------------------------------------------
 Symbolic Z-matrix:
 Charge =  0 Multiplicity = 1
 C                     1.64888  -3.25916  -0.00002 
 C                     1.0053   -2.02344  -0.00002 
 C                     1.73286  -0.80342  -0.00002 
 C                     3.13315  -0.84078  -0.00002 
 C                     3.76845  -2.0776   -0.00002 
 C                     3.04255  -3.27708  -0.00002 
 H                     1.07494  -4.18677  -0.00002 
 H                     3.7033    0.0888   -0.00003 
 H                     4.85918  -2.11203  -0.00002 
 H                     3.56975  -4.2318   -0.00002 
 N                     0.92593   0.30778  -0.00002 
 S                    -0.72555  -1.72078  -0.00002 
 C                    -1.37652   1.03715   0.00001 
 C                    -2.74792   0.81249   0. 
 C                    -0.87239   2.43306   0.00003 
 C                    -3.65094   1.89894   0.00003 
 H                    -3.14002  -0.20697  -0.00002 
 C                    -1.82656   3.48857   0.00005 
 C                    -3.19654   3.2232    0.00005 
 H                    -4.72237   1.69202   0.00003 
 H                    -1.43345   4.50613   0.00007 
 H                    -3.91377   4.04433   0.00007 
 C                    -0.39905   0.00252  -0.00002 
 O                     0.37967   2.654     0.00004 
 H                     1.01818   1.28235   0. 
 
 Initializing the GIC definitions file.
 Number of initial coordinates =   134
 Number of input entries/lines =    52
 Number of additional coordinates =     2
 Number of removed coordinates =     0
 Number of frozen coordinates =     2
 Number of final active and frozen coordinates =   136
 ITRead=  0  0  0  0  0  0  0  0  0  0  0  0  0  0  0  0  0  0  0  0
 ITRead=  0  0  0  0  0
 MicOpt= -1 -1 -1 -1 -1 -1 -1 -1 -1 -1 -1 -1 -1 -1 -1 -1 -1 -1 -1 -1
 MicOpt= -1 -1 -1 -1 -1
 NAtoms=     25 NQM=       25 NQMF=       0 NMMI=      0 NMMIF=      0
                NMic=       0 NMicF=      0.
                    Isotopes and Nuclear Properties:
 (Nuclear quadrupole moments (NQMom) in fm**2, nuclear magnetic moments (NMagM)
  in nuclear magnetons)

  Atom         1           2           3           4           5           6           7           8           9          10
 IAtWgt=          12          12          12          12          12          12           1           1           1           1
 AtmWgt=  12.0000000  12.0000000  12.0000000  12.0000000  12.0000000  12.0000000   1.0078250   1.0078250   1.0078250   1.0078250
 NucSpn=           0           0           0           0           0           0           1           1           1           1
 AtZEff=  -0.0000000  -0.0000000  -0.0000000  -0.0000000  -0.0000000  -0.0000000  -0.0000000  -0.0000000  -0.0000000  -0.0000000
 NQMom=    0.0000000   0.0000000   0.0000000   0.0000000   0.0000000   0.0000000   0.0000000   0.0000000   0.0000000   0.0000000
 NMagM=    0.0000000   0.0000000   0.0000000   0.0000000   0.0000000   0.0000000   2.7928460   2.7928460   2.7928460   2.7928460
 AtZNuc=   6.0000000   6.0000000   6.0000000   6.0000000   6.0000000   6.0000000   1.0000000   1.0000000   1.0000000   1.0000000

  Atom        11          12          13          14          15          16          17          18          19          20
 IAtWgt=          14          32          12          12          12          12           1          12          12           1
 AtmWgt=  14.0030740  31.9720718  12.0000000  12.0000000  12.0000000  12.0000000   1.0078250  12.0000000  12.0000000   1.0078250
 NucSpn=           2           0           0           0           0           0           1           0           0           1
 AtZEff=  -0.0000000  -0.0000000  -0.0000000  -0.0000000  -0.0000000  -0.0000000  -0.0000000  -0.0000000  -0.0000000  -0.0000000
 NQMom=    2.0440000   0.0000000   0.0000000   0.0000000   0.0000000   0.0000000   0.0000000   0.0000000   0.0000000   0.0000000
 NMagM=    0.4037610   0.0000000   0.0000000   0.0000000   0.0000000   0.0000000   2.7928460   0.0000000   0.0000000   2.7928460
 AtZNuc=   7.0000000  16.0000000   6.0000000   6.0000000   6.0000000   6.0000000   1.0000000   6.0000000   6.0000000   1.0000000

  Atom        21          22          23          24          25
 IAtWgt=           1           1          12          16           1
 AtmWgt=   1.0078250   1.0078250  12.0000000  15.9949146   1.0078250
 NucSpn=           1           1           0           0           1
 AtZEff=  -0.0000000  -0.0000000  -0.0000000  -0.0000000  -0.0000000
 NQMom=    0.0000000   0.0000000   0.0000000   0.0000000   0.0000000
 NMagM=    2.7928460   2.7928460   0.0000000   0.0000000   2.7928460
 AtZNuc=   1.0000000   1.0000000   6.0000000   8.0000000   1.0000000
 Leave Link  101 at Tue Oct 27 22:30:31 2020, MaxMem=  7784628224 cpu:              31.4 elap:               3.2
 (Enter /gpfs/loomis/apps/avx/software/Gaussian/16-C.01_AVX/g16/l103.exe)

 GradGradGradGradGradGradGradGradGradGradGradGradGradGradGradGradGradGrad
 Berny optimization.
 Initialization pass.
                           ----------------------------
                           !    Initial Parameters    !
                           ! (Angstroms and Degrees)  !
 --------------------------                            --------------------------
 ! Name  Definition              Value          Derivative Info.                !
 --------------------------------------------------------------------------------
 ! R1    R(1,2)                  1.3933         estimate D2E/DX2                !
 ! R2    R(1,6)                  1.3938         estimate D2E/DX2                !
 ! R3    R(1,7)                  1.0908         estimate D2E/DX2                !
 ! R4    R(2,3)                  1.4205         estimate D2E/DX2                !
 ! R5    R(2,12)                 1.7571         estimate D2E/DX2                !
 ! R6    R(3,4)                  1.4008         estimate D2E/DX2                !
 ! R7    R(3,11)                 1.3733         estimate D2E/DX2                !
 ! R8    R(4,5)                  1.3904         estimate D2E/DX2                !
 ! R9    R(4,8)                  1.0905         estimate D2E/DX2                !
 ! R10   R(5,6)                  1.402          estimate D2E/DX2                !
 ! R11   R(5,9)                  1.0913         estimate D2E/DX2                !
 ! R12   R(6,10)                 1.0906         estimate D2E/DX2                !
 ! R13   R(11,23)                1.3597         estimate D2E/DX2                !
 ! R14   R(11,25)                0.9789         estimate D2E/DX2                !
 ! R15   R(12,23)                1.754          estimate D2E/DX2                !
 ! R16   R(13,14)                1.3897         estimate D2E/DX2                !
 ! R17   R(13,15)                1.4841         estimate D2E/DX2                !
 ! R18   R(13,23)                1.4233         estimate D2E/DX2                !
 ! R19   R(14,16)                1.4127         estimate D2E/DX2                !
 ! R20   R(14,17)                1.0923         estimate D2E/DX2                !
 ! R21   R(15,18)                1.4229         estimate D2E/DX2                !
 ! R22   R(15,24)                1.2714         estimate D2E/DX2                !
 ! R23   R(16,19)                1.4001         estimate D2E/DX2                !
 ! R24   R(16,20)                1.0912         estimate D2E/DX2                !
 ! R25   R(18,19)                1.3954         estimate D2E/DX2                !
 ! R26   R(18,21)                1.0909         estimate D2E/DX2                !
 ! R27   R(19,22)                1.0903         estimate D2E/DX2                !
 ! A1    A(2,1,6)              118.2477         estimate D2E/DX2                !
 ! A2    A(2,1,7)              120.7428         estimate D2E/DX2                !
 ! A3    A(6,1,7)              121.0096         estimate D2E/DX2                !
 ! A4    A(1,2,3)              121.679          estimate D2E/DX2                !
 ! A5    A(1,2,12)             127.4294         estimate D2E/DX2                !
 ! A6    A(3,2,12)             110.8915         estimate D2E/DX2                !
 ! A7    A(2,3,4)              119.282          estimate D2E/DX2                !
 ! A8    A(2,3,11)             113.2036         estimate D2E/DX2                !
 ! A9    A(4,3,11)             127.5144         estimate D2E/DX2                !
 ! A10   A(3,4,5)              118.7156         estimate D2E/DX2                !
 ! A11   A(3,4,8)              119.9949         estimate D2E/DX2                !
 ! A12   A(5,4,8)              121.2896         estimate D2E/DX2                !
 ! A13   A(4,5,6)              121.6309         estimate D2E/DX2                !
 ! A14   A(4,5,9)              118.996          estimate D2E/DX2                !
 ! A15   A(6,5,9)              119.3731         estimate D2E/DX2                !
 ! A16   A(1,6,5)              120.4449         estimate D2E/DX2                !
 ! A17   A(1,6,10)             119.6446         estimate D2E/DX2                !
 ! A18   A(5,6,10)             119.9105         estimate D2E/DX2                !
 ! A19   A(3,11,23)            113.0127         estimate D2E/DX2                !
 ! A20   A(3,11,25)            138.6061         estimate D2E/DX2                !
 ! A21   A(23,11,25)           108.3812         estimate D2E/DX2                !
 ! A22   A(2,12,23)             89.1902         estimate D2E/DX2                !
 ! A23   A(14,13,15)           119.1611         estimate D2E/DX2                !
 ! A24   A(14,13,23)           124.069          estimate D2E/DX2                !
 ! A25   A(15,13,23)           116.7699         estimate D2E/DX2                !
 ! A26   A(13,14,16)           120.4285         estimate D2E/DX2                !
 ! A27   A(13,14,17)           120.3411         estimate D2E/DX2                !
 ! A28   A(16,14,17)           119.2304         estimate D2E/DX2                !
 ! A29   A(13,15,18)           118.0295         estimate D2E/DX2                !
 ! A30   A(13,15,24)           119.8651         estimate D2E/DX2                !
 ! A31   A(18,15,24)           122.1054         estimate D2E/DX2                !
 ! A32   A(14,16,19)           121.3289         estimate D2E/DX2                !
 ! A33   A(14,16,20)           118.8015         estimate D2E/DX2                !
 ! A34   A(19,16,20)           119.8696         estimate D2E/DX2                !
 ! A35   A(15,18,19)           121.1508         estimate D2E/DX2                !
 ! A36   A(15,18,21)           116.764          estimate D2E/DX2                !
 ! A37   A(19,18,21)           122.0852         estimate D2E/DX2                !
 ! A38   A(16,19,18)           119.9013         estimate D2E/DX2                !
 ! A39   A(16,19,22)           119.9247         estimate D2E/DX2                !
 ! A40   A(18,19,22)           120.174          estimate D2E/DX2                !
 ! A41   A(11,23,12)           113.702          estimate D2E/DX2                !
 ! A42   A(11,23,13)           120.399          estimate D2E/DX2                !
 ! A43   A(12,23,13)           125.899          estimate D2E/DX2                !
 ! D1    D(6,1,2,3)              0.0            estimate D2E/DX2                !
 ! D2    D(6,1,2,12)          -180.0            estimate D2E/DX2                !
 ! D3    D(7,1,2,3)            179.9999         estimate D2E/DX2                !
 ! D4    D(7,1,2,12)             0.0            estimate D2E/DX2                !
 ! D5    D(2,1,6,5)             -0.0001         estimate D2E/DX2                !
 ! D6    D(2,1,6,10)           180.0            estimate D2E/DX2                !
 ! D7    D(7,1,6,5)           -180.0            estimate D2E/DX2                !
 ! D8    D(7,1,6,10)             0.0            estimate D2E/DX2                !
 ! D9    D(1,2,3,4)              0.0001         estimate D2E/DX2                !
 ! D10   D(1,2,3,11)           180.0            estimate D2E/DX2                !
 ! D11   D(12,2,3,4)          -180.0            estimate D2E/DX2                !
 ! D12   D(12,2,3,11)            0.0            estimate D2E/DX2                !
 ! D13   D(1,2,12,23)          179.9998         estimate D2E/DX2                !
 ! D14   D(3,2,12,23)           -0.0001         estimate D2E/DX2                !
 ! D15   D(2,3,4,5)             -0.0001         estimate D2E/DX2                !
 ! D16   D(2,3,4,8)            179.9999         estimate D2E/DX2                !
 ! D17   D(11,3,4,5)          -180.0            estimate D2E/DX2                !
 ! D18   D(11,3,4,8)             0.0            estimate D2E/DX2                !
 ! D19   D(2,3,11,23)            0.0003         estimate D2E/DX2                !
 ! D20   D(2,3,11,25)          179.9977         estimate D2E/DX2                !
 ! D21   D(4,3,11,23)         -179.9998         estimate D2E/DX2                !
 ! D22   D(4,3,11,25)           -0.0024         estimate D2E/DX2                !
 ! D23   D(3,4,5,6)              0.0            estimate D2E/DX2                !
 ! D24   D(3,4,5,9)           -180.0            estimate D2E/DX2                !
 ! D25   D(8,4,5,6)            180.0            estimate D2E/DX2                !
 ! D26   D(8,4,5,9)              0.0            estimate D2E/DX2                !
 ! D27   D(4,5,6,1)              0.0            estimate D2E/DX2                !
 ! D28   D(4,5,6,10)          -180.0            estimate D2E/DX2                !
 ! D29   D(9,5,6,1)           -180.0            estimate D2E/DX2                !
 ! D30   D(9,5,6,10)             0.0            estimate D2E/DX2                !
 ! D31   D(3,11,23,12)          -0.0004         estimate D2E/DX2                !
 ! D32   D(3,11,23,13)         179.999          estimate D2E/DX2                !
 ! D33   D(25,11,23,12)       -179.9986         estimate D2E/DX2                !
 ! D34   D(25,11,23,13)          0.0008         estimate D2E/DX2                !
 ! D35   D(2,12,23,11)           0.0003         estimate D2E/DX2                !
 ! D36   D(2,12,23,13)        -179.999          estimate D2E/DX2                !
 ! D37   D(15,13,14,16)          0.0002         estimate D2E/DX2                !
 ! D38   D(15,13,14,17)       -180.0            estimate D2E/DX2                !
 ! D39   D(23,13,14,16)       -180.0            estimate D2E/DX2                !
 ! D40   D(23,13,14,17)         -0.0001         estimate D2E/DX2                !
 ! D41   D(14,13,15,18)         -0.0002         estimate D2E/DX2                !
 ! D42   D(14,13,15,24)        179.9996         estimate D2E/DX2                !
 ! D43   D(23,13,15,18)        179.9999         estimate D2E/DX2                !
 ! D44   D(23,13,15,24)         -0.0003         estimate D2E/DX2                !
 ! D45   D(14,13,23,11)        179.9996         estimate D2E/DX2                !
 ! D46   D(14,13,23,12)         -0.0011         estimate D2E/DX2                !
 ! D47   D(15,13,23,11)         -0.0005         estimate D2E/DX2                !
 ! D48   D(15,13,23,12)        179.9988         estimate D2E/DX2                !
 ! D49   D(13,14,16,19)          0.0            estimate D2E/DX2                !
 ! D50   D(13,14,16,20)        180.0            estimate D2E/DX2                !
 ! D51   D(17,14,16,19)       -179.9999         estimate D2E/DX2                !
 ! D52   D(17,14,16,20)          0.0001         estimate D2E/DX2                !
 ! D53   D(13,15,18,19)          0.0002         estimate D2E/DX2                !
 ! D54   D(13,15,18,21)        179.9999         estimate D2E/DX2                !
 ! D55   D(24,15,18,19)       -179.9996         estimate D2E/DX2                !
 ! D56   D(24,15,18,21)          0.0            estimate D2E/DX2                !
 ! D57   D(14,16,19,18)          0.0            estimate D2E/DX2                !
 ! D58   D(14,16,19,22)       -180.0            estimate D2E/DX2                !
 ! D59   D(20,16,19,18)        180.0            estimate D2E/DX2                !
 ! D60   D(20,16,19,22)          0.0            estimate D2E/DX2                !
 ! D61   D(15,18,19,16)         -0.0001         estimate D2E/DX2                !
 ! D62   D(15,18,19,22)        179.9999         estimate D2E/DX2                !
 ! D63   D(21,18,19,16)       -179.9998         estimate D2E/DX2                !
 ! D64   D(21,18,19,22)          0.0002         estimate D2E/DX2                !
 ! Qtot  GIC-1                  30.0            Frozen                          !
 ! Ptot  GIC-2                  20.0            Frozen                          !
 --------------------------------------------------------------------------------
 NOTE: GIC-type coordinates are in arbitrary units.
 Trust Radius=3.00D-01 FncErr=5.00D-06 GrdErr=5.00D-06 EigMax=2.50D+02 EigMin=1.00D-04
 Number of steps in this run=    146 maximum allowed number of steps=    150.
 GradGradGradGradGradGradGradGradGradGradGradGradGradGradGradGradGradGrad

 Leave Link  103 at Tue Oct 27 22:30:31 2020, MaxMem=  7784628224 cpu:               0.2 elap:               0.0
 (Enter /gpfs/loomis/apps/avx/software/Gaussian/16-C.01_AVX/g16/l202.exe)
                          Input orientation:                          
 ---------------------------------------------------------------------
 Center     Atomic      Atomic             Coordinates (Angstroms)
 Number     Number       Type             X           Y           Z
 ---------------------------------------------------------------------
      1          6           0        1.648880   -3.259159   -0.000021
      2          6           0        1.005301   -2.023435   -0.000022
      3          6           0        1.732861   -0.803425   -0.000022
      4          6           0        3.133151   -0.840777   -0.000024
      5          6           0        3.768451   -2.077595   -0.000023
      6          6           0        3.042545   -3.277079   -0.000021
      7          1           0        1.074943   -4.186767   -0.000019
      8          1           0        3.703304    0.088796   -0.000025
      9          1           0        4.859183   -2.112033   -0.000023
     10          1           0        3.569755   -4.231804   -0.000020
     11          7           0        0.925926    0.307778   -0.000023
     12         16           0       -0.725553   -1.720780   -0.000021
     13          6           0       -1.376522    1.037154    0.000005
     14          6           0       -2.747920    0.812487    0.000004
     15          6           0       -0.872389    2.433057    0.000033
     16          6           0       -3.650945    1.898941    0.000027
     17          1           0       -3.140015   -0.206968   -0.000015
     18          6           0       -1.826558    3.488569    0.000053
     19          6           0       -3.196543    3.223204    0.000050
     20          1           0       -4.722368    1.692021    0.000025
     21          1           0       -1.433449    4.506127    0.000075
     22          1           0       -3.913771    4.044326    0.000068
     23          6           0       -0.399051    0.002523   -0.000017
     24          8           0        0.379669    2.654004    0.000041
     25          1           0        1.018179    1.282352    0.000003
 ---------------------------------------------------------------------
                    Distance matrix (angstroms):
                    1          2          3          4          5
     1  C    0.000000
     2  C    1.393272   0.000000
     3  C    2.457170   1.420482   0.000000
     4  C    2.837540   2.434425   1.400788   0.000000
     5  C    2.426659   2.763680   2.401486   1.390441   0.000000
     6  C    1.393780   2.392067   2.798971   2.437986   1.402034
     7  H    1.090807   2.164452   3.446718   3.928342   3.421051
     8  H    3.928035   3.426476   2.163031   1.090495   2.167370
     9  H    3.409097   3.854901   3.389152   2.143660   1.091276
    10  H    2.153090   3.384274   3.889468   3.419018   2.163352
    11  N    3.639465   2.332565   1.373286   2.488176   3.710789
    12  S    2.829230   1.757115   2.623993   3.957777   4.508146
    13  C    5.254652   3.878182   3.613308   4.885057   6.014351
    14  C    5.992508   4.704161   4.763252   6.109033   7.128511
    15  C    6.225602   4.835912   4.154773   5.173233   6.471737
    16  C    7.395548   6.088157   6.023964   7.316421   8.417854
    17  H    5.678854   4.525837   4.909244   6.305103   7.157244
    18  C    7.590159   6.196904   5.575901   6.583461   7.892168
    19  C    8.093155   6.721809   6.364964   7.522033   8.752692
    20  H    8.068890   6.827211   6.920783   8.253742   9.289995
    21  H    8.354664   6.970128   6.181978   7.031587   8.390778
    22  H    9.180631   7.811210   7.442119   8.574575   9.823159
    23  C    3.851310   2.465099   2.279166   3.631474   4.657785
    24  O    6.047842   4.719094   3.712807   4.449175   5.819955
    25  H    4.585096   3.305812   2.204821   2.996796   4.342032
                    6          7          8          9         10
     6  C    0.000000
     7  H    2.167716   0.000000
     8  H    3.430118   5.018836   0.000000
     9  H    2.158125   4.315668   2.485901   0.000000
    10  H    1.090619   2.495218   4.322663   2.481139   0.000000
    11  N    4.163085   4.497015   2.785997   4.618008   5.253345
    12  S    4.076840   3.053339   4.784280   5.598424   4.975430
    13  C    6.175821   5.770532   5.167593   6.985801   7.226865
    14  C    7.089008   6.293396   6.491689   8.149898   8.084423
    15  C    6.923320   6.900302   5.141257   7.314969   8.009557
    16  C    8.461323   7.705184   7.573744   9.407986   9.472303
    17  H    6.902871   5.796954   6.849707   8.222922   7.824341
    18  C    8.335596   8.205455   6.491366   8.721576   9.419360
    19  C    9.009989   8.552969   7.578417   9.662271  10.067767
    20  H    9.218777   8.256451   8.576846  10.309072  10.190732
    21  H    8.978464   9.047565   6.774884   9.132211  10.068936
    22  H   10.099173   9.624872   8.582893  10.717532  11.157844
    23  C    4.753985   4.441037   4.103262   5.667484   5.803528
    24  O    6.501435   6.876013   4.198433   6.540731   7.588873
    25  H    4.988634   5.469414   2.938448   5.125931   6.075891
                   11         12         13         14         15
    11  N    0.000000
    12  S    2.615804   0.000000
    13  C    2.415214   2.833719   0.000000
    14  C    3.708352   3.241514   1.389679   0.000000
    15  C    2.784016   4.156431   1.484148   2.478682   0.000000
    16  C    4.845570   4.654062   2.432216   1.412740   2.829426
    17  H    4.098395   2.849781   2.158182   1.092258   3.480210
    18  C    4.206376   5.324428   2.492382   2.830252   1.422865
    19  C    5.049204   5.527094   2.844519   2.452105   2.454796
    20  H    5.815441   5.255640   3.409331   2.161487   3.920647
    21  H    4.815889   6.267016   3.469439   3.920562   2.147652
    22  H    6.114283   6.587957   3.934553   3.435693   3.441830
    23  C    1.359686   1.753960   1.423346   2.484598   2.476195
    24  O    2.408977   4.512233   2.387134   3.629462   1.271403
    25  H    0.978930   3.472664   2.407221   3.795296   2.213226
                   16         17         18         19         20
    16  C    0.000000
    17  H    2.167003   0.000000
    18  C    2.419774   3.922011   0.000000
    19  C    1.400055   3.430638   1.395449   0.000000
    20  H    1.091222   2.471842   3.407830   2.161635   0.000000
    21  H    3.422675   5.012548   1.090852   2.180456   4.328531
    22  H    2.161424   4.321134   2.159936   1.090255   2.487401
    23  C    3.764467   2.748958   3.767001   4.265999   4.641711
    24  O    4.100727   4.535784   2.358800   3.621226   5.191936
    25  H    4.709660   4.416860   3.599989   4.640128   5.755146
                   21         22         23         24         25
    21  H    0.000000
    22  H    2.522946   0.000000
    23  C    4.620869   5.356251   0.000000
    24  O    2.591864   4.512940   2.763468   0.000000
    25  H    4.050087   5.652666   1.909581   1.512985   0.000000
 Symmetry turned off by external request.
 Stoichiometry    C13H9NOS
 Framework group  C1[X(C13H9NOS)]
 Deg. of freedom    69
 Full point group                 C1      NOp   1
 Rotational constants (GHZ):           1.3904585           0.2859916           0.2372033
 Leave Link  202 at Tue Oct 27 22:30:31 2020, MaxMem=  7784628224 cpu:               0.3 elap:               0.1
 (Enter /gpfs/loomis/apps/avx/software/Gaussian/16-C.01_AVX/g16/l301.exe)
 Standard basis: CC-pVDZ (5D, 7F)
 Ernie: Thresh=  0.10000D-02 Tol=  0.10000D-05 Strict=F.
 Ernie:  40 primitive shells out of 425 were deleted.
   273 basis functions,   629 primitive gaussians,   289 cartesian basis functions
    59 alpha electrons       59 beta electrons
       nuclear repulsion energy      1099.8837069507 Hartrees.
 IExCor= 4639 DFT=T Ex+Corr=wB97XD ExCW=0 ScaHFX=  1.000000
 ScaDFX=  1.000000  1.000000  1.000000  1.000000 ScalE2=  1.000000  1.000000
 IRadAn=      5 IRanWt=     -1 IRanGd=            0 ICorTp=0 IEmpDi=121
 HFx  wShort=  0.000000 wLong=  0.200000 cFull=  0.222036 cShort=  0.000000 cLong=  0.777964
 DFx  wShort=  0.000000 wLong=  0.200000 cFull=  0.000000 cShort=  0.000000 cLong=  1.000000
 NAtoms=   25 NActive=   25 NUniq=   25 SFac= 1.00D+00 NAtFMM=   60 NAOKFM=F Big=F
 Integral buffers will be    131072 words long.
 Raffenetti 2 integral format.
 Two-electron integral symmetry is turned off.
 R6Disp:  Grimme-D2 Dispersion energy=       -0.0140071803 Hartrees.
 Nuclear repulsion after empirical dispersion term =     1099.8696997704 Hartrees.
 ------------------------------------------------------------------------------
 Polarizable Continuum Model (PCM)
 =================================
 Model                : PCM.
 Atomic radii         : UFF (Universal Force Field).
 Polarization charges : Total charges.
 Charge compensation  : None.
 Solution method      : On-the-fly selection.
 Cavity type          : Scaled VdW (van der Waals Surface) (Alpha=1.100).
 Cavity algorithm     : GePol (No added spheres)
                        Default sphere list used, NSphG=   25.
                        Lebedev-Laikov grids with approx.  5.0 points / Ang**2.
                        Smoothing algorithm: York/Karplus (Gamma=1.0000).
                        Polarization charges: spherical gaussians, with
                                              point-specific exponents (IZeta= 3).
                        Self-potential: point-specific (ISelfS= 7).
                        Self-field    : sphere-specific E.n sum rule (ISelfD= 2).
 1st derivatives      : Analytical E(r).r(x)/FMM algorithm (CHGder, D1EAlg=3).
                        Cavity 1st derivative terms included.
 Solvent              : CarbonTetraChloride, Eps=   2.228000 Eps(inf)=   2.131892
 ------------------------------------------------------------------------------
 GePol: Number of generator spheres                  =      25
 GePol: Total number of spheres                      =      25
 GePol: Number of exposed spheres                    =      25 (100.00%)
 GePol: Number of points                             =    2175
 GePol: Average weight of points                     =       0.13
 GePol: Minimum weight of points                     =   0.31D-08
 GePol: Maximum weight of points                     =    0.20577
 GePol: Number of points with low weight             =     124
 GePol: Fraction of low-weight points (<1% of avg)   =       5.70%
 GePol: Cavity surface area                          =    272.952 Ang**2
 GePol: Cavity volume                                =    292.390 Ang**3
 Leave Link  301 at Tue Oct 27 22:30:32 2020, MaxMem=  7784628224 cpu:               0.8 elap:               0.1
 (Enter /gpfs/loomis/apps/avx/software/Gaussian/16-C.01_AVX/g16/l302.exe)
 NPDir=0 NMtPBC=     1 NCelOv=     1 NCel=       1 NClECP=     1 NCelD=      1
         NCelK=      1 NCelE2=     1 NClLst=     1 CellRange=     0.0.
 One-electron integrals computed using PRISM.
 NBasis=   273 RedAO= T EigKep=  3.05D-04  NBF=   273
 NBsUse=   273 1.00D-06 EigRej= -1.00D+00 NBFU=   273
 Precomputing XC quadrature grid using
 IXCGrd= 4 IRadAn=           5 IRanWt=          -1 IRanGd=           0 AccXCQ= 0.00D+00.
 Generated NRdTot=       0 NPtTot=           0 NUsed=           0 NTot=          32
 NSgBfM=   288   288   288   288   288 MxSgAt=    25 MxSgA2=    25.
 Leave Link  302 at Tue Oct 27 22:30:32 2020, MaxMem=  7784628224 cpu:               3.2 elap:               0.4
 (Enter /gpfs/loomis/apps/avx/software/Gaussian/16-C.01_AVX/g16/l303.exe)
 DipDrv:  MaxL=1.
 Leave Link  303 at Tue Oct 27 22:30:32 2020, MaxMem=  7784628224 cpu:               0.6 elap:               0.1
 (Enter /gpfs/loomis/apps/avx/software/Gaussian/16-C.01_AVX/g16/l401.exe)
 ExpMin= 1.22D-01 ExpMax= 1.11D+05 ExpMxC= 1.07D+03 IAcc=3 IRadAn=         5 AccDes= 0.00D+00
 Harris functional with IExCor= 4639 and IRadAn=       5 diagonalized for initial guess.
 HarFok:  IExCor= 4639 AccDes= 0.00D+00 IRadAn=         5 IDoV= 1 UseB2=F ITyADJ=14
 ICtDFT=  3500011 ScaDFX=  1.000000  1.000000  1.000000  1.000000
 FoFCou: FMM=F IPFlag=           0 FMFlag=      100000 FMFlg1=           0
         NFxFlg=           0 DoJE=T BraDBF=F KetDBF=T FulRan=T
         wScrn=  0.000000 ICntrl=       500 IOpCl=  0 I1Cent=   200000004 NGrid=           0
         NMat0=    1 NMatS0=      1 NMatT0=    0 NMatD0=    1 NMtDS0=    0 NMtDT0=    0
 Symmetry not used in FoFCou.
 Harris En= -994.446394836613    
 JPrj=0 DoOrth=F DoCkMO=F.
 Leave Link  401 at Tue Oct 27 22:30:34 2020, MaxMem=  7784628224 cpu:              14.0 elap:               1.4
 (Enter /gpfs/loomis/apps/avx/software/Gaussian/16-C.01_AVX/g16/l502.exe)
 Two-electron integral symmetry not used.
 Closed shell SCF:
 Using DIIS extrapolation, IDIIS=  1040.
 NGot=  7784628224 LenX=  7784455381 LenY=  7784371419
 Requested convergence on RMS density matrix=1.00D-08 within 128 cycles.
 Requested convergence on MAX density matrix=1.00D-06.
 Requested convergence on             energy=1.00D-06.
 No special actions if energy rises.
 Fock matrices will be formed incrementally for  20 cycles.

 Cycle   1  Pass 1  IDiag  1:
 FoFJK:  IHMeth= 1 ICntrl=       0 DoSepK=T KAlg= 0 I1Cent=           0 FoldK=F
 IRaf=         1 NMat=       1 IRICut=       1 DoRegI=T DoRafI=F ISym2E= 0 IDoP0=0 IntGTp=1.
 FoFCou: FMM=F IPFlag=           0 FMFlag=      100000 FMFlg1=           0
         NFxFlg=           0 DoJE=T BraDBF=F KetDBF=F FulRan=T
         wScrn=  0.000000 ICntrl=       500 IOpCl=  0 I1Cent=           0 NGrid=           0
         NMat0=    1 NMatS0=      1 NMatT0=    0 NMatD0=    1 NMtDS0=    0 NMtDT0=    0
 Symmetry not used in FoFCou.
 Inv3:  Mode=1 IEnd=    14191875.
 Iteration    1 A*A^-1 deviation from unit magnitude is 4.00D-15 for   2147.
 Iteration    1 A*A^-1 deviation from orthogonality  is 2.41D-15 for   2169    131.
 Iteration    1 A^-1*A deviation from unit magnitude is 4.00D-15 for   2147.
 Iteration    1 A^-1*A deviation from orthogonality  is 1.97D-15 for   2163   2087.
 E= -1028.55243855138    
 DIIS: error= 3.97D-02 at cycle   1 NSaved=   1.
 NSaved= 1 IEnMin= 1 EnMin= -1028.55243855138     IErMin= 1 ErrMin= 3.97D-02
 ErrMax= 3.97D-02  0.00D+00 EMaxC= 1.00D-01 BMatC= 3.95D-01 BMatP= 3.95D-01
 IDIUse=3 WtCom= 6.03D-01 WtEn= 3.97D-01
 Coeff-Com:  0.100D+01
 Coeff-En:   0.100D+01
 Coeff:      0.100D+01
 Gap=     0.319 Goal=   None    Shift=    0.000
 GapD=    0.319 DampG=1.000 DampE=0.500 DampFc=0.5000 IDamp=-1.
 Damping current iteration by 5.00D-01
 RMSDP=3.63D-03 MaxDP=2.38D-01              OVMax= 1.94D-01

 Cycle   2  Pass 1  IDiag  1:
 RMSU=  1.81D-03    CP:  9.94D-01
 E= -1028.67339762107     Delta-E=       -0.120959069684 Rises=F Damp=T
 DIIS: error= 1.09D-02 at cycle   2 NSaved=   2.
 NSaved= 2 IEnMin= 2 EnMin= -1028.67339762107     IErMin= 2 ErrMin= 1.09D-02
 ErrMax= 1.09D-02  0.00D+00 EMaxC= 1.00D-01 BMatC= 5.85D-02 BMatP= 3.95D-01
 IDIUse=3 WtCom= 8.91D-01 WtEn= 1.09D-01
 Coeff-Com: -0.278D+00 0.128D+01
 Coeff-En:   0.000D+00 0.100D+01
 Coeff:     -0.248D+00 0.125D+01
 Gap=     0.286 Goal=   None    Shift=    0.000
 RMSDP=1.17D-03 MaxDP=2.57D-02 DE=-1.21D-01 OVMax= 1.38D-01

 Cycle   3  Pass 1  IDiag  1:
 RMSU=  1.13D-03    CP:  9.93D-01  1.16D+00
 E= -1028.78226014629     Delta-E=       -0.108862525220 Rises=F Damp=F
 DIIS: error= 7.31D-03 at cycle   3 NSaved=   3.
 NSaved= 3 IEnMin= 3 EnMin= -1028.78226014629     IErMin= 3 ErrMin= 7.31D-03
 ErrMax= 7.31D-03  0.00D+00 EMaxC= 1.00D-01 BMatC= 1.61D-02 BMatP= 5.85D-02
 IDIUse=3 WtCom= 9.27D-01 WtEn= 7.31D-02
 Coeff-Com: -0.205D+00 0.503D+00 0.702D+00
 Coeff-En:   0.000D+00 0.000D+00 0.100D+01
 Coeff:     -0.190D+00 0.466D+00 0.724D+00
 Gap=     0.241 Goal=   None    Shift=    0.000
 RMSDP=5.66D-04 MaxDP=2.02D-02 DE=-1.09D-01 OVMax= 4.45D-02

 Cycle   4  Pass 1  IDiag  1:
 RMSU=  4.47D-04    CP:  9.91D-01  1.32D+00  8.31D-01
 E= -1028.79778122184     Delta-E=       -0.015521075552 Rises=F Damp=F
 DIIS: error= 2.31D-03 at cycle   4 NSaved=   4.
 NSaved= 4 IEnMin= 4 EnMin= -1028.79778122184     IErMin= 4 ErrMin= 2.31D-03
 ErrMax= 2.31D-03  0.00D+00 EMaxC= 1.00D-01 BMatC= 2.02D-03 BMatP= 1.61D-02
 IDIUse=3 WtCom= 9.77D-01 WtEn= 2.31D-02
 Coeff-Com: -0.718D-01 0.142D+00 0.345D+00 0.585D+00
 Coeff-En:   0.000D+00 0.000D+00 0.000D+00 0.100D+01
 Coeff:     -0.701D-01 0.139D+00 0.337D+00 0.595D+00
 Gap=     0.242 Goal=   None    Shift=    0.000
 RMSDP=1.80D-04 MaxDP=1.03D-02 DE=-1.55D-02 OVMax= 1.40D-02

 Cycle   5  Pass 1  IDiag  1:
 RMSU=  1.12D-04    CP:  9.91D-01  1.33D+00  9.09D-01  7.57D-01
 E= -1028.79996805749     Delta-E=       -0.002186835654 Rises=F Damp=F
 DIIS: error= 5.24D-04 at cycle   5 NSaved=   5.
 NSaved= 5 IEnMin= 5 EnMin= -1028.79996805749     IErMin= 5 ErrMin= 5.24D-04
 ErrMax= 5.24D-04  0.00D+00 EMaxC= 1.00D-01 BMatC= 5.86D-05 BMatP= 2.02D-03
 IDIUse=3 WtCom= 9.95D-01 WtEn= 5.24D-03
 Coeff-Com: -0.435D-03-0.551D-02 0.264D-01 0.151D+00 0.829D+00
 Coeff-En:   0.000D+00 0.000D+00 0.000D+00 0.000D+00 0.100D+01
 Coeff:     -0.432D-03-0.548D-02 0.263D-01 0.150D+00 0.830D+00
 Gap=     0.243 Goal=   None    Shift=    0.000
 RMSDP=5.79D-05 MaxDP=1.85D-03 DE=-2.19D-03 OVMax= 5.92D-03

 Cycle   6  Pass 1  IDiag  1:
 RMSU=  3.65D-05    CP:  9.91D-01  1.34D+00  9.26D-01  8.42D-01  1.11D+00
 E= -1028.80010476464     Delta-E=       -0.000136707142 Rises=F Damp=F
 DIIS: error= 2.50D-04 at cycle   6 NSaved=   6.
 NSaved= 6 IEnMin= 6 EnMin= -1028.80010476464     IErMin= 6 ErrMin= 2.50D-04
 ErrMax= 2.50D-04  0.00D+00 EMaxC= 1.00D-01 BMatC= 1.03D-05 BMatP= 5.86D-05
 IDIUse=3 WtCom= 9.98D-01 WtEn= 2.50D-03
 Coeff-Com:  0.168D-01-0.343D-01-0.666D-01-0.824D-01 0.191D+00 0.976D+00
 Coeff-En:   0.000D+00 0.000D+00 0.000D+00 0.000D+00 0.000D+00 0.100D+01
 Coeff:      0.168D-01-0.342D-01-0.665D-01-0.822D-01 0.190D+00 0.976D+00
 Gap=     0.243 Goal=   None    Shift=    0.000
 RMSDP=3.71D-05 MaxDP=1.74D-03 DE=-1.37D-04 OVMax= 4.56D-03

 Cycle   7  Pass 1  IDiag  1:
 RMSU=  1.73D-05    CP:  9.90D-01  1.34D+00  9.37D-01  8.76D-01  1.31D+00
                    CP:  1.36D+00
 E= -1028.80014215855     Delta-E=       -0.000037393912 Rises=F Damp=F
 DIIS: error= 9.82D-05 at cycle   7 NSaved=   7.
 NSaved= 7 IEnMin= 7 EnMin= -1028.80014215855     IErMin= 7 ErrMin= 9.82D-05
 ErrMax= 9.82D-05  0.00D+00 EMaxC= 1.00D-01 BMatC= 1.98D-06 BMatP= 1.03D-05
 IDIUse=1 WtCom= 1.00D+00 WtEn= 0.00D+00
 Coeff-Com:  0.595D-02-0.112D-01-0.249D-01-0.463D-01-0.236D-01 0.368D+00
 Coeff-Com:  0.732D+00
 Coeff:      0.595D-02-0.112D-01-0.249D-01-0.463D-01-0.236D-01 0.368D+00
 Coeff:      0.732D+00
 Gap=     0.244 Goal=   None    Shift=    0.000
 RMSDP=1.17D-05 MaxDP=4.49D-04 DE=-3.74D-05 OVMax= 1.39D-03

 Cycle   8  Pass 1  IDiag  1:
 RMSU=  6.99D-06    CP:  9.90D-01  1.34D+00  9.38D-01  8.81D-01  1.34D+00
                    CP:  1.56D+00  1.19D+00
 E= -1028.80014737957     Delta-E=       -0.000005221023 Rises=F Damp=F
 DIIS: error= 6.06D-05 at cycle   8 NSaved=   8.
 NSaved= 8 IEnMin= 8 EnMin= -1028.80014737957     IErMin= 8 ErrMin= 6.06D-05
 ErrMax= 6.06D-05  0.00D+00 EMaxC= 1.00D-01 BMatC= 3.51D-07 BMatP= 1.98D-06
 IDIUse=1 WtCom= 1.00D+00 WtEn= 0.00D+00
 Coeff-Com: -0.174D-02 0.371D-02 0.765D-02 0.445D-02-0.418D-01-0.112D+00
 Coeff-Com:  0.199D+00 0.941D+00
 Coeff:     -0.174D-02 0.371D-02 0.765D-02 0.445D-02-0.418D-01-0.112D+00
 Coeff:      0.199D+00 0.941D+00
 Gap=     0.244 Goal=   None    Shift=    0.000
 RMSDP=7.37D-06 MaxDP=1.85D-04 DE=-5.22D-06 OVMax= 1.26D-03

 Cycle   9  Pass 1  IDiag  1:
 RMSU=  2.92D-06    CP:  9.90D-01  1.34D+00  9.38D-01  8.81D-01  1.36D+00
                    CP:  1.68D+00  1.46D+00  1.22D+00
 E= -1028.80014898442     Delta-E=       -0.000001604851 Rises=F Damp=F
 DIIS: error= 2.02D-05 at cycle   9 NSaved=   9.
 NSaved= 9 IEnMin= 9 EnMin= -1028.80014898442     IErMin= 9 ErrMin= 2.02D-05
 ErrMax= 2.02D-05  0.00D+00 EMaxC= 1.00D-01 BMatC= 7.67D-08 BMatP= 3.51D-07
 IDIUse=1 WtCom= 1.00D+00 WtEn= 0.00D+00
 Coeff-Com: -0.121D-02 0.235D-02 0.558D-02 0.748D-02-0.823D-02-0.876D-01
 Coeff-Com: -0.787D-01 0.264D+00 0.897D+00
 Coeff:     -0.121D-02 0.235D-02 0.558D-02 0.748D-02-0.823D-02-0.876D-01
 Coeff:     -0.787D-01 0.264D+00 0.897D+00
 Gap=     0.244 Goal=   None    Shift=    0.000
 RMSDP=3.76D-06 MaxDP=1.05D-04 DE=-1.60D-06 OVMax= 5.71D-04

 Cycle  10  Pass 1  IDiag  1:
 RMSU=  1.42D-06    CP:  9.90D-01  1.34D+00  9.38D-01  8.81D-01  1.37D+00
                    CP:  1.73D+00  1.57D+00  1.49D+00  1.31D+00
 E= -1028.80014932163     Delta-E=       -0.000000337209 Rises=F Damp=F
 DIIS: error= 1.12D-05 at cycle  10 NSaved=  10.
 NSaved=10 IEnMin=10 EnMin= -1028.80014932163     IErMin=10 ErrMin= 1.12D-05
 ErrMax= 1.12D-05  0.00D+00 EMaxC= 1.00D-01 BMatC= 1.80D-08 BMatP= 7.67D-08
 IDIUse=1 WtCom= 1.00D+00 WtEn= 0.00D+00
 Coeff-Com:  0.944D-04-0.256D-03-0.184D-04 0.116D-02 0.757D-02-0.462D-02
 Coeff-Com: -0.805D-01-0.954D-01 0.356D+00 0.816D+00
 Coeff:      0.944D-04-0.256D-03-0.184D-04 0.116D-02 0.757D-02-0.462D-02
 Coeff:     -0.805D-01-0.954D-01 0.356D+00 0.816D+00
 Gap=     0.244 Goal=   None    Shift=    0.000
 RMSDP=1.56D-06 MaxDP=5.00D-05 DE=-3.37D-07 OVMax= 2.94D-04

 Cycle  11  Pass 1  IDiag  1:
 RMSU=  5.62D-07    CP:  9.90D-01  1.34D+00  9.38D-01  8.81D-01  1.37D+00
                    CP:  1.75D+00  1.61D+00  1.58D+00  1.61D+00  1.11D+00
 E= -1028.80014939027     Delta-E=       -0.000000068641 Rises=F Damp=F
 DIIS: error= 3.72D-06 at cycle  11 NSaved=  11.
 NSaved=11 IEnMin=11 EnMin= -1028.80014939027     IErMin=11 ErrMin= 3.72D-06
 ErrMax= 3.72D-06  0.00D+00 EMaxC= 1.00D-01 BMatC= 4.42D-09 BMatP= 1.80D-08
 IDIUse=1 WtCom= 1.00D+00 WtEn= 0.00D+00
 Coeff-Com:  0.287D-03-0.590D-03-0.106D-02-0.103D-02 0.518D-02 0.152D-01
 Coeff-Com: -0.217D-01-0.901D-01-0.417D-01 0.329D+00 0.807D+00
 Coeff:      0.287D-03-0.590D-03-0.106D-02-0.103D-02 0.518D-02 0.152D-01
 Coeff:     -0.217D-01-0.901D-01-0.417D-01 0.329D+00 0.807D+00
 Gap=     0.244 Goal=   None    Shift=    0.000
 RMSDP=7.71D-07 MaxDP=2.07D-05 DE=-6.86D-08 OVMax= 1.19D-04

 Cycle  12  Pass 1  IDiag  1:
 RMSU=  2.48D-07    CP:  9.90D-01  1.34D+00  9.38D-01  8.82D-01  1.37D+00
                    CP:  1.75D+00  1.62D+00  1.63D+00  1.74D+00  1.38D+00
                    CP:  1.10D+00
 E= -1028.80014940318     Delta-E=       -0.000000012908 Rises=F Damp=F
 DIIS: error= 1.62D-06 at cycle  12 NSaved=  12.
 NSaved=12 IEnMin=12 EnMin= -1028.80014940318     IErMin=12 ErrMin= 1.62D-06
 ErrMax= 1.62D-06  0.00D+00 EMaxC= 1.00D-01 BMatC= 6.54D-10 BMatP= 4.42D-09
 IDIUse=1 WtCom= 1.00D+00 WtEn= 0.00D+00
 Coeff-Com:  0.126D-03-0.245D-03-0.521D-03-0.855D-03 0.100D-02 0.852D-02
 Coeff-Com:  0.640D-02-0.175D-01-0.940D-01-0.224D-01 0.322D+00 0.798D+00
 Coeff:      0.126D-03-0.245D-03-0.521D-03-0.855D-03 0.100D-02 0.852D-02
 Coeff:      0.640D-02-0.175D-01-0.940D-01-0.224D-01 0.322D+00 0.798D+00
 Gap=     0.244 Goal=   None    Shift=    0.000
 RMSDP=2.73D-07 MaxDP=9.07D-06 DE=-1.29D-08 OVMax= 4.56D-05

 Cycle  13  Pass 1  IDiag  1:
 RMSU=  9.27D-08    CP:  9.90D-01  1.34D+00  9.38D-01  8.82D-01  1.37D+00
                    CP:  1.75D+00  1.63D+00  1.64D+00  1.79D+00  1.46D+00
                    CP:  1.31D+00  1.01D+00
 E= -1028.80014940510     Delta-E=       -0.000000001922 Rises=F Damp=F
 DIIS: error= 4.93D-07 at cycle  13 NSaved=  13.
 NSaved=13 IEnMin=13 EnMin= -1028.80014940510     IErMin=13 ErrMin= 4.93D-07
 ErrMax= 4.93D-07  0.00D+00 EMaxC= 1.00D-01 BMatC= 7.68D-11 BMatP= 6.54D-10
 IDIUse=1 WtCom= 1.00D+00 WtEn= 0.00D+00
 Coeff-Com: -0.942D-05 0.219D-04 0.263D-04-0.728D-04-0.310D-03 0.333D-03
 Coeff-Com:  0.354D-02 0.707D-02-0.191D-01-0.451D-01-0.482D-01 0.218D+00
 Coeff-Com:  0.884D+00
 Coeff:     -0.942D-05 0.219D-04 0.263D-04-0.728D-04-0.310D-03 0.333D-03
 Coeff:      0.354D-02 0.707D-02-0.191D-01-0.451D-01-0.482D-01 0.218D+00
 Coeff:      0.884D+00
 Gap=     0.244 Goal=   None    Shift=    0.000
 RMSDP=9.82D-08 MaxDP=2.18D-06 DE=-1.92D-09 OVMax= 1.32D-05

 Cycle  14  Pass 1  IDiag  1:
 RMSU=  3.53D-08    CP:  9.90D-01  1.34D+00  9.38D-01  8.82D-01  1.37D+00
                    CP:  1.75D+00  1.63D+00  1.65D+00  1.80D+00  1.50D+00
                    CP:  1.37D+00  1.18D+00  1.12D+00
 E= -1028.80014940529     Delta-E=       -0.000000000186 Rises=F Damp=F
 DIIS: error= 2.27D-07 at cycle  14 NSaved=  14.
 NSaved=14 IEnMin=14 EnMin= -1028.80014940529     IErMin=14 ErrMin= 2.27D-07
 ErrMax= 2.27D-07  0.00D+00 EMaxC= 1.00D-01 BMatC= 1.02D-11 BMatP= 7.68D-11
 IDIUse=1 WtCom= 1.00D+00 WtEn= 0.00D+00
 Coeff-Com: -0.140D-04 0.287D-04 0.550D-04 0.445D-04-0.200D-03-0.594D-03
 Coeff-Com:  0.687D-03 0.471D-02 0.166D-02-0.127D-01-0.512D-01 0.115D-01
 Coeff-Com:  0.356D+00 0.690D+00
 Coeff:     -0.140D-04 0.287D-04 0.550D-04 0.445D-04-0.200D-03-0.594D-03
 Coeff:      0.687D-03 0.471D-02 0.166D-02-0.127D-01-0.512D-01 0.115D-01
 Coeff:      0.356D+00 0.690D+00
 Gap=     0.244 Goal=   None    Shift=    0.000
 RMSDP=1.94D-08 MaxDP=4.33D-07 DE=-1.86D-10 OVMax= 1.81D-06

 Cycle  15  Pass 1  IDiag  1:
 RMSU=  1.37D-08    CP:  9.90D-01  1.34D+00  9.38D-01  8.82D-01  1.37D+00
                    CP:  1.75D+00  1.63D+00  1.65D+00  1.80D+00  1.50D+00
                    CP:  1.37D+00  1.20D+00  1.23D+00  1.01D+00
 E= -1028.80014940532     Delta-E=       -0.000000000030 Rises=F Damp=F
 DIIS: error= 7.90D-08 at cycle  15 NSaved=  15.
 NSaved=15 IEnMin=15 EnMin= -1028.80014940532     IErMin=15 ErrMin= 7.90D-08
 ErrMax= 7.90D-08  0.00D+00 EMaxC= 1.00D-01 BMatC= 1.27D-12 BMatP= 1.02D-11
 IDIUse=1 WtCom= 1.00D+00 WtEn= 0.00D+00
 Coeff-Com: -0.345D-05 0.638D-05 0.164D-04 0.351D-04-0.192D-04-0.337D-03
 Coeff-Com: -0.630D-03 0.182D-03 0.459D-02 0.634D-02-0.850D-02-0.457D-01
 Coeff-Com: -0.576D-01 0.203D+00 0.899D+00
 Coeff:     -0.345D-05 0.638D-05 0.164D-04 0.351D-04-0.192D-04-0.337D-03
 Coeff:     -0.630D-03 0.182D-03 0.459D-02 0.634D-02-0.850D-02-0.457D-01
 Coeff:     -0.576D-01 0.203D+00 0.899D+00
 Gap=     0.244 Goal=   None    Shift=    0.000
 RMSDP=1.12D-08 MaxDP=2.61D-07 DE=-2.96D-11 OVMax= 1.43D-06

 Cycle  16  Pass 1  IDiag  1:
 RMSU=  5.10D-09    CP:  9.90D-01  1.34D+00  9.38D-01  8.82D-01  1.37D+00
                    CP:  1.75D+00  1.63D+00  1.65D+00  1.80D+00  1.50D+00
                    CP:  1.38D+00  1.22D+00  1.29D+00  1.18D+00  1.11D+00
 E= -1028.80014940532     Delta-E=       -0.000000000001 Rises=F Damp=F
 DIIS: error= 2.73D-08 at cycle  16 NSaved=  16.
 NSaved=16 IEnMin=16 EnMin= -1028.80014940532     IErMin=16 ErrMin= 2.73D-08
 ErrMax= 2.73D-08  0.00D+00 EMaxC= 1.00D-01 BMatC= 1.79D-13 BMatP= 1.27D-12
 IDIUse=1 WtCom= 1.00D+00 WtEn= 0.00D+00
 Coeff-Com:  0.223D-07-0.221D-06 0.787D-06 0.759D-05 0.783D-05-0.572D-04
 Coeff-Com: -0.240D-03-0.297D-03 0.105D-02 0.284D-02 0.138D-02-0.159D-01
 Coeff-Com: -0.456D-01-0.269D-01 0.271D+00 0.813D+00
 Coeff:      0.223D-07-0.221D-06 0.787D-06 0.759D-05 0.783D-05-0.572D-04
 Coeff:     -0.240D-03-0.297D-03 0.105D-02 0.284D-02 0.138D-02-0.159D-01
 Coeff:     -0.456D-01-0.269D-01 0.271D+00 0.813D+00
 Gap=     0.244 Goal=   None    Shift=    0.000
 RMSDP=3.91D-09 MaxDP=1.09D-07 DE=-6.82D-13 OVMax= 4.75D-07

 Error on total polarization charges =  0.00867
 SCF Done:  E(RwB97XD) =  -1028.80014941     A.U. after   16 cycles
            NFock= 16  Conv=0.39D-08     -V/T= 2.0048
 KE= 1.023915122139D+03 PE=-4.611769655452D+03 EE= 1.459184684137D+03
 Leave Link  502 at Tue Oct 27 22:32:02 2020, MaxMem=  7784628224 cpu:             881.3 elap:              88.9
 (Enter /gpfs/loomis/apps/avx/software/Gaussian/16-C.01_AVX/g16/l601.exe)
 Copying SCF densities to generalized density rwf, IOpCl= 0 IROHF=0.

 **********************************************************************

            Population analysis using the SCF Density.

 **********************************************************************

 Alpha  occ. eigenvalues --  -89.10430 -19.21350 -14.51124 -10.41515 -10.37498
 Alpha  occ. eigenvalues --  -10.36228 -10.36036 -10.33282 -10.32779 -10.32422
 Alpha  occ. eigenvalues --  -10.32296 -10.31590 -10.30976 -10.30954 -10.29368
 Alpha  occ. eigenvalues --  -10.28617  -8.12427  -6.07295  -6.06935  -6.06448
 Alpha  occ. eigenvalues --   -1.13304  -1.09463  -0.98334  -0.95467  -0.93298
 Alpha  occ. eigenvalues --   -0.89178  -0.86647  -0.83816  -0.81478  -0.76183
 Alpha  occ. eigenvalues --   -0.73147  -0.72034  -0.68755  -0.67953  -0.65298
 Alpha  occ. eigenvalues --   -0.60882  -0.59672  -0.56881  -0.55704  -0.55623
 Alpha  occ. eigenvalues --   -0.54898  -0.53761  -0.53074  -0.50695  -0.49349
 Alpha  occ. eigenvalues --   -0.48926  -0.48454  -0.46846  -0.45342  -0.44936
 Alpha  occ. eigenvalues --   -0.44254  -0.43150  -0.42200  -0.40348  -0.36756
 Alpha  occ. eigenvalues --   -0.33497  -0.32279  -0.31444  -0.26279
 Alpha virt. eigenvalues --   -0.01900   0.03843   0.05822   0.06358   0.09075
 Alpha virt. eigenvalues --    0.10548   0.13728   0.14729   0.16368   0.17510
 Alpha virt. eigenvalues --    0.18901   0.20337   0.21317   0.21392   0.23042
 Alpha virt. eigenvalues --    0.23634   0.24076   0.25445   0.28794   0.29269
 Alpha virt. eigenvalues --    0.31296   0.33682   0.35542   0.35839   0.36628
 Alpha virt. eigenvalues --    0.38339   0.39268   0.40019   0.41889   0.43895
 Alpha virt. eigenvalues --    0.46633   0.48274   0.50772   0.51039   0.51455
 Alpha virt. eigenvalues --    0.52794   0.52926   0.53123   0.54601   0.55269
 Alpha virt. eigenvalues --    0.56283   0.56329   0.56605   0.56614   0.57891
 Alpha virt. eigenvalues --    0.58178   0.58566   0.59311   0.59730   0.59749
 Alpha virt. eigenvalues --    0.60747   0.61363   0.61882   0.62607   0.62957
 Alpha virt. eigenvalues --    0.64859   0.66278   0.67033   0.68514   0.68699
 Alpha virt. eigenvalues --    0.70356   0.70861   0.72062   0.72373   0.73013
 Alpha virt. eigenvalues --    0.74078   0.75081   0.75779   0.76100   0.77850
 Alpha virt. eigenvalues --    0.78978   0.79465   0.80631   0.81499   0.82456
 Alpha virt. eigenvalues --    0.83277   0.88276   0.88896   0.91229   0.92670
 Alpha virt. eigenvalues --    0.94030   0.94537   0.95806   0.96741   0.97273
 Alpha virt. eigenvalues --    0.98618   0.99087   1.00164   1.00628   1.01308
 Alpha virt. eigenvalues --    1.02670   1.05171   1.05984   1.06146   1.07366
 Alpha virt. eigenvalues --    1.08162   1.09006   1.10269   1.11097   1.11265
 Alpha virt. eigenvalues --    1.12555   1.12913   1.13210   1.14804   1.15133
 Alpha virt. eigenvalues --    1.16794   1.19158   1.20143   1.23360   1.23871
 Alpha virt. eigenvalues --    1.26600   1.27570   1.32690   1.33656   1.34033
 Alpha virt. eigenvalues --    1.34617   1.36975   1.38287   1.40821   1.46013
 Alpha virt. eigenvalues --    1.49158   1.49478   1.53335   1.54255   1.54856
 Alpha virt. eigenvalues --    1.56744   1.57174   1.57513   1.58472   1.59573
 Alpha virt. eigenvalues --    1.60310   1.61364   1.64320   1.65425   1.67651
 Alpha virt. eigenvalues --    1.68469   1.69998   1.71088   1.71393   1.71708
 Alpha virt. eigenvalues --    1.72109   1.72725   1.73373   1.73830   1.75059
 Alpha virt. eigenvalues --    1.78285   1.79682   1.80358   1.81420   1.82059
 Alpha virt. eigenvalues --    1.82995   1.84681   1.84862   1.85363   1.86217
 Alpha virt. eigenvalues --    1.86683   1.89339   1.90965   1.91807   1.92091
 Alpha virt. eigenvalues --    1.93224   1.93825   1.95573   1.96330   1.97278
 Alpha virt. eigenvalues --    1.98900   2.00355   2.01071   2.03549   2.04526
 Alpha virt. eigenvalues --    2.06203   2.07263   2.09764   2.10318   2.14298
 Alpha virt. eigenvalues --    2.15992   2.17389   2.21306   2.21830   2.23978
 Alpha virt. eigenvalues --    2.27202   2.29631   2.33488   2.38296   2.40192
 Alpha virt. eigenvalues --    2.41011   2.42574   2.46735   2.48636   2.49671
 Alpha virt. eigenvalues --    2.52131   2.52140   2.53695   2.55510   2.61944
 Alpha virt. eigenvalues --    2.62602   2.70394   2.74284   2.75075   2.79914
 Alpha virt. eigenvalues --    2.81944   2.82924   2.85695   2.86634   2.90157
 Alpha virt. eigenvalues --    2.92686   3.02064   3.15119   3.28701   3.46006
 Alpha virt. eigenvalues --    3.49462   3.57047   3.57996   3.76102
          Condensed to atoms (all electrons):
               1          2          3          4          5          6
     1  C    4.724387   0.489015   0.005988  -0.051083  -0.012382   0.515473
     2  C    0.489015   5.343403   0.296726  -0.055495  -0.069141  -0.007317
     3  C    0.005988   0.296726   4.862743   0.519229  -0.002231  -0.066159
     4  C   -0.051083  -0.055495   0.519229   4.778297   0.520689  -0.013814
     5  C   -0.012382  -0.069141  -0.002231   0.520689   4.720961   0.498994
     6  C    0.515473  -0.007317  -0.066159  -0.013814   0.498994   4.734672
     7  H    0.404281  -0.040034   0.009032  -0.000573   0.008156  -0.038680
     8  H   -0.000600   0.010865  -0.026765   0.393992  -0.041250   0.007432
     9  H    0.008730  -0.000430   0.008312  -0.038253   0.405373  -0.044076
    10  H   -0.042388   0.009560  -0.000531   0.008616  -0.042810   0.407417
    11  N    0.004040  -0.038039   0.385343  -0.051771   0.002512   0.000326
    12  S   -0.066337   0.334368  -0.124342   0.004606   0.000219   0.003944
    13  C   -0.000214   0.000905   0.013402  -0.000472   0.000011   0.000000
    14  C   -0.000006   0.000069   0.000335   0.000006  -0.000000  -0.000000
    15  C    0.000002  -0.000264   0.000436   0.000053  -0.000001   0.000000
    16  C    0.000000  -0.000003   0.000004  -0.000000   0.000000   0.000000
    17  H   -0.000005   0.000107   0.000000   0.000000   0.000000   0.000000
    18  C    0.000000   0.000009  -0.000034  -0.000000  -0.000000  -0.000000
    19  C   -0.000000   0.000000   0.000002  -0.000000   0.000000   0.000000
    20  H   -0.000000  -0.000000  -0.000000   0.000000  -0.000000  -0.000000
    21  H   -0.000000   0.000000  -0.000000  -0.000000  -0.000000   0.000000
    22  H    0.000000  -0.000000  -0.000000  -0.000000   0.000000  -0.000000
    23  C    0.003403  -0.048660  -0.107150   0.002570   0.000283  -0.000257
    24  O    0.000002  -0.000197  -0.000549   0.000021   0.000000  -0.000000
    25  H    0.000160   0.009565  -0.033323  -0.006539  -0.000130  -0.000011
               7          8          9         10         11         12
     1  C    0.404281  -0.000600   0.008730  -0.042388   0.004040  -0.066337
     2  C   -0.040034   0.010865  -0.000430   0.009560  -0.038039   0.334368
     3  C    0.009032  -0.026765   0.008312  -0.000531   0.385343  -0.124342
     4  C   -0.000573   0.393992  -0.038253   0.008616  -0.051771   0.004606
     5  C    0.008156  -0.041250   0.405373  -0.042810   0.002512   0.000219
     6  C   -0.038680   0.007432  -0.044076   0.407417   0.000326   0.003944
     7  H    0.651098   0.000029  -0.000144  -0.011644  -0.000095  -0.007145
     8  H    0.000029   0.641186  -0.011929  -0.000116  -0.004283  -0.000238
     9  H   -0.000144  -0.011929   0.658106  -0.012243  -0.000109   0.000022
    10  H   -0.011644  -0.000116  -0.012243   0.658051   0.000004  -0.000142
    11  N   -0.000095  -0.004283  -0.000109   0.000004   6.051979  -0.050357
    12  S   -0.007145  -0.000238   0.000022  -0.000142  -0.050357  15.439719
    13  C    0.000004   0.000042  -0.000000  -0.000000  -0.029721  -0.065338
    14  C    0.000001   0.000001   0.000000  -0.000000   0.003375  -0.007859
    15  C   -0.000000  -0.000003   0.000000   0.000000  -0.004218   0.004325
    16  C    0.000000  -0.000000  -0.000000  -0.000000  -0.000088   0.000054
    17  H    0.000001   0.000000  -0.000000  -0.000000   0.000250   0.006968
    18  C    0.000000  -0.000000  -0.000000  -0.000000  -0.000545  -0.000127
    19  C    0.000000   0.000000  -0.000000   0.000000   0.000041   0.000020
    20  H    0.000000  -0.000000   0.000000   0.000000   0.000001   0.000002
    21  H   -0.000000   0.000000  -0.000000   0.000000   0.000015   0.000004
    22  H    0.000000  -0.000000  -0.000000  -0.000000  -0.000000  -0.000001
    23  C    0.000171  -0.000661   0.000006   0.000004   0.524524   0.320124
    24  O    0.000000  -0.000217   0.000000  -0.000000  -0.060002  -0.000229
    25  H    0.000005   0.000934  -0.000010  -0.000000   0.342314   0.004246
              13         14         15         16         17         18
     1  C   -0.000214  -0.000006   0.000002   0.000000  -0.000005   0.000000
     2  C    0.000905   0.000069  -0.000264  -0.000003   0.000107   0.000009
     3  C    0.013402   0.000335   0.000436   0.000004   0.000000  -0.000034
     4  C   -0.000472   0.000006   0.000053  -0.000000   0.000000  -0.000000
     5  C    0.000011  -0.000000  -0.000001   0.000000   0.000000  -0.000000
     6  C    0.000000  -0.000000   0.000000   0.000000   0.000000  -0.000000
     7  H    0.000004   0.000001  -0.000000   0.000000   0.000001   0.000000
     8  H    0.000042   0.000001  -0.000003  -0.000000   0.000000  -0.000000
     9  H   -0.000000   0.000000   0.000000  -0.000000  -0.000000  -0.000000
    10  H   -0.000000  -0.000000   0.000000  -0.000000  -0.000000  -0.000000
    11  N   -0.029721   0.003375  -0.004218  -0.000088   0.000250  -0.000545
    12  S   -0.065338  -0.007859   0.004325   0.000054   0.006968  -0.000127
    13  C    5.451800   0.434419   0.187914  -0.005564  -0.041567  -0.039849
    14  C    0.434419   4.847384   0.010255   0.538236   0.399336  -0.060830
    15  C    0.187914   0.010255   4.739589  -0.057024   0.006583   0.476155
    16  C   -0.005564   0.538236  -0.057024   4.764720  -0.032529  -0.019076
    17  H   -0.041567   0.399336   0.006583  -0.032529   0.679915  -0.000863
    18  C   -0.039849  -0.060830   0.476155  -0.019076  -0.000863   4.873717
    19  C   -0.052210  -0.017953  -0.008018   0.478092   0.008369   0.503532
    20  H    0.009151  -0.036377  -0.000169   0.400360  -0.012348   0.008313
    21  H    0.015430  -0.000657  -0.023303   0.007662   0.000053   0.372160
    22  H   -0.001555   0.009636   0.008829  -0.046450  -0.000193  -0.039562
    23  C    0.353086  -0.095997  -0.075023   0.006594  -0.020627   0.009555
    24  O   -0.091753   0.006158   0.627330  -0.000124  -0.000073  -0.064906
    25  H   -0.038207  -0.000701  -0.015095   0.000054  -0.000068   0.003930
              19         20         21         22         23         24
     1  C   -0.000000  -0.000000  -0.000000   0.000000   0.003403   0.000002
     2  C    0.000000  -0.000000   0.000000  -0.000000  -0.048660  -0.000197
     3  C    0.000002  -0.000000  -0.000000  -0.000000  -0.107150  -0.000549
     4  C   -0.000000   0.000000  -0.000000  -0.000000   0.002570   0.000021
     5  C    0.000000  -0.000000  -0.000000   0.000000   0.000283   0.000000
     6  C    0.000000  -0.000000   0.000000  -0.000000  -0.000257  -0.000000
     7  H    0.000000   0.000000  -0.000000   0.000000   0.000171   0.000000
     8  H    0.000000  -0.000000   0.000000  -0.000000  -0.000661  -0.000217
     9  H   -0.000000   0.000000  -0.000000  -0.000000   0.000006   0.000000
    10  H    0.000000   0.000000   0.000000  -0.000000   0.000004  -0.000000
    11  N    0.000041   0.000001   0.000015  -0.000000   0.524524  -0.060002
    12  S    0.000020   0.000002   0.000004  -0.000001   0.320124  -0.000229
    13  C   -0.052210   0.009151   0.015430  -0.001555   0.353086  -0.091753
    14  C   -0.017953  -0.036377  -0.000657   0.009636  -0.095997   0.006158
    15  C   -0.008018  -0.000169  -0.023303   0.008829  -0.075023   0.627330
    16  C    0.478092   0.400360   0.007662  -0.046450   0.006594  -0.000124
    17  H    0.008369  -0.012348   0.000053  -0.000193  -0.020627  -0.000073
    18  C    0.503532   0.008313   0.372160  -0.039562   0.009555  -0.064906
    19  C    4.743365  -0.047418  -0.047469   0.403295   0.000412   0.004406
    20  H   -0.047418   0.688809  -0.000166  -0.012556  -0.000386   0.000001
    21  H   -0.047469  -0.000166   0.680594  -0.012791  -0.000463   0.005405
    22  H    0.403295  -0.012556  -0.012791   0.676103   0.000008  -0.000081
    23  C    0.000412  -0.000386  -0.000463   0.000008   5.092142  -0.014455
    24  O    0.004406   0.000001   0.005405  -0.000081  -0.014455   7.878248
    25  H   -0.000396  -0.000001   0.000012   0.000007   0.016231   0.117333
              25
     1  C    0.000160
     2  C    0.009565
     3  C   -0.033323
     4  C   -0.006539
     5  C   -0.000130
     6  C   -0.000011
     7  H    0.000005
     8  H    0.000934
     9  H   -0.000010
    10  H   -0.000000
    11  N    0.342314
    12  S    0.004246
    13  C   -0.038207
    14  C   -0.000701
    15  C   -0.015095
    16  C    0.000054
    17  H   -0.000068
    18  C    0.003930
    19  C   -0.000396
    20  H   -0.000001
    21  H    0.000012
    22  H    0.000007
    23  C    0.016231
    24  O    0.117333
    25  H    0.507528
 Mulliken charges:
               1
     1  C    0.017534
     2  C   -0.235013
     3  C    0.259534
     4  C   -0.010081
     5  C    0.010746
     6  C    0.002057
     7  H    0.025539
     8  H    0.031581
     9  H    0.026646
    10  H    0.026219
    11  N   -0.075496
    12  S    0.203494
    13  C   -0.099715
    14  C   -0.028830
    15  C    0.121643
    16  C   -0.034917
    17  H    0.006691
    18  C   -0.021579
    19  C    0.031930
    20  H    0.002785
    21  H    0.003515
    22  H    0.015310
    23  C    0.034566
    24  O   -0.406319
    25  H    0.092161
 Sum of Mulliken charges =  -0.00000
 Mulliken charges with hydrogens summed into heavy atoms:
               1
     1  C    0.043072
     2  C   -0.235013
     3  C    0.259534
     4  C    0.021499
     5  C    0.037392
     6  C    0.028276
    11  N    0.016664
    12  S    0.203494
    13  C   -0.099715
    14  C   -0.022139
    15  C    0.121643
    16  C   -0.032132
    18  C   -0.018063
    19  C    0.047240
    23  C    0.034566
    24  O   -0.406319
 Electronic spatial extent (au):  <R**2>=           4337.3407
 Charge=              0.0000 electrons
 Dipole moment (field-independent basis, Debye):
    X=              1.3608    Y=             -5.2815    Z=             -0.0001  Tot=              5.4540
 Quadrupole moment (field-independent basis, Debye-Ang):
   XX=            -82.6970   YY=            -94.1288   ZZ=           -104.0968
   XY=             -6.8333   XZ=             -0.0001   YZ=             -0.0000
 Traceless Quadrupole moment (field-independent basis, Debye-Ang):
   XX=             10.9439   YY=             -0.4879   ZZ=            -10.4560
   XY=             -6.8333   XZ=             -0.0001   YZ=             -0.0000
 Octapole moment (field-independent basis, Debye-Ang**2):
  XXX=             32.9349  YYY=            -54.1548  ZZZ=             -0.0001  XYY=              0.7120
  XXY=             -8.1628  XXZ=             -0.0000  XZZ=              2.2378  YZZ=              1.9838
  YYZ=              0.0000  XYZ=             -0.0006
 Hexadecapole moment (field-independent basis, Debye-Ang**3):
 XXXX=          -2605.0350 YYYY=          -2652.9405 ZZZZ=           -113.0009 XXXY=            812.6681
 XXXZ=              0.0097 YYYX=            771.5784 YYYZ=             -0.0136 ZZZX=              0.0135
 ZZZY=             -0.0180 XXYY=           -847.8178 XXZZ=           -572.1796 YYZZ=           -547.2095
 XXYZ=             -0.0035 YYXZ=              0.0011 ZZXY=            358.3173
 N-N= 1.099869699770D+03 E-N=-4.611769657539D+03  KE= 1.023915122139D+03
 No NMR shielding tensors so no spin-rotation constants.
 Leave Link  601 at Tue Oct 27 22:32:03 2020, MaxMem=  7784628224 cpu:               3.2 elap:               0.4
 (Enter /gpfs/loomis/apps/avx/software/Gaussian/16-C.01_AVX/g16/l701.exe)
 ... and contract with generalized density number  0.
 Compute integral first derivatives.
 R6Disp: Adding Grimme-D2 dispersion energy 1st derivatives to the gradient.
 D1PCM: PCM CHGder 1st derivatives, ID1Alg=3 FixD1E=F DoIter=F DoCFld=F I1PDM=0.
 GePol: Maximum number of non-zero 1st derivatives   =     260
 Leave Link  701 at Tue Oct 27 22:32:05 2020, MaxMem=  7784628224 cpu:              18.4 elap:               2.0
 (Enter /gpfs/loomis/apps/avx/software/Gaussian/16-C.01_AVX/g16/l702.exe)
 L702 exits ... SP integral derivatives will be done elsewhere.
 Leave Link  702 at Tue Oct 27 22:32:05 2020, MaxMem=  7784628224 cpu:               0.4 elap:               0.1
 (Enter /gpfs/loomis/apps/avx/software/Gaussian/16-C.01_AVX/g16/l703.exe)
 Integral derivatives from FoFJK, PRISM(SPDF).
 Compute integral first derivatives, UseDBF=F ICtDFT=           0.
 Calling FoFJK, ICntrl=      2127 FMM=F ISym2X=0 I1Cent= 0 IOpClX= 0 NMat=1 NMatS=1 NMatT=0.
 FoFJK:  IHMeth= 1 ICntrl=    2127 DoSepK=T KAlg= 0 I1Cent=           0 FoldK=F
 IRaf=         1 NMat=       1 IRICut=       1 DoRegI=T DoRafI=F ISym2E= 0 IDoP0=0 IntGTp=1.
 FoFCou: FMM=F IPFlag=           0 FMFlag=      100000 FMFlg1=         800
         NFxFlg=           0 DoJE=F BraDBF=F KetDBF=F FulRan=T
         wScrn=  0.000000 ICntrl=      2527 IOpCl=  0 I1Cent=           0 NGrid=           0
         NMat0=    1 NMatS0=      1 NMatT0=    0 NMatD0=    1 NMtDS0=    0 NMtDT0=    0
 Symmetry not used in FoFCou.
 Leave Link  703 at Tue Oct 27 22:32:20 2020, MaxMem=  7784628224 cpu:             139.5 elap:              15.3
 (Enter /gpfs/loomis/apps/avx/software/Gaussian/16-C.01_AVX/g16/l716.exe)
 Dipole        = 5.35372303D-01-2.07791187D+00-2.75498691D-05
 -------------------------------------------------------------------
 Center     Atomic                   Forces (Hartrees/Bohr)
 Number     Number              X              Y              Z
 -------------------------------------------------------------------
      1        6           0.001985167    0.000983427   -0.000000021
      2        6           0.007009615    0.007931853   -0.000000149
      3        6           0.010470190   -0.017302340   -0.000000157
      4        6          -0.003958047    0.002026712    0.000000055
      5        6           0.000732561   -0.001173844    0.000000032
      6        6          -0.001611077    0.002369865   -0.000000043
      7        1           0.000163346    0.000295225   -0.000000042
      8        1           0.000030603   -0.000159764    0.000000010
      9        1          -0.000283350    0.000084232   -0.000000002
     10        1          -0.000112452    0.000155753    0.000000003
     11        7          -0.047471679   -0.093971302   -0.000001308
     12       16           0.005402845    0.009383169   -0.000000123
     13        6           0.019145525    0.017555739   -0.000000126
     14        6          -0.034343103    0.021023423    0.000000347
     15        6           0.013184349   -0.017202299   -0.000000190
     16        6           0.004792051   -0.034330837   -0.000000622
     17        1          -0.001234724   -0.000507132   -0.000000011
     18        6          -0.021430713    0.000717737    0.000000428
     19        6           0.027396398    0.004591624   -0.000000009
     20        1           0.000277958   -0.000318870   -0.000000008
     21        1          -0.000409471   -0.000000053   -0.000000134
     22        1          -0.000476499    0.001011455   -0.000000012
     23        6           0.003264467    0.010991510    0.000000570
     24        8          -0.005547005    0.011219194   -0.000000132
     25        1           0.023023043    0.074625522    0.000001645
 -------------------------------------------------------------------
 Cartesian Forces:  Max     0.093971302 RMS     0.017643498
 Leave Link  716 at Tue Oct 27 22:32:20 2020, MaxMem=  7784628224 cpu:               0.2 elap:               0.0
 (Enter /gpfs/loomis/apps/avx/software/Gaussian/16-C.01_AVX/g16/l103.exe)

 GradGradGradGradGradGradGradGradGradGradGradGradGradGradGradGradGradGrad
 Berny optimization.
 FormGI is forming the generalized inverse of G from B-inverse, IUseBI=4.
 GSVD:  received Info=                   1 from GESDD.
 Internal  Forces:  Max     0.055315643 RMS     0.008168614
 Search for a local minimum.
 Step number   1 out of a maximum of  146
 All quantities printed in internal units (Hartrees-Bohrs-Radians)
 RMS Force = .82292D-02 SwitMx=.10000D-02 MixMth= 1
 Mixed Optimization -- RFO/linear search
 Second derivative matrix not updated -- first step.
 ITU=  0
     Eigenvalues ---    0.01330   0.01516   0.01525   0.01711   0.01750
     Eigenvalues ---    0.01780   0.01828   0.01960   0.01995   0.01999
     Eigenvalues ---    0.02016   0.02028   0.02055   0.02103   0.02108
     Eigenvalues ---    0.02110   0.02121   0.02122   0.02134   0.02157
     Eigenvalues ---    0.02169   0.02174   0.16000   0.16000   0.16000
     Eigenvalues ---    0.16000   0.16000   0.16000   0.16000   0.16003
     Eigenvalues ---    0.17288   0.22004   0.22011   0.22534   0.22585
     Eigenvalues ---    0.24372   0.24474   0.24596   0.25000   0.25000
     Eigenvalues ---    0.28525   0.29183   0.32504   0.34553   0.34665
     Eigenvalues ---    0.34671   0.34712   0.34715   0.34741   0.34755
     Eigenvalues ---    0.34779   0.35013   0.39242   0.40794   0.41962
     Eigenvalues ---    0.42357   0.43413   0.43583   0.44653   0.45759
     Eigenvalues ---    0.46354   0.46613   0.47011   0.47076   0.47765
     Eigenvalues ---    0.51105   0.743821000.000001000.000001000.00000
     Eigenvalues --- 1000.000001000.000001000.000001000.000001000.00000
     Eigenvalues --- 1000.000001000.000001000.000001000.000001000.00000
     Eigenvalues --- 1000.000001000.000001000.000001000.000001000.00000
     Eigenvalues --- 1000.000001000.000001000.000001000.000001000.00000
     Eigenvalues --- 1000.000001000.000001000.000001000.000001000.00000
     Eigenvalues --- 1000.000001000.000001000.000001000.000001000.00000
     Eigenvalues --- 1000.000001000.000001000.000001000.000001000.00000
     Eigenvalues --- 1000.000001000.000001000.000001000.000001000.00000
     Eigenvalues --- 1000.000001000.000001000.000001000.000001000.00000
     Eigenvalues --- 1000.000001000.000001000.000001000.000001000.00000
     Eigenvalues --- 1000.000001000.000001000.000001000.000001000.00000
     Eigenvalues --- 1000.000001000.000001000.000001000.000001000.00000
     Eigenvalues --- 1000.000001000.000001000.000001000.000001000.00000
     Eigenvalues --- 1000.00000
 RFO step:  Lambda=-2.42639631D-02 EMin= 1.32956597D-02
 Linear search not attempted -- first point.
 Iteration  1 RMS(Cart)=  0.03230487 RMS(Int)=  0.00146677
 Iteration  2 RMS(Cart)=  0.00208955 RMS(Int)=  0.00110306
 Iteration  3 RMS(Cart)=  0.00000844 RMS(Int)=  0.00111221
 Iteration  4 RMS(Cart)=  0.00000007 RMS(Int)=  0.00111179
 Iteration  1 RMS(Cart)=  0.00001675 RMS(Int)=  0.00001209
 Iteration  2 RMS(Cart)=  0.00000018 RMS(Int)=  0.00000941
 ITry= 1 IFail=0 DXMaxC= 1.94D-01 DCOld= 1.00D+10 DXMaxT= 3.00D-01 DXLimC= 3.00D+00 Rises=F
 Variable       Old X    -DE/DX   Delta X   Delta X   Delta X     New X
                                 (Linear)    (Quad)   (Total)
    R1        2.63290  -0.00201   0.00000  -0.00154  -0.00105   2.63185
    R2        2.63386  -0.00008   0.00000   0.00184   0.00190   2.63577
    R3        2.06133  -0.00060   0.00000  -0.00123  -0.00116   2.06016
    R4        2.68432  -0.02594   0.00000  -0.04822  -0.04604   2.63828
    R5        3.32047   0.00809   0.00000   0.02207   0.02105   3.34152
    R6        2.64711  -0.00475   0.00000  -0.01164  -0.01168   2.63542
    R7        2.59514   0.00116   0.00000   0.00203   0.00265   2.59779
    R8        2.62755  -0.00183   0.00000  -0.00520  -0.00545   2.62210
    R9        2.06074  -0.00005   0.00000  -0.00019  -0.00021   2.06053
   R10        2.64946  -0.00399   0.00000  -0.00418  -0.00363   2.64583
   R11        2.06221  -0.00031   0.00000  -0.00076  -0.00075   2.06146
   R12        2.06097  -0.00025   0.00000  -0.00062  -0.00061   2.06036
   R13        2.56943  -0.01277   0.00000  -0.02879  -0.02980   2.53964
   R14        1.84991   0.05532   0.00000   0.12729   0.13255   1.98246
   R15        3.31450  -0.00956   0.00000  -0.00970  -0.00746   3.30704
   R16        2.62611   0.01825   0.00000   0.04206   0.04298   2.66909
   R17        2.80463  -0.00875   0.00000  -0.01375  -0.01241   2.79223
   R18        2.68973   0.00690   0.00000   0.00915   0.00799   2.69772
   R19        2.66969  -0.02593   0.00000  -0.06252  -0.06371   2.60598
   R20        2.06407   0.00080   0.00000   0.00230   0.00231   2.06638
   R21        2.68883   0.00872   0.00000   0.01156   0.01006   2.69889
   R22        2.40260  -0.01086   0.00000  -0.00772  -0.00564   2.39696
   R23        2.64572   0.00650   0.00000   0.01608   0.01678   2.66250
   R24        2.06211  -0.00014   0.00000  -0.00055  -0.00058   2.06153
   R25        2.63702  -0.01405   0.00000  -0.03437  -0.03528   2.60173
   R26        2.06141  -0.00017   0.00000  -0.00035  -0.00033   2.06108
   R27        2.06028   0.00127   0.00000   0.00312   0.00308   2.06336
    A1        2.06381   0.00091   0.00000   0.00042  -0.00013   2.06368
    A2        2.10736  -0.00074   0.00000  -0.00027   0.00011   2.10746
    A3        2.11202  -0.00017   0.00000  -0.00015   0.00002   2.11204
    A4        2.12370  -0.00360   0.00000  -0.01575  -0.01548   2.10822
    A5        2.22406   0.00754   0.00000   0.03391   0.03435   2.25841
    A6        1.93542  -0.00394   0.00000  -0.01816  -0.01887   1.91655
    A7        2.08186   0.00965   0.00000   0.03027   0.02978   2.11165
    A8        1.97578  -0.00811   0.00000  -0.01809  -0.01648   1.95930
    A9        2.22555  -0.00154   0.00000  -0.01218  -0.01331   2.21224
   A10        2.07198  -0.00233   0.00000  -0.00819  -0.00783   2.06415
   A11        2.09431   0.00142   0.00000   0.00438   0.00413   2.09843
   A12        2.11690   0.00092   0.00000   0.00381   0.00370   2.12060
   A13        2.12286  -0.00444   0.00000  -0.01271  -0.01243   2.11043
   A14        2.07687   0.00207   0.00000   0.00513   0.00497   2.08184
   A15        2.08345   0.00237   0.00000   0.00758   0.00746   2.09091
   A16        2.10216  -0.00019   0.00000   0.00596   0.00607   2.10823
   A17        2.08819   0.00017   0.00000  -0.00226  -0.00231   2.08588
   A18        2.09283   0.00002   0.00000  -0.00369  -0.00376   2.08907
   A19        1.97244   0.02391   0.00000   0.06773   0.06577   2.03821
   A20        2.41913  -0.03453   0.00000  -0.12905  -0.12524   2.29389
   A21        1.89161   0.01063   0.00000   0.06132   0.05947   1.95108
   A22        1.55666   0.01014   0.00000   0.03392   0.03268   1.58935
   A23        2.07975   0.00200   0.00000   0.00771   0.00743   2.08719
   A24        2.16541  -0.00571   0.00000  -0.02601  -0.02673   2.13868
   A25        2.03802   0.00371   0.00000   0.01830   0.01930   2.05732
   A26        2.10187   0.00447   0.00000   0.01565   0.01535   2.11723
   A27        2.10035  -0.00129   0.00000  -0.00197  -0.00176   2.09858
   A28        2.08096  -0.00318   0.00000  -0.01368  -0.01359   2.06737
   A29        2.06000  -0.00996   0.00000  -0.03046  -0.03008   2.02992
   A30        2.09204   0.00976   0.00000   0.05234   0.05428   2.14632
   A31        2.13114   0.00020   0.00000  -0.02188  -0.02420   2.10694
   A32        2.11759  -0.00644   0.00000  -0.02791  -0.02779   2.08980
   A33        2.07348   0.00304   0.00000   0.01293   0.01287   2.08635
   A34        2.09212   0.00341   0.00000   0.01498   0.01492   2.10704
   A35        2.11448   0.00383   0.00000   0.01089   0.01061   2.12509
   A36        2.03792  -0.00143   0.00000  -0.00367  -0.00359   2.03433
   A37        2.13079  -0.00240   0.00000  -0.00723  -0.00702   2.12377
   A38        2.09267   0.00611   0.00000   0.02412   0.02448   2.11715
   A39        2.09308  -0.00297   0.00000  -0.01015  -0.01021   2.08287
   A40        2.09743  -0.00314   0.00000  -0.01397  -0.01426   2.08317
   A41        1.98447  -0.02199   0.00000  -0.06540  -0.06311   1.92137
   A42        2.10136   0.01124   0.00000   0.02961   0.02830   2.12966
   A43        2.19735   0.01075   0.00000   0.03579   0.03480   2.23215
    D1       -0.00000   0.00000   0.00000   0.00000   0.00000   0.00000
    D2       -3.14159  -0.00000   0.00000  -0.00000  -0.00000  -3.14159
    D3        3.14159   0.00000   0.00000   0.00000   0.00000   3.14159
    D4       -0.00000  -0.00000   0.00000  -0.00000   0.00000  -0.00000
    D5       -0.00000  -0.00000   0.00000   0.00000   0.00000  -0.00000
    D6        3.14159   0.00000   0.00000   0.00000   0.00000   3.14159
    D7       -3.14159  -0.00000   0.00000  -0.00000  -0.00000  -3.14159
    D8        0.00000  -0.00000   0.00000  -0.00000  -0.00000   0.00000
    D9        0.00000   0.00000   0.00000  -0.00000  -0.00000   0.00000
   D10        3.14159  -0.00000   0.00000  -0.00000  -0.00000   3.14159
   D11       -3.14159   0.00000   0.00000   0.00000  -0.00000  -3.14159
   D12       -0.00000   0.00000   0.00000  -0.00000  -0.00000  -0.00000
   D13        3.14159   0.00000   0.00000   0.00000   0.00000  -3.14159
   D14       -0.00000  -0.00000   0.00000   0.00000   0.00000   0.00000
   D15       -0.00000  -0.00000   0.00000   0.00000   0.00000  -0.00000
   D16        3.14159  -0.00000   0.00000  -0.00000  -0.00000   3.14159
   D17       -3.14159   0.00000   0.00000   0.00000   0.00000  -3.14159
   D18        0.00000   0.00000   0.00000   0.00000   0.00000   0.00000
   D19        0.00000   0.00000   0.00000  -0.00000  -0.00000   0.00000
   D20        3.14155   0.00000   0.00000   0.00001   0.00001   3.14156
   D21       -3.14159  -0.00000   0.00000  -0.00000  -0.00000  -3.14159
   D22       -0.00004   0.00000   0.00000   0.00001   0.00001  -0.00003
   D23        0.00000   0.00000   0.00000   0.00000   0.00000   0.00000
   D24       -3.14159   0.00000   0.00000  -0.00000  -0.00000  -3.14159
   D25        3.14159   0.00000   0.00000   0.00000   0.00000  -3.14159
   D26        0.00000   0.00000   0.00000   0.00000   0.00000   0.00000
   D27        0.00000  -0.00000   0.00000  -0.00000  -0.00000  -0.00000
   D28       -3.14159  -0.00000   0.00000  -0.00000  -0.00000   3.14159
   D29       -3.14159   0.00000   0.00000  -0.00000  -0.00000  -3.14159
[...]
 -0.01379899,-0.00000018,0.00179316,0.00528987,0.00000006,-0.01264993,-
 0.21293723,-0.00000115,-0.06149840,0.01583934,0.00000066,0.02025814,0.
 58486347,0.,0.00000003,0.00052038,0.,0.00000001,0.00060108,0.00000018,
 -0.00000001,-0.00149090,-0.00000005,0.,-0.00011298,0.,-0.00000005,0.00
 014521,0.00000004,0.00000001,-0.00014933,0.,0.,0.00003544,0.,0.,-0.000
 07792,0.,0.,0.00004215,0.,0.,-0.00008206,0.00000021,0.00000069,0.00016
 997,0.,-0.00000015,0.00218221,0.00000083,-0.00000127,-0.07324314,-0.00
 000089,0.00000058,0.00017217,-0.00000956,0.00000131,0.19916130,0.00052
 495,-0.00064528,0.,-0.00100209,0.00115040,0.00000002,0.00017700,-0.001
 35399,-0.00000003,0.00039136,0.00017794,0.,-0.00002571,0.00071675,0.00
 000001,-0.00084498,-0.00006216,0.,0.00002197,0.00003264,0.,0.00003017,
 -0.00003446,0.,-0.00006558,0.00005126,0.,-0.00003821,0.00002591,0.,-0.
 00643646,-0.00008531,0.00000008,0.00064062,0.00173818,-0.00000002,-0.0
 4836938,0.02349458,0.00000062,-0.24904270,0.17492679,0.00000296,0.0001
 7740,0.01552228,0.,0.77508575,-0.00138850,0.00214540,0.00000002,0.0026
 2466,-0.00157541,-0.00000003,0.00051843,0.00173010,0.,-0.00167272,0.00
 028562,0.,-0.00006394,-0.00244377,-0.00000003,0.00261724,0.00025963,0.
 ,-0.00012167,-0.00005876,0.,0.00006121,0.00007265,0.,0.00016380,-0.000
 09997,0.,0.00012976,-0.00005364,0.,0.01438130,0.00772069,0.00000007,-0
 .00367899,-0.00435191,0.00000002,0.06362707,0.00898500,-0.00000026,0.1
 1259763,-0.28782536,-0.00000313,0.02997394,-0.04849785,-0.00000088,-0.
 02928891,0.66829734,-0.00000001,0.00000002,0.00005338,0.00000002,-0.00
 000003,0.00042636,0.,0.00000004,-0.00055129,-0.00000002,0.,-0.00011584
 ,0.,-0.00000002,0.00005065,0.00000003,0.,-0.00001734,0.,0.,0.00000046,
 0.,0.,0.00000082,0.,0.,0.00001571,0.,0.,-0.00002602,0.00000019,0.00000
 007,0.00000239,-0.00000004,-0.00000004,-0.00084852,0.00000086,-0.00000
 016,0.00939937,0.00000247,-0.00000354,-0.06139402,0.00000018,-0.000000
 50,-0.00599294,-0.00000453,0.00000568,0.12087591,0.00029356,0.00000238
 ,0.,-0.00065511,0.00032072,-0.00000001,0.00035874,-0.00024391,0.,0.000
 03491,0.00005054,0.,0.00004614,0.00008621,0.,-0.00010515,-0.00008202,0
 .,-0.00001464,-0.00000625,0.,0.00003738,0.00000146,0.,0.00000622,0.000
 00113,0.,0.00002856,-0.00000491,0.,-0.00000911,0.00042020,0.,-0.001377
 49,0.00215033,0.00000003,-0.00522389,-0.02805675,-0.00000027,-0.089723
 96,-0.08961887,-0.00000060,-0.00487568,0.00305299,0.00000008,0.0110186
 0,0.02029859,0.00000017,0.09115879,0.00007220,-0.00007819,0.,-0.000212
 14,0.00063317,0.00000002,0.00033157,-0.00027592,0.,0.00004396,0.000070
 56,0.,0.00001286,0.00011046,0.,-0.00014111,-0.00000370,0.,-0.00000952,
 0.00001444,0.,0.00002410,-0.00000479,0.,-0.00000782,0.00000690,0.,-0.0
 0000181,0.00000355,0.,-0.00109901,0.00013501,0.,0.00025309,-0.00037620
 ,-0.00000008,0.00029280,-0.00154090,-0.00000004,-0.08614487,-0.3059217
 7,-0.00000217,0.00029038,0.00234932,-0.00000004,-0.01258201,-0.0170030
 1,-0.00000013,0.09320457,0.32507318,0.,0.,-0.00001114,0.,0.00000002,-0
 .00057975,0.,0.,0.00012481,0.,0.,0.00007545,0.,0.,-0.00001796,0.,0.,0.
 00002729,0.,0.,-0.00001088,0.,0.,-0.00001442,0.,0.,-0.00000392,0.,0.,0
 .00001715,-0.00000003,0.,-0.00020634,0.,-0.00000007,0.00103382,0.00000
 004,0.00000016,0.00280929,-0.00000057,-0.00000212,-0.03728507,0.000000
 04,-0.00000002,0.00489173,-0.00000016,-0.00000041,0.00585344,0.0000005
 6,0.00000249,0.02433002,-0.00042505,0.00118590,0.00000001,0.00114721,-
 0.00053093,0.,0.00215215,0.00064046,-0.00000002,-0.00103755,0.00010251
 ,0.,0.00000531,-0.00132001,-0.00000002,0.00131137,0.00015873,0.,-0.000
 09007,0.00002511,0.,0.00013132,0.00002033,0.,0.00006737,-0.00004230,0.
 ,0.00006841,-0.00000605,0.,0.00793543,0.01053991,0.00000010,-0.0011513
 5,-0.00160281,0.,0.04806029,0.00540582,-0.00000006,-0.04985687,0.02244
 582,0.00000053,-0.14196695,0.04858339,0.00000042,-0.00412801,-0.075828
 70,-0.00000050,-0.00025481,0.00044516,-0.00000001,0.75078137,0.0007817
 3,-0.00069079,0.,-0.00149802,0.00012757,0.,-0.00035114,-0.00039340,0.0
 0000001,0.00068330,-0.00010287,0.,0.00007381,0.00094565,0.00000001,-0.
 00097185,-0.00019870,0.,0.00001616,0.00003166,0.,-0.00001052,-0.000017
 78,0.,-0.00004235,0.00003453,0.,-0.00000827,0.00000608,0.,-0.00477811,
 -0.00176634,-0.00000004,0.00225277,0.00063070,-0.00000002,0.00276899,-
 0.02409014,-0.00000028,0.01396777,-0.00812084,-0.00000014,0.07766872,-
 0.22149516,-0.00000133,-0.03756765,0.01036246,0.00000024,0.00003556,0.
 00052199,0.00000005,0.08404252,0.68927039,0.00000001,-0.00000002,-0.00
 014774,-0.00000003,0.00000002,-0.00024020,-0.00000002,-0.00000003,-0.0
 0096478,0.,0.,0.00006000,0.,0.00000002,0.00002797,-0.00000002,0.,0.000
 04856,0.,0.,-0.00005769,0.,0.,-0.00004023,0.,0.,-0.00001165,0.,0.,0.00
 004203,-0.00000008,-0.00000007,0.00177705,0.00000001,0.,-0.00085463,-0
 .00000023,-0.00000040,0.00965340,0.00000031,-0.00000018,-0.00133104,0.
 00000067,-0.00000126,-0.07583596,-0.00000015,0.00000040,0.00778905,0.0
 0000001,0.,-0.00032789,-0.00000518,0.00000260,0.11963718,0.00094284,-0
 .00141393,-0.00000002,-0.00190948,0.00092095,0.00000002,-0.00079725,-0
 .00087347,0.00000001,0.00121630,-0.00016274,0.,0.00003273,0.00168743,0
 .00000002,-0.00176002,-0.00022068,0.,0.00007729,0.00003576,0.,-0.00005
 779,-0.00004756,0.,-0.00010589,0.00006949,0.,-0.00007802,0.00003032,0.
 ,-0.00904801,-0.00503383,-0.00000007,0.00243792,0.00238735,-0.00000001
 ,-0.03657700,0.00186864,0.00000010,0.05494186,-0.00285864,-0.00000031,
 -0.05294223,0.03567847,0.00000106,-0.14560618,-0.02551921,0.00000017,-
 0.00259422,0.00446986,0.00000017,-0.41711306,-0.08881605,0.00000236,0.
 76511809,0.00075302,-0.00116222,-0.00000001,-0.00133049,0.00087508,0.0
 0000001,-0.00046021,-0.00146273,-0.00000001,0.00076681,-0.00003582,0.,
 0.00002430,0.00125818,0.00000002,-0.00140690,-0.00012643,0.,0.00007113
 ,0.00001475,0.,-0.00005081,-0.00003269,0.,-0.00008716,0.00005657,0.,-0
 .00006321,0.00002412,0.,-0.01010305,-0.00572062,-0.00000002,0.00200506
 ,0.00199247,-0.00000002,-0.03851910,-0.00509619,0.00000010,0.04527937,
 -0.05795679,-0.00000086,-0.00025870,0.05249555,0.00000050,-0.09271973,
 -0.27791833,-0.00000150,0.00297237,-0.00217401,-0.00000011,-0.02638342
 ,-0.14545109,-0.00000005,-0.02650201,0.67752368,0.,0.,-0.00000236,0.,0
 .,0.00012708,0.,0.,0.00036411,0.,0.,-0.00000371,0.,0.,-0.00002863,0.,0
 .,0.00000017,0.,0.,0.00000964,0.,0.,0.00002571,0.,0.,-0.00000239,0.,0.
 ,-0.00001075,-0.00000002,-0.00000005,-0.00031791,0.,0.00000001,-0.0001
 1169,-0.00000007,0.,-0.00438817,0.00000005,-0.00000058,0.00684675,0.00
 000036,0.00000010,-0.00038603,-0.00000031,-0.00000184,-0.06284313,0.00
 000010,-0.00000015,0.00836156,0.00000256,0.00000015,-0.05806138,-0.000
 00481,0.00000471,0.14469046,0.00001783,-0.00007872,0.,-0.00003462,0.00
 013010,0.,-0.00001343,-0.00015092,0.,0.00003812,0.00003218,0.,-0.00001
 156,0.00006436,0.,-0.00008250,0.00000833,0.,0.00000518,0.00000575,0.,0
 .00000201,-0.00000502,0.,-0.00001008,0.00000748,0.,-0.00000953,0.00000
 521,0.,-0.00047460,0.00040278,0.,0.00003771,0.00009223,0.,0.00004456,0
 .00373888,0.00000009,-0.01464504,-0.00751717,0.00000002,0.00056713,0.0
 0008823,0.,-0.33937155,-0.05089218,0.00000142,0.00077064,0.00013055,-0
 .00000004,0.00136958,-0.00172516,0.,-0.00555001,0.00262237,0.00000006,
 0.35753453,-0.00000234,0.00002856,0.,0.00002131,-0.00006407,0.,0.00008
 289,0.00009965,0.,-0.00001341,-0.00004120,0.,0.00001352,-0.00001933,0.
 ,0.00002787,-0.00000366,0.,-0.00000093,-0.00000267,0.,0.00000108,0.000
 00172,0.,0.00000424,-0.00000485,0.,0.00000328,-0.00000144,0.,0.0003738
 2,-0.00024719,0.,0.00000319,0.00003627,0.,0.00220060,-0.00340222,-0.00
 000013,0.02523642,0.00762568,-0.00000009,0.00049942,-0.00146322,0.,-0.
 05208272,-0.06649204,-0.00000006,-0.00021518,0.00096144,0.00000007,-0.
 00041590,-0.00516315,-0.00000009,-0.02968827,-0.00041197,0.00000017,0.
 05431883,0.06662809,0.,0.,0.00000047,0.,0.,-0.00007128,0.,0.,-0.000346
 86,0.,0.,-0.00002455,0.,0.,0.00003469,0.,0.,-0.00000635,0.,0.,-0.00000
 076,0.,0.,-0.00001501,0.,0.,0.00000784,0.,0.,0.00000580,-0.00000002,0.
 ,-0.00051148,0.,0.,0.00017708,0.00000009,-0.00000009,0.00799967,0.0000
 0031,0.00000016,0.00155547,0.,-0.00000004,-0.00073512,0.00000138,-0.00
 000010,-0.03110009,-0.00000003,0.00000006,-0.00537860,0.00000004,-0.00
 000009,0.00463670,-0.00000026,-0.00000003,0.00063185,-0.00000154,0.000
 00010,0.02391208,-0.00007018,0.00001336,0.,0.00008402,0.00007755,0.,-0
 .00005240,0.00000484,0.,-0.00002113,0.00000797,0.,-0.00000874,-0.00004
 013,0.,0.00004332,0.00001634,0.,0.00000124,-0.00000457,0.,-0.00000533,
 0.00000124,0.,0.00000210,-0.00000139,0.,-0.00000291,-0.00000155,0.,0.0
 0036694,-0.00024282,0.,-0.00030511,0.00009284,0.,-0.00223476,0.0023310
 5,0.00000007,-0.00133309,0.00042896,0.,0.00943121,0.02088302,0.0000000
 8,-0.00484837,0.00020095,0.00000011,0.00011406,-0.00010133,0.,-0.08721
 977,-0.09038619,0.,-0.00476206,-0.02953019,-0.00000010,-0.00041511,-0.
 00140027,-0.00000002,0.08837027,0.00002559,0.00010441,0.,-0.00006676,-
 0.00017972,0.,0.00004061,0.00016525,0.,-0.00004294,-0.00001433,0.,0.00
 001546,-0.00006983,0.,0.00008219,-0.00001808,0.,-0.00000840,0.00000142
 ,0.,0.00000482,0.00000501,0.,0.00001082,-0.00000586,0.,0.00001397,-0.0
 0000435,0.,0.00024914,0.00031210,0.,0.00021025,-0.00038327,0.,0.003976
 97,-0.00262292,-0.00000005,0.00108503,0.00037710,0.,-0.01377333,-0.017
 41189,0.,-0.00063772,0.00218043,0.,-0.00006645,-0.00008534,0.,-0.08981
 112,-0.31436685,-0.00000062,0.00216039,-0.00107762,-0.00000005,0.00005
 469,-0.00015548,0.,0.09806457,0.33020507,0.,0.,0.00004204,0.,0.,0.0000
 1178,0.,0.,-0.00005398,0.,0.,0.00000017,0.,0.,0.00000210,0.,0.,-0.0000
 0467,0.,0.,0.00000327,0.,0.,0.00000058,0.,0.,0.00000291,0.,0.,-0.00000
 715,-0.00000002,0.00000001,-0.00002003,0.,0.,0.00005996,0.00000003,-0.
 00000006,0.00419232,0.00000006,-0.00000002,-0.00075739,-0.00000016,-0.
 00000015,0.00454228,0.00000009,-0.00000002,0.00880911,0.,0.00000001,-0
 .00095772,0.00000015,-0.00000066,-0.03436548,-0.00000002,0.00000016,0.
 00296574,0.,0.,0.00052389,-0.00000001,0.00000070,0.02438760,0.00004265
 ,-0.00007051,0.,-0.00005561,0.00013706,0.,0.00011866,-0.00014042,0.,0.
 00003462,0.00000733,0.,-0.00000129,0.00007224,0.,-0.00008824,0.0000012
 6,0.,0.00000329,0.00000423,0.,0.00000521,-0.00000447,0.,-0.00000915,0.
 00000558,0.,-0.00000683,0.00000452,0.,-0.00037799,0.00028026,0.,0.0000
 4814,0.00027638,0.,-0.00091913,0.00019030,0.,0.00073879,-0.00261073,0.
 ,-0.00328205,-0.00380295,0.00000010,0.00958850,-0.00930619,-0.00000011
 ,0.00035747,-0.00049516,0.,-0.01447328,0.02598919,0.00000030,-0.179487
 20,0.13887837,0.00000208,0.00061934,0.00045337,-0.00000001,0.00098109,
 -0.00029671,-0.00000006,0.18727227,0.00001592,0.00002855,0.,-0.0000723
 5,0.00000405,0.,-0.00000034,0.00007179,0.,-0.00000073,-0.00000439,0.,0
 .00000876,-0.00001251,0.,0.00001991,-0.00001112,0.,-0.00000506,-0.0000
 0116,0.,0.00000207,0.00000242,0.,0.00000544,-0.00000242,0.,0.00000669,
 -0.00000327,0.,0.00017789,-0.00009965,0.,-0.00007369,-0.00001828,0.,-0
 .00070842,0.00054896,0.00000002,-0.00357510,-0.00481068,-0.00000006,-0
 .00239451,0.00052697,-0.00000006,0.02195115,-0.01499439,-0.00000029,0.
 00102666,-0.00113627,-0.00000002,-0.00644218,0.00742024,0.00000003,0.1
 3982461,-0.22083256,-0.00000239,-0.00020744,0.00102369,0.00000003,0.00
 011170,0.00083139,0.00000005,-0.14991780,0.23091190,0.,0.,-0.00000460,
 0.,0.,-0.00005209,0.,0.,0.00015370,0.,0.,0.00000013,0.,0.,-0.00000594,
 0.,0.,-0.00000452,0.,0.,0.00000662,0.,0.,0.00000182,0.,0.,0.00000075,0
 .,0.,0.00000317,0.00000002,0.,-0.00024305,0.,0.,0.00026904,0.00000003,
 0.00000003,-0.00113970,-0.00000005,-0.00000006,0.00493391,0.00000017,-
 0.00000008,0.01100018,0.00000015,-0.00000019,0.00465186,0.,0.,-0.00032
 386,0.00000007,-0.00000012,0.00686381,0.00000211,-0.00000232,-0.042291
 41,-0.00000002,0.00000003,-0.00261712,-0.00000005,0.00000003,-0.005782
 66,-0.00000229,0.00000268,0.02685239,-0.00757453,-0.00159155,-0.000000
 07,0.00378552,0.01747940,0.00000015,-0.07088143,0.04662239,0.00000053,
 0.00950376,-0.00329781,0.,-0.00320938,0.00253425,0.00000002,0.00112364
 ,-0.00320706,-0.00000004,0.00013590,-0.00094719,-0.00000001,-0.0005353
 0,-0.00008057,0.,0.00048591,-0.00020378,0.,-0.00059718,-0.00014565,0.,
 -0.37560008,-0.04660402,-0.00000191,-0.06098534,-0.04627931,-0.0000004
 0,-0.17043385,0.08254273,0.00000122,-0.05888148,0.03570353,0.00000035,
 0.05039705,0.02078339,-0.00000057,0.00384827,-0.02847048,-0.00000027,0
 .00150894,0.00166604,0.00000003,-0.01283099,0.00438498,0.00000008,0.01
 435822,0.01358080,0.00000001,-0.00026760,0.00087473,0.00000005,0.00013
 182,-0.00149439,0.,0.00072395,-0.00005179,-0.00000002,0.72216206,0.002
 65994,-0.00330750,-0.00000002,0.02270248,-0.02268906,-0.00000029,0.014
 01818,0.01618599,0.00000026,0.00802382,-0.00935327,-0.00000012,-0.0011
 6933,0.00663090,0.00000007,-0.00459179,-0.00400516,-0.00000008,0.00028
 119,-0.00059769,0.,-0.00063016,-0.00005258,0.,0.00011191,-0.00034762,0
 .,-0.00046481,0.00009538,0.,-0.06171048,-0.15542113,-0.00000143,-0.001
 30036,-0.15506328,-0.00000172,0.08139910,-0.21289384,-0.00000176,0.030
 90541,0.00359719,0.00000011,-0.00107839,-0.04171263,-0.00000002,-0.011
 63795,0.02257495,0.00000022,-0.00251398,-0.00071595,0.,0.00774413,-0.0
 1150232,-0.00000015,-0.01424595,-0.01300794,0.,-0.00108107,0.00079012,
 -0.00000001,0.00139084,-0.00040134,-0.00000003,-0.00060910,0.00019517,
 0.00000003,-0.05827194,0.56640076,0.00000001,-0.00000003,-0.00031550,0
 .00000033,-0.00000043,0.00225763,0.,0.00000032,0.00265131,0.00000011,-
 0.00000014,0.00169426,-0.00000002,0.00000007,0.00109750,-0.00000005,-0
 .00000007,0.00095448,0.,0.,-0.00045387,0.,0.,-0.00041755,0.,0.,-0.0003
 4396,0.,0.,-0.00003769,-0.00000158,-0.00000158,-0.06158377,-0.00000003
 ,-0.00000155,-0.03539513,0.00000107,-0.00000158,-0.05626325,0.00000046
 ,-0.00000009,-0.00581509,-0.00000011,-0.00000049,0.00357378,-0.0000000
 6,0.00000023,0.00544446,-0.00000005,0.00000002,-0.00243313,0.00000011,
 -0.00000014,0.00381927,-0.00000017,-0.00000013,-0.00083859,0.,-0.00000
 001,0.00161133,0.00000001,0.,-0.00031353,-0.00000001,0.,-0.00065269,0.
 00000047,0.00000556,0.14003646,-0.00117886,0.00330304,0.00000004,0.002
 54912,0.00032878,0.00000001,0.01009308,0.00086653,0.00000005,-0.003070
 05,0.00047563,0.,0.00004841,-0.00358122,-0.00000005,0.00342601,0.00071
 328,0.00000001,-0.00025066,0.00018102,0.,0.00032580,0.00004136,0.,0.00
 008819,-0.00005786,0.,0.00013435,0.00003583,0.,0.02262195,0.04878776,0
 .00000047,-0.00244057,-0.00381858,0.,-0.00942280,-0.06577715,0.0000005
 2,-0.01567877,0.00417972,0.00000014,-0.49235073,-0.07812716,0.00000801
 ,-0.00172771,-0.02345462,-0.00000016,-0.00120402,-0.00057275,-0.000000
 03,-0.08631310,0.01545273,0.00000204,0.02136789,0.02239030,0.00000009,
 -0.00019621,-0.00031601,0.,0.00181775,0.00017014,-0.00000008,-0.001934
 08,0.00036564,-0.00000011,-0.04544002,0.02734301,0.00000022,0.59587976
 ,-0.00041800,-0.00070231,-0.00000003,0.00024807,-0.00274667,-0.0000000
 6,-0.00965144,-0.00292194,0.00000011,0.00021537,-0.00042289,0.,0.00039
 421,0.00054331,0.,-0.00025736,-0.00020226,0.,0.00013948,-0.00025366,0.
 ,0.00010315,0.00010806,0.,0.00012515,-0.00011311,0.,0.00007325,-0.0000
 6985,0.,0.01568901,-0.05063437,-0.00000023,0.00000217,-0.00238264,-0.0
 0000002,-0.05275745,-0.00673139,0.00000079,0.01093157,-0.00903334,-0.0
 0000011,-0.09637745,-0.12215352,0.00000169,-0.00312789,0.00900245,0.00
 000010,-0.00209209,-0.00049838,-0.00000002,0.04036219,0.01938815,-0.00
 000064,-0.00315579,-0.01208781,-0.00000012,-0.00004657,0.00056724,0.,-
 0.00230047,0.00295168,0.,0.00145508,0.00027977,0.00000004,0.00769715,0
 .00330132,0.00000013,0.10818223,0.16647736,0.00000003,-0.00000002,-0.0
 0025957,-0.00000004,0.00000005,-0.00014870,0.00000010,0.00000007,0.002
 14627,0.00000005,0.,0.00003434,-0.00000001,0.00000005,-0.00009391,-0.0
 0000004,-0.00000001,0.00004462,0.,0.,0.00002770,0.,0.,0.00002930,0.,0.
 ,-0.00001151,0.,0.,0.00000279,-0.00000051,0.00000039,0.00380488,0.0000
 0007,0.00000020,-0.00016197,0.,0.00000053,0.01718362,0.00000040,-0.000
 00022,0.00513056,0.00000898,0.00000205,-0.06980546,0.00000001,0.000000
 47,-0.00049022,0.,0.,0.00005087,0.00000167,-0.00000031,0.01650476,-0.0
 0000040,-0.00000041,0.00488301,0.,0.00000001,-0.00048938,-0.00000008,-
 0.00000001,-0.00324295,0.,0.,-0.00141795,0.00000033,-0.00000041,-0.001
 98109,-0.00001108,-0.00000176,0.04115218,0.00130073,0.00003073,0.,-0.0
 0448790,0.00341438,0.00000004,0.01050807,0.01592935,0.00000038,0.00156
 135,-0.00020085,-0.00000002,-0.00007243,0.00048110,0.,-0.00059303,-0.0
 0014273,0.,-0.00013695,0.00026235,0.,-0.00098884,-0.00013557,0.,-0.000
 01410,0.00000115,0.,-0.00003989,-0.00004860,0.,-0.08894175,-0.07229709
 ,-0.00000138,-0.00356526,-0.00293639,-0.00000009,-0.00245306,0.0057332
 2,0.00000010,0.00194664,-0.00014766,0.00000002,-0.02159058,0.00416171,
 0.00000004,0.00000231,0.00249152,0.00000002,0.00030410,0.00013038,0.,0
 .00383107,-0.00196291,-0.00000009,-0.00210471,-0.00192893,0.,0.0000752
 4,0.00002045,0.,-0.00006487,0.00003316,0.,0.00010087,-0.00006705,0.,-0
 .00092786,-0.03727473,-0.00000074,0.00285527,-0.01543358,0.00000053,0.
 10349558,-0.00061475,0.00209582,0.00000003,0.00345232,0.00396118,0.,0.
 01276626,-0.00543378,-0.00000005,-0.00262431,0.00202099,0.00000002,-0.
 00045255,-0.00276510,-0.00000003,0.00177970,0.00111699,0.00000002,-0.0
 0018430,0.00031876,0.,0.00045979,-0.00043878,-0.00000001,-0.00018859,0
 .00017996,0.,-0.00002505,0.00011669,0.,-0.05816314,-0.26636563,-0.0000
 0513,0.00014923,0.00510468,0.00000003,0.01210407,-0.02251010,-0.000000
 14,-0.01148577,0.00033634,-0.00000003,0.05219032,0.02033963,-0.0000010
 4,0.00203790,-0.01230229,-0.00000011,-0.00072331,-0.00006559,0.,-0.019
 31857,0.00462001,0.00000044,0.00940487,0.01031439,0.00000006,0.0000022
 6,-0.00028997,0.,0.00038369,-0.00033698,-0.00000001,-0.00050115,0.0000
 8180,-0.00000004,-0.04322386,0.01129951,-0.00000009,-0.05711164,0.0083
 3480,-0.00000069,0.09988659,0.24026666,0.,0.00000001,0.00091230,0.,-0.
 00000003,0.00192559,-0.00000003,0.00000020,-0.00540775,0.,-0.00000001,
 -0.00056626,-0.00000001,-0.00000001,-0.00012832,0.00000002,0.,-0.00011
 468,0.,0.,0.00001659,0.,0.00000001,0.00003203,0.,0.,0.00004867,0.,0.,0
 .00000048,-0.00000153,-0.00000685,-0.02231930,0.00000005,0.00000008,0.
 00391324,0.,0.00000011,-0.00321536,0.00000002,0.00000004,-0.00095316,0
 .00000023,-0.00000028,0.00087395,-0.00000004,-0.00000002,0.00000643,0.
 ,0.,-0.00002476,0.00000012,0.00000007,0.00137889,0.00000006,-0.0000000
 4,0.00038008,0.,0.,0.00019973,0.,0.,-0.00003821,0.00000001,0.,-0.00020
 178,0.00000005,-0.00000019,0.00370434,-0.00000013,0.00000011,-0.012892
 19,0.00000118,0.00000678,0.03246943\\0.00029867,0.00086852,-0.00000004
 ,0.00122017,0.00178973,-0.00000010,0.00220256,-0.00005458,-0.00000011,
 -0.00023068,0.00036988,0.00000007,-0.00007153,-0.00056663,0.,0.0003314
 6,0.00035074,-0.00000002,-0.00002903,0.00011571,0.00000001,0.00005344,
 -0.00000540,0.,0.00000058,0.00000666,0.,0.00001861,0.00002839,0.000000
 02,-0.00315557,0.00194875,-0.00000042,0.00073167,0.00192967,0.00000035
 ,-0.00209190,0.00121141,-0.00000059,0.00196221,-0.00017339,-0.00000034
 ,0.00324117,0.00072532,0.00000283,-0.00065323,0.00188039,0.00000004,0.
 00003354,0.00000446,-0.00000001,-0.00058655,0.00002853,-0.00000054,-0.
 00131618,-0.00033621,0.00000008,-0.00002245,-0.00000954,0.,-0.00008036
 ,0.00001523,-0.00000006,-0.00008495,-0.00001616,0.00000003,-0.00184848
 ,-0.00136215,-0.00000037,-0.00172209,-0.00255914,-0.00000216,0.0017989
 4,-0.00619020,0.00000134\\\@
 The archive entry for this job was punched.


 IF YOU GIVE EVERYONE A PIECE OF YOUR MIND,
 PRETTY SOON IT WILL BE ALL GONE.
 Job cpu time:       0 days  1 hours  0 minutes 25.2 seconds.
 Elapsed time:       0 days  0 hours  6 minutes  6.2 seconds.
 File lengths (MBytes):  RWF=    544 Int=      0 D2E=      0 Chk=     36 Scr=      8
 Normal termination of Gaussian 16 at Tue Oct 27 22:45:53 2020.
