 Entering Gaussian System, Link 0=g16
 Initial command:
 /gpfs/loomis/apps/avx/software/Gaussian/16-C.01_AVX/g16/l1.exe "/home/fas/batista/pev4/scratch60/gauss-scratch/Gau-237807.inp" -scrdir="/home/fas/batista/pev4/scratch60/gauss-scratch/"
 Entering Link 1 = /gpfs/loomis/apps/avx/software/Gaussian/16-C.01_AVX/g16/l1.exe PID=    237808.
  
 Copyright (c) 1988-2019, Gaussian, Inc.  All Rights Reserved.
  
 This is part of the Gaussian(R) 16 program.  It is based on
 the Gaussian(R) 09 system (copyright 2009, Gaussian, Inc.),
 the Gaussian(R) 03 system (copyright 2003, Gaussian, Inc.),
 the Gaussian(R) 98 system (copyright 1998, Gaussian, Inc.),
 the Gaussian(R) 94 system (copyright 1995, Gaussian, Inc.),
 the Gaussian 92(TM) system (copyright 1992, Gaussian, Inc.),
 the Gaussian 90(TM) system (copyright 1990, Gaussian, Inc.),
 the Gaussian 88(TM) system (copyright 1988, Gaussian, Inc.),
 the Gaussian 86(TM) system (copyright 1986, Carnegie Mellon
 University), and the Gaussian 82(TM) system (copyright 1983,
 Carnegie Mellon University). Gaussian is a federally registered
 trademark of Gaussian, Inc.
  
 This software contains proprietary and confidential information,
 including trade secrets, belonging to Gaussian, Inc.
  
 This software is provided under written license and may be
 used, copied, transmitted, or stored only in accord with that
 written license.
  
 The following legend is applicable only to US Government
 contracts under FAR:
  
                    RESTRICTED RIGHTS LEGEND
  
 Use, reproduction and disclosure by the US Government is
 subject to restrictions as set forth in subparagraphs (a)
 and (c) of the Commercial Computer Software - Restricted
 Rights clause in FAR 52.227-19.
  
 Gaussian, Inc.
 340 Quinnipiac St., Bldg. 40, Wallingford CT 06492
  
  
 ---------------------------------------------------------------
 Warning -- This program may not be used in any manner that
 competes with the business of Gaussian, Inc. or will provide
 assistance to any competitor of Gaussian, Inc.  The licensee
 of this program is prohibited from giving any competitor of
 Gaussian, Inc. access to this program.  By using this program,
 the user acknowledges that Gaussian, Inc. is engaged in the
 business of creating and licensing software in the field of
 computational chemistry and represents and warrants to the
 licensee that it is not a competitor of Gaussian, Inc. and that
 it will not use this program in any manner prohibited above.
 ---------------------------------------------------------------
  

 Cite this work as:
 Gaussian 16, Revision C.01,
 M. J. Frisch, G. W. Trucks, H. B. Schlegel, G. E. Scuseria, 
 M. A. Robb, J. R. Cheeseman, G. Scalmani, V. Barone, 
 G. A. Petersson, H. Nakatsuji, X. Li, M. Caricato, A. V. Marenich, 
 J. Bloino, B. G. Janesko, R. Gomperts, B. Mennucci, H. P. Hratchian, 
 J. V. Ortiz, A. F. Izmaylov, J. L. Sonnenberg, D. Williams-Young, 
 F. Ding, F. Lipparini, F. Egidi, J. Goings, B. Peng, A. Petrone, 
 T. Henderson, D. Ranasinghe, V. G. Zakrzewski, J. Gao, N. Rega, 
 G. Zheng, W. Liang, M. Hada, M. Ehara, K. Toyota, R. Fukuda, 
 J. Hasegawa, M. Ishida, T. Nakajima, Y. Honda, O. Kitao, H. Nakai, 
 T. Vreven, K. Throssell, J. A. Montgomery, Jr., J. E. Peralta, 
 F. Ogliaro, M. J. Bearpark, J. J. Heyd, E. N. Brothers, K. N. Kudin, 
 V. N. Staroverov, T. A. Keith, R. Kobayashi, J. Normand, 
 K. Raghavachari, A. P. Rendell, J. C. Burant, S. S. Iyengar, 
 J. Tomasi, M. Cossi, J. M. Millam, M. Klene, C. Adamo, R. Cammi, 
 J. W. Ochterski, R. L. Martin, K. Morokuma, O. Farkas, 
 J. B. Foresman, and D. J. Fox, Gaussian, Inc., Wallingford CT, 2019.
 
 ******************************************
 Gaussian 16:  ES64L-G16RevC.01  3-Jul-2019
                27-Oct-2020 
 ******************************************
 %chk=config_11_7.chk
 %mem=58GB
 %nprocshared=10
 Will use up to   10 processors via shared memory.
 ----------------------------------------------------------------------
 #p opt=addgic freq wb97xd/cc-pvdz nosymm int=ultrafine scrf=(solvent=C
 arbonTetraChloride)
 ----------------------------------------------------------------------
 1/18=20,19=15,26=6,38=1,145=903/1,3;
 2/9=110,12=2,15=1,17=6,18=5,40=1/2;
 3/5=16,11=2,25=1,30=1,70=2201,71=1,72=11,74=-58,75=-5/1,2,3;
 4//1;
 5/5=2,38=5,53=11/2;
 6/7=2,8=2,9=2,10=2,28=1/1;
 7/30=1/1,2,3,16;
 1/18=20,19=15,26=6,145=903/3(2);
 2/9=110,15=1/2;
 99//99;
 2/9=110,15=1/2;
 3/5=16,11=2,25=1,30=1,70=2205,71=1,72=11,74=-58,75=-5/1,2,3;
 4/5=5,16=3,69=1/1;
 5/5=2,38=5,53=11/2;
 7/30=1/1,2,3,16;
 1/18=20,19=15,26=6,145=903/3(-5);
 2/9=110,15=1/2;
 6/7=2,8=2,9=2,10=2,19=2,28=1/1;
 99/9=1/99;
 Leave Link    1 at Tue Oct 27 21:59:02 2020, MaxMem=  7784628224 cpu:               4.0 elap:               0.4
 (Enter /gpfs/loomis/apps/avx/software/Gaussian/16-C.01_AVX/g16/l101.exe)
 ------------------------------------------------
 NM 2D-scan of HBT TD-WB97XD pVDZ in CTC Relaxed.
 ------------------------------------------------
 Symbolic Z-matrix:
 Charge =  0 Multiplicity = 1
 C                     1.67829  -3.25947  -0.00002 
 C                     1.00904  -2.03566  -0.00002 
 C                     1.72125  -0.81096  -0.00002 
 C                     3.11479  -0.81423  -0.00002 
 C                     3.77659  -2.03848  -0.00002 
 C                     3.07333  -3.24841  -0.00002 
 H                     1.12516  -4.19957  -0.00002 
 H                     3.66397   0.12763  -0.00002 
 H                     4.86768  -2.05018  -0.00002 
 H                     3.61821  -4.19306  -0.00002 
 N                     0.8905    0.29331  -0.00002 
 S                    -0.73178  -1.75324  -0.00002 
 C                    -1.39622   1.03076   0. 
 C                    -2.76263   0.83459  0. 
 C                    -0.85643   2.4218    0.00003 
 C                    -3.65132   1.94473   0.00003 
 H                    -3.18024  -0.1755   -0.00002 
 C                    -1.80088   3.49309   0.00006 
 C                    -3.17581   3.25569   0.00005 
 H                    -4.72545   1.75335   0.00002 
 H                    -1.38379   4.50125   0.00008 
 H                    -3.87747   4.09011   0.00008 
 C                    -0.43038  -0.02507  -0.00002 
 O                     0.38407   2.62909   0.00004 
 H                     1.0709    1.05346  -0.00001 
 
 Initializing the GIC definitions file.
 Number of initial coordinates =   134
 Number of input entries/lines =    52
 Number of additional coordinates =     2
 Number of removed coordinates =     0
 Number of frozen coordinates =     2
 Number of final active and frozen coordinates =   136
 ITRead=  0  0  0  0  0  0  0  0  0  0  0  0  0  0  0  0  0  0  0  0
 ITRead=  0  0  0  0  0
 MicOpt= -1 -1 -1 -1 -1 -1 -1 -1 -1 -1 -1 -1 -1 -1 -1 -1 -1 -1 -1 -1
 MicOpt= -1 -1 -1 -1 -1
 NAtoms=     25 NQM=       25 NQMF=       0 NMMI=      0 NMMIF=      0
                NMic=       0 NMicF=      0.
                    Isotopes and Nuclear Properties:
 (Nuclear quadrupole moments (NQMom) in fm**2, nuclear magnetic moments (NMagM)
  in nuclear magnetons)

  Atom         1           2           3           4           5           6           7           8           9          10
 IAtWgt=          12          12          12          12          12          12           1           1           1           1
 AtmWgt=  12.0000000  12.0000000  12.0000000  12.0000000  12.0000000  12.0000000   1.0078250   1.0078250   1.0078250   1.0078250
 NucSpn=           0           0           0           0           0           0           1           1           1           1
 AtZEff=  -0.0000000  -0.0000000  -0.0000000  -0.0000000  -0.0000000  -0.0000000  -0.0000000  -0.0000000  -0.0000000  -0.0000000
 NQMom=    0.0000000   0.0000000   0.0000000   0.0000000   0.0000000   0.0000000   0.0000000   0.0000000   0.0000000   0.0000000
 NMagM=    0.0000000   0.0000000   0.0000000   0.0000000   0.0000000   0.0000000   2.7928460   2.7928460   2.7928460   2.7928460
 AtZNuc=   6.0000000   6.0000000   6.0000000   6.0000000   6.0000000   6.0000000   1.0000000   1.0000000   1.0000000   1.0000000

  Atom        11          12          13          14          15          16          17          18          19          20
 IAtWgt=          14          32          12          12          12          12           1          12          12           1
 AtmWgt=  14.0030740  31.9720718  12.0000000  12.0000000  12.0000000  12.0000000   1.0078250  12.0000000  12.0000000   1.0078250
 NucSpn=           2           0           0           0           0           0           1           0           0           1
 AtZEff=  -0.0000000  -0.0000000  -0.0000000  -0.0000000  -0.0000000  -0.0000000  -0.0000000  -0.0000000  -0.0000000  -0.0000000
 NQMom=    2.0440000   0.0000000   0.0000000   0.0000000   0.0000000   0.0000000   0.0000000   0.0000000   0.0000000   0.0000000
 NMagM=    0.4037610   0.0000000   0.0000000   0.0000000   0.0000000   0.0000000   2.7928460   0.0000000   0.0000000   2.7928460
 AtZNuc=   7.0000000  16.0000000   6.0000000   6.0000000   6.0000000   6.0000000   1.0000000   6.0000000   6.0000000   1.0000000

  Atom        21          22          23          24          25
 IAtWgt=           1           1          12          16           1
 AtmWgt=   1.0078250   1.0078250  12.0000000  15.9949146   1.0078250
 NucSpn=           1           1           0           0           1
 AtZEff=  -0.0000000  -0.0000000  -0.0000000  -0.0000000  -0.0000000
 NQMom=    0.0000000   0.0000000   0.0000000   0.0000000   0.0000000
 NMagM=    2.7928460   2.7928460   0.0000000   0.0000000   2.7928460
 AtZNuc=   1.0000000   1.0000000   6.0000000   8.0000000   1.0000000
 Leave Link  101 at Tue Oct 27 21:59:05 2020, MaxMem=  7784628224 cpu:              32.1 elap:               3.3
 (Enter /gpfs/loomis/apps/avx/software/Gaussian/16-C.01_AVX/g16/l103.exe)

 GradGradGradGradGradGradGradGradGradGradGradGradGradGradGradGradGradGrad
 Berny optimization.
 Initialization pass.
                           ----------------------------
                           !    Initial Parameters    !
                           ! (Angstroms and Degrees)  !
 --------------------------                            --------------------------
 ! Name  Definition              Value          Derivative Info.                !
 --------------------------------------------------------------------------------
 ! R1    R(1,2)                  1.3949         estimate D2E/DX2                !
 ! R2    R(1,6)                  1.3951         estimate D2E/DX2                !
 ! R3    R(1,7)                  1.0907         estimate D2E/DX2                !
 ! R4    R(2,3)                  1.4167         estimate D2E/DX2                !
 ! R5    R(2,12)                 1.7636         estimate D2E/DX2                !
 ! R6    R(3,4)                  1.3935         estimate D2E/DX2                !
 ! R7    R(3,11)                 1.3819         estimate D2E/DX2                !
 ! R8    R(4,5)                  1.3917         estimate D2E/DX2                !
 ! R9    R(4,8)                  1.0903         estimate D2E/DX2                !
 ! R10   R(5,6)                  1.3995         estimate D2E/DX2                !
 ! R11   R(5,9)                  1.0912         estimate D2E/DX2                !
 ! R12   R(6,10)                 1.0905         estimate D2E/DX2                !
 ! R13   R(11,23)                1.3587         estimate D2E/DX2                !
 ! R14   R(11,25)                0.7813         estimate D2E/DX2                !
 ! R15   R(12,23)                1.7543         estimate D2E/DX2                !
 ! R16   R(13,14)                1.3804         estimate D2E/DX2                !
 ! R17   R(13,15)                1.4921         estimate D2E/DX2                !
 ! R18   R(13,23)                1.431          estimate D2E/DX2                !
 ! R19   R(14,16)                1.422          estimate D2E/DX2                !
 ! R20   R(14,17)                1.093          estimate D2E/DX2                !
 ! R21   R(15,18)                1.4282         estimate D2E/DX2                !
 ! R22   R(15,24)                1.2577         estimate D2E/DX2                !
 ! R23   R(16,19)                1.3945         estimate D2E/DX2                !
 ! R24   R(16,20)                1.0911         estimate D2E/DX2                !
 ! R25   R(18,19)                1.3953         estimate D2E/DX2                !
 ! R26   R(18,21)                1.091          estimate D2E/DX2                !
 ! R27   R(19,22)                1.0902         estimate D2E/DX2                !
 ! A1    A(2,1,6)              118.2179         estimate D2E/DX2                !
 ! A2    A(2,1,7)              120.8564         estimate D2E/DX2                !
 ! A3    A(6,1,7)              120.9257         estimate D2E/DX2                !
 ! A4    A(1,2,3)              121.1482         estimate D2E/DX2                !
 ! A5    A(1,2,12)             127.8872         estimate D2E/DX2                !
 ! A6    A(3,2,12)             110.9646         estimate D2E/DX2                !
 ! A7    A(2,3,4)              120.0451         estimate D2E/DX2                !
 ! A8    A(2,3,11)             112.8659         estimate D2E/DX2                !
 ! A9    A(4,3,11)             127.089          estimate D2E/DX2                !
 ! A10   A(3,4,5)              118.5291         estimate D2E/DX2                !
 ! A11   A(3,4,8)              120.1113         estimate D2E/DX2                !
 ! A12   A(5,4,8)              121.3596         estimate D2E/DX2                !
 ! A13   A(4,5,6)              121.4388         estimate D2E/DX2                !
 ! A14   A(4,5,9)              119.0091         estimate D2E/DX2                !
 ! A15   A(6,5,9)              119.5521         estimate D2E/DX2                !
 ! A16   A(1,6,5)              120.6208         estimate D2E/DX2                !
 ! A17   A(1,6,10)             119.5224         estimate D2E/DX2                !
 ! A18   A(5,6,10)             119.8568         estimate D2E/DX2                !
 ! A19   A(3,11,23)            113.4024         estimate D2E/DX2                !
 ! A20   A(3,11,25)            129.6949         estimate D2E/DX2                !
 ! A21   A(23,11,25)           116.9026         estimate D2E/DX2                !
 ! A22   A(2,12,23)             89.3218         estimate D2E/DX2                !
 ! A23   A(14,13,15)           119.3787         estimate D2E/DX2                !
 ! A24   A(14,13,23)           124.2814         estimate D2E/DX2                !
 ! A25   A(15,13,23)           116.3399         estimate D2E/DX2                !
 ! A26   A(13,14,16)           120.5081         estimate D2E/DX2                !
 ! A27   A(13,14,17)           120.6319         estimate D2E/DX2                !
 ! A28   A(16,14,17)           118.86           estimate D2E/DX2                !
 ! A29   A(13,15,18)           117.3918         estimate D2E/DX2                !
 ! A30   A(13,15,24)           120.6951         estimate D2E/DX2                !
 ! A31   A(18,15,24)           121.9131         estimate D2E/DX2                !
 ! A32   A(14,16,19)           121.3852         estimate D2E/DX2                !
 ! A33   A(14,16,20)           118.5754         estimate D2E/DX2                !
 ! A34   A(19,16,20)           120.0393         estimate D2E/DX2                !
 ! A35   A(15,18,19)           121.6033         estimate D2E/DX2                !
 ! A36   A(15,18,21)           116.1247         estimate D2E/DX2                !
 ! A37   A(19,18,21)           122.272          estimate D2E/DX2                !
 ! A38   A(16,19,18)           119.7329         estimate D2E/DX2                !
 ! A39   A(16,19,22)           120.0027         estimate D2E/DX2                !
 ! A40   A(18,19,22)           120.2644         estimate D2E/DX2                !
 ! A41   A(11,23,12)           113.4452         estimate D2E/DX2                !
 ! A42   A(11,23,13)           118.8993         estimate D2E/DX2                !
 ! A43   A(12,23,13)           127.6555         estimate D2E/DX2                !
 ! D1    D(6,1,2,3)              0.0            estimate D2E/DX2                !
 ! D2    D(6,1,2,12)          -179.9999         estimate D2E/DX2                !
 ! D3    D(7,1,2,3)            179.9999         estimate D2E/DX2                !
 ! D4    D(7,1,2,12)             0.0            estimate D2E/DX2                !
 ! D5    D(2,1,6,5)              0.0            estimate D2E/DX2                !
 ! D6    D(2,1,6,10)           180.0            estimate D2E/DX2                !
 ! D7    D(7,1,6,5)           -180.0            estimate D2E/DX2                !
 ! D8    D(7,1,6,10)             0.0            estimate D2E/DX2                !
 ! D9    D(1,2,3,4)              0.0001         estimate D2E/DX2                !
 ! D10   D(1,2,3,11)           180.0            estimate D2E/DX2                !
 ! D11   D(12,2,3,4)          -180.0            estimate D2E/DX2                !
 ! D12   D(12,2,3,11)           -0.0001         estimate D2E/DX2                !
 ! D13   D(1,2,12,23)          179.9999         estimate D2E/DX2                !
 ! D14   D(3,2,12,23)           -0.0001         estimate D2E/DX2                !
 ! D15   D(2,3,4,5)             -0.0001         estimate D2E/DX2                !
 ! D16   D(2,3,4,8)            180.0            estimate D2E/DX2                !
 ! D17   D(11,3,4,5)          -180.0            estimate D2E/DX2                !
 ! D18   D(11,3,4,8)             0.0001         estimate D2E/DX2                !
 ! D19   D(2,3,11,23)            0.0002         estimate D2E/DX2                !
 ! D20   D(2,3,11,25)          179.9986         estimate D2E/DX2                !
 ! D21   D(4,3,11,23)         -179.9999         estimate D2E/DX2                !
 ! D22   D(4,3,11,25)           -0.0015         estimate D2E/DX2                !
 ! D23   D(3,4,5,6)              0.0            estimate D2E/DX2                !
 ! D24   D(3,4,5,9)           -180.0            estimate D2E/DX2                !
 ! D25   D(8,4,5,6)           -180.0            estimate D2E/DX2                !
 ! D26   D(8,4,5,9)              0.0            estimate D2E/DX2                !
 ! D27   D(4,5,6,1)              0.0            estimate D2E/DX2                !
 ! D28   D(4,5,6,10)          -180.0            estimate D2E/DX2                !
 ! D29   D(9,5,6,1)           -180.0            estimate D2E/DX2                !
 ! D30   D(9,5,6,10)             0.0            estimate D2E/DX2                !
 ! D31   D(3,11,23,12)          -0.0003         estimate D2E/DX2                !
 ! D32   D(3,11,23,13)         179.9991         estimate D2E/DX2                !
 ! D33   D(25,11,23,12)       -179.9989         estimate D2E/DX2                !
 ! D34   D(25,11,23,13)          0.0005         estimate D2E/DX2                !
 ! D35   D(2,12,23,11)           0.0002         estimate D2E/DX2                !
 ! D36   D(2,12,23,13)        -179.9991         estimate D2E/DX2                !
 ! D37   D(15,13,14,16)         -0.0002         estimate D2E/DX2                !
 ! D38   D(15,13,14,17)        179.9999         estimate D2E/DX2                !
 ! D39   D(23,13,14,16)        179.9998         estimate D2E/DX2                !
 ! D40   D(23,13,14,17)         -0.0002         estimate D2E/DX2                !
 ! D41   D(14,13,15,18)          0.0001         estimate D2E/DX2                !
 ! D42   D(14,13,15,24)        180.0            estimate D2E/DX2                !
 ! D43   D(23,13,15,18)       -179.9998         estimate D2E/DX2                !
 ! D44   D(23,13,15,24)          0.0001         estimate D2E/DX2                !
 ! D45   D(14,13,23,11)        179.9995         estimate D2E/DX2                !
 ! D46   D(14,13,23,12)         -0.0012         estimate D2E/DX2                !
 ! D47   D(15,13,23,11)         -0.0006         estimate D2E/DX2                !
 ! D48   D(15,13,23,12)        179.9987         estimate D2E/DX2                !
 ! D49   D(13,14,16,19)          0.0001         estimate D2E/DX2                !
 ! D50   D(13,14,16,20)       -179.9999         estimate D2E/DX2                !
 ! D51   D(17,14,16,19)       -179.9999         estimate D2E/DX2                !
 ! D52   D(17,14,16,20)          0.0001         estimate D2E/DX2                !
 ! D53   D(13,15,18,19)          0.0001         estimate D2E/DX2                !
 ! D54   D(13,15,18,21)        179.9998         estimate D2E/DX2                !
 ! D55   D(24,15,18,19)       -179.9998         estimate D2E/DX2                !
 ! D56   D(24,15,18,21)         -0.0001         estimate D2E/DX2                !
 ! D57   D(14,16,19,18)          0.0001         estimate D2E/DX2                !
 ! D58   D(14,16,19,22)       -179.9999         estimate D2E/DX2                !
 ! D59   D(20,16,19,18)       -179.9999         estimate D2E/DX2                !
 ! D60   D(20,16,19,22)          0.0001         estimate D2E/DX2                !
 ! D61   D(15,18,19,16)         -0.0002         estimate D2E/DX2                !
 ! D62   D(15,18,19,22)        179.9998         estimate D2E/DX2                !
 ! D63   D(21,18,19,16)       -179.9999         estimate D2E/DX2                !
 ! D64   D(21,18,19,22)          0.0001         estimate D2E/DX2                !
 ! Qtot  GIC-1                  50.0            Frozen                          !
 ! Ptot  GIC-2                 -20.0            Frozen                          !
 --------------------------------------------------------------------------------
 NOTE: GIC-type coordinates are in arbitrary units.
 Trust Radius=3.00D-01 FncErr=5.00D-06 GrdErr=5.00D-06 EigMax=2.50D+02 EigMin=1.00D-04
 Number of steps in this run=    146 maximum allowed number of steps=    150.
 GradGradGradGradGradGradGradGradGradGradGradGradGradGradGradGradGradGrad

 Leave Link  103 at Tue Oct 27 21:59:05 2020, MaxMem=  7784628224 cpu:               0.3 elap:               0.1
 (Enter /gpfs/loomis/apps/avx/software/Gaussian/16-C.01_AVX/g16/l202.exe)
                          Input orientation:                          
 ---------------------------------------------------------------------
 Center     Atomic      Atomic             Coordinates (Angstroms)
 Number     Number       Type             X           Y           Z
 ---------------------------------------------------------------------
      1          6           0        1.678290   -3.259473   -0.000022
      2          6           0        1.009042   -2.035658   -0.000021
      3          6           0        1.721251   -0.810959   -0.000021
      4          6           0        3.114787   -0.814230   -0.000022
      5          6           0        3.776587   -2.038479   -0.000022
      6          6           0        3.073333   -3.248413   -0.000022
      7          1           0        1.125165   -4.199566   -0.000021
      8          1           0        3.663968    0.127625   -0.000022
      9          1           0        4.867675   -2.050180   -0.000023
     10          1           0        3.618211   -4.193060   -0.000022
     11          7           0        0.890499    0.293312   -0.000021
     12         16           0       -0.731779   -1.753238   -0.000020
     13          6           0       -1.396223    1.030764    0.000004
     14          6           0       -2.762629    0.834593   -0.000001
     15          6           0       -0.856431    2.421803    0.000032
     16          6           0       -3.651319    1.944731    0.000025
     17          1           0       -3.180239   -0.175504   -0.000024
     18          6           0       -1.800883    3.493091    0.000056
     19          6           0       -3.175807    3.255695    0.000054
     20          1           0       -4.725454    1.753347    0.000022
     21          1           0       -1.383788    4.501254    0.000080
     22          1           0       -3.877467    4.090106    0.000075
     23          6           0       -0.430377   -0.025072   -0.000016
     24          8           0        0.384066    2.629089    0.000037
     25          1           0        1.070899    1.053460   -0.000006
 ---------------------------------------------------------------------
                    Distance matrix (angstroms):
                    1          2          3          4          5
     1  C    0.000000
     2  C    1.394854   0.000000
     3  C    2.448892   1.416732   0.000000
     4  C    2.835973   2.434348   1.393540   0.000000
     5  C    2.427690   2.767546   2.393994   1.391676   0.000000
     6  C    1.395087   2.394175   2.787348   2.434536   1.399467
     7  H    1.090744   2.167022   3.440637   3.926716   3.420576
     8  H    3.926239   3.424679   2.157565   1.090271   2.169029
     9  H    3.410949   3.858661   3.381665   2.144805   1.091151
    10  H    2.152877   3.385580   3.877765   3.416127   2.160394
    11  N    3.639079   2.331984   1.381869   2.484775   3.710357
    12  S    2.842037   1.763580   2.627783   3.959521   4.517380
    13  C    5.278140   3.897209   3.620855   4.873728   6.014833
    14  C    6.040127   4.739603   4.776298   6.104313   7.142540
    15  C    6.221070   4.832075   4.134634   5.122742   6.431094
    16  C    7.449058   6.128821   6.038073   7.306987   8.428507
    17  H    5.754665   4.583693   4.942510   6.327348   7.201951
    18  C    7.596168   6.201834   5.561499   6.535812   7.855344
    19  C    8.124633   6.746211   6.365441   7.492387   8.738652
    20  H    8.132423   6.873209   6.937988   8.249960   9.309277
    21  H    8.342974   6.961095   6.153119   6.963588   8.330520
    22  H    9.213184   7.836003   7.440839   8.540734   9.805309
    23  C    3.861066   2.472727   2.290659   3.631936   4.663941
    24  O    6.029111   4.706427   3.690798   4.394688   5.770215
    25  H    4.355493   3.089736   1.974592   2.768708   4.108628
                    6          7          8          9         10
     6  C    0.000000
     7  H    2.167960   0.000000
     8  H    3.427314   5.016982   0.000000
     9  H    2.157644   4.315813   2.488322   0.000000
    10  H    1.090527   2.493055   4.320927   2.480543   0.000000
    11  N    4.160358   4.499002   2.778414   4.616263   5.250518
    12  S    4.088327   3.071280   4.781238   5.607322   4.987499
    13  C    6.187753   5.806354   5.140155   6.980590   7.241055
    14  C    7.122456   6.360637   6.465365   8.157417   8.123571
    15  C    6.898869   6.911531   5.069247   7.263885   7.986165
    16  C    8.496451   7.782492   7.537592   9.409175   9.514123
    17  H    6.967778   5.893181   6.850917   8.263373   7.896815
    18  C    8.319006   8.230355   6.418018   8.671651   9.404440
    19  C    9.019709   8.606932   7.521126   9.635866  10.081796
    20  H    9.264916   8.346671   8.545489  10.319639  10.245804
    21  H    8.939981   9.055337   6.678957   9.055500  10.030508
    22  H   10.107793   9.682200   8.519067  10.685534  11.171214
    23  C    4.760872   4.454898   4.097191   5.671897   5.810610
    24  O    6.463527   6.868753   4.124934   6.480611   7.549928
    25  H    4.745087   5.253306   2.753393   4.903885   5.832218
                   11         12         13         14         15
    11  N    0.000000
    12  S    2.611541   0.000000
    13  C    2.402693   2.862193   0.000000
    14  C    3.693010   3.289562   1.380415   0.000000
    15  C    2.753587   4.176901   1.492101   2.480488   0.000000
    16  C    4.832731   4.711548   2.433267   1.422032   2.835312
    17  H    4.097645   2.912766   2.153554   1.093021   3.485123
    18  C    4.181163   5.354153   2.495357   2.827113   1.428163
    19  C    5.030959   5.573390   2.849076   2.456104   2.464726
    20  H    5.802640   5.314657   3.406744   2.167208   3.926343
    21  H    4.783217   6.288385   3.470513   3.917346   2.145279
    22  H    6.095010   6.636266   3.939054   3.441108   3.451071
    23  C    1.358705   1.754252   1.430961   2.485643   2.483691
    24  O    2.390048   4.522156   2.392504   3.622417   1.257697
    25  H    0.781261   3.335745   2.467227   3.839771   2.363676
                   16         17         18         19         20
    16  C    0.000000
    17  H    2.171937   0.000000
    18  C    2.412785   3.919338   0.000000
    19  C    1.394539   3.431201   1.395268   0.000000
    20  H    1.091052   2.471468   3.402914   2.158346   0.000000
    21  H    3.417237   5.009920   1.091037   2.182372   4.326399
    22  H    2.157262   4.322216   2.160701   1.090216   2.485865
    23  C    3.775525   2.753974   3.775680   4.277945   4.648706
    24  O    4.093004   4.535418   2.349575   3.614599   5.184026
    25  H    4.805591   4.425215   3.768148   4.783759   5.838455
                   21         22         23         24         25
    21  H    0.000000
    22  H    2.527346   0.000000
    23  C    4.625648   5.368158   0.000000
    24  O    2.574939   4.505024   2.776308   0.000000
    25  H    4.232349   5.805820   1.848529   1.718822   0.000000
 Symmetry turned off by external request.
 Stoichiometry    C13H9NOS
 Framework group  C1[X(C13H9NOS)]
 Deg. of freedom    69
 Full point group                 C1      NOp   1
 Rotational constants (GHZ):           1.3856381           0.2857730           0.2369124
 Leave Link  202 at Tue Oct 27 21:59:06 2020, MaxMem=  7784628224 cpu:               0.2 elap:               0.1
 (Enter /gpfs/loomis/apps/avx/software/Gaussian/16-C.01_AVX/g16/l301.exe)
 Standard basis: CC-pVDZ (5D, 7F)
 Ernie: Thresh=  0.10000D-02 Tol=  0.10000D-05 Strict=F.
 Ernie:  40 primitive shells out of 425 were deleted.
   273 basis functions,   629 primitive gaussians,   289 cartesian basis functions
    59 alpha electrons       59 beta electrons
       nuclear repulsion energy      1100.2554422057 Hartrees.
 IExCor= 4639 DFT=T Ex+Corr=wB97XD ExCW=0 ScaHFX=  1.000000
 ScaDFX=  1.000000  1.000000  1.000000  1.000000 ScalE2=  1.000000  1.000000
 IRadAn=      5 IRanWt=     -1 IRanGd=            0 ICorTp=0 IEmpDi=121
 HFx  wShort=  0.000000 wLong=  0.200000 cFull=  0.222036 cShort=  0.000000 cLong=  0.777964
 DFx  wShort=  0.000000 wLong=  0.200000 cFull=  0.000000 cShort=  0.000000 cLong=  1.000000
 NAtoms=   25 NActive=   25 NUniq=   25 SFac= 1.00D+00 NAtFMM=   60 NAOKFM=F Big=F
 Integral buffers will be    131072 words long.
 Raffenetti 2 integral format.
 Two-electron integral symmetry is turned off.
 R6Disp:  Grimme-D2 Dispersion energy=       -0.0141123742 Hartrees.
 Nuclear repulsion after empirical dispersion term =     1100.2413298315 Hartrees.
 ------------------------------------------------------------------------------
 Polarizable Continuum Model (PCM)
 =================================
 Model                : PCM.
 Atomic radii         : UFF (Universal Force Field).
 Polarization charges : Total charges.
 Charge compensation  : None.
 Solution method      : On-the-fly selection.
 Cavity type          : Scaled VdW (van der Waals Surface) (Alpha=1.100).
 Cavity algorithm     : GePol (No added spheres)
                        Default sphere list used, NSphG=   25.
                        Lebedev-Laikov grids with approx.  5.0 points / Ang**2.
                        Smoothing algorithm: York/Karplus (Gamma=1.0000).
                        Polarization charges: spherical gaussians, with
                                              point-specific exponents (IZeta= 3).
                        Self-potential: point-specific (ISelfS= 7).
                        Self-field    : sphere-specific E.n sum rule (ISelfD= 2).
 1st derivatives      : Analytical E(r).r(x)/FMM algorithm (CHGder, D1EAlg=3).
                        Cavity 1st derivative terms included.
 Solvent              : CarbonTetraChloride, Eps=   2.228000 Eps(inf)=   2.131892
 ------------------------------------------------------------------------------
 GePol: Number of generator spheres                  =      25
 GePol: Total number of spheres                      =      25
 GePol: Number of exposed spheres                    =      25 (100.00%)
 GePol: Number of points                             =    2200
 GePol: Average weight of points                     =       0.12
 GePol: Minimum weight of points                     =   0.98D-08
 GePol: Maximum weight of points                     =    0.20577
 GePol: Number of points with low weight             =     155
 GePol: Fraction of low-weight points (<1% of avg)   =       7.05%
 GePol: Cavity surface area                          =    273.852 Ang**2
 GePol: Cavity volume                                =    292.916 Ang**3
 Leave Link  301 at Tue Oct 27 21:59:06 2020, MaxMem=  7784628224 cpu:               0.8 elap:               0.1
 (Enter /gpfs/loomis/apps/avx/software/Gaussian/16-C.01_AVX/g16/l302.exe)
 NPDir=0 NMtPBC=     1 NCelOv=     1 NCel=       1 NClECP=     1 NCelD=      1
         NCelK=      1 NCelE2=     1 NClLst=     1 CellRange=     0.0.
 One-electron integrals computed using PRISM.
 NBasis=   273 RedAO= T EigKep=  3.01D-04  NBF=   273
 NBsUse=   273 1.00D-06 EigRej= -1.00D+00 NBFU=   273
 Precomputing XC quadrature grid using
 IXCGrd= 4 IRadAn=           5 IRanWt=          -1 IRanGd=           0 AccXCQ= 0.00D+00.
 Generated NRdTot=       0 NPtTot=           0 NUsed=           0 NTot=          32
 NSgBfM=   288   288   288   288   288 MxSgAt=    25 MxSgA2=    25.
 Leave Link  302 at Tue Oct 27 21:59:06 2020, MaxMem=  7784628224 cpu:               2.9 elap:               0.3
 (Enter /gpfs/loomis/apps/avx/software/Gaussian/16-C.01_AVX/g16/l303.exe)
 DipDrv:  MaxL=1.
 Leave Link  303 at Tue Oct 27 21:59:06 2020, MaxMem=  7784628224 cpu:               0.4 elap:               0.1
 (Enter /gpfs/loomis/apps/avx/software/Gaussian/16-C.01_AVX/g16/l401.exe)
 ExpMin= 1.22D-01 ExpMax= 1.11D+05 ExpMxC= 1.07D+03 IAcc=3 IRadAn=         5 AccDes= 0.00D+00
 Harris functional with IExCor= 4639 and IRadAn=       5 diagonalized for initial guess.
 HarFok:  IExCor= 4639 AccDes= 0.00D+00 IRadAn=         5 IDoV= 1 UseB2=F ITyADJ=14
 ICtDFT=  3500011 ScaDFX=  1.000000  1.000000  1.000000  1.000000
 FoFCou: FMM=F IPFlag=           0 FMFlag=      100000 FMFlg1=           0
         NFxFlg=           0 DoJE=T BraDBF=F KetDBF=T FulRan=T
         wScrn=  0.000000 ICntrl=       500 IOpCl=  0 I1Cent=   200000004 NGrid=           0
         NMat0=    1 NMatS0=      1 NMatT0=    0 NMatD0=    1 NMtDS0=    0 NMtDT0=    0
 Symmetry not used in FoFCou.
 Harris En= -994.356527477414    
 JPrj=0 DoOrth=F DoCkMO=F.
 Leave Link  401 at Tue Oct 27 21:59:08 2020, MaxMem=  7784628224 cpu:              14.3 elap:               1.5
 (Enter /gpfs/loomis/apps/avx/software/Gaussian/16-C.01_AVX/g16/l502.exe)
 Two-electron integral symmetry not used.
 Closed shell SCF:
 Using DIIS extrapolation, IDIIS=  1040.
 NGot=  7784628224 LenX=  7784455381 LenY=  7784371419
 Requested convergence on RMS density matrix=1.00D-08 within 128 cycles.
 Requested convergence on MAX density matrix=1.00D-06.
 Requested convergence on             energy=1.00D-06.
 No special actions if energy rises.
 Fock matrices will be formed incrementally for  20 cycles.

 Cycle   1  Pass 1  IDiag  1:
 FoFJK:  IHMeth= 1 ICntrl=       0 DoSepK=T KAlg= 0 I1Cent=           0 FoldK=F
 IRaf=         1 NMat=       1 IRICut=       1 DoRegI=T DoRafI=F ISym2E= 0 IDoP0=0 IntGTp=1.
 FoFCou: FMM=F IPFlag=           0 FMFlag=      100000 FMFlg1=           0
         NFxFlg=           0 DoJE=T BraDBF=F KetDBF=F FulRan=T
         wScrn=  0.000000 ICntrl=       500 IOpCl=  0 I1Cent=           0 NGrid=           0
         NMat0=    1 NMatS0=      1 NMatT0=    0 NMatD0=    1 NMtDS0=    0 NMtDT0=    0
 Symmetry not used in FoFCou.
 Inv3:  Mode=1 IEnd=    14520000.
 Iteration    1 A*A^-1 deviation from unit magnitude is 3.77D-15 for   2199.
 Iteration    1 A*A^-1 deviation from orthogonality  is 2.28D-15 for   1104    633.
 Iteration    1 A^-1*A deviation from unit magnitude is 4.22D-15 for   2200.
 Iteration    1 A^-1*A deviation from orthogonality  is 1.72D-15 for   1862   1509.
 E= -1028.46530102763    
 DIIS: error= 3.80D-02 at cycle   1 NSaved=   1.
 NSaved= 1 IEnMin= 1 EnMin= -1028.46530102763     IErMin= 1 ErrMin= 3.80D-02
 ErrMax= 3.80D-02  0.00D+00 EMaxC= 1.00D-01 BMatC= 3.94D-01 BMatP= 3.94D-01
 IDIUse=3 WtCom= 6.20D-01 WtEn= 3.80D-01
 Coeff-Com:  0.100D+01
 Coeff-En:   0.100D+01
 Coeff:      0.100D+01
 Gap=     0.303 Goal=   None    Shift=    0.000
 GapD=    0.303 DampG=1.000 DampE=0.500 DampFc=0.5000 IDamp=-1.
 Damping current iteration by 5.00D-01
 RMSDP=3.69D-03 MaxDP=2.52D-01              OVMax= 2.17D-01

 Cycle   2  Pass 1  IDiag  1:
 RMSU=  1.84D-03    CP:  9.94D-01
 E= -1028.58794512941     Delta-E=       -0.122644101779 Rises=F Damp=T
 DIIS: error= 1.19D-02 at cycle   2 NSaved=   2.
 NSaved= 2 IEnMin= 2 EnMin= -1028.58794512941     IErMin= 2 ErrMin= 1.19D-02
 ErrMax= 1.19D-02  0.00D+00 EMaxC= 1.00D-01 BMatC= 5.82D-02 BMatP= 3.94D-01
 IDIUse=3 WtCom= 8.81D-01 WtEn= 1.19D-01
 Coeff-Com: -0.284D+00 0.128D+01
 Coeff-En:   0.000D+00 0.100D+01
 Coeff:     -0.250D+00 0.125D+01
 Gap=     0.369 Goal=   None    Shift=    0.000
 RMSDP=1.18D-03 MaxDP=2.96D-02 DE=-1.23D-01 OVMax= 1.52D-01

 Cycle   3  Pass 1  IDiag  1:
 RMSU=  1.14D-03    CP:  9.92D-01  1.16D+00
 E= -1028.69924490311     Delta-E=       -0.111299773705 Rises=F Damp=F
 DIIS: error= 6.55D-03 at cycle   3 NSaved=   3.
 NSaved= 3 IEnMin= 3 EnMin= -1028.69924490311     IErMin= 3 ErrMin= 6.55D-03
 ErrMax= 6.55D-03  0.00D+00 EMaxC= 1.00D-01 BMatC= 1.52D-02 BMatP= 5.82D-02
 IDIUse=3 WtCom= 9.35D-01 WtEn= 6.55D-02
 Coeff-Com: -0.203D+00 0.496D+00 0.706D+00
 Coeff-En:   0.000D+00 0.000D+00 0.100D+01
 Coeff:     -0.189D+00 0.464D+00 0.725D+00
 Gap=     0.233 Goal=   None    Shift=    0.000
 RMSDP=5.50D-04 MaxDP=2.16D-02 DE=-1.11D-01 OVMax= 4.87D-02

 Cycle   4  Pass 1  IDiag  1:
 RMSU=  4.34D-04    CP:  9.91D-01  1.31D+00  8.54D-01
 E= -1028.71442295110     Delta-E=       -0.015178047983 Rises=F Damp=F
 DIIS: error= 2.15D-03 at cycle   4 NSaved=   4.
 NSaved= 4 IEnMin= 4 EnMin= -1028.71442295110     IErMin= 4 ErrMin= 2.15D-03
 ErrMax= 2.15D-03  0.00D+00 EMaxC= 1.00D-01 BMatC= 1.86D-03 BMatP= 1.52D-02
 IDIUse=3 WtCom= 9.79D-01 WtEn= 2.15D-02
 Coeff-Com: -0.714D-01 0.141D+00 0.340D+00 0.591D+00
 Coeff-En:   0.000D+00 0.000D+00 0.000D+00 0.100D+01
 Coeff:     -0.698D-01 0.138D+00 0.332D+00 0.600D+00
 Gap=     0.236 Goal=   None    Shift=    0.000
 RMSDP=1.72D-04 MaxDP=9.43D-03 DE=-1.52D-02 OVMax= 1.35D-02

 Cycle   5  Pass 1  IDiag  1:
 RMSU=  1.13D-04    CP:  9.90D-01  1.33D+00  9.26D-01  7.73D-01
 E= -1028.71647958590     Delta-E=       -0.002056634801 Rises=F Damp=F
 DIIS: error= 5.49D-04 at cycle   5 NSaved=   5.
 NSaved= 5 IEnMin= 5 EnMin= -1028.71647958590     IErMin= 5 ErrMin= 5.49D-04
 ErrMax= 5.49D-04  0.00D+00 EMaxC= 1.00D-01 BMatC= 6.21D-05 BMatP= 1.86D-03
 IDIUse=3 WtCom= 9.95D-01 WtEn= 5.49D-03
 Coeff-Com:  0.127D-03-0.671D-02 0.225D-01 0.152D+00 0.832D+00
 Coeff-En:   0.000D+00 0.000D+00 0.000D+00 0.000D+00 0.100D+01
 Coeff:      0.127D-03-0.667D-02 0.223D-01 0.151D+00 0.833D+00
 Gap=     0.237 Goal=   None    Shift=    0.000
 RMSDP=6.25D-05 MaxDP=2.02D-03 DE=-2.06D-03 OVMax= 6.92D-03

 Cycle   6  Pass 1  IDiag  1:
 RMSU=  3.98D-05    CP:  9.90D-01  1.33D+00  9.43D-01  8.66D-01  1.14D+00
 E= -1028.71663169955     Delta-E=       -0.000152113653 Rises=F Damp=F
 DIIS: error= 2.64D-04 at cycle   6 NSaved=   6.
 NSaved= 6 IEnMin= 6 EnMin= -1028.71663169955     IErMin= 6 ErrMin= 2.64D-04
 ErrMax= 2.64D-04  0.00D+00 EMaxC= 1.00D-01 BMatC= 1.12D-05 BMatP= 6.21D-05
 IDIUse=3 WtCom= 9.97D-01 WtEn= 2.64D-03
 Coeff-Com:  0.180D-01-0.364D-01-0.712D-01-0.907D-01 0.191D+00 0.989D+00
 Coeff-En:   0.000D+00 0.000D+00 0.000D+00 0.000D+00 0.000D+00 0.100D+01
 Coeff:      0.179D-01-0.363D-01-0.710D-01-0.905D-01 0.191D+00 0.989D+00
 Gap=     0.238 Goal=   None    Shift=    0.000
 RMSDP=4.17D-05 MaxDP=1.96D-03 DE=-1.52D-04 OVMax= 5.01D-03

 Cycle   7  Pass 1  IDiag  1:
 RMSU=  1.93D-05    CP:  9.90D-01  1.33D+00  9.57D-01  9.04D-01  1.36D+00
                    CP:  1.37D+00
 E= -1028.71667556585     Delta-E=       -0.000043866302 Rises=F Damp=F
 DIIS: error= 7.49D-05 at cycle   7 NSaved=   7.
 NSaved= 7 IEnMin= 7 EnMin= -1028.71667556585     IErMin= 7 ErrMin= 7.49D-05
 ErrMax= 7.49D-05  0.00D+00 EMaxC= 1.00D-01 BMatC= 2.27D-06 BMatP= 1.12D-05
 IDIUse=1 WtCom= 1.00D+00 WtEn= 0.00D+00
 Coeff-Com:  0.635D-02-0.119D-01-0.259D-01-0.507D-01-0.269D-01 0.376D+00
 Coeff-Com:  0.733D+00
 Coeff:      0.635D-02-0.119D-01-0.259D-01-0.507D-01-0.269D-01 0.376D+00
 Coeff:      0.733D+00
 Gap=     0.238 Goal=   None    Shift=    0.000
 RMSDP=1.34D-05 MaxDP=4.73D-04 DE=-4.39D-05 OVMax= 1.60D-03

 Cycle   8  Pass 1  IDiag  1:
 RMSU=  7.78D-06    CP:  9.90D-01  1.33D+00  9.58D-01  9.10D-01  1.40D+00
                    CP:  1.59D+00  1.17D+00
 E= -1028.71668146341     Delta-E=       -0.000005897560 Rises=F Damp=F
 DIIS: error= 5.98D-05 at cycle   8 NSaved=   8.
 NSaved= 8 IEnMin= 8 EnMin= -1028.71668146341     IErMin= 8 ErrMin= 5.98D-05
 ErrMax= 5.98D-05  0.00D+00 EMaxC= 1.00D-01 BMatC= 4.14D-07 BMatP= 2.27D-06
 IDIUse=1 WtCom= 1.00D+00 WtEn= 0.00D+00
 Coeff-Com: -0.172D-02 0.369D-02 0.792D-02 0.351D-02-0.403D-01-0.105D+00
 Coeff-Com:  0.214D+00 0.918D+00
 Coeff:     -0.172D-02 0.369D-02 0.792D-02 0.351D-02-0.403D-01-0.105D+00
 Coeff:      0.214D+00 0.918D+00
 Gap=     0.238 Goal=   None    Shift=    0.000
 RMSDP=7.84D-06 MaxDP=2.09D-04 DE=-5.90D-06 OVMax= 1.30D-03

 Cycle   9  Pass 1  IDiag  1:
 RMSU=  3.24D-06    CP:  9.90D-01  1.33D+00  9.58D-01  9.09D-01  1.42D+00
                    CP:  1.70D+00  1.43D+00  1.17D+00
 E= -1028.71668320989     Delta-E=       -0.000001746474 Rises=F Damp=F
 DIIS: error= 1.71D-05 at cycle   9 NSaved=   9.
 NSaved= 9 IEnMin= 9 EnMin= -1028.71668320989     IErMin= 9 ErrMin= 1.71D-05
 ErrMax= 1.71D-05  0.00D+00 EMaxC= 1.00D-01 BMatC= 1.17D-07 BMatP= 4.14D-07
 IDIUse=1 WtCom= 1.00D+00 WtEn= 0.00D+00
 Coeff-Com: -0.146D-02 0.287D-02 0.673D-02 0.816D-02-0.113D-01-0.102D+00
 Coeff-Com: -0.566D-01 0.351D+00 0.802D+00
 Coeff:     -0.146D-02 0.287D-02 0.673D-02 0.816D-02-0.113D-01-0.102D+00
 Coeff:     -0.566D-01 0.351D+00 0.802D+00
 Gap=     0.238 Goal=   None    Shift=    0.000
 RMSDP=4.10D-06 MaxDP=1.34D-04 DE=-1.75D-06 OVMax= 5.71D-04

 Cycle  10  Pass 1  IDiag  1:
 RMSU=  1.63D-06    CP:  9.90D-01  1.33D+00  9.58D-01  9.09D-01  1.43D+00
                    CP:  1.75D+00  1.53D+00  1.44D+00  1.19D+00
 E= -1028.71668359590     Delta-E=       -0.000000386014 Rises=F Damp=F
 DIIS: error= 1.23D-05 at cycle  10 NSaved=  10.
 NSaved=10 IEnMin=10 EnMin= -1028.71668359590     IErMin=10 ErrMin= 1.23D-05
 ErrMax= 1.23D-05  0.00D+00 EMaxC= 1.00D-01 BMatC= 2.30D-08 BMatP= 1.17D-07
 IDIUse=1 WtCom= 1.00D+00 WtEn= 0.00D+00
 Coeff-Com:  0.757D-04-0.224D-03 0.383D-04 0.128D-02 0.807D-02-0.846D-02
 Coeff-Com: -0.835D-01-0.826D-01 0.325D+00 0.841D+00
 Coeff:      0.757D-04-0.224D-03 0.383D-04 0.128D-02 0.807D-02-0.846D-02
 Coeff:     -0.835D-01-0.826D-01 0.325D+00 0.841D+00
 Gap=     0.238 Goal=   None    Shift=    0.000
 RMSDP=1.84D-06 MaxDP=5.57D-05 DE=-3.86D-07 OVMax= 3.39D-04

 Cycle  11  Pass 1  IDiag  1:
 RMSU=  6.25D-07    CP:  9.90D-01  1.33D+00  9.58D-01  9.10D-01  1.43D+00
                    CP:  1.77D+00  1.57D+00  1.54D+00  1.50D+00  1.12D+00
 E= -1028.71668368327     Delta-E=       -0.000000087369 Rises=F Damp=F
 DIIS: error= 3.88D-06 at cycle  11 NSaved=  11.
 NSaved=11 IEnMin=11 EnMin= -1028.71668368327     IErMin=11 ErrMin= 3.88D-06
 ErrMax= 3.88D-06  0.00D+00 EMaxC= 1.00D-01 BMatC= 4.87D-09 BMatP= 2.30D-08
 IDIUse=1 WtCom= 1.00D+00 WtEn= 0.00D+00
 Coeff-Com:  0.288D-03-0.594D-03-0.108D-02-0.993D-03 0.546D-02 0.138D-01
 Coeff-Com: -0.245D-01-0.857D-01-0.346D-01 0.308D+00 0.820D+00
 Coeff:      0.288D-03-0.594D-03-0.108D-02-0.993D-03 0.546D-02 0.138D-01
 Coeff:     -0.245D-01-0.857D-01-0.346D-01 0.308D+00 0.820D+00
 Gap=     0.238 Goal=   None    Shift=    0.000
 RMSDP=7.93D-07 MaxDP=2.28D-05 DE=-8.74D-08 OVMax= 1.22D-04

 Cycle  12  Pass 1  IDiag  1:
 RMSU=  2.53D-07    CP:  9.90D-01  1.33D+00  9.58D-01  9.10D-01  1.43D+00
                    CP:  1.78D+00  1.58D+00  1.59D+00  1.60D+00  1.37D+00
                    CP:  1.15D+00
 E= -1028.71668369740     Delta-E=       -0.000000014125 Rises=F Damp=F
 DIIS: error= 1.38D-06 at cycle  12 NSaved=  12.
 NSaved=12 IEnMin=12 EnMin= -1028.71668369740     IErMin=12 ErrMin= 1.38D-06
 ErrMax= 1.38D-06  0.00D+00 EMaxC= 1.00D-01 BMatC= 6.22D-10 BMatP= 4.87D-09
 IDIUse=1 WtCom= 1.00D+00 WtEn= 0.00D+00
 Coeff-Com:  0.122D-03-0.236D-03-0.504D-03-0.861D-03 0.842D-03 0.807D-02
 Coeff-Com:  0.673D-02-0.157D-01-0.844D-01-0.449D-01 0.274D+00 0.857D+00
 Coeff:      0.122D-03-0.236D-03-0.504D-03-0.861D-03 0.842D-03 0.807D-02
 Coeff:      0.673D-02-0.157D-01-0.844D-01-0.449D-01 0.274D+00 0.857D+00
 Gap=     0.238 Goal=   None    Shift=    0.000
 RMSDP=3.18D-07 MaxDP=7.63D-06 DE=-1.41D-08 OVMax= 5.15D-05

 Cycle  13  Pass 1  IDiag  1:
 RMSU=  9.54D-08    CP:  9.90D-01  1.33D+00  9.58D-01  9.10D-01  1.43D+00
                    CP:  1.78D+00  1.58D+00  1.61D+00  1.65D+00  1.46D+00
                    CP:  1.37D+00  1.08D+00
 E= -1028.71668369962     Delta-E=       -0.000000002221 Rises=F Damp=F
 DIIS: error= 5.34D-07 at cycle  13 NSaved=  13.
 NSaved=13 IEnMin=13 EnMin= -1028.71668369962     IErMin=13 ErrMin= 5.34D-07
 ErrMax= 5.34D-07  0.00D+00 EMaxC= 1.00D-01 BMatC= 6.83D-11 BMatP= 6.22D-10
 IDIUse=1 WtCom= 1.00D+00 WtEn= 0.00D+00
 Coeff-Com: -0.143D-04 0.310D-04 0.541D-04-0.361D-04-0.289D-03 0.320D-04
 Coeff-Com:  0.322D-02 0.689D-02-0.114D-01-0.391D-01-0.702D-01 0.173D+00
 Coeff-Com:  0.937D+00
 Coeff:     -0.143D-04 0.310D-04 0.541D-04-0.361D-04-0.289D-03 0.320D-04
 Coeff:      0.322D-02 0.689D-02-0.114D-01-0.391D-01-0.702D-01 0.173D+00
 Coeff:      0.937D+00
 Gap=     0.238 Goal=   None    Shift=    0.000
 RMSDP=9.54D-08 MaxDP=2.13D-06 DE=-2.22D-09 OVMax= 1.19D-05

 Cycle  14  Pass 1  IDiag  1:
 RMSU=  3.45D-08    CP:  9.90D-01  1.33D+00  9.58D-01  9.10D-01  1.43D+00
                    CP:  1.78D+00  1.58D+00  1.61D+00  1.66D+00  1.49D+00
                    CP:  1.42D+00  1.24D+00  1.19D+00
 E= -1028.71668369982     Delta-E=       -0.000000000203 Rises=F Damp=F
 DIIS: error= 1.58D-07 at cycle  14 NSaved=  14.
 NSaved=14 IEnMin=14 EnMin= -1028.71668369982     IErMin=14 ErrMin= 1.58D-07
 ErrMax= 1.58D-07  0.00D+00 EMaxC= 1.00D-01 BMatC= 7.60D-12 BMatP= 6.83D-11
 IDIUse=1 WtCom= 1.00D+00 WtEn= 0.00D+00
 Coeff-Com: -0.134D-04 0.269D-04 0.560D-04 0.530D-04-0.157D-03-0.654D-03
 Coeff-Com:  0.305D-03 0.363D-02 0.371D-02-0.606D-02-0.455D-01-0.193D-01
 Coeff-Com:  0.310D+00 0.754D+00
 Coeff:     -0.134D-04 0.269D-04 0.560D-04 0.530D-04-0.157D-03-0.654D-03
 Coeff:      0.305D-03 0.363D-02 0.371D-02-0.606D-02-0.455D-01-0.193D-01
 Coeff:      0.310D+00 0.754D+00
 Gap=     0.238 Goal=   None    Shift=    0.000
 RMSDP=1.87D-08 MaxDP=5.58D-07 DE=-2.03D-10 OVMax= 2.29D-06

 Cycle  15  Pass 1  IDiag  1:
 RMSU=  1.14D-08    CP:  9.90D-01  1.33D+00  9.58D-01  9.10D-01  1.43D+00
                    CP:  1.78D+00  1.58D+00  1.61D+00  1.66D+00  1.49D+00
                    CP:  1.43D+00  1.26D+00  1.30D+00  1.11D+00
 E= -1028.71668369983     Delta-E=       -0.000000000013 Rises=F Damp=F
 DIIS: error= 7.21D-08 at cycle  15 NSaved=  15.
 NSaved=15 IEnMin=15 EnMin= -1028.71668369983     IErMin=15 ErrMin= 7.21D-08
 ErrMax= 7.21D-08  0.00D+00 EMaxC= 1.00D-01 BMatC= 1.25D-12 BMatP= 7.60D-12
 IDIUse=1 WtCom= 1.00D+00 WtEn= 0.00D+00
 Coeff-Com: -0.238D-05 0.426D-05 0.118D-04 0.319D-04-0.669D-05-0.293D-03
 Coeff-Com: -0.621D-03-0.405D-04 0.382D-02 0.670D-02-0.211D-02-0.504D-01
 Coeff-Com: -0.876D-01 0.218D+00 0.912D+00
 Coeff:     -0.238D-05 0.426D-05 0.118D-04 0.319D-04-0.669D-05-0.293D-03
 Coeff:     -0.621D-03-0.405D-04 0.382D-02 0.670D-02-0.211D-02-0.504D-01
 Coeff:     -0.876D-01 0.218D+00 0.912D+00
 Gap=     0.238 Goal=   None    Shift=    0.000
 RMSDP=1.20D-08 MaxDP=2.98D-07 DE=-1.32D-11 OVMax= 1.45D-06

 Cycle  16  Pass 1  IDiag  1:
 RMSU=  4.96D-09    CP:  9.90D-01  1.33D+00  9.58D-01  9.10D-01  1.43D+00
                    CP:  1.78D+00  1.58D+00  1.61D+00  1.66D+00  1.49D+00
                    CP:  1.43D+00  1.28D+00  1.37D+00  1.29D+00  1.19D+00
 E= -1028.71668369984     Delta-E=       -0.000000000006 Rises=F Damp=F
 DIIS: error= 2.81D-08 at cycle  16 NSaved=  16.
 NSaved=16 IEnMin=16 EnMin= -1028.71668369984     IErMin=16 ErrMin= 2.81D-08
 ErrMax= 2.81D-08  0.00D+00 EMaxC= 1.00D-01 BMatC= 1.43D-13 BMatP= 1.25D-12
 IDIUse=1 WtCom= 1.00D+00 WtEn= 0.00D+00
 Coeff-Com:  0.545D-06-0.121D-05-0.161D-05 0.350D-05 0.862D-05-0.229D-04
 Coeff-Com: -0.187D-03-0.317D-03 0.518D-03 0.215D-02 0.364D-02-0.115D-01
 Coeff-Com: -0.458D-01-0.269D-01 0.252D+00 0.826D+00
 Coeff:      0.545D-06-0.121D-05-0.161D-05 0.350D-05 0.862D-05-0.229D-04
 Coeff:     -0.187D-03-0.317D-03 0.518D-03 0.215D-02 0.364D-02-0.115D-01
 Coeff:     -0.458D-01-0.269D-01 0.252D+00 0.826D+00
 Gap=     0.238 Goal=   None    Shift=    0.000
 RMSDP=3.49D-09 MaxDP=1.11D-07 DE=-5.91D-12 OVMax= 4.77D-07

 Error on total polarization charges =  0.00850
 SCF Done:  E(RwB97XD) =  -1028.71668370     A.U. after   16 cycles
            NFock= 16  Conv=0.35D-08     -V/T= 2.0042
 KE= 1.024378711471D+03 PE=-4.612563261021D+03 EE= 1.459226536018D+03
 Leave Link  502 at Tue Oct 27 22:00:36 2020, MaxMem=  7784628224 cpu:             874.7 elap:              88.2
 (Enter /gpfs/loomis/apps/avx/software/Gaussian/16-C.01_AVX/g16/l601.exe)
 Copying SCF densities to generalized density rwf, IOpCl= 0 IROHF=0.

 **********************************************************************

            Population analysis using the SCF Density.

 **********************************************************************

 Alpha  occ. eigenvalues --  -89.10841 -19.20514 -14.50686 -10.41945 -10.37689
 Alpha  occ. eigenvalues --  -10.36529 -10.35623 -10.33532 -10.32975 -10.32627
 Alpha  occ. eigenvalues --  -10.32471 -10.31409 -10.30857 -10.30656 -10.29190
 Alpha  occ. eigenvalues --  -10.28262  -8.12808  -6.07689  -6.07321  -6.06816
 Alpha  occ. eigenvalues --   -1.14913  -1.09242  -0.99120  -0.95939  -0.93560
 Alpha  occ. eigenvalues --   -0.89269  -0.87185  -0.83934  -0.81164  -0.77448
 Alpha  occ. eigenvalues --   -0.75514  -0.72256  -0.69478  -0.67751  -0.65728
 Alpha  occ. eigenvalues --   -0.60848  -0.59796  -0.56815  -0.56358  -0.56128
 Alpha  occ. eigenvalues --   -0.55057  -0.53705  -0.53155  -0.50660  -0.49309
 Alpha  occ. eigenvalues --   -0.48814  -0.48589  -0.46987  -0.45513  -0.44889
 Alpha  occ. eigenvalues --   -0.44237  -0.43001  -0.42474  -0.40101  -0.36831
 Alpha  occ. eigenvalues --   -0.33841  -0.31632  -0.31296  -0.25768
 Alpha virt. eigenvalues --   -0.01973   0.03566   0.05546   0.05981   0.09475
 Alpha virt. eigenvalues --    0.10570   0.13332   0.14599   0.16350   0.17395
 Alpha virt. eigenvalues --    0.18976   0.20146   0.21181   0.21280   0.23158
 Alpha virt. eigenvalues --    0.23633   0.24071   0.25703   0.28607   0.30172
 Alpha virt. eigenvalues --    0.30626   0.33845   0.35681   0.35859   0.36653
 Alpha virt. eigenvalues --    0.38264   0.39277   0.39924   0.41898   0.44904
 Alpha virt. eigenvalues --    0.46615   0.48814   0.50835   0.50931   0.51370
 Alpha virt. eigenvalues --    0.52846   0.52850   0.52921   0.54123   0.55589
 Alpha virt. eigenvalues --    0.56272   0.56411   0.56422   0.56975   0.57702
 Alpha virt. eigenvalues --    0.57896   0.59094   0.59484   0.59645   0.60674
 Alpha virt. eigenvalues --    0.61268   0.61617   0.61898   0.62512   0.63121
 Alpha virt. eigenvalues --    0.64621   0.66734   0.67113   0.68657   0.69470
 Alpha virt. eigenvalues --    0.70175   0.70707   0.72011   0.72143   0.72952
 Alpha virt. eigenvalues --    0.74361   0.75201   0.76141   0.76482   0.78823
 Alpha virt. eigenvalues --    0.78924   0.79421   0.81367   0.81621   0.83210
 Alpha virt. eigenvalues --    0.85375   0.88036   0.90275   0.91504   0.92386
 Alpha virt. eigenvalues --    0.93714   0.94501   0.96086   0.97263   0.97645
 Alpha virt. eigenvalues --    0.98888   0.99513   1.00345   1.00669   1.01199
 Alpha virt. eigenvalues --    1.02635   1.05083   1.05987   1.06063   1.07238
 Alpha virt. eigenvalues --    1.08435   1.08971   1.10223   1.11304   1.11379
 Alpha virt. eigenvalues --    1.12426   1.12687   1.13546   1.14517   1.15578
 Alpha virt. eigenvalues --    1.17268   1.18743   1.20291   1.23547   1.24144
 Alpha virt. eigenvalues --    1.26992   1.27112   1.31575   1.33096   1.33751
 Alpha virt. eigenvalues --    1.34720   1.36487   1.38206   1.41235   1.44924
 Alpha virt. eigenvalues --    1.49301   1.49321   1.53202   1.54828   1.55178
 Alpha virt. eigenvalues --    1.55935   1.57281   1.57459   1.57681   1.59879
 Alpha virt. eigenvalues --    1.60233   1.62349   1.62573   1.65226   1.67744
 Alpha virt. eigenvalues --    1.68617   1.70045   1.71315   1.71761   1.71973
 Alpha virt. eigenvalues --    1.72288   1.73487   1.73736   1.74976   1.75392
 Alpha virt. eigenvalues --    1.78547   1.78752   1.80459   1.81853   1.82336
 Alpha virt. eigenvalues --    1.83485   1.84637   1.84667   1.85469   1.86633
 Alpha virt. eigenvalues --    1.86718   1.89984   1.91376   1.92251   1.92489
 Alpha virt. eigenvalues --    1.93686   1.94219   1.95491   1.96466   1.98379
 Alpha virt. eigenvalues --    2.00520   2.01383   2.02125   2.05033   2.06223
 Alpha virt. eigenvalues --    2.06922   2.07402   2.09893   2.10817   2.13644
 Alpha virt. eigenvalues --    2.17769   2.19929   2.22642   2.24173   2.27335
 Alpha virt. eigenvalues --    2.28133   2.29890   2.35103   2.37735   2.39865
 Alpha virt. eigenvalues --    2.40596   2.42825   2.46632   2.48872   2.50522
 Alpha virt. eigenvalues --    2.52508   2.54417   2.61681   2.61692   2.64831
 Alpha virt. eigenvalues --    2.68290   2.71108   2.73811   2.78347   2.80264
 Alpha virt. eigenvalues --    2.81792   2.82422   2.83621   2.88611   2.92743
 Alpha virt. eigenvalues --    2.93813   3.03094   3.17280   3.33257   3.49265
 Alpha virt. eigenvalues --    3.52708   3.58714   3.69205   4.01678
          Condensed to atoms (all electrons):
               1          2          3          4          5          6
     1  C    4.732180   0.481858   0.010598  -0.051770  -0.011135   0.510740
     2  C    0.481858   5.392662   0.264067  -0.067549  -0.072275  -0.004059
     3  C    0.010598   0.264067   4.892227   0.522595  -0.002139  -0.069100
     4  C   -0.051770  -0.067549   0.522595   4.799888   0.517913  -0.014736
     5  C   -0.011135  -0.072275  -0.002139   0.517913   4.721507   0.501352
     6  C    0.510740  -0.004059  -0.069100  -0.014736   0.501352   4.734856
     7  H    0.405004  -0.040938   0.009269  -0.000551   0.008151  -0.038361
     8  H   -0.000591   0.010743  -0.023946   0.393653  -0.041015   0.007325
     9  H    0.008555  -0.000306   0.008150  -0.038225   0.405592  -0.043444
    10  H   -0.042540   0.009604  -0.000577   0.008719  -0.042732   0.407729
    11  N    0.003671  -0.037681   0.417881  -0.053695   0.002514   0.000390
    12  S   -0.065413   0.338900  -0.136608   0.003395   0.000135   0.004133
    13  C   -0.000224  -0.000086   0.015276  -0.000204   0.000016  -0.000002
    14  C   -0.000005   0.000017   0.000365   0.000008  -0.000000  -0.000000
    15  C    0.000003  -0.000174   0.000464   0.000007  -0.000001   0.000000
    16  C    0.000000  -0.000002   0.000004  -0.000000   0.000000   0.000000
    17  H   -0.000004   0.000088  -0.000003   0.000000   0.000000   0.000000
    18  C    0.000000   0.000011  -0.000050  -0.000001  -0.000000   0.000000
    19  C   -0.000000  -0.000000   0.000002  -0.000000   0.000000   0.000000
    20  H   -0.000000  -0.000000  -0.000000   0.000000   0.000000  -0.000000
    21  H   -0.000000   0.000000  -0.000001  -0.000000  -0.000000   0.000000
    22  H    0.000000  -0.000000  -0.000000  -0.000000   0.000000  -0.000000
    23  C    0.003406  -0.055117  -0.093370   0.005150   0.000365  -0.000377
    24  O    0.000002  -0.000229  -0.001058   0.000110   0.000000  -0.000000
    25  H    0.000262   0.017726  -0.028598  -0.019216  -0.000435  -0.000019
               7          8          9         10         11         12
     1  C    0.405004  -0.000591   0.008555  -0.042540   0.003671  -0.065413
     2  C   -0.040938   0.010743  -0.000306   0.009604  -0.037681   0.338900
     3  C    0.009269  -0.023946   0.008150  -0.000577   0.417881  -0.136608
     4  C   -0.000551   0.393653  -0.038225   0.008719  -0.053695   0.003395
     5  C    0.008151  -0.041015   0.405592  -0.042732   0.002514   0.000135
     6  C   -0.038361   0.007325  -0.043444   0.407729   0.000390   0.004133
     7  H    0.648974   0.000028  -0.000141  -0.011712  -0.000103  -0.006954
     8  H    0.000028   0.637290  -0.011590  -0.000117  -0.005898  -0.000248
     9  H   -0.000141  -0.011590   0.655622  -0.012222  -0.000100   0.000022
    10  H   -0.011712  -0.000117  -0.012222   0.656715   0.000005  -0.000132
    11  N   -0.000103  -0.005898  -0.000100   0.000005   5.741533  -0.043022
    12  S   -0.006954  -0.000248   0.000022  -0.000132  -0.043022  15.441957
    13  C    0.000005   0.000055  -0.000000  -0.000000  -0.025393  -0.068787
    14  C    0.000000   0.000001   0.000000  -0.000000   0.003579  -0.006420
    15  C   -0.000000  -0.000008   0.000000   0.000000  -0.004796   0.004132
    16  C   -0.000000  -0.000000  -0.000000  -0.000000  -0.000087   0.000020
    17  H    0.000001   0.000000   0.000000  -0.000000   0.000259   0.006159
    18  C    0.000000  -0.000000  -0.000000  -0.000000  -0.000665  -0.000093
    19  C    0.000000   0.000000  -0.000000   0.000000   0.000030   0.000015
    20  H    0.000000  -0.000000   0.000000   0.000000   0.000001   0.000000
    21  H   -0.000000   0.000000  -0.000000   0.000000   0.000006   0.000003
    22  H    0.000000  -0.000000  -0.000000  -0.000000  -0.000000  -0.000000
    23  C    0.000191  -0.000645   0.000007   0.000004   0.500309   0.308365
    24  O    0.000000  -0.000211   0.000000  -0.000000  -0.031233  -0.000121
    25  H    0.000008   0.000983  -0.000018  -0.000000   0.380635   0.007083
              13         14         15         16         17         18
     1  C   -0.000224  -0.000005   0.000003   0.000000  -0.000004   0.000000
     2  C   -0.000086   0.000017  -0.000174  -0.000002   0.000088   0.000011
     3  C    0.015276   0.000365   0.000464   0.000004  -0.000003  -0.000050
     4  C   -0.000204   0.000008   0.000007  -0.000000   0.000000  -0.000001
     5  C    0.000016  -0.000000  -0.000001   0.000000   0.000000  -0.000000
     6  C   -0.000002  -0.000000   0.000000   0.000000   0.000000   0.000000
     7  H    0.000005   0.000000  -0.000000  -0.000000   0.000001   0.000000
     8  H    0.000055   0.000001  -0.000008  -0.000000   0.000000  -0.000000
     9  H   -0.000000   0.000000   0.000000  -0.000000   0.000000  -0.000000
    10  H   -0.000000  -0.000000   0.000000  -0.000000  -0.000000  -0.000000
    11  N   -0.025393   0.003579  -0.004796  -0.000087   0.000259  -0.000665
    12  S   -0.068787  -0.006420   0.004132   0.000020   0.006159  -0.000093
    13  C    5.517128   0.424888   0.165155  -0.003942  -0.043441  -0.040408
    14  C    0.424888   4.860116   0.013950   0.537665   0.400712  -0.064995
    15  C    0.165155   0.013950   4.726114  -0.056760   0.006444   0.458406
    16  C   -0.003942   0.537665  -0.056760   4.772628  -0.032732  -0.016987
    17  H   -0.043441   0.400712   0.006444  -0.032732   0.684480  -0.001017
    18  C   -0.040408  -0.064995   0.458406  -0.016987  -0.001017   4.916356
    19  C   -0.052006  -0.016356  -0.005163   0.472275   0.008537   0.490804
    20  H    0.009234  -0.036729  -0.000171   0.400088  -0.012327   0.008417
    21  H    0.015885  -0.000641  -0.023504   0.007743   0.000055   0.370684
    22  H   -0.001638   0.009611   0.008640  -0.046975  -0.000199  -0.038846
    23  C    0.336620  -0.101173  -0.070530   0.006606  -0.020356   0.011751
    24  O   -0.096491   0.006362   0.671876  -0.000192  -0.000075  -0.069190
    25  H   -0.053457  -0.000791  -0.005831   0.000068  -0.000086   0.004089
              19         20         21         22         23         24
     1  C   -0.000000  -0.000000  -0.000000   0.000000   0.003406   0.000002
     2  C   -0.000000  -0.000000   0.000000  -0.000000  -0.055117  -0.000229
     3  C    0.000002  -0.000000  -0.000001  -0.000000  -0.093370  -0.001058
     4  C   -0.000000   0.000000  -0.000000  -0.000000   0.005150   0.000110
     5  C    0.000000   0.000000  -0.000000   0.000000   0.000365   0.000000
     6  C    0.000000  -0.000000   0.000000  -0.000000  -0.000377  -0.000000
     7  H    0.000000   0.000000  -0.000000   0.000000   0.000191   0.000000
     8  H    0.000000  -0.000000   0.000000  -0.000000  -0.000645  -0.000211
     9  H   -0.000000   0.000000  -0.000000  -0.000000   0.000007   0.000000
    10  H    0.000000   0.000000   0.000000  -0.000000   0.000004  -0.000000
    11  N    0.000030   0.000001   0.000006  -0.000000   0.500309  -0.031233
    12  S    0.000015   0.000000   0.000003  -0.000000   0.308365  -0.000121
    13  C   -0.052006   0.009234   0.015885  -0.001638   0.336620  -0.096491
    14  C   -0.016356  -0.036729  -0.000641   0.009611  -0.101173   0.006362
    15  C   -0.005163  -0.000171  -0.023504   0.008640  -0.070530   0.671876
    16  C    0.472275   0.400088   0.007743  -0.046975   0.006606  -0.000192
    17  H    0.008537  -0.012327   0.000055  -0.000199  -0.020356  -0.000075
    18  C    0.490804   0.008417   0.370684  -0.038846   0.011751  -0.069190
    19  C    4.755763  -0.047641  -0.047989   0.402635   0.000125   0.005082
    20  H   -0.047641   0.690913  -0.000175  -0.012691  -0.000382   0.000000
    21  H   -0.047989  -0.000175   0.684963  -0.012904  -0.000485   0.006018
    22  H    0.402635  -0.012691  -0.012904   0.679207   0.000012  -0.000085
    23  C    0.000125  -0.000382  -0.000485   0.000012   5.141173  -0.018211
    24  O    0.005082   0.000000   0.006018  -0.000085  -0.018211   7.842440
    25  H   -0.000376  -0.000000   0.000003   0.000005   0.020498   0.077626
              25
     1  C    0.000262
     2  C    0.017726
     3  C   -0.028598
     4  C   -0.019216
     5  C   -0.000435
     6  C   -0.000019
     7  H    0.000008
     8  H    0.000983
     9  H   -0.000018
    10  H   -0.000000
    11  N    0.380635
    12  S    0.007083
    13  C   -0.053457
    14  C   -0.000791
    15  C   -0.005831
    16  C    0.000068
    17  H   -0.000086
    18  C    0.004089
    19  C   -0.000376
    20  H   -0.000000
    21  H    0.000003
    22  H    0.000005
    23  C    0.020498
    24  O    0.077626
    25  H    0.686969
 Mulliken charges:
               1
     1  C    0.015404
     2  C   -0.237261
     3  C    0.214550
     4  C   -0.005490
     5  C    0.012187
     6  C    0.003573
     7  H    0.027128
     8  H    0.034190
     9  H    0.028099
    10  H    0.027257
    11  N    0.151857
    12  S    0.213479
    13  C   -0.098182
    14  C   -0.030164
    15  C    0.111749
    16  C   -0.039421
    17  H    0.003505
    18  C   -0.028265
    19  C    0.034262
    20  H    0.001462
    21  H    0.000340
    22  H    0.013229
    23  C    0.026062
    24  O   -0.392423
    25  H   -0.087128
 Sum of Mulliken charges =  -0.00000
 Mulliken charges with hydrogens summed into heavy atoms:
               1
     1  C    0.042533
     2  C   -0.237261
     3  C    0.214550
     4  C    0.028700
     5  C    0.040285
     6  C    0.030830
    11  N    0.064730
    12  S    0.213479
    13  C   -0.098182
    14  C   -0.026660
    15  C    0.111749
    16  C   -0.037959
    18  C   -0.027925
    19  C    0.047491
    23  C    0.026062
    24  O   -0.392423
 Electronic spatial extent (au):  <R**2>=           4341.6277
 Charge=             -0.0000 electrons
 Dipole moment (field-independent basis, Debye):
    X=              1.7298    Y=             -5.8321    Z=             -0.0001  Tot=              6.0832
 Quadrupole moment (field-independent basis, Debye-Ang):
   XX=            -82.4881   YY=            -94.5872   ZZ=           -103.9255
   XY=             -6.7316   XZ=             -0.0001   YZ=              0.0000
 Traceless Quadrupole moment (field-independent basis, Debye-Ang):
   XX=             11.1789   YY=             -0.9203   ZZ=            -10.2586
   XY=             -6.7316   XZ=             -0.0001   YZ=              0.0000
 Octapole moment (field-independent basis, Debye-Ang**2):
  XXX=             38.5789  YYY=            -58.8285  ZZZ=             -0.0001  XYY=              2.8311
  XXY=            -10.7633  XXZ=             -0.0001  XZZ=              2.6167  YZZ=              1.7588
  YYZ=              0.0001  XYZ=             -0.0006
 Hexadecapole moment (field-independent basis, Debye-Ang**3):
 XXXX=          -2607.0829 YYYY=          -2660.8850 ZZZZ=           -112.8472 XXXY=            815.4147
 XXXZ=              0.0097 YYYX=            775.2300 YYYZ=             -0.0132 ZZZX=              0.0133
 ZZZY=             -0.0183 XXYY=           -851.1009 XXZZ=           -572.6187 YYZZ=           -547.8079
 XXYZ=             -0.0033 YYXZ=              0.0008 ZZXY=            358.6782
 N-N= 1.100241329831D+03 E-N=-4.612563261189D+03  KE= 1.024378711471D+03
 No NMR shielding tensors so no spin-rotation constants.
 Leave Link  601 at Tue Oct 27 22:00:36 2020, MaxMem=  7784628224 cpu:               1.2 elap:               0.2
 (Enter /gpfs/loomis/apps/avx/software/Gaussian/16-C.01_AVX/g16/l701.exe)
 ... and contract with generalized density number  0.
 Compute integral first derivatives.
 R6Disp: Adding Grimme-D2 dispersion energy 1st derivatives to the gradient.
 D1PCM: PCM CHGder 1st derivatives, ID1Alg=3 FixD1E=F DoIter=F DoCFld=F I1PDM=0.
 GePol: Maximum number of non-zero 1st derivatives   =     262
 Leave Link  701 at Tue Oct 27 22:00:38 2020, MaxMem=  7784628224 cpu:              14.0 elap:               1.4
 (Enter /gpfs/loomis/apps/avx/software/Gaussian/16-C.01_AVX/g16/l702.exe)
 L702 exits ... SP integral derivatives will be done elsewhere.
 Leave Link  702 at Tue Oct 27 22:00:38 2020, MaxMem=  7784628224 cpu:               0.2 elap:               0.0
 (Enter /gpfs/loomis/apps/avx/software/Gaussian/16-C.01_AVX/g16/l703.exe)
 Integral derivatives from FoFJK, PRISM(SPDF).
 Compute integral first derivatives, UseDBF=F ICtDFT=           0.
 Calling FoFJK, ICntrl=      2127 FMM=F ISym2X=0 I1Cent= 0 IOpClX= 0 NMat=1 NMatS=1 NMatT=0.
 FoFJK:  IHMeth= 1 ICntrl=    2127 DoSepK=T KAlg= 0 I1Cent=           0 FoldK=F
 IRaf=         1 NMat=       1 IRICut=       1 DoRegI=T DoRafI=F ISym2E= 0 IDoP0=0 IntGTp=1.
 FoFCou: FMM=F IPFlag=           0 FMFlag=      100000 FMFlg1=         800
         NFxFlg=           0 DoJE=F BraDBF=F KetDBF=F FulRan=T
         wScrn=  0.000000 ICntrl=      2527 IOpCl=  0 I1Cent=           0 NGrid=           0
         NMat0=    1 NMatS0=      1 NMatT0=    0 NMatD0=    1 NMtDS0=    0 NMtDT0=    0
 Symmetry not used in FoFCou.
 Leave Link  703 at Tue Oct 27 22:00:53 2020, MaxMem=  7784628224 cpu:             137.5 elap:              14.9
 (Enter /gpfs/loomis/apps/avx/software/Gaussian/16-C.01_AVX/g16/l716.exe)
 Dipole        = 6.80548094D-01-2.29451114D+00-3.04956321D-05
 -------------------------------------------------------------------
 Center     Atomic                   Forces (Hartrees/Bohr)
 Number     Number              X              Y              Z
 -------------------------------------------------------------------
      1        6           0.000295912    0.002438951    0.000000015
      2        6           0.007946046    0.005930799   -0.000000104
      3        6           0.000701523   -0.011816207   -0.000000265
      4        6           0.000138449    0.001140330    0.000000061
      5        6           0.001001769   -0.000024135    0.000000012
      6        6          -0.002211061    0.001045986   -0.000000019
      7        1           0.000089707    0.000340371   -0.000000048
      8        1           0.000305650   -0.000133042    0.000000005
      9        1          -0.000296342   -0.000068518   -0.000000003
     10        1          -0.000156645    0.000038322    0.000000001
     11        7          -0.130518974   -0.488576903   -0.000008381
     12       16           0.006404284    0.011103822   -0.000000164
     13        6           0.034348210    0.007584136   -0.000000161
     14        6          -0.049036508    0.025089200    0.000000771
     15        6           0.010644319   -0.014456845   -0.000000353
     16        6           0.006510704   -0.046794925   -0.000001042
     17        1          -0.000880431   -0.000233285    0.000000020
     18        6          -0.024378755    0.002071729    0.000000443
     19        6           0.032281136    0.009918527    0.000000060
     20        1           0.000134151   -0.000469044   -0.000000040
     21        1          -0.000843006    0.000152933   -0.000000100
     22        1          -0.000490044    0.001188349   -0.000000016
     23        6          -0.005455636    0.027356296    0.000000681
     24        8          -0.004634458    0.012962471    0.000000141
     25        1           0.118100000    0.454210684    0.000008485
 -------------------------------------------------------------------
 Cartesian Forces:  Max     0.488576903 RMS     0.080494386
 Leave Link  716 at Tue Oct 27 22:00:53 2020, MaxMem=  7784628224 cpu:               0.3 elap:               0.0
 (Enter /gpfs/loomis/apps/avx/software/Gaussian/16-C.01_AVX/g16/l103.exe)

 GradGradGradGradGradGradGradGradGradGradGradGradGradGradGradGradGradGrad
 Berny optimization.
 FormGI is forming the generalized inverse of G from B-inverse, IUseBI=4.
 Internal  Forces:  Max     0.337149813 RMS     0.034804060
 Search for a local minimum.
 Step number   1 out of a maximum of  146
 All quantities printed in internal units (Hartrees-Bohrs-Radians)
 RMS Force = .35061D-01 SwitMx=.10000D-02 MixMth= 1
 Mixed Optimization -- RFO/linear search
 Second derivative matrix not updated -- first step.
 ITU=  0
     Eigenvalues ---    0.01244   0.01454   0.01502   0.01679   0.01684
     Eigenvalues ---    0.01697   0.01818   0.01929   0.01957   0.01979
     Eigenvalues ---    0.02009   0.02021   0.02054   0.02083   0.02121
     Eigenvalues ---    0.02135   0.02150   0.02155   0.02155   0.02156
     Eigenvalues ---    0.02174   0.02187   0.16000   0.16000   0.16000
     Eigenvalues ---    0.16000   0.16000   0.16000   0.16000   0.16003
     Eigenvalues ---    0.17541   0.22004   0.22012   0.22537   0.22588
     Eigenvalues ---    0.24376   0.24476   0.24604   0.25000   0.25000
     Eigenvalues ---    0.28634   0.28697   0.32102   0.34466   0.34680
     Eigenvalues ---    0.34691   0.34693   0.34725   0.34752   0.34781
     Eigenvalues ---    0.34787   0.35948   0.38868   0.40418   0.41319
     Eigenvalues ---    0.42075   0.43786   0.44058   0.45617   0.46180
     Eigenvalues ---    0.46461   0.46593   0.46828   0.48174   0.50859
     Eigenvalues ---    0.75755   0.985101000.000001000.000001000.00000
     Eigenvalues --- 1000.000001000.000001000.000001000.000001000.00000
     Eigenvalues --- 1000.000001000.000001000.000001000.000001000.00000
     Eigenvalues --- 1000.000001000.000001000.000001000.000001000.00000
     Eigenvalues --- 1000.000001000.000001000.000001000.000001000.00000
     Eigenvalues --- 1000.000001000.000001000.000001000.000001000.00000
     Eigenvalues --- 1000.000001000.000001000.000001000.000001000.00000
     Eigenvalues --- 1000.000001000.000001000.000001000.000001000.00000
     Eigenvalues --- 1000.000001000.000001000.000001000.000001000.00000
     Eigenvalues --- 1000.000001000.000001000.000001000.000001000.00000
     Eigenvalues --- 1000.000001000.000001000.000001000.000001000.00000
     Eigenvalues --- 1000.000001000.000001000.000001000.000001000.00000
     Eigenvalues --- 1000.000001000.000001000.000001000.000001000.00000
     Eigenvalues --- 1000.000001000.000001000.000001000.000001000.00000
     Eigenvalues --- 1000.00000
 RFO step:  Lambda=-1.57124975D-01 EMin= 1.24424776D-02
 Linear search not attempted -- first point.
 Maximum step size (   0.300) exceeded in Quadratic search.
    -- Step size scaled by   0.745
 Iteration  1 RMS(Cart)=  0.02498719 RMS(Int)=  0.00231005
 Iteration  2 RMS(Cart)=  0.00214596 RMS(Int)=  0.00088591
 Iteration  3 RMS(Cart)=  0.00001151 RMS(Int)=  0.00100580
 Iteration  4 RMS(Cart)=  0.00000004 RMS(Int)=  0.00100566
 Iteration  1 RMS(Cart)=  0.00001664 RMS(Int)=  0.00001397
 Iteration  2 RMS(Cart)=  0.00000023 RMS(Int)=  0.00000924
 ITry= 1 IFail=0 DXMaxC= 1.66D-01 DCOld= 1.00D+10 DXMaxT= 3.00D-01 DXLimC= 3.00D+00 Rises=F
 Variable       Old X    -DE/DX   Delta X   Delta X   Delta X     New X
                                 (Linear)    (Quad)   (Total)
    R1        2.63589  -0.01572   0.00000  -0.00825  -0.00789   2.62801
    R2        2.63633  -0.00344   0.00000   0.00055   0.00062   2.63696
    R3        2.06121  -0.00197   0.00000  -0.00143  -0.00138   2.05983
    R4        2.67724  -0.07275   0.00000  -0.05100  -0.04945   2.62778
    R5        3.33268   0.02453   0.00000   0.02244   0.02161   3.35430
    R6        2.63341   0.00179   0.00000  -0.00120  -0.00126   2.63215
    R7        2.61135  -0.01385   0.00000  -0.01223  -0.01186   2.59950
    R8        2.62989   0.00488   0.00000  -0.00070  -0.00089   2.62900
    R9        2.06031   0.00031   0.00000   0.00026   0.00025   2.06057
   R10        2.64461  -0.01510   0.00000  -0.00593  -0.00547   2.63914
   R11        2.06198  -0.00055   0.00000  -0.00054  -0.00053   2.06144
   R12        2.06080  -0.00037   0.00000  -0.00035  -0.00034   2.06046
   R13        2.56758   0.01314   0.00000  -0.00493  -0.00562   2.56196
   R14        1.47637   0.33715   0.00000   0.22776   0.23158   1.70795
   R15        3.31506  -0.05994   0.00000  -0.03221  -0.03039   3.28467
   R16        2.60861   0.00949   0.00000   0.02794   0.02866   2.63727
   R17        2.81966  -0.03212   0.00000  -0.01657  -0.01551   2.80415
   R18        2.70412   0.02605   0.00000   0.00956   0.00866   2.71279
   R19        2.68725  -0.00785   0.00000  -0.03389  -0.03479   2.65246
   R20        2.06551  -0.00002   0.00000   0.00045   0.00046   2.06597
   R21        2.69884   0.04152   0.00000   0.02306   0.02191   2.72075
   R22        2.37670  -0.05226   0.00000  -0.01577  -0.01426   2.36245
   R23        2.63530  -0.00260   0.00000   0.01095   0.01149   2.64678
   R24        2.06179   0.00059   0.00000   0.00023   0.00020   2.06199
   R25        2.63667   0.00264   0.00000  -0.01483  -0.01556   2.62111
   R26        2.06176  -0.00056   0.00000  -0.00040  -0.00038   2.06138
   R27        2.06021   0.00235   0.00000   0.00246   0.00243   2.06264
    A1        2.06329   0.01004   0.00000   0.00563   0.00518   2.06848
    A2        2.10934  -0.00768   0.00000  -0.00484  -0.00453   2.10481
    A3        2.11055  -0.00236   0.00000  -0.00079  -0.00065   2.10990
    A4        2.11443  -0.00558   0.00000  -0.01052  -0.01029   2.10414
    A5        2.23205  -0.00025   0.00000   0.01608   0.01654   2.24860
    A6        1.93670   0.00583   0.00000  -0.00557  -0.00625   1.93045
    A7        2.09518   0.01929   0.00000   0.02286   0.02250   2.11768
    A8        1.96988  -0.04288   0.00000  -0.03340  -0.03229   1.93759
    A9        2.21812   0.02360   0.00000   0.01054   0.00979   2.22791
   A10        2.06872  -0.00852   0.00000  -0.00836  -0.00812   2.06061
   A11        2.09634   0.00637   0.00000   0.00607   0.00589   2.10223
   A12        2.11813   0.00214   0.00000   0.00229   0.00222   2.12035
   A13        2.11951  -0.00996   0.00000  -0.00955  -0.00932   2.11019
   A14        2.07710   0.00550   0.00000   0.00486   0.00473   2.08183
   A15        2.08658   0.00446   0.00000   0.00469   0.00459   2.09117
   A16        2.10523  -0.00527   0.00000  -0.00006   0.00005   2.10528
   A17        2.08606   0.00226   0.00000  -0.00000  -0.00006   2.08600
   A18        2.09190   0.00301   0.00000   0.00007   0.00000   2.09190
   A19        1.97925   0.07896   0.00000   0.07752   0.07602   2.05527
   A20        2.26360  -0.10312   0.00000  -0.10428  -0.10129   2.16231
   A21        2.04034   0.02416   0.00000   0.02676   0.02527   2.06561
   A22        1.55896   0.02926   0.00000   0.03160   0.03069   1.58965
   A23        2.08355   0.00769   0.00000   0.00351   0.00327   2.08682
   A24        2.16912   0.00518   0.00000  -0.00511  -0.00566   2.16346
   A25        2.03052  -0.01287   0.00000   0.00160   0.00239   2.03290
   A26        2.10326   0.01328   0.00000   0.01309   0.01284   2.11610
   A27        2.10542  -0.00702   0.00000  -0.00537  -0.00520   2.10023
   A28        2.07450  -0.00626   0.00000  -0.00773  -0.00764   2.06686
   A29        2.04887  -0.01805   0.00000  -0.01932  -0.01897   2.02991
   A30        2.10653  -0.03364   0.00000  -0.00235  -0.00077   2.10576
   A31        2.12778   0.05168   0.00000   0.02167   0.01974   2.14752
   A32        2.11857  -0.00981   0.00000  -0.01453  -0.01443   2.10414
   A33        2.06953   0.00479   0.00000   0.00689   0.00684   2.07637
   A34        2.09508   0.00502   0.00000   0.00764   0.00759   2.10267
   A35        2.12238   0.00900   0.00000   0.00966   0.00945   2.13183
   A36        2.02676  -0.00230   0.00000  -0.00204  -0.00198   2.02477
   A37        2.13405  -0.00670   0.00000  -0.00762  -0.00746   2.12659
   A38        2.08973  -0.00211   0.00000   0.00759   0.00784   2.09757
   A39        2.09444  -0.00102   0.00000  -0.00450  -0.00454   2.08990
   A40        2.09901   0.00313   0.00000  -0.00309  -0.00330   2.09571
   A41        1.97999  -0.07116   0.00000  -0.07016  -0.06817   1.91182
   A42        2.07518   0.04565   0.00000   0.04325   0.04211   2.11729
   A43        2.22801   0.02552   0.00000   0.02691   0.02607   2.25407
    D1       -0.00000   0.00000   0.00000   0.00000   0.00000   0.00000
    D2       -3.14159  -0.00000   0.00000  -0.00000  -0.00000  -3.14159
    D3        3.14159   0.00000   0.00000   0.00000   0.00000   3.14159
    D4       -0.00000  -0.00000   0.00000  -0.00000  -0.00000  -0.00000
    D5       -0.00000  -0.00000   0.00000  -0.00000  -0.00000  -0.00000
    D6        3.14159  -0.00000   0.00000   0.00000  -0.00000   3.14159
    D7       -3.14159  -0.00000   0.00000  -0.00000  -0.00000  -3.14159
    D8        0.00000  -0.00000   0.00000  -0.00000  -0.00000   0.00000
    D9        0.00000   0.00000   0.00000  -0.00000  -0.00000   0.00000
   D10        3.14159  -0.00000   0.00000  -0.00000  -0.00000   3.14159
   D11       -3.14159   0.00000   0.00000   0.00000   0.00000  -3.14159
   D12       -0.00000  -0.00000   0.00000  -0.00000  -0.00000  -0.00000
   D13        3.14159   0.00000   0.00000   0.00000   0.00000   3.14159
   D14       -0.00000  -0.00000   0.00000   0.00000   0.00000  -0.00000
   D15       -0.00000  -0.00000   0.00000  -0.00000  -0.00000  -0.00000
   D16        3.14159  -0.00000   0.00000  -0.00000  -0.00000   3.14159
   D17       -3.14159   0.00000   0.00000   0.00000   0.00000  -3.14159
   D18        0.00000   0.00000   0.00000   0.00000   0.00000   0.00000
   D19        0.00000   0.00000   0.00000   0.00000   0.00000   0.00000
   D20        3.14157   0.00000   0.00000   0.00000   0.00000   3.14157
   D21       -3.14159   0.00000   0.00000   0.00000  -0.00000  -3.14159
   D22       -0.00003   0.00000   0.00000   0.00000   0.00000  -0.00002
   D23        0.00000   0.00000   0.00000   0.00000   0.00000   0.00000
   D24       -3.14159   0.00000   0.00000  -0.00000  -0.00000  -3.14159
   D25       -3.14159   0.00000   0.00000   0.00000   0.00000  -3.14159
   D26        0.00000   0.00000   0.00000   0.00000   0.00000   0.00000
   D27        0.00000  -0.00000   0.00000  -0.00000  -0.00000   0.00000
   D28       -3.14159  -0.00000   0.00000  -0.00000  -0.00000  -3.14159
[...]
 0.,0.,0.00004400,0.,0.,-0.00009557,-0.00000015,-0.00000013,-0.00020346
 ,-0.00000011,0.00000013,0.00216209,0.00000012,-0.00000264,-0.07366381,
 -0.00000156,0.00000029,0.00046871,-0.00000032,0.00000705,0.20001863,0.
 00061926,-0.00074533,0.,-0.00109923,0.00124233,0.00000002,0.00015148,-
 0.00133962,0.,0.00046859,0.00015899,0.,-0.00004753,0.00082906,0.,-0.00
 096902,-0.00010364,0.,0.00002705,0.00003904,0.,0.00002013,-0.00003309,
 0.,-0.00007156,0.00005323,0.,-0.00004617,0.00002664,0.,-0.00677788,0.0
 0027867,-0.00000005,0.00062604,0.00193832,0.00000003,-0.04657105,0.025
 89937,0.00000016,-0.23993405,0.16730006,0.00000252,0.00061703,0.014094
 27,0.00000035,0.76690420,-0.00160261,0.00225622,0.,0.00278691,-0.00189
 885,-0.00000003,0.00033618,0.00167305,0.00000005,-0.00179411,0.0002638
 4,0.00000004,-0.00000349,-0.00259976,-0.00000003,0.00279188,0.00035921
 ,-0.00000001,-0.00011590,-0.00007805,0.,0.00006385,0.00007494,0.,0.000
 17099,-0.00010344,0.,0.00013714,-0.00005170,0.,0.01497851,0.00464551,0
 .,-0.00344068,-0.00479681,-0.00000007,0.06321483,0.00362075,0.00000031
 ,0.10716116,-0.28619708,-0.00000411,0.02753169,-0.04493733,-0.00000095
 ,-0.02165969,0.66941452,-0.00000004,0.00000005,0.00003380,0.00000007,-
 0.00000004,0.00034388,0.00000001,0.,-0.00056374,-0.00000005,0.00000001
 ,-0.00009467,0.,-0.00000006,0.00004445,0.00000006,0.00000001,-0.000009
 91,0.,0.,-0.00000245,0.,0.,-0.00000561,0.,0.,0.00001463,0.,0.,-0.00001
 973,0.00000022,0.00000011,-0.00000902,-0.00000005,-0.00000014,-0.00074
 015,0.00000111,0.00000011,0.00935021,0.00000130,-0.00000401,-0.0627327
 1,0.00000057,-0.00000078,-0.00636321,0.00000351,0.00001279,0.12065014,
 0.00028215,-0.00000637,0.,-0.00063791,0.00033768,0.00000005,0.00036419
 ,-0.00025326,0.,0.00003259,0.00004820,0.,0.00004298,0.00009428,0.,-0.0
 0011528,-0.00007790,0.,-0.00001239,-0.00000450,0.,0.00003612,0.0000013
 7,0.,0.00000435,0.00000188,0.,0.00002586,-0.00000264,0.,-0.00011317,0.
 00026435,0.,-0.00076807,0.00176592,-0.00000009,-0.00617225,-0.02857024
 ,-0.00000069,-0.09320617,-0.09349438,-0.00000247,-0.00461728,0.0037015
 3,0.,0.01099223,0.01979272,0.00000047,0.09486307,0.00007801,-0.0001000
 9,0.,-0.00025116,0.00060783,0.,0.00028726,-0.00023616,0.,0.00005115,0.
 00005526,0.,0.00001098,0.00012228,0.,-0.00015609,-0.00000467,0.,-0.000
 00642,0.00001389,0.,0.00001856,-0.00000341,0.,-0.00000827,0.00000690,0
 .,-0.00000447,0.00000323,0.,-0.00110253,0.00005830,0.00000002,-0.00018
 653,-0.00020962,0.00000001,0.00034984,-0.00088631,-0.00000010,-0.09019
 433,-0.30098240,-0.00000663,0.00040836,0.00235961,-0.00000009,-0.01310
 038,-0.01721051,-0.00000060,0.09800505,0.31965290,0.,0.,-0.00000418,-0
 .00000001,0.00000001,-0.00048119,0.,0.,0.00013613,0.,0.,0.00006592,0.,
 0.,-0.00001539,0.,0.,0.00002254,0.,0.,-0.00000880,0.,0.,-0.00000981,0.
 ,0.,-0.00000430,0.,0.,0.00001316,0.00000004,0.00000003,-0.00018332,-0.
 00000008,0.00000006,0.00082297,0.00000013,-0.00000032,0.00310378,-0.00
 000260,-0.00000669,-0.03736635,0.00000003,-0.00000002,0.00473881,-0.00
 000020,-0.00000046,0.00585912,0.00000270,0.00000740,0.02438248,-0.0005
 6962,0.00124619,0.,0.00118681,-0.00090168,0.,0.00158693,0.00073790,0.,
 -0.00106131,0.00007213,0.00000002,0.00005251,-0.00139111,-0.00000001,0
 .00142027,0.00019578,0.,-0.00008279,0.00000638,0.,0.00012355,0.0000338
 4,0.,0.00007645,-0.00004843,0.,0.00007660,-0.00000697,0.,0.00839642,0.
 00580318,0.,-0.00100895,-0.00205093,-0.00000005,0.04577563,0.00035364,
 0.00000031,-0.04576666,0.02244599,0.00000033,-0.12794677,0.03540640,0.
 00000069,-0.00653727,-0.07289196,-0.00000164,-0.00013654,0.00051188,-0
 .00000005,0.74263388,0.00085577,-0.00071491,0.,-0.00154226,0.00023052,
 0.00000003,-0.00021945,-0.00047560,0.,0.00068772,-0.00009587,-0.000000
 02,0.00005490,0.00098350,0.00000001,-0.00103015,-0.00022668,0.,0.00001
 544,0.00003603,0.,-0.00000968,-0.00002013,0.,-0.00004544,0.00003697,0.
 ,-0.00001020,0.00000649,0.,-0.00525429,-0.00048480,0.,0.00221490,0.000
 82251,0.00000004,0.00234838,-0.02287307,-0.00000090,0.01274088,-0.0082
 9808,-0.00000013,0.06025172,-0.20776650,-0.00000322,-0.03781228,0.0094
 6873,-0.00000016,-0.00001243,0.00057828,0.00000003,0.09494623,0.668858
 23,0.00000003,-0.00000002,-0.00017043,-0.00000008,-0.00000002,-0.00025
 959,-0.00000005,0.00000004,-0.00091952,0.00000004,0.,0.00007167,0.,0.0
 0000004,0.00002520,-0.00000004,-0.00000002,0.00005478,0.,0.,-0.0000567
 8,0.,0.,-0.00004579,0.,0.,-0.00001104,0.,0.,0.00004501,-0.00000017,-0.
 00000017,0.00095273,0.00000010,0.,-0.00078892,0.00000023,-0.00000037,0
 .00996991,0.00000013,-0.00000010,-0.00085558,0.00000121,-0.00000349,-0
 .07754944,-0.00000097,-0.00000030,0.00788890,0.,0.00000002,-0.00010122
 ,0.00000325,0.00001359,0.11955209,0.00107672,-0.00146910,0.,-0.0019525
 0,0.00113918,0.00000002,-0.00055308,-0.00094017,-0.00000002,0.00124196
 ,-0.00014076,-0.00000003,-0.00000650,0.00175164,0.00000002,-0.00185486
 ,-0.00027155,0.,0.00007279,0.00004858,0.,-0.00005627,-0.00005024,0.,-0
 .00011055,0.00007178,0.,-0.00008233,0.00002915,0.,-0.00963530,-0.00265
 044,0.00000003,0.00228420,0.00270224,0.00000005,-0.03518896,0.00523174
 ,-0.00000012,0.05284592,-0.00412685,0.00000009,-0.04864635,0.03248060,
 0.00000070,-0.14631088,-0.03032980,-0.00000129,-0.00250892,0.00450739,
 0.00000005,-0.42208871,-0.08113826,-0.00000282,0.76332272,0.00092835,-
 0.00128698,0.,-0.00146737,0.00114976,0.00000001,-0.00026765,-0.0015011
 7,-0.00000002,0.00086778,-0.00003818,-0.00000002,-0.00001317,0.0014156
 2,0.00000002,-0.00159001,-0.00019075,0.,0.00007079,0.00002876,0.,-0.00
 005381,-0.00003787,0.,-0.00009664,0.00006185,0.,-0.00007235,0.00002479
 ,0.,-0.01072289,-0.00333596,0.,0.00194625,0.00241662,0.00000006,-0.037
 40437,-0.00132840,-0.00000024,0.04132682,-0.05823168,-0.00000138,0.000
 73936,0.05020136,0.00000127,-0.09544194,-0.28040107,-0.00000598,0.0028
 8149,-0.00237790,-0.00000018,-0.02125232,-0.14228577,-0.00000195,-0.02
 637381,0.68052796,0.00000002,-0.00000003,-0.00000401,-0.00000004,0.000
 00004,0.00013532,0.00000001,-0.00000005,0.00036308,0.00000002,0.,-0.00
 000872,0.,0.00000004,-0.00002800,-0.00000004,0.,-0.00000111,0.,0.,0.00
 001122,0.,0.,0.00002674,0.,0.,-0.00000247,0.,0.,-0.00001065,-0.0000003
 0,-0.00000005,-0.00013945,0.00000005,0.00000004,-0.00014250,-0.0000010
 1,0.00000011,-0.00455164,0.00000118,-0.00000146,0.00685943,0.00000003,
 0.00000123,-0.00051381,-0.00000272,-0.00000566,-0.06173891,0.,-0.00000
 022,0.00836086,-0.00000167,-0.00000223,-0.05821443,0.00000140,0.000013
 14,0.14409309,0.00002224,-0.00007996,0.,-0.00003409,0.00013038,0.,-0.0
 0000825,-0.00015290,0.,0.00003495,0.00003196,0.,-0.00001134,0.00006241
 ,0.,-0.00008270,0.00000702,0.,0.00000497,0.00000617,0.,0.00000098,-0.0
 0000410,0.,-0.00000972,0.00000698,0.,-0.00000930,0.00000472,0.,-0.0004
 6186,0.00039276,0.,0.00002092,0.00009184,0.,0.00017043,0.00359682,0.00
 000002,-0.01439110,-0.00710732,-0.00000027,0.00059867,0.00003864,0.,-0
 .33988085,-0.04801080,-0.00000295,0.00077289,0.00014475,0.00000004,0.0
 0131622,-0.00184724,-0.00000007,-0.00590994,0.00276806,0.00000003,0.35
 809022,-0.00000576,0.00003146,0.,0.00002514,-0.00006574,0.,0.00007426,
 0.00009685,0.,-0.00001505,-0.00004104,0.,0.00001445,-0.00002127,0.,0.0
 0003112,-0.00000302,0.,-0.00000095,-0.00000319,0.,0.00000126,0.0000020
 3,0.,0.00000465,-0.00000497,0.,0.00000358,-0.00000151,0.,0.00037087,-0
 .00032848,0.00000001,0.00000382,0.00003475,0.,0.00206364,-0.00347138,-
 0.00000023,0.02560492,0.00719042,0.00000029,0.00044448,-0.00147590,-0.
 00000002,-0.04913933,-0.06532164,-0.00000116,-0.00017806,0.00096352,0.
 00000015,-0.00050369,-0.00516639,-0.00000024,-0.02959053,0.00006803,-0
 .00000018,0.05112458,0.06550609,0.,0.,0.00000036,0.,0.,-0.00008171,0.,
 0.,-0.00038065,0.,0.,-0.00002821,0.,0.,0.00003738,0.,0.,-0.00000623,0.
 ,0.,-0.00000206,0.,0.,-0.00001642,0.,0.,0.00000892,0.,0.,0.00000660,0.
 00000004,0.,-0.00057057,0.,0.00000002,0.00020068,0.00000006,-0.0000002
 6,0.00804925,0.00000041,0.00000009,0.00142458,0.00000003,-0.00000003,-
 0.00072107,-0.00000295,-0.00000119,-0.03063982,0.00000004,0.00000015,-
 0.00549171,-0.00000005,-0.00000024,0.00430362,-0.00000071,0.00000006,0
 .00060065,0.00000319,0.00000131,0.02368787,-0.00007851,0.00002066,0.,0
 .00010420,0.00007638,0.,-0.00003718,0.00001119,0.,-0.00002651,0.000008
 81,0.,-0.00000855,-0.00004981,0.,0.00005395,0.00001955,0.,0.00000057,-
 0.00000447,0.,-0.00000420,0.00000074,0.,0.00000241,-0.00000154,0.,-0.0
 0000277,-0.00000163,0.,0.00042177,-0.00010456,0.,-0.00032082,0.0000990
 1,0.,-0.00208901,0.00234920,0.00000006,-0.00136578,0.00045464,0.,0.009
 61229,0.02041343,0.00000050,-0.00491872,0.00027653,-0.00000002,0.00011
 238,-0.00010318,0.,-0.08959907,-0.09311176,-0.00000224,-0.00538235,-0.
 02968345,-0.00000072,-0.00044942,-0.00141838,-0.00000004,0.09137453,0.
 00002258,0.00010782,0.,-0.00007281,-0.00020149,0.,0.00001535,0.0001657
 6,0.,-0.00004188,-0.00001637,0.,0.00001816,-0.00006767,0.,0.00008357,-
 0.00001811,0.,-0.00000820,0.00000027,0.,0.00000577,0.00000470,0.,0.000
 01094,-0.00000628,0.,0.00001454,-0.00000363,0.,0.00027132,0.00015883,0
 .,0.00025186,-0.00036931,0.,0.00391354,-0.00280758,-0.00000016,0.00120
 158,0.00035065,0.00000004,-0.01469035,-0.01732670,-0.00000051,-0.00061
 169,0.00227599,-0.00000017,-0.00007404,-0.00007630,0.00000002,-0.09327
 816,-0.31031909,-0.00000685,0.00224648,-0.00084558,-0.00000008,0.00005
 574,-0.00014624,-0.00000002,0.10169225,0.32594313,0.,0.,0.00005198,0.,
 0.,0.00002741,0.,0.,-0.00004642,0.,0.,-0.00000285,0.,0.,0.00000422,0.,
 0.,-0.00000811,0.,0.,0.00000422,0.,0.,0.00000087,0.,0.,0.00000317,0.,0
 .,-0.00000910,0.00000002,0.,-0.00006683,0.,0.,0.00010199,0.00000002,-0
 .00000021,0.00394477,0.00000010,0.,-0.00075999,-0.00000043,-0.00000036
 ,0.00447797,-0.00000005,-0.00000010,0.00900988,0.,0.00000002,-0.000988
 45,-0.00000219,-0.00000683,-0.03409585,-0.00000004,-0.00000021,0.00312
 357,0.,-0.00000001,0.00055780,0.00000251,0.00000750,0.02423636,0.00005
 059,-0.00007964,0.,-0.00006454,0.00014314,0.,0.00010405,-0.00014443,0.
 ,0.00003785,0.00000559,0.,-0.00000146,0.00007965,0.,-0.00009785,-0.000
 00165,0.,0.00000381,0.00000465,0.,0.00000425,-0.00000371,0.,-0.0000092
 5,0.00000544,0.,-0.00000725,0.00000426,0.,-0.00043786,0.00016915,0.,0.
 00003535,0.00027824,0.,-0.00092429,0.00038283,0.,0.00063760,-0.0026485
 2,-0.00000008,-0.00288555,-0.00406329,-0.00000016,0.00974920,-0.009642
 02,-0.00000022,0.00036781,-0.00051256,0.,-0.01406231,0.02617347,0.0000
 0055,-0.17466725,0.13806778,0.00000290,0.00061177,0.00046739,0.0000000
 2,0.00096682,-0.00031835,0.00000001,0.18168417,0.00000744,0.00003575,0
 .,-0.00006297,-0.00000760,0.,0.00000067,0.00008046,0.,-0.00000386,-0.0
 0000463,0.,0.00000813,-0.00001935,0.,0.00002874,-0.00000909,0.,-0.0000
 0501,-0.00000157,0.,0.00000251,0.00000211,0.,0.00000560,-0.00000248,0.
 ,0.00000675,-0.00000303,0.,0.00021260,-0.00007650,0.,-0.00007229,-0.00
 003443,0.,-0.00061236,0.00059323,0.00000004,-0.00373793,-0.00467839,-0
 .00000025,-0.00230363,0.00051766,-0.00000027,0.02165949,-0.01520083,-0
 .00000039,0.00099731,-0.00115905,0.,-0.00604655,0.00710998,-0.00000002
 ,0.13867220,-0.22501255,-0.00000402,-0.00021249,0.00102813,0.00000009,
 0.00011302,0.00086268,0.00000016,-0.14888082,0.23543272,0.,0.,0.000003
 70,0.,0.,-0.00003357,0.,0.,0.00015471,0.,0.,-0.00000169,0.,0.,-0.00000
 625,0.,0.,-0.00000617,0.,0.,0.00000687,0.,0.,0.00000392,0.,0.,0.000000
 63,0.,0.,0.00000122,0.00000002,0.00000002,-0.00011901,0.,0.00000001,0.
 00024037,-0.00000005,0.,-0.00114336,-0.00000011,-0.00000024,0.00465020
 ,-0.00000007,-0.00000022,0.01125826,0.00000055,-0.00000050,0.00470325,
 0.00000003,-0.00000003,-0.00033938,-0.00000010,0.00000011,0.00708777,0
 .00000283,-0.00000404,-0.04218173,0.00000001,0.00000009,-0.00243998,0.
 00000002,0.00000016,-0.00598442,-0.00000309,0.00000458,0.02676523,-0.0
 0819146,-0.00143249,0.,0.00691762,0.01621244,0.00000002,-0.06419913,0.
 04254388,0.00000027,0.00868421,-0.00303556,0.00000006,-0.00306400,0.00
 153332,-0.00000003,0.00203393,-0.00279802,0.,0.00011695,-0.00099100,-0
 .00000003,-0.00049338,-0.00009688,0.00000002,0.00053686,-0.00025473,-0
 .00000002,-0.00058036,-0.00018948,0.00000002,-0.36531649,-0.04297213,0
 .00000307,-0.06130327,-0.04693986,0.00000010,-0.16204243,0.07454198,0.
 00000025,-0.05858091,0.03694617,0.00000056,0.04934857,0.01896194,0.000
 00008,0.00441187,-0.02907142,-0.00000063,0.00157124,0.00169878,0.00000
 002,-0.01297354,0.00475953,0.00000019,0.01487027,0.01409066,0.00000038
 ,-0.00023780,0.00089412,-0.00000002,0.00007715,-0.00150692,-0.00000004
 ,0.00082100,-0.00009280,0.,0.69332184,0.00284218,-0.00374922,0.0000000
 6,0.01941413,-0.01884812,0.,0.01129257,0.01631734,-0.00000038,0.007978
 72,-0.00882210,-0.00000003,-0.00106078,0.00686988,0.00000006,-0.004963
 16,-0.00390212,-0.00000002,0.00032211,-0.00051021,0.,-0.00055491,-0.00
 005457,0.,0.00007924,-0.00032009,0.,-0.00047565,0.00008960,0.,-0.05042
 843,-0.15136510,0.00000095,0.00071102,-0.16254003,0.00000043,0.0720934
 3,-0.20761561,-0.00000115,0.03372642,0.00144389,0.00000008,-0.00194476
 ,-0.04115680,-0.00000030,-0.01205565,0.02435503,0.00000037,-0.00239577
 ,-0.00073047,0.00000006,0.00832350,-0.01200759,-0.00000041,-0.01510613
 ,-0.01400987,-0.00000037,-0.00100970,0.00074482,0.00000001,0.00146369,
 -0.00048540,0.,-0.00064214,0.00023019,0.00000002,-0.06248631,0.5569016
 9,0.00000011,0.00000001,-0.00049900,-0.00000015,-0.00000016,0.00099860
 ,0.00000028,-0.00000038,0.00031733,-0.00000004,0.00000008,0.00131283,0
 .,0.,0.00122379,-0.00000002,0.,0.00090630,0.,0.00000002,-0.00040059,0.
 ,0.,-0.00045937,0.,0.00000001,-0.00029647,0.,0.,-0.00001065,0.00000250
 ,0.00000089,-0.05297667,0.00000030,0.00000064,-0.03261984,0.00000036,-
 0.00000073,-0.05733289,0.00000029,0.00000024,-0.00626706,-0.00000007,-
 0.00000075,0.00385516,-0.00000017,0.00000011,0.00522159,0.,0.00000005,
 -0.00235605,0.00000013,-0.00000023,0.00372315,-0.00000015,-0.00000018,
 -0.00075160,-0.00000002,-0.00000003,0.00169766,0.00000002,0.,-0.000376
 01,0.,0.00000002,-0.00070864,-0.00000413,0.00000030,0.13836117,-0.0014
 1983,0.00318564,0.,0.00253710,-0.00072754,-0.00000007,0.00731890,0.001
 29962,0.00000003,-0.00293675,0.00030473,0.00000005,0.00019026,-0.00346
 506,-0.00000004,0.00342590,0.00071498,-0.00000001,-0.00021157,0.000112
 72,0.,0.00028778,0.00009454,-0.00000001,0.00011699,-0.00008316,0.,0.00
 015225,0.00002952,0.,0.02150575,0.03026282,0.00000012,-0.00209906,-0.0
 0430356,-0.00000003,-0.01541136,-0.06745330,-0.00000081,-0.01448831,0.
 00319027,0.00000010,-0.57732585,-0.08007743,-0.00000035,-0.00154554,-0
 .02185404,-0.00000046,-0.00140171,-0.00053030,-0.00000009,-0.08348679,
 0.01782373,0.00000071,0.02024479,0.02196727,0.00000051,-0.00022839,-0.
 00027826,-0.00000003,0.00158530,0.00081735,0.00000007,-0.00203635,0.00
 035982,-0.00000002,-0.04230812,0.02649977,0.00000038,0.68194298,-0.000
 28590,-0.00034965,0.00000002,0.00029478,-0.00174458,0.00000003,-0.0057
 4795,-0.00284228,-0.00000010,-0.00000095,-0.00029483,0.,0.00030511,0.0
 0025969,0.,-0.00005894,-0.00011589,0.,0.00007714,-0.00017866,0.,0.0000
 8969,0.00005526,0.,0.00009439,-0.00008280,0.,0.00006351,-0.00005072,0.
 ,0.01395840,-0.02747400,-0.00000047,0.00006417,-0.00145495,0.,-0.05442
 485,-0.00808985,-0.00000048,0.00953778,-0.00986662,-0.00000019,-0.0915
 6985,-0.11171014,-0.00000077,-0.00298192,0.00779904,0.00000017,-0.0024
 2143,-0.00050461,-0.00000005,0.03893216,0.02000891,0.00000019,-0.00225
 728,-0.01134150,-0.00000037,-0.00004495,0.00054608,0.00000002,-0.00261
 784,0.00294961,0.00000003,0.00140958,0.00029231,0.00000003,0.00170274,
 0.00358922,-0.00000004,0.10192190,0.14895197,-0.00000001,-0.00000002,-
 0.00023189,0.00000004,-0.00000005,-0.00018272,-0.00000020,-0.00000015,
 0.00187216,0.,0.,0.00003522,0.,0.,-0.00010099,0.,0.,0.00003832,0.,0.,0
 .00002840,0.,0.,0.00002589,0.,0.,-0.00001170,0.,0.,0.00000548,0.000000
 45,-0.00000086,0.00250239,0.,-0.00000004,-0.00008043,-0.00000106,-0.00
 000030,0.01825937,0.00000023,-0.00000024,0.00464025,-0.00000080,-0.000
 00095,-0.06783599,-0.00000008,0.00000023,-0.00030711,-0.00000002,0.,-0
 .00007454,0.00000128,0.00000013,0.01792454,-0.00000009,-0.00000047,0.0
 0464585,0.,0.00000002,-0.00041175,-0.00000009,0.00000008,-0.00320008,0
 .00000006,0.00000005,-0.00168498,0.00000022,0.00000007,-0.00197402,0.0
 0000061,0.00000214,0.03239880,0.00137688,0.00043344,0.00000002,-0.0036
 3039,0.00553209,0.00000003,0.01473627,0.02381394,-0.00000039,0.0017453
 6,0.00087435,-0.00000002,-0.00024109,0.00012865,0.,-0.00045870,-0.0001
 0294,0.,-0.00021056,0.00033200,0.00000001,-0.00117744,-0.00071692,0.,-
 0.00000868,-0.00000253,0.,-0.00005965,-0.00007088,0.,-0.14493758,-0.17
 906394,0.00000326,-0.00400540,-0.00136003,0.00000009,0.00024188,0.0035
 1745,-0.00000004,0.00069087,-0.00010416,-0.00000003,-0.01280393,0.0008
 3303,0.00000020,0.00012268,0.00117413,0.00000002,0.00022181,0.00008423
 ,0.,0.00267507,-0.00083923,0.,-0.00100459,-0.00121482,-0.00000003,0.00
 007050,0.00000175,0.,-0.00002849,-0.00001864,0.,0.00011971,-0.00004356
 ,0.,-0.00342062,-0.03162337,0.00000037,0.00559162,-0.00603947,-0.00000
 055,0.14439448,-0.00119677,0.00088718,0.,0.00391822,-0.00028501,-0.000
 00001,-0.00080997,-0.01865785,0.00000023,-0.00191528,0.00241755,0.0000
 0002,-0.00041520,-0.00201458,-0.00000003,0.00124172,0.00087387,0.,0.00
 003703,0.00003436,0.,0.00060039,0.00002640,0.00000001,-0.00012918,0.00
 014552,0.,0.00000464,0.00007388,0.,-0.16016832,-0.39836285,0.00000696,
 0.00107961,0.00407156,0.,0.00800439,-0.01398169,-0.00000019,-0.0073884
 4,0.00032632,0.00000002,0.02861671,0.01169816,0.00000016,0.00150508,-0
 .00740976,-0.00000014,-0.00040074,0.00005951,-0.00000003,-0.01064338,0
 .00259433,0.00000007,0.00556394,0.00633049,0.00000013,0.00000664,-0.00
 016141,-0.00000001,0.00009753,-0.00012970,0.,-0.00025405,0.00002427,0.
 ,-0.02201796,0.01557564,0.00000014,-0.02981203,-0.00835098,0.00000035,
 0.18447544,0.40421482,0.,0.,0.00078252,0.00000003,-0.00000003,0.002309
 07,0.00000017,-0.00000022,0.00001763,-0.00000009,0.,-0.00080385,0.0000
 0002,-0.00000004,-0.00034285,0.00000002,0.00000002,-0.00004760,0.,0.,-
 0.00002911,-0.00000003,0.00000002,-0.00008572,0.,0.,0.00006487,0.,0.,0
 .00000288,0.00000344,0.00000807,-0.00982643,-0.00000004,-0.00000019,0.
 00490476,0.00000014,-0.00000028,-0.00341609,-0.00000014,0.00000002,-0.
 00087163,0.00000058,0.00000021,0.00033655,0.00000004,-0.00000013,0.000
 10718,-0.00000001,0.,-0.00008109,-0.00000024,0.,0.00146922,0.00000008,
 0.00000014,0.00006920,0.,0.,0.00021481,0.,0.,-0.00000609,0.,0.,-0.0002
 2696,-0.00000035,0.00000025,-0.00058872,-0.00000066,-0.00000014,-0.006
 28047,-0.00000296,-0.00000770,0.01232792\\0.00198208,0.00462205,-0.000
 00018,0.00640330,0.00932135,-0.00000013,0.01152938,-0.00049410,0.00000
 050,-0.00137593,0.00233681,0.00000005,-0.00018237,-0.00276470,0.000000
 05,0.00190987,0.00201325,-0.00000009,-0.00008996,0.00059538,-0.0000000
 3,0.00028476,0.00002960,0.00000001,0.00000840,0.00012241,0.,0.00011843
 ,0.00017820,0.,-0.01683246,0.01138936,-0.00000017,0.00369202,0.0095847
 4,0.00000013,-0.00968063,0.00582377,0.00000005,0.00905294,-0.00059932,
 -0.00000024,0.01715334,0.00361426,0.00000014,-0.00331678,0.00923644,0.
 00000011,0.00016874,0.00004262,-0.00000006,-0.00362412,0.00035304,-0.0
 0000007,-0.00627975,-0.00085577,0.00000007,-0.00018443,0.00000935,0.00
 000001,-0.00030382,-0.00001363,0.00000004,-0.00058513,-0.00018983,0.,-
 0.01058403,-0.00671282,0.00000049,-0.00921417,-0.01373327,0.,0.0099503
 3,-0.03390918,-0.00000067\\\@
 The archive entry for this job was punched.


 "I COULD HAVE DONE IT IN A MUCH MORE COMPLICATED WAY"
 SAID THE RED QUEEN, IMMENSELY PROUD.

                                      -- LEWIS CARROLL
 Job cpu time:       0 days  0 hours 59 minutes 59.6 seconds.
 Elapsed time:       0 days  0 hours  6 minutes  7.2 seconds.
 File lengths (MBytes):  RWF=    544 Int=      0 D2E=      0 Chk=     40 Scr=      8
 Normal termination of Gaussian 16 at Tue Oct 27 22:14:20 2020.
