 Entering Gaussian System, Link 0=g16
 Initial command:
 /gpfs/loomis/apps/avx/software/Gaussian/16-C.01_AVX/g16/l1.exe "/home/fas/batista/pev4/scratch60/gauss-scratch/Gau-72453.inp" -scrdir="/home/fas/batista/pev4/scratch60/gauss-scratch/"
 Entering Link 1 = /gpfs/loomis/apps/avx/software/Gaussian/16-C.01_AVX/g16/l1.exe PID=     72454.
  
 Copyright (c) 1988-2019, Gaussian, Inc.  All Rights Reserved.
  
 This is part of the Gaussian(R) 16 program.  It is based on
 the Gaussian(R) 09 system (copyright 2009, Gaussian, Inc.),
 the Gaussian(R) 03 system (copyright 2003, Gaussian, Inc.),
 the Gaussian(R) 98 system (copyright 1998, Gaussian, Inc.),
 the Gaussian(R) 94 system (copyright 1995, Gaussian, Inc.),
 the Gaussian 92(TM) system (copyright 1992, Gaussian, Inc.),
 the Gaussian 90(TM) system (copyright 1990, Gaussian, Inc.),
 the Gaussian 88(TM) system (copyright 1988, Gaussian, Inc.),
 the Gaussian 86(TM) system (copyright 1986, Carnegie Mellon
 University), and the Gaussian 82(TM) system (copyright 1983,
 Carnegie Mellon University). Gaussian is a federally registered
 trademark of Gaussian, Inc.
  
 This software contains proprietary and confidential information,
 including trade secrets, belonging to Gaussian, Inc.
  
 This software is provided under written license and may be
 used, copied, transmitted, or stored only in accord with that
 written license.
  
 The following legend is applicable only to US Government
 contracts under FAR:
  
                    RESTRICTED RIGHTS LEGEND
  
 Use, reproduction and disclosure by the US Government is
 subject to restrictions as set forth in subparagraphs (a)
 and (c) of the Commercial Computer Software - Restricted
 Rights clause in FAR 52.227-19.
  
 Gaussian, Inc.
 340 Quinnipiac St., Bldg. 40, Wallingford CT 06492
  
  
 ---------------------------------------------------------------
 Warning -- This program may not be used in any manner that
 competes with the business of Gaussian, Inc. or will provide
 assistance to any competitor of Gaussian, Inc.  The licensee
 of this program is prohibited from giving any competitor of
 Gaussian, Inc. access to this program.  By using this program,
 the user acknowledges that Gaussian, Inc. is engaged in the
 business of creating and licensing software in the field of
 computational chemistry and represents and warrants to the
 licensee that it is not a competitor of Gaussian, Inc. and that
 it will not use this program in any manner prohibited above.
 ---------------------------------------------------------------
  

 Cite this work as:
 Gaussian 16, Revision C.01,
 M. J. Frisch, G. W. Trucks, H. B. Schlegel, G. E. Scuseria, 
 M. A. Robb, J. R. Cheeseman, G. Scalmani, V. Barone, 
 G. A. Petersson, H. Nakatsuji, X. Li, M. Caricato, A. V. Marenich, 
 J. Bloino, B. G. Janesko, R. Gomperts, B. Mennucci, H. P. Hratchian, 
 J. V. Ortiz, A. F. Izmaylov, J. L. Sonnenberg, D. Williams-Young, 
 F. Ding, F. Lipparini, F. Egidi, J. Goings, B. Peng, A. Petrone, 
 T. Henderson, D. Ranasinghe, V. G. Zakrzewski, J. Gao, N. Rega, 
 G. Zheng, W. Liang, M. Hada, M. Ehara, K. Toyota, R. Fukuda, 
 J. Hasegawa, M. Ishida, T. Nakajima, Y. Honda, O. Kitao, H. Nakai, 
 T. Vreven, K. Throssell, J. A. Montgomery, Jr., J. E. Peralta, 
 F. Ogliaro, M. J. Bearpark, J. J. Heyd, E. N. Brothers, K. N. Kudin, 
 V. N. Staroverov, T. A. Keith, R. Kobayashi, J. Normand, 
 K. Raghavachari, A. P. Rendell, J. C. Burant, S. S. Iyengar, 
 J. Tomasi, M. Cossi, J. M. Millam, M. Klene, C. Adamo, R. Cammi, 
 J. W. Ochterski, R. L. Martin, K. Morokuma, O. Farkas, 
 J. B. Foresman, and D. J. Fox, Gaussian, Inc., Wallingford CT, 2019.
 
 ******************************************
 Gaussian 16:  ES64L-G16RevC.01  3-Jul-2019
                28-Oct-2020 
 ******************************************
 %chk=config_2_20.chk
 %mem=58GB
 %nprocshared=10
 Will use up to   10 processors via shared memory.
 ----------------------------------------------------------------------
 #p opt=addgic freq wb97xd/cc-pvdz nosymm int=ultrafine scrf=(solvent=C
 arbonTetraChloride)
 ----------------------------------------------------------------------
 1/18=20,19=15,26=6,38=1,145=903/1,3;
 2/9=110,12=2,15=1,17=6,18=5,40=1/2;
 3/5=16,11=2,25=1,30=1,70=2201,71=1,72=11,74=-58,75=-5/1,2,3;
 4//1;
 5/5=2,38=5,53=11/2;
 6/7=2,8=2,9=2,10=2,28=1/1;
 7/30=1/1,2,3,16;
 1/18=20,19=15,26=6,145=903/3(2);
 2/9=110,15=1/2;
 99//99;
 2/9=110,15=1/2;
 3/5=16,11=2,25=1,30=1,70=2205,71=1,72=11,74=-58,75=-5/1,2,3;
 4/5=5,16=3,69=1/1;
 5/5=2,38=5,53=11/2;
 7/30=1/1,2,3,16;
 1/18=20,19=15,26=6,145=903/3(-5);
 2/9=110,15=1/2;
 6/7=2,8=2,9=2,10=2,19=2,28=1/1;
 99/9=1/99;
 Leave Link    1 at Wed Oct 28 01:31:12 2020, MaxMem=  7784628224 cpu:               4.1 elap:               0.5
 (Enter /gpfs/loomis/apps/avx/software/Gaussian/16-C.01_AVX/g16/l101.exe)
 ------------------------------------------------
 NM 2D-scan of HBT TD-WB97XD pVDZ in CTC Relaxed.
 ------------------------------------------------
 Symbolic Z-matrix:
 Charge =  0 Multiplicity = 1
 C                     1.48857  -3.25231  -0.00002 
 C                     0.99186  -1.94565  -0.00002 
 C                     1.80994  -0.76222  -0.00003 
 C                     3.23289  -0.9847   -0.00003 
 C                     3.72325  -2.29668  -0.00002 
 C                     2.87479  -3.43305  -0.00001 
 H                     0.79529  -4.10842  -0.00001 
 H                     3.92416  -0.12626  -0.00004 
 H                     4.81179  -2.45285  -0.00003 
 H                     3.30273  -4.44415  -0.00001 
 N                     1.10501   0.39816  -0.00004 
 S                    -0.68963  -1.53762  -0.00003 
 C                    -1.27907   1.07918   0.00001 
 C                    -2.65614   0.68974   0.00003 
 C                    -0.94089   2.49906   0.00004 
 C                    -3.65271   1.65704   0.00004 
 H                    -2.91547  -0.37937   0.00003 
 C                    -1.97245   3.46414   0.00003 
 C                    -3.31781   3.043     0.00003 
 H                    -4.70754   1.35613   0.00004 
 H                    -1.71016   4.5333    0.00005 
 H                    -4.12086   3.79091   0.00003 
 C                    -0.23797   0.14695  -0.00002 
 O                     0.3477    2.77988   0.00007 
 H                     0.86108   2.09585   0.00004 
 
 Initializing the GIC definitions file.
 Number of initial coordinates =   131
 Number of input entries/lines =    52
 Number of additional coordinates =     2
 Number of removed coordinates =     0
 Number of frozen coordinates =     2
 Number of final active and frozen coordinates =   133
 ITRead=  0  0  0  0  0  0  0  0  0  0  0  0  0  0  0  0  0  0  0  0
 ITRead=  0  0  0  0  0
 MicOpt= -1 -1 -1 -1 -1 -1 -1 -1 -1 -1 -1 -1 -1 -1 -1 -1 -1 -1 -1 -1
 MicOpt= -1 -1 -1 -1 -1
 NAtoms=     25 NQM=       25 NQMF=       0 NMMI=      0 NMMIF=      0
                NMic=       0 NMicF=      0.
                    Isotopes and Nuclear Properties:
 (Nuclear quadrupole moments (NQMom) in fm**2, nuclear magnetic moments (NMagM)
  in nuclear magnetons)

  Atom         1           2           3           4           5           6           7           8           9          10
 IAtWgt=          12          12          12          12          12          12           1           1           1           1
 AtmWgt=  12.0000000  12.0000000  12.0000000  12.0000000  12.0000000  12.0000000   1.0078250   1.0078250   1.0078250   1.0078250
 NucSpn=           0           0           0           0           0           0           1           1           1           1
 AtZEff=  -0.0000000  -0.0000000  -0.0000000  -0.0000000  -0.0000000  -0.0000000  -0.0000000  -0.0000000  -0.0000000  -0.0000000
 NQMom=    0.0000000   0.0000000   0.0000000   0.0000000   0.0000000   0.0000000   0.0000000   0.0000000   0.0000000   0.0000000
 NMagM=    0.0000000   0.0000000   0.0000000   0.0000000   0.0000000   0.0000000   2.7928460   2.7928460   2.7928460   2.7928460
 AtZNuc=   6.0000000   6.0000000   6.0000000   6.0000000   6.0000000   6.0000000   1.0000000   1.0000000   1.0000000   1.0000000

  Atom        11          12          13          14          15          16          17          18          19          20
 IAtWgt=          14          32          12          12          12          12           1          12          12           1
 AtmWgt=  14.0030740  31.9720718  12.0000000  12.0000000  12.0000000  12.0000000   1.0078250  12.0000000  12.0000000   1.0078250
 NucSpn=           2           0           0           0           0           0           1           0           0           1
 AtZEff=  -0.0000000  -0.0000000  -0.0000000  -0.0000000  -0.0000000  -0.0000000  -0.0000000  -0.0000000  -0.0000000  -0.0000000
 NQMom=    2.0440000   0.0000000   0.0000000   0.0000000   0.0000000   0.0000000   0.0000000   0.0000000   0.0000000   0.0000000
 NMagM=    0.4037610   0.0000000   0.0000000   0.0000000   0.0000000   0.0000000   2.7928460   0.0000000   0.0000000   2.7928460
 AtZNuc=   7.0000000  16.0000000   6.0000000   6.0000000   6.0000000   6.0000000   1.0000000   6.0000000   6.0000000   1.0000000

  Atom        21          22          23          24          25
 IAtWgt=           1           1          12          16           1
 AtmWgt=   1.0078250   1.0078250  12.0000000  15.9949146   1.0078250
 NucSpn=           1           1           0           0           1
 AtZEff=  -0.0000000  -0.0000000  -0.0000000  -0.0000000  -0.0000000
 NQMom=    0.0000000   0.0000000   0.0000000   0.0000000   0.0000000
 NMagM=    2.7928460   2.7928460   0.0000000   0.0000000   2.7928460
 AtZNuc=   1.0000000   1.0000000   6.0000000   8.0000000   1.0000000
 Leave Link  101 at Wed Oct 28 01:31:15 2020, MaxMem=  7784628224 cpu:              31.3 elap:               3.2
 (Enter /gpfs/loomis/apps/avx/software/Gaussian/16-C.01_AVX/g16/l103.exe)

 GradGradGradGradGradGradGradGradGradGradGradGradGradGradGradGradGradGrad
 Berny optimization.
 Initialization pass.
                           ----------------------------
                           !    Initial Parameters    !
                           ! (Angstroms and Degrees)  !
 --------------------------                            --------------------------
 ! Name  Definition              Value          Derivative Info.                !
 --------------------------------------------------------------------------------
 ! R1    R(1,2)                  1.3979         estimate D2E/DX2                !
 ! R2    R(1,6)                  1.398          estimate D2E/DX2                !
 ! R3    R(1,7)                  1.1016         estimate D2E/DX2                !
 ! R4    R(2,3)                  1.4387         estimate D2E/DX2                !
 ! R5    R(2,12)                 1.7303         estimate D2E/DX2                !
 ! R6    R(3,4)                  1.4402         estimate D2E/DX2                !
 ! R7    R(3,11)                 1.3577         estimate D2E/DX2                !
 ! R8    R(4,5)                  1.4006         estimate D2E/DX2                !
 ! R9    R(4,8)                  1.1022         estimate D2E/DX2                !
 ! R10   R(5,6)                  1.4182         estimate D2E/DX2                !
 ! R11   R(5,9)                  1.0997         estimate D2E/DX2                !
 ! R12   R(6,10)                 1.0979         estimate D2E/DX2                !
 ! R13   R(11,23)                1.3663         estimate D2E/DX2                !
 ! R14   R(12,23)                1.7441         estimate D2E/DX2                !
 ! R15   R(13,14)                1.4311         estimate D2E/DX2                !
 ! R16   R(13,15)                1.4596         estimate D2E/DX2                !
 ! R17   R(13,23)                1.3975         estimate D2E/DX2                !
 ! R18   R(14,16)                1.3888         estimate D2E/DX2                !
 ! R19   R(14,17)                1.1001         estimate D2E/DX2                !
 ! R20   R(15,18)                1.4126         estimate D2E/DX2                !
 ! R21   R(15,24)                1.3188         estimate D2E/DX2                !
 ! R22   R(16,19)                1.4258         estimate D2E/DX2                !
 ! R23   R(16,20)                1.0969         estimate D2E/DX2                !
 ! R24   R(18,19)                1.4097         estimate D2E/DX2                !
 ! R25   R(18,21)                1.1009         estimate D2E/DX2                !
 ! R26   R(19,22)                1.0974         estimate D2E/DX2                !
 ! R27   R(24,25)                0.8553         estimate D2E/DX2                !
 ! A1    A(2,1,6)              118.2423         estimate D2E/DX2                !
 ! A2    A(2,1,7)              120.1857         estimate D2E/DX2                !
 ! A3    A(6,1,7)              121.572          estimate D2E/DX2                !
 ! A4    A(1,2,3)              124.5308         estimate D2E/DX2                !
 ! A5    A(1,2,12)             124.4534         estimate D2E/DX2                !
 ! A6    A(3,2,12)             111.0158         estimate D2E/DX2                !
 ! A7    A(2,3,4)              115.7692         estimate D2E/DX2                !
 ! A8    A(2,3,11)             114.0658         estimate D2E/DX2                !
 ! A9    A(4,3,11)             130.165          estimate D2E/DX2                !
 ! A10   A(3,4,5)              119.3801         estimate D2E/DX2                !
 ! A11   A(3,4,8)              119.9566         estimate D2E/DX2                !
 ! A12   A(5,4,8)              120.6632         estimate D2E/DX2                !
 ! A13   A(4,5,6)              122.7596         estimate D2E/DX2                !
 ! A14   A(4,5,9)              118.6584         estimate D2E/DX2                !
 ! A15   A(6,5,9)              118.582          estimate D2E/DX2                !
 ! A16   A(1,6,5)              119.3181         estimate D2E/DX2                !
 ! A17   A(1,6,10)             120.3686         estimate D2E/DX2                !
 ! A18   A(5,6,10)             120.3134         estimate D2E/DX2                !
 ! A19   A(3,11,23)            110.6838         estimate D2E/DX2                !
 ! A20   A(2,12,23)             88.6306         estimate D2E/DX2                !
 ! A21   A(14,13,15)           119.1884         estimate D2E/DX2                !
 ! A22   A(14,13,23)           122.3666         estimate D2E/DX2                !
 ! A23   A(15,13,23)           118.445          estimate D2E/DX2                !
 ! A24   A(13,14,16)           120.0621         estimate D2E/DX2                !
 ! A25   A(13,14,17)           119.4261         estimate D2E/DX2                !
 ! A26   A(16,14,17)           120.5118         estimate D2E/DX2                !
 ! A27   A(13,15,18)           119.6957         estimate D2E/DX2                !
 ! A28   A(13,15,24)           115.6912         estimate D2E/DX2                !
 ! A29   A(18,15,24)           124.6131         estimate D2E/DX2                !
 ! A30   A(14,16,19)           120.562          estimate D2E/DX2                !
 ! A31   A(14,16,20)           119.9315         estimate D2E/DX2                !
 ! A32   A(19,16,20)           119.5065         estimate D2E/DX2                !
 ! A33   A(15,18,19)           119.5255         estimate D2E/DX2                !
 ! A34   A(15,18,21)           119.3091         estimate D2E/DX2                !
 ! A35   A(19,18,21)           121.1654         estimate D2E/DX2                !
 ! A36   A(16,19,18)           120.9662         estimate D2E/DX2                !
 ! A37   A(16,19,22)           119.3795         estimate D2E/DX2                !
 ! A38   A(18,19,22)           119.6542         estimate D2E/DX2                !
 ! A39   A(11,23,12)           115.6039         estimate D2E/DX2                !
 ! A40   A(11,23,13)           127.5632         estimate D2E/DX2                !
 ! A41   A(12,23,13)           116.8329         estimate D2E/DX2                !
 ! A42   A(15,24,25)           114.5953         estimate D2E/DX2                !
 ! D1    D(6,1,2,3)              0.0            estimate D2E/DX2                !
 ! D2    D(6,1,2,12)           179.9999         estimate D2E/DX2                !
 ! D3    D(7,1,2,3)            179.9999         estimate D2E/DX2                !
 ! D4    D(7,1,2,12)            -0.0001         estimate D2E/DX2                !
 ! D5    D(2,1,6,5)             -0.0002         estimate D2E/DX2                !
 ! D6    D(2,1,6,10)           179.9999         estimate D2E/DX2                !
 ! D7    D(7,1,6,5)            179.9999         estimate D2E/DX2                !
 ! D8    D(7,1,6,10)             0.0            estimate D2E/DX2                !
 ! D9    D(1,2,3,4)              0.0003         estimate D2E/DX2                !
 ! D10   D(1,2,3,11)          -179.9999         estimate D2E/DX2                !
 ! D11   D(12,2,3,4)          -179.9997         estimate D2E/DX2                !
 ! D12   D(12,2,3,11)            0.0001         estimate D2E/DX2                !
 ! D13   D(1,2,12,23)          179.9996         estimate D2E/DX2                !
 ! D14   D(3,2,12,23)           -0.0005         estimate D2E/DX2                !
 ! D15   D(2,3,4,5)             -0.0003         estimate D2E/DX2                !
 ! D16   D(2,3,4,8)            179.9998         estimate D2E/DX2                !
 ! D17   D(11,3,4,5)           180.0            estimate D2E/DX2                !
 ! D18   D(11,3,4,8)             0.0            estimate D2E/DX2                !
 ! D19   D(2,3,11,23)            0.0004         estimate D2E/DX2                !
 ! D20   D(4,3,11,23)         -179.9998         estimate D2E/DX2                !
 ! D21   D(3,4,5,6)              0.0001         estimate D2E/DX2                !
 ! D22   D(3,4,5,9)           -179.9999         estimate D2E/DX2                !
 ! D23   D(8,4,5,6)            180.0            estimate D2E/DX2                !
 ! D24   D(8,4,5,9)              0.0            estimate D2E/DX2                !
 ! D25   D(4,5,6,1)              0.0002         estimate D2E/DX2                !
 ! D26   D(4,5,6,10)          -179.9999         estimate D2E/DX2                !
 ! D27   D(9,5,6,1)           -179.9999         estimate D2E/DX2                !
 ! D28   D(9,5,6,10)             0.0            estimate D2E/DX2                !
 ! D29   D(3,11,23,12)          -0.0008         estimate D2E/DX2                !
 ! D30   D(3,11,23,13)         179.998          estimate D2E/DX2                !
 ! D31   D(2,12,23,11)           0.0007         estimate D2E/DX2                !
 ! D32   D(2,12,23,13)        -179.9982         estimate D2E/DX2                !
 ! D33   D(15,13,14,16)          0.0017         estimate D2E/DX2                !
 ! D34   D(15,13,14,17)       -179.9989         estimate D2E/DX2                !
 ! D35   D(23,13,14,16)       -179.9983         estimate D2E/DX2                !
 ! D36   D(23,13,14,17)          0.001          estimate D2E/DX2                !
 ! D37   D(14,13,15,18)         -0.002          estimate D2E/DX2                !
 ! D38   D(14,13,15,24)        179.9977         estimate D2E/DX2                !
 ! D39   D(23,13,15,18)        179.998          estimate D2E/DX2                !
 ! D40   D(23,13,15,24)         -0.0022         estimate D2E/DX2                !
 ! D41   D(14,13,23,11)       -179.9995         estimate D2E/DX2                !
 ! D42   D(14,13,23,12)         -0.0008         estimate D2E/DX2                !
 ! D43   D(15,13,23,11)          0.0004         estimate D2E/DX2                !
 ! D44   D(15,13,23,12)        179.9992         estimate D2E/DX2                !
 ! D45   D(13,14,16,19)         -0.0004         estimate D2E/DX2                !
 ! D46   D(13,14,16,20)        179.9995         estimate D2E/DX2                !
 ! D47   D(17,14,16,19)       -179.9998         estimate D2E/DX2                !
 ! D48   D(17,14,16,20)          0.0002         estimate D2E/DX2                !
 ! D49   D(13,15,18,19)          0.001          estimate D2E/DX2                !
 ! D50   D(13,15,18,21)       -179.9998         estimate D2E/DX2                !
 ! D51   D(24,15,18,19)       -179.9987         estimate D2E/DX2                !
 ! D52   D(24,15,18,21)          0.0005         estimate D2E/DX2                !
 ! D53   D(13,15,24,25)          0.0024         estimate D2E/DX2                !
 ! D54   D(18,15,24,25)       -179.9979         estimate D2E/DX2                !
 ! D55   D(14,16,19,18)         -0.0007         estimate D2E/DX2                !
 ! D56   D(14,16,19,22)        179.9997         estimate D2E/DX2                !
 ! D57   D(20,16,19,18)        179.9994         estimate D2E/DX2                !
 ! D58   D(20,16,19,22)         -0.0002         estimate D2E/DX2                !
 ! D59   D(15,18,19,16)          0.0004         estimate D2E/DX2                !
 ! D60   D(15,18,19,22)        180.0            estimate D2E/DX2                !
 ! D61   D(21,18,19,16)       -179.9988         estimate D2E/DX2                !
 ! D62   D(21,18,19,22)          0.0008         estimate D2E/DX2                !
 ! Qtot  GIC-1                 -40.0            Frozen                          !
 ! Ptot  GIC-2                 240.0            Frozen                          !
 --------------------------------------------------------------------------------
 NOTE: GIC-type coordinates are in arbitrary units.
 Trust Radius=3.00D-01 FncErr=5.00D-06 GrdErr=5.00D-06 EigMax=2.50D+02 EigMin=1.00D-04
 Number of steps in this run=    143 maximum allowed number of steps=    150.
 GradGradGradGradGradGradGradGradGradGradGradGradGradGradGradGradGradGrad

 Leave Link  103 at Wed Oct 28 01:31:15 2020, MaxMem=  7784628224 cpu:               0.1 elap:               0.0
 (Enter /gpfs/loomis/apps/avx/software/Gaussian/16-C.01_AVX/g16/l202.exe)
                          Input orientation:                          
 ---------------------------------------------------------------------
 Center     Atomic      Atomic             Coordinates (Angstroms)
 Number     Number       Type             X           Y           Z
 ---------------------------------------------------------------------
      1          6           0        1.488572   -3.252307   -0.000015
      2          6           0        0.991860   -1.945646   -0.000023
      3          6           0        1.809943   -0.762223   -0.000030
      4          6           0        3.232889   -0.984704   -0.000033
      5          6           0        3.723255   -2.296682   -0.000024
      6          6           0        2.874794   -3.433049   -0.000014
      7          1           0        0.795287   -4.108424   -0.000009
      8          1           0        3.924158   -0.126258   -0.000041
      9          1           0        4.811786   -2.452854   -0.000025
     10          1           0        3.302733   -4.444150   -0.000006
     11          7           0        1.105011    0.398161   -0.000035
     12         16           0       -0.689634   -1.537616   -0.000028
     13          6           0       -1.279074    1.079184    0.000014
     14          6           0       -2.656144    0.689736    0.000033
     15          6           0       -0.940891    2.499063    0.000037
     16          6           0       -3.652707    1.657043    0.000035
     17          1           0       -2.915474   -0.379370    0.000034
     18          6           0       -1.972454    3.464137    0.000034
     19          6           0       -3.317806    3.043000    0.000029
     20          1           0       -4.707544    1.356127    0.000041
     21          1           0       -1.710165    4.533304    0.000048
     22          1           0       -4.120856    3.790914    0.000027
     23          6           0       -0.237969    0.146955   -0.000024
     24          8           0        0.347696    2.779882    0.000066
     25          1           0        0.861083    2.095854    0.000036
 ---------------------------------------------------------------------
                    Distance matrix (angstroms):
                    1          2          3          4          5
     1  C    0.000000
     2  C    1.397886   0.000000
     3  C    2.510737   1.438662   0.000000
     4  C    2.860886   2.438364   1.440234   0.000000
     5  C    2.430438   2.753860   2.452616   1.400623   0.000000
     6  C    1.397956   2.399543   2.875277   2.474394   1.418173
     7  H    1.101626   2.171693   3.496654   3.962263   3.443168
     8  H    3.962861   3.450876   2.207795   1.102172   2.179702
     9  H    3.418023   3.853452   3.445185   2.156011   1.099677
    10  H    2.170638   3.403330   3.973035   3.460151   2.188255
    11  N    3.670563   2.346536   1.357726   2.537751   3.757310
    12  S    2.772138   1.730292   2.617082   3.961300   4.477697
    13  C    5.140203   3.782425   3.596222   4.961597   6.034879
    14  C    5.719998   4.500352   4.696181   6.122455   7.043821
    15  C    6.243440   4.846747   4.266506   5.436641   6.689799
    16  C    7.108760   5.878041   5.974395   7.374975   8.368796
    17  H    5.258268   4.209570   4.740901   6.178090   6.910051
    18  C    7.555747   6.168704   5.671741   6.847465   8.101119
    19  C    7.920363   6.592405   6.385415   7.689863   8.836783
    20  H    7.722015   6.586722   6.853104   8.278283   9.188111
    21  H    8.417105   7.019810   6.358755   7.408252   8.727586
    22  H    9.004035   7.684269   7.476994   8.768358   9.929194
    23  C    3.812601   2.427232   2.240658   3.650686   4.654315
    24  O    6.139129   4.769231   3.832059   4.743042   6.096384
    25  H    5.384847   4.043615   3.011468   3.887840   5.242748
                    6          7          8          9         10
     6  C    0.000000
     7  H    2.186431   0.000000
     8  H    3.469298   5.064335   0.000000
     9  H    2.170880   4.344327   2.490168   0.000000
    10  H    1.097933   2.529821   4.362380   2.498499   0.000000
    11  N    4.220225   4.517216   2.867509   4.676373   5.317702
    12  S    4.037055   2.968846   4.824833   5.577032   4.938313
    13  C    6.133096   5.586972   5.341041   7.040872   7.176362
    14  C    6.898451   5.910560   6.630703   8.102213   7.865430
    15  C    7.053325   6.831778   5.528201   7.590439   8.137354
    16  C    8.277518   7.281844   7.783897   9.409511   9.252172
    17  H    6.546156   5.260760   6.844314   8.000618   7.428898
    18  C    8.430123   8.062510   6.903692   9.002038   9.506239
    19  C    8.960329   8.249872   7.905076   9.812985   9.994445
    20  H    8.968169   7.755158   8.758067  10.253096   9.889780
    21  H    9.191552   8.997597   7.311437   9.557314  10.282209
    22  H   10.056081   9.304193   8.947988  10.898474  11.087198
    23  C    4.744019   4.379026   4.171085   5.679704   5.797828
    24  O    6.707215   6.902833   4.608333   6.878200   7.805055
    25  H    5.884199   6.204627   3.784206   6.024849   6.980925
                   11         12         13         14         15
    11  N    0.000000
    12  S    2.639694   0.000000
    13  C    2.479447   2.682365   0.000000
    14  C    3.772440   2.971238   1.431080   0.000000
    15  C    2.932491   4.044490   1.459597   2.493142   0.000000
    16  C    4.921450   4.357252   2.442960   1.388820   2.839533
    17  H    4.094979   2.509163   2.192073   1.100109   3.490609
    18  C    4.344076   5.163638   2.483701   2.857400   1.412618
    19  C    5.153298   5.281034   2.830723   2.444514   2.438359
    20  H    5.890967   4.951499   3.439637   2.156923   3.936239
    21  H    5.002462   6.156099   3.480917   3.958269   2.174838
    22  H    6.230607   6.337706   3.928002   3.429677   3.432355
    23  C    1.366272   1.744070   1.397481   2.478343   2.454895
    24  O    2.499225   4.440365   2.353456   3.659476   1.318831
    25  H    1.715128   3.950548   2.369365   3.787882   1.846533
                   16         17         18         19         20
    16  C    0.000000
    17  H    2.165754   0.000000
    18  C    2.467558   3.957503   0.000000
    19  C    1.425846   3.445938   1.409726   0.000000
    20  H    1.096919   2.494687   3.453176   2.185614   0.000000
    21  H    3.470786   5.058373   1.100870   2.192149   4.367921
    22  H    2.184621   4.340992   2.173112   1.097391   2.504474
    23  C    3.733738   2.728745   3.743279   4.227585   4.630248
    24  O    4.154996   4.541933   2.418946   3.674933   5.251907
    25  H    4.535069   4.515431   3.146605   4.284879   5.617544
                   21         22         23         24         25
    21  H    0.000000
    22  H    2.522415   0.000000
    23  C    4.626816   5.324965   0.000000
    24  O    2.703568   4.581500   2.697279   0.000000
    25  H    3.542947   5.262408   2.237437   0.855255   0.000000
 Symmetry turned off by external request.
 Stoichiometry    C13H9NOS
 Framework group  C1[X(C13H9NOS)]
 Deg. of freedom    69
 Full point group                 C1      NOp   1
 Rotational constants (GHZ):           1.4034936           0.2864699           0.2379097
 Leave Link  202 at Wed Oct 28 01:31:15 2020, MaxMem=  7784628224 cpu:               0.1 elap:               0.0
 (Enter /gpfs/loomis/apps/avx/software/Gaussian/16-C.01_AVX/g16/l301.exe)
 Standard basis: CC-pVDZ (5D, 7F)
 Ernie: Thresh=  0.10000D-02 Tol=  0.10000D-05 Strict=F.
 Ernie:  40 primitive shells out of 425 were deleted.
   273 basis functions,   629 primitive gaussians,   289 cartesian basis functions
    59 alpha electrons       59 beta electrons
       nuclear repulsion energy      1099.9635233354 Hartrees.
 IExCor= 4639 DFT=T Ex+Corr=wB97XD ExCW=0 ScaHFX=  1.000000
 ScaDFX=  1.000000  1.000000  1.000000  1.000000 ScalE2=  1.000000  1.000000
 IRadAn=      5 IRanWt=     -1 IRanGd=            0 ICorTp=0 IEmpDi=121
 HFx  wShort=  0.000000 wLong=  0.200000 cFull=  0.222036 cShort=  0.000000 cLong=  0.777964
 DFx  wShort=  0.000000 wLong=  0.200000 cFull=  0.000000 cShort=  0.000000 cLong=  1.000000
 NAtoms=   25 NActive=   25 NUniq=   25 SFac= 1.00D+00 NAtFMM=   60 NAOKFM=F Big=F
 Integral buffers will be    131072 words long.
 Raffenetti 2 integral format.
 Two-electron integral symmetry is turned off.
 R6Disp:  Grimme-D2 Dispersion energy=       -0.0137601654 Hartrees.
 Nuclear repulsion after empirical dispersion term =     1099.9497631700 Hartrees.
 ------------------------------------------------------------------------------
 Polarizable Continuum Model (PCM)
 =================================
 Model                : PCM.
 Atomic radii         : UFF (Universal Force Field).
 Polarization charges : Total charges.
 Charge compensation  : None.
 Solution method      : On-the-fly selection.
 Cavity type          : Scaled VdW (van der Waals Surface) (Alpha=1.100).
 Cavity algorithm     : GePol (No added spheres)
                        Default sphere list used, NSphG=   25.
                        Lebedev-Laikov grids with approx.  5.0 points / Ang**2.
                        Smoothing algorithm: York/Karplus (Gamma=1.0000).
                        Polarization charges: spherical gaussians, with
                                              point-specific exponents (IZeta= 3).
                        Self-potential: point-specific (ISelfS= 7).
                        Self-field    : sphere-specific E.n sum rule (ISelfD= 2).
 1st derivatives      : Analytical E(r).r(x)/FMM algorithm (CHGder, D1EAlg=3).
                        Cavity 1st derivative terms included.
 Solvent              : CarbonTetraChloride, Eps=   2.228000 Eps(inf)=   2.131892
 ------------------------------------------------------------------------------
 GePol: Number of generator spheres                  =      25
 GePol: Total number of spheres                      =      25
 GePol: Number of exposed spheres                    =      25 (100.00%)
 GePol: Number of points                             =    2174
 GePol: Average weight of points                     =       0.13
 GePol: Minimum weight of points                     =   0.32D-09
 GePol: Maximum weight of points                     =    0.20577
 GePol: Number of points with low weight             =     138
 GePol: Fraction of low-weight points (<1% of avg)   =       6.35%
 GePol: Cavity surface area                          =    272.283 Ang**2
 GePol: Cavity volume                                =    292.897 Ang**3
 Leave Link  301 at Wed Oct 28 01:31:15 2020, MaxMem=  7784628224 cpu:               0.8 elap:               0.1
 (Enter /gpfs/loomis/apps/avx/software/Gaussian/16-C.01_AVX/g16/l302.exe)
 NPDir=0 NMtPBC=     1 NCelOv=     1 NCel=       1 NClECP=     1 NCelD=      1
         NCelK=      1 NCelE2=     1 NClLst=     1 CellRange=     0.0.
 One-electron integrals computed using PRISM.
 NBasis=   273 RedAO= T EigKep=  3.41D-04  NBF=   273
 NBsUse=   273 1.00D-06 EigRej= -1.00D+00 NBFU=   273
 Precomputing XC quadrature grid using
 IXCGrd= 4 IRadAn=           5 IRanWt=          -1 IRanGd=           0 AccXCQ= 0.00D+00.
 Generated NRdTot=       0 NPtTot=           0 NUsed=           0 NTot=          32
 NSgBfM=   288   288   288   288   288 MxSgAt=    25 MxSgA2=    25.
 Leave Link  302 at Wed Oct 28 01:31:16 2020, MaxMem=  7784628224 cpu:               2.5 elap:               0.3
 (Enter /gpfs/loomis/apps/avx/software/Gaussian/16-C.01_AVX/g16/l303.exe)
 DipDrv:  MaxL=1.
 Leave Link  303 at Wed Oct 28 01:31:16 2020, MaxMem=  7784628224 cpu:               0.4 elap:               0.1
 (Enter /gpfs/loomis/apps/avx/software/Gaussian/16-C.01_AVX/g16/l401.exe)
 ExpMin= 1.22D-01 ExpMax= 1.11D+05 ExpMxC= 1.07D+03 IAcc=3 IRadAn=         5 AccDes= 0.00D+00
 Harris functional with IExCor= 4639 and IRadAn=       5 diagonalized for initial guess.
 HarFok:  IExCor= 4639 AccDes= 0.00D+00 IRadAn=         5 IDoV= 1 UseB2=F ITyADJ=14
 ICtDFT=  3500011 ScaDFX=  1.000000  1.000000  1.000000  1.000000
 FoFCou: FMM=F IPFlag=           0 FMFlag=      100000 FMFlg1=           0
         NFxFlg=           0 DoJE=T BraDBF=F KetDBF=T FulRan=T
         wScrn=  0.000000 ICntrl=       500 IOpCl=  0 I1Cent=   200000004 NGrid=           0
         NMat0=    1 NMatS0=      1 NMatT0=    0 NMatD0=    1 NMtDS0=    0 NMtDT0=    0
 Symmetry not used in FoFCou.
 Harris En= -994.418970130452    
 JPrj=0 DoOrth=F DoCkMO=F.
 Leave Link  401 at Wed Oct 28 01:31:17 2020, MaxMem=  7784628224 cpu:              13.8 elap:               1.4
 (Enter /gpfs/loomis/apps/avx/software/Gaussian/16-C.01_AVX/g16/l502.exe)
 Two-electron integral symmetry not used.
 Closed shell SCF:
 Using DIIS extrapolation, IDIIS=  1040.
 NGot=  7784628224 LenX=  7784455381 LenY=  7784371419
 Requested convergence on RMS density matrix=1.00D-08 within 128 cycles.
 Requested convergence on MAX density matrix=1.00D-06.
 Requested convergence on             energy=1.00D-06.
 No special actions if energy rises.
 Fock matrices will be formed incrementally for  20 cycles.

 Cycle   1  Pass 1  IDiag  1:
 FoFJK:  IHMeth= 1 ICntrl=       0 DoSepK=T KAlg= 0 I1Cent=           0 FoldK=F
 IRaf=         1 NMat=       1 IRICut=       1 DoRegI=T DoRafI=F ISym2E= 0 IDoP0=0 IntGTp=1.
 FoFCou: FMM=F IPFlag=           0 FMFlag=      100000 FMFlg1=           0
         NFxFlg=           0 DoJE=T BraDBF=F KetDBF=F FulRan=T
         wScrn=  0.000000 ICntrl=       500 IOpCl=  0 I1Cent=           0 NGrid=           0
         NMat0=    1 NMatS0=      1 NMatT0=    0 NMatD0=    1 NMtDS0=    0 NMtDT0=    0
 Symmetry not used in FoFCou.
 Inv3:  Mode=1 IEnd=    14178828.
 Iteration    1 A*A^-1 deviation from unit magnitude is 4.44D-15 for   2155.
 Iteration    1 A*A^-1 deviation from orthogonality  is 1.19D-15 for    530    488.
 Iteration    1 A^-1*A deviation from unit magnitude is 4.44D-15 for   2155.
 Iteration    1 A^-1*A deviation from orthogonality  is 2.10D-15 for   2134   1391.
 E= -1028.57799895162    
 DIIS: error= 3.02D-02 at cycle   1 NSaved=   1.
 NSaved= 1 IEnMin= 1 EnMin= -1028.57799895162     IErMin= 1 ErrMin= 3.02D-02
 ErrMax= 3.02D-02  0.00D+00 EMaxC= 1.00D-01 BMatC= 3.71D-01 BMatP= 3.71D-01
 IDIUse=3 WtCom= 6.98D-01 WtEn= 3.02D-01
 Coeff-Com:  0.100D+01
 Coeff-En:   0.100D+01
 Coeff:      0.100D+01
 Gap=     0.346 Goal=   None    Shift=    0.000
 GapD=    0.346 DampG=1.000 DampE=0.500 DampFc=0.5000 IDamp=-1.
 Damping current iteration by 5.00D-01
 RMSDP=3.36D-03 MaxDP=2.18D-01              OVMax= 1.65D-01

 Cycle   2  Pass 1  IDiag  1:
 RMSU=  1.67D-03    CP:  9.93D-01
 E= -1028.68492154767     Delta-E=       -0.106922596048 Rises=F Damp=T
 DIIS: error= 1.06D-02 at cycle   2 NSaved=   2.
 NSaved= 2 IEnMin= 2 EnMin= -1028.68492154767     IErMin= 2 ErrMin= 1.06D-02
 ErrMax= 1.06D-02  0.00D+00 EMaxC= 1.00D-01 BMatC= 5.71D-02 BMatP= 3.71D-01
 IDIUse=3 WtCom= 8.94D-01 WtEn= 1.06D-01
 Coeff-Com: -0.343D+00 0.134D+01
 Coeff-En:   0.000D+00 0.100D+01
 Coeff:     -0.306D+00 0.131D+01
 Gap=     0.306 Goal=   None    Shift=    0.000
 RMSDP=1.09D-03 MaxDP=2.11D-02 DE=-1.07D-01 OVMax= 1.13D-01

 Cycle   3  Pass 1  IDiag  1:
 RMSU=  1.02D-03    CP:  9.91D-01  1.22D+00
 E= -1028.77763990717     Delta-E=       -0.092718359498 Rises=F Damp=F
 DIIS: error= 5.50D-03 at cycle   3 NSaved=   3.
 NSaved= 3 IEnMin= 3 EnMin= -1028.77763990717     IErMin= 3 ErrMin= 5.50D-03
 ErrMax= 5.50D-03  0.00D+00 EMaxC= 1.00D-01 BMatC= 1.10D-02 BMatP= 5.71D-02
 IDIUse=3 WtCom= 9.45D-01 WtEn= 5.50D-02
 Coeff-Com: -0.210D+00 0.482D+00 0.728D+00
 Coeff-En:   0.000D+00 0.000D+00 0.100D+01
 Coeff:     -0.198D+00 0.455D+00 0.743D+00
 Gap=     0.265 Goal=   None    Shift=    0.000
 RMSDP=4.79D-04 MaxDP=1.31D-02 DE=-9.27D-02 OVMax= 3.78D-02

 Cycle   4  Pass 1  IDiag  1:
 RMSU=  3.51D-04    CP:  9.89D-01  1.39D+00  8.60D-01
 E= -1028.78868452724     Delta-E=       -0.011044620076 Rises=F Damp=F
 DIIS: error= 2.00D-03 at cycle   4 NSaved=   4.
 NSaved= 4 IEnMin= 4 EnMin= -1028.78868452724     IErMin= 4 ErrMin= 2.00D-03
 ErrMax= 2.00D-03  0.00D+00 EMaxC= 1.00D-01 BMatC= 1.28D-03 BMatP= 1.10D-02
 IDIUse=3 WtCom= 9.80D-01 WtEn= 2.00D-02
 Coeff-Com: -0.765D-01 0.152D+00 0.354D+00 0.571D+00
 Coeff-En:   0.000D+00 0.000D+00 0.000D+00 0.100D+01
 Coeff:     -0.750D-01 0.149D+00 0.347D+00 0.580D+00
 Gap=     0.263 Goal=   None    Shift=    0.000
 RMSDP=1.43D-04 MaxDP=6.71D-03 DE=-1.10D-02 OVMax= 1.06D-02

 Cycle   5  Pass 1  IDiag  1:
 RMSU=  9.51D-05    CP:  9.89D-01  1.40D+00  9.22D-01  7.55D-01
 E= -1028.79007068473     Delta-E=       -0.001386157487 Rises=F Damp=F
 DIIS: error= 4.07D-04 at cycle   5 NSaved=   5.
 NSaved= 5 IEnMin= 5 EnMin= -1028.79007068473     IErMin= 5 ErrMin= 4.07D-04
 ErrMax= 4.07D-04  0.00D+00 EMaxC= 1.00D-01 BMatC= 5.63D-05 BMatP= 1.28D-03
 IDIUse=3 WtCom= 9.96D-01 WtEn= 4.07D-03
 Coeff-Com: -0.296D-02 0.253D-03 0.460D-01 0.190D+00 0.767D+00
 Coeff-En:   0.000D+00 0.000D+00 0.000D+00 0.000D+00 0.100D+01
 Coeff:     -0.295D-02 0.252D-03 0.458D-01 0.189D+00 0.768D+00
 Gap=     0.263 Goal=   None    Shift=    0.000
 RMSDP=4.93D-05 MaxDP=1.56D-03 DE=-1.39D-03 OVMax= 4.60D-03

 Cycle   6  Pass 1  IDiag  1:
 RMSU=  3.24D-05    CP:  9.89D-01  1.40D+00  9.40D-01  8.43D-01  1.03D+00
 E= -1028.79017137309     Delta-E=       -0.000100688363 Rises=F Damp=F
 DIIS: error= 1.44D-04 at cycle   6 NSaved=   6.
 NSaved= 6 IEnMin= 6 EnMin= -1028.79017137309     IErMin= 6 ErrMin= 1.44D-04
 ErrMax= 1.44D-04  0.00D+00 EMaxC= 1.00D-01 BMatC= 8.02D-06 BMatP= 5.63D-05
 IDIUse=3 WtCom= 9.99D-01 WtEn= 1.44D-03
 Coeff-Com:  0.153D-01-0.316D-01-0.546D-01-0.470D-01 0.218D+00 0.900D+00
 Coeff-En:   0.000D+00 0.000D+00 0.000D+00 0.000D+00 0.000D+00 0.100D+01
 Coeff:      0.153D-01-0.316D-01-0.546D-01-0.470D-01 0.217D+00 0.901D+00
 Gap=     0.264 Goal=   None    Shift=    0.000
 RMSDP=2.80D-05 MaxDP=1.55D-03 DE=-1.01D-04 OVMax= 2.43D-03

 Cycle   7  Pass 1  IDiag  1:
 RMSU=  1.50D-05    CP:  9.89D-01  1.40D+00  9.52D-01  8.78D-01  1.19D+00
                    CP:  1.17D+00
 E= -1028.79019507296     Delta-E=       -0.000023699869 Rises=F Damp=F
 DIIS: error= 7.70D-05 at cycle   7 NSaved=   7.
 NSaved= 7 IEnMin= 7 EnMin= -1028.79019507296     IErMin= 7 ErrMin= 7.70D-05
 ErrMax= 7.70D-05  0.00D+00 EMaxC= 1.00D-01 BMatC= 1.74D-06 BMatP= 8.02D-06
 IDIUse=1 WtCom= 1.00D+00 WtEn= 0.00D+00
 Coeff-Com:  0.669D-02-0.129D-01-0.284D-01-0.443D-01-0.212D-01 0.371D+00
 Coeff-Com:  0.729D+00
 Coeff:      0.669D-02-0.129D-01-0.284D-01-0.443D-01-0.212D-01 0.371D+00
 Coeff:      0.729D+00
 Gap=     0.264 Goal=   None    Shift=    0.000
 RMSDP=9.50D-06 MaxDP=4.84D-04 DE=-2.37D-05 OVMax= 1.03D-03

 Cycle   8  Pass 1  IDiag  1:
 RMSU=  5.78D-06    CP:  9.89D-01  1.40D+00  9.54D-01  8.84D-01  1.23D+00
                    CP:  1.35D+00  1.11D+00
 E= -1028.79019860052     Delta-E=       -0.000003527561 Rises=F Damp=F
 DIIS: error= 2.85D-05 at cycle   8 NSaved=   8.
 NSaved= 8 IEnMin= 8 EnMin= -1028.79019860052     IErMin= 8 ErrMin= 2.85D-05
 ErrMax= 2.85D-05  0.00D+00 EMaxC= 1.00D-01 BMatC= 1.92D-07 BMatP= 1.74D-06
 IDIUse=1 WtCom= 1.00D+00 WtEn= 0.00D+00
 Coeff-Com: -0.124D-02 0.274D-02 0.335D-02-0.505D-03-0.407D-01-0.610D-01
 Coeff-Com:  0.201D+00 0.897D+00
 Coeff:     -0.124D-02 0.274D-02 0.335D-02-0.505D-03-0.407D-01-0.610D-01
 Coeff:      0.201D+00 0.897D+00
 Gap=     0.264 Goal=   None    Shift=    0.000
 RMSDP=4.23D-06 MaxDP=1.44D-04 DE=-3.53D-06 OVMax= 5.87D-04

 Cycle   9  Pass 1  IDiag  1:
 RMSU=  1.94D-06    CP:  9.89D-01  1.40D+00  9.54D-01  8.85D-01  1.24D+00
                    CP:  1.41D+00  1.31D+00  1.12D+00
 E= -1028.79019917182     Delta-E=       -0.000000571294 Rises=F Damp=F
 DIIS: error= 1.41D-05 at cycle   9 NSaved=   9.
 NSaved= 9 IEnMin= 9 EnMin= -1028.79019917182     IErMin= 9 ErrMin= 1.41D-05
 ErrMax= 1.41D-05  0.00D+00 EMaxC= 1.00D-01 BMatC= 3.70D-08 BMatP= 1.92D-07
 IDIUse=1 WtCom= 1.00D+00 WtEn= 0.00D+00
 Coeff-Com: -0.121D-02 0.244D-02 0.449D-02 0.536D-02-0.130D-01-0.698D-01
 Coeff-Com: -0.776D-02 0.330D+00 0.750D+00
 Coeff:     -0.121D-02 0.244D-02 0.449D-02 0.536D-02-0.130D-01-0.698D-01
 Coeff:     -0.776D-02 0.330D+00 0.750D+00
 Gap=     0.264 Goal=   None    Shift=    0.000
 RMSDP=1.63D-06 MaxDP=5.88D-05 DE=-5.71D-07 OVMax= 1.64D-04

 Cycle  10  Pass 1  IDiag  1:
 RMSU=  8.89D-07    CP:  9.89D-01  1.40D+00  9.54D-01  8.84D-01  1.25D+00
                    CP:  1.43D+00  1.36D+00  1.28D+00  1.10D+00
 E= -1028.79019926403     Delta-E=       -0.000000092214 Rises=F Damp=F
 DIIS: error= 6.98D-06 at cycle  10 NSaved=  10.
 NSaved=10 IEnMin=10 EnMin= -1028.79019926403     IErMin=10 ErrMin= 6.98D-06
 ErrMax= 6.98D-06  0.00D+00 EMaxC= 1.00D-01 BMatC= 7.65D-09 BMatP= 3.70D-08
 IDIUse=1 WtCom= 1.00D+00 WtEn= 0.00D+00
 Coeff-Com: -0.216D-03 0.394D-03 0.105D-02 0.236D-02 0.275D-02-0.197D-01
 Coeff-Com: -0.413D-01-0.444D-01 0.301D+00 0.798D+00
 Coeff:     -0.216D-03 0.394D-03 0.105D-02 0.236D-02 0.275D-02-0.197D-01
 Coeff:     -0.413D-01-0.444D-01 0.301D+00 0.798D+00
 Gap=     0.264 Goal=   None    Shift=    0.000
 RMSDP=8.63D-07 MaxDP=2.85D-05 DE=-9.22D-08 OVMax= 1.37D-04

 Cycle  11  Pass 1  IDiag  1:
 RMSU=  4.05D-07    CP:  9.89D-01  1.40D+00  9.54D-01  8.84D-01  1.25D+00
                    CP:  1.44D+00  1.39D+00  1.33D+00  1.34D+00  1.10D+00
 E= -1028.79019928908     Delta-E=       -0.000000025049 Rises=F Damp=F
 DIIS: error= 3.43D-06 at cycle  11 NSaved=  11.
 NSaved=11 IEnMin=11 EnMin= -1028.79019928908     IErMin=11 ErrMin= 3.43D-06
 ErrMax= 3.43D-06  0.00D+00 EMaxC= 1.00D-01 BMatC= 1.53D-09 BMatP= 7.65D-09
 IDIUse=1 WtCom= 1.00D+00 WtEn= 0.00D+00
 Coeff-Com:  0.155D-03-0.323D-03-0.499D-03-0.118D-03 0.332D-02 0.450D-02
 Coeff-Com: -0.780D-02-0.638D-01-0.547D-01 0.277D+00 0.842D+00
 Coeff:      0.155D-03-0.323D-03-0.499D-03-0.118D-03 0.332D-02 0.450D-02
 Coeff:     -0.780D-02-0.638D-01-0.547D-01 0.277D+00 0.842D+00
 Gap=     0.264 Goal=   None    Shift=    0.000
 RMSDP=3.76D-07 MaxDP=8.77D-06 DE=-2.50D-08 OVMax= 6.02D-05

 Cycle  12  Pass 1  IDiag  1:
 RMSU=  1.56D-07    CP:  9.89D-01  1.40D+00  9.54D-01  8.84D-01  1.25D+00
                    CP:  1.44D+00  1.40D+00  1.35D+00  1.44D+00  1.34D+00
                    CP:  1.15D+00
 E= -1028.79019929428     Delta-E=       -0.000000005203 Rises=F Damp=F
 DIIS: error= 8.64D-07 at cycle  12 NSaved=  12.
 NSaved=12 IEnMin=12 EnMin= -1028.79019929428     IErMin=12 ErrMin= 8.64D-07
 ErrMax= 8.64D-07  0.00D+00 EMaxC= 1.00D-01 BMatC= 2.64D-10 BMatP= 1.53D-09
 IDIUse=1 WtCom= 1.00D+00 WtEn= 0.00D+00
 Coeff-Com:  0.102D-03-0.199D-03-0.426D-03-0.600D-03 0.698D-03 0.584D-02
 Coeff-Com:  0.783D-02-0.108D-01-0.106D+00-0.914D-01 0.226D+00 0.969D+00
 Coeff:      0.102D-03-0.199D-03-0.426D-03-0.600D-03 0.698D-03 0.584D-02
 Coeff:      0.783D-02-0.108D-01-0.106D+00-0.914D-01 0.226D+00 0.969D+00
 Gap=     0.264 Goal=   None    Shift=    0.000
 RMSDP=2.28D-07 MaxDP=5.10D-06 DE=-5.20D-09 OVMax= 3.62D-05

 Cycle  13  Pass 1  IDiag  1:
 RMSU=  6.65D-08    CP:  9.89D-01  1.40D+00  9.54D-01  8.84D-01  1.25D+00
                    CP:  1.44D+00  1.40D+00  1.36D+00  1.49D+00  1.47D+00
                    CP:  1.44D+00  1.28D+00
 E= -1028.79019929559     Delta-E=       -0.000000001310 Rises=F Damp=F
 DIIS: error= 3.95D-07 at cycle  13 NSaved=  13.
 NSaved=13 IEnMin=13 EnMin= -1028.79019929559     IErMin=13 ErrMin= 3.95D-07
 ErrMax= 3.95D-07  0.00D+00 EMaxC= 1.00D-01 BMatC= 3.55D-11 BMatP= 2.64D-10
 IDIUse=1 WtCom= 1.00D+00 WtEn= 0.00D+00
 Coeff-Com:  0.888D-06 0.986D-06-0.311D-04-0.135D-03-0.225D-03 0.751D-03
 Coeff-Com:  0.370D-02 0.807D-02-0.197D-01-0.615D-01-0.891D-01 0.261D+00
 Coeff-Com:  0.897D+00
 Coeff:      0.888D-06 0.986D-06-0.311D-04-0.135D-03-0.225D-03 0.751D-03
 Coeff:      0.370D-02 0.807D-02-0.197D-01-0.615D-01-0.891D-01 0.261D+00
 Coeff:      0.897D+00
 Gap=     0.264 Goal=   None    Shift=    0.000
 RMSDP=6.75D-08 MaxDP=1.51D-06 DE=-1.31D-09 OVMax= 9.34D-06

 Cycle  14  Pass 1  IDiag  1:
 RMSU=  2.68D-08    CP:  9.89D-01  1.40D+00  9.54D-01  8.84D-01  1.25D+00
                    CP:  1.44D+00  1.40D+00  1.36D+00  1.51D+00  1.51D+00
                    CP:  1.51D+00  1.50D+00  1.18D+00
 E= -1028.79019929571     Delta-E=       -0.000000000117 Rises=F Damp=F
 DIIS: error= 1.26D-07 at cycle  14 NSaved=  14.
 NSaved=14 IEnMin=14 EnMin= -1028.79019929571     IErMin=14 ErrMin= 1.26D-07
 ErrMax= 1.26D-07  0.00D+00 EMaxC= 1.00D-01 BMatC= 5.15D-12 BMatP= 3.55D-11
 IDIUse=1 WtCom= 1.00D+00 WtEn= 0.00D+00
 Coeff-Com: -0.113D-04 0.231D-04 0.382D-04 0.192D-04-0.141D-03-0.406D-03
 Coeff-Com:  0.428D-03 0.379D-02 0.395D-02-0.956D-02-0.547D-01-0.820D-02
 Coeff-Com:  0.326D+00 0.739D+00
 Coeff:     -0.113D-04 0.231D-04 0.382D-04 0.192D-04-0.141D-03-0.406D-03
 Coeff:      0.428D-03 0.379D-02 0.395D-02-0.956D-02-0.547D-01-0.820D-02
 Coeff:      0.326D+00 0.739D+00
 Gap=     0.264 Goal=   None    Shift=    0.000
 RMSDP=1.62D-08 MaxDP=3.76D-07 DE=-1.17D-10 OVMax= 2.23D-06

 Cycle  15  Pass 1  IDiag  1:
 RMSU=  9.58D-09    CP:  9.89D-01  1.40D+00  9.54D-01  8.84D-01  1.25D+00
                    CP:  1.44D+00  1.40D+00  1.36D+00  1.51D+00  1.51D+00
                    CP:  1.52D+00  1.54D+00  1.31D+00  1.03D+00
 E= -1028.79019929572     Delta-E=       -0.000000000009 Rises=F Damp=F
 DIIS: error= 4.47D-08 at cycle  15 NSaved=  15.
 NSaved=15 IEnMin=15 EnMin= -1028.79019929572     IErMin=15 ErrMin= 4.47D-08
 ErrMax= 4.47D-08  0.00D+00 EMaxC= 1.00D-01 BMatC= 7.18D-13 BMatP= 5.15D-12
 IDIUse=1 WtCom= 1.00D+00 WtEn= 0.00D+00
 Coeff-Com: -0.314D-05 0.585D-05 0.169D-04 0.297D-04-0.517D-05-0.285D-03
 Coeff-Com: -0.626D-03-0.321D-03 0.507D-02 0.910D-02-0.889D-03-0.551D-01
 Coeff-Com: -0.778D-01 0.202D+00 0.919D+00
 Coeff:     -0.314D-05 0.585D-05 0.169D-04 0.297D-04-0.517D-05-0.285D-03
 Coeff:     -0.626D-03-0.321D-03 0.507D-02 0.910D-02-0.889D-03-0.551D-01
 Coeff:     -0.778D-01 0.202D+00 0.919D+00
 Gap=     0.264 Goal=   None    Shift=    0.000
 RMSDP=8.81D-09 MaxDP=2.00D-07 DE=-8.87D-12 OVMax= 9.80D-07

 Error on total polarization charges =  0.00799
 SCF Done:  E(RwB97XD) =  -1028.79019930     A.U. after   15 cycles
            NFock= 15  Conv=0.88D-08     -V/T= 2.0049
 KE= 1.023742742262D+03 PE=-4.611993679902D+03 EE= 1.459510975174D+03
 Leave Link  502 at Wed Oct 28 01:32:40 2020, MaxMem=  7784628224 cpu:             823.8 elap:              83.1
 (Enter /gpfs/loomis/apps/avx/software/Gaussian/16-C.01_AVX/g16/l601.exe)
 Copying SCF densities to generalized density rwf, IOpCl= 0 IROHF=0.

 **********************************************************************

            Population analysis using the SCF Density.

 **********************************************************************

 Alpha  occ. eigenvalues --  -89.08316 -19.28264 -14.46796 -10.39037 -10.38766
 Alpha  occ. eigenvalues --  -10.35251 -10.34299 -10.32753 -10.32719 -10.32455
 Alpha  occ. eigenvalues --  -10.32090 -10.31941 -10.31544 -10.31543 -10.31498
 Alpha  occ. eigenvalues --  -10.31201  -8.10465  -6.05286  -6.04950  -6.04537
 Alpha  occ. eigenvalues --   -1.20272  -1.07710  -0.96823  -0.95415  -0.92058
 Alpha  occ. eigenvalues --   -0.88546  -0.85649  -0.84383  -0.82209  -0.76361
 Alpha  occ. eigenvalues --   -0.72253  -0.70111  -0.70008  -0.67904  -0.64540
 Alpha  occ. eigenvalues --   -0.60213  -0.59374  -0.58427  -0.56064  -0.54628
 Alpha  occ. eigenvalues --   -0.53882  -0.53581  -0.52556  -0.50661  -0.50229
 Alpha  occ. eigenvalues --   -0.49100  -0.47486  -0.46102  -0.45645  -0.44809
 Alpha  occ. eigenvalues --   -0.43857  -0.43067  -0.41915  -0.39673  -0.37345
 Alpha  occ. eigenvalues --   -0.36318  -0.32027  -0.31515  -0.28296
 Alpha virt. eigenvalues --   -0.01886   0.05109   0.06562   0.06792   0.08277
 Alpha virt. eigenvalues --    0.11093   0.14354   0.15283   0.17334   0.17851
 Alpha virt. eigenvalues --    0.18625   0.21201   0.21419   0.22126   0.22433
 Alpha virt. eigenvalues --    0.23716   0.23794   0.23968   0.27965   0.30193
 Alpha virt. eigenvalues --    0.32158   0.33294   0.34547   0.35549   0.36967
 Alpha virt. eigenvalues --    0.37806   0.39026   0.40592   0.43224   0.44625
 Alpha virt. eigenvalues --    0.46324   0.49030   0.50131   0.51269   0.51384
 Alpha virt. eigenvalues --    0.52382   0.53525   0.54377   0.54817   0.55705
 Alpha virt. eigenvalues --    0.56045   0.56238   0.56929   0.57748   0.57895
 Alpha virt. eigenvalues --    0.58386   0.58879   0.58963   0.59412   0.60158
 Alpha virt. eigenvalues --    0.60848   0.61014   0.61423   0.62846   0.63322
 Alpha virt. eigenvalues --    0.65431   0.66095   0.66639   0.67615   0.69241
 Alpha virt. eigenvalues --    0.71089   0.71469   0.72366   0.72456   0.73119
 Alpha virt. eigenvalues --    0.73364   0.74135   0.75529   0.75864   0.78532
 Alpha virt. eigenvalues --    0.78670   0.79137   0.80199   0.81222   0.82186
 Alpha virt. eigenvalues --    0.86083   0.89675   0.91608   0.92870   0.94189
 Alpha virt. eigenvalues --    0.94923   0.95070   0.95410   0.96945   0.97301
 Alpha virt. eigenvalues --    0.97941   0.98514   1.00542   1.00909   1.02114
 Alpha virt. eigenvalues --    1.02518   1.05915   1.06509   1.07069   1.07779
 Alpha virt. eigenvalues --    1.07897   1.08399   1.10045   1.10063   1.10912
 Alpha virt. eigenvalues --    1.11788   1.12396   1.14217   1.14804   1.15813
 Alpha virt. eigenvalues --    1.16023   1.19638   1.20518   1.21311   1.22190
 Alpha virt. eigenvalues --    1.24865   1.30309   1.32058   1.34038   1.34934
 Alpha virt. eigenvalues --    1.36789   1.37321   1.39312   1.39984   1.46569
 Alpha virt. eigenvalues --    1.48460   1.48628   1.50514   1.51998   1.53058
 Alpha virt. eigenvalues --    1.54751   1.55939   1.56222   1.56387   1.56912
 Alpha virt. eigenvalues --    1.58058   1.59044   1.61673   1.65344   1.65993
 Alpha virt. eigenvalues --    1.66426   1.68486   1.68837   1.70050   1.70700
 Alpha virt. eigenvalues --    1.71659   1.72230   1.72259   1.73393   1.75136
 Alpha virt. eigenvalues --    1.75557   1.77281   1.79247   1.80463   1.81488
 Alpha virt. eigenvalues --    1.82509   1.82578   1.83971   1.84260   1.84491
 Alpha virt. eigenvalues --    1.85604   1.87656   1.88473   1.89270   1.91519
 Alpha virt. eigenvalues --    1.91658   1.92724   1.92926   1.94090   1.97002
 Alpha virt. eigenvalues --    1.99551   2.00215   2.01732   2.02356   2.03319
 Alpha virt. eigenvalues --    2.05051   2.07146   2.08077   2.11059   2.12312
 Alpha virt. eigenvalues --    2.17185   2.17928   2.19210   2.23264   2.23574
 Alpha virt. eigenvalues --    2.24885   2.28323   2.34710   2.36928   2.41339
 Alpha virt. eigenvalues --    2.41703   2.41925   2.44965   2.45748   2.46221
 Alpha virt. eigenvalues --    2.47419   2.48308   2.52597   2.54090   2.60868
 Alpha virt. eigenvalues --    2.62408   2.71090   2.73541   2.74911   2.77510
 Alpha virt. eigenvalues --    2.79786   2.82260   2.86266   2.88770   2.91843
 Alpha virt. eigenvalues --    2.99531   3.04030   3.10700   3.16470   3.29492
 Alpha virt. eigenvalues --    3.45328   3.52540   3.69837   4.08477
          Condensed to atoms (all electrons):
               1          2          3          4          5          6
     1  C    4.775186   0.449111   0.015572  -0.055016  -0.016070   0.516912
     2  C    0.449111   5.314662   0.339203  -0.024146  -0.067920  -0.005879
     3  C    0.015572   0.339203   4.782117   0.470568  -0.003492  -0.061304
     4  C   -0.055016  -0.024146   0.470568   4.806077   0.522295  -0.010746
     5  C   -0.016070  -0.067920  -0.003492   0.522295   4.751216   0.486410
     6  C    0.516912  -0.005879  -0.061304  -0.010746   0.486410   4.751677
     7  H    0.399507  -0.035515   0.007869  -0.000559   0.007642  -0.039575
     8  H   -0.001037   0.011903  -0.038653   0.395248  -0.042348   0.007791
     9  H    0.009079  -0.001002   0.008538  -0.038848   0.403898  -0.045596
    10  H   -0.042327   0.009121  -0.000482   0.007916  -0.041881   0.405449
    11  N    0.008530  -0.065752   0.505856  -0.041490   0.003148  -0.000279
    12  S   -0.075867   0.337983  -0.099258   0.007901   0.000244   0.004160
    13  C   -0.000206   0.003445   0.006019  -0.000462   0.000007   0.000006
    14  C   -0.000021   0.000089   0.000477   0.000008  -0.000000  -0.000000
    15  C    0.000009  -0.000035  -0.001267  -0.000001  -0.000000  -0.000000
    16  C    0.000000  -0.000013   0.000008  -0.000000   0.000000  -0.000000
    17  H   -0.000016   0.000294  -0.000017   0.000000   0.000000   0.000000
    18  C    0.000000   0.000009  -0.000031  -0.000000  -0.000000  -0.000000
    19  C   -0.000000   0.000000   0.000002   0.000000  -0.000000   0.000000
    20  H   -0.000000  -0.000000  -0.000000  -0.000000  -0.000000  -0.000000
    21  H   -0.000000  -0.000000   0.000000   0.000000  -0.000000   0.000000
    22  H    0.000000  -0.000000  -0.000000  -0.000000   0.000000  -0.000000
    23  C    0.005051  -0.055627  -0.128854  -0.001578   0.000302  -0.000220
    24  O    0.000001  -0.000025  -0.001596  -0.000022   0.000000  -0.000000
    25  H   -0.000059   0.001752  -0.002224  -0.000174  -0.000016   0.000007
               7          8          9         10         11         12
     1  C    0.399507  -0.001037   0.009079  -0.042327   0.008530  -0.075867
     2  C   -0.035515   0.011903  -0.001002   0.009121  -0.065752   0.337983
     3  C    0.007869  -0.038653   0.008538  -0.000482   0.505856  -0.099258
     4  C   -0.000559   0.395248  -0.038848   0.007916  -0.041490   0.007901
     5  C    0.007642  -0.042348   0.403898  -0.041881   0.003148   0.000244
     6  C   -0.039575   0.007791  -0.045596   0.405449  -0.000279   0.004160
     7  H    0.656924   0.000032  -0.000161  -0.010451  -0.000089  -0.007823
     8  H    0.000032   0.657186  -0.012605  -0.000099  -0.000964  -0.000114
     9  H   -0.000161  -0.012605   0.665084  -0.011658  -0.000077   0.000017
    10  H   -0.010451  -0.000099  -0.011658   0.660441   0.000000  -0.000181
    11  N   -0.000089  -0.000964  -0.000077   0.000000   6.493273  -0.077381
    12  S   -0.007823  -0.000114   0.000017  -0.000181  -0.077381  15.518435
    13  C   -0.000004   0.000026  -0.000000  -0.000000  -0.015761  -0.061395
    14  C    0.000002   0.000001   0.000000  -0.000000   0.003910  -0.017418
    15  C   -0.000000  -0.000019   0.000000   0.000000  -0.024726   0.006491
    16  C    0.000000   0.000000  -0.000000  -0.000000  -0.000056   0.000675
    17  H    0.000001   0.000000   0.000000  -0.000000   0.000208   0.009473
    18  C    0.000000  -0.000000   0.000000  -0.000000  -0.000569  -0.000256
    19  C   -0.000000   0.000000  -0.000000  -0.000000   0.000025   0.000024
    20  H    0.000000   0.000000   0.000000   0.000000   0.000001   0.000025
    21  H   -0.000000   0.000000  -0.000000   0.000000   0.000004   0.000004
    22  H    0.000000  -0.000000  -0.000000  -0.000000  -0.000000  -0.000000
    23  C    0.000154  -0.000864   0.000007   0.000005   0.538262   0.298090
    24  O   -0.000000  -0.000056   0.000000  -0.000000  -0.040960  -0.000086
    25  H    0.000001   0.000728  -0.000002   0.000000   0.070690   0.002949
              13         14         15         16         17         18
     1  C   -0.000206  -0.000021   0.000009   0.000000  -0.000016   0.000000
     2  C    0.003445   0.000089  -0.000035  -0.000013   0.000294   0.000009
     3  C    0.006019   0.000477  -0.001267   0.000008  -0.000017  -0.000031
     4  C   -0.000462   0.000008  -0.000001  -0.000000   0.000000  -0.000000
     5  C    0.000007  -0.000000  -0.000000   0.000000   0.000000  -0.000000
     6  C    0.000006  -0.000000  -0.000000  -0.000000   0.000000  -0.000000
     7  H   -0.000004   0.000002  -0.000000   0.000000   0.000001   0.000000
     8  H    0.000026   0.000001  -0.000019   0.000000   0.000000  -0.000000
     9  H   -0.000000   0.000000   0.000000  -0.000000   0.000000   0.000000
    10  H   -0.000000  -0.000000   0.000000  -0.000000  -0.000000  -0.000000
    11  N   -0.015761   0.003910  -0.024726  -0.000056   0.000208  -0.000569
    12  S   -0.061395  -0.017418   0.006491   0.000675   0.009473  -0.000256
    13  C    5.314563   0.487310   0.277641  -0.014104  -0.032236  -0.066690
    14  C    0.487310   4.831685  -0.018210   0.530837   0.398182  -0.052392
    15  C    0.277641  -0.018210   4.842144  -0.055552   0.006170   0.472987
    16  C   -0.014104   0.530837  -0.055552   4.731649  -0.032814  -0.018257
    17  H   -0.032236   0.398182   0.006170  -0.032814   0.643865  -0.000580
    18  C   -0.066690  -0.052392   0.472987  -0.018257  -0.000580   4.846980
    19  C   -0.050491  -0.022726  -0.010801   0.493699   0.007488   0.516046
    20  H    0.008485  -0.034478  -0.000250   0.401454  -0.011406   0.007789
    21  H    0.011814  -0.000460  -0.025246   0.006702   0.000037   0.381048
    22  H   -0.001246   0.009427   0.008708  -0.042053  -0.000155  -0.042052
    23  C    0.330600  -0.082322  -0.076926   0.006688  -0.023775   0.008161
    24  O   -0.096816   0.003908   0.528766  -0.000045  -0.000051  -0.051272
    25  H   -0.042739  -0.001325   0.002561   0.000015   0.000002   0.006681
              19         20         21         22         23         24
     1  C   -0.000000  -0.000000  -0.000000   0.000000   0.005051   0.000001
     2  C    0.000000  -0.000000  -0.000000  -0.000000  -0.055627  -0.000025
     3  C    0.000002  -0.000000   0.000000  -0.000000  -0.128854  -0.001596
     4  C    0.000000  -0.000000   0.000000  -0.000000  -0.001578  -0.000022
     5  C   -0.000000  -0.000000  -0.000000   0.000000   0.000302   0.000000
     6  C    0.000000  -0.000000   0.000000  -0.000000  -0.000220  -0.000000
     7  H   -0.000000   0.000000  -0.000000   0.000000   0.000154  -0.000000
     8  H    0.000000   0.000000   0.000000  -0.000000  -0.000864  -0.000056
     9  H   -0.000000   0.000000  -0.000000  -0.000000   0.000007   0.000000
    10  H   -0.000000   0.000000   0.000000  -0.000000   0.000005  -0.000000
    11  N    0.000025   0.000001   0.000004  -0.000000   0.538262  -0.040960
    12  S    0.000024   0.000025   0.000004  -0.000000   0.298090  -0.000086
    13  C   -0.050491   0.008485   0.011814  -0.001246   0.330600  -0.096816
    14  C   -0.022726  -0.034478  -0.000460   0.009427  -0.082322   0.003908
    15  C   -0.010801  -0.000250  -0.025246   0.008708  -0.076926   0.528766
    16  C    0.493699   0.401454   0.006702  -0.042053   0.006688  -0.000045
    17  H    0.007488  -0.011406   0.000037  -0.000155  -0.023775  -0.000051
    18  C    0.516046   0.007789   0.381048  -0.042052   0.008161  -0.051272
    19  C    4.730332  -0.044868  -0.041507   0.406012   0.001019   0.002218
    20  H   -0.044868   0.666791  -0.000115  -0.011244  -0.000356   0.000002
    21  H   -0.041507  -0.000115   0.647877  -0.011431  -0.000407   0.001706
    22  H    0.406012  -0.011244  -0.011431   0.653746  -0.000015  -0.000042
    23  C    0.001019  -0.000356  -0.000407  -0.000015   5.092882  -0.000855
    24  O    0.002218   0.000002   0.001706  -0.000042  -0.000855   7.304806
    25  H   -0.000043  -0.000001   0.000081   0.000006   0.002036   0.405519
              25
     1  C   -0.000059
     2  C    0.001752
     3  C   -0.002224
     4  C   -0.000174
     5  C   -0.000016
     6  C    0.000007
     7  H    0.000001
     8  H    0.000728
     9  H   -0.000002
    10  H    0.000000
    11  N    0.070690
    12  S    0.002949
    13  C   -0.042739
    14  C   -0.001325
    15  C    0.002561
    16  C    0.000015
    17  H    0.000002
    18  C    0.006681
    19  C   -0.000043
    20  H   -0.000001
    21  H    0.000081
    22  H    0.000006
    23  C    0.002036
    24  O    0.405519
    25  H    0.513788
 Mulliken charges:
               1
     1  C    0.011662
     2  C   -0.211658
     3  C    0.200948
     4  C   -0.036971
     5  C   -0.003433
     6  C   -0.008813
     7  H    0.022048
     8  H    0.023844
     9  H    0.023326
    10  H    0.024147
    11  N   -0.355801
    12  S    0.153311
    13  C   -0.057767
    14  C   -0.036482
    15  C    0.067558
    16  C   -0.008832
    17  H    0.035331
    18  C   -0.007602
    19  C    0.013571
    20  H    0.018171
    21  H    0.029894
    22  H    0.030339
    23  C    0.088543
    24  O   -0.055100
    25  H    0.039768
 Sum of Mulliken charges =  -0.00000
 Mulliken charges with hydrogens summed into heavy atoms:
               1
     1  C    0.033710
     2  C   -0.211658
     3  C    0.200948
     4  C   -0.013127
     5  C    0.019892
     6  C    0.015334
    11  N   -0.355801
    12  S    0.153311
    13  C   -0.057767
    14  C   -0.001151
    15  C    0.067558
    16  C    0.009339
    18  C    0.022292
    19  C    0.043909
    23  C    0.088543
    24  O   -0.015332
 Electronic spatial extent (au):  <R**2>=           4326.4419
 Charge=             -0.0000 electrons
 Dipole moment (field-independent basis, Debye):
    X=             -1.2060    Y=             -1.6932    Z=              0.0000  Tot=              2.0788
 Quadrupole moment (field-independent basis, Debye-Ang):
   XX=            -82.9681   YY=            -88.2298   ZZ=           -104.4612
   XY=             -7.2395   XZ=             -0.0001   YZ=             -0.0001
 Traceless Quadrupole moment (field-independent basis, Debye-Ang):
   XX=              8.9183   YY=              3.6566   ZZ=            -12.5748
   XY=             -7.2395   XZ=             -0.0001   YZ=             -0.0001
 Octapole moment (field-independent basis, Debye-Ang**2):
  XXX=             -0.7720  YYY=            -13.2276  ZZZ=              0.0001  XYY=             -9.6951
  XXY=              6.8626  XXZ=              0.0002  XZZ=              0.6998  YZZ=              4.8269
  YYZ=              0.0000  XYZ=             -0.0003
 Hexadecapole moment (field-independent basis, Debye-Ang**3):
 XXXX=          -2586.7194 YYYY=          -2580.2854 ZZZZ=           -113.7950 XXXY=            801.3712
 XXXZ=              0.0101 YYYX=            768.6669 YYYZ=             -0.0154 ZZZX=              0.0144
 ZZZY=             -0.0166 XXYY=           -835.4451 XXZZ=           -573.5274 YYZZ=           -545.4148
 XXYZ=             -0.0045 YYXZ=              0.0033 ZZXY=            359.4605
 N-N= 1.099949763170D+03 E-N=-4.611993685277D+03  KE= 1.023742742262D+03
 No NMR shielding tensors so no spin-rotation constants.
 Leave Link  601 at Wed Oct 28 01:32:40 2020, MaxMem=  7784628224 cpu:               1.2 elap:               0.2
 (Enter /gpfs/loomis/apps/avx/software/Gaussian/16-C.01_AVX/g16/l701.exe)
 ... and contract with generalized density number  0.
 Compute integral first derivatives.
 R6Disp: Adding Grimme-D2 dispersion energy 1st derivatives to the gradient.
 D1PCM: PCM CHGder 1st derivatives, ID1Alg=3 FixD1E=F DoIter=F DoCFld=F I1PDM=0.
 GePol: Maximum number of non-zero 1st derivatives   =     242
 Leave Link  701 at Wed Oct 28 01:32:42 2020, MaxMem=  7784628224 cpu:              13.8 elap:               1.4
 (Enter /gpfs/loomis/apps/avx/software/Gaussian/16-C.01_AVX/g16/l702.exe)
 L702 exits ... SP integral derivatives will be done elsewhere.
 Leave Link  702 at Wed Oct 28 01:32:42 2020, MaxMem=  7784628224 cpu:               0.2 elap:               0.0
 (Enter /gpfs/loomis/apps/avx/software/Gaussian/16-C.01_AVX/g16/l703.exe)
 Integral derivatives from FoFJK, PRISM(SPDF).
 Compute integral first derivatives, UseDBF=F ICtDFT=           0.
 Calling FoFJK, ICntrl=      2127 FMM=F ISym2X=0 I1Cent= 0 IOpClX= 0 NMat=1 NMatS=1 NMatT=0.
 FoFJK:  IHMeth= 1 ICntrl=    2127 DoSepK=T KAlg= 0 I1Cent=           0 FoldK=F
 IRaf=         1 NMat=       1 IRICut=       1 DoRegI=T DoRafI=F ISym2E= 0 IDoP0=0 IntGTp=1.
 FoFCou: FMM=F IPFlag=           0 FMFlag=      100000 FMFlg1=         800
         NFxFlg=           0 DoJE=F BraDBF=F KetDBF=F FulRan=T
         wScrn=  0.000000 ICntrl=      2527 IOpCl=  0 I1Cent=           0 NGrid=           0
         NMat0=    1 NMatS0=      1 NMatT0=    0 NMatD0=    1 NMtDS0=    0 NMtDT0=    0
 Symmetry not used in FoFCou.
 Leave Link  703 at Wed Oct 28 01:32:56 2020, MaxMem=  7784628224 cpu:             136.8 elap:              13.8
 (Enter /gpfs/loomis/apps/avx/software/Gaussian/16-C.01_AVX/g16/l716.exe)
 Dipole        =-4.74481630D-01-6.66160660D-01 6.96245782D-07
 -------------------------------------------------------------------
 Center     Atomic                   Forces (Hartrees/Bohr)
 Number     Number              X              Y              Z
 -------------------------------------------------------------------
      1        6           0.008691204   -0.004025343   -0.000000058
      2        6           0.011939249   -0.000089581   -0.000000256
      3        6           0.014411104   -0.046208914   -0.000000942
      4        6          -0.016563810    0.003812723    0.000000119
      5        6          -0.002264448    0.002065883    0.000000129
      6        6          -0.003664353    0.009947487   -0.000000225
      7        1           0.005366357    0.005053413   -0.000000054
      8        1          -0.005274713   -0.005538473    0.000000073
      9        1          -0.005296320    0.001547911    0.000000003
     10        1          -0.001695462    0.005029026   -0.000000029
     11        7          -0.050399394   -0.000297446    0.000001386
     12       16           0.008835684   -0.002471454    0.000000038
     13        6          -0.041218051    0.056381127    0.000000888
     14        6           0.014668393    0.012167768   -0.000001826
     15        6          -0.014860561   -0.045846843   -0.000000668
     16        6           0.001012901    0.012776961    0.000000123
     17        1          -0.000897348    0.006785424   -0.000000051
     18        6          -0.002844557   -0.004094803    0.000001267
     19        6           0.013583684   -0.013452624    0.000000392
     20        1           0.004291759    0.001360198    0.000000054
     21        1          -0.001254993   -0.006991578   -0.000000416
     22        1           0.003883236   -0.002527686    0.000000036
     23        6           0.059899911   -0.023233594    0.000000378
     24        8          -0.101448787    0.181415881    0.000005795
     25        1           0.101099314   -0.143565463   -0.000006155
 -------------------------------------------------------------------
 Cartesian Forces:  Max     0.181415881 RMS     0.035062729
 Leave Link  716 at Wed Oct 28 01:32:56 2020, MaxMem=  7784628224 cpu:               0.3 elap:               0.1
 (Enter /gpfs/loomis/apps/avx/software/Gaussian/16-C.01_AVX/g16/l103.exe)

 GradGradGradGradGradGradGradGradGradGradGradGradGradGradGradGradGradGrad
 Berny optimization.
 FormGI is forming the generalized inverse of G from B-inverse, IUseBI=4.
 Internal  Forces:  Max     0.183618083 RMS     0.018505569
 Search for a local minimum.
 Step number   1 out of a maximum of  143
 All quantities printed in internal units (Hartrees-Bohrs-Radians)
 RMS Force = .18646D-01 SwitMx=.10000D-02 MixMth= 1
 Mixed Optimization -- RFO/linear search
 Second derivative matrix not updated -- first step.
 ITU=  0
     Eigenvalues ---    0.01479   0.01499   0.01685   0.01725   0.01772
     Eigenvalues ---    0.01814   0.01819   0.01847   0.01879   0.01893
     Eigenvalues ---    0.01907   0.01942   0.01950   0.01954   0.01960
     Eigenvalues ---    0.02000   0.02014   0.02051   0.02062   0.02116
     Eigenvalues ---    0.02122   0.02765   0.16000   0.16000   0.16000
     Eigenvalues ---    0.16000   0.16000   0.16000   0.16000   0.16003
     Eigenvalues ---    0.16230   0.22000   0.22023   0.22535   0.22587
     Eigenvalues ---    0.24480   0.24548   0.25000   0.25000   0.25000
     Eigenvalues ---    0.29568   0.31553   0.33443   0.33503   0.33586
     Eigenvalues ---    0.33670   0.33718   0.33912   0.33972   0.34025
     Eigenvalues ---    0.34173   0.36304   0.38016   0.38959   0.40317
     Eigenvalues ---    0.41596   0.42106   0.43028   0.43539   0.45339
     Eigenvalues ---    0.45478   0.45770   0.46573   0.49015   0.51359
     Eigenvalues ---    0.62042   0.827081000.000001000.000001000.00000
     Eigenvalues --- 1000.000001000.000001000.000001000.000001000.00000
     Eigenvalues --- 1000.000001000.000001000.000001000.000001000.00000
     Eigenvalues --- 1000.000001000.000001000.000001000.000001000.00000
     Eigenvalues --- 1000.000001000.000001000.000001000.000001000.00000
     Eigenvalues --- 1000.000001000.000001000.000001000.000001000.00000
     Eigenvalues --- 1000.000001000.000001000.000001000.000001000.00000
     Eigenvalues --- 1000.000001000.000001000.000001000.000001000.00000
     Eigenvalues --- 1000.000001000.000001000.000001000.000001000.00000
     Eigenvalues --- 1000.000001000.000001000.000001000.000001000.00000
     Eigenvalues --- 1000.000001000.000001000.000001000.000001000.00000
     Eigenvalues --- 1000.000001000.000001000.000001000.000001000.00000
     Eigenvalues --- 1000.000001000.000001000.000001000.000001000.00000
     Eigenvalues --- 1000.000001000.000001000.00000
 RFO step:  Lambda=-6.17437469D-02 EMin= 1.47859247D-02
 Linear search not attempted -- first point.
 Maximum step size (   0.300) exceeded in Quadratic search.
    -- Step size scaled by   0.969
 Iteration  1 RMS(Cart)=  0.03070841 RMS(Int)=  0.00043109
 Iteration  2 RMS(Cart)=  0.00074429 RMS(Int)=  0.00004722
 Iteration  3 RMS(Cart)=  0.00000032 RMS(Int)=  0.00004721
 Iteration  1 RMS(Cart)=  0.00000001 RMS(Int)=  0.00000000
 ITry= 1 IFail=0 DXMaxC= 1.59D-01 DCOld= 1.00D+10 DXMaxT= 3.00D-01 DXLimC= 3.00D+00 Rises=F
 Variable       Old X    -DE/DX   Delta X   Delta X   Delta X     New X
                                 (Linear)    (Quad)   (Total)
    R1        2.64162  -0.00531   0.00000  -0.01252  -0.01251   2.62911
    R2        2.64175  -0.01233   0.00000  -0.02536  -0.02539   2.61637
    R3        2.08177  -0.00730   0.00000  -0.01788  -0.01788   2.06390
    R4        2.71868  -0.02526   0.00000  -0.05292  -0.05279   2.66589
    R5        3.26978   0.00009   0.00000  -0.00227  -0.00231   3.26747
    R6        2.72165  -0.02477   0.00000  -0.04993  -0.04990   2.67175
    R7        2.56573   0.02146   0.00000   0.04072   0.04080   2.60653
    R8        2.64679  -0.01126   0.00000  -0.01714  -0.01716   2.62964
    R9        2.08280  -0.00761   0.00000  -0.01856  -0.01856   2.06425
   R10        2.67996  -0.01158   0.00000  -0.02364  -0.02367   2.65629
   R11        2.07809  -0.00547   0.00000  -0.01330  -0.01330   2.06479
   R12        2.07479  -0.00525   0.00000  -0.01262  -0.01262   2.06218
   R13        2.58188  -0.04386   0.00000  -0.07191  -0.07193   2.50995
   R14        3.29581   0.00315   0.00000  -0.01223  -0.01227   3.28354
   R15        2.70435  -0.01906   0.00000  -0.04440  -0.04435   2.66000
   R16        2.75824  -0.01941   0.00000  -0.06447  -0.06436   2.69387
   R17        2.64086   0.04807   0.00000   0.08007   0.08013   2.72098
   R18        2.62449  -0.00901   0.00000  -0.01528  -0.01528   2.60921
   R19        2.07890  -0.00633   0.00000  -0.01531  -0.01531   2.06360
   R20        2.66946  -0.01023   0.00000  -0.01521  -0.01525   2.65421
   R21        2.49223   0.00523   0.00000   0.00455   0.00458   2.49681
   R22        2.69446  -0.02628   0.00000  -0.05263  -0.05264   2.64182
   R23        2.07288  -0.00441   0.00000  -0.01047  -0.01047   2.06240
   R24        2.66400  -0.01947   0.00000  -0.03132  -0.03137   2.63263
   R25        2.08034  -0.00713   0.00000  -0.01744  -0.01744   2.06291
   R26        2.07377  -0.00449   0.00000  -0.01070  -0.01070   2.06307
   R27        1.61620   0.18362   0.00000   0.20038   0.20031   1.81651
    A1        2.06372  -0.00336   0.00000  -0.00755  -0.00756   2.05615
    A2        2.09764   0.00235   0.00000   0.00566   0.00567   2.10330
    A3        2.12183   0.00100   0.00000   0.00189   0.00190   2.12373
    A4        2.17347  -0.00072   0.00000   0.00216   0.00218   2.17565
    A5        2.17212   0.01254   0.00000   0.02325   0.02320   2.19532
    A6        1.93759  -0.01182   0.00000  -0.02542  -0.02538   1.91221
    A7        2.02055   0.00563   0.00000   0.00938   0.00939   2.02994
    A8        1.99082   0.00215   0.00000   0.00121   0.00137   1.99219
    A9        2.27181  -0.00778   0.00000  -0.01060  -0.01076   2.26105
   A10        2.08358   0.00039   0.00000   0.00078   0.00083   2.08441
   A11        2.09364  -0.00054   0.00000  -0.00097  -0.00100   2.09264
   A12        2.10597   0.00015   0.00000   0.00019   0.00017   2.10614
   A13        2.14256  -0.00248   0.00000  -0.00594  -0.00596   2.13660
   A14        2.07098   0.00069   0.00000   0.00129   0.00130   2.07228
   A15        2.06965   0.00178   0.00000   0.00465   0.00466   2.07430
   A16        2.08249   0.00053   0.00000   0.00117   0.00112   2.08362
   A17        2.10083  -0.00009   0.00000  -0.00047  -0.00044   2.10038
   A18        2.09986  -0.00044   0.00000  -0.00070  -0.00068   2.09919
   A19        1.93180   0.00979   0.00000   0.02425   0.02434   1.95614
   A20        1.54690   0.00968   0.00000   0.02812   0.02794   1.57484
   A21        2.08023  -0.00419   0.00000   0.00094   0.00091   2.08114
   A22        2.13570  -0.01221   0.00000  -0.02449  -0.02463   2.11107
   A23        2.06726   0.01640   0.00000   0.02355   0.02372   2.09098
   A24        2.09548   0.00747   0.00000   0.02005   0.02012   2.11559
   A25        2.08438  -0.00142   0.00000  -0.00066  -0.00069   2.08369
   A26        2.10333  -0.00605   0.00000  -0.01939  -0.01943   2.08390
   A27        2.08908  -0.00344   0.00000  -0.01309  -0.01312   2.07597
   A28        2.01919   0.02874   0.00000   0.05109   0.05125   2.07044
   A29        2.17491  -0.02531   0.00000  -0.03801  -0.03813   2.13678
   A30        2.10420  -0.00502   0.00000  -0.02071  -0.02068   2.08352
   A31        2.09320   0.00243   0.00000   0.00953   0.00952   2.10272
   A32        2.08578   0.00258   0.00000   0.01118   0.01117   2.09695
   A33        2.08611   0.00492   0.00000   0.01219   0.01218   2.09829
   A34        2.08234  -0.00264   0.00000  -0.00608  -0.00607   2.07626
   A35        2.11473  -0.00228   0.00000  -0.00611  -0.00611   2.10863
   A36        2.11126   0.00026   0.00000   0.00061   0.00060   2.11186
   A37        2.08357   0.00032   0.00000   0.00055   0.00055   2.08412
   A38        2.08836  -0.00058   0.00000  -0.00116  -0.00115   2.08721
   A39        2.01767  -0.00980   0.00000  -0.02817  -0.02828   1.98939
   A40        2.22640  -0.00196   0.00000  -0.00218  -0.00204   2.22436
   A41        2.03912   0.01176   0.00000   0.03035   0.03032   2.06944
   A42        2.00007  -0.01334   0.00000  -0.07551  -0.07547   1.92460
    D1       -0.00000   0.00000   0.00000   0.00000   0.00000  -0.00000
    D2        3.14159   0.00000   0.00000   0.00000   0.00000   3.14159
    D3        3.14159   0.00000   0.00000  -0.00000  -0.00000   3.14159
    D4       -0.00000   0.00000   0.00000   0.00000   0.00000  -0.00000
    D5       -0.00000   0.00000   0.00000   0.00000   0.00000  -0.00000
    D6        3.14159  -0.00000   0.00000  -0.00000  -0.00000   3.14159
    D7        3.14159   0.00000   0.00000   0.00000   0.00000   3.14159
    D8       -0.00000  -0.00000   0.00000  -0.00000  -0.00000  -0.00000
    D9        0.00000  -0.00000   0.00000  -0.00000  -0.00000   0.00000
   D10       -3.14159   0.00000   0.00000   0.00000   0.00000  -3.14159
   D11       -3.14159  -0.00000   0.00000  -0.00000  -0.00000  -3.14159
   D12        0.00000   0.00000   0.00000   0.00000   0.00000   0.00000
   D13        3.14159   0.00000   0.00000   0.00000   0.00000   3.14159
   D14       -0.00001   0.00000   0.00000   0.00000   0.00000  -0.00001
   D15       -0.00000   0.00000   0.00000   0.00000   0.00000  -0.00000
   D16        3.14159   0.00000   0.00000   0.00000   0.00000   3.14159
   D17        3.14159  -0.00000   0.00000  -0.00000  -0.00000   3.14159
   D18        0.00000  -0.00000   0.00000  -0.00000  -0.00000  -0.00000
   D19        0.00001  -0.00000   0.00000  -0.00000  -0.00000   0.00000
   D20       -3.14159  -0.00000   0.00000  -0.00000  -0.00000  -3.14159
   D21        0.00000   0.00000   0.00000   0.00000   0.00000   0.00000
   D22       -3.14159   0.00000   0.00000   0.00000   0.00000  -3.14159
   D23        3.14159  -0.00000   0.00000  -0.00000  -0.00000   3.14159
   D24        0.00000  -0.00000   0.00000  -0.00000  -0.00000   0.00000
   D25        0.00000  -0.00000   0.00000  -0.00000  -0.00000   0.00000
   D26       -3.14159   0.00000   0.00000   0.00000   0.00000  -3.14159
   D27       -3.14159  -0.00000   0.00000  -0.00000  -0.00000  -3.14159
   D28        0.00000   0.00000   0.00000   0.00000   0.00000   0.00000
   D29       -0.00001   0.00000   0.00000   0.00000   0.00000  -0.00001
   D30        3.14156   0.00000   0.00000   0.00001   0.00001   3.14157
   D31        0.00001  -0.00000   0.00000  -0.00000  -0.00000   0.00001
   D32       -3.14156  -0.00000   0.00000  -0.00001  -0.00001  -3.14157
   D33        0.00003  -0.00000   0.00000  -0.00001  -0.00001   0.00002
   D34       -3.14157  -0.00000   0.00000  -0.00000  -0.00000  -3.14158
   D35       -3.14156  -0.00000   0.00000  -0.00000  -0.00000  -3.14157
   D36        0.00002   0.00000   0.00000   0.00000   0.00000   0.00002
   D37       -0.00004   0.00000   0.00000   0.00000   0.00000  -0.00003
   D38        3.14155   0.00000   0.00000   0.00001   0.00001   3.14156
   D39        3.14156   0.00000   0.00000   0.00000   0.00000   3.14156
   D40       -0.00004   0.00000   0.00000   0.00001   0.00001  -0.00003
   D41       -3.14158  -0.00000   0.00000  -0.00000  -0.00000  -3.14158
   D42       -0.00001   0.00000   0.00000   0.00001   0.00001  -0.00001
   D43        0.00001   0.00000   0.00000   0.00000   0.00000   0.00001
   D44        3.14158   0.00000   0.00000   0.00001   0.00001   3.14159
   D45       -0.00001   0.00000   0.00000   0.00000   0.00000  -0.00000
   D46        3.14158   0.00000   0.00000   0.00000   0.00000   3.14159
   D47       -3.14159  -0.00000   0.00000  -0.00000  -0.00000  -3.14159
   D48        0.00000  -0.00000   0.00000  -0.00000  -0.00000   0.00000
   D49        0.00002  -0.00000   0.00000  -0.00000  -0.00000   0.00002
   D50       -3.14159   0.00000   0.00000   0.00000   0.00000  -3.14159
[...]
 0.00000105,0.77233581,-0.00033574,0.00094135,0.00000002,0.00088993,-0.
 00038176,-0.00000019,0.00005765,0.00097418,0.00000004,-0.00059146,0.00
 017581,0.00000002,-0.00018756,-0.00092043,-0.00000002,0.00102180,-0.00
 018154,0.,-0.00007495,-0.00006084,0.,0.00005600,0.00003895,0.,0.000092
 59,-0.00005086,0.,0.00006828,-0.00004292,0.,0.00500354,0.00307578,0.00
 000017,-0.00208006,-0.00182041,0.00000016,0.05703559,0.04687585,-0.000
 00118,0.08910740,-0.23861360,0.00000911,0.03315341,-0.06947955,0.00000
 443,0.01167080,0.68673294,0.00000006,-0.00000007,0.00012193,-0.0000000
 9,0.,0.00073198,-0.00000010,0.00000004,-0.00062553,0.00000007,-0.00000
 002,-0.00019474,0.,0.00000009,0.00006853,-0.00000009,-0.00000001,-0.00
 004121,0.,0.,0.00001220,0.,0.,0.00002860,0.,0.,0.00002225,0.,0.,-0.000
 04858,-0.00000014,-0.00000018,0.00014511,0.00000003,0.00000032,-0.0012
 6453,-0.00000313,-0.00000179,0.00810266,-0.00000825,0.00001115,-0.0625
 5572,-0.00000173,0.00000365,-0.00490607,0.00000619,-0.00003390,0.12752
 816,0.00039696,-0.00003728,0.,-0.00095495,0.00044021,-0.00000024,0.000
 18854,0.00004840,0.00000002,0.00009871,0.00001473,0.00000002,0.0000750
 1,0.00011621,0.,-0.00013729,-0.00012930,0.00000001,-0.00002219,-0.0000
 1848,0.,0.00004684,0.00000126,0.,0.00001685,-0.00000291,0.,0.00003955,
 -0.00001786,0.,0.00064307,0.00050562,0.,-0.00269629,0.00256096,0.00000
 008,-0.00106325,-0.02727944,0.00000124,-0.07353365,-0.06561135,0.00000
 278,-0.00515433,0.00074345,-0.00000009,0.00964773,0.02337393,-0.000000
 99,0.07491183,0.00005399,0.00007564,0.,0.00020166,0.00094710,0.0000000
 9,0.00052106,-0.00050531,-0.00000001,0.00003411,0.00018106,0.,0.000014
 89,0.00003619,0.,-0.00005348,-0.00002849,0.,-0.00003115,-0.00000065,0.
 ,0.00005397,-0.00000500,0.,0.00000175,0.00000339,0.,0.00001928,-0.0000
 0315,0.,-0.00078407,0.00028934,0.,0.00289198,-0.00199116,-0.00000017,0
 .00070953,-0.00538858,0.00000036,-0.06444890,-0.32739228,0.00001316,-0
 .00082374,0.00204920,0.00000029,-0.00867680,-0.01547896,0.00000081,0.0
 6567599,0.34962680,-0.00000005,0.,-0.00002741,0.00000005,-0.00000004,-
 0.00095223,0.00000004,-0.00000003,0.00018261,-0.00000003,0.,0.00011028
 ,0.,-0.00000002,-0.00003642,0.00000002,0.00000003,0.00004117,0.,0.,-0.
 00001977,0.,0.,-0.00003475,0.,0.,-0.00000223,0.,0.,0.00003390,-0.00000
 017,-0.00000006,0.00007368,-0.00000006,-0.00000015,0.00212395,-0.00000
 092,-0.00000021,0.00265047,0.00000383,0.00001273,-0.03746462,-0.000000
 10,0.00000050,0.00615119,0.,0.00000194,0.00535222,-0.00000250,-0.00001
 447,0.02395727,0.00015573,0.00035315,-0.00000004,0.00030934,0.00012131
 ,-0.00000016,0.00131209,0.00003361,0.00000002,-0.00038654,0.00000350,0
 .00000002,-0.00008343,-0.00040290,-0.00000001,0.00034210,-0.00009113,0
 .,-0.00004174,0.00001106,0.,0.00007135,-0.00000378,0.,0.00003517,-0.00
 001898,0.,0.00002741,-0.00000722,0.00000001,0.00107420,0.00486038,0.00
 000058,-0.00044947,0.00010749,0.00000016,0.05312762,0.04509635,-0.0000
 0251,-0.06857088,0.01845777,-0.00000202,-0.20335962,0.05625508,-0.0000
 0750,0.01026224,-0.08915729,0.00000463,-0.00091834,0.00034872,0.000000
 47,0.70330793,0.00047186,-0.00033370,-0.00000004,-0.00102921,-0.000055
 22,0.,-0.00011595,0.00018389,-0.00000004,0.00042839,-0.00010560,0.,0.0
 0012466,0.00049851,0.,-0.00048648,-0.00009154,0.,-0.00000133,0.0000298
 9,0.,0.00001101,-0.00001234,0.,-0.00001730,0.00001754,0.,0.00001210,0.
 00000082,0.,-0.00057246,-0.00017829,0.00000002,0.00161737,-0.00041013,
 -0.00000008,0.00921346,-0.03424232,0.00000226,0.01474744,-0.00607925,0
 .00000057,0.12220482,-0.23370226,0.00001300,-0.03722063,0.00288397,-0.
 00000006,0.00013147,0.00059580,-0.00000028,0.04434287,0.74011227,-0.00
 000008,0.00000010,-0.00012929,0.00000021,-0.00000004,-0.00010032,0.000
 00007,0.00000005,-0.00081546,-0.00000009,0.00000003,-0.00000356,-0.000
 00003,-0.00000011,0.00003411,0.00000012,0.,0.00002841,0.,0.,-0.0000319
 7,0.,0.,-0.00002273,0.,0.,-0.00000156,0.,0.,0.00002859,0.00000006,0.00
 000010,0.00128620,-0.00000021,0.00000015,-0.00030132,0.00000011,0.0000
 0156,0.00858538,-0.00000178,0.00000070,-0.00324296,-0.00001021,0.00001
 287,-0.07082495,0.00000192,-0.00000100,0.00778937,0.00000002,-0.000000
 10,-0.00087677,0.00001425,-0.00003128,0.12746516,0.00031464,-0.0007193
 6,-0.00000002,-0.00108984,0.00034649,0.00000014,-0.00061020,0.00007349
 ,-0.00000001,0.00072077,-0.00015079,-0.00000002,0.00013561,0.00087025,
 0.00000002,-0.00085231,0.00002705,0.,0.00004619,0.00004246,0.,-0.00004
 169,-0.00003383,0.,-0.00006631,0.00004333,0.,-0.00004282,0.00002826,0.
 ,-0.00209927,-0.00201330,-0.00000018,0.00141992,0.00055901,-0.00000013
 ,-0.03531870,-0.02401075,0.00000064,0.05838770,0.00895322,0.00000045,-
 0.05845546,0.05002247,-0.00000403,-0.14065073,-0.01235954,0.00000046,-
 0.00320980,0.00410352,-0.00000063,-0.34541444,-0.10531309,-0.00000039,
 0.72636769,0.00006924,-0.00023028,0.00000002,-0.00019813,0.00021303,0.
 00000011,0.00012585,-0.00100050,0.,0.00002108,0.00013034,0.,0.00007343
 ,0.00016465,0.,-0.00024719,0.00012496,0.,0.00002147,0.00001022,0.,-0.0
 0001258,-0.00000874,0.,-0.00003346,0.00002068,0.,-0.00001137,0.0000111
 0,0.,-0.00361971,-0.00143013,-0.00000019,0.00104893,0.00020856,-0.0000
 0015,-0.04115950,-0.03289213,0.00000161,0.06574293,-0.05202426,0.00000
 440,-0.00538946,0.07064213,-0.00000370,-0.08684093,-0.32935119,0.00001
 678,0.00335602,-0.00120252,0.00000011,-0.03282218,-0.15440245,0.000003
 46,-0.03195145,0.71454814,0.00000001,-0.00000001,0.00001512,-0.0000000
 3,-0.00000003,-0.00001974,-0.00000004,0.00000010,0.00020471,0.00000003
 ,-0.00000002,0.00001428,0.,0.00000002,-0.00001675,-0.00000001,-0.00000
 001,0.00000313,0.,0.,-0.00000086,0.,0.,0.00001381,0.,0.,-0.00000266,0.
 ,0.,-0.00000807,0.00000021,0.00000006,-0.00019927,-0.00000002,0.000000
 01,0.00003749,0.00000183,0.00000115,-0.00426220,-0.00000269,0.00000336
 ,0.00748628,-0.00000144,-0.00000278,-0.00016361,0.00000448,0.00001780,
 -0.06415793,-0.00000026,0.00000043,0.00749210,-0.00000296,0.00000294,-
 0.05963300,0.00001203,-0.00003614,0.14369206,0.00000760,-0.00007835,0.
 ,-0.00005126,0.00014002,0.,-0.00006858,-0.00005646,0.,0.00006848,0.000
 02601,0.,-0.00000758,0.00007626,0.,-0.00008357,0.00001379,0.,0.0000055
 5,0.00000830,0.,-0.00000168,-0.00000688,0.,-0.00001039,0.00000898,0.,-
 0.00000958,0.00000692,0.,-0.00039534,0.00035024,0.00000003,0.00005578,
 0.00002496,0.,-0.00081449,0.00398343,-0.00000025,-0.01591252,-0.010306
 28,0.00000044,0.00039746,0.00046221,0.,-0.32322213,-0.08305881,0.00000
 124,0.00072128,0.00001690,0.00000005,0.00164360,-0.00096911,0.,-0.0022
 0219,0.00217345,-0.00000023,0.33989593,0.00000402,0.00001286,0.,0.0000
 1222,-0.00006587,0.,0.00006396,0.00006287,-0.00000001,-0.00000868,-0.0
 0004042,0.,0.00000929,-0.00000557,0.,0.00001040,-0.00000682,0.,0.00000
 073,-0.00000260,0.,-0.00000048,0.00000116,0.,0.00000224,-0.00000390,0.
 ,0.00000163,-0.00000087,0.,0.00030293,-0.00025511,-0.00000002,0.000007
 58,0.00005816,0.,0.00282396,-0.00260336,0.00000051,0.02199393,0.009594
 41,-0.00000021,0.00070563,-0.00144223,0.00000006,-0.08397553,-0.084205
 55,0.00000223,-0.00020133,0.00092701,-0.00000029,-0.00008539,-0.005268
 42,0.00000075,-0.02974612,-0.00318430,-0.00000008,0.08861435,0.0845879
 4,0.,0.,0.00000161,0.,0.00000001,-0.00000865,0.,-0.00000002,-0.0001793
 0,0.,0.,-0.00000691,0.,0.,0.00001717,0.,0.,-0.00000604,0.,0.,0.0000025
 4,0.,0.,-0.00000683,0.,0.,0.00000217,0.,0.,0.00000362,-0.00000003,0.00
 000003,-0.00013882,0.,-0.00000004,0.00004992,-0.00000025,0.00000040,0.
 00742224,-0.00000119,-0.00000063,0.00178290,-0.00000007,0.00000017,-0.
 00064062,0.00000106,0.00000214,-0.03375947,0.00000002,-0.00000024,-0.0
 0453764,-0.00000022,0.00000076,0.00630218,0.00000192,0.00000041,0.0017
 1248,-0.00000130,-0.00000260,0.02514661,-0.00005361,-0.00001740,0.,0.0
 0005249,0.00010827,0.,-0.00006857,-0.00001375,0.,0.00000095,0.00000710
 ,0.,-0.00000917,-0.00000230,0.,0.00000217,0.00001478,0.,0.00000247,-0.
 00000343,0.,-0.00000615,0.00000057,0.,-0.00000129,0.00000067,0.,-0.000
 00542,0.00000062,0.,0.00015875,-0.00025901,-0.00000002,-0.00026255,0.0
 0015993,0.00000002,-0.00324022,0.00283967,-0.00000035,-0.00145777,0.00
 032229,-0.00000003,0.00912406,0.02320134,-0.00000110,-0.00502697,-0.00
 084340,-0.00000026,0.00010325,-0.00005226,0.00000003,-0.07162432,-0.06
 271303,0.00000180,-0.00110523,-0.02942888,0.00000134,-0.00022775,-0.00
 140882,0.00000012,0.06997303,0.00002865,0.00008251,0.,-0.00002697,-0.0
 0012665,0.,0.00009253,0.00003254,0.,-0.00005797,-0.00000449,0.,0.00000
 600,-0.00006763,0.,0.00006811,-0.00002059,0.,-0.00000597,-0.00000209,0
 .,0.00000798,0.00000486,0.,0.00000964,-0.00000569,0.,0.00001093,-0.000
 00543,0.,0.00016294,0.00021803,0.,0.00014836,-0.00022705,-0.00000001,0
 .00376536,-0.00142956,0.00000038,0.00076478,0.00057766,-0.00000008,-0.
 01008813,-0.01592438,0.00000065,-0.00137353,0.00181537,0.00000024,-0.0
 0003469,-0.00009145,-0.00000004,-0.06177019,-0.33345634,0.00001301,0.0
 0169794,-0.00385696,0.00000035,0.00005908,-0.00027317,0.00000003,0.068
 11700,0.35076470,0.,0.,0.00001123,0.,0.00000005,-0.00002834,0.,0.,-0.0
 0000078,0.,0.,-0.00000087,0.,0.,-0.00000371,0.,0.,0.00000402,0.,0.,0.0
 0000065,0.,0.,0.00000352,0.,0.,0.00000187,0.,0.,-0.00000140,0.00000002
 ,-0.00000002,-0.00003175,-0.00000006,0.00000002,-0.00006616,-0.0000003
 2,0.00000073,0.00560331,-0.00000054,-0.00000006,-0.00086991,0.00000134
 ,0.00000101,0.00464185,-0.00000002,-0.00000007,0.00758466,0.,-0.000000
 03,-0.00073018,0.00000085,0.00001279,-0.03496404,0.00000037,0.00000003
 ,0.00244737,0.,0.,0.00040688,-0.00000208,-0.00001404,0.02463358,0.0000
 0863,-0.00003061,0.,-0.00000908,0.00009307,0.,0.00007268,-0.00005553,0
 .,0.00002309,0.00000948,0.,-0.00000014,0.00003327,0.,-0.00003797,0.000
 00906,0.,0.00000157,0.00000464,0.,0.00000211,-0.00000456,0.,-0.0000062
 5,0.00000396,0.,-0.00000423,0.00000410,0.,-0.00016264,0.00020110,0.000
 00003,0.00000802,0.00012275,0.,-0.00054577,-0.00072544,0.00000005,0.00
 131681,-0.00195448,0.00000006,-0.00345884,-0.00321962,-0.00000009,0.00
 828402,-0.00695772,0.00000054,0.00028234,-0.00035309,0.,-0.01541571,0.
 02232469,-0.00000160,-0.21057936,0.14266148,-0.00001130,0.00061955,0.0
 0035337,0.00000003,0.00102554,-0.00013652,0.00000015,0.21988921,0.0000
 3360,0.00001377,0.,-0.00007925,0.00006678,-0.00000002,0.00004172,0.000
 01244,0.00000001,-0.00000101,0.00000282,0.,0.00001108,-0.00000199,0.,0
 .00000043,-0.00001473,0.,-0.00000617,-0.00000263,0.,0.00000665,0.00000
 203,0.,0.00000491,-0.00000200,0.,0.00000681,-0.00000402,0.,0.00010392,
 -0.00003541,-0.00000002,-0.00004574,-0.00000031,0.00000003,-0.00106335
 ,-0.00001346,-0.00000010,-0.00248642,-0.00541434,0.00000073,-0.0029288
 8,0.00026056,0.00000042,0.02445977,-0.01330281,0.00000145,0.00117118,-
 0.00092953,0.00000003,-0.00907902,0.00904727,-0.00000039,0.14304292,-0
 .19421827,0.00001186,-0.00019129,0.00106806,-0.00000029,0.00022220,0.0
 0072040,-0.00000031,-0.15309500,0.20216946,0.,0.,-0.00002560,0.,0.,-0.
 00012219,0.00000002,-0.00000003,0.00011540,0.,0.,0.00001862,0.,0.,-0.0
 0000854,0.,0.,0.00000338,0.,0.,0.00000185,0.,0.,-0.00000659,0.,0.,-0.0
 0000073,0.,0.,0.00000975,-0.00000005,0.00000002,-0.00014286,0.00000002
 ,-0.00000005,0.00025967,0.00000014,-0.00000004,-0.00107194,0.00000036,
 0.00000074,0.00661145,-0.00000015,0.00000018,0.00860958,-0.00000158,0.
 00000126,0.00464561,-0.00000011,0.00000009,-0.00022939,-0.00000015,0.,
 0.00453972,-0.00001116,0.00001168,-0.04049541,0.00000007,-0.00000029,-
 0.00368077,0.00000015,-0.00000026,-0.00471144,0.00001230,-0.00001328,0
 .02680773,-0.00477427,-0.00557595,0.00000007,-0.00285232,0.01658994,0.
 00000086,-0.08787352,0.05438107,0.00000390,0.01504498,-0.00636757,-0.0
 0000033,-0.00236876,0.01017797,0.00000015,-0.00562173,-0.00482609,-0.0
 0000007,0.00021334,-0.00107571,0.,-0.00051196,-0.00004153,0.00000003,0
 .00023121,0.00000017,0.,-0.00075764,0.00003778,-0.00000002,-0.43840070
 ,-0.04899776,0.00000948,-0.04906158,-0.03643055,-0.00000157,-0.1666201
 6,0.07355562,0.00000155,-0.04628036,0.02768048,-0.00000006,0.02784584,
 0.01517813,0.00000104,0.00068436,-0.01426413,0.00000095,0.00093066,0.0
 0085584,-0.00000013,-0.00319294,-0.00153862,0.00000014,0.00410162,0.00
 482343,-0.00000031,-0.00043855,0.00076944,-0.00000009,0.00054568,-0.00
 109981,0.00000011,0.00024351,0.00002257,0.,0.77303037,0.00174962,-0.00
 148199,-0.00000029,0.02904492,-0.03344197,-0.00000209,0.02165293,0.005
 03472,-0.00000079,0.00593998,-0.01008964,-0.00000054,-0.00114789,0.005
 12453,0.00000009,-0.00282164,-0.00403206,0.,-0.00001019,-0.00071902,0.
 ,-0.00046544,0.00013403,0.00000002,0.00022679,-0.00047256,0.00000003,-
 0.00035444,0.00010613,0.00000004,-0.06774130,-0.12212951,0.00000046,-0
 .01261301,-0.15012464,-0.00000426,0.07330267,-0.18612764,-0.00000152,0
 .01411917,0.01214821,-0.00000036,0.01681318,-0.03376490,-0.00000081,-0
 .00866415,0.00950280,-0.00000061,-0.00250225,-0.00096358,0.00000004,0.
 00090549,-0.00722262,0.00000057,-0.00636164,-0.00594271,0.00000026,-0.
 00125306,0.00081828,-0.00000008,0.00119270,-0.00029149,0.00000014,-0.0
 0029892,0.00004756,-0.00000002,-0.06435073,0.52145675,0.00000006,0.000
 00006,0.00082895,0.00000137,-0.00000104,0.00481604,0.00000194,-0.00000
 086,0.00317771,-0.00000016,-0.00000028,0.00293729,-0.00000001,-0.00000
 009,0.00070489,0.00000006,-0.00000005,0.00099524,0.,-0.00000002,-0.000
 60705,0.,0.00000001,-0.00038536,0.,-0.00000001,-0.00047807,-0.00000001
 ,0.,-0.00013075,0.00000838,0.,-0.06391382,-0.00000086,-0.00000384,-0.0
 3763622,0.00000410,-0.00000436,-0.05361414,0.00000060,-0.00000027,-0.0
 0198242,-0.00000130,0.00000148,0.00356467,-0.00000031,0.00000058,0.006
 54088,0.00000002,-0.00000022,-0.00343239,0.00000025,0.00000042,0.00488
 788,-0.00000017,-0.00000026,-0.00100821,-0.00000005,0.00000007,0.00089
 945,-0.00000003,0.00000010,-0.00001927,0.,-0.00000004,-0.00072856,-0.0
 0001354,0.00000969,0.13559689,-0.00021290,0.00198745,0.00000006,0.0014
 6245,0.00123378,0.00000011,0.00890902,-0.00131622,-0.00000004,-0.00190
 604,0.00059580,0.00000005,-0.00022342,-0.00206192,-0.00000003,0.001907
 85,0.00024913,-0.00000002,-0.00016097,0.00016917,0.,0.00023884,-0.0000
 5836,0.,0.00002657,-0.00001548,0.,0.00005801,0.00003204,0.,0.00339861,
 0.02664589,0.00000207,-0.00069842,0.00037775,-0.00000009,-0.01717506,-
 0.03279616,-0.00000113,-0.00632661,0.00234505,-0.00000074,-0.33794420,
 -0.09823354,-0.00000943,-0.00394443,-0.01329973,0.00000067,-0.00098725
 ,-0.00056911,0.00000017,-0.06275503,-0.00093955,-0.00000456,0.01234312
 ,0.01147185,-0.00000047,-0.00003656,-0.00025004,0.00000002,0.00232540,
 -0.00044642,0.00000021,-0.00144549,0.00002499,0.00000012,-0.02249333,0
 .01265855,0.00000040,0.56347079,-0.00055779,-0.00028389,0.00000005,0.0
 0051992,-0.00228924,-0.00000005,-0.00738788,-0.00080092,-0.00000045,-0
 .00015217,-0.00028892,0.,0.00033576,0.00006288,0.00000001,0.00002834,-
 0.00006568,-0.00000001,0.00008306,-0.00022808,0.,0.00006484,0.00012676
 ,0.,0.00010382,-0.00009930,0.,0.00006321,-0.00006660,0.,0.01514410,-0.
 02723887,-0.00000153,-0.00079414,-0.00204661,-0.00000009,-0.05056340,-
 0.01579697,-0.00000087,0.00874861,-0.00686694,0.00000047,-0.06187592,-
 0.14189660,0.00000278,-0.00301975,0.00616188,-0.00000040,-0.00170840,-
 0.00048929,0.00000011,0.03553826,0.02128890,0.00000015,-0.00127177,-0.
 01063461,0.00000074,-0.00011127,0.00041096,-0.00000006,-0.00178117,0.0
 0171562,-0.00000020,0.00152872,0.00053795,-0.00000002,0.00358644,0.004
 84832,0.00000004,-0.05563150,0.45101837,0.,0.00000006,-0.00014304,0.,0
 .00000012,-0.00003305,0.00000054,-0.00000035,0.00130117,-0.00000011,0.
 00000004,0.00008331,0.,-0.00000008,-0.00005229,0.00000006,0.00000003,0
 .00003628,0.,0.,-0.00000501,0.,0.,-0.00000147,0.,0.,-0.00001421,0.,0.,
 -0.00000288,0.00000045,0.00000110,0.00330288,-0.00000012,-0.00000019,-
 0.00035941,0.00000143,0.00000029,0.01349081,-0.00000140,0.00000035,0.0
 0687529,-0.00001431,-0.00000137,-0.05276101,0.00000038,-0.00000135,-0.
 00099288,-0.00000008,-0.00000002,0.00021899,-0.00000569,-0.00000088,0.
 00776530,0.00000070,0.00000178,0.00510402,0.,-0.00000009,-0.00074803,0
 .00000038,-0.00000028,-0.00349929,-0.00000018,-0.00000005,-0.00014772,
 -0.00000167,0.00000110,-0.00362962,0.00003794,-0.00003190,0.04510962,-
 0.00005292,-0.00058973,-0.00000002,-0.00096141,-0.00035961,0.,-0.00329
 299,0.00234048,0.00000016,0.00072138,-0.00014195,-0.00000005,0.0000562
 5,0.00048211,0.,-0.00046001,-0.00006262,0.,0.00006369,-0.00007027,0.,-
 0.00027079,0.00004901,0.00000003,0.00002230,-0.00001369,0.,-0.00000866
 ,-0.00004302,0.,-0.00990202,-0.00728648,-0.00000179,-0.00134670,-0.002
 32853,0.00000014,0.00088415,0.00440372,0.00000013,0.00026523,0.0009634
 5,0.00000008,-0.05048586,0.03047781,-0.00000601,0.00072621,0.00167948,
 -0.00000006,0.00057470,0.00028942,-0.00000005,0.00054370,-0.00471339,0
 .00000024,-0.00209892,0.00012567,-0.00000016,0.00006694,0.00000068,0.,
 -0.00022476,0.00010090,0.,-0.00011161,-0.00017661,0.00000004,0.0083762
 6,-0.00902134,-0.00000075,-0.13783096,0.11911008,-0.00001833,0.1947467
 8,0.00049100,0.00098934,-0.00000005,0.00058804,0.00373197,0.00000007,0
 .01265708,-0.00250978,0.00000044,-0.00082064,0.00111880,0.00000008,-0.
 00052525,-0.00094987,-0.00000004,0.00063269,0.00040300,0.00000002,-0.0
 0015624,0.00036054,0.,0.00007541,-0.00021137,0.,-0.00016335,0.00015342
 ,0.,-0.00006964,0.00010999,0.,-0.00733258,0.00703392,0.00000286,0.0010
 9571,0.00435844,-0.00000015,0.00012396,-0.00678104,0.00000015,-0.00337
 863,-0.00062479,-0.00000014,0.01699998,0.02192551,-0.00000090,-0.00015
 097,-0.00528846,0.00000027,-0.00059613,-0.00026156,0.00000008,-0.01299
 695,0.00090160,-0.00000058,0.00412123,0.00430524,0.,0.00006659,-0.0001
 8353,0.,0.00033630,-0.00014870,-0.00000006,-0.00051821,-0.00000962,0.0
 0000001,-0.02309045,-0.00241701,-0.00000111,0.14782657,-0.27707912,0.0
 0003169,-0.13521555,0.25107307,0.00000009,0.00000005,0.00025557,-0.000
 00009,0.00000030,0.00030596,0.00000066,0.00000039,-0.00137213,0.000000
 04,0.00000004,-0.00018899,-0.00000005,0.00000001,0.00002890,0.,-0.0000
 0001,-0.00005092,-0.00000001,0.00000003,0.00002816,0.00000002,-0.00000
 003,0.00003161,-0.00000001,0.00000001,0.00001770,0.,0.,-0.00000929,-0.
 00000159,-0.00000054,-0.00810682,0.00000026,0.00000040,0.00084051,0.00
 000016,-0.00000023,-0.00184243,0.00000010,0.00000018,-0.00039037,-0.00
 000019,0.00000194,-0.00093529,-0.00000010,0.00000003,-0.00012752,0.000
 00005,0.00000002,-0.00004404,0.00000001,-0.00000011,0.00223565,0.00000
 001,0.00000006,0.00174486,0.00000001,0.,-0.00003672,0.00000001,-0.0000
 0005,-0.00041180,0.,-0.00000003,-0.00025102,-0.00000049,-0.00000106,0.
 00261597,-0.00002529,0.00003125,-0.02089774,0.00002640,-0.00003265,0.0
 2656020\\-0.00165303,0.00126196,0.00000025,0.00153109,0.00348041,0.000
 00067,0.00401232,0.00057964,-0.00000060,0.00097774,-0.00139082,-0.0000
 0039,-0.00072946,-0.00370255,0.00000013,-0.00186130,-0.00160850,0.0000
 0023,-0.00039334,0.00021579,-0.00000004,0.00034829,-0.00023922,0.,-0.0
 0004974,-0.00038415,0.00000001,-0.00027251,-0.00023294,-0.00000004,-0.
 00153723,0.00453846,-0.00000426,0.00227199,0.00921776,-0.00000122,-0.0
 0143625,0.00234725,0.00000046,0.00374065,-0.00190072,0.00000161,0.0034
 5883,0.00189554,-0.00000233,-0.00087260,-0.00073024,0.00000019,0.00030
 036,-0.00020897,-0.00000030,-0.00296928,-0.00025904,-0.00000125,-0.003
 25625,-0.00271099,-0.00000028,-0.00002591,-0.00037099,-0.00000023,-0.0
 0038699,0.00006995,0.00000015,-0.00035716,-0.00027833,0.00000017,-0.00
 043827,-0.00020835,0.00000283,-0.00294672,-0.00137278,-0.00000115,0.00
 254476,-0.00800816,0.00000540\\\@
 The archive entry for this job was punched.


 Age does not diminish the extreme disappointment of
 having a scoop of ice cream fall from the cone.
 -- Jim Fiebig
 Job cpu time:       0 days  0 hours 59 minutes 10.7 seconds.
 Elapsed time:       0 days  0 hours  5 minutes 58.2 seconds.
 File lengths (MBytes):  RWF=    544 Int=      0 D2E=      0 Chk=     40 Scr=      8
 Normal termination of Gaussian 16 at Wed Oct 28 01:45:32 2020.
