 Entering Gaussian System, Link 0=g16
 Initial command:
 /gpfs/loomis/apps/avx/software/Gaussian/16-C.01_AVX/g16/l1.exe "/home/fas/batista/pev4/scratch60/gauss-scratch/Gau-132738.inp" -scrdir="/home/fas/batista/pev4/scratch60/gauss-scratch/"
 Entering Link 1 = /gpfs/loomis/apps/avx/software/Gaussian/16-C.01_AVX/g16/l1.exe PID=    132739.
  
 Copyright (c) 1988-2019, Gaussian, Inc.  All Rights Reserved.
  
 This is part of the Gaussian(R) 16 program.  It is based on
 the Gaussian(R) 09 system (copyright 2009, Gaussian, Inc.),
 the Gaussian(R) 03 system (copyright 2003, Gaussian, Inc.),
 the Gaussian(R) 98 system (copyright 1998, Gaussian, Inc.),
 the Gaussian(R) 94 system (copyright 1995, Gaussian, Inc.),
 the Gaussian 92(TM) system (copyright 1992, Gaussian, Inc.),
 the Gaussian 90(TM) system (copyright 1990, Gaussian, Inc.),
 the Gaussian 88(TM) system (copyright 1988, Gaussian, Inc.),
 the Gaussian 86(TM) system (copyright 1986, Carnegie Mellon
 University), and the Gaussian 82(TM) system (copyright 1983,
 Carnegie Mellon University). Gaussian is a federally registered
 trademark of Gaussian, Inc.
  
 This software contains proprietary and confidential information,
 including trade secrets, belonging to Gaussian, Inc.
  
 This software is provided under written license and may be
 used, copied, transmitted, or stored only in accord with that
 written license.
  
 The following legend is applicable only to US Government
 contracts under FAR:
  
                    RESTRICTED RIGHTS LEGEND
  
 Use, reproduction and disclosure by the US Government is
 subject to restrictions as set forth in subparagraphs (a)
 and (c) of the Commercial Computer Software - Restricted
 Rights clause in FAR 52.227-19.
  
 Gaussian, Inc.
 340 Quinnipiac St., Bldg. 40, Wallingford CT 06492
  
  
 ---------------------------------------------------------------
 Warning -- This program may not be used in any manner that
 competes with the business of Gaussian, Inc. or will provide
 assistance to any competitor of Gaussian, Inc.  The licensee
 of this program is prohibited from giving any competitor of
 Gaussian, Inc. access to this program.  By using this program,
 the user acknowledges that Gaussian, Inc. is engaged in the
 business of creating and licensing software in the field of
 computational chemistry and represents and warrants to the
 licensee that it is not a competitor of Gaussian, Inc. and that
 it will not use this program in any manner prohibited above.
 ---------------------------------------------------------------
  

 Cite this work as:
 Gaussian 16, Revision C.01,
 M. J. Frisch, G. W. Trucks, H. B. Schlegel, G. E. Scuseria, 
 M. A. Robb, J. R. Cheeseman, G. Scalmani, V. Barone, 
 G. A. Petersson, H. Nakatsuji, X. Li, M. Caricato, A. V. Marenich, 
 J. Bloino, B. G. Janesko, R. Gomperts, B. Mennucci, H. P. Hratchian, 
 J. V. Ortiz, A. F. Izmaylov, J. L. Sonnenberg, D. Williams-Young, 
 F. Ding, F. Lipparini, F. Egidi, J. Goings, B. Peng, A. Petrone, 
 T. Henderson, D. Ranasinghe, V. G. Zakrzewski, J. Gao, N. Rega, 
 G. Zheng, W. Liang, M. Hada, M. Ehara, K. Toyota, R. Fukuda, 
 J. Hasegawa, M. Ishida, T. Nakajima, Y. Honda, O. Kitao, H. Nakai, 
 T. Vreven, K. Throssell, J. A. Montgomery, Jr., J. E. Peralta, 
 F. Ogliaro, M. J. Bearpark, J. J. Heyd, E. N. Brothers, K. N. Kudin, 
 V. N. Staroverov, T. A. Keith, R. Kobayashi, J. Normand, 
 K. Raghavachari, A. P. Rendell, J. C. Burant, S. S. Iyengar, 
 J. Tomasi, M. Cossi, J. M. Millam, M. Klene, C. Adamo, R. Cammi, 
 J. W. Ochterski, R. L. Martin, K. Morokuma, O. Farkas, 
 J. B. Foresman, and D. J. Fox, Gaussian, Inc., Wallingford CT, 2019.
 
 ******************************************
 Gaussian 16:  ES64L-G16RevC.01  3-Jul-2019
                27-Oct-2020 
 ******************************************
 %chk=config_5_6.chk
 %mem=58GB
 %nprocshared=10
 Will use up to   10 processors via shared memory.
 ----------------------------------------------------------------------
 #p opt=addgic freq wb97xd/cc-pvdz nosymm int=ultrafine scrf=(solvent=C
 arbonTetraChloride)
 ----------------------------------------------------------------------
 1/18=20,19=15,26=6,38=1,145=903/1,3;
 2/9=110,12=2,15=1,17=6,18=5,40=1/2;
 3/5=16,11=2,25=1,30=1,70=2201,71=1,72=11,74=-58,75=-5/1,2,3;
 4//1;
 5/5=2,38=5,53=11/2;
 6/7=2,8=2,9=2,10=2,28=1/1;
 7/30=1/1,2,3,16;
 1/18=20,19=15,26=6,145=903/3(2);
 2/9=110,15=1/2;
 99//99;
 2/9=110,15=1/2;
 3/5=16,11=2,25=1,30=1,70=2205,71=1,72=11,74=-58,75=-5/1,2,3;
 4/5=5,16=3,69=1/1;
 5/5=2,38=5,53=11/2;
 7/30=1/1,2,3,16;
 1/18=20,19=15,26=6,145=903/3(-5);
 2/9=110,15=1/2;
 6/7=2,8=2,9=2,10=2,19=2,28=1/1;
 99/9=1/99;
 Leave Link    1 at Tue Oct 27 22:02:31 2020, MaxMem=  7784628224 cpu:               4.2 elap:               0.7
 (Enter /gpfs/loomis/apps/avx/software/Gaussian/16-C.01_AVX/g16/l101.exe)
 ------------------------------------------------
 NM 2D-scan of HBT TD-WB97XD pVDZ in CTC Relaxed.
 ------------------------------------------------
 Symbolic Z-matrix:
 Charge =  0 Multiplicity = 1
 C                     1.69047  -3.2686   -0.00002 
 C                     0.99843  -2.06026  -0.00002 
 C                     1.6923   -0.81431  -0.00002 
 C                     3.10782  -0.8046   -0.00002 
 C                     3.78144  -2.01202  -0.00002 
 C                     3.08596  -3.23704  -0.00002 
 H                     1.15629  -4.21987  -0.00002 
 H                     3.63641   0.14965  -0.00002 
 H                     4.87313  -2.01815  -0.00002 
 H                     3.64334  -4.17499  -0.00002 
 N                     0.90037   0.26715  -0.00002 
 S                    -0.73782  -1.7776   -0.00002 
 C                    -1.38699   1.01553   0. 
 C                    -2.78902   0.84769  0. 
 C                    -0.88217   2.40898   0.00003 
 C                    -3.64482   1.95022   0.00002 
 H                    -3.20614  -0.16091  -0.00003 
 C                    -1.77985   3.49458   0.00006 
 C                    -3.15282   3.27458   0.00006 
 H                    -4.72324   1.78156   0.00002 
 H                    -1.3527    4.49816   0.00008 
 H                    -3.84634   4.11583   0.00008 
 C                    -0.42642  -0.02603  -0.00002 
 O                     0.39989   2.63615   0.00004 
 H                     0.86474   1.71847   0.00001 
 
 Initializing the GIC definitions file.
 Number of initial coordinates =   131
 Number of input entries/lines =    52
 Number of additional coordinates =     2
 Number of removed coordinates =     0
 Number of frozen coordinates =     2
 Number of final active and frozen coordinates =   133
 ITRead=  0  0  0  0  0  0  0  0  0  0  0  0  0  0  0  0  0  0  0  0
 ITRead=  0  0  0  0  0
 MicOpt= -1 -1 -1 -1 -1 -1 -1 -1 -1 -1 -1 -1 -1 -1 -1 -1 -1 -1 -1 -1
 MicOpt= -1 -1 -1 -1 -1
 NAtoms=     25 NQM=       25 NQMF=       0 NMMI=      0 NMMIF=      0
                NMic=       0 NMicF=      0.
                    Isotopes and Nuclear Properties:
 (Nuclear quadrupole moments (NQMom) in fm**2, nuclear magnetic moments (NMagM)
  in nuclear magnetons)

  Atom         1           2           3           4           5           6           7           8           9          10
 IAtWgt=          12          12          12          12          12          12           1           1           1           1
 AtmWgt=  12.0000000  12.0000000  12.0000000  12.0000000  12.0000000  12.0000000   1.0078250   1.0078250   1.0078250   1.0078250
 NucSpn=           0           0           0           0           0           0           1           1           1           1
 AtZEff=  -0.0000000  -0.0000000  -0.0000000  -0.0000000  -0.0000000  -0.0000000  -0.0000000  -0.0000000  -0.0000000  -0.0000000
 NQMom=    0.0000000   0.0000000   0.0000000   0.0000000   0.0000000   0.0000000   0.0000000   0.0000000   0.0000000   0.0000000
 NMagM=    0.0000000   0.0000000   0.0000000   0.0000000   0.0000000   0.0000000   2.7928460   2.7928460   2.7928460   2.7928460
 AtZNuc=   6.0000000   6.0000000   6.0000000   6.0000000   6.0000000   6.0000000   1.0000000   1.0000000   1.0000000   1.0000000

  Atom        11          12          13          14          15          16          17          18          19          20
 IAtWgt=          14          32          12          12          12          12           1          12          12           1
 AtmWgt=  14.0030740  31.9720718  12.0000000  12.0000000  12.0000000  12.0000000   1.0078250  12.0000000  12.0000000   1.0078250
 NucSpn=           2           0           0           0           0           0           1           0           0           1
 AtZEff=  -0.0000000  -0.0000000  -0.0000000  -0.0000000  -0.0000000  -0.0000000  -0.0000000  -0.0000000  -0.0000000  -0.0000000
 NQMom=    2.0440000   0.0000000   0.0000000   0.0000000   0.0000000   0.0000000   0.0000000   0.0000000   0.0000000   0.0000000
 NMagM=    0.4037610   0.0000000   0.0000000   0.0000000   0.0000000   0.0000000   2.7928460   0.0000000   0.0000000   2.7928460
 AtZNuc=   7.0000000  16.0000000   6.0000000   6.0000000   6.0000000   6.0000000   1.0000000   6.0000000   6.0000000   1.0000000

  Atom        21          22          23          24          25
 IAtWgt=           1           1          12          16           1
 AtmWgt=   1.0078250   1.0078250  12.0000000  15.9949146   1.0078250
 NucSpn=           1           1           0           0           1
 AtZEff=  -0.0000000  -0.0000000  -0.0000000  -0.0000000  -0.0000000
 NQMom=    0.0000000   0.0000000   0.0000000   0.0000000   0.0000000
 NMagM=    2.7928460   2.7928460   0.0000000   0.0000000   2.7928460
 AtZNuc=   1.0000000   1.0000000   6.0000000   8.0000000   1.0000000
 Leave Link  101 at Tue Oct 27 22:02:35 2020, MaxMem=  7784628224 cpu:              34.9 elap:               4.7
 (Enter /gpfs/loomis/apps/avx/software/Gaussian/16-C.01_AVX/g16/l103.exe)

 GradGradGradGradGradGradGradGradGradGradGradGradGradGradGradGradGradGrad
 Berny optimization.
 Initialization pass.
                           ----------------------------
                           !    Initial Parameters    !
                           ! (Angstroms and Degrees)  !
 --------------------------                            --------------------------
 ! Name  Definition              Value          Derivative Info.                !
 --------------------------------------------------------------------------------
 ! R1    R(1,2)                  1.3925         estimate D2E/DX2                !
 ! R2    R(1,6)                  1.3959         estimate D2E/DX2                !
 ! R3    R(1,7)                  1.091          estimate D2E/DX2                !
 ! R4    R(2,3)                  1.4261         estimate D2E/DX2                !
 ! R5    R(2,12)                 1.7591         estimate D2E/DX2                !
 ! R6    R(3,4)                  1.4156         estimate D2E/DX2                !
 ! R7    R(3,11)                 1.3404         estimate D2E/DX2                !
 ! R8    R(4,5)                  1.3826         estimate D2E/DX2                !
 ! R9    R(4,8)                  1.0909         estimate D2E/DX2                !
 ! R10   R(5,6)                  1.4087         estimate D2E/DX2                !
 ! R11   R(5,9)                  1.0917         estimate D2E/DX2                !
 ! R12   R(6,10)                 1.0911         estimate D2E/DX2                !
 ! R13   R(11,23)                1.3588         estimate D2E/DX2                !
 ! R14   R(12,23)                1.779          estimate D2E/DX2                !
 ! R15   R(13,14)                1.412          estimate D2E/DX2                !
 ! R16   R(13,15)                1.4821         estimate D2E/DX2                !
 ! R17   R(13,23)                1.4169         estimate D2E/DX2                !
 ! R18   R(14,16)                1.3957         estimate D2E/DX2                !
 ! R19   R(14,17)                1.0915         estimate D2E/DX2                !
 ! R20   R(15,18)                1.4087         estimate D2E/DX2                !
 ! R21   R(15,24)                1.302          estimate D2E/DX2                !
 ! R22   R(16,19)                1.4128         estimate D2E/DX2                !
 ! R23   R(16,20)                1.0915         estimate D2E/DX2                !
 ! R24   R(18,19)                1.3905         estimate D2E/DX2                !
 ! R25   R(18,21)                1.0907         estimate D2E/DX2                !
 ! R26   R(19,22)                1.0903         estimate D2E/DX2                !
 ! R27   R(24,25)                1.0287         estimate D2E/DX2                !
 ! A1    A(2,1,6)              118.5054         estimate D2E/DX2                !
 ! A2    A(2,1,7)              120.8837         estimate D2E/DX2                !
 ! A3    A(6,1,7)              120.6109         estimate D2E/DX2                !
 ! A4    A(1,2,3)              121.086          estimate D2E/DX2                !
 ! A5    A(1,2,12)             129.0473         estimate D2E/DX2                !
 ! A6    A(3,2,12)             109.8667         estimate D2E/DX2                !
 ! A7    A(2,3,4)              119.5065         estimate D2E/DX2                !
 ! A8    A(2,3,11)             114.6724         estimate D2E/DX2                !
 ! A9    A(4,3,11)             125.8211         estimate D2E/DX2                !
 ! A10   A(3,4,5)              118.7641         estimate D2E/DX2                !
 ! A11   A(3,4,8)              119.3771         estimate D2E/DX2                !
 ! A12   A(5,4,8)              121.8589         estimate D2E/DX2                !
 ! A13   A(4,5,6)              121.2582         estimate D2E/DX2                !
 ! A14   A(4,5,9)              119.4793         estimate D2E/DX2                !
 ! A15   A(6,5,9)              119.2626         estimate D2E/DX2                !
 ! A16   A(1,6,5)              120.8798         estimate D2E/DX2                !
 ! A17   A(1,6,10)             119.4256         estimate D2E/DX2                !
 ! A18   A(5,6,10)             119.6946         estimate D2E/DX2                !
 ! A19   A(3,11,23)            113.7541         estimate D2E/DX2                !
 ! A20   A(2,12,23)             89.1658         estimate D2E/DX2                !
 ! A21   A(14,13,15)           116.7408         estimate D2E/DX2                !
 ! A22   A(14,13,23)           125.8571         estimate D2E/DX2                !
 ! A23   A(15,13,23)           117.4021         estimate D2E/DX2                !
 ! A24   A(13,14,16)           120.9926         estimate D2E/DX2                !
 ! A25   A(13,14,17)           119.2945         estimate D2E/DX2                !
 ! A26   A(16,14,17)           119.7129         estimate D2E/DX2                !
 ! A27   A(13,15,18)           120.4982         estimate D2E/DX2                !
 ! A28   A(13,15,24)           119.9621         estimate D2E/DX2                !
 ! A29   A(18,15,24)           119.5396         estimate D2E/DX2                !
 ! A30   A(14,16,19)           121.8007         estimate D2E/DX2                !
 ! A31   A(14,16,20)           118.9304         estimate D2E/DX2                !
 ! A32   A(19,16,20)           119.2689         estimate D2E/DX2                !
 ! A33   A(15,18,19)           120.4836         estimate D2E/DX2                !
 ! A34   A(15,18,21)           117.3564         estimate D2E/DX2                !
 ! A35   A(19,18,21)           122.16           estimate D2E/DX2                !
 ! A36   A(16,19,18)           119.484          estimate D2E/DX2                !
 ! A37   A(16,19,22)           120.1178         estimate D2E/DX2                !
 ! A38   A(18,19,22)           120.3982         estimate D2E/DX2                !
 ! A39   A(11,23,12)           112.5411         estimate D2E/DX2                !
 ! A40   A(11,23,13)           120.2234         estimate D2E/DX2                !
 ! A41   A(12,23,13)           127.2355         estimate D2E/DX2                !
 ! A42   A(15,24,25)           106.8168         estimate D2E/DX2                !
 ! D1    D(6,1,2,3)              0.0            estimate D2E/DX2                !
 ! D2    D(6,1,2,12)          -179.9999         estimate D2E/DX2                !
 ! D3    D(7,1,2,3)            180.0            estimate D2E/DX2                !
 ! D4    D(7,1,2,12)             0.0            estimate D2E/DX2                !
 ! D5    D(2,1,6,5)              0.0            estimate D2E/DX2                !
 ! D6    D(2,1,6,10)           180.0            estimate D2E/DX2                !
 ! D7    D(7,1,6,5)           -180.0            estimate D2E/DX2                !
 ! D8    D(7,1,6,10)             0.0            estimate D2E/DX2                !
 ! D9    D(1,2,3,4)              0.0            estimate D2E/DX2                !
 ! D10   D(1,2,3,11)           180.0            estimate D2E/DX2                !
 ! D11   D(12,2,3,4)           180.0            estimate D2E/DX2                !
 ! D12   D(12,2,3,11)           -0.0001         estimate D2E/DX2                !
 ! D13   D(1,2,12,23)          179.9999         estimate D2E/DX2                !
 ! D14   D(3,2,12,23)           -0.0001         estimate D2E/DX2                !
 ! D15   D(2,3,4,5)              0.0            estimate D2E/DX2                !
 ! D16   D(2,3,4,8)           -180.0            estimate D2E/DX2                !
 ! D17   D(11,3,4,5)          -180.0            estimate D2E/DX2                !
 ! D18   D(11,3,4,8)             0.0            estimate D2E/DX2                !
 ! D19   D(2,3,11,23)            0.0002         estimate D2E/DX2                !
 ! D20   D(4,3,11,23)         -179.9998         estimate D2E/DX2                !
 ! D21   D(3,4,5,6)              0.0            estimate D2E/DX2                !
 ! D22   D(3,4,5,9)           -180.0            estimate D2E/DX2                !
 ! D23   D(8,4,5,6)           -180.0            estimate D2E/DX2                !
 ! D24   D(8,4,5,9)              0.0            estimate D2E/DX2                !
 ! D25   D(4,5,6,1)              0.0            estimate D2E/DX2                !
 ! D26   D(4,5,6,10)          -180.0            estimate D2E/DX2                !
 ! D27   D(9,5,6,1)            180.0            estimate D2E/DX2                !
 ! D28   D(9,5,6,10)             0.0            estimate D2E/DX2                !
 ! D29   D(3,11,23,12)          -0.0003         estimate D2E/DX2                !
 ! D30   D(3,11,23,13)         179.9992         estimate D2E/DX2                !
 ! D31   D(2,12,23,11)           0.0002         estimate D2E/DX2                !
 ! D32   D(2,12,23,13)        -179.9993         estimate D2E/DX2                !
 ! D33   D(15,13,14,16)         -0.0003         estimate D2E/DX2                !
 ! D34   D(15,13,14,17)        179.9998         estimate D2E/DX2                !
 ! D35   D(23,13,14,16)        179.9996         estimate D2E/DX2                !
 ! D36   D(23,13,14,17)         -0.0003         estimate D2E/DX2                !
 ! D37   D(14,13,15,18)          0.0003         estimate D2E/DX2                !
 ! D38   D(14,13,15,24)       -179.9999         estimate D2E/DX2                !
 ! D39   D(23,13,15,18)       -179.9996         estimate D2E/DX2                !
 ! D40   D(23,13,15,24)          0.0003         estimate D2E/DX2                !
 ! D41   D(14,13,23,11)        179.9994         estimate D2E/DX2                !
 ! D42   D(14,13,23,12)         -0.0011         estimate D2E/DX2                !
 ! D43   D(15,13,23,11)         -0.0007         estimate D2E/DX2                !
 ! D44   D(15,13,23,12)        179.9987         estimate D2E/DX2                !
 ! D45   D(13,14,16,19)          0.0001         estimate D2E/DX2                !
 ! D46   D(13,14,16,20)       -179.9999         estimate D2E/DX2                !
 ! D47   D(17,14,16,19)       -180.0            estimate D2E/DX2                !
 ! D48   D(17,14,16,20)          0.0            estimate D2E/DX2                !
 ! D49   D(13,15,18,19)         -0.0001         estimate D2E/DX2                !
 ! D50   D(13,15,18,21)        179.9998         estimate D2E/DX2                !
 ! D51   D(24,15,18,19)       -179.9999         estimate D2E/DX2                !
 ! D52   D(24,15,18,21)          0.0            estimate D2E/DX2                !
 ! D53   D(13,15,24,25)          0.0001         estimate D2E/DX2                !
 ! D54   D(18,15,24,25)       -180.0            estimate D2E/DX2                !
 ! D55   D(14,16,19,18)          0.0002         estimate D2E/DX2                !
 ! D56   D(14,16,19,22)       -179.9999         estimate D2E/DX2                !
 ! D57   D(20,16,19,18)       -179.9999         estimate D2E/DX2                !
 ! D58   D(20,16,19,22)          0.0001         estimate D2E/DX2                !
 ! D59   D(15,18,19,16)         -0.0002         estimate D2E/DX2                !
 ! D60   D(15,18,19,22)        179.9999         estimate D2E/DX2                !
 ! D61   D(21,18,19,16)        179.9999         estimate D2E/DX2                !
 ! D62   D(21,18,19,22)          0.0            estimate D2E/DX2                !
 ! Qtot  GIC-1                  -10.0           Frozen                          !
 ! Ptot  GIC-2                 -40.0            Frozen                          !
 --------------------------------------------------------------------------------
 NOTE: GIC-type coordinates are in arbitrary units.
 Trust Radius=3.00D-01 FncErr=5.00D-06 GrdErr=5.00D-06 EigMax=2.50D+02 EigMin=1.00D-04
 Number of steps in this run=    143 maximum allowed number of steps=    150.
 GradGradGradGradGradGradGradGradGradGradGradGradGradGradGradGradGradGrad

 Leave Link  103 at Tue Oct 27 22:02:36 2020, MaxMem=  7784628224 cpu:               0.2 elap:               0.0
 (Enter /gpfs/loomis/apps/avx/software/Gaussian/16-C.01_AVX/g16/l202.exe)
                          Input orientation:                          
 ---------------------------------------------------------------------
 Center     Atomic      Atomic             Coordinates (Angstroms)
 Number     Number       Type             X           Y           Z
 ---------------------------------------------------------------------
      1          6           0        1.690467   -3.268595   -0.000023
      2          6           0        0.998430   -2.060262   -0.000021
      3          6           0        1.692297   -0.814313   -0.000021
      4          6           0        3.107815   -0.804599   -0.000021
      5          6           0        3.781437   -2.012018   -0.000022
      6          6           0        3.085962   -3.237043   -0.000023
      7          1           0        1.156292   -4.219874   -0.000022
      8          1           0        3.636413    0.149648   -0.000021
      9          1           0        4.873131   -2.018154   -0.000022
     10          1           0        3.643337   -4.174992   -0.000023
     11          7           0        0.900373    0.267149   -0.000020
     12         16           0       -0.737824   -1.777598   -0.000019
     13          6           0       -1.386986    1.015527    0.000002
     14          6           0       -2.789023    0.847688   -0.000003
     15          6           0       -0.882166    2.408984    0.000031
     16          6           0       -3.644822    1.950221    0.000024
     17          1           0       -3.206141   -0.160915   -0.000028
     18          6           0       -1.779849    3.494583    0.000058
     19          6           0       -3.152819    3.274577    0.000056
     20          1           0       -4.723241    1.781563    0.000020
     21          1           0       -1.352696    4.498156    0.000081
     22          1           0       -3.846344    4.115831    0.000079
     23          6           0       -0.426423   -0.026026   -0.000015
     24          8           0        0.399893    2.636147    0.000035
     25          1           0        0.864742    1.718471    0.000013
 ---------------------------------------------------------------------
                    Distance matrix (angstroms):
                    1          2          3          4          5
     1  C    0.000000
     2  C    1.392474   0.000000
     3  C    2.454283   1.426128   0.000000
     4  C    2.842561   2.454831   1.415552   0.000000
     5  C    2.439496   2.783425   2.408112   1.382615   0.000000
     6  C    1.395852   2.396373   2.794981   2.432542   1.408677
     7  H    1.090996   2.165373   3.447484   3.933515   3.430162
     8  H    3.933331   3.441316   2.169979   1.090873   2.166525
     9  H    3.419496   3.874929   3.401019   2.142207   1.091711
    10  H    2.152965   3.386387   3.885965   3.412672   2.167379
    11  N    3.622946   2.329476   1.340412   2.453864   3.673572
    12  S    2.849503   1.759113   2.614078   3.966821   4.525337
    13  C    5.274886   3.892389   3.581941   4.849340   5.989877
    14  C    6.083554   4.775037   4.779590   6.123950   7.165812
    15  C    6.233245   4.848794   4.125228   5.123189   6.426076
    16  C    7.463334   6.135452   6.010615   7.292952   8.417165
    17  H    5.799522   4.613669   4.941824   6.346682   7.228612
    18  C    7.601558   6.210889   5.533750   6.509396   7.826274
    19  C    8.140671   6.759687   6.339887   7.472297   8.719632
    20  H    8.163317   6.891817   6.920817   8.247041   9.312400
    21  H    8.341658   6.967111   6.123260   6.929312   8.291060
    22  H    9.229627   7.849583   7.415043   8.518859   9.784353
    23  C    3.872400   2.483611   2.260613   3.618980   4.652983
    24  O    6.044135   4.734396   3.684560   4.378536   5.748067
    25  H    5.054963   3.781097   2.664553   3.375983   4.735363
                    6          7          8          9         10
     6  C    0.000000
     7  H    2.165544   0.000000
     8  H    3.431133   5.024313   0.000000
     9  H    2.163253   4.320007   2.495763   0.000000
    10  H    1.091062   2.487450   4.324646   2.482810   0.000000
    11  N    4.129911   4.494315   2.738562   4.583166   5.220774
    12  S    4.092837   3.090693   4.779982   5.616109   4.994204
    13  C    6.171841   5.820454   5.097478   6.956456   7.228115
    14  C    7.155451   6.422281   6.463241   8.180565   8.161040
    15  C    6.900990   6.935205   5.051945   7.261059   7.989300
    16  C    8.497715   7.817977   7.500563   9.396995   9.520268
    17  H    7.003794   5.958689   6.849598   8.289992   7.939028
    18  C    8.306077   8.254319   6.365885   8.640163   9.393261
    19  C    9.017958   8.644954   7.473878   9.613993  10.083839
    20  H    9.282783   8.401556   8.517450  10.321250  10.270354
    21  H    8.918239   9.071883   6.618211   9.012391  10.009188
    22  H   10.105524   9.721642   8.468899  10.660910  11.172872
    23  C    4.758937   4.482560   4.066632   5.661611   5.811787
    24  O    6.458276   6.897620   4.081390   6.455414   7.543975
    25  H    5.430556   5.945497   3.184865   5.479922   6.515635
                   11         12         13         14         15
    11  N    0.000000
    12  S    2.620054   0.000000
    13  C    2.406674   2.867571   0.000000
    14  C    3.734792   3.331599   1.412047   0.000000
    15  C    2.786557   4.189070   1.482081   2.464497   0.000000
    16  C    4.846806   4.727290   2.443660   1.395697   2.800488
    17  H    4.128765   2.950637   2.166412   1.091452   3.464858
    18  C    4.195226   5.374171   2.509992   2.832752   1.408674
    19  C    5.047077   5.599703   2.867310   2.454004   2.430044
    20  H    5.823957   5.343330   3.423070   2.147864   3.891981
    21  H    4.793510   6.305803   3.482797   3.922875   2.141504
    22  H    6.110946   6.662987   3.957312   3.434921   3.420479
    23  C    1.358800   1.779038   1.416868   2.518979   2.477291
    24  O    2.421287   4.558020   2.412332   3.656196   1.302028
    25  H    1.451759   3.845870   2.358900   3.756096   1.878429
                   16         17         18         19         20
    16  C    0.000000
    17  H    2.156231   0.000000
    18  C    2.421401   3.923898   0.000000
    19  C    1.412794   3.435905   1.390485   0.000000
    20  H    1.091527   2.464713   3.405583   2.166868   0.000000
    21  H    3.427217   5.014200   1.090696   2.176600   4.329025
    22  H    2.174966   4.324397   2.157857   1.090268   2.493543
    23  C    3.776724   2.782990   3.771797   4.281029   4.661547
    24  O    4.102465   4.563665   2.342688   3.609619   5.193921
    25  H    4.515515   4.483769   3.185661   4.308394   5.588339
                   21         22         23         24         25
    21  H    0.000000
    22  H    2.522787   0.000000
    23  C    4.618030   5.371297   0.000000
    24  O    2.557077   4.496664   2.787465   0.000000
    25  H    3.555795   5.285987   2.170340   1.028695   0.000000
 Symmetry turned off by external request.
 Stoichiometry    C13H9NOS
 Framework group  C1[X(C13H9NOS)]
 Deg. of freedom    69
 Full point group                 C1      NOp   1
 Rotational constants (GHZ):           1.3669131           0.2858217           0.2363921
 Leave Link  202 at Tue Oct 27 22:02:36 2020, MaxMem=  7784628224 cpu:               0.3 elap:               0.1
 (Enter /gpfs/loomis/apps/avx/software/Gaussian/16-C.01_AVX/g16/l301.exe)
 Standard basis: CC-pVDZ (5D, 7F)
 Ernie: Thresh=  0.10000D-02 Tol=  0.10000D-05 Strict=F.
 Ernie:  40 primitive shells out of 425 were deleted.
   273 basis functions,   629 primitive gaussians,   289 cartesian basis functions
    59 alpha electrons       59 beta electrons
       nuclear repulsion energy      1097.1057447886 Hartrees.
 IExCor= 4639 DFT=T Ex+Corr=wB97XD ExCW=0 ScaHFX=  1.000000
 ScaDFX=  1.000000  1.000000  1.000000  1.000000 ScalE2=  1.000000  1.000000
 IRadAn=      5 IRanWt=     -1 IRanGd=            0 ICorTp=0 IEmpDi=121
 HFx  wShort=  0.000000 wLong=  0.200000 cFull=  0.222036 cShort=  0.000000 cLong=  0.777964
 DFx  wShort=  0.000000 wLong=  0.200000 cFull=  0.000000 cShort=  0.000000 cLong=  1.000000
 NAtoms=   25 NActive=   25 NUniq=   25 SFac= 1.00D+00 NAtFMM=   60 NAOKFM=F Big=F
 Integral buffers will be    131072 words long.
 Raffenetti 2 integral format.
 Two-electron integral symmetry is turned off.
 R6Disp:  Grimme-D2 Dispersion energy=       -0.0139753330 Hartrees.
 Nuclear repulsion after empirical dispersion term =     1097.0917694556 Hartrees.
 ------------------------------------------------------------------------------
 Polarizable Continuum Model (PCM)
 =================================
 Model                : PCM.
 Atomic radii         : UFF (Universal Force Field).
 Polarization charges : Total charges.
 Charge compensation  : None.
 Solution method      : On-the-fly selection.
 Cavity type          : Scaled VdW (van der Waals Surface) (Alpha=1.100).
 Cavity algorithm     : GePol (No added spheres)
                        Default sphere list used, NSphG=   25.
                        Lebedev-Laikov grids with approx.  5.0 points / Ang**2.
                        Smoothing algorithm: York/Karplus (Gamma=1.0000).
                        Polarization charges: spherical gaussians, with
                                              point-specific exponents (IZeta= 3).
                        Self-potential: point-specific (ISelfS= 7).
                        Self-field    : sphere-specific E.n sum rule (ISelfD= 2).
 1st derivatives      : Analytical E(r).r(x)/FMM algorithm (CHGder, D1EAlg=3).
                        Cavity 1st derivative terms included.
 Solvent              : CarbonTetraChloride, Eps=   2.228000 Eps(inf)=   2.131892
 ------------------------------------------------------------------------------
 GePol: Number of generator spheres                  =      25
 GePol: Total number of spheres                      =      25
 GePol: Number of exposed spheres                    =      25 (100.00%)
 GePol: Number of points                             =    2186
 GePol: Average weight of points                     =       0.13
 GePol: Minimum weight of points                     =   0.50D-09
 GePol: Maximum weight of points                     =    0.20577
 GePol: Number of points with low weight             =     150
 GePol: Fraction of low-weight points (<1% of avg)   =       6.86%
 GePol: Cavity surface area                          =    274.565 Ang**2
 GePol: Cavity volume                                =    293.773 Ang**3
 Leave Link  301 at Tue Oct 27 22:02:36 2020, MaxMem=  7784628224 cpu:               0.6 elap:               0.1
 (Enter /gpfs/loomis/apps/avx/software/Gaussian/16-C.01_AVX/g16/l302.exe)
 NPDir=0 NMtPBC=     1 NCelOv=     1 NCel=       1 NClECP=     1 NCelD=      1
         NCelK=      1 NCelE2=     1 NClLst=     1 CellRange=     0.0.
 One-electron integrals computed using PRISM.
 NBasis=   273 RedAO= T EigKep=  3.13D-04  NBF=   273
 NBsUse=   273 1.00D-06 EigRej= -1.00D+00 NBFU=   273
 Precomputing XC quadrature grid using
 IXCGrd= 4 IRadAn=           5 IRanWt=          -1 IRanGd=           0 AccXCQ= 0.00D+00.
 Generated NRdTot=       0 NPtTot=           0 NUsed=           0 NTot=          32
 NSgBfM=   288   288   288   288   288 MxSgAt=    25 MxSgA2=    25.
 Leave Link  302 at Tue Oct 27 22:02:37 2020, MaxMem=  7784628224 cpu:               7.5 elap:               1.1
 (Enter /gpfs/loomis/apps/avx/software/Gaussian/16-C.01_AVX/g16/l303.exe)
 DipDrv:  MaxL=1.
 Leave Link  303 at Tue Oct 27 22:02:37 2020, MaxMem=  7784628224 cpu:               0.5 elap:               0.1
 (Enter /gpfs/loomis/apps/avx/software/Gaussian/16-C.01_AVX/g16/l401.exe)
 ExpMin= 1.22D-01 ExpMax= 1.11D+05 ExpMxC= 1.07D+03 IAcc=3 IRadAn=         5 AccDes= 0.00D+00
 Harris functional with IExCor= 4639 and IRadAn=       5 diagonalized for initial guess.
 HarFok:  IExCor= 4639 AccDes= 0.00D+00 IRadAn=         5 IDoV= 1 UseB2=F ITyADJ=14
 ICtDFT=  3500011 ScaDFX=  1.000000  1.000000  1.000000  1.000000
 FoFCou: FMM=F IPFlag=           0 FMFlag=      100000 FMFlg1=           0
         NFxFlg=           0 DoJE=T BraDBF=F KetDBF=T FulRan=T
         wScrn=  0.000000 ICntrl=       500 IOpCl=  0 I1Cent=   200000004 NGrid=           0
         NMat0=    1 NMatS0=      1 NMatT0=    0 NMatD0=    1 NMtDS0=    0 NMtDT0=    0
 Symmetry not used in FoFCou.
 Harris En= -994.455489132994    
 JPrj=0 DoOrth=F DoCkMO=F.
 Leave Link  401 at Tue Oct 27 22:02:39 2020, MaxMem=  7784628224 cpu:              14.6 elap:               1.9
 (Enter /gpfs/loomis/apps/avx/software/Gaussian/16-C.01_AVX/g16/l502.exe)
 Two-electron integral symmetry not used.
 Closed shell SCF:
 Using DIIS extrapolation, IDIIS=  1040.
 NGot=  7784628224 LenX=  7784455381 LenY=  7784371419
 Requested convergence on RMS density matrix=1.00D-08 within 128 cycles.
 Requested convergence on MAX density matrix=1.00D-06.
 Requested convergence on             energy=1.00D-06.
 No special actions if energy rises.
 Fock matrices will be formed incrementally for  20 cycles.

 Cycle   1  Pass 1  IDiag  1:
 FoFJK:  IHMeth= 1 ICntrl=       0 DoSepK=T KAlg= 0 I1Cent=           0 FoldK=F
 IRaf=         1 NMat=       1 IRICut=       1 DoRegI=T DoRafI=F ISym2E= 0 IDoP0=0 IntGTp=1.
 FoFCou: FMM=F IPFlag=           0 FMFlag=      100000 FMFlg1=           0
         NFxFlg=           0 DoJE=T BraDBF=F KetDBF=F FulRan=T
         wScrn=  0.000000 ICntrl=       500 IOpCl=  0 I1Cent=           0 NGrid=           0
         NMat0=    1 NMatS0=      1 NMatT0=    0 NMatD0=    1 NMtDS0=    0 NMtDT0=    0
 Symmetry not used in FoFCou.
 Inv3:  Mode=1 IEnd=    14335788.
 Iteration    1 A*A^-1 deviation from unit magnitude is 4.11D-15 for   2170.
 Iteration    1 A*A^-1 deviation from orthogonality  is 1.91D-15 for   1521    565.
 Iteration    1 A^-1*A deviation from unit magnitude is 4.11D-15 for   2170.
 Iteration    1 A^-1*A deviation from orthogonality  is 1.71D-15 for   1083    736.
 E= -1028.58567275806    
 DIIS: error= 2.45D-02 at cycle   1 NSaved=   1.
 NSaved= 1 IEnMin= 1 EnMin= -1028.58567275806     IErMin= 1 ErrMin= 2.45D-02
 ErrMax= 2.45D-02  0.00D+00 EMaxC= 1.00D-01 BMatC= 3.87D-01 BMatP= 3.87D-01
 IDIUse=3 WtCom= 7.55D-01 WtEn= 2.45D-01
 Coeff-Com:  0.100D+01
 Coeff-En:   0.100D+01
 Coeff:      0.100D+01
 Gap=     0.355 Goal=   None    Shift=    0.000
 GapD=    0.355 DampG=1.000 DampE=0.500 DampFc=0.5000 IDamp=-1.
 Damping current iteration by 5.00D-01
 RMSDP=3.49D-03 MaxDP=2.24D-01              OVMax= 1.70D-01

 Cycle   2  Pass 1  IDiag  1:
 RMSU=  1.74D-03    CP:  9.93D-01
 E= -1028.70178892277     Delta-E=       -0.116116164706 Rises=F Damp=T
 DIIS: error= 1.00D-02 at cycle   2 NSaved=   2.
 NSaved= 2 IEnMin= 2 EnMin= -1028.70178892277     IErMin= 2 ErrMin= 1.00D-02
 ErrMax= 1.00D-02  0.00D+00 EMaxC= 1.00D-01 BMatC= 5.73D-02 BMatP= 3.87D-01
 IDIUse=3 WtCom= 9.00D-01 WtEn= 1.00D-01
 Coeff-Com: -0.299D+00 0.130D+01
 Coeff-En:   0.000D+00 0.100D+01
 Coeff:     -0.269D+00 0.127D+01
 Gap=     0.302 Goal=   None    Shift=    0.000
 RMSDP=1.13D-03 MaxDP=2.26D-02 DE=-1.16D-01 OVMax= 1.11D-01

 Cycle   3  Pass 1  IDiag  1:
 RMSU=  1.08D-03    CP:  9.91D-01  1.20D+00
 E= -1028.80434995331     Delta-E=       -0.102561030544 Rises=F Damp=F
 DIIS: error= 5.19D-03 at cycle   3 NSaved=   3.
 NSaved= 3 IEnMin= 3 EnMin= -1028.80434995331     IErMin= 3 ErrMin= 5.19D-03
 ErrMax= 5.19D-03  0.00D+00 EMaxC= 1.00D-01 BMatC= 1.27D-02 BMatP= 5.73D-02
 IDIUse=3 WtCom= 9.48D-01 WtEn= 5.19D-02
 Coeff-Com: -0.202D+00 0.475D+00 0.727D+00
 Coeff-En:   0.000D+00 0.000D+00 0.100D+01
 Coeff:     -0.191D+00 0.451D+00 0.741D+00
 Gap=     0.263 Goal=   None    Shift=    0.000
 RMSDP=4.92D-04 MaxDP=1.77D-02 DE=-1.03D-01 OVMax= 3.75D-02

 Cycle   4  Pass 1  IDiag  1:
 RMSU=  3.76D-04    CP:  9.89D-01  1.36D+00  8.59D-01
 E= -1028.81647963671     Delta-E=       -0.012129683399 Rises=F Damp=F
 DIIS: error= 1.87D-03 at cycle   4 NSaved=   4.
 NSaved= 4 IEnMin= 4 EnMin= -1028.81647963671     IErMin= 4 ErrMin= 1.87D-03
 ErrMax= 1.87D-03  0.00D+00 EMaxC= 1.00D-01 BMatC= 1.41D-03 BMatP= 1.27D-02
 IDIUse=3 WtCom= 9.81D-01 WtEn= 1.87D-02
 Coeff-Com: -0.726D-01 0.143D+00 0.347D+00 0.582D+00
 Coeff-En:   0.000D+00 0.000D+00 0.000D+00 0.100D+01
 Coeff:     -0.712D-01 0.141D+00 0.341D+00 0.590D+00
 Gap=     0.261 Goal=   None    Shift=    0.000
 RMSDP=1.49D-04 MaxDP=8.41D-03 DE=-1.21D-02 OVMax= 1.07D-02

 Cycle   5  Pass 1  IDiag  1:
 RMSU=  9.95D-05    CP:  9.89D-01  1.37D+00  9.21D-01  7.69D-01
 E= -1028.81795058710     Delta-E=       -0.001470950385 Rises=F Damp=F
 DIIS: error= 3.24D-04 at cycle   5 NSaved=   5.
 NSaved= 5 IEnMin= 5 EnMin= -1028.81795058710     IErMin= 5 ErrMin= 3.24D-04
 ErrMax= 3.24D-04  0.00D+00 EMaxC= 1.00D-01 BMatC= 5.05D-05 BMatP= 1.41D-03
 IDIUse=3 WtCom= 9.97D-01 WtEn= 3.24D-03
 Coeff-Com: -0.146D-02-0.296D-02 0.350D-01 0.167D+00 0.803D+00
 Coeff-En:   0.000D+00 0.000D+00 0.000D+00 0.000D+00 0.100D+01
 Coeff:     -0.146D-02-0.295D-02 0.349D-01 0.166D+00 0.804D+00
 Gap=     0.262 Goal=   None    Shift=    0.000
 RMSDP=4.95D-05 MaxDP=1.52D-03 DE=-1.47D-03 OVMax= 4.71D-03

 Cycle   6  Pass 1  IDiag  1:
 RMSU=  3.28D-05    CP:  9.89D-01  1.38D+00  9.39D-01  8.49D-01  1.07D+00
 E= -1028.81805142607     Delta-E=       -0.000100838971 Rises=F Damp=F
 DIIS: error= 1.68D-04 at cycle   6 NSaved=   6.
 NSaved= 6 IEnMin= 6 EnMin= -1028.81805142607     IErMin= 6 ErrMin= 1.68D-04
 ErrMax= 1.68D-04  0.00D+00 EMaxC= 1.00D-01 BMatC= 8.00D-06 BMatP= 5.05D-05
 IDIUse=3 WtCom= 9.98D-01 WtEn= 1.68D-03
 Coeff-Com:  0.143D-01-0.295D-01-0.550D-01-0.551D-01 0.216D+00 0.909D+00
 Coeff-En:   0.000D+00 0.000D+00 0.000D+00 0.000D+00 0.000D+00 0.100D+01
 Coeff:      0.143D-01-0.295D-01-0.549D-01-0.550D-01 0.216D+00 0.909D+00
 Gap=     0.262 Goal=   None    Shift=    0.000
 RMSDP=2.84D-05 MaxDP=1.47D-03 DE=-1.01D-04 OVMax= 2.30D-03

 Cycle   7  Pass 1  IDiag  1:
 RMSU=  1.55D-05    CP:  9.89D-01  1.38D+00  9.50D-01  8.80D-01  1.23D+00
                    CP:  1.18D+00
 E= -1028.81807536690     Delta-E=       -0.000023940827 Rises=F Damp=F
 DIIS: error= 8.05D-05 at cycle   7 NSaved=   7.
 NSaved= 7 IEnMin= 7 EnMin= -1028.81807536690     IErMin= 7 ErrMin= 8.05D-05
 ErrMax= 8.05D-05  0.00D+00 EMaxC= 1.00D-01 BMatC= 1.98D-06 BMatP= 8.00D-06
 IDIUse=1 WtCom= 1.00D+00 WtEn= 0.00D+00
 Coeff-Com:  0.658D-02-0.126D-01-0.291D-01-0.464D-01-0.171D-01 0.402D+00
 Coeff-Com:  0.696D+00
 Coeff:      0.658D-02-0.126D-01-0.291D-01-0.464D-01-0.171D-01 0.402D+00
 Coeff:      0.696D+00
 Gap=     0.262 Goal=   None    Shift=    0.000
 RMSDP=9.60D-06 MaxDP=4.16D-04 DE=-2.39D-05 OVMax= 1.05D-03

 Cycle   8  Pass 1  IDiag  1:
 RMSU=  5.82D-06    CP:  9.89D-01  1.38D+00  9.51D-01  8.86D-01  1.26D+00
                    CP:  1.36D+00  1.07D+00
 E= -1028.81807907657     Delta-E=       -0.000003709670 Rises=F Damp=F
 DIIS: error= 2.63D-05 at cycle   8 NSaved=   8.
 NSaved= 8 IEnMin= 8 EnMin= -1028.81807907657     IErMin= 8 ErrMin= 2.63D-05
 ErrMax= 2.63D-05  0.00D+00 EMaxC= 1.00D-01 BMatC= 2.22D-07 BMatP= 1.98D-06
 IDIUse=1 WtCom= 1.00D+00 WtEn= 0.00D+00
 Coeff-Com: -0.122D-02 0.269D-02 0.370D-02 0.105D-02-0.404D-01-0.587D-01
 Coeff-Com:  0.206D+00 0.887D+00
 Coeff:     -0.122D-02 0.269D-02 0.370D-02 0.105D-02-0.404D-01-0.587D-01
 Coeff:      0.206D+00 0.887D+00
 Gap=     0.262 Goal=   None    Shift=    0.000
 RMSDP=4.25D-06 MaxDP=1.33D-04 DE=-3.71D-06 OVMax= 5.40D-04

 Cycle   9  Pass 1  IDiag  1:
 RMSU=  2.03D-06    CP:  9.89D-01  1.38D+00  9.51D-01  8.86D-01  1.27D+00
                    CP:  1.42D+00  1.27D+00  1.12D+00
 E= -1028.81807968469     Delta-E=       -0.000000608127 Rises=F Damp=F
 DIIS: error= 1.47D-05 at cycle   9 NSaved=   9.
 NSaved= 9 IEnMin= 9 EnMin= -1028.81807968469     IErMin= 9 ErrMin= 1.47D-05
 ErrMax= 1.47D-05  0.00D+00 EMaxC= 1.00D-01 BMatC= 2.98D-08 BMatP= 2.22D-07
 IDIUse=1 WtCom= 1.00D+00 WtEn= 0.00D+00
 Coeff-Com: -0.104D-02 0.207D-02 0.416D-02 0.586D-02-0.100D-01-0.688D-01
 Coeff-Com: -0.214D-01 0.240D+00 0.849D+00
 Coeff:     -0.104D-02 0.207D-02 0.416D-02 0.586D-02-0.100D-01-0.688D-01
 Coeff:     -0.214D-01 0.240D+00 0.849D+00
 Gap=     0.262 Goal=   None    Shift=    0.000
 RMSDP=1.78D-06 MaxDP=5.51D-05 DE=-6.08D-07 OVMax= 2.29D-04

 Cycle  10  Pass 1  IDiag  1:
 RMSU=  8.58D-07    CP:  9.89D-01  1.38D+00  9.51D-01  8.85D-01  1.27D+00
                    CP:  1.45D+00  1.33D+00  1.27D+00  1.20D+00
 E= -1028.81807979191     Delta-E=       -0.000000107216 Rises=F Damp=F
 DIIS: error= 6.09D-06 at cycle  10 NSaved=  10.
 NSaved=10 IEnMin=10 EnMin= -1028.81807979191     IErMin=10 ErrMin= 6.09D-06
 ErrMax= 6.09D-06  0.00D+00 EMaxC= 1.00D-01 BMatC= 5.96D-09 BMatP= 2.98D-08
 IDIUse=1 WtCom= 1.00D+00 WtEn= 0.00D+00
 Coeff-Com: -0.114D-03 0.190D-03 0.647D-03 0.190D-02 0.349D-02-0.150D-01
 Coeff-Com: -0.354D-01-0.744D-01 0.258D+00 0.860D+00
 Coeff:     -0.114D-03 0.190D-03 0.647D-03 0.190D-02 0.349D-02-0.150D-01
 Coeff:     -0.354D-01-0.744D-01 0.258D+00 0.860D+00
 Gap=     0.262 Goal=   None    Shift=    0.000
 RMSDP=8.68D-07 MaxDP=2.39D-05 DE=-1.07D-07 OVMax= 1.46D-04

 Cycle  11  Pass 1  IDiag  1:
 RMSU=  3.94D-07    CP:  9.89D-01  1.38D+00  9.51D-01  8.86D-01  1.28D+00
                    CP:  1.45D+00  1.35D+00  1.32D+00  1.45D+00  1.23D+00
 E= -1028.81807981672     Delta-E=       -0.000000024810 Rises=F Damp=F
 DIIS: error= 3.40D-06 at cycle  11 NSaved=  11.
 NSaved=11 IEnMin=11 EnMin= -1028.81807981672     IErMin=11 ErrMin= 3.40D-06
 ErrMax= 3.40D-06  0.00D+00 EMaxC= 1.00D-01 BMatC= 1.54D-09 BMatP= 5.96D-09
 IDIUse=1 WtCom= 1.00D+00 WtEn= 0.00D+00
 Coeff-Com:  0.177D-03-0.366D-03-0.643D-03-0.439D-03 0.336D-02 0.659D-02
 Coeff-Com: -0.421D-02-0.693D-01-0.790D-01 0.297D+00 0.846D+00
 Coeff:      0.177D-03-0.366D-03-0.643D-03-0.439D-03 0.336D-02 0.659D-02
 Coeff:     -0.421D-02-0.693D-01-0.790D-01 0.297D+00 0.846D+00
 Gap=     0.262 Goal=   None    Shift=    0.000
 RMSDP=4.04D-07 MaxDP=9.85D-06 DE=-2.48D-08 OVMax= 6.64D-05

 Cycle  12  Pass 1  IDiag  1:
 RMSU=  1.65D-07    CP:  9.89D-01  1.38D+00  9.51D-01  8.86D-01  1.28D+00
                    CP:  1.45D+00  1.36D+00  1.34D+00  1.56D+00  1.50D+00
                    CP:  1.15D+00
 E= -1028.81807982241     Delta-E=       -0.000000005689 Rises=F Damp=F
 DIIS: error= 1.46D-06 at cycle  12 NSaved=  12.
 NSaved=12 IEnMin=12 EnMin= -1028.81807982241     IErMin=12 ErrMin= 1.46D-06
 ErrMax= 1.46D-06  0.00D+00 EMaxC= 1.00D-01 BMatC= 3.38D-10 BMatP= 1.54D-09
 IDIUse=1 WtCom= 1.00D+00 WtEn= 0.00D+00
 Coeff-Com:  0.105D-03-0.205D-03-0.449D-03-0.671D-03 0.874D-03 0.640D-02
 Coeff-Com:  0.810D-02-0.141D-01-0.107D+00-0.870D-01 0.337D+00 0.857D+00
 Coeff:      0.105D-03-0.205D-03-0.449D-03-0.671D-03 0.874D-03 0.640D-02
 Coeff:      0.810D-02-0.141D-01-0.107D+00-0.870D-01 0.337D+00 0.857D+00
 Gap=     0.262 Goal=   None    Shift=    0.000
 RMSDP=2.29D-07 MaxDP=7.03D-06 DE=-5.69D-09 OVMax= 3.82D-05

 Cycle  13  Pass 1  IDiag  1:
 RMSU=  6.95D-08    CP:  9.89D-01  1.38D+00  9.51D-01  8.86D-01  1.28D+00
                    CP:  1.45D+00  1.36D+00  1.35D+00  1.62D+00  1.64D+00
                    CP:  1.43D+00  1.16D+00
 E= -1028.81807982377     Delta-E=       -0.000000001366 Rises=F Damp=F
 DIIS: error= 3.42D-07 at cycle  13 NSaved=  13.
 NSaved=13 IEnMin=13 EnMin= -1028.81807982377     IErMin=13 ErrMin= 3.42D-07
 ErrMax= 3.42D-07  0.00D+00 EMaxC= 1.00D-01 BMatC= 4.95D-11 BMatP= 3.38D-10
 IDIUse=1 WtCom= 1.00D+00 WtEn= 0.00D+00
 Coeff-Com: -0.191D-05 0.663D-05-0.151D-04-0.116D-03-0.190D-03 0.713D-03
 Coeff-Com:  0.374D-02 0.730D-02-0.186D-01-0.765D-01-0.576D-01 0.279D+00
 Coeff-Com:  0.863D+00
 Coeff:     -0.191D-05 0.663D-05-0.151D-04-0.116D-03-0.190D-03 0.713D-03
 Coeff:      0.374D-02 0.730D-02-0.186D-01-0.765D-01-0.576D-01 0.279D+00
 Coeff:      0.863D+00
 Gap=     0.262 Goal=   None    Shift=    0.000
 RMSDP=7.50D-08 MaxDP=1.72D-06 DE=-1.37D-09 OVMax= 1.10D-05

 Cycle  14  Pass 1  IDiag  1:
 RMSU=  2.74D-08    CP:  9.89D-01  1.38D+00  9.51D-01  8.86D-01  1.28D+00
                    CP:  1.45D+00  1.36D+00  1.35D+00  1.64D+00  1.68D+00
                    CP:  1.51D+00  1.37D+00  1.17D+00
 E= -1028.81807982391     Delta-E=       -0.000000000131 Rises=F Damp=F
 DIIS: error= 1.42D-07 at cycle  14 NSaved=  14.
 NSaved=14 IEnMin=14 EnMin= -1028.81807982391     IErMin=14 ErrMin= 1.42D-07
 ErrMax= 1.42D-07  0.00D+00 EMaxC= 1.00D-01 BMatC= 6.89D-12 BMatP= 4.95D-11
 IDIUse=1 WtCom= 1.00D+00 WtEn= 0.00D+00
 Coeff-Com: -0.112D-04 0.231D-04 0.397D-04 0.209D-04-0.149D-03-0.435D-03
 Coeff-Com:  0.675D-03 0.423D-02 0.451D-02-0.185D-01-0.584D-01 0.266D-01
 Coeff-Com:  0.351D+00 0.691D+00
 Coeff:     -0.112D-04 0.231D-04 0.397D-04 0.209D-04-0.149D-03-0.435D-03
 Coeff:      0.675D-03 0.423D-02 0.451D-02-0.185D-01-0.584D-01 0.266D-01
 Coeff:      0.351D+00 0.691D+00
 Gap=     0.262 Goal=   None    Shift=    0.000
 RMSDP=1.56D-08 MaxDP=5.58D-07 DE=-1.31D-10 OVMax= 1.76D-06

 Cycle  15  Pass 1  IDiag  1:
 RMSU=  1.08D-08    CP:  9.89D-01  1.38D+00  9.51D-01  8.86D-01  1.28D+00
                    CP:  1.45D+00  1.36D+00  1.35D+00  1.64D+00  1.69D+00
                    CP:  1.52D+00  1.40D+00  1.28D+00  9.95D-01
 E= -1028.81807982392     Delta-E=       -0.000000000017 Rises=F Damp=F
 DIIS: error= 5.02D-08 at cycle  15 NSaved=  15.
 NSaved=15 IEnMin=15 EnMin= -1028.81807982392     IErMin=15 ErrMin= 5.02D-08
 ErrMax= 5.02D-08  0.00D+00 EMaxC= 1.00D-01 BMatC= 9.55D-13 BMatP= 6.89D-12
 IDIUse=1 WtCom= 1.00D+00 WtEn= 0.00D+00
 Coeff-Com: -0.339D-05 0.638D-05 0.173D-04 0.292D-04-0.181D-04-0.313D-03
 Coeff-Com: -0.546D-03-0.876D-04 0.477D-02 0.898D-02-0.947D-02-0.466D-01
 Coeff-Com: -0.625D-01 0.216D+00 0.890D+00
 Coeff:     -0.339D-05 0.638D-05 0.173D-04 0.292D-04-0.181D-04-0.313D-03
 Coeff:     -0.546D-03-0.876D-04 0.477D-02 0.898D-02-0.947D-02-0.466D-01
 Coeff:     -0.625D-01 0.216D+00 0.890D+00
 Gap=     0.262 Goal=   None    Shift=    0.000
 RMSDP=9.57D-09 MaxDP=2.15D-07 DE=-1.71D-11 OVMax= 1.21D-06

 Error on total polarization charges =  0.00819
 SCF Done:  E(RwB97XD) =  -1028.81807982     A.U. after   15 cycles
            NFock= 15  Conv=0.96D-08     -V/T= 2.0049
 KE= 1.023765972978D+03 PE=-4.606392827831D+03 EE= 1.456717005573D+03
 Leave Link  502 at Tue Oct 27 22:04:05 2020, MaxMem=  7784628224 cpu:             834.4 elap:              86.2
 (Enter /gpfs/loomis/apps/avx/software/Gaussian/16-C.01_AVX/g16/l601.exe)
 Copying SCF densities to generalized density rwf, IOpCl= 0 IROHF=0.

 **********************************************************************

            Population analysis using the SCF Density.

 **********************************************************************

 Alpha  occ. eigenvalues --  -89.09303 -19.27138 -14.47176 -10.40063 -10.37897
 Alpha  occ. eigenvalues --  -10.35208 -10.34966 -10.32430 -10.32373 -10.32213
 Alpha  occ. eigenvalues --  -10.31828 -10.31647 -10.31564 -10.31486 -10.30295
 Alpha  occ. eigenvalues --  -10.30109  -8.11238  -6.06093  -6.05746  -6.05292
 Alpha  occ. eigenvalues --   -1.16896  -1.08702  -0.96791  -0.95594  -0.91875
 Alpha  occ. eigenvalues --   -0.88852  -0.85008  -0.84280  -0.82495  -0.76014
 Alpha  occ. eigenvalues --   -0.71070  -0.70274  -0.69192  -0.68386  -0.63644
 Alpha  occ. eigenvalues --   -0.60551  -0.58946  -0.58556  -0.55759  -0.54421
 Alpha  occ. eigenvalues --   -0.54072  -0.53080  -0.52913  -0.51084  -0.50250
 Alpha  occ. eigenvalues --   -0.49575  -0.47601  -0.46018  -0.45563  -0.44800
 Alpha  occ. eigenvalues --   -0.43853  -0.42757  -0.42563  -0.40136  -0.36590
 Alpha  occ. eigenvalues --   -0.36494  -0.32342  -0.31272  -0.27961
 Alpha virt. eigenvalues --   -0.01722   0.04939   0.06967   0.07350   0.07375
 Alpha virt. eigenvalues --    0.10968   0.13628   0.15109   0.16120   0.17977
 Alpha virt. eigenvalues --    0.18684   0.21010   0.21775   0.22388   0.22584
 Alpha virt. eigenvalues --    0.23584   0.24218   0.24401   0.28453   0.30498
 Alpha virt. eigenvalues --    0.32169   0.33203   0.35241   0.36184   0.37030
 Alpha virt. eigenvalues --    0.37943   0.38604   0.40739   0.43601   0.44516
 Alpha virt. eigenvalues --    0.47408   0.47753   0.50207   0.51629   0.51674
 Alpha virt. eigenvalues --    0.52195   0.53395   0.54166   0.55080   0.55581
 Alpha virt. eigenvalues --    0.55955   0.56303   0.56918   0.57628   0.58181
 Alpha virt. eigenvalues --    0.58533   0.58735   0.59033   0.59710   0.60210
 Alpha virt. eigenvalues --    0.60482   0.60614   0.62218   0.62339   0.63124
 Alpha virt. eigenvalues --    0.64528   0.65657   0.66650   0.67751   0.69068
 Alpha virt. eigenvalues --    0.70322   0.70339   0.72134   0.72696   0.72917
 Alpha virt. eigenvalues --    0.73029   0.74387   0.75369   0.76217   0.77555
 Alpha virt. eigenvalues --    0.78996   0.79342   0.80010   0.82074   0.82237
 Alpha virt. eigenvalues --    0.83166   0.88698   0.89737   0.91639   0.93326
 Alpha virt. eigenvalues --    0.94859   0.95158   0.95964   0.96559   0.96973
 Alpha virt. eigenvalues --    0.98379   0.99008   1.00148   1.00235   1.01782
 Alpha virt. eigenvalues --    1.02616   1.05053   1.06146   1.07514   1.07976
 Alpha virt. eigenvalues --    1.08300   1.08520   1.09727   1.10928   1.11759
 Alpha virt. eigenvalues --    1.12083   1.12521   1.13160   1.15042   1.15516
 Alpha virt. eigenvalues --    1.16049   1.19206   1.20390   1.22393   1.23454
 Alpha virt. eigenvalues --    1.25715   1.28448   1.33400   1.34205   1.34766
 Alpha virt. eigenvalues --    1.35412   1.36234   1.38430   1.41905   1.46564
 Alpha virt. eigenvalues --    1.47726   1.49060   1.50812   1.54531   1.54727
 Alpha virt. eigenvalues --    1.55332   1.56307   1.57097   1.57154   1.58092
 Alpha virt. eigenvalues --    1.59075   1.59591   1.62879   1.66301   1.66420
 Alpha virt. eigenvalues --    1.68740   1.69124   1.69837   1.70340   1.71209
 Alpha virt. eigenvalues --    1.72079   1.72637   1.73096   1.73536   1.74446
 Alpha virt. eigenvalues --    1.76709   1.77430   1.80210   1.81021   1.82240
 Alpha virt. eigenvalues --    1.82797   1.83448   1.85003   1.85226   1.85343
 Alpha virt. eigenvalues --    1.86985   1.88416   1.88582   1.89359   1.92116
 Alpha virt. eigenvalues --    1.92417   1.93005   1.93433   1.94697   1.95122
 Alpha virt. eigenvalues --    1.99532   2.00452   2.02201   2.03880   2.03911
 Alpha virt. eigenvalues --    2.05502   2.07984   2.08826   2.11312   2.12908
 Alpha virt. eigenvalues --    2.13749   2.17348   2.20765   2.21448   2.24371
 Alpha virt. eigenvalues --    2.26664   2.29077   2.35397   2.38482   2.40399
 Alpha virt. eigenvalues --    2.40984   2.41219   2.44942   2.46074   2.47394
 Alpha virt. eigenvalues --    2.48118   2.50826   2.52852   2.53434   2.62269
 Alpha virt. eigenvalues --    2.62989   2.72234   2.73339   2.74985   2.80513
 Alpha virt. eigenvalues --    2.81816   2.84116   2.85791   2.90309   2.93790
 Alpha virt. eigenvalues --    3.00637   3.04313   3.07522   3.20062   3.35522
 Alpha virt. eigenvalues --    3.48245   3.56867   3.63937   3.96039
          Condensed to atoms (all electrons):
               1          2          3          4          5          6
     1  C    4.738292   0.467544   0.005871  -0.051784  -0.013260   0.525083
     2  C    0.467544   5.319055   0.343285  -0.042541  -0.064706  -0.010245
     3  C    0.005871   0.343285   4.753020   0.499911  -0.006119  -0.063550
     4  C   -0.051784  -0.042541   0.499911   4.773153   0.524833  -0.014861
     5  C   -0.013260  -0.064706  -0.006119   0.524833   4.729693   0.491815
     6  C    0.525083  -0.010245  -0.063550  -0.014861   0.491815   4.743857
     7  H    0.402030  -0.039102   0.008386  -0.000483   0.008114  -0.039037
     8  H   -0.000845   0.011633  -0.029275   0.392623  -0.043794   0.007792
     9  H    0.008760  -0.000580   0.008572  -0.039121   0.404923  -0.045096
    10  H   -0.042059   0.009647  -0.000570   0.008707  -0.043731   0.406025
    11  N    0.007126  -0.058582   0.459470  -0.038917   0.003057   0.000137
    12  S   -0.063541   0.342308  -0.107253   0.006413   0.000230   0.003524
    13  C   -0.000166   0.003414   0.008615  -0.000766   0.000009   0.000001
    14  C   -0.000005   0.000054   0.000170   0.000006  -0.000000  -0.000000
    15  C    0.000003  -0.000267   0.000245   0.000063  -0.000000   0.000000
    16  C    0.000000  -0.000002   0.000004  -0.000000   0.000000   0.000000
    17  H   -0.000003   0.000058   0.000002  -0.000000   0.000000  -0.000000
    18  C    0.000000   0.000006  -0.000027  -0.000000  -0.000000   0.000000
    19  C   -0.000000   0.000000   0.000001  -0.000000   0.000000   0.000000
    20  H   -0.000000  -0.000000  -0.000000   0.000000   0.000000  -0.000000
    21  H   -0.000000  -0.000000   0.000001  -0.000000   0.000000   0.000000
    22  H    0.000000  -0.000000  -0.000000  -0.000000   0.000000  -0.000000
    23  C    0.004105  -0.053080  -0.122932   0.000758   0.000225  -0.000161
    24  O    0.000001  -0.000034  -0.002018  -0.000093  -0.000001  -0.000000
    25  H   -0.000063   0.003304  -0.008863  -0.001353  -0.000007   0.000012
               7          8          9         10         11         12
     1  C    0.402030  -0.000845   0.008760  -0.042059   0.007126  -0.063541
     2  C   -0.039102   0.011633  -0.000580   0.009647  -0.058582   0.342308
     3  C    0.008386  -0.029275   0.008572  -0.000570   0.459470  -0.107253
     4  C   -0.000483   0.392623  -0.039121   0.008707  -0.038917   0.006413
     5  C    0.008114  -0.043794   0.404923  -0.043731   0.003057   0.000230
     6  C   -0.039037   0.007792  -0.045096   0.406025   0.000137   0.003524
     7  H    0.659628   0.000034  -0.000147  -0.012021  -0.000121  -0.006677
     8  H    0.000034   0.656066  -0.012257  -0.000128  -0.001844  -0.000165
     9  H   -0.000147  -0.012257   0.667137  -0.012333  -0.000113   0.000022
    10  H   -0.012021  -0.000128  -0.012333   0.665112   0.000000  -0.000143
    11  N   -0.000121  -0.001844  -0.000113   0.000000   6.498701  -0.070673
    12  S   -0.006677  -0.000165   0.000022  -0.000143  -0.070673  15.467987
    13  C    0.000005   0.000050  -0.000000  -0.000000  -0.017508  -0.061424
    14  C    0.000000   0.000001   0.000000  -0.000000   0.003262  -0.005786
    15  C   -0.000000  -0.000028   0.000000   0.000000  -0.015820   0.003839
    16  C   -0.000000  -0.000000  -0.000000   0.000000  -0.000096  -0.000057
    17  H    0.000001   0.000000  -0.000000  -0.000000   0.000217   0.006318
    18  C   -0.000000  -0.000000  -0.000000  -0.000000  -0.000545  -0.000111
    19  C    0.000000   0.000000  -0.000000  -0.000000   0.000054   0.000020
    20  H   -0.000000  -0.000000   0.000000   0.000000   0.000001   0.000000
    21  H   -0.000000   0.000000  -0.000000   0.000000   0.000020   0.000003
    22  H    0.000000  -0.000000  -0.000000  -0.000000  -0.000000  -0.000000
    23  C    0.000076  -0.000902   0.000007   0.000004   0.533162   0.318598
    24  O   -0.000000  -0.000231   0.000000  -0.000000  -0.076497  -0.000291
    25  H    0.000001   0.001408  -0.000006   0.000000   0.121295   0.002850
              13         14         15         16         17         18
     1  C   -0.000166  -0.000005   0.000003   0.000000  -0.000003   0.000000
     2  C    0.003414   0.000054  -0.000267  -0.000002   0.000058   0.000006
     3  C    0.008615   0.000170   0.000245   0.000004   0.000002  -0.000027
     4  C   -0.000766   0.000006   0.000063  -0.000000  -0.000000  -0.000000
     5  C    0.000009  -0.000000  -0.000000   0.000000   0.000000  -0.000000
     6  C    0.000001  -0.000000   0.000000   0.000000  -0.000000   0.000000
     7  H    0.000005   0.000000  -0.000000  -0.000000   0.000001  -0.000000
     8  H    0.000050   0.000001  -0.000028  -0.000000   0.000000  -0.000000
     9  H   -0.000000   0.000000   0.000000  -0.000000  -0.000000  -0.000000
    10  H   -0.000000  -0.000000   0.000000   0.000000  -0.000000  -0.000000
    11  N   -0.017508   0.003262  -0.015820  -0.000096   0.000217  -0.000545
    12  S   -0.061424  -0.005786   0.003839  -0.000057   0.006318  -0.000111
    13  C    5.316522   0.484128   0.277692  -0.007896  -0.038862  -0.048037
    14  C    0.484128   4.796106  -0.002162   0.529057   0.401455  -0.054206
    15  C    0.277692  -0.002162   4.784620  -0.061761   0.007565   0.504112
    16  C   -0.007896   0.529057  -0.061761   4.751163  -0.035353  -0.018587
    17  H   -0.038862   0.401455   0.007565  -0.035353   0.673190  -0.000729
    18  C   -0.048037  -0.054206   0.504112  -0.018587  -0.000729   4.804327
    19  C   -0.049741  -0.017879  -0.009647   0.491287   0.008391   0.514879
    20  H    0.008823  -0.035822  -0.000242   0.401425  -0.012711   0.008388
    21  H    0.012671  -0.000476  -0.023188   0.007267   0.000043   0.378702
    22  H   -0.001108   0.009136   0.009060  -0.044086  -0.000157  -0.041639
    23  C    0.324411  -0.091366  -0.077030   0.007232  -0.019920   0.007083
    24  O   -0.085138   0.004036   0.529614   0.000007  -0.000059  -0.059158
    25  H   -0.027784  -0.000741  -0.022408  -0.000032   0.000005   0.004891
              19         20         21         22         23         24
     1  C   -0.000000  -0.000000  -0.000000   0.000000   0.004105   0.000001
     2  C    0.000000  -0.000000  -0.000000  -0.000000  -0.053080  -0.000034
     3  C    0.000001  -0.000000   0.000001  -0.000000  -0.122932  -0.002018
     4  C   -0.000000   0.000000  -0.000000  -0.000000   0.000758  -0.000093
     5  C    0.000000   0.000000   0.000000   0.000000   0.000225  -0.000001
     6  C    0.000000  -0.000000   0.000000  -0.000000  -0.000161  -0.000000
     7  H    0.000000  -0.000000  -0.000000   0.000000   0.000076  -0.000000
     8  H    0.000000  -0.000000   0.000000  -0.000000  -0.000902  -0.000231
     9  H   -0.000000   0.000000  -0.000000  -0.000000   0.000007   0.000000
    10  H   -0.000000   0.000000   0.000000  -0.000000   0.000004  -0.000000
    11  N    0.000054   0.000001   0.000020  -0.000000   0.533162  -0.076497
    12  S    0.000020   0.000000   0.000003  -0.000000   0.318598  -0.000291
    13  C   -0.049741   0.008823   0.012671  -0.001108   0.324411  -0.085138
    14  C   -0.017879  -0.035822  -0.000476   0.009136  -0.091366   0.004036
    15  C   -0.009647  -0.000242  -0.023188   0.009060  -0.077030   0.529614
    16  C    0.491287   0.401425   0.007267  -0.044086   0.007232   0.000007
    17  H    0.008391  -0.012711   0.000043  -0.000157  -0.019920  -0.000059
    18  C    0.514879   0.008388   0.378702  -0.041639   0.007083  -0.059158
    19  C    4.720030  -0.046971  -0.044678   0.406380   0.000525   0.003070
    20  H   -0.046971   0.679325  -0.000161  -0.012038  -0.000346   0.000002
    21  H   -0.044678  -0.000161   0.662279  -0.012031  -0.000418   0.003173
    22  H    0.406380  -0.012038  -0.012031   0.664618   0.000003  -0.000066
    23  C    0.000525  -0.000346  -0.000418   0.000003   5.093268  -0.001365
    24  O    0.003070   0.000002   0.003173  -0.000066  -0.001365   7.563717
    25  H   -0.000191  -0.000001   0.000032   0.000009  -0.001110   0.332261
              25
     1  C   -0.000063
     2  C    0.003304
     3  C   -0.008863
     4  C   -0.001353
     5  C   -0.000007
     6  C    0.000012
     7  H    0.000001
     8  H    0.001408
     9  H   -0.000006
    10  H    0.000000
    11  N    0.121295
    12  S    0.002850
    13  C   -0.027784
    14  C   -0.000741
    15  C   -0.022408
    16  C   -0.000032
    17  H    0.000005
    18  C    0.004891
    19  C   -0.000191
    20  H   -0.000001
    21  H    0.000032
    22  H    0.000009
    23  C   -0.001110
    24  O    0.332261
    25  H    0.429479
 Mulliken charges:
               1
     1  C    0.012910
     2  C   -0.231170
     3  C    0.253054
     4  C   -0.016547
     5  C    0.008719
     6  C   -0.005294
     7  H    0.019312
     8  H    0.019860
     9  H    0.020233
    10  H    0.021491
    11  N   -0.345787
    12  S    0.164007
    13  C   -0.097914
    14  C   -0.018968
    15  C    0.095739
    16  C   -0.019574
    17  H    0.010547
    18  C    0.000652
    19  C    0.024469
    20  H    0.010330
    21  H    0.016759
    22  H    0.021919
    23  C    0.079175
    24  O   -0.210933
    25  H    0.167011
 Sum of Mulliken charges =  -0.00000
 Mulliken charges with hydrogens summed into heavy atoms:
               1
     1  C    0.032223
     2  C   -0.231170
     3  C    0.253054
     4  C    0.003313
     5  C    0.028951
     6  C    0.016197
    11  N   -0.345787
    12  S    0.164007
    13  C   -0.097914
    14  C   -0.008421
    15  C    0.095739
    16  C   -0.009244
    18  C    0.017411
    19  C    0.046388
    23  C    0.079175
    24  O   -0.043922
 Electronic spatial extent (au):  <R**2>=           4349.8654
 Charge=             -0.0000 electrons
 Dipole moment (field-independent basis, Debye):
    X=             -0.1218    Y=             -2.4230    Z=             -0.0000  Tot=              2.4261
 Quadrupole moment (field-independent basis, Debye-Ang):
   XX=            -83.3109   YY=            -89.4743   ZZ=           -104.3374
   XY=             -7.0176   XZ=             -0.0001   YZ=              0.0002
 Traceless Quadrupole moment (field-independent basis, Debye-Ang):
   XX=              9.0633   YY=              2.8999   ZZ=            -11.9632
   XY=             -7.0176   XZ=             -0.0001   YZ=              0.0002
 Octapole moment (field-independent basis, Debye-Ang**2):
  XXX=             13.1811  YYY=            -20.5075  ZZZ=             -0.0000  XYY=             -5.6233
  XXY=              1.1931  XXZ=              0.0001  XZZ=              1.1432  YZZ=              2.6867
  YYZ=              0.0006  XYZ=             -0.0006
 Hexadecapole moment (field-independent basis, Debye-Ang**3):
 XXXX=          -2607.4165 YYYY=          -2613.5396 ZZZZ=           -113.4977 XXXY=            807.1762
 XXXZ=              0.0097 YYYX=            765.0000 YYYZ=             -0.0116 ZZZX=              0.0132
 ZZZY=             -0.0183 XXYY=           -848.2184 XXZZ=           -572.1300 YYZZ=           -550.6103
 XXYZ=             -0.0030 YYXZ=              0.0003 ZZXY=            356.9889
 N-N= 1.097091769456D+03 E-N=-4.606392824277D+03  KE= 1.023765972978D+03
 No NMR shielding tensors so no spin-rotation constants.
 Leave Link  601 at Tue Oct 27 22:04:07 2020, MaxMem=  7784628224 cpu:               3.9 elap:               0.7
 (Enter /gpfs/loomis/apps/avx/software/Gaussian/16-C.01_AVX/g16/l701.exe)
 ... and contract with generalized density number  0.
 Compute integral first derivatives.
 R6Disp: Adding Grimme-D2 dispersion energy 1st derivatives to the gradient.
 D1PCM: PCM CHGder 1st derivatives, ID1Alg=3 FixD1E=F DoIter=F DoCFld=F I1PDM=0.
 GePol: Maximum number of non-zero 1st derivatives   =     268
 Leave Link  701 at Tue Oct 27 22:04:10 2020, MaxMem=  7784628224 cpu:              17.7 elap:               3.0
 (Enter /gpfs/loomis/apps/avx/software/Gaussian/16-C.01_AVX/g16/l702.exe)
 L702 exits ... SP integral derivatives will be done elsewhere.
 Leave Link  702 at Tue Oct 27 22:04:10 2020, MaxMem=  7784628224 cpu:               0.3 elap:               0.1
 (Enter /gpfs/loomis/apps/avx/software/Gaussian/16-C.01_AVX/g16/l703.exe)
 Integral derivatives from FoFJK, PRISM(SPDF).
 Compute integral first derivatives, UseDBF=F ICtDFT=           0.
 Calling FoFJK, ICntrl=      2127 FMM=F ISym2X=0 I1Cent= 0 IOpClX= 0 NMat=1 NMatS=1 NMatT=0.
 FoFJK:  IHMeth= 1 ICntrl=    2127 DoSepK=T KAlg= 0 I1Cent=           0 FoldK=F
 IRaf=         1 NMat=       1 IRICut=       1 DoRegI=T DoRafI=F ISym2E= 0 IDoP0=0 IntGTp=1.
 FoFCou: FMM=F IPFlag=           0 FMFlag=      100000 FMFlg1=         800
         NFxFlg=           0 DoJE=F BraDBF=F KetDBF=F FulRan=T
         wScrn=  0.000000 ICntrl=      2527 IOpCl=  0 I1Cent=           0 NGrid=           0
         NMat0=    1 NMatS0=      1 NMatT0=    0 NMatD0=    1 NMtDS0=    0 NMtDT0=    0
 Symmetry not used in FoFCou.
 Leave Link  703 at Tue Oct 27 22:04:26 2020, MaxMem=  7784628224 cpu:             135.8 elap:              15.9
 (Enter /gpfs/loomis/apps/avx/software/Gaussian/16-C.01_AVX/g16/l716.exe)
 Dipole        =-4.79114244D-02-9.53300378D-01-3.87030896D-06
 -------------------------------------------------------------------
 Center     Atomic                   Forces (Hartrees/Bohr)
 Number     Number              X              Y              Z
 -------------------------------------------------------------------
      1        6           0.004427176   -0.004039634    0.000000009
      2        6           0.004857486    0.010844901   -0.000000089
      3        6           0.015478429   -0.034173958   -0.000000273
      4        6          -0.011825721    0.001644042   -0.000000025
      5        6           0.000398053   -0.005243193    0.000000010
      6        6          -0.003950009    0.003131762   -0.000000016
      7        1           0.000320377    0.000004826   -0.000000036
      8        1          -0.000145279   -0.000224227   -0.000000004
      9        1          -0.000361379   -0.000048090    0.000000000
     10        1          -0.000310076    0.000160368    0.000000010
     11        7          -0.053206284    0.005183927    0.000000451
     12       16           0.005543436    0.011712266    0.000000105
     13        6          -0.014833032    0.049202189    0.000000646
     14        6           0.003132095    0.009128764    0.000000413
     15        6          -0.017900059   -0.031394846   -0.000000573
     16        6          -0.001211094   -0.002277369   -0.000000035
     17        1          -0.001142422   -0.000668462    0.000000021
     18        6          -0.005015403   -0.004027236    0.000000075
     19        6           0.008969148   -0.014495526   -0.000000478
     20        1           0.000426598   -0.000201934   -0.000000009
     21        1          -0.000261853   -0.000071312   -0.000000018
     22        1          -0.000234585    0.000278185   -0.000000056
     23        6           0.051232228   -0.014487821   -0.000000363
     24        8           0.012789571    0.013464136    0.000000274
     25        1           0.002822599    0.006598244   -0.000000039
 -------------------------------------------------------------------
 Cartesian Forces:  Max     0.053206284 RMS     0.012867599
 Leave Link  716 at Tue Oct 27 22:04:26 2020, MaxMem=  7784628224 cpu:               0.4 elap:               0.1
 (Enter /gpfs/loomis/apps/avx/software/Gaussian/16-C.01_AVX/g16/l103.exe)

 GradGradGradGradGradGradGradGradGradGradGradGradGradGradGradGradGradGrad
 Berny optimization.
 FormGI is forming the generalized inverse of G from B-inverse, IUseBI=4.
 Internal  Forces:  Max     0.042339325 RMS     0.006421524
 Search for a local minimum.
 Step number   1 out of a maximum of  143
 All quantities printed in internal units (Hartrees-Bohrs-Radians)
 RMS Force = .64703D-02 SwitMx=.10000D-02 MixMth= 1
 Mixed Optimization -- RFO/linear search
 Second derivative matrix not updated -- first step.
 ITU=  0
     Eigenvalues ---    0.01357   0.01388   0.01608   0.01671   0.01771
     Eigenvalues ---    0.01806   0.01866   0.01975   0.01989   0.02008
     Eigenvalues ---    0.02035   0.02045   0.02051   0.02069   0.02089
     Eigenvalues ---    0.02109   0.02127   0.02131   0.02147   0.02167
     Eigenvalues ---    0.02195   0.02988   0.16000   0.16000   0.16000
     Eigenvalues ---    0.16000   0.16000   0.16000   0.16000   0.16003
     Eigenvalues ---    0.16095   0.22000   0.22029   0.22524   0.22587
     Eigenvalues ---    0.24468   0.24556   0.25000   0.25000   0.25000
     Eigenvalues ---    0.27169   0.29063   0.32162   0.34616   0.34637
     Eigenvalues ---    0.34645   0.34690   0.34698   0.34712   0.34732
     Eigenvalues ---    0.34782   0.37499   0.39324   0.41088   0.41780
     Eigenvalues ---    0.41874   0.42948   0.43093   0.43845   0.44679
     Eigenvalues ---    0.45575   0.46136   0.46460   0.47982   0.50449
     Eigenvalues ---    0.54519   0.665051000.000001000.000001000.00000
     Eigenvalues --- 1000.000001000.000001000.000001000.000001000.00000
     Eigenvalues --- 1000.000001000.000001000.000001000.000001000.00000
     Eigenvalues --- 1000.000001000.000001000.000001000.000001000.00000
     Eigenvalues --- 1000.000001000.000001000.000001000.000001000.00000
     Eigenvalues --- 1000.000001000.000001000.000001000.000001000.00000
     Eigenvalues --- 1000.000001000.000001000.000001000.000001000.00000
     Eigenvalues --- 1000.000001000.000001000.000001000.000001000.00000
     Eigenvalues --- 1000.000001000.000001000.000001000.000001000.00000
     Eigenvalues --- 1000.000001000.000001000.000001000.000001000.00000
     Eigenvalues --- 1000.000001000.000001000.000001000.000001000.00000
     Eigenvalues --- 1000.000001000.000001000.000001000.000001000.00000
     Eigenvalues --- 1000.000001000.000001000.000001000.000001000.00000
     Eigenvalues --- 1000.000001000.000001000.00000
 RFO step:  Lambda=-1.28500932D-02 EMin= 1.35666013D-02
 Linear search not attempted -- first point.
 Iteration  1 RMS(Cart)=  0.02393955 RMS(Int)=  0.00038620
 Iteration  2 RMS(Cart)=  0.00044662 RMS(Int)=  0.00010913
 Iteration  3 RMS(Cart)=  0.00000016 RMS(Int)=  0.00010889
 Iteration  1 RMS(Cart)=  0.00000092 RMS(Int)=  0.00000024
 ITry= 1 IFail=0 DXMaxC= 1.55D-01 DCOld= 1.00D+10 DXMaxT= 3.00D-01 DXLimC= 3.00D+00 Rises=F
 Variable       Old X    -DE/DX   Delta X   Delta X   Delta X     New X
                                 (Linear)    (Quad)   (Total)
    R1        2.63139   0.00230   0.00000   0.00465   0.00460   2.63600
    R2        2.63778  -0.00478   0.00000  -0.00965  -0.00972   2.62806
    R3        2.06168  -0.00029   0.00000  -0.00081  -0.00081   2.06087
    R4        2.69499  -0.01851   0.00000  -0.04107  -0.04100   2.65399
    R5        3.32424  -0.00142   0.00000  -0.00251  -0.00252   3.32172
    R6        2.67500  -0.01089   0.00000  -0.02500  -0.02495   2.65005
    R7        2.53301   0.02445   0.00000   0.04248   0.04263   2.57564
    R8        2.61276   0.00214   0.00000   0.00444   0.00450   2.61727
    R9        2.06145  -0.00022   0.00000  -0.00063  -0.00063   2.06082
   R10        2.66201  -0.00415   0.00000  -0.00864  -0.00869   2.65333
   R11        2.06303  -0.00036   0.00000  -0.00101  -0.00101   2.06202
   R12        2.06181  -0.00033   0.00000  -0.00091  -0.00091   2.06089
   R13        2.56776  -0.04234   0.00000  -0.07947  -0.07945   2.48831
   R14        3.36190  -0.00872   0.00000  -0.03449  -0.03481   3.32708
   R15        2.66838  -0.00488   0.00000  -0.01133  -0.01132   2.65706
   R16        2.80073  -0.02601   0.00000  -0.07437  -0.07467   2.72605
   R17        2.67749   0.02083   0.00000   0.04656   0.04635   2.72385
   R18        2.63748  -0.01068   0.00000  -0.02242  -0.02233   2.61515
   R19        2.06255   0.00099   0.00000   0.00275   0.00275   2.06530
   R20        2.66201  -0.00224   0.00000  -0.00468  -0.00467   2.65734
   R21        2.46048   0.01688   0.00000   0.02475   0.02468   2.48515
   R22        2.66979  -0.01187   0.00000  -0.02627  -0.02630   2.64350
   R23        2.06269  -0.00037   0.00000  -0.00101  -0.00101   2.06168
   R24        2.62764  -0.00443   0.00000  -0.00866  -0.00865   2.61899
   R25        2.06112  -0.00016   0.00000  -0.00045  -0.00045   2.06066
   R26        2.06031   0.00046   0.00000   0.00127   0.00127   2.06158
   R27        1.94395   0.00507   0.00000   0.01216   0.01242   1.95637
    A1        2.06831  -0.00215   0.00000  -0.00646  -0.00642   2.06189
    A2        2.10982   0.00131   0.00000   0.00451   0.00448   2.11430
    A3        2.10506   0.00084   0.00000   0.00195   0.00194   2.10700
    A4        2.11335   0.00200   0.00000   0.00461   0.00466   2.11801
    A5        2.25230   0.00485   0.00000   0.01393   0.01370   2.26600
    A6        1.91754  -0.00685   0.00000  -0.01854  -0.01836   1.89917
    A7        2.08578   0.00301   0.00000   0.00783   0.00776   2.09354
    A8        2.00141  -0.00337   0.00000  -0.00768  -0.00771   1.99371
    A9        2.19599   0.00036   0.00000  -0.00015  -0.00005   2.19594
   A10        2.07282  -0.00026   0.00000  -0.00089  -0.00089   2.07194
   A11        2.08352   0.00011   0.00000   0.00039   0.00039   2.08391
   A12        2.12684   0.00015   0.00000   0.00051   0.00049   2.12733
   A13        2.11635  -0.00172   0.00000  -0.00483  -0.00482   2.11153
   A14        2.08531   0.00081   0.00000   0.00219   0.00219   2.08750
   A15        2.08152   0.00090   0.00000   0.00264   0.00263   2.08416
   A16        2.10975  -0.00088   0.00000  -0.00026  -0.00029   2.10946
   A17        2.08437   0.00036   0.00000  -0.00038  -0.00037   2.08400
   A18        2.08906   0.00052   0.00000   0.00064   0.00066   2.08973
   A19        1.98538   0.00531   0.00000   0.01622   0.01616   2.00155
   A20        1.55624   0.00492   0.00000   0.01681   0.01675   1.57299
   A21        2.03751   0.00853   0.00000   0.03254   0.03288   2.07039
   A22        2.19662  -0.00679   0.00000  -0.02451  -0.02440   2.17223
   A23        2.04905  -0.00174   0.00000  -0.00802  -0.00848   2.04057
   A24        2.11172   0.00268   0.00000   0.01069   0.01082   2.12254
   A25        2.08208  -0.00048   0.00000  -0.00041  -0.00048   2.08160
   A26        2.08938  -0.00220   0.00000  -0.01028  -0.01033   2.07905
   A27        2.10309  -0.00908   0.00000  -0.03500  -0.03509   2.06800
   A28        2.09373   0.01238   0.00000   0.04530   0.04487   2.13861
   A29        2.08636  -0.00331   0.00000  -0.01030  -0.00979   2.07657
   A30        2.12582  -0.00896   0.00000  -0.03847  -0.03847   2.08735
   A31        2.07573   0.00436   0.00000   0.01851   0.01851   2.09423
   A32        2.08164   0.00460   0.00000   0.01995   0.01996   2.10160
   A33        2.10284   0.00262   0.00000   0.01144   0.01120   2.11404
   A34        2.04826  -0.00111   0.00000  -0.00452  -0.00440   2.04386
   A35        2.13209  -0.00151   0.00000  -0.00692  -0.00681   2.12529
   A36        2.08539   0.00421   0.00000   0.01880   0.01866   2.10405
   A37        2.09645  -0.00214   0.00000  -0.00966  -0.00960   2.08686
   A38        2.10135  -0.00207   0.00000  -0.00914  -0.00906   2.09228
   A39        1.96421  -0.00001   0.00000  -0.00680  -0.00684   1.95737
   A40        2.09829  -0.00370   0.00000  -0.01078  -0.01076   2.08753
   A41        2.22068   0.00371   0.00000   0.01759   0.01761   2.23829
   A42        1.86430   0.00724   0.00000   0.04124   0.04112   1.90542
    D1        0.00000   0.00000   0.00000   0.00000   0.00000   0.00000
    D2       -3.14159   0.00000   0.00000   0.00000   0.00000  -3.14159
    D3        3.14159   0.00000   0.00000   0.00000   0.00000   3.14159
    D4       -0.00000   0.00000   0.00000   0.00000   0.00000   0.00000
    D5       -0.00000   0.00000   0.00000   0.00000   0.00000   0.00000
    D6        3.14159   0.00000   0.00000  -0.00000  -0.00000   3.14159
    D7       -3.14159   0.00000   0.00000   0.00000   0.00000  -3.14159
    D8        0.00000  -0.00000   0.00000  -0.00000  -0.00000   0.00000
    D9       -0.00000  -0.00000   0.00000  -0.00000  -0.00000  -0.00000
   D10        3.14159  -0.00000   0.00000  -0.00000  -0.00000   3.14159
   D11        3.14159  -0.00000   0.00000  -0.00000  -0.00000   3.14159
   D12       -0.00000  -0.00000   0.00000  -0.00000  -0.00000  -0.00000
   D13        3.14159   0.00000   0.00000   0.00000   0.00000  -3.14159
   D14       -0.00000   0.00000   0.00000   0.00001   0.00001   0.00000
   D15       -0.00000   0.00000   0.00000   0.00000   0.00000   0.00000
   D16       -3.14159   0.00000   0.00000   0.00000   0.00000  -3.14159
   D17       -3.14159   0.00000   0.00000   0.00000   0.00000  -3.14159
   D18        0.00000   0.00000   0.00000   0.00000   0.00000   0.00000
   D19        0.00000  -0.00000   0.00000  -0.00000  -0.00000   0.00000
   D20       -3.14159  -0.00000   0.00000  -0.00000  -0.00000  -3.14159
   D21        0.00000   0.00000   0.00000   0.00000   0.00000   0.00000
   D22       -3.14159  -0.00000   0.00000  -0.00000  -0.00000   3.14159
   D23       -3.14159   0.00000   0.00000   0.00000   0.00000  -3.14159
   D24        0.00000   0.00000   0.00000   0.00000   0.00000   0.00000
   D25        0.00000  -0.00000   0.00000  -0.00000  -0.00000  -0.00000
   D26       -3.14159  -0.00000   0.00000  -0.00000  -0.00000   3.14159
   D27        3.14159  -0.00000   0.00000  -0.00000  -0.00000   3.14159
   D28        0.00000   0.00000   0.00000   0.00000   0.00000   0.00000
   D29       -0.00001   0.00000   0.00000   0.00001   0.00001   0.00000
   D30        3.14158   0.00000   0.00000   0.00001   0.00001   3.14159
   D31        0.00000  -0.00000   0.00000  -0.00001  -0.00001  -0.00000
   D32       -3.14158  -0.00000   0.00000  -0.00001  -0.00001  -3.14159
   D33       -0.00000  -0.00000   0.00000  -0.00000  -0.00000  -0.00001
   D34        3.14159  -0.00000   0.00000  -0.00000  -0.00000   3.14159
   D35        3.14159  -0.00000   0.00000  -0.00000  -0.00000   3.14158
   D36       -0.00001  -0.00000   0.00000  -0.00000  -0.00000  -0.00001
   D37        0.00000   0.00000   0.00000   0.00000   0.00000   0.00001
   D38       -3.14159   0.00000   0.00000   0.00001   0.00001  -3.14158
   D39       -3.14159   0.00000   0.00000   0.00000   0.00000  -3.14158
   D40        0.00000   0.00000   0.00000   0.00001   0.00001   0.00001
   D41        3.14158   0.00000   0.00000   0.00000   0.00000   3.14159
   D42       -0.00002   0.00000   0.00000   0.00001   0.00001  -0.00001
   D43       -0.00001   0.00000   0.00000   0.00000   0.00000  -0.00001
   D44        3.14157   0.00000   0.00000   0.00000   0.00001   3.14158
   D45        0.00000  -0.00000   0.00000  -0.00000  -0.00000   0.00000
   D46       -3.14159  -0.00000   0.00000  -0.00000  -0.00000  -3.14159
   D47       -3.14159  -0.00000   0.00000  -0.00000  -0.00000   3.14159
   D48        0.00000  -0.00000   0.00000  -0.00000  -0.00000  -0.00000
   D49       -0.00000  -0.00000   0.00000  -0.00000  -0.00000  -0.00000
   D50        3.14159   0.00000   0.00000  -0.00000  -0.00000   3.14159
   D51       -3.14159  -0.00000   0.00000  -0.00001  -0.00001   3.14159
[...]
 -0.07290016,-0.00000226,0.00000120,0.00132291,-0.00001574,0.00000942,0
 .17994014,0.00018121,-0.00012246,0.,-0.00040491,0.00068388,0.,0.000338
 15,-0.00075050,-0.00000004,-0.00004318,0.00022343,0.,-0.00001689,0.000
 10108,0.,-0.00020043,0.00003211,0.,-0.00000743,0.00002568,0.,0.0000380
 6,-0.00001743,0.,-0.00002928,0.00002283,0.,-0.00000822,0.00001328,0.,-
 0.00330752,0.00153623,0.00000003,-0.00006489,0.00066263,0.,-0.04341295
 ,0.01755920,0.00000096,-0.22459520,0.15335462,0.00000538,0.00254388,0.
 01531585,0.00000006,0.76509081,-0.00074104,0.00119264,0.00000003,0.001
 63492,-0.00094625,0.,0.00006219,0.00112839,-0.00000006,-0.00081676,0.0
 0000486,0.,-0.00010682,-0.00125704,-0.00000002,0.00143829,-0.00000974,
 0.,-0.00006193,-0.00006695,0.,0.00003681,0.00004801,0.,0.00011443,-0.0
 0005122,0.,0.00007366,-0.00003470,0.,0.00719903,0.00491381,-0.00000027
 ,-0.00185465,-0.00166374,0.00000003,0.06992722,0.03247080,-0.00000030,
 0.08126950,-0.26896418,-0.00000522,0.02534538,-0.07312422,-0.00000204,
 0.00432766,0.67600432,0.,0.00000002,0.00005006,0.00000001,-0.00000003,
 0.00033387,0.,0.00000006,-0.00071879,0.,0.,-0.00012606,0.,-0.00000002,
 0.00006638,0.00000002,0.,-0.00001605,0.,0.,-0.00000002,0.,0.,0.0000015
 7,0.,0.,0.00001616,0.,0.,-0.00002409,0.00000026,0.00000008,0.00021559,
 -0.00000003,-0.00000003,-0.00065068,0.00000197,0.00000018,0.00788793,0
 .00000421,-0.00000653,-0.06330028,0.00000049,-0.00000165,-0.00477441,-
 0.00000831,0.00001285,0.12694597,0.00025744,0.00004685,0.,-0.00062965,
 0.00026152,-0.00000003,0.00030099,-0.00010130,0.,0.00001874,0.00003641
 ,0.,0.00004374,0.00005585,0.,-0.00006179,-0.00008443,0.,-0.00001505,-0
 .00000848,0.,0.00003596,0.00000575,0.,0.00001027,-0.00000061,0.,0.0000
 2975,-0.00000559,0.,0.00026604,0.00046705,-0.00000002,-0.00069506,0.00
 146331,0.00000006,-0.00548303,-0.02846550,-0.00000042,-0.09616627,-0.0
 9607469,-0.00000106,-0.00526293,0.00163167,0.00000016,0.01124691,0.019
 06160,0.00000028,0.09754327,0.00001499,-0.00003993,0.,-0.00013439,0.00
 048900,0.00000001,0.00024910,-0.00012865,0.,0.00001508,0.00005478,0.,0
 .00001085,0.00005285,0.,-0.00007246,0.00001074,0.,-0.00000817,0.000010
 92,0.,0.00001808,-0.00000292,0.,-0.00000431,0.00000281,0.,-0.00000243,
 0.00000178,0.,-0.00060884,0.00020138,-0.00000002,-0.00019803,0.0000671
 8,0.00000009,0.00095848,-0.00090543,-0.00000005,-0.09425402,-0.3022303
 3,-0.00000357,0.00019540,0.00201742,-0.00000010,-0.01294993,-0.0166936
 5,-0.00000020,0.10167198,0.31976061,0.,0.,-0.00000596,0.00000002,0.000
 00002,-0.00051445,0.,-0.00000001,0.00017278,0.,0.,0.00008323,0.,0.,-0.
 00002330,0.,0.,0.00002542,0.,0.,-0.00001190,0.,0.,-0.00001672,0.,0.,-0
 .00000617,0.,0.,0.00001731,-0.00000003,0.,-0.00007872,0.00000002,0.000
 00008,0.00082978,0.00000029,0.00000040,0.00315149,-0.00000120,-0.00000
 330,-0.03762427,0.00000012,-0.00000020,0.00617738,-0.00000023,-0.00000
 095,0.00483810,0.00000090,0.00000391,0.02502291,0.00000994,0.00058978,
 0.00000002,0.00062222,-0.00004959,0.00000001,0.00179114,-0.00011506,-0
 .00000006,-0.00061768,-0.00004188,-0.00000001,-0.00001239,-0.00062333,
 0.,0.00056867,0.00000170,0.,-0.00005479,0.00001399,0.,0.00010497,0.000
 01046,0.,0.00003966,-0.00001774,0.,0.00003780,0.00000149,0.,0.00290430
 ,0.00827464,-0.00000056,0.00015250,-0.00006709,0.00000004,0.05760743,0
 .02741070,0.00000020,-0.06119200,0.02742809,0.00000136,-0.17443461,0.0
 5379700,0.00000324,-0.00834352,-0.08743597,-0.00000162,-0.00078098,0.0
 0055878,-0.00000013,0.74361065,0.00049588,-0.00039464,0.,-0.00117079,-
 0.00015465,0.,-0.00051408,0.00008795,0.00000006,0.00054041,-0.00001956
 ,0.,0.00007566,0.00063901,0.,-0.00061315,-0.00012433,0.,0.00000379,0.0
 0002689,0.,-0.00000926,-0.00001008,0.,-0.00003070,0.00002031,0.,0.0000
 0405,0.00000251,0.,-0.00161544,-0.00177076,0.00000011,0.00154158,-0.00
 017075,0.,-0.00450538,-0.03581123,-0.00000090,0.02233389,-0.01245046,-
 0.00000052,0.11593469,-0.25864042,-0.00000651,-0.03653994,0.02058449,0
 .00000075,0.00030448,0.00052303,0.00000012,0.04969031,0.72136926,0.000
 00002,-0.00000004,-0.00015824,-0.00000006,0.00000003,-0.00009449,-0.00
 000002,-0.00000006,-0.00072129,0.00000002,0.,0.00003003,0.,0.00000004,
 0.00001486,-0.00000004,0.,0.00002641,0.,0.,-0.00003084,0.,0.,-0.000021
 41,0.,0.,-0.00000964,0.,0.,0.00003731,-0.00000005,-0.00000009,0.001485
 81,0.,-0.00000006,-0.00027035,-0.00000077,-0.00000110,0.00802257,0.000
 00127,-0.00000066,-0.00324416,0.00000442,-0.00000587,-0.07118481,-0.00
 000049,0.00000149,0.00810424,0.,0.00000003,-0.00086962,-0.00001118,0.0
 0001199,0.12475007,0.00052407,-0.00086294,-0.00000002,-0.00145631,0.00
 047031,0.,-0.00076531,-0.00012746,0.00000006,0.00085553,-0.00000067,0.
 ,0.00005885,0.00106578,0.00000001,-0.00108827,-0.00006535,0.,0.0000432
 2,0.00004776,0.,-0.00004526,-0.00003882,0.,-0.00008391,0.00004242,0.,-
 0.00004904,0.00002200,0.,-0.00395383,-0.00381848,0.00000024,0.00128896
 ,0.00062632,-0.00000001,-0.04338089,-0.01870091,0.00000008,0.06549372,
 -0.00919939,-0.00000103,-0.05222030,0.06293142,0.00000240,-0.15676134,
 -0.03471633,0.00000023,-0.00213985,0.00429927,0.00000035,-0.37809963,-
 0.07669265,0.00000387,0.73299383,0.00022792,-0.00037584,-0.00000001,-0
 .00046677,0.00031604,0.,-0.00003698,-0.00075853,0.,0.00013431,0.000087
 46,0.,0.00003574,0.00032772,0.,-0.00043363,0.00003139,0.,0.00002363,0.
 00001080,0.,-0.00002151,-0.00001117,0.,-0.00003627,0.00001780,0.,-0.00
 001870,0.00000846,0.,-0.00440533,-0.00279679,0.00000023,0.00059567,0.0
 0045808,-0.00000002,-0.03967011,-0.02120870,-0.00000005,0.04803108,-0.
 05984963,-0.00000212,0.00928452,0.06053499,0.00000106,-0.10932504,-0.3
 0822406,-0.00000478,0.00343000,-0.00230398,-0.00000015,-0.00490754,-0.
 13962331,-0.00000128,-0.03137791,0.71696349,0.,0.,0.00001039,0.0000000
 2,0.,0.00001969,0.,-0.00000001,0.00023034,-0.00000001,0.,0.00000514,0.
 ,-0.00000001,-0.00001749,0.00000001,0.,0.00000257,0.,0.,0.00000200,0.,
 0.,0.00000991,0.,0.,-0.00000105,0.,0.,-0.00000735,-0.00000005,-0.00000
 003,-0.00030699,0.,0.00000001,0.00000978,-0.00000025,-0.00000006,-0.00
 404156,0.00000006,-0.00000128,0.00694066,0.00000122,0.00000019,-0.0003
 1962,-0.00000138,-0.00000600,-0.06354151,0.00000021,-0.00000025,0.0074
 9558,0.00000489,-0.00000034,-0.05881101,-0.00000994,0.00001455,0.14323
 211,0.00001961,-0.00007316,0.,-0.00006562,0.00012379,0.,-0.00003390,-0
 .00006131,0.,0.00004958,0.00003138,0.,-0.00000891,0.00006647,0.,-0.000
 07967,0.00000954,0.,0.00000356,0.00000899,0.,0.00000149,-0.00000621,0.
 ,-0.00001110,0.00000659,0.,-0.00000920,0.00000540,0.,-0.00042641,0.000
 32416,0.,0.00002752,0.00005818,0.,0.00009255,0.00361582,0.00000017,-0.
 01384170,-0.00685675,0.00000006,0.00052764,0.00016397,-0.00000002,-0.3
 4129217,-0.04521039,0.00000324,0.00076364,0.00007932,-0.00000007,0.001
 38336,-0.00203617,0.00000001,-0.00642104,0.00254715,0.00000019,0.35936
 355,-0.00000202,0.00002671,0.,0.00003177,-0.00006419,0.,0.00008521,0.0
 0005397,0.,-0.00001379,-0.00004032,0.,0.00001204,-0.00001727,0.,0.0000
 2590,-0.00000576,0.,-0.00000044,-0.00000398,0.,0.00000110,0.00000232,0
 .,0.00000480,-0.00000452,0.,0.00000344,-0.00000162,0.,0.00041091,-0.00
 021997,0.,0.00000580,0.00003897,0.,0.00236872,-0.00359192,-0.00000026,
 0.02548563,0.00718863,-0.00000022,0.00044490,-0.00153460,-0.00000003,-
 0.04587903,-0.06497154,-0.00000017,-0.00027258,0.00094981,0.00000013,-
 0.00100010,-0.00507350,-0.00000027,-0.02962730,0.00053391,0.00000040,0
 .04832908,0.06479824,0.,0.,-0.00000249,0.,0.,-0.00002059,0.,0.,-0.0002
 0905,0.,0.,-0.00000939,0.,0.,0.00001742,0.,0.,-0.00000466,0.,0.,0.0000
 0058,0.,0.,-0.00000575,0.,0.,0.00000326,0.,0.,0.00000436,0.00000001,-0
 .00000003,-0.00014158,0.,0.,0.00003540,0.00000016,-0.00000019,0.007290
 62,0.00000072,0.00000027,0.00151230,-0.00000003,-0.00000007,-0.0007387
 2,0.00000329,-0.00000015,-0.03297330,-0.00000007,0.00000010,-0.0045959
 7,0.00000012,-0.00000028,0.00621192,-0.00000066,-0.00000010,0.00156044
 ,-0.00000353,0.00000029,0.02485100,-0.00004717,-0.00000613,0.,0.000034
 82,0.00008631,0.,-0.00003768,-0.00000253,0.,-0.00000884,0.00000596,0.,
 -0.00000883,-0.00002114,0.,0.00001926,0.00001267,0.,0.00000239,-0.0000
 0307,0.,-0.00000739,0.00000130,0.,0.00000089,-0.00000009,0.,-0.0000033
 5,-0.00000152,0.,0.00016317,-0.00028213,0.00000003,-0.00024824,0.00005
 158,0.,-0.00209465,0.00254252,0.00000019,-0.00122496,0.00058152,0.0000
 0002,0.00978922,0.01950977,0.00000032,-0.00520439,0.00024628,0.0000002
 4,0.00009089,-0.00009282,-0.00000002,-0.09670652,-0.10034331,-0.000000
 78,-0.00508595,-0.02911936,-0.00000044,-0.00043183,-0.00139175,-0.0000
 0004,0.09779786,0.00002632,0.00009168,0.,-0.00002537,-0.00014175,0.,0.
 00009292,0.00007488,0.,-0.00004532,-0.00001744,0.,0.00001158,-0.000055
 60,0.,0.00006444,-0.00002146,0.,-0.00000698,-0.00000115,0.,0.00000797,
 0.00000443,0.,0.00000977,-0.00000448,0.,0.00001174,-0.00000296,0.,0.00
 011742,0.00048196,-0.00000002,0.00021842,-0.00022651,0.,0.00381887,-0.
 00232254,-0.00000022,0.00105643,0.00033898,0.00000001,-0.01402929,-0.0
 1791804,-0.00000015,-0.00033801,0.00206830,-0.00000010,-0.00006729,-0.
 00006506,0.00000002,-0.09855938,-0.30742205,-0.00000368,0.00191654,0.0
 0038359,-0.00000008,0.00008566,-0.00007866,0.,0.10774762,0.32282336,0.
 ,0.,0.00001915,0.,0.,-0.00001715,0.,0.,-0.00003093,0.,0.,0.00000100,0.
 ,0.,-0.00000325,0.,0.,0.00000125,0.,0.,0.00000166,0.,0.,0.00000389,0.,
 0.,0.00000250,0.,0.,-0.00000277,-0.00000002,0.00000002,0.00002961,0.00
 000002,-0.00000001,-0.00004089,0.00000015,-0.00000028,0.00534817,0.000
 00022,-0.00000003,-0.00085415,-0.00000062,-0.00000055,0.00479383,0.000
 00017,0.00000004,0.00764971,-0.00000001,0.00000001,-0.00076994,-0.0000
 0040,-0.00000370,-0.03469247,-0.00000006,0.00000036,0.00240641,0.00000
 002,0.00000002,0.00046806,0.00000078,0.00000397,0.02454394,0.00001951,
 -0.00003460,0.,-0.00003390,0.00009751,0.,0.00009251,-0.00005980,0.,0.0
 0001751,0.00000989,0.,-0.00000064,0.00003633,0.,-0.00004498,0.00000591
 ,0.,0.00000085,0.00000497,0.,0.00000457,-0.00000358,0.,-0.00000687,0.0
 0000333,0.,-0.00000453,0.00000353,0.,-0.00011630,0.00025415,-0.0000000
 2,0.00000223,0.00016533,0.,-0.00085359,-0.00052064,-0.00000002,0.00060
 914,-0.00284199,0.00000001,-0.00413881,-0.00267705,0.00000017,0.010227
 29,-0.01018754,-0.00000035,0.00037409,-0.00054317,-0.00000001,-0.01285
 615,0.02599673,0.00000087,-0.17032023,0.13831760,0.00000526,0.00066762
 ,0.00041201,-0.00000005,0.00107366,-0.00023374,-0.00000011,0.17657931,
 0.00001693,0.00002140,0.,-0.00005656,-0.00000136,0.,0.00000374,0.00003
 069,0.,-0.00000356,-0.00000515,0.,0.00000710,-0.00000775,0.,0.00001207
 ,-0.00001193,0.,-0.00000344,-0.00000296,0.,0.00000161,0.00000305,0.,0.
 00000520,-0.00000175,0.,0.00000592,-0.00000308,0.,0.00012228,-0.000106
 10,0.,-0.00003672,-0.00000200,0.,-0.00088902,0.00025730,0.00000004,-0.
 00335834,-0.00447775,-0.00000022,-0.00227115,0.00106971,-0.00000014,0.
 02103481,-0.01517108,-0.00000078,0.00097852,-0.00105126,-0.00000003,-0
 .00573236,0.00671557,0.00000012,0.13893388,-0.23314679,-0.00000680,-0.
 00016032,0.00101533,0.00000012,0.00019651,0.00069863,0.00000012,-0.149
 00135,0.24367723,0.,0.,-0.00001147,0.,0.,-0.00004776,0.,0.,0.00012985,
 0.,0.,0.00000556,0.,0.,-0.00000566,0.,0.,-0.00000171,0.,0.,0.00000350,
 0.,0.,0.00000011,0.,0.,0.00000006,0.,0.,0.00000478,0.,-0.00000003,-0.0
 0021382,0.,0.,0.00016013,-0.00000005,0.00000007,-0.00104041,-0.0000000
 7,-0.00000023,0.00652959,0.00000019,-0.00000009,0.00892981,0.00000046,
 -0.00000039,0.00449843,0.00000002,-0.00000002,-0.00016845,0.00000024,-
 0.00000034,0.00486897,0.00000524,-0.00000673,-0.04079819,-0.00000007,0
 .00000011,-0.00362993,-0.00000011,0.00000012,-0.00474605,-0.00000583,0
 .00000753,0.02685097,-0.00352319,-0.00640918,-0.00000014,-0.00347732,0
 .01706270,0.00000017,-0.09015417,0.04392099,-0.00000078,0.01600481,-0.
 00329085,0.00000007,-0.00364832,0.00962365,0.00000014,-0.00472708,-0.0
 0544036,-0.00000016,0.00040845,-0.00099033,-0.00000001,-0.00042902,-0.
 00014738,0.,0.00023075,0.00007467,0.00000001,-0.00074211,-0.00010180,0
 .,-0.44000359,-0.06307703,-0.00000657,-0.04929787,-0.02550547,-0.00000
 034,-0.14855649,0.06844791,0.00000149,-0.03993744,0.03102681,0.0000005
 8,0.03531295,0.01206616,-0.00000063,-0.00100410,-0.01567106,-0.0000003
 5,0.00086740,0.00107937,0.00000003,-0.00532184,-0.00028226,0.,0.006028
 15,0.00526120,0.00000003,-0.00025621,0.00082800,0.00000006,0.00033280,
 -0.00125183,-0.00000003,0.00027652,-0.00000290,0.00000002,0.75405784,0
 .00221187,-0.00272473,0.00000002,0.02888296,-0.02620797,-0.00000001,0.
 01422653,0.00745371,0.00000031,0.00847341,-0.00872425,-0.00000003,-0.0
 0177104,0.00621301,0.00000007,-0.00363280,-0.00465284,-0.00000014,0.00
 028296,-0.00081122,0.,-0.00046675,0.00009338,0.,0.00023613,-0.00034581
 ,0.,-0.00042882,0.00004710,0.,-0.08235367,-0.13280289,-0.00000107,0.00
 174233,-0.13726280,-0.00000129,0.06153766,-0.18679836,-0.00000164,0.01
 758334,0.00660040,0.00000015,0.01018881,-0.03754417,-0.00000024,-0.006
 81544,0.01301029,0.00000033,-0.00196802,-0.00028869,0.,0.00119523,-0.0
 0788526,-0.00000014,-0.00832563,-0.00588809,0.,-0.00106166,0.00079853,
 0.00000002,0.00117989,-0.00046888,-0.00000007,-0.00032295,0.00013873,0
 .,-0.04350210,0.51192949,0.00000006,-0.00000016,0.00002130,0.00000008,
 -0.00000030,0.00439066,-0.00000088,0.00000064,0.00418732,0.00000039,-0
 .00000023,0.00311205,-0.00000007,0.00000029,0.00058115,-0.00000020,-0.
 00000017,0.00085126,0.00000001,0.,-0.00040886,0.,0.,-0.00032038,0.,0.,
 -0.00048986,-0.00000001,0.,-0.00002576,-0.00000591,-0.00000187,-0.0648
 3766,0.00000004,-0.00000148,-0.03777037,0.00000050,-0.00000080,-0.0535
 4778,0.00000036,-0.00000020,-0.00332320,0.00000011,-0.00000069,0.00326
 725,0.00000010,0.00000010,0.00666244,-0.00000005,0.00000007,-0.0033417
 6,0.00000007,-0.00000025,0.00451466,-0.00000012,-0.00000002,-0.0009733
 5,0.00000002,-0.00000004,0.00105517,0.,-0.00000001,-0.00008087,-0.0000
 0002,0.00000002,-0.00077516,0.00000510,0.00000441,0.13736893,-0.000490
 58,0.00224760,0.00000007,0.00203565,0.00152420,0.00000005,0.01005444,-
 0.00099304,-0.00000007,-0.00223666,0.00020689,-0.00000005,-0.00007111,
 -0.00222044,-0.00000004,0.00208051,0.00040478,0.00000002,-0.00019799,0
 .00017437,0.,0.00034060,-0.00001851,0.,0.00001566,-0.00000729,0.,0.000
 05093,0.00006824,0.,0.01473713,0.04416159,-0.00000204,-0.00018640,0.00
 093500,0.00000007,-0.01827561,-0.03687811,0.00000089,-0.00858689,0.003
 91232,0.00000028,-0.36607651,-0.07254755,0.00000746,-0.00572716,-0.015
 96336,-0.00000030,-0.00117210,-0.00048973,-0.00000003,-0.07067381,0.01
 209060,0.00000290,0.01702568,0.01189836,0.00000009,-0.00008559,-0.0002
 8016,0.00000001,0.00202978,-0.00087640,-0.00000011,-0.00143322,0.00034
 727,-0.00000003,-0.02915021,0.01719627,0.00000005,0.54185304,-0.000689
 26,-0.00095084,-0.00000009,0.00039158,-0.00364794,-0.00000006,-0.01258
 829,-0.00315254,0.00000046,0.00006771,-0.00055197,0.,0.00051572,0.0004
 9231,0.,-0.00027321,-0.00013645,0.,0.00021282,-0.00034096,0.,0.0000276
 8,0.00018771,0.00000002,0.00016718,-0.00012909,0.,0.00009472,-0.000091
 46,0.,0.01815359,-0.06897533,0.00000222,-0.00103873,-0.00440434,-0.000
 00011,-0.04567607,-0.00366696,0.00000084,0.00917656,-0.00828421,-0.000
 00029,-0.05488329,-0.12768421,-0.00000055,-0.00126134,0.00909019,0.000
 00024,-0.00149608,-0.00013682,-0.00000001,0.04939783,0.01434751,-0.000
 00098,-0.00509721,-0.01188612,-0.00000025,-0.00002010,0.00051780,0.000
 00001,-0.00153066,0.00239467,0.00000011,0.00180856,0.00020804,0.,0.011
 52177,0.00330960,0.00000012,-0.02912792,0.41903322,0.00000002,-0.00000
 005,-0.00018453,-0.00000008,-0.00000008,-0.00019374,-0.00000041,0.0000
 0026,0.00139986,0.00000011,-0.00000002,0.00014441,0.,0.00000009,-0.000
 04738,-0.00000006,-0.00000004,0.00004654,0.,0.,-0.00000219,0.,0.,-0.00
 001218,0.,0.,-0.00001335,0.,0.,-0.00000340,-0.00000067,-0.00000123,0.0
 0813521,0.00000010,0.00000018,-0.00068508,-0.00000037,0.00000067,0.013
 50247,0.00000088,-0.00000034,0.00651556,0.00000889,0.00000071,-0.05675
 694,-0.00000005,0.00000091,-0.00099280,0.00000004,0.,0.00024373,0.0000
 0359,-0.00000025,0.00962162,-0.00000065,-0.00000089,0.00512393,0.,0.00
 000004,-0.00065804,-0.00000017,0.00000013,-0.00357161,0.00000008,0.,-0
 .00026404,0.00000129,-0.00000083,-0.00281619,-0.00001627,0.00000874,0.
 04740639,0.00025414,-0.00047749,0.,-0.00159801,0.00016823,-0.00000001,
 -0.00100531,0.00474675,-0.00000018,0.00096198,0.00009065,0.00000004,-0
 .00004572,0.00042302,0.00000003,-0.00044618,-0.00011553,-0.00000001,0.
 00001992,-0.00000027,0.,-0.00048979,-0.00004986,-0.00000003,0.00003001
 ,-0.00001827,0.,-0.00001053,-0.00006081,0.,-0.02406451,-0.01183345,0.0
 0000131,-0.00160960,-0.00253907,-0.00000019,-0.00002326,0.00421915,-0.
 00000011,0.00096798,0.00079699,0.00000001,-0.04943822,0.03461966,0.000
 00285,0.00075729,0.00202887,0.00000003,0.00055756,0.00020762,0.,0.0002
 6127,-0.00465893,-0.00000001,-0.00244084,0.00003197,0.00000010,0.00006
 324,0.00001787,0.,-0.00022495,0.00024789,0.,-0.00013559,-0.00015013,-0
 .00000002,0.00670928,-0.01428853,0.00000036,-0.08585956,0.06214645,0.0
 0000374,0.15680939,0.00036247,0.00170976,0.00000011,0.00137418,0.00524
 590,0.00000019,0.01851095,-0.00278727,-0.00000042,-0.00150401,0.001555
 20,-0.00000005,-0.00069793,-0.00162245,-0.00000004,0.00100463,0.000660
 17,0.00000001,-0.00028501,0.00045377,0.00000002,0.00027067,-0.00024677
 ,-0.00000001,-0.00026405,0.00020546,0.,-0.00011250,0.00015181,0.,-0.00
 319477,0.01253083,-0.00000340,0.00161592,0.00729678,0.00000045,0.00247
 933,-0.01324109,-0.00000020,-0.00680313,0.00017596,0.,0.04711722,0.020
 92689,-0.00000096,-0.00089417,-0.00933771,-0.00000019,-0.00087044,-0.0
 0029560,0.,-0.01981997,0.00523447,0.00000052,0.00829536,0.00639930,-0.
 00000005,0.00003057,-0.00031637,0.00000002,0.00063257,-0.00061390,0.,-
 0.00068944,0.00015327,0.00000001,-0.03524069,0.00281173,0.00000055,0.0
 6423504,-0.21554181,-0.00000801,-0.07555280,0.17849170,-0.00000006,-0.
 00000007,0.00031311,0.00000011,-0.00000023,0.00058068,-0.00000046,-0.0
 0000042,-0.00114125,-0.00000003,0.,-0.00039576,0.00000003,-0.00000002,
 -0.00001446,0.,0.00000002,-0.00006497,0.00000001,-0.00000002,0.0000264
 7,-0.00000005,0.00000003,0.00013442,0.,0.,0.00002696,0.,0.,-0.00000132
 ,0.00000108,0.00000118,-0.01462182,-0.00000021,-0.00000037,0.00162968,
 -0.00000009,0.00000007,-0.00246327,-0.00000007,-0.00000005,-0.00041482
 ,0.00000036,-0.00000134,0.00051275,0.00000005,-0.00000002,-0.00015246,
 -0.00000002,0.,-0.00003048,0.00000017,0.00000006,0.00241987,0.00000002
 ,-0.00000005,0.00176918,0.,0.,-0.00002107,-0.00000001,0.00000003,-0.00
 045908,0.,0.00000001,-0.00027911,0.00000003,0.00000017,0.00269901,0.00
 000702,-0.00001041,-0.02593823,-0.00000791,0.00001143,0.03588595\\0.00
 103844,0.00123343,-0.00000007,0.00180821,0.00226289,-0.00000017,0.0028
 8847,-0.00025222,0.00000032,-0.00072675,0.00113382,0.00000013,0.000083
 99,-0.00000272,-0.00000002,0.00111962,0.00109048,-0.00000002,0.0000336
 6,0.00013773,0.,0.00001372,0.00005147,-0.00000001,0.00000872,0.0001169
 1,0.,0.00009396,0.00010097,0.,-0.00542490,0.00262787,0.00000209,0.0006
 7652,0.00093016,0.00000027,-0.00304848,0.00151856,0.00000034,0.0022452
 7,0.00022535,-0.00000072,0.00499181,0.00069353,0.00000098,-0.00090403,
 0.00347383,0.00000005,-0.00000594,0.00007534,0.00000004,-0.00050857,0.
 00020823,0.00000022,-0.00125571,0.00040783,0.00000011,-0.00005652,0.00
 014886,0.00000007,0.00001921,-0.00000589,0.,-0.00008506,0.00004826,-0.
 00000004,-0.00341237,-0.00243372,-0.00000140,-0.00237038,-0.00435999,0
 .00000112,0.00277712,-0.00943098,-0.00000329\\\@
 The archive entry for this job was punched.


 YOU SHOULDN'T LET PEOPLE DRIVE YOU CRAZY
 WHEN YOU KNOW IT'S WITHIN WALKING DISTANCE.
 Job cpu time:       0 days  1 hours  4 minutes 14.1 seconds.
 Elapsed time:       0 days  0 hours  7 minutes 31.4 seconds.
 File lengths (MBytes):  RWF=    544 Int=      0 D2E=      0 Chk=     40 Scr=      8
 Normal termination of Gaussian 16 at Tue Oct 27 22:22:47 2020.
