 Entering Gaussian System, Link 0=g16
 Initial command:
 /gpfs/loomis/apps/avx/software/Gaussian/16-C.01_AVX/g16/l1.exe "/home/fas/batista/pev4/scratch60/gauss-scratch/Gau-13489.inp" -scrdir="/home/fas/batista/pev4/scratch60/gauss-scratch/"
 Entering Link 1 = /gpfs/loomis/apps/avx/software/Gaussian/16-C.01_AVX/g16/l1.exe PID=     13490.
  
 Copyright (c) 1988-2019, Gaussian, Inc.  All Rights Reserved.
  
 This is part of the Gaussian(R) 16 program.  It is based on
 the Gaussian(R) 09 system (copyright 2009, Gaussian, Inc.),
 the Gaussian(R) 03 system (copyright 2003, Gaussian, Inc.),
 the Gaussian(R) 98 system (copyright 1998, Gaussian, Inc.),
 the Gaussian(R) 94 system (copyright 1995, Gaussian, Inc.),
 the Gaussian 92(TM) system (copyright 1992, Gaussian, Inc.),
 the Gaussian 90(TM) system (copyright 1990, Gaussian, Inc.),
 the Gaussian 88(TM) system (copyright 1988, Gaussian, Inc.),
 the Gaussian 86(TM) system (copyright 1986, Carnegie Mellon
 University), and the Gaussian 82(TM) system (copyright 1983,
 Carnegie Mellon University). Gaussian is a federally registered
 trademark of Gaussian, Inc.
  
 This software contains proprietary and confidential information,
 including trade secrets, belonging to Gaussian, Inc.
  
 This software is provided under written license and may be
 used, copied, transmitted, or stored only in accord with that
 written license.
  
 The following legend is applicable only to US Government
 contracts under FAR:
  
                    RESTRICTED RIGHTS LEGEND
  
 Use, reproduction and disclosure by the US Government is
 subject to restrictions as set forth in subparagraphs (a)
 and (c) of the Commercial Computer Software - Restricted
 Rights clause in FAR 52.227-19.
  
 Gaussian, Inc.
 340 Quinnipiac St., Bldg. 40, Wallingford CT 06492
  
  
 ---------------------------------------------------------------
 Warning -- This program may not be used in any manner that
 competes with the business of Gaussian, Inc. or will provide
 assistance to any competitor of Gaussian, Inc.  The licensee
 of this program is prohibited from giving any competitor of
 Gaussian, Inc. access to this program.  By using this program,
 the user acknowledges that Gaussian, Inc. is engaged in the
 business of creating and licensing software in the field of
 computational chemistry and represents and warrants to the
 licensee that it is not a competitor of Gaussian, Inc. and that
 it will not use this program in any manner prohibited above.
 ---------------------------------------------------------------
  

 Cite this work as:
 Gaussian 16, Revision C.01,
 M. J. Frisch, G. W. Trucks, H. B. Schlegel, G. E. Scuseria, 
 M. A. Robb, J. R. Cheeseman, G. Scalmani, V. Barone, 
 G. A. Petersson, H. Nakatsuji, X. Li, M. Caricato, A. V. Marenich, 
 J. Bloino, B. G. Janesko, R. Gomperts, B. Mennucci, H. P. Hratchian, 
 J. V. Ortiz, A. F. Izmaylov, J. L. Sonnenberg, D. Williams-Young, 
 F. Ding, F. Lipparini, F. Egidi, J. Goings, B. Peng, A. Petrone, 
 T. Henderson, D. Ranasinghe, V. G. Zakrzewski, J. Gao, N. Rega, 
 G. Zheng, W. Liang, M. Hada, M. Ehara, K. Toyota, R. Fukuda, 
 J. Hasegawa, M. Ishida, T. Nakajima, Y. Honda, O. Kitao, H. Nakai, 
 T. Vreven, K. Throssell, J. A. Montgomery, Jr., J. E. Peralta, 
 F. Ogliaro, M. J. Bearpark, J. J. Heyd, E. N. Brothers, K. N. Kudin, 
 V. N. Staroverov, T. A. Keith, R. Kobayashi, J. Normand, 
 K. Raghavachari, A. P. Rendell, J. C. Burant, S. S. Iyengar, 
 J. Tomasi, M. Cossi, J. M. Millam, M. Klene, C. Adamo, R. Cammi, 
 J. W. Ochterski, R. L. Martin, K. Morokuma, O. Farkas, 
 J. B. Foresman, and D. J. Fox, Gaussian, Inc., Wallingford CT, 2019.
 
 ******************************************
 Gaussian 16:  ES64L-G16RevC.01  3-Jul-2019
                28-Oct-2020 
 ******************************************
 %chk=config_11_18.chk
 %mem=58GB
 %nprocshared=10
 Will use up to   10 processors via shared memory.
 ----------------------------------------------------------------------
 #p opt=addgic freq wb97xd/cc-pvdz nosymm int=ultrafine scrf=(solvent=C
 arbonTetraChloride)
 ----------------------------------------------------------------------
 1/18=20,19=15,26=6,38=1,145=903/1,3;
 2/9=110,12=2,15=1,17=6,18=5,40=1/2;
 3/5=16,11=2,25=1,30=1,70=2201,71=1,72=11,74=-58,75=-5/1,2,3;
 4//1;
 5/5=2,38=5,53=11/2;
 6/7=2,8=2,9=2,10=2,28=1/1;
 7/30=1/1,2,3,16;
 1/18=20,19=15,26=6,145=903/3(2);
 2/9=110,15=1/2;
 99//99;
 2/9=110,15=1/2;
 3/5=16,11=2,25=1,30=1,70=2205,71=1,72=11,74=-58,75=-5/1,2,3;
 4/5=5,16=3,69=1/1;
 5/5=2,38=5,53=11/2;
 7/30=1/1,2,3,16;
 1/18=20,19=15,26=6,145=903/3(-5);
 2/9=110,15=1/2;
 6/7=2,8=2,9=2,10=2,19=2,28=1/1;
 99/9=1/99;
 Leave Link    1 at Wed Oct 28 01:05:03 2020, MaxMem=  7784628224 cpu:               4.3 elap:               0.5
 (Enter /gpfs/loomis/apps/avx/software/Gaussian/16-C.01_AVX/g16/l101.exe)
 ------------------------------------------------
 NM 2D-scan of HBT TD-WB97XD pVDZ in CTC Relaxed.
 ------------------------------------------------
 Symbolic Z-matrix:
 Charge =  0 Multiplicity = 1
 C                     1.52051  -3.24366  -0.00002 
 C                     1.00808  -1.93937  -0.00002 
 C                     1.82148  -0.77017  -0.00003 
 C                     3.21232  -0.95451  -0.00003 
 C                     3.73061  -2.26447  -0.00002 
 C                     2.90835  -3.40142  -0.00002 
 H                     0.83949  -4.10732  -0.00001 
 H                     3.89271  -0.09004  -0.00004 
 H                     4.81907  -2.3921   -0.00003 
 H                     3.35029  -4.4041   -0.00001 
 N                     1.042     0.40262  -0.00003 
 S                    -0.69293  -1.56194  -0.00003 
 C                    -1.31786   1.08483   0.00001 
 C                    -2.65181   0.7098    0.00003 
 C                    -0.89122   2.495     0.00004 
 C                    -3.65976   1.72024   0.00003 
 H                    -2.94991  -0.34676   0.00002 
 C                    -1.95498   3.46943   0.00004 
 C                    -3.30969   3.07285   0.00003 
 H                    -4.71439   1.4199    0.00004 
 H                    -1.66676   4.52909   0.00005 
 H                    -4.09752   3.83386   0.00003 
 C                    -0.28891   0.10652  -0.00002 
 O                     0.33847   2.73545   0.00006 
 H                     1.14632   1.0875    0. 
 
 Initializing the GIC definitions file.
 Number of initial coordinates =   134
 Number of input entries/lines =    52
 Number of additional coordinates =     2
 Number of removed coordinates =     0
 Number of frozen coordinates =     2
 Number of final active and frozen coordinates =   136
 ITRead=  0  0  0  0  0  0  0  0  0  0  0  0  0  0  0  0  0  0  0  0
 ITRead=  0  0  0  0  0
 MicOpt= -1 -1 -1 -1 -1 -1 -1 -1 -1 -1 -1 -1 -1 -1 -1 -1 -1 -1 -1 -1
 MicOpt= -1 -1 -1 -1 -1
 NAtoms=     25 NQM=       25 NQMF=       0 NMMI=      0 NMMIF=      0
                NMic=       0 NMicF=      0.
                    Isotopes and Nuclear Properties:
 (Nuclear quadrupole moments (NQMom) in fm**2, nuclear magnetic moments (NMagM)
  in nuclear magnetons)

  Atom         1           2           3           4           5           6           7           8           9          10
 IAtWgt=          12          12          12          12          12          12           1           1           1           1
 AtmWgt=  12.0000000  12.0000000  12.0000000  12.0000000  12.0000000  12.0000000   1.0078250   1.0078250   1.0078250   1.0078250
 NucSpn=           0           0           0           0           0           0           1           1           1           1
 AtZEff=  -0.0000000  -0.0000000  -0.0000000  -0.0000000  -0.0000000  -0.0000000  -0.0000000  -0.0000000  -0.0000000  -0.0000000
 NQMom=    0.0000000   0.0000000   0.0000000   0.0000000   0.0000000   0.0000000   0.0000000   0.0000000   0.0000000   0.0000000
 NMagM=    0.0000000   0.0000000   0.0000000   0.0000000   0.0000000   0.0000000   2.7928460   2.7928460   2.7928460   2.7928460
 AtZNuc=   6.0000000   6.0000000   6.0000000   6.0000000   6.0000000   6.0000000   1.0000000   1.0000000   1.0000000   1.0000000

  Atom        11          12          13          14          15          16          17          18          19          20
 IAtWgt=          14          32          12          12          12          12           1          12          12           1
 AtmWgt=  14.0030740  31.9720718  12.0000000  12.0000000  12.0000000  12.0000000   1.0078250  12.0000000  12.0000000   1.0078250
 NucSpn=           2           0           0           0           0           0           1           0           0           1
 AtZEff=  -0.0000000  -0.0000000  -0.0000000  -0.0000000  -0.0000000  -0.0000000  -0.0000000  -0.0000000  -0.0000000  -0.0000000
 NQMom=    2.0440000   0.0000000   0.0000000   0.0000000   0.0000000   0.0000000   0.0000000   0.0000000   0.0000000   0.0000000
 NMagM=    0.4037610   0.0000000   0.0000000   0.0000000   0.0000000   0.0000000   2.7928460   0.0000000   0.0000000   2.7928460
 AtZNuc=   7.0000000  16.0000000   6.0000000   6.0000000   6.0000000   6.0000000   1.0000000   6.0000000   6.0000000   1.0000000

  Atom        21          22          23          24          25
 IAtWgt=           1           1          12          16           1
 AtmWgt=   1.0078250   1.0078250  12.0000000  15.9949146   1.0078250
 NucSpn=           1           1           0           0           1
 AtZEff=  -0.0000000  -0.0000000  -0.0000000  -0.0000000  -0.0000000
 NQMom=    0.0000000   0.0000000   0.0000000   0.0000000   0.0000000
 NMagM=    2.7928460   2.7928460   0.0000000   0.0000000   2.7928460
 AtZNuc=   1.0000000   1.0000000   6.0000000   8.0000000   1.0000000
 Leave Link  101 at Wed Oct 28 01:05:06 2020, MaxMem=  7784628224 cpu:              31.9 elap:               3.2
 (Enter /gpfs/loomis/apps/avx/software/Gaussian/16-C.01_AVX/g16/l103.exe)

 GradGradGradGradGradGradGradGradGradGradGradGradGradGradGradGradGradGrad
 Berny optimization.
 Initialization pass.
                           ----------------------------
                           !    Initial Parameters    !
                           ! (Angstroms and Degrees)  !
 --------------------------                            --------------------------
 ! Name  Definition              Value          Derivative Info.                !
 --------------------------------------------------------------------------------
 ! R1    R(1,2)                  1.4013         estimate D2E/DX2                !
 ! R2    R(1,6)                  1.3968         estimate D2E/DX2                !
 ! R3    R(1,7)                  1.0999         estimate D2E/DX2                !
 ! R4    R(2,3)                  1.4243         estimate D2E/DX2                !
 ! R5    R(2,12)                 1.7424         estimate D2E/DX2                !
 ! R6    R(3,4)                  1.403          estimate D2E/DX2                !
 ! R7    R(3,11)                 1.4082         estimate D2E/DX2                !
 ! R8    R(4,5)                  1.4088         estimate D2E/DX2                !
 ! R9    R(4,8)                  1.1001         estimate D2E/DX2                !
 ! R10   R(5,6)                  1.4031         estimate D2E/DX2                !
 ! R11   R(5,9)                  1.0959         estimate D2E/DX2                !
 ! R12   R(6,10)                 1.0958         estimate D2E/DX2                !
 ! R13   R(11,23)                1.3634         estimate D2E/DX2                !
 ! R14   R(11,25)                0.6928         estimate D2E/DX2                !
 ! R15   R(12,23)                1.7167         estimate D2E/DX2                !
 ! R16   R(13,14)                1.3857         estimate D2E/DX2                !
 ! R17   R(13,15)                1.4733         estimate D2E/DX2                !
 ! R18   R(13,23)                1.4198         estimate D2E/DX2                !
 ! R19   R(14,16)                1.4272         estimate D2E/DX2                !
 ! R20   R(14,17)                1.0978         estimate D2E/DX2                !
 ! R21   R(15,18)                1.4426         estimate D2E/DX2                !
 ! R22   R(15,24)                1.253          estimate D2E/DX2                !
 ! R23   R(16,19)                1.3972         estimate D2E/DX2                !
 ! R24   R(16,20)                1.0966         estimate D2E/DX2                !
 ! R25   R(18,19)                1.4116         estimate D2E/DX2                !
 ! R26   R(18,21)                1.0982         estimate D2E/DX2                !
 ! R27   R(19,22)                1.0954         estimate D2E/DX2                !
 ! A1    A(2,1,6)              117.9341         estimate D2E/DX2                !
 ! A2    A(2,1,7)              120.2945         estimate D2E/DX2                !
 ! A3    A(6,1,7)              121.7714         estimate D2E/DX2                !
 ! A4    A(1,2,3)              123.7253         estimate D2E/DX2                !
 ! A5    A(1,2,12)             123.9594         estimate D2E/DX2                !
 ! A6    A(3,2,12)             112.3153         estimate D2E/DX2                !
 ! A7    A(2,3,4)              117.2757         estimate D2E/DX2                !
 ! A8    A(2,3,11)             111.5646         estimate D2E/DX2                !
 ! A9    A(4,3,11)             131.1597         estimate D2E/DX2                !
 ! A10   A(3,4,5)              119.1367         estimate D2E/DX2                !
 ! A11   A(3,4,8)              120.6547         estimate D2E/DX2                !
 ! A12   A(5,4,8)              120.2086         estimate D2E/DX2                !
 ! A13   A(4,5,6)              122.5383         estimate D2E/DX2                !
 ! A14   A(4,5,9)              118.2747         estimate D2E/DX2                !
 ! A15   A(6,5,9)              119.187          estimate D2E/DX2                !
 ! A16   A(1,6,5)              119.3898         estimate D2E/DX2                !
 ! A17   A(1,6,10)             120.2714         estimate D2E/DX2                !
 ! A18   A(5,6,10)             120.3388         estimate D2E/DX2                !
 ! A19   A(3,11,23)            111.0665         estimate D2E/DX2                !
 ! A20   A(3,11,25)            137.7294         estimate D2E/DX2                !
 ! A21   A(23,11,25)           111.2041         estimate D2E/DX2                !
 ! A22   A(2,12,23)             88.8984         estimate D2E/DX2                !
 ! A23   A(14,13,15)           122.5362         estimate D2E/DX2                !
 ! A24   A(14,13,23)           120.7419         estimate D2E/DX2                !
 ! A25   A(15,13,23)           116.7219         estimate D2E/DX2                !
 ! A26   A(13,14,16)           119.2263         estimate D2E/DX2                !
 ! A27   A(13,14,17)           121.4588         estimate D2E/DX2                !
 ! A28   A(16,14,17)           119.3148         estimate D2E/DX2                !
 ! A29   A(13,15,18)           115.6574         estimate D2E/DX2                !
 ! A30   A(13,15,24)           117.8971         estimate D2E/DX2                !
 ! A31   A(18,15,24)           126.4456         estimate D2E/DX2                !
 ! A32   A(14,16,19)           120.56           estimate D2E/DX2                !
 ! A33   A(14,16,20)           119.0334         estimate D2E/DX2                !
 ! A34   A(19,16,20)           120.4065         estimate D2E/DX2                !
 ! A35   A(15,18,19)           121.1928         estimate D2E/DX2                !
 ! A36   A(15,18,21)           117.2751         estimate D2E/DX2                !
 ! A37   A(19,18,21)           121.5321         estimate D2E/DX2                !
 ! A38   A(16,19,18)           120.8272         estimate D2E/DX2                !
 ! A39   A(16,19,22)           119.4971         estimate D2E/DX2                !
 ! A40   A(18,19,22)           119.6757         estimate D2E/DX2                !
 ! A41   A(11,23,12)           116.1553         estimate D2E/DX2                !
 ! A42   A(11,23,13)           123.9018         estimate D2E/DX2                !
 ! A43   A(12,23,13)           119.9429         estimate D2E/DX2                !
 ! D1    D(6,1,2,3)             -0.0001         estimate D2E/DX2                !
 ! D2    D(6,1,2,12)           180.0            estimate D2E/DX2                !
 ! D3    D(7,1,2,3)            179.9999         estimate D2E/DX2                !
 ! D4    D(7,1,2,12)            -0.0001         estimate D2E/DX2                !
 ! D5    D(2,1,6,5)             -0.0002         estimate D2E/DX2                !
 ! D6    D(2,1,6,10)           179.9999         estimate D2E/DX2                !
 ! D7    D(7,1,6,5)            179.9999         estimate D2E/DX2                !
 ! D8    D(7,1,6,10)             0.0            estimate D2E/DX2                !
 ! D9    D(1,2,3,4)              0.0003         estimate D2E/DX2                !
 ! D10   D(1,2,3,11)          -179.9999         estimate D2E/DX2                !
 ! D11   D(12,2,3,4)          -179.9997         estimate D2E/DX2                !
 ! D12   D(12,2,3,11)            0.0001         estimate D2E/DX2                !
 ! D13   D(1,2,12,23)          179.9996         estimate D2E/DX2                !
 ! D14   D(3,2,12,23)           -0.0004         estimate D2E/DX2                !
 ! D15   D(2,3,4,5)             -0.0003         estimate D2E/DX2                !
 ! D16   D(2,3,4,8)            179.9998         estimate D2E/DX2                !
 ! D17   D(11,3,4,5)           180.0            estimate D2E/DX2                !
 ! D18   D(11,3,4,8)             0.0001         estimate D2E/DX2                !
 ! D19   D(2,3,11,23)            0.0004         estimate D2E/DX2                !
 ! D20   D(2,3,11,25)          179.9952         estimate D2E/DX2                !
 ! D21   D(4,3,11,23)         -179.9999         estimate D2E/DX2                !
 ! D22   D(4,3,11,25)           -0.0051         estimate D2E/DX2                !
 ! D23   D(3,4,5,6)              0.0001         estimate D2E/DX2                !
 ! D24   D(3,4,5,9)           -179.9999         estimate D2E/DX2                !
 ! D25   D(8,4,5,6)            180.0            estimate D2E/DX2                !
 ! D26   D(8,4,5,9)              0.0            estimate D2E/DX2                !
 ! D27   D(4,5,6,1)              0.0002         estimate D2E/DX2                !
 ! D28   D(4,5,6,10)          -179.9999         estimate D2E/DX2                !
 ! D29   D(9,5,6,1)           -179.9999         estimate D2E/DX2                !
 ! D30   D(9,5,6,10)             0.0            estimate D2E/DX2                !
 ! D31   D(3,11,23,12)          -0.0007         estimate D2E/DX2                !
 ! D32   D(3,11,23,13)         179.9981         estimate D2E/DX2                !
 ! D33   D(25,11,23,12)       -179.9969         estimate D2E/DX2                !
 ! D34   D(25,11,23,13)          0.0019         estimate D2E/DX2                !
 ! D35   D(2,12,23,11)           0.0006         estimate D2E/DX2                !
 ! D36   D(2,12,23,13)        -179.9983         estimate D2E/DX2                !
 ! D37   D(15,13,14,16)          0.0015         estimate D2E/DX2                !
 ! D38   D(15,13,14,17)       -179.9991         estimate D2E/DX2                !
 ! D39   D(23,13,14,16)       -179.9986         estimate D2E/DX2                !
 ! D40   D(23,13,14,17)          0.0008         estimate D2E/DX2                !
 ! D41   D(14,13,15,18)         -0.0017         estimate D2E/DX2                !
 ! D42   D(14,13,15,24)        179.998          estimate D2E/DX2                !
 ! D43   D(23,13,15,18)        179.9984         estimate D2E/DX2                !
 ! D44   D(23,13,15,24)         -0.0019         estimate D2E/DX2                !
 ! D45   D(14,13,23,11)       -179.9997         estimate D2E/DX2                !
 ! D46   D(14,13,23,12)         -0.0009         estimate D2E/DX2                !
 ! D47   D(15,13,23,11)          0.0002         estimate D2E/DX2                !
 ! D48   D(15,13,23,12)        179.999          estimate D2E/DX2                !
 ! D49   D(13,14,16,19)         -0.0003         estimate D2E/DX2                !
 ! D50   D(13,14,16,20)        179.9996         estimate D2E/DX2                !
 ! D51   D(17,14,16,19)       -179.9997         estimate D2E/DX2                !
 ! D52   D(17,14,16,20)          0.0001         estimate D2E/DX2                !
 ! D53   D(13,15,18,19)          0.0008         estimate D2E/DX2                !
 ! D54   D(13,15,18,21)       -180.0            estimate D2E/DX2                !
 ! D55   D(24,15,18,19)       -179.9988         estimate D2E/DX2                !
 ! D56   D(24,15,18,21)          0.0004         estimate D2E/DX2                !
 ! D57   D(14,16,19,18)         -0.0006         estimate D2E/DX2                !
 ! D58   D(14,16,19,22)        179.9997         estimate D2E/DX2                !
 ! D59   D(20,16,19,18)        179.9995         estimate D2E/DX2                !
 ! D60   D(20,16,19,22)         -0.0001         estimate D2E/DX2                !
 ! D61   D(15,18,19,16)          0.0003         estimate D2E/DX2                !
 ! D62   D(15,18,19,22)        179.9999         estimate D2E/DX2                !
 ! D63   D(21,18,19,16)       -179.9989         estimate D2E/DX2                !
 ! D64   D(21,18,19,22)          0.0008         estimate D2E/DX2                !
 ! Qtot  GIC-1                  50.0            Frozen                          !
 ! Ptot  GIC-2                 200.0            Frozen                          !
 --------------------------------------------------------------------------------
 NOTE: GIC-type coordinates are in arbitrary units.
 Trust Radius=3.00D-01 FncErr=5.00D-06 GrdErr=5.00D-06 EigMax=2.50D+02 EigMin=1.00D-04
 Number of steps in this run=    146 maximum allowed number of steps=    150.
 GradGradGradGradGradGradGradGradGradGradGradGradGradGradGradGradGradGrad

 Leave Link  103 at Wed Oct 28 01:05:06 2020, MaxMem=  7784628224 cpu:               0.5 elap:               0.1
 (Enter /gpfs/loomis/apps/avx/software/Gaussian/16-C.01_AVX/g16/l202.exe)
                          Input orientation:                          
 ---------------------------------------------------------------------
 Center     Atomic      Atomic             Coordinates (Angstroms)
 Number     Number       Type             X           Y           Z
 ---------------------------------------------------------------------
      1          6           0        1.520509   -3.243657   -0.000016
      2          6           0        1.008082   -1.939374   -0.000023
      3          6           0        1.821482   -0.770169   -0.000027
      4          6           0        3.212316   -0.954514   -0.000031
      5          6           0        3.730609   -2.264467   -0.000024
      6          6           0        2.908346   -3.401419   -0.000015
      7          1           0        0.839492   -4.107316   -0.000011
      8          1           0        3.892710   -0.090036   -0.000038
      9          1           0        4.819069   -2.392101   -0.000025
     10          1           0        3.350291   -4.404101   -0.000008
     11          7           0        1.041996    0.402623   -0.000032
     12         16           0       -0.692928   -1.561941   -0.000027
     13          6           0       -1.317863    1.084835    0.000013
     14          6           0       -2.651812    0.709800    0.000027
     15          6           0       -0.891220    2.495001    0.000037
     16          6           0       -3.659764    1.720238    0.000034
     17          1           0       -2.949908   -0.346762    0.000024
     18          6           0       -1.954975    3.469428    0.000037
     19          6           0       -3.309689    3.072853    0.000033
     20          1           0       -4.714385    1.419900    0.000039
     21          1           0       -1.666765    4.529094    0.000054
     22          1           0       -4.097524    3.833860    0.000034
     23          6           0       -0.288912    0.106516   -0.000023
     24          8           0        0.338465    2.735453    0.000061
     25          1           0        1.146321    1.087505    0.000004
 ---------------------------------------------------------------------
                    Distance matrix (angstroms):
                    1          2          3          4          5
     1  C    0.000000
     2  C    1.401333   0.000000
     3  C    2.491731   1.424310   0.000000
     4  C    2.846469   2.414248   1.402997   0.000000
     5  C    2.417303   2.741867   2.424395   1.408760   0.000000
     6  C    1.396776   2.397619   2.846884   2.465714   1.403131
     7  H    1.099859   2.174487   3.478628   3.945941   3.428505
     8  H    3.946221   3.426533   2.180038   1.100117   2.180465
     9  H    3.406706   3.837783   3.408253   2.155995   1.095918
    10  H    2.166734   3.400120   3.942425   3.452345   2.173171
    11  N    3.677544   2.342243   1.408205   2.559708   3.787085
    12  S    2.779832   1.742381   2.636126   3.952201   4.478975
    13  C    5.176117   3.815215   3.646440   4.968044   6.058456
    14  C    5.747876   4.518070   4.711759   6.095731   7.041418
    15  C    6.224840   4.824006   4.245008   5.360798   6.634293
    16  C    7.174641   5.931404   6.020481   7.374264   8.396159
    17  H    5.326971   4.266392   4.790140   6.192121   6.950316
    18  C    7.559398   6.167240   5.677660   6.802364   8.074864
    19  C    7.951673   6.615555   6.410752   7.665261   8.834748
    20  H    7.786056   6.635613   6.893038   8.274686   9.213712
    21  H    8.400855   6.999707   6.344294   7.339985   8.676642
    22  H    9.036234   7.706974   7.498781   8.738551   9.923167
    23  C    3.807579   2.422367   2.285244   3.658466   4.666702
    24  O    6.094832   4.722541   3.806406   4.677057   6.042006
    25  H    4.347295   3.030034   1.976562   2.904853   4.232524
                    6          7          8          9         10
     6  C    0.000000
     7  H    2.185966   0.000000
     8  H    3.454596   5.045857   0.000000
     9  H    2.160922   4.333474   2.481461   0.000000
    10  H    1.095758   2.528279   4.348031   2.491074   0.000000
    11  N    4.237216   4.514483   2.892971   4.698592   5.332244
    12  S    4.043866   2.971067   4.816075   5.574161   4.942215
    13  C    6.163385   5.622509   5.341384   7.053440   7.205559
    14  C    6.915019   5.949270   6.593217   8.089243   7.885254
    15  C    7.014590   6.825390   5.437683   7.516061   8.098643
    16  C    8.328952   7.362315   7.766399   9.423478   9.308512
    17  H    6.606820   5.338662   6.847432   8.033705   7.493631
    18  C    8.417864   8.075648   6.845816   8.957969   9.494120
    19  C    8.976645   8.292800   7.866283   9.795021  10.013000
    20  H    9.019488   7.835539   8.738535  10.267332   9.947763
    21  H    9.155582   8.992713   7.228009   9.485198  10.245625
    22  H   10.071320   9.350743   8.901729  10.875119  11.105582
    23  C    4.746375   4.362302   4.186238   5.686348   5.795642
    24  O    6.653231   6.861086   4.540489   6.809377   7.748827
    25  H    4.822362   5.203874   2.988186   5.059322   5.917366
                   11         12         13         14         15
    11  N    0.000000
    12  S    2.620969   0.000000
    13  C    2.456491   2.719553   0.000000
    14  C    3.706559   2.999673   1.385666   0.000000
    15  C    2.848749   4.061786   1.473294   2.507315   0.000000
    16  C    4.882895   4.424344   2.426569   1.427218   2.874908
    17  H    4.061635   2.563322   2.170954   1.097809   3.509105
    18  C    4.288022   5.187238   2.468238   2.846248   1.442596
    19  C    5.105614   5.322477   2.814176   2.452921   2.486545
    20  H    5.845578   5.006346   3.413009   2.181387   3.971453
    21  H    4.936107   6.168393   3.461886   3.944277   2.176925
    22  H    6.179648   6.380121   3.909431   3.442358   3.474612
    23  C    1.363450   1.716677   1.419805   2.438699   2.463257
    24  O    2.436606   4.419431   2.338368   3.611790   1.252973
    25  H    0.692781   3.225275   2.464185   3.816867   2.476412
                   16         17         18         19         20
    16  C    0.000000
    17  H    2.185494   0.000000
    18  C    2.442534   3.943754   0.000000
    19  C    1.397184   3.438490   1.411566   0.000000
    20  H    1.096553   2.496893   3.437282   2.169199   0.000000
    21  H    3.444085   5.041868   1.098161   2.195412   4.353742
    22  H    2.158479   4.335277   2.173321   1.095361   2.491529
    23  C    3.737211   2.699326   3.752991   4.233704   4.616253
    24  O    4.125106   4.507044   2.408026   3.663723   5.221300
    25  H    4.847556   4.340070   3.910447   4.878281   5.870124
                   21         22         23         24         25
    21  H    0.000000
    22  H    2.528228   0.000000
    23  C    4.632243   5.329035   0.000000
    24  O    2.690371   4.569956   2.702759   0.000000
    25  H    4.444996   5.919491   1.738456   1.835310   0.000000
 Symmetry turned off by external request.
 Stoichiometry    C13H9NOS
 Framework group  C1[X(C13H9NOS)]
 Deg. of freedom    69
 Full point group                 C1      NOp   1
 Rotational constants (GHZ):           1.4230967           0.2862925           0.2383435
 Leave Link  202 at Wed Oct 28 01:05:06 2020, MaxMem=  7784628224 cpu:               0.1 elap:               0.0
 (Enter /gpfs/loomis/apps/avx/software/Gaussian/16-C.01_AVX/g16/l301.exe)
 Standard basis: CC-pVDZ (5D, 7F)
 Ernie: Thresh=  0.10000D-02 Tol=  0.10000D-05 Strict=F.
 Ernie:  40 primitive shells out of 425 were deleted.
   273 basis functions,   629 primitive gaussians,   289 cartesian basis functions
    59 alpha electrons       59 beta electrons
       nuclear repulsion energy      1103.7875114799 Hartrees.
 IExCor= 4639 DFT=T Ex+Corr=wB97XD ExCW=0 ScaHFX=  1.000000
 ScaDFX=  1.000000  1.000000  1.000000  1.000000 ScalE2=  1.000000  1.000000
 IRadAn=      5 IRanWt=     -1 IRanGd=            0 ICorTp=0 IEmpDi=121
 HFx  wShort=  0.000000 wLong=  0.200000 cFull=  0.222036 cShort=  0.000000 cLong=  0.777964
 DFx  wShort=  0.000000 wLong=  0.200000 cFull=  0.000000 cShort=  0.000000 cLong=  1.000000
 NAtoms=   25 NActive=   25 NUniq=   25 SFac= 1.00D+00 NAtFMM=   60 NAOKFM=F Big=F
 Integral buffers will be    131072 words long.
 Raffenetti 2 integral format.
 Two-electron integral symmetry is turned off.
 R6Disp:  Grimme-D2 Dispersion energy=       -0.0139980822 Hartrees.
 Nuclear repulsion after empirical dispersion term =     1103.7735133977 Hartrees.
 ------------------------------------------------------------------------------
 Polarizable Continuum Model (PCM)
 =================================
 Model                : PCM.
 Atomic radii         : UFF (Universal Force Field).
 Polarization charges : Total charges.
 Charge compensation  : None.
 Solution method      : On-the-fly selection.
 Cavity type          : Scaled VdW (van der Waals Surface) (Alpha=1.100).
 Cavity algorithm     : GePol (No added spheres)
                        Default sphere list used, NSphG=   25.
                        Lebedev-Laikov grids with approx.  5.0 points / Ang**2.
                        Smoothing algorithm: York/Karplus (Gamma=1.0000).
                        Polarization charges: spherical gaussians, with
                                              point-specific exponents (IZeta= 3).
                        Self-potential: point-specific (ISelfS= 7).
                        Self-field    : sphere-specific E.n sum rule (ISelfD= 2).
 1st derivatives      : Analytical E(r).r(x)/FMM algorithm (CHGder, D1EAlg=3).
                        Cavity 1st derivative terms included.
 Solvent              : CarbonTetraChloride, Eps=   2.228000 Eps(inf)=   2.131892
 ------------------------------------------------------------------------------
 GePol: Number of generator spheres                  =      25
 GePol: Total number of spheres                      =      25
 GePol: Number of exposed spheres                    =      25 (100.00%)
 GePol: Number of points                             =    2181
 GePol: Average weight of points                     =       0.12
 GePol: Minimum weight of points                     =   0.18D-10
 GePol: Maximum weight of points                     =    0.20577
 GePol: Number of points with low weight             =     133
 GePol: Fraction of low-weight points (<1% of avg)   =       6.10%
 GePol: Cavity surface area                          =    271.800 Ang**2
 GePol: Cavity volume                                =    291.938 Ang**3
 Leave Link  301 at Wed Oct 28 01:05:06 2020, MaxMem=  7784628224 cpu:               0.8 elap:               0.1
 (Enter /gpfs/loomis/apps/avx/software/Gaussian/16-C.01_AVX/g16/l302.exe)
 NPDir=0 NMtPBC=     1 NCelOv=     1 NCel=       1 NClECP=     1 NCelD=      1
         NCelK=      1 NCelE2=     1 NClLst=     1 CellRange=     0.0.
 One-electron integrals computed using PRISM.
 NBasis=   273 RedAO= T EigKep=  3.16D-04  NBF=   273
 NBsUse=   273 1.00D-06 EigRej= -1.00D+00 NBFU=   273
 Precomputing XC quadrature grid using
 IXCGrd= 4 IRadAn=           5 IRanWt=          -1 IRanGd=           0 AccXCQ= 0.00D+00.
 Generated NRdTot=       0 NPtTot=           0 NUsed=           0 NTot=          32
 NSgBfM=   288   288   288   288   288 MxSgAt=    25 MxSgA2=    25.
 Leave Link  302 at Wed Oct 28 01:05:07 2020, MaxMem=  7784628224 cpu:               2.6 elap:               0.3
 (Enter /gpfs/loomis/apps/avx/software/Gaussian/16-C.01_AVX/g16/l303.exe)
 DipDrv:  MaxL=1.
 Leave Link  303 at Wed Oct 28 01:05:07 2020, MaxMem=  7784628224 cpu:               0.4 elap:               0.1
 (Enter /gpfs/loomis/apps/avx/software/Gaussian/16-C.01_AVX/g16/l401.exe)
 ExpMin= 1.22D-01 ExpMax= 1.11D+05 ExpMxC= 1.07D+03 IAcc=3 IRadAn=         5 AccDes= 0.00D+00
 Harris functional with IExCor= 4639 and IRadAn=       5 diagonalized for initial guess.
 HarFok:  IExCor= 4639 AccDes= 0.00D+00 IRadAn=         5 IDoV= 1 UseB2=F ITyADJ=14
 ICtDFT=  3500011 ScaDFX=  1.000000  1.000000  1.000000  1.000000
 FoFCou: FMM=F IPFlag=           0 FMFlag=      100000 FMFlg1=           0
         NFxFlg=           0 DoJE=T BraDBF=F KetDBF=T FulRan=T
         wScrn=  0.000000 ICntrl=       500 IOpCl=  0 I1Cent=   200000004 NGrid=           0
         NMat0=    1 NMatS0=      1 NMatT0=    0 NMatD0=    1 NMtDS0=    0 NMtDT0=    0
 Symmetry not used in FoFCou.
 Harris En= -994.236941087934    
 JPrj=0 DoOrth=F DoCkMO=F.
 Leave Link  401 at Wed Oct 28 01:05:08 2020, MaxMem=  7784628224 cpu:              14.1 elap:               1.5
 (Enter /gpfs/loomis/apps/avx/software/Gaussian/16-C.01_AVX/g16/l502.exe)
 Two-electron integral symmetry not used.
 Closed shell SCF:
 Using DIIS extrapolation, IDIIS=  1040.
 NGot=  7784628224 LenX=  7784455381 LenY=  7784371419
 Requested convergence on RMS density matrix=1.00D-08 within 128 cycles.
 Requested convergence on MAX density matrix=1.00D-06.
 Requested convergence on             energy=1.00D-06.
 No special actions if energy rises.
 Fock matrices will be formed incrementally for  20 cycles.

 Cycle   1  Pass 1  IDiag  1:
 FoFJK:  IHMeth= 1 ICntrl=       0 DoSepK=T KAlg= 0 I1Cent=           0 FoldK=F
 IRaf=         1 NMat=       1 IRICut=       1 DoRegI=T DoRafI=F ISym2E= 0 IDoP0=0 IntGTp=1.
 FoFCou: FMM=F IPFlag=           0 FMFlag=      100000 FMFlg1=           0
         NFxFlg=           0 DoJE=T BraDBF=F KetDBF=F FulRan=T
         wScrn=  0.000000 ICntrl=       500 IOpCl=  0 I1Cent=           0 NGrid=           0
         NMat0=    1 NMatS0=      1 NMatT0=    0 NMatD0=    1 NMtDS0=    0 NMtDT0=    0
 Symmetry not used in FoFCou.
 Inv3:  Mode=1 IEnd=    14270283.
 Iteration    1 A*A^-1 deviation from unit magnitude is 6.77D-15 for   2177.
 Iteration    1 A*A^-1 deviation from orthogonality  is 1.83D-15 for   2163   2079.
 Iteration    1 A^-1*A deviation from unit magnitude is 7.22D-15 for   2177.
 Iteration    1 A^-1*A deviation from orthogonality  is 5.07D-15 for   2177    126.
 E= -1028.35128796284    
 DIIS: error= 4.30D-02 at cycle   1 NSaved=   1.
 NSaved= 1 IEnMin= 1 EnMin= -1028.35128796284     IErMin= 1 ErrMin= 4.30D-02
 ErrMax= 4.30D-02  0.00D+00 EMaxC= 1.00D-01 BMatC= 3.91D-01 BMatP= 3.91D-01
 IDIUse=3 WtCom= 5.70D-01 WtEn= 4.30D-01
 Coeff-Com:  0.100D+01
 Coeff-En:   0.100D+01
 Coeff:      0.100D+01
 Gap=     0.296 Goal=   None    Shift=    0.000
 GapD=    0.296 DampG=1.000 DampE=0.500 DampFc=0.5000 IDamp=-1.
 Damping current iteration by 5.00D-01
 RMSDP=3.63D-03 MaxDP=2.53D-01              OVMax= 2.05D-01

 Cycle   2  Pass 1  IDiag  1:
 RMSU=  1.81D-03    CP:  9.94D-01
 E= -1028.47167921102     Delta-E=       -0.120391248181 Rises=F Damp=T
 DIIS: error= 1.17D-02 at cycle   2 NSaved=   2.
 NSaved= 2 IEnMin= 2 EnMin= -1028.47167921102     IErMin= 2 ErrMin= 1.17D-02
 ErrMax= 1.17D-02  0.00D+00 EMaxC= 1.00D-01 BMatC= 5.83D-02 BMatP= 3.91D-01
 IDIUse=3 WtCom= 8.83D-01 WtEn= 1.17D-01
 Coeff-Com: -0.296D+00 0.130D+01
 Coeff-En:   0.000D+00 0.100D+01
 Coeff:     -0.262D+00 0.126D+01
 Gap=     0.269 Goal=   None    Shift=    0.000
 RMSDP=1.15D-03 MaxDP=2.67D-02 DE=-1.20D-01 OVMax= 1.41D-01

 Cycle   3  Pass 1  IDiag  1:
 RMSU=  1.11D-03    CP:  9.93D-01  1.16D+00
 E= -1028.58013867272     Delta-E=       -0.108459461703 Rises=F Damp=F
 DIIS: error= 5.64D-03 at cycle   3 NSaved=   3.
 NSaved= 3 IEnMin= 3 EnMin= -1028.58013867272     IErMin= 3 ErrMin= 5.64D-03
 ErrMax= 5.64D-03  0.00D+00 EMaxC= 1.00D-01 BMatC= 1.44D-02 BMatP= 5.83D-02
 IDIUse=3 WtCom= 9.44D-01 WtEn= 5.64D-02
 Coeff-Com: -0.204D+00 0.494D+00 0.710D+00
 Coeff-En:   0.000D+00 0.000D+00 0.100D+01
 Coeff:     -0.192D+00 0.466D+00 0.726D+00
 Gap=     0.234 Goal=   None    Shift=    0.000
 RMSDP=5.26D-04 MaxDP=1.94D-02 DE=-1.08D-01 OVMax= 4.65D-02

 Cycle   4  Pass 1  IDiag  1:
 RMSU=  4.12D-04    CP:  9.91D-01  1.32D+00  8.61D-01
 E= -1028.59443793385     Delta-E=       -0.014299261130 Rises=F Damp=F
 DIIS: error= 1.85D-03 at cycle   4 NSaved=   4.
 NSaved= 4 IEnMin= 4 EnMin= -1028.59443793385     IErMin= 4 ErrMin= 1.85D-03
 ErrMax= 1.85D-03  0.00D+00 EMaxC= 1.00D-01 BMatC= 1.72D-03 BMatP= 1.44D-02
 IDIUse=3 WtCom= 9.81D-01 WtEn= 1.85D-02
 Coeff-Com: -0.721D-01 0.143D+00 0.339D+00 0.590D+00
 Coeff-En:   0.000D+00 0.000D+00 0.000D+00 0.100D+01
 Coeff:     -0.707D-01 0.140D+00 0.333D+00 0.598D+00
 Gap=     0.236 Goal=   None    Shift=    0.000
 RMSDP=1.65D-04 MaxDP=8.42D-03 DE=-1.43D-02 OVMax= 1.21D-02

 Cycle   5  Pass 1  IDiag  1:
 RMSU=  1.11D-04    CP:  9.91D-01  1.33D+00  9.30D-01  7.74D-01
 E= -1028.59630253817     Delta-E=       -0.001864604311 Rises=F Damp=F
 DIIS: error= 5.34D-04 at cycle   5 NSaved=   5.
 NSaved= 5 IEnMin= 5 EnMin= -1028.59630253817     IErMin= 5 ErrMin= 5.34D-04
 ErrMax= 5.34D-04  0.00D+00 EMaxC= 1.00D-01 BMatC= 6.51D-05 BMatP= 1.72D-03
 IDIUse=3 WtCom= 9.95D-01 WtEn= 5.34D-03
 Coeff-Com: -0.864D-03-0.465D-02 0.305D-01 0.166D+00 0.809D+00
 Coeff-En:   0.000D+00 0.000D+00 0.000D+00 0.000D+00 0.100D+01
 Coeff:     -0.859D-03-0.463D-02 0.303D-01 0.165D+00 0.810D+00
 Gap=     0.237 Goal=   None    Shift=    0.000
 RMSDP=6.39D-05 MaxDP=2.14D-03 DE=-1.86D-03 OVMax= 6.84D-03

 Cycle   6  Pass 1  IDiag  1:
 RMSU=  4.25D-05    CP:  9.91D-01  1.34D+00  9.47D-01  8.74D-01  1.12D+00
 E= -1028.59645211943     Delta-E=       -0.000149581266 Rises=F Damp=F
 DIIS: error= 3.03D-04 at cycle   6 NSaved=   6.
 NSaved= 6 IEnMin= 6 EnMin= -1028.59645211943     IErMin= 6 ErrMin= 3.03D-04
 ErrMax= 3.03D-04  0.00D+00 EMaxC= 1.00D-01 BMatC= 1.25D-05 BMatP= 6.51D-05
 IDIUse=3 WtCom= 9.97D-01 WtEn= 3.03D-03
 Coeff-Com:  0.180D-01-0.370D-01-0.676D-01-0.783D-01 0.218D+00 0.947D+00
 Coeff-En:   0.000D+00 0.000D+00 0.000D+00 0.000D+00 0.000D+00 0.100D+01
 Coeff:      0.180D-01-0.369D-01-0.674D-01-0.781D-01 0.217D+00 0.947D+00
 Gap=     0.238 Goal=   None    Shift=    0.000
 RMSDP=4.21D-05 MaxDP=2.12D-03 DE=-1.50D-04 OVMax= 5.41D-03

 Cycle   7  Pass 1  IDiag  1:
 RMSU=  2.13D-05    CP:  9.90D-01  1.34D+00  9.62D-01  9.14D-01  1.35D+00
                    CP:  1.30D+00
 E= -1028.59649845717     Delta-E=       -0.000046337735 Rises=F Damp=F
 DIIS: error= 9.31D-05 at cycle   7 NSaved=   7.
 NSaved= 7 IEnMin= 7 EnMin= -1028.59649845717     IErMin= 7 ErrMin= 9.31D-05
 ErrMax= 9.31D-05  0.00D+00 EMaxC= 1.00D-01 BMatC= 3.64D-06 BMatP= 1.25D-05
 IDIUse=1 WtCom= 1.00D+00 WtEn= 0.00D+00
 Coeff-Com:  0.820D-02-0.157D-01-0.329D-01-0.602D-01-0.302D-01 0.447D+00
 Coeff-Com:  0.683D+00
 Coeff:      0.820D-02-0.157D-01-0.329D-01-0.602D-01-0.302D-01 0.447D+00
 Coeff:      0.683D+00
 Gap=     0.238 Goal=   None    Shift=    0.000
 RMSDP=1.67D-05 MaxDP=6.52D-04 DE=-4.63D-05 OVMax= 1.83D-03

 Cycle   8  Pass 1  IDiag  1:
 RMSU=  9.12D-06    CP:  9.90D-01  1.34D+00  9.63D-01  9.24D-01  1.41D+00
                    CP:  1.56D+00  1.10D+00
 E= -1028.59650674520     Delta-E=       -0.000008288032 Rises=F Damp=F
 DIIS: error= 6.83D-05 at cycle   8 NSaved=   8.
 NSaved= 8 IEnMin= 8 EnMin= -1028.59650674520     IErMin= 8 ErrMin= 6.83D-05
 ErrMax= 6.83D-05  0.00D+00 EMaxC= 1.00D-01 BMatC= 4.33D-07 BMatP= 3.64D-06
 IDIUse=1 WtCom= 1.00D+00 WtEn= 0.00D+00
 Coeff-Com: -0.144D-02 0.322D-02 0.625D-02 0.116D-03-0.463D-01-0.774D-01
 Coeff-Com:  0.164D+00 0.952D+00
 Coeff:     -0.144D-02 0.322D-02 0.625D-02 0.116D-03-0.463D-01-0.774D-01
 Coeff:      0.164D+00 0.952D+00
 Gap=     0.238 Goal=   None    Shift=    0.000
 RMSDP=8.95D-06 MaxDP=2.39D-04 DE=-8.29D-06 OVMax= 1.52D-03

 Cycle   9  Pass 1  IDiag  1:
 RMSU=  3.49D-06    CP:  9.90D-01  1.34D+00  9.63D-01  9.25D-01  1.43D+00
                    CP:  1.68D+00  1.36D+00  1.21D+00
 E= -1028.59650890088     Delta-E=       -0.000002155683 Rises=F Damp=F
 DIIS: error= 2.04D-05 at cycle   9 NSaved=   9.
 NSaved= 9 IEnMin= 9 EnMin= -1028.59650890088     IErMin= 9 ErrMin= 2.04D-05
 ErrMax= 2.04D-05  0.00D+00 EMaxC= 1.00D-01 BMatC= 1.55D-07 BMatP= 4.33D-07
 IDIUse=1 WtCom= 1.00D+00 WtEn= 0.00D+00
 Coeff-Com: -0.165D-02 0.326D-02 0.724D-02 0.863D-02-0.121D-01-0.103D+00
 Coeff-Com: -0.812D-01 0.378D+00 0.801D+00
 Coeff:     -0.165D-02 0.326D-02 0.724D-02 0.863D-02-0.121D-01-0.103D+00
 Coeff:     -0.812D-01 0.378D+00 0.801D+00
 Gap=     0.238 Goal=   None    Shift=    0.000
 RMSDP=4.63D-06 MaxDP=1.59D-04 DE=-2.16D-06 OVMax= 6.70D-04

 Cycle  10  Pass 1  IDiag  1:
 RMSU=  1.65D-06    CP:  9.90D-01  1.34D+00  9.63D-01  9.25D-01  1.44D+00
                    CP:  1.74D+00  1.45D+00  1.47D+00  1.20D+00
 E= -1028.59650940221     Delta-E=       -0.000000501331 Rises=F Damp=F
 DIIS: error= 1.16D-05 at cycle  10 NSaved=  10.
 NSaved=10 IEnMin=10 EnMin= -1028.59650940221     IErMin=10 ErrMin= 1.16D-05
 ErrMax= 1.16D-05  0.00D+00 EMaxC= 1.00D-01 BMatC= 2.20D-08 BMatP= 1.55D-07
 IDIUse=1 WtCom= 1.00D+00 WtEn= 0.00D+00
 Coeff-Com:  0.521D-04-0.181D-03 0.171D-03 0.160D-02 0.902D-02-0.822D-02
 Coeff-Com: -0.778D-01-0.900D-01 0.251D+00 0.915D+00
 Coeff:      0.521D-04-0.181D-03 0.171D-03 0.160D-02 0.902D-02-0.822D-02
 Coeff:     -0.778D-01-0.900D-01 0.251D+00 0.915D+00
 Gap=     0.238 Goal=   None    Shift=    0.000
 RMSDP=2.19D-06 MaxDP=5.46D-05 DE=-5.01D-07 OVMax= 3.86D-04

 Cycle  11  Pass 1  IDiag  1:
 RMSU=  6.27D-07    CP:  9.90D-01  1.34D+00  9.64D-01  9.26D-01  1.45D+00
                    CP:  1.77D+00  1.49D+00  1.58D+00  1.51D+00  1.22D+00
 E= -1028.59650950749     Delta-E=       -0.000000105276 Rises=F Damp=F
 DIIS: error= 4.06D-06 at cycle  11 NSaved=  11.
 NSaved=11 IEnMin=11 EnMin= -1028.59650950749     IErMin=11 ErrMin= 4.06D-06
 ErrMax= 4.06D-06  0.00D+00 EMaxC= 1.00D-01 BMatC= 4.24D-09 BMatP= 2.20D-08
 IDIUse=1 WtCom= 1.00D+00 WtEn= 0.00D+00
 Coeff-Com:  0.278D-03-0.573D-03-0.101D-02-0.902D-03 0.512D-02 0.133D-01
 Coeff-Com: -0.153D-01-0.744D-01-0.613D-01 0.266D+00 0.869D+00
 Coeff:      0.278D-03-0.573D-03-0.101D-02-0.902D-03 0.512D-02 0.133D-01
 Coeff:     -0.153D-01-0.744D-01-0.613D-01 0.266D+00 0.869D+00
 Gap=     0.238 Goal=   None    Shift=    0.000
 RMSDP=7.81D-07 MaxDP=2.35D-05 DE=-1.05D-07 OVMax= 1.22D-04

 Cycle  12  Pass 1  IDiag  1:
 RMSU=  2.49D-07    CP:  9.90D-01  1.34D+00  9.64D-01  9.26D-01  1.45D+00
                    CP:  1.77D+00  1.49D+00  1.62D+00  1.61D+00  1.46D+00
                    CP:  1.20D+00
 E= -1028.59650952154     Delta-E=       -0.000000014053 Rises=F Damp=F
 DIIS: error= 1.40D-06 at cycle  12 NSaved=  12.
 NSaved=12 IEnMin=12 EnMin= -1028.59650952154     IErMin=12 ErrMin= 1.40D-06
 ErrMax= 1.40D-06  0.00D+00 EMaxC= 1.00D-01 BMatC= 6.53D-10 BMatP= 4.24D-09
 IDIUse=1 WtCom= 1.00D+00 WtEn= 0.00D+00
 Coeff-Com:  0.120D-03-0.232D-03-0.507D-03-0.886D-03 0.421D-03 0.789D-02
 Coeff-Com:  0.896D-02-0.976D-02-0.811D-01-0.751D-01 0.303D+00 0.847D+00
 Coeff:      0.120D-03-0.232D-03-0.507D-03-0.886D-03 0.421D-03 0.789D-02
 Coeff:      0.896D-02-0.976D-02-0.811D-01-0.751D-01 0.303D+00 0.847D+00
 Gap=     0.238 Goal=   None    Shift=    0.000
 RMSDP=3.23D-07 MaxDP=9.69D-06 DE=-1.41D-08 OVMax= 5.04D-05

 Cycle  13  Pass 1  IDiag  1:
 RMSU=  9.57D-08    CP:  9.90D-01  1.34D+00  9.64D-01  9.26D-01  1.45D+00
                    CP:  1.78D+00  1.50D+00  1.63D+00  1.65D+00  1.55D+00
                    CP:  1.43D+00  1.08D+00
 E= -1028.59650952382     Delta-E=       -0.000000002281 Rises=F Damp=F
 DIIS: error= 5.65D-07 at cycle  13 NSaved=  13.
 NSaved=13 IEnMin=13 EnMin= -1028.59650952382     IErMin=13 ErrMin= 5.65D-07
 ErrMax= 5.65D-07  0.00D+00 EMaxC= 1.00D-01 BMatC= 6.14D-11 BMatP= 6.53D-10
 IDIUse=1 WtCom= 1.00D+00 WtEn= 0.00D+00
 Coeff-Com: -0.142D-04 0.310D-04 0.470D-04-0.460D-04-0.318D-03 0.209D-04
 Coeff-Com:  0.247D-02 0.670D-02-0.737D-02-0.383D-01-0.654D-01 0.156D+00
 Coeff-Com:  0.946D+00
 Coeff:     -0.142D-04 0.310D-04 0.470D-04-0.460D-04-0.318D-03 0.209D-04
 Coeff:      0.247D-02 0.670D-02-0.737D-02-0.383D-01-0.654D-01 0.156D+00
 Coeff:      0.946D+00
 Gap=     0.238 Goal=   None    Shift=    0.000
 RMSDP=9.18D-08 MaxDP=2.33D-06 DE=-2.28D-09 OVMax= 1.09D-05

 Cycle  14  Pass 1  IDiag  1:
 RMSU=  3.40D-08    CP:  9.90D-01  1.34D+00  9.64D-01  9.26D-01  1.45D+00
                    CP:  1.78D+00  1.50D+00  1.63D+00  1.66D+00  1.58D+00
                    CP:  1.49D+00  1.25D+00  1.20D+00
 E= -1028.59650952403     Delta-E=       -0.000000000210 Rises=F Damp=F
 DIIS: error= 1.72D-07 at cycle  14 NSaved=  14.
 NSaved=14 IEnMin=14 EnMin= -1028.59650952403     IErMin=14 ErrMin= 1.72D-07
 ErrMax= 1.72D-07  0.00D+00 EMaxC= 1.00D-01 BMatC= 7.33D-12 BMatP= 6.14D-11
 IDIUse=1 WtCom= 1.00D+00 WtEn= 0.00D+00
 Coeff-Com: -0.144D-04 0.287D-04 0.591D-04 0.639D-04-0.123D-03-0.712D-03
 Coeff-Com: -0.263D-03 0.300D-02 0.543D-02-0.250D-02-0.447D-01-0.402D-01
 Coeff-Com:  0.276D+00 0.804D+00
 Coeff:     -0.144D-04 0.287D-04 0.591D-04 0.639D-04-0.123D-03-0.712D-03
 Coeff:     -0.263D-03 0.300D-02 0.543D-02-0.250D-02-0.447D-01-0.402D-01
 Coeff:      0.276D+00 0.804D+00
 Gap=     0.238 Goal=   None    Shift=    0.000
 RMSDP=2.14D-08 MaxDP=5.01D-07 DE=-2.10D-10 OVMax= 2.82D-06

 Cycle  15  Pass 1  IDiag  1:
 RMSU=  1.18D-08    CP:  9.90D-01  1.34D+00  9.64D-01  9.26D-01  1.45D+00
                    CP:  1.78D+00  1.50D+00  1.63D+00  1.66D+00  1.58D+00
                    CP:  1.50D+00  1.28D+00  1.34D+00  1.14D+00
 E= -1028.59650952405     Delta-E=       -0.000000000021 Rises=F Damp=F
 DIIS: error= 7.33D-08 at cycle  15 NSaved=  15.
 NSaved=15 IEnMin=15 EnMin= -1028.59650952405     IErMin=15 ErrMin= 7.33D-08
 ErrMax= 7.33D-08  0.00D+00 EMaxC= 1.00D-01 BMatC= 1.47D-12 BMatP= 7.33D-12
 IDIUse=1 WtCom= 1.00D+00 WtEn= 0.00D+00
 Coeff-Com: -0.258D-05 0.462D-05 0.138D-04 0.355D-04 0.991D-05-0.308D-03
 Coeff-Com: -0.670D-03-0.213D-03 0.364D-02 0.749D-02-0.187D-02-0.546D-01
 Coeff-Com: -0.944D-01 0.264D+00 0.877D+00
 Coeff:     -0.258D-05 0.462D-05 0.138D-04 0.355D-04 0.991D-05-0.308D-03
 Coeff:     -0.670D-03-0.213D-03 0.364D-02 0.749D-02-0.187D-02-0.546D-01
 Coeff:     -0.944D-01 0.264D+00 0.877D+00
 Gap=     0.238 Goal=   None    Shift=    0.000
 RMSDP=1.21D-08 MaxDP=3.04D-07 DE=-2.11D-11 OVMax= 1.37D-06

 Cycle  16  Pass 1  IDiag  1:
 RMSU=  5.12D-09    CP:  9.90D-01  1.34D+00  9.64D-01  9.26D-01  1.45D+00
                    CP:  1.78D+00  1.50D+00  1.63D+00  1.66D+00  1.58D+00
                    CP:  1.51D+00  1.30D+00  1.40D+00  1.33D+00  1.17D+00
 E= -1028.59650952406     Delta-E=       -0.000000000003 Rises=F Damp=F
 DIIS: error= 2.65D-08 at cycle  16 NSaved=  16.
 NSaved=16 IEnMin=16 EnMin= -1028.59650952406     IErMin=16 ErrMin= 2.65D-08
 ErrMax= 2.65D-08  0.00D+00 EMaxC= 1.00D-01 BMatC= 1.44D-13 BMatP= 1.47D-12
 IDIUse=1 WtCom= 1.00D+00 WtEn= 0.00D+00
 Coeff-Com:  0.728D-06-0.158D-05-0.205D-05 0.257D-05 0.115D-04-0.144D-04
 Coeff-Com: -0.143D-03-0.343D-03 0.294D-03 0.197D-02 0.442D-02-0.108D-01
 Coeff-Com: -0.470D-01-0.215D-01 0.235D+00 0.838D+00
 Coeff:      0.728D-06-0.158D-05-0.205D-05 0.257D-05 0.115D-04-0.144D-04
 Coeff:     -0.143D-03-0.343D-03 0.294D-03 0.197D-02 0.442D-02-0.108D-01
 Coeff:     -0.470D-01-0.215D-01 0.235D+00 0.838D+00
 Gap=     0.238 Goal=   None    Shift=    0.000
 RMSDP=3.62D-09 MaxDP=1.18D-07 DE=-2.96D-12 OVMax= 4.99D-07

 Error on total polarization charges =  0.00839
 SCF Done:  E(RwB97XD) =  -1028.59650952     A.U. after   16 cycles
            NFock= 16  Conv=0.36D-08     -V/T= 2.0039
 KE= 1.024559479290D+03 PE=-4.619470269892D+03 EE= 1.462540767680D+03
 Leave Link  502 at Wed Oct 28 01:06:37 2020, MaxMem=  7784628224 cpu:             882.6 elap:              89.0
 (Enter /gpfs/loomis/apps/avx/software/Gaussian/16-C.01_AVX/g16/l601.exe)
 Copying SCF densities to generalized density rwf, IOpCl= 0 IROHF=0.

 **********************************************************************

            Population analysis using the SCF Density.

 **********************************************************************

 Alpha  occ. eigenvalues --  -89.10355 -19.20393 -14.50874 -10.41490 -10.38654
 Alpha  occ. eigenvalues --  -10.36534 -10.35525 -10.33687 -10.33637 -10.32966
 Alpha  occ. eigenvalues --  -10.32787 -10.31637 -10.31020 -10.30309 -10.29487
 Alpha  occ. eigenvalues --  -10.28706  -8.12501  -6.07358  -6.06998  -6.06515
 Alpha  occ. eigenvalues --   -1.15878  -1.09219  -0.99881  -0.96626  -0.93465
 Alpha  occ. eigenvalues --   -0.89406  -0.87528  -0.83483  -0.81262  -0.78866
 Alpha  occ. eigenvalues --   -0.75198  -0.72300  -0.69357  -0.67926  -0.65937
 Alpha  occ. eigenvalues --   -0.60916  -0.59615  -0.57100  -0.56349  -0.56197
 Alpha  occ. eigenvalues --   -0.55054  -0.53821  -0.53018  -0.50247  -0.49220
 Alpha  occ. eigenvalues --   -0.48776  -0.48694  -0.47047  -0.45507  -0.44972
 Alpha  occ. eigenvalues --   -0.43909  -0.43197  -0.42726  -0.39999  -0.36777
 Alpha  occ. eigenvalues --   -0.33896  -0.31502  -0.31174  -0.25800
 Alpha virt. eigenvalues --   -0.01991   0.03338   0.04930   0.06496   0.09378
 Alpha virt. eigenvalues --    0.10657   0.14184   0.14959   0.16822   0.17388
 Alpha virt. eigenvalues --    0.18532   0.19851   0.20642   0.21201   0.22999
 Alpha virt. eigenvalues --    0.23337   0.24490   0.25731   0.27302   0.29954
 Alpha virt. eigenvalues --    0.30596   0.33951   0.35241   0.35344   0.36449
 Alpha virt. eigenvalues --    0.37220   0.39030   0.40353   0.41577   0.44592
 Alpha virt. eigenvalues --    0.47088   0.48105   0.50618   0.51166   0.51793
 Alpha virt. eigenvalues --    0.52490   0.52550   0.53161   0.54072   0.55102
 Alpha virt. eigenvalues --    0.56242   0.56426   0.56557   0.57004   0.57519
 Alpha virt. eigenvalues --    0.58050   0.58802   0.59488   0.59544   0.60489
 Alpha virt. eigenvalues --    0.61413   0.61530   0.62431   0.62747   0.63325
 Alpha virt. eigenvalues --    0.64762   0.66503   0.66982   0.68625   0.69927
 Alpha virt. eigenvalues --    0.70486   0.70517   0.71813   0.72791   0.72935
 Alpha virt. eigenvalues --    0.74153   0.75417   0.75630   0.77534   0.78143
 Alpha virt. eigenvalues --    0.78182   0.79917   0.80562   0.82056   0.84243
 Alpha virt. eigenvalues --    0.85796   0.90436   0.91498   0.91567   0.92898
 Alpha virt. eigenvalues --    0.94335   0.94338   0.96361   0.96758   0.98141
 Alpha virt. eigenvalues --    0.99171   0.99479   1.00676   1.00953   1.01292
 Alpha virt. eigenvalues --    1.02655   1.05208   1.05449   1.06258   1.07202
 Alpha virt. eigenvalues --    1.08577   1.09683   1.10054   1.10285   1.10934
 Alpha virt. eigenvalues --    1.12412   1.13267   1.14063   1.14421   1.15442
 Alpha virt. eigenvalues --    1.17072   1.19521   1.20150   1.22194   1.24118
 Alpha virt. eigenvalues --    1.25515   1.27983   1.31204   1.33033   1.33883
 Alpha virt. eigenvalues --    1.36033   1.36358   1.38520   1.41299   1.45597
 Alpha virt. eigenvalues --    1.48805   1.49715   1.52746   1.54249   1.54973
 Alpha virt. eigenvalues --    1.55877   1.56862   1.57172   1.57452   1.59145
 Alpha virt. eigenvalues --    1.60512   1.61334   1.62400   1.64847   1.67739
 Alpha virt. eigenvalues --    1.67784   1.69665   1.70116   1.71267   1.71726
 Alpha virt. eigenvalues --    1.72625   1.73294   1.73388   1.74940   1.75289
 Alpha virt. eigenvalues --    1.77531   1.79123   1.79916   1.81255   1.81392
 Alpha virt. eigenvalues --    1.83531   1.83992   1.84106   1.85168   1.85416
 Alpha virt. eigenvalues --    1.87608   1.89617   1.91159   1.91246   1.91643
 Alpha virt. eigenvalues --    1.94481   1.94497   1.94757   1.96765   1.98739
 Alpha virt. eigenvalues --    1.99400   1.99941   2.02942   2.04335   2.04936
 Alpha virt. eigenvalues --    2.06563   2.08201   2.09677   2.11068   2.16938
 Alpha virt. eigenvalues --    2.17139   2.18758   2.21894   2.23429   2.26096
 Alpha virt. eigenvalues --    2.27360   2.28745   2.34007   2.36848   2.37719
 Alpha virt. eigenvalues --    2.41311   2.42538   2.45289   2.47631   2.48354
 Alpha virt. eigenvalues --    2.50399   2.55426   2.60228   2.64790   2.69177
 Alpha virt. eigenvalues --    2.69330   2.72933   2.73605   2.77574   2.80089
 Alpha virt. eigenvalues --    2.80266   2.80767   2.83206   2.87332   2.92205
 Alpha virt. eigenvalues --    2.94329   3.06091   3.18403   3.30975   3.49442
 Alpha virt. eigenvalues --    3.51715   3.58160   3.69185   4.62943
          Condensed to atoms (all electrons):
               1          2          3          4          5          6
     1  C    4.755735   0.486666   0.011150  -0.054866  -0.011867   0.499094
     2  C    0.486666   5.346630   0.271943  -0.053816  -0.076541  -0.001949
     3  C    0.011150   0.271943   4.968368   0.510110  -0.000766  -0.067477
     4  C   -0.054866  -0.053816   0.510110   4.813597   0.508111  -0.009208
     5  C   -0.011867  -0.076541  -0.000766   0.508111   4.744945   0.498019
     6  C    0.499094  -0.001949  -0.067477  -0.009208   0.498019   4.738994
     7  H    0.404006  -0.038386   0.009076  -0.000707   0.007855  -0.039133
     8  H   -0.000522   0.010038  -0.029701   0.396517  -0.039765   0.007175
     9  H    0.008852  -0.000646   0.008175  -0.037927   0.405476  -0.043663
    10  H   -0.042791   0.009133  -0.000488   0.008093  -0.041138   0.407755
    11  N    0.003284  -0.031693   0.388475  -0.051996   0.001735   0.000352
    12  S   -0.073660   0.331980  -0.137805   0.004271   0.000032   0.004911
    13  C   -0.000281  -0.001745   0.016992  -0.000044   0.000015   0.000001
    14  C   -0.000014   0.000092   0.000594   0.000010  -0.000000   0.000000
    15  C    0.000006  -0.000184  -0.000140   0.000005  -0.000000   0.000000
    16  C    0.000000  -0.000009   0.000002  -0.000000   0.000000  -0.000000
    17  H   -0.000017   0.000293   0.000012   0.000001  -0.000000   0.000000
    18  C    0.000000   0.000011  -0.000028  -0.000000   0.000000  -0.000000
    19  C   -0.000000   0.000000   0.000002   0.000000  -0.000000   0.000000
    20  H   -0.000000  -0.000000  -0.000000  -0.000000  -0.000000  -0.000000
    21  H   -0.000000   0.000000  -0.000001  -0.000000  -0.000000   0.000000
    22  H    0.000000  -0.000000  -0.000000  -0.000000   0.000000  -0.000000
    23  C    0.003277  -0.053105  -0.099277   0.002806   0.000417  -0.000466
    24  O    0.000001  -0.000134  -0.000365   0.000044   0.000001  -0.000000
    25  H    0.000336   0.023176  -0.071118  -0.016064  -0.000532   0.000007
               7          8          9         10         11         12
     1  C    0.404006  -0.000522   0.008852  -0.042791   0.003284  -0.073660
     2  C   -0.038386   0.010038  -0.000646   0.009133  -0.031693   0.331980
     3  C    0.009076  -0.029701   0.008175  -0.000488   0.388475  -0.137805
     4  C   -0.000707   0.396517  -0.037927   0.008093  -0.051996   0.004271
     5  C    0.007855  -0.039765   0.405476  -0.041138   0.001735   0.000032
     6  C   -0.039133   0.007175  -0.043663   0.407755   0.000352   0.004911
     7  H    0.642965   0.000025  -0.000147  -0.010390  -0.000087  -0.008151
     8  H    0.000025   0.632691  -0.011826  -0.000095  -0.004772  -0.000241
     9  H   -0.000147  -0.011826   0.651199  -0.011714  -0.000083   0.000017
    10  H   -0.010390  -0.000095  -0.011714   0.650198   0.000006  -0.000155
    11  N   -0.000087  -0.004772  -0.000083   0.000006   5.690708  -0.045076
    12  S   -0.008151  -0.000241   0.000017  -0.000155  -0.045076  15.476718
    13  C   -0.000004   0.000029  -0.000000  -0.000000  -0.010766  -0.079097
    14  C    0.000002   0.000001   0.000000  -0.000000   0.004392  -0.013900
    15  C   -0.000000  -0.000008   0.000000   0.000000  -0.011534   0.005884
    16  C    0.000000   0.000000  -0.000000  -0.000000  -0.000069   0.000618
    17  H    0.000000   0.000000   0.000000  -0.000000   0.000246   0.008388
    18  C    0.000000  -0.000000   0.000000  -0.000000  -0.000448  -0.000204
    19  C   -0.000000   0.000000  -0.000000   0.000000   0.000007   0.000018
    20  H    0.000000  -0.000000   0.000000   0.000000   0.000001   0.000017
    21  H   -0.000000   0.000000  -0.000000   0.000000   0.000002   0.000004
    22  H    0.000000  -0.000000   0.000000  -0.000000  -0.000000  -0.000000
    23  C    0.000315  -0.000572   0.000006   0.000005   0.489280   0.297735
    24  O    0.000000  -0.000085   0.000000  -0.000000  -0.017041   0.000157
    25  H    0.000009   0.000753  -0.000013  -0.000000   0.352822   0.012246
              13         14         15         16         17         18
     1  C   -0.000281  -0.000014   0.000006   0.000000  -0.000017   0.000000
     2  C   -0.001745   0.000092  -0.000184  -0.000009   0.000293   0.000011
     3  C    0.016992   0.000594  -0.000140   0.000002   0.000012  -0.000028
     4  C   -0.000044   0.000010   0.000005  -0.000000   0.000001  -0.000000
     5  C    0.000015  -0.000000  -0.000000   0.000000  -0.000000   0.000000
     6  C    0.000001   0.000000   0.000000  -0.000000   0.000000  -0.000000
     7  H   -0.000004   0.000002  -0.000000   0.000000   0.000000   0.000000
     8  H    0.000029   0.000001  -0.000008   0.000000   0.000000  -0.000000
     9  H   -0.000000   0.000000   0.000000  -0.000000   0.000000   0.000000
    10  H   -0.000000  -0.000000   0.000000  -0.000000  -0.000000  -0.000000
    11  N   -0.010766   0.004392  -0.011534  -0.000069   0.000246  -0.000448
    12  S   -0.079097  -0.013900   0.005884   0.000618   0.008388  -0.000204
    13  C    5.542158   0.412275   0.146856  -0.005651  -0.038945  -0.044022
    14  C    0.412275   4.909735   0.007212   0.536303   0.397916  -0.064127
    15  C    0.146856   0.007212   4.727587  -0.051150   0.005053   0.427974
    16  C   -0.005651   0.536303  -0.051150   4.764902  -0.029465  -0.017672
    17  H   -0.038945   0.397916   0.005053  -0.029465   0.663168  -0.000909
    18  C   -0.044022  -0.064127   0.427974  -0.017672  -0.000909   4.975183
    19  C   -0.053878  -0.019004   0.001607   0.474514   0.007738   0.490081
    20  H    0.008955  -0.036745  -0.000156   0.399855  -0.011128   0.008077
    21  H    0.015928  -0.000609  -0.027157   0.007538   0.000053   0.371931
    22  H   -0.001957   0.009974   0.008125  -0.045750  -0.000201  -0.039661
    23  C    0.343970  -0.097097  -0.063454   0.005781  -0.023074   0.012424
    24  O   -0.115891   0.006770   0.708773  -0.000245  -0.000076  -0.068427
    25  H   -0.071427  -0.001292  -0.001501   0.000082  -0.000143   0.003303
              19         20         21         22         23         24
     1  C   -0.000000  -0.000000  -0.000000   0.000000   0.003277   0.000001
     2  C    0.000000  -0.000000   0.000000  -0.000000  -0.053105  -0.000134
     3  C    0.000002  -0.000000  -0.000001  -0.000000  -0.099277  -0.000365
     4  C    0.000000  -0.000000  -0.000000  -0.000000   0.002806   0.000044
     5  C   -0.000000  -0.000000  -0.000000   0.000000   0.000417   0.000001
     6  C    0.000000  -0.000000   0.000000  -0.000000  -0.000466  -0.000000
     7  H   -0.000000   0.000000  -0.000000   0.000000   0.000315   0.000000
     8  H    0.000000  -0.000000   0.000000  -0.000000  -0.000572  -0.000085
     9  H   -0.000000   0.000000  -0.000000   0.000000   0.000006   0.000000
    10  H    0.000000   0.000000   0.000000  -0.000000   0.000005  -0.000000
    11  N    0.000007   0.000001   0.000002  -0.000000   0.489280  -0.017041
    12  S    0.000018   0.000017   0.000004  -0.000000   0.297735   0.000157
    13  C   -0.053878   0.008955   0.015928  -0.001957   0.343970  -0.115891
    14  C   -0.019004  -0.036745  -0.000609   0.009974  -0.097097   0.006770
    15  C    0.001607  -0.000156  -0.027157   0.008125  -0.063454   0.708773
    16  C    0.474514   0.399855   0.007538  -0.045750   0.005781  -0.000245
    17  H    0.007738  -0.011128   0.000053  -0.000201  -0.023074  -0.000076
    18  C    0.490081   0.008077   0.371931  -0.039661   0.012424  -0.068427
    19  C    4.753394  -0.045878  -0.045801   0.402551   0.000255   0.004257
    20  H   -0.045878   0.685512  -0.000144  -0.012335  -0.000398   0.000000
    21  H   -0.045801  -0.000144   0.681605  -0.012589  -0.000526   0.004902
    22  H    0.402551  -0.012335  -0.012589   0.674467   0.000004  -0.000063
    23  C    0.000255  -0.000398  -0.000526   0.000004   5.135693  -0.014100
    24  O    0.004257   0.000000   0.004902  -0.000063  -0.014100   7.810776
    25  H   -0.000290  -0.000000  -0.000016   0.000003   0.062922   0.066661
              25
     1  C    0.000336
     2  C    0.023176
     3  C   -0.071118
     4  C   -0.016064
     5  C   -0.000532
     6  C    0.000007
     7  H    0.000009
     8  H    0.000753
     9  H   -0.000013
    10  H   -0.000000
    11  N    0.352822
    12  S    0.012246
    13  C   -0.071427
    14  C   -0.001292
    15  C   -0.001501
    16  C    0.000082
    17  H   -0.000143
    18  C    0.003303
    19  C   -0.000290
    20  H   -0.000000
    21  H   -0.000016
    22  H    0.000003
    23  C    0.062922
    24  O    0.066661
    25  H    0.834019
 Mulliken charges:
               1
     1  C    0.011609
     2  C   -0.221754
     3  C    0.222267
     4  C   -0.018937
     5  C    0.004003
     6  C    0.005590
     7  H    0.032753
     8  H    0.040359
     9  H    0.032295
    10  H    0.031581
    11  N    0.242255
    12  S    0.215293
    13  C   -0.063472
    14  C   -0.052488
    15  C    0.116201
    16  C   -0.039583
    17  H    0.021092
    18  C   -0.053486
    19  C    0.030429
    20  H    0.004366
    21  H    0.004881
    22  H    0.017432
    23  C   -0.002824
    24  O   -0.385916
    25  H   -0.193945
 Sum of Mulliken charges =  -0.00000
 Mulliken charges with hydrogens summed into heavy atoms:
               1
     1  C    0.044361
     2  C   -0.221754
     3  C    0.222267
     4  C    0.021421
     5  C    0.036298
     6  C    0.037171
    11  N    0.048309
    12  S    0.215293
    13  C   -0.063472
    14  C   -0.031396
    15  C    0.116201
    16  C   -0.035216
    18  C   -0.048606
    19  C    0.047861
    23  C   -0.002824
    24  O   -0.385916
 Electronic spatial extent (au):  <R**2>=           4318.9049
 Charge=             -0.0000 electrons
 Dipole moment (field-independent basis, Debye):
    X=              1.7613    Y=             -6.2538    Z=             -0.0001  Tot=              6.4971
 Quadrupole moment (field-independent basis, Debye-Ang):
   XX=            -81.7712   YY=            -95.5946   ZZ=           -103.9189
   XY=             -6.7567   XZ=             -0.0001   YZ=             -0.0002
 Traceless Quadrupole moment (field-independent basis, Debye-Ang):
   XX=             11.9904   YY=             -1.8330   ZZ=            -10.1574
   XY=             -6.7567   XZ=             -0.0001   YZ=             -0.0002
 Octapole moment (field-independent basis, Debye-Ang**2):
  XXX=             37.8161  YYY=            -66.7459  ZZZ=              0.0000  XYY=              3.6510
  XXY=            -10.2117  XXZ=             -0.0001  XZZ=              2.8827  YZZ=              2.9975
  YYZ=             -0.0005  XYZ=             -0.0004
 Hexadecapole moment (field-independent basis, Debye-Ang**3):
 XXXX=          -2592.1555 YYYY=          -2651.1118 ZZZZ=           -112.8585 XXXY=            813.2426
 XXXZ=              0.0101 YYYX=            778.3494 YYYZ=             -0.0164 ZZZX=              0.0143
 ZZZY=             -0.0168 XXYY=           -841.3888 XXZZ=           -573.7488 YYZZ=           -542.7598
 XXYZ=             -0.0045 YYXZ=              0.0028 ZZXY=            361.1294
 N-N= 1.103773513398D+03 E-N=-4.619470270534D+03  KE= 1.024559479290D+03
 No NMR shielding tensors so no spin-rotation constants.
 Leave Link  601 at Wed Oct 28 01:06:37 2020, MaxMem=  7784628224 cpu:               1.1 elap:               0.2
 (Enter /gpfs/loomis/apps/avx/software/Gaussian/16-C.01_AVX/g16/l701.exe)
 ... and contract with generalized density number  0.
 Compute integral first derivatives.
 R6Disp: Adding Grimme-D2 dispersion energy 1st derivatives to the gradient.
 D1PCM: PCM CHGder 1st derivatives, ID1Alg=3 FixD1E=F DoIter=F DoCFld=F I1PDM=0.
 GePol: Maximum number of non-zero 1st derivatives   =     244
 Leave Link  701 at Wed Oct 28 01:06:39 2020, MaxMem=  7784628224 cpu:              14.1 elap:               1.4
 (Enter /gpfs/loomis/apps/avx/software/Gaussian/16-C.01_AVX/g16/l702.exe)
 L702 exits ... SP integral derivatives will be done elsewhere.
 Leave Link  702 at Wed Oct 28 01:06:39 2020, MaxMem=  7784628224 cpu:               0.3 elap:               0.1
 (Enter /gpfs/loomis/apps/avx/software/Gaussian/16-C.01_AVX/g16/l703.exe)
 Integral derivatives from FoFJK, PRISM(SPDF).
 Compute integral first derivatives, UseDBF=F ICtDFT=           0.
 Calling FoFJK, ICntrl=      2127 FMM=F ISym2X=0 I1Cent= 0 IOpClX= 0 NMat=1 NMatS=1 NMatT=0.
 FoFJK:  IHMeth= 1 ICntrl=    2127 DoSepK=T KAlg= 0 I1Cent=           0 FoldK=F
 IRaf=         1 NMat=       1 IRICut=       1 DoRegI=T DoRafI=F ISym2E= 0 IDoP0=0 IntGTp=1.
 FoFCou: FMM=F IPFlag=           0 FMFlag=      100000 FMFlg1=         800
         NFxFlg=           0 DoJE=F BraDBF=F KetDBF=F FulRan=T
         wScrn=  0.000000 ICntrl=      2527 IOpCl=  0 I1Cent=           0 NGrid=           0
         NMat0=    1 NMatS0=      1 NMatT0=    0 NMatD0=    1 NMtDS0=    0 NMtDT0=    0
 Symmetry not used in FoFCou.
 Leave Link  703 at Wed Oct 28 01:06:53 2020, MaxMem=  7784628224 cpu:             137.4 elap:              14.4
 (Enter /gpfs/loomis/apps/avx/software/Gaussian/16-C.01_AVX/g16/l716.exe)
 Dipole        = 6.92963691D-01-2.46042111D+00-4.06481613D-05
 -------------------------------------------------------------------
 Center     Atomic                   Forces (Hartrees/Bohr)
 Number     Number              X              Y              Z
 -------------------------------------------------------------------
      1        6           0.003086709    0.005817998   -0.000000106
      2        6           0.012438862   -0.004701628   -0.000000330
      3        6           0.001012380   -0.011315378   -0.000000083
      4        6           0.001279752    0.001949509    0.000000185
      5        6          -0.000959740    0.007084192    0.000000064
      6        6          -0.002114781    0.005069303   -0.000000149
      7        1           0.004282974    0.005059876   -0.000000077
      8        1          -0.004359081   -0.004999492    0.000000084
      9        1          -0.003386805    0.000960021   -0.000000003
     10        1          -0.001354938    0.003725195   -0.000000030
     11        7          -0.179245227   -0.930524785   -0.000045718
     12       16           0.007163879   -0.004194105   -0.000000698
     13        6           0.028216913    0.005600041   -0.000000901
     14        6          -0.053215178    0.029562116   -0.000000661
     15        6           0.000423330   -0.013077395    0.000000517
     16        6           0.013876095   -0.047190188   -0.000000194
     17        1          -0.000669413    0.004050240    0.000000068
     18        6          -0.023387502   -0.001612457    0.000000498
     19        6           0.038411122    0.018074349    0.000000366
     20        1           0.003886665    0.001055919    0.000000053
     21        1          -0.001953924   -0.004288757   -0.000000488
     22        1           0.002255429   -0.000838864    0.000000093
     23        6          -0.013061827    0.025601939    0.000001748
     24        8          -0.004049858    0.019355862   -0.000000551
     25        1           0.171424166    0.889776488    0.000046315
 -------------------------------------------------------------------
 Cartesian Forces:  Max     0.930524785 RMS     0.151897706
 Leave Link  716 at Wed Oct 28 01:06:53 2020, MaxMem=  7784628224 cpu:               0.2 elap:               0.0
 (Enter /gpfs/loomis/apps/avx/software/Gaussian/16-C.01_AVX/g16/l103.exe)

 GradGradGradGradGradGradGradGradGradGradGradGradGradGradGradGradGradGrad
 Berny optimization.
 FormGI is forming the generalized inverse of G from B-inverse, IUseBI=4.
 Internal  Forces:  Max     0.620106312 RMS     0.064809115
 Search for a local minimum.
 Step number   1 out of a maximum of  146
 All quantities printed in internal units (Hartrees-Bohrs-Radians)
 RMS Force = .65288D-01 SwitMx=.10000D-02 MixMth= 1
 Mixed Optimization -- RFO/linear search
 Second derivative matrix not updated -- first step.
 ITU=  0
     Eigenvalues ---    0.01324   0.01471   0.01610   0.01716   0.01721
     Eigenvalues ---    0.01761   0.01797   0.01827   0.01827   0.01875
     Eigenvalues ---    0.01876   0.01916   0.01961   0.01982   0.02003
     Eigenvalues ---    0.02020   0.02022   0.02035   0.02084   0.02087
     Eigenvalues ---    0.02088   0.02105   0.16000   0.16000   0.16000
     Eigenvalues ---    0.16000   0.16000   0.16000   0.16000   0.16003
     Eigenvalues ---    0.16997   0.22008   0.22011   0.22534   0.22589
     Eigenvalues ---    0.24410   0.24483   0.24599   0.25000   0.25000
     Eigenvalues ---    0.30366   0.30955   0.33669   0.33696   0.33886
     Eigenvalues ---    0.33900   0.33926   0.34067   0.34138   0.34156
     Eigenvalues ---    0.34201   0.35677   0.37648   0.40142   0.40842
     Eigenvalues ---    0.41923   0.42334   0.42701   0.43124   0.44660
     Eigenvalues ---    0.44887   0.45198   0.45817   0.47033   0.49840
     Eigenvalues ---    0.78141   1.468801000.000001000.000001000.00000
     Eigenvalues --- 1000.000001000.000001000.000001000.000001000.00000
     Eigenvalues --- 1000.000001000.000001000.000001000.000001000.00000
     Eigenvalues --- 1000.000001000.000001000.000001000.000001000.00000
     Eigenvalues --- 1000.000001000.000001000.000001000.000001000.00000
     Eigenvalues --- 1000.000001000.000001000.000001000.000001000.00000
     Eigenvalues --- 1000.000001000.000001000.000001000.000001000.00000
     Eigenvalues --- 1000.000001000.000001000.000001000.000001000.00000
     Eigenvalues --- 1000.000001000.000001000.000001000.000001000.00000
     Eigenvalues --- 1000.000001000.000001000.000001000.000001000.00000
     Eigenvalues --- 1000.000001000.000001000.000001000.000001000.00000
     Eigenvalues --- 1000.000001000.000001000.000001000.000001000.00000
     Eigenvalues --- 1000.000001000.000001000.000001000.000001000.00000
     Eigenvalues --- 1000.000001000.000001000.000001000.000001000.00000
     Eigenvalues --- 1000.00000
 RFO step:  Lambda=-3.33630080D-01 EMin= 1.32365249D-02
 Linear search not attempted -- first point.
 Maximum step size (   0.300) exceeded in Quadratic search.
    -- Step size scaled by   0.653
 Iteration  1 RMS(Cart)=  0.02682908 RMS(Int)=  0.00239219
 Iteration  2 RMS(Cart)=  0.00217690 RMS(Int)=  0.00116179
 Iteration  3 RMS(Cart)=  0.00001359 RMS(Int)=  0.00134432
 Iteration  4 RMS(Cart)=  0.00000009 RMS(Int)=  0.00134435
 Iteration  1 RMS(Cart)=  0.00002491 RMS(Int)=  0.00002788
 Iteration  2 RMS(Cart)=  0.00000052 RMS(Int)=  0.00001351
 ITry= 1 IFail=0 DXMaxC= 1.59D-01 DCOld= 1.00D+10 DXMaxT= 3.00D-01 DXLimC= 3.00D+00 Rises=F
 Variable       Old X    -DE/DX   Delta X   Delta X   Delta X     New X
                                 (Linear)    (Quad)   (Total)
    R1        2.64813  -0.04360   0.00000  -0.01885  -0.01842   2.62971
    R2        2.63952  -0.01192   0.00000  -0.00520  -0.00515   2.63438
    R3        2.07843  -0.00914   0.00000  -0.00730  -0.00726   2.07117
    R4        2.69156  -0.12520   0.00000  -0.05227  -0.05092   2.64063
    R5        3.29262   0.04760   0.00000   0.02186   0.02106   3.31368
    R6        2.65128  -0.00095   0.00000  -0.00530  -0.00538   2.64590
    R7        2.66112  -0.03531   0.00000  -0.01872  -0.01834   2.64278
    R8        2.66217   0.00612   0.00000  -0.00594  -0.00617   2.65600
    R9        2.07892  -0.00555   0.00000  -0.00609  -0.00611   2.07281
   R10        2.65153  -0.03290   0.00000  -0.01170  -0.01128   2.64026
   R11        2.07098  -0.00387   0.00000  -0.00350  -0.00350   2.06749
   R12        2.07068  -0.00430   0.00000  -0.00394  -0.00393   2.06675
   R13        2.57655   0.04695   0.00000   0.00902   0.00834   2.58489
   R14        1.30917   0.62011   0.00000   0.22788   0.23190   1.54107
   R15        3.24405  -0.12668   0.00000  -0.03427  -0.03219   3.21186
   R16        2.61853  -0.02099   0.00000   0.00805   0.00876   2.62729
   R17        2.78412  -0.06273   0.00000  -0.01579  -0.01471   2.76941
   R18        2.68304   0.06825   0.00000   0.02301   0.02207   2.70512
   R19        2.69705   0.02012   0.00000  -0.01954  -0.02051   2.67654
   R20        2.07456  -0.00433   0.00000  -0.00381  -0.00380   2.07076
   R21        2.72611   0.07713   0.00000   0.02225   0.02106   2.74717
   R22        2.36778  -0.10710   0.00000  -0.02121  -0.01966   2.34812
   R23        2.64029  -0.02422   0.00000  -0.00064  -0.00013   2.64017
   R24        2.07218  -0.00254   0.00000  -0.00340  -0.00342   2.06876
   R25        2.66747   0.01244   0.00000  -0.01399  -0.01466   2.65281
   R26        2.07522  -0.00527   0.00000  -0.00473  -0.00472   2.07050
   R27        2.06993   0.00058   0.00000  -0.00120  -0.00124   2.06870
    A1        2.05834   0.02242   0.00000   0.00814   0.00770   2.06604
    A2        2.09953  -0.01727   0.00000  -0.00669  -0.00638   2.09316
    A3        2.12531  -0.00515   0.00000  -0.00146  -0.00132   2.12399
    A4        2.15941  -0.01242   0.00000  -0.01084  -0.01060   2.14881
    A5        2.16350  -0.01804   0.00000   0.00595   0.00658   2.17008
    A6        1.96027   0.03046   0.00000   0.00489   0.00402   1.96429
    A7        2.04685   0.03428   0.00000   0.02110   0.02075   2.06760
    A8        1.94717  -0.09360   0.00000  -0.03667  -0.03552   1.91165
    A9        2.28917   0.05931   0.00000   0.01557   0.01477   2.30394
   A10        2.07933  -0.01718   0.00000  -0.00834  -0.00812   2.07121
   A11        2.10582   0.01245   0.00000   0.00568   0.00551   2.11133
   A12        2.09804   0.00474   0.00000   0.00266   0.00261   2.10064
   A13        2.13870  -0.01874   0.00000  -0.00951  -0.00928   2.12942
   A14        2.06428   0.01037   0.00000   0.00475   0.00462   2.06890
   A15        2.08021   0.00837   0.00000   0.00476   0.00466   2.08486
   A16        2.08375  -0.00837   0.00000  -0.00054  -0.00046   2.08329
   A17        2.09913   0.00332   0.00000   0.00007   0.00004   2.09917
   A18        2.10031   0.00505   0.00000   0.00047   0.00042   2.10073
   A19        1.93848   0.14390   0.00000   0.07397   0.07240   2.01088
   A20        2.40383  -0.18354   0.00000  -0.10846  -0.10589   2.29794
   A21        1.94088   0.03964   0.00000   0.03450   0.03349   1.97437
   A22        1.55157   0.04418   0.00000   0.02604   0.02545   1.57702
   A23        2.13866   0.00884   0.00000  -0.00455  -0.00480   2.13386
   A24        2.10734   0.01525   0.00000  -0.00014  -0.00058   2.10676
   A25        2.03718  -0.02409   0.00000   0.00469   0.00538   2.04257
   A26        2.08089   0.02350   0.00000   0.01466   0.01445   2.09535
   A27        2.11986  -0.01304   0.00000  -0.00639  -0.00624   2.11361
   A28        2.08244  -0.01046   0.00000  -0.00827  -0.00821   2.07423
   A29        2.01860  -0.02097   0.00000  -0.01074  -0.01049   2.00812
   A30        2.05769  -0.07947   0.00000  -0.01245  -0.01088   2.04681
   A31        2.20689   0.10044   0.00000   0.02319   0.02137   2.22826
   A32        2.10417  -0.00690   0.00000  -0.00641  -0.00639   2.09778
   A33        2.07753   0.00351   0.00000   0.00315   0.00315   2.08067
   A34        2.10149   0.00339   0.00000   0.00325   0.00324   2.10473
   A35        2.11521   0.01433   0.00000   0.00910   0.00893   2.12415
   A36        2.04684  -0.00278   0.00000  -0.00182  -0.00179   2.04504
   A37        2.12114  -0.01155   0.00000  -0.00728  -0.00714   2.11400
   A38        2.10883  -0.01881   0.00000  -0.00206  -0.00171   2.10713
   A39        2.08562   0.00463   0.00000  -0.00035  -0.00043   2.08518
   A40        2.08873   0.01418   0.00000   0.00241   0.00214   2.09087
   A41        2.02729  -0.12494   0.00000  -0.06823  -0.06635   1.96094
   A42        2.16249   0.07898   0.00000   0.04104   0.03991   2.20240
   A43        2.09340   0.04596   0.00000   0.02719   0.02644   2.11984
    D1       -0.00000   0.00000   0.00000   0.00000   0.00000  -0.00000
    D2        3.14159  -0.00000   0.00000  -0.00000  -0.00000   3.14159
    D3        3.14159   0.00000   0.00000   0.00000   0.00000   3.14159
    D4       -0.00000  -0.00000   0.00000  -0.00000  -0.00000  -0.00000
    D5       -0.00000  -0.00000   0.00000  -0.00000  -0.00000  -0.00000
    D6        3.14159  -0.00000   0.00000  -0.00000  -0.00000   3.14159
    D7        3.14159  -0.00000   0.00000  -0.00000  -0.00000   3.14159
    D8       -0.00000  -0.00000   0.00000  -0.00000  -0.00000  -0.00000
    D9        0.00001   0.00000   0.00000   0.00000   0.00000   0.00001
   D10       -3.14159   0.00000   0.00000  -0.00000  -0.00000  -3.14159
   D11       -3.14159   0.00000   0.00000   0.00000   0.00000  -3.14159
   D12        0.00000   0.00000   0.00000   0.00000   0.00000   0.00000
   D13        3.14159  -0.00000   0.00000  -0.00000  -0.00000   3.14159
   D14       -0.00001  -0.00000   0.00000  -0.00000  -0.00000  -0.00001
   D15       -0.00000  -0.00000   0.00000  -0.00000  -0.00000  -0.00001
   D16        3.14159  -0.00000   0.00000  -0.00000  -0.00000   3.14159
   D17        3.14159   0.00000   0.00000   0.00000   0.00000   3.14159
   D18        0.00000   0.00000   0.00000   0.00000   0.00000   0.00000
   D19        0.00001   0.00000   0.00000   0.00000   0.00000   0.00001
   D20        3.14151   0.00001   0.00000   0.00001   0.00001   3.14151
   D21       -3.14159   0.00000   0.00000  -0.00000   0.00000  -3.14159
   D22       -0.00009   0.00001   0.00000   0.00000   0.00000  -0.00008
   D23        0.00000   0.00000   0.00000   0.00000   0.00000   0.00000
   D24       -3.14159   0.00000   0.00000   0.00000   0.00000  -3.14159
   D25        3.14159   0.00000   0.00000   0.00000  -0.00000   3.14159
   D26        0.00000  -0.00000   0.00000  -0.00000  -0.00000   0.00000
   D27        0.00000   0.00000   0.00000   0.00000   0.00000   0.00000
   D28       -3.14159  -0.00000   0.00000  -0.00000  -0.00000  -3.14159
[...]
 9,-0.00006103,0.,-0.00008304,0.00007606,0.,-0.00005531,0.00004015,0.,-
 0.00834569,0.00064818,0.00000020,0.00140265,0.00250541,0.00000008,-0.0
 5602711,0.02072635,0.00000060,-0.28034264,0.17622993,-0.00000026,-0.00
 437318,0.01803952,-0.00000053,0.77777516,-0.00124877,0.00220406,0.0000
 0006,0.00216032,-0.00158602,-0.00000006,0.00058590,0.00123084,0.000000
 05,-0.00177563,0.00059537,0.,-0.00014549,-0.00251998,-0.00000005,0.002
 61242,0.00020215,0.00000002,-0.00013534,-0.00006631,0.,0.00006120,0.00
 009123,0.,0.00015039,-0.00011011,0.,0.00013745,-0.00007280,0.,0.013169
 37,0.00282574,-0.00000024,-0.00416501,-0.00544837,-0.00000006,0.053894
 67,0.01042495,-0.00000035,0.11888297,-0.26051565,0.00000099,0.02945108
 ,-0.03667638,0.00000014,-0.01885009,0.66577154,0.00000004,-0.00000005,
 0.00006861,-0.00000008,0.00000002,0.00065155,-0.00000004,0.00000004,-0
 .00048361,0.00000005,-0.00000002,-0.00013742,0.,0.00000006,0.00004343,
 -0.00000006,-0.00000002,-0.00003047,0.,0.,0.00000735,0.,0.,0.00000946,
 0.,0.,0.00001853,0.,0.,-0.00003187,-0.00000011,-0.00000006,-0.00010992
 ,0.,0.00000021,-0.00119597,-0.00000047,-0.00000011,0.00988870,0.000000
 47,0.00000113,-0.06156911,-0.00000068,0.00000025,-0.00674252,-0.000006
 66,-0.00001169,0.11969766,0.00038775,-0.00005880,0.,-0.00085049,0.0004
 5153,-0.00000012,0.00032231,-0.00025501,0.,0.00008579,0.00005093,0.,0.
 00006597,0.00013202,0.,-0.00016256,-0.00010602,0.,-0.00001731,-0.00001
 362,0.,0.00004401,-0.00000171,0.,0.00000791,0.00000139,0.,0.00003548,-
 0.00001011,0.,-0.00009702,0.00031009,0.00000001,-0.00109360,0.00192662
 ,0.00000020,-0.00276880,-0.02775735,0.00000023,-0.07479639,-0.06996533
 ,0.00000135,-0.00484132,0.00320884,0.00000013,0.00969963,0.02325264,-0
 .00000038,0.07525404,0.00009852,-0.00006181,0.,0.00000314,0.00104414,0
 .,0.00046962,-0.00047086,0.,0.00008576,0.00012541,0.,0.00002388,0.0001
 4048,0.,-0.00017528,-0.00002276,0.,-0.00002051,0.00000755,0.,0.0000454
 6,-0.00000834,0.,-0.00000465,0.00000873,0.,0.00000783,0.00000118,0.,-0
 .00127665,0.00008545,-0.00000001,0.00086409,-0.00055072,-0.00000026,-0
 .00002975,-0.00455338,0.00000012,-0.06689964,-0.31903196,0.00000415,-0
 .00027755,0.00289957,0.00000016,-0.00980797,-0.01630183,0.00000039,0.0
 7121208,0.33997193,-0.00000002,0.,-0.00001554,0.00000004,-0.00000002,-
 0.00074174,0.,-0.00000003,0.00011486,0.,0.,0.00008617,0.,0.,-0.0000221
 0,0.,0.00000001,0.00003424,0.,0.,-0.00001274,0.,0.,-0.00002020,0.,0.,-
 0.00000209,0.,0.,0.00002056,-0.00000019,-0.00000004,-0.00011063,0.0000
 0020,-0.00000030,0.00190592,-0.00000062,0.00000029,0.00266799,0.000001
 90,0.00000423,-0.03695852,-0.00000015,0.00000022,0.00436574,-0.0000002
 6,0.00000037,0.00630732,-0.00000136,-0.00000442,0.02315170,-0.00050041
 ,0.00123103,0.00000002,0.00099225,-0.00095331,-0.00000006,0.00124711,0
 .00074030,0.00000002,-0.00101545,0.00024709,0.,-0.00005747,-0.00139908
 ,-0.00000003,0.00142459,0.00010629,0.00000001,-0.00008151,0.00000179,0
 .,0.00012238,0.00002833,0.,0.00007605,-0.00005937,0.,0.00007598,-0.000
 02544,0.,0.00769537,0.00247227,-0.00000011,-0.00192022,-0.00226111,-0.
 00000003,0.04242577,0.00549276,-0.00000078,-0.04592513,0.01663705,0.00
 000003,-0.13291963,0.03646574,-0.00000276,0.00602419,-0.06956571,0.000
 00176,-0.00004105,0.00039472,0.00000025,0.70473348,0.00073695,-0.00064
 207,-0.00000003,-0.00126292,0.00019069,-0.00000004,-0.00003830,-0.0003
 5986,-0.00000006,0.00057104,-0.00016300,0.,0.00010892,0.00081673,0.000
 00002,-0.00085750,-0.00016067,0.,0.00001092,0.00003266,0.,0.00001046,-
 0.00002558,0.,-0.00003091,0.00003245,0.,-0.00000224,0.00000757,0.,-0.0
 0411213,0.00023339,0.00000010,0.00228497,0.00077765,-0.00000004,0.0117
 3630,-0.02218564,0.00000139,0.00697741,-0.00415224,0.00000001,0.056633
 01,-0.19031053,0.00000438,-0.03781250,-0.00413328,0.00000043,-0.000136
 54,0.00058824,0.00000004,0.10488528,0.68774230,-0.00000002,0.00000002,
 -0.00014712,0.00000003,0.00000004,-0.00030768,0.00000003,0.,-0.0009213
 7,-0.00000002,0.,0.00001714,0.,-0.00000002,0.00004244,0.00000002,0.,0.
 00005004,0.,0.,-0.00005498,0.,0.,-0.00003438,0.,0.,-0.00000181,0.,0.,0
 .00004023,0.00000008,0.00000011,0.00036931,-0.00000011,-0.00000004,-0.
 00070557,-0.00000050,-0.00000047,0.01067512,-0.00000010,0.,-0.00047746
 ,-0.00000330,0.00000569,-0.07914546,0.00000123,0.00000062,0.00767957,0
 .00000003,-0.00000004,0.00005851,-0.00000206,-0.00001934,0.12044050,0.
 00081569,-0.00134634,-0.00000003,-0.00148312,0.00100926,0.00000004,-0.
 00055236,-0.00065194,-0.00000003,0.00113019,-0.00031709,0.,0.00008742,
 0.00157485,0.00000003,-0.00162740,-0.00015931,-0.00000001,0.00007568,0
 .00003878,0.,-0.00004433,-0.00005578,0.,-0.00008984,0.00007122,0.,-0.0
 0007560,0.00004021,0.,-0.00784601,-0.00112894,0.00000014,0.00250583,0.
 00285959,0.00000003,-0.02973032,0.00417826,0.,0.04503277,0.00893637,-0
 .00000032,-0.04873296,0.01851473,0.00000046,-0.13288411,-0.01485139,0.
 00000066,-0.00337197,0.00438028,0.00000010,-0.40603716,-0.11094577,0.0
 0000301,0.76612455,0.00087440,-0.00146082,-0.00000003,-0.00134007,0.00
 136596,0.00000004,-0.00029230,-0.00168768,-0.00000004,0.00101677,-0.00
 020103,0.,0.00008967,0.00161342,0.00000003,-0.00175801,-0.00010723,0.,
 0.00008789,0.00002876,0.,-0.00004915,-0.00005434,0.,-0.00010341,0.0000
 8168,0.,-0.00008122,0.00004484,0.,-0.01114837,-0.00149944,0.00000018,0
 .00296320,0.00293503,0.00000003,-0.03937570,-0.00316076,0.00000021,0.0
 5119295,-0.05250926,0.00000120,-0.00897748,0.05150343,-0.00000100,-0.0
 7752679,-0.28789919,0.00000703,0.00263822,-0.00152763,-0.00000004,-0.0
 5363943,-0.15757684,0.00000325,-0.01601019,0.67178609,-0.00000003,0.00
 000005,-0.00000339,0.00000005,-0.00000006,0.00019839,-0.00000001,0.000
 00008,0.00035283,-0.00000003,0.,0.00000046,0.,-0.00000005,-0.00003080,
 0.00000006,0.,-0.00000047,0.,0.,0.00001053,0.,0.,0.00003336,0.,0.,-0.0
 0000481,0.,0.,-0.00001391,0.00000042,0.00000003,0.00003814,-0.00000012
 ,-0.00000004,-0.00031506,0.00000128,-0.00000001,-0.00487493,-0.0000014
 8,0.00000101,0.00715447,-0.00000018,-0.00000171,-0.00021649,0.00000258
 ,0.00000699,-0.06212097,0.00000010,0.,0.00858273,0.00000172,0.00000328
 ,-0.05848864,-0.00000051,-0.00001534,0.14459374,0.00000924,-0.00008526
 ,0.,-0.00000776,0.00013959,0.,-0.00004366,-0.00016623,0.,0.00004804,0.
 00002911,0.,-0.00001167,0.00007075,0.,-0.00008658,0.00001049,0.,0.0000
 0691,0.00000528,0.,0.00000209,-0.00000597,0.,-0.00000919,0.00000865,0.
 ,-0.00000995,0.00000615,0.,-0.00048663,0.00040703,0.00000001,0.0000363
 3,0.00008691,0.,-0.00045805,0.00396007,0.00000006,-0.01622399,-0.00982
 429,0.00000032,0.00054971,0.00023455,0.,-0.32523133,-0.07760666,0.0000
 0422,0.00072864,0.00012830,-0.00000006,0.00142815,-0.00102660,0.000000
 07,-0.00269819,0.00254224,-0.00000007,0.34263620,-0.00000055,0.0000230
 0,0.,0.00001026,-0.00006816,0.,0.00006542,0.00009573,0.,-0.00001548,-0
 .00003888,0.,0.00001145,-0.00001557,0.,0.00002162,-0.00000415,0.,-0.00
 000023,-0.00000260,0.,0.00000055,0.00000155,0.,0.00000290,-0.00000455,
 0.,0.00000232,-0.00000123,0.,0.00030044,-0.00034051,-0.00000002,0.0000
 1340,0.00003384,0.,0.00238878,-0.00278151,0.00000014,0.02292257,0.0091
 0941,-0.00000032,0.00069114,-0.00141201,0.,-0.07889380,-0.07977775,0.0
 0000184,-0.00008154,0.00097725,-0.00000011,0.00028064,-0.00530254,0.00
 000028,-0.02974742,-0.00294376,0.00000025,0.08257803,0.08050827,0.,0.,
 0.00001114,0.,0.,-0.00010525,0.,0.,-0.00037677,0.,0.,-0.00003369,0.,0.
 ,0.00004081,0.,0.,-0.00000886,0.,0.,-0.00000063,0.,0.,-0.00002016,0.,0
 .,0.00001028,0.,0.,0.00000568,-0.00000005,0.00000002,-0.00064520,0.000
 00002,-0.00000004,0.00032372,0.00000006,0.00000019,0.00828341,-0.00000
 022,0.00000003,0.00163658,-0.00000004,0.00000004,-0.00069670,0.0000039
 6,0.00000173,-0.03081484,-0.00000005,-0.00000005,-0.00564006,0.0000001
 0,0.00000026,0.00400046,0.00000070,-0.00000003,0.00058263,-0.00000453,
 -0.00000200,0.02366933,-0.00007745,0.00001143,0.,0.00011040,0.00010896
 ,0.,-0.00003284,0.00000185,0.,-0.00001980,0.00001176,0.,-0.00001130,-0
 .00003323,0.,0.00003696,0.00001853,0.,0.00000031,-0.00000390,0.,-0.000
 00356,-0.00000008,0.,0.00000043,-0.00000079,0.,-0.00000483,-0.00000009
 ,0.,0.00035639,-0.00005622,0.,-0.00036806,0.00015943,0.00000001,-0.003
 02282,0.00263211,-0.00000013,-0.00155030,0.00020383,0.00000001,0.00943
 809,0.02301240,-0.00000072,-0.00473681,-0.00051824,-0.00000003,0.00013
 415,-0.00006385,0.00000001,-0.07016527,-0.06224962,0.00000170,-0.00230
 987,-0.03009193,0.00000099,-0.00029059,-0.00143733,0.00000003,0.069753
 91,0.00001928,0.00011180,0.,-0.00006546,-0.00020093,0.,0.00002472,0.00
 014979,0.,-0.00005907,-0.00000389,0.,0.00001300,-0.00009173,0.,0.00010
 151,-0.00001691,0.,-0.00000900,-0.00000084,0.,0.00000364,0.00000725,0.
 ,0.00001150,-0.00000767,0.,0.00001472,-0.00000674,0.,0.00043741,0.0000
 4172,0.,0.00018669,-0.00036381,-0.00000002,0.00397586,-0.00224263,0.00
 000026,0.00096731,0.00052932,-0.00000007,-0.01188208,-0.01544489,0.000
 00046,-0.00145510,0.00208512,0.00000035,-0.00004777,-0.00011099,-0.000
 00005,-0.06326736,-0.32985247,0.00001050,0.00218520,-0.00432747,0.0000
 0019,0.00002855,-0.00032226,0.00000003,0.06965994,0.34639646,0.,-0.000
 00001,0.00004649,0.,0.00000002,0.00002561,0.,-0.00000002,-0.00000991,0
 .,0.,-0.00000196,0.,0.00000001,0.00000206,-0.00000001,0.,-0.00000800,0
 .,0.,0.00000503,0.,0.,0.00000033,0.,0.,0.00000241,0.,0.,-0.00000815,-0
 .00000006,-0.00000001,-0.00006786,0.,0.00000002,0.00011938,-0.00000018
 ,0.00000036,0.00383954,-0.00000014,-0.00000008,-0.00075901,0.00000058,
 0.00000087,0.00435223,0.00000009,0.00000013,0.00923616,0.,0.,-0.001031
 20,0.00000196,0.00000994,-0.03412574,-0.00000007,0.00000030,0.00328900
 ,0.,0.00000001,0.00052265,-0.00000208,-0.00001121,0.02414893,0.0000430
 7,-0.00008950,0.,-0.00004280,0.00014705,0.,0.00006688,-0.00015687,0.,0
 .00005146,0.00000048,0.,0.00000135,0.00009193,0.,-0.00010590,0.0000016
 1,0.,0.00000551,0.00000377,0.,0.00000648,-0.00000682,0.,-0.00000912,0.
 00000655,0.,-0.00000765,0.00000553,0.,-0.00054790,0.00008780,0.,0.0000
 6939,0.00026894,0.00000001,-0.00083384,0.00033664,0.00000001,0.0012341
 4,-0.00188557,0.00000002,-0.00201046,-0.00462534,0.00000028,0.00801123
 ,-0.00704992,0.00000022,0.00028755,-0.00033731,0.,-0.01630201,0.023248
 84,-0.00000093,-0.20719668,0.14057181,-0.00000370,0.00057926,0.0004078
 6,0.,0.00094707,-0.00031305,-0.00000004,0.21681757,0.00002504,0.000024
 23,0.,-0.00008868,0.00005420,-0.00000001,0.00003625,0.00006192,0.,0.00
 000107,0.00000197,0.,0.00001061,-0.00001041,0.,0.00001375,-0.00001219,
 0.,-0.00000681,-0.00000106,0.,0.00000468,0.00000187,0.,0.00000492,-0.0
 0000242,0.,0.00000706,-0.00000375,0.,0.00016200,-0.00006113,0.,-0.0000
 9471,-0.00002129,0.00000002,-0.00079816,0.00060298,-0.00000003,-0.0030
 8926,-0.00544706,0.00000032,-0.00255008,-0.00040265,0.00000035,0.02438
 969,-0.01365934,0.00000051,0.00116106,-0.00108228,-0.00000006,-0.00887
 461,0.00912949,-0.00000018,0.14099994,-0.19265196,0.00000446,-0.000251
 53,0.00105922,-0.00000009,0.00010027,0.00089009,-0.00000022,-0.1511853
 5,0.20088960,-0.00000001,0.00000001,-0.00000140,0.00000002,-0.00000002
 ,-0.00008284,0.,0.,0.00014055,-0.00000001,0.,0.00001095,0.,-0.00000002
 ,-0.00000845,0.00000002,0.,-0.00000209,0.,0.,0.00000529,0.,0.,-0.00000
 145,0.,0.,-0.00000053,0.,0.,0.00000338,0.00000004,0.,-0.00001523,0.,-0
 .00000004,0.00029946,0.00000026,-0.00000002,-0.00115817,-0.00000001,0.
 00000039,0.00434049,0.00000029,0.00000012,0.01146921,-0.00000082,0.000
 00022,0.00480085,-0.00000007,0.00000007,-0.00041127,-0.00000025,0.0000
 0001,0.00733129,-0.00000335,0.00000459,-0.04224556,-0.00000001,-0.0000
 0010,-0.00226084,0.00000004,-0.00000028,-0.00619504,0.00000418,-0.0000
 0498,0.02673887,-0.00939169,0.00055888,0.00000004,0.00849305,0.0151754
 7,0.00000055,-0.05878488,0.04781706,0.00000133,0.00649029,-0.00383010,
 -0.00000008,-0.00283549,0.00032264,-0.00000003,0.00282193,-0.00235831,
 -0.00000006,-0.00008049,-0.00099900,0.,-0.00072035,0.00011542,0.000000
 01,0.00053210,-0.00037915,0.,-0.00056465,-0.00013377,-0.00000001,-0.34
 733994,-0.03125765,0.00000015,-0.06557567,-0.06068852,-0.00000204,-0.1
 7996391,0.08705892,0.00000305,-0.06698096,0.03142052,0.00000039,0.0436
 1350,0.02446214,-0.00000022,0.00868850,-0.02897228,0.00000058,0.001939
 50,0.00182325,0.00000011,-0.01276719,0.00381580,-0.00000017,0.01349166
 ,0.01602240,-0.00000056,-0.00031782,0.00079552,0.00000001,0.00026209,-
 0.00151651,0.00000015,0.00092050,0.00000276,-0.00000010,0.69998059,0.0
 0247362,-0.00325059,-0.00000015,0.01855297,-0.02220730,-0.00000061,0.0
 1601233,0.01556556,0.00000010,0.00607646,-0.00967316,-0.00000023,-0.00
 040840,0.00633834,0.00000010,-0.00468018,-0.00323836,-0.00000009,0.000
 23771,-0.00041598,0.,-0.00053843,-0.00003448,0.,0.00003926,-0.00037433
 ,0.00000001,-0.00042747,0.00015951,0.00000002,-0.03683629,-0.14410638,
 -0.00000154,-0.01165951,-0.17381063,-0.00000468,0.08599133,-0.21212797
 ,-0.00000366,0.03387297,0.00786532,0.00000020,0.00440765,-0.04037748,-
 0.00000036,-0.01601245,0.02248487,-0.00000041,-0.00309810,-0.00127352,
 -0.00000008,0.00913792,-0.01125146,0.00000018,-0.01335921,-0.01605516,
 0.00000056,-0.00116752,0.00077265,-0.00000007,0.00155531,-0.00029246,0
 .,-0.00071144,0.00013609,0.00000011,-0.08480578,0.56640220,0.00000008,
 -0.00000016,-0.00003471,0.00000033,-0.00000023,0.00074337,0.00000006,0
 .00000050,-0.00037682,0.00000024,-0.00000026,0.00079358,-0.00000003,0.
 00000023,0.00132084,-0.00000021,-0.00000011,0.00101994,0.,0.,-0.000517
 39,-0.00000001,0.,-0.00045718,0.,0.,-0.00024118,-0.00000002,0.,-0.0000
 8191,0.00000095,-0.00000236,-0.04906606,-0.00000051,-0.00000456,-0.031
 37028,0.00000285,-0.00000362,-0.05838291,0.00000121,-0.00000036,-0.005
 62860,-0.00000025,-0.00000064,0.00476044,-0.00000029,0.00000080,0.0048
 5551,-0.00000011,-0.00000011,-0.00209219,0.00000027,-0.00000013,0.0038
 7141,-0.00000043,-0.00000042,-0.00075186,-0.00000002,0.00000004,0.0017
 1450,0.00000003,0.00000004,-0.00040663,-0.00000002,-0.00000002,-0.0006
 8645,-0.00000379,0.00001075,0.13674360,-0.00111550,0.00293188,0.000000
 09,0.00187217,-0.00123272,0.00000005,0.00568743,0.00085336,0.00000005,
 -0.00262256,0.00075937,0.,-0.00003476,-0.00331977,-0.00000007,0.003257
 01,0.00047798,0.00000002,-0.00018298,0.00009110,0.,0.00031073,0.000054
 31,0.,0.00011721,-0.00009708,0.,0.00015483,-0.00001951,0.,0.01485919,0
 .01387166,-0.00000015,-0.00305733,-0.00513236,-0.00000028,-0.00954541,
 -0.06755098,0.00000130,-0.01344817,0.00108482,0.00000008,-0.58976169,-
 0.12661166,0.00001421,0.00125523,-0.02008740,0.00000051,-0.00112849,-0
 .00071436,0.00000009,-0.08050319,0.00746382,0.00000104,0.01584294,0.02
 331228,-0.00000054,-0.00020533,-0.00032296,0.00000003,0.00157196,0.001
 02632,-0.00000019,-0.00210178,0.00003105,-0.00000024,-0.03743367,0.023
 35384,0.00000046,0.69013359,-0.00029372,0.00021692,0.,0.00026900,-0.00
 115784,0.00000001,-0.00252745,-0.00084320,0.00000007,-0.00033452,-0.00
 016361,-0.00000002,0.00024154,-0.00027813,0.,0.00038757,-0.00001853,0.
 ,-0.00000853,-0.00010103,0.,0.00010122,0.00004374,0.,0.00007872,-0.000
 08191,0.,0.00006193,-0.00004744,0.,0.00992565,-0.00771622,-0.00000019,
 -0.00036603,-0.00135916,-0.00000001,-0.05841093,-0.02143959,0.00000139
 ,0.00866600,-0.00877601,0.00000004,-0.13345332,-0.13016006,0.00000407,
 -0.00393992,0.00475833,0.00000002,-0.00259688,-0.00091519,-0.00000004,
 0.02692496,0.02593494,-0.00000065,0.00126506,-0.00937643,0.00000044,-0
 .00012929,0.00051125,-0.00000002,-0.00302196,0.00314552,-0.00000013,0.
 00126126,0.00052080,-0.00000004,-0.00451083,0.00645114,0.00000024,0.16
 347047,0.14813771,0.00000003,-0.00000006,-0.00018636,-0.00000008,0.000
 00006,-0.00003406,-0.00000008,0.00000003,0.00152386,0.00000007,-0.0000
 0002,0.00004832,0.,0.00000009,-0.00009918,-0.00000008,-0.00000001,0.00
 004642,0.,0.,0.00001833,0.,0.,0.00001529,0.,0.,-0.00001668,0.,0.,0.000
 00138,-0.00000053,-0.00000023,0.00049895,0.00000005,0.00000014,-0.0000
 9180,0.00000096,0.00000131,0.01992894,0.00000017,0.00000002,0.00447765
 ,0.00001552,0.00000441,-0.06770828,0.00000015,0.00000034,-0.00013295,0
 .00000004,0.,-0.00015360,-0.00000013,-0.00000031,0.01861698,-0.0000004
 3,0.00000008,0.00429333,0.,-0.00000001,-0.00036828,0.00000013,-0.00000
 021,-0.00295068,-0.00000003,-0.00000007,-0.00188726,0.00000071,-0.0000
 0063,-0.00297512,-0.00001652,-0.00000519,0.03087252,0.00128601,0.00030
 768,0.,-0.00262757,0.00581600,0.00000010,0.01600824,0.02063441,0.00000
 054,0.00134830,0.00045689,0.,-0.00030090,0.00006573,0.,-0.00038273,-0.
 00003424,0.,-0.00016412,0.00032981,0.,-0.00112801,-0.00077664,-0.00000
 001,-0.00001357,0.00000141,0.,-0.00006594,-0.00006366,0.,-0.18453484,-
 0.21094045,-0.00000467,-0.00386379,-0.00061690,0.00000001,0.00053638,0
 .00261633,0.00000002,0.00012470,-0.00003520,0.00000002,-0.00822845,-0.
 00160467,0.00000015,0.00008521,0.00061352,-0.00000002,0.00017629,0.000
 07061,0.,0.00199036,-0.00000870,-0.00000002,-0.00042680,-0.00091780,0.
 00000004,0.00005618,0.00000641,0.,-0.00001826,-0.00004024,0.,0.0001166
 9,-0.00001095,0.,-0.00447701,-0.02800659,-0.00000081,0.00607857,-0.003
 05998,0.00000005,0.17842506,-0.00133058,0.00028565,0.,0.00330701,-0.00
 267622,-0.00000007,-0.00978566,-0.02169717,-0.00000056,-0.00119818,0.0
 0209573,0.00000007,-0.00034693,-0.00132196,-0.00000002,0.00083511,0.00
 061684,0.00000002,0.00016150,-0.00013280,0.,0.00054032,0.00015293,-0.0
 0000007,-0.00007523,0.00012074,0.,0.00003084,0.00005239,0.,-0.19859238
 ,-0.38997954,-0.00000927,0.00138942,0.00254829,-0.00000004,0.00568796,
 -0.00784396,-0.00000004,-0.00421863,-0.00027566,-0.00000002,0.01331808
 ,0.00715004,-0.00000036,0.00146008,-0.00390720,0.00000007,-0.00021663,
 0.00006134,0.00000004,-0.00500076,0.00063006,0.00000003,0.00251961,0.0
 0367980,-0.00000013,0.00002765,-0.00007668,0.,0.00000143,-0.00007139,0
 .,-0.00007889,-0.00001694,-0.00000002,-0.00993891,0.01231359,0.0000003
 6,-0.01369347,-0.00728601,0.00000028,0.21519723,0.40557814,-0.00000004
 ,-0.00000002,0.00072896,0.00000006,-0.00000012,0.00219366,-0.00000030,
 -0.00000033,0.00025349,-0.00000006,0.00000003,-0.00090177,-0.00000001,
 0.,-0.00034676,0.,0.,-0.00004100,0.,0.,-0.00003097,0.00000006,-0.00000
 004,0.00016727,0.,0.,0.00006028,0.,0.,0.00000457,-0.00000448,-0.000009
 58,-0.00497984,0.00000002,-0.00000009,0.00479831,0.00000005,0.,-0.0029
 9680,-0.00000003,0.,-0.00048590,0.00000002,-0.00000010,0.00002690,0.,-
 0.00000002,0.00010495,0.,0.,-0.00008385,0.00000005,0.00000009,0.001217
 23,0.00000001,-0.00000001,-0.00006268,0.,0.,0.00017010,0.,0.,-0.000025
 65,0.,0.,-0.00018376,-0.00000001,0.00000048,-0.00275390,0.00000005,0.0
 0000001,-0.00373771,0.00000459,0.00000972,0.00690486\\0.00018845,0.004
 66123,0.00000009,0.00631846,0.01011685,0.00000011,0.01257626,0.0001551
 1,0.00000022,-0.00027372,0.00081143,-0.00000005,-0.00063527,-0.0051064
 3,-0.00000002,0.00012656,0.00032514,0.00000004,-0.00029603,0.00066995,
 0.00000001,0.00050930,-0.00008977,0.,0.00001960,-0.00010016,0.00000001
 ,-0.00003291,0.00003792,0.00000002,-0.01492943,0.01214038,-0.00000022,
 0.00476210,0.01496178,0.00000015,-0.00904526,0.00639925,-0.00000246,0.
 01043778,-0.00210339,-0.00000032,0.01628056,0.00420527,0.00000948,-0.0
 0349139,0.00676997,0.00000045,0.00042621,-0.00021824,-0.00000019,-0.00
 526190,0.00007798,-0.00000330,-0.00768923,-0.00299397,-0.00000064,-0.0
 0020072,-0.00032471,-0.00000003,-0.00068824,-0.00000490,-0.00000010,-0
 .00083200,-0.00044266,0.00000043,-0.00867461,-0.00539496,0.00000015,-0
 .00952749,-0.01184713,-0.00000326,0.00993290,-0.03270595,-0.00000059\\
 \@
 The archive entry for this job was punched.


 "TIGER, TIGER BURNING BRIGHT
 IN THE FOREST OF THE NIGHT.
 WHAT IMMORTAL HAND OR EYE
 CAN FRAME THY FEARFUL SYMMETRYE?"
                     - WILLIAM BLAKE
 Job cpu time:       0 days  0 hours 59 minutes 50.4 seconds.
 Elapsed time:       0 days  0 hours  6 minutes  5.6 seconds.
 File lengths (MBytes):  RWF=    544 Int=      0 D2E=      0 Chk=     36 Scr=      8
 Normal termination of Gaussian 16 at Wed Oct 28 01:24:17 2020.
