 Entering Gaussian System, Link 0=g16
 Initial command:
 /gpfs/loomis/apps/avx/software/Gaussian/16-C.01_AVX/g16/l1.exe "/home/fas/batista/pev4/scratch60/gauss-scratch/Gau-64661.inp" -scrdir="/home/fas/batista/pev4/scratch60/gauss-scratch/"
 Entering Link 1 = /gpfs/loomis/apps/avx/software/Gaussian/16-C.01_AVX/g16/l1.exe PID=     64662.
  
 Copyright (c) 1988-2019, Gaussian, Inc.  All Rights Reserved.
  
 This is part of the Gaussian(R) 16 program.  It is based on
 the Gaussian(R) 09 system (copyright 2009, Gaussian, Inc.),
 the Gaussian(R) 03 system (copyright 2003, Gaussian, Inc.),
 the Gaussian(R) 98 system (copyright 1998, Gaussian, Inc.),
 the Gaussian(R) 94 system (copyright 1995, Gaussian, Inc.),
 the Gaussian 92(TM) system (copyright 1992, Gaussian, Inc.),
 the Gaussian 90(TM) system (copyright 1990, Gaussian, Inc.),
 the Gaussian 88(TM) system (copyright 1988, Gaussian, Inc.),
 the Gaussian 86(TM) system (copyright 1986, Carnegie Mellon
 University), and the Gaussian 82(TM) system (copyright 1983,
 Carnegie Mellon University). Gaussian is a federally registered
 trademark of Gaussian, Inc.
  
 This software contains proprietary and confidential information,
 including trade secrets, belonging to Gaussian, Inc.
  
 This software is provided under written license and may be
 used, copied, transmitted, or stored only in accord with that
 written license.
  
 The following legend is applicable only to US Government
 contracts under FAR:
  
                    RESTRICTED RIGHTS LEGEND
  
 Use, reproduction and disclosure by the US Government is
 subject to restrictions as set forth in subparagraphs (a)
 and (c) of the Commercial Computer Software - Restricted
 Rights clause in FAR 52.227-19.
  
 Gaussian, Inc.
 340 Quinnipiac St., Bldg. 40, Wallingford CT 06492
  
  
 ---------------------------------------------------------------
 Warning -- This program may not be used in any manner that
 competes with the business of Gaussian, Inc. or will provide
 assistance to any competitor of Gaussian, Inc.  The licensee
 of this program is prohibited from giving any competitor of
 Gaussian, Inc. access to this program.  By using this program,
 the user acknowledges that Gaussian, Inc. is engaged in the
 business of creating and licensing software in the field of
 computational chemistry and represents and warrants to the
 licensee that it is not a competitor of Gaussian, Inc. and that
 it will not use this program in any manner prohibited above.
 ---------------------------------------------------------------
  

 Cite this work as:
 Gaussian 16, Revision C.01,
 M. J. Frisch, G. W. Trucks, H. B. Schlegel, G. E. Scuseria, 
 M. A. Robb, J. R. Cheeseman, G. Scalmani, V. Barone, 
 G. A. Petersson, H. Nakatsuji, X. Li, M. Caricato, A. V. Marenich, 
 J. Bloino, B. G. Janesko, R. Gomperts, B. Mennucci, H. P. Hratchian, 
 J. V. Ortiz, A. F. Izmaylov, J. L. Sonnenberg, D. Williams-Young, 
 F. Ding, F. Lipparini, F. Egidi, J. Goings, B. Peng, A. Petrone, 
 T. Henderson, D. Ranasinghe, V. G. Zakrzewski, J. Gao, N. Rega, 
 G. Zheng, W. Liang, M. Hada, M. Ehara, K. Toyota, R. Fukuda, 
 J. Hasegawa, M. Ishida, T. Nakajima, Y. Honda, O. Kitao, H. Nakai, 
 T. Vreven, K. Throssell, J. A. Montgomery, Jr., J. E. Peralta, 
 F. Ogliaro, M. J. Bearpark, J. J. Heyd, E. N. Brothers, K. N. Kudin, 
 V. N. Staroverov, T. A. Keith, R. Kobayashi, J. Normand, 
 K. Raghavachari, A. P. Rendell, J. C. Burant, S. S. Iyengar, 
 J. Tomasi, M. Cossi, J. M. Millam, M. Klene, C. Adamo, R. Cammi, 
 J. W. Ochterski, R. L. Martin, K. Morokuma, O. Farkas, 
 J. B. Foresman, and D. J. Fox, Gaussian, Inc., Wallingford CT, 2019.
 
 ******************************************
 Gaussian 16:  ES64L-G16RevC.01  3-Jul-2019
                28-Oct-2020 
 ******************************************
 %chk=config_2_16.chk
 %mem=58GB
 %nprocshared=10
 Will use up to   10 processors via shared memory.
 ----------------------------------------------------------------------
 #p opt=addgic freq wb97xd/cc-pvdz nosymm int=ultrafine scrf=(solvent=C
 arbonTetraChloride)
 ----------------------------------------------------------------------
 1/18=20,19=15,26=6,38=1,145=903/1,3;
 2/9=110,12=2,15=1,17=6,18=5,40=1/2;
 3/5=16,11=2,25=1,30=1,70=2201,71=1,72=11,74=-58,75=-5/1,2,3;
 4//1;
 5/5=2,38=5,53=11/2;
 6/7=2,8=2,9=2,10=2,28=1/1;
 7/30=1/1,2,3,16;
 1/18=20,19=15,26=6,145=903/3(2);
 2/9=110,15=1/2;
 99//99;
 2/9=110,15=1/2;
 3/5=16,11=2,25=1,30=1,70=2205,71=1,72=11,74=-58,75=-5/1,2,3;
 4/5=5,16=3,69=1/1;
 5/5=2,38=5,53=11/2;
 7/30=1/1,2,3,16;
 1/18=20,19=15,26=6,145=903/3(-5);
 2/9=110,15=1/2;
 6/7=2,8=2,9=2,10=2,19=2,28=1/1;
 99/9=1/99;
 Leave Link    1 at Wed Oct 28 00:33:54 2020, MaxMem=  7784628224 cpu:               4.1 elap:               0.5
 (Enter /gpfs/loomis/apps/avx/software/Gaussian/16-C.01_AVX/g16/l101.exe)
 ------------------------------------------------
 NM 2D-scan of HBT TD-WB97XD pVDZ in CTC Relaxed.
 ------------------------------------------------
 Symbolic Z-matrix:
 Charge =  0 Multiplicity = 1
 C                     1.54595  -3.25806  -0.00002 
 C                     0.99221  -1.98066  -0.00002 
 C                     1.7735   -0.77706  -0.00003 
 C                     3.19742  -0.93369  -0.00003 
 C                     3.73997  -2.2145   -0.00002 
 C                     2.93479  -3.37741  -0.00002 
 H                     0.89917  -4.14197  -0.00001 
 H                     3.84098  -0.04711  -0.00004 
 H                     4.82946  -2.32852  -0.00002 
 H                     3.40016  -4.36741  -0.00001 
 N                     1.04992   0.35841  -0.00003 
 S                    -0.70376  -1.60718  -0.00003 
 C                    -1.30757   1.05952   0.00001 
 C                    -2.69644   0.73512   0.00002 
 C                    -0.92824   2.47245   0.00004 
 C                    -3.64964   1.73868   0.00003 
 H                    -2.99923  -0.31709   0.00002 
 C                    -1.91642   3.47274   0.00004 
 C                    -3.26912   3.10949   0.00004 
 H                    -4.71157   1.47738   0.00004 
 H                    -1.60726   4.52318   0.00006 
 H                    -4.04084   3.88409   0.00004 
 C                    -0.28941   0.0991   -0.00002 
 O                     0.36428   2.7412    0.00006 
 H                     0.83366   2.08347   0.00003 
 
 Initializing the GIC definitions file.
 Number of initial coordinates =   131
 Number of input entries/lines =    52
 Number of additional coordinates =     2
 Number of removed coordinates =     0
 Number of frozen coordinates =     2
 Number of final active and frozen coordinates =   133
 ITRead=  0  0  0  0  0  0  0  0  0  0  0  0  0  0  0  0  0  0  0  0
 ITRead=  0  0  0  0  0
 MicOpt= -1 -1 -1 -1 -1 -1 -1 -1 -1 -1 -1 -1 -1 -1 -1 -1 -1 -1 -1 -1
 MicOpt= -1 -1 -1 -1 -1
 NAtoms=     25 NQM=       25 NQMF=       0 NMMI=      0 NMMIF=      0
                NMic=       0 NMicF=      0.
                    Isotopes and Nuclear Properties:
 (Nuclear quadrupole moments (NQMom) in fm**2, nuclear magnetic moments (NMagM)
  in nuclear magnetons)

  Atom         1           2           3           4           5           6           7           8           9          10
 IAtWgt=          12          12          12          12          12          12           1           1           1           1
 AtmWgt=  12.0000000  12.0000000  12.0000000  12.0000000  12.0000000  12.0000000   1.0078250   1.0078250   1.0078250   1.0078250
 NucSpn=           0           0           0           0           0           0           1           1           1           1
 AtZEff=  -0.0000000  -0.0000000  -0.0000000  -0.0000000  -0.0000000  -0.0000000  -0.0000000  -0.0000000  -0.0000000  -0.0000000
 NQMom=    0.0000000   0.0000000   0.0000000   0.0000000   0.0000000   0.0000000   0.0000000   0.0000000   0.0000000   0.0000000
 NMagM=    0.0000000   0.0000000   0.0000000   0.0000000   0.0000000   0.0000000   2.7928460   2.7928460   2.7928460   2.7928460
 AtZNuc=   6.0000000   6.0000000   6.0000000   6.0000000   6.0000000   6.0000000   1.0000000   1.0000000   1.0000000   1.0000000

  Atom        11          12          13          14          15          16          17          18          19          20
 IAtWgt=          14          32          12          12          12          12           1          12          12           1
 AtmWgt=  14.0030740  31.9720718  12.0000000  12.0000000  12.0000000  12.0000000   1.0078250  12.0000000  12.0000000   1.0078250
 NucSpn=           2           0           0           0           0           0           1           0           0           1
 AtZEff=  -0.0000000  -0.0000000  -0.0000000  -0.0000000  -0.0000000  -0.0000000  -0.0000000  -0.0000000  -0.0000000  -0.0000000
 NQMom=    2.0440000   0.0000000   0.0000000   0.0000000   0.0000000   0.0000000   0.0000000   0.0000000   0.0000000   0.0000000
 NMagM=    0.4037610   0.0000000   0.0000000   0.0000000   0.0000000   0.0000000   2.7928460   0.0000000   0.0000000   2.7928460
 AtZNuc=   7.0000000  16.0000000   6.0000000   6.0000000   6.0000000   6.0000000   1.0000000   6.0000000   6.0000000   1.0000000

  Atom        21          22          23          24          25
 IAtWgt=           1           1          12          16           1
 AtmWgt=   1.0078250   1.0078250  12.0000000  15.9949146   1.0078250
 NucSpn=           1           1           0           0           1
 AtZEff=  -0.0000000  -0.0000000  -0.0000000  -0.0000000  -0.0000000
 NQMom=    0.0000000   0.0000000   0.0000000   0.0000000   0.0000000
 NMagM=    2.7928460   2.7928460   0.0000000   0.0000000   2.7928460
 AtZNuc=   1.0000000   1.0000000   6.0000000   8.0000000   1.0000000
 Leave Link  101 at Wed Oct 28 00:33:58 2020, MaxMem=  7784628224 cpu:              31.3 elap:               3.2
 (Enter /gpfs/loomis/apps/avx/software/Gaussian/16-C.01_AVX/g16/l103.exe)

 GradGradGradGradGradGradGradGradGradGradGradGradGradGradGradGradGradGrad
 Berny optimization.
 Initialization pass.
                           ----------------------------
                           !    Initial Parameters    !
                           ! (Angstroms and Degrees)  !
 --------------------------                            --------------------------
 ! Name  Definition              Value          Derivative Info.                !
 --------------------------------------------------------------------------------
 ! R1    R(1,2)                  1.3923         estimate D2E/DX2                !
 ! R2    R(1,6)                  1.394          estimate D2E/DX2                !
 ! R3    R(1,7)                  1.0953         estimate D2E/DX2                !
 ! R4    R(2,3)                  1.4349         estimate D2E/DX2                !
 ! R5    R(2,12)                 1.7366         estimate D2E/DX2                !
 ! R6    R(3,4)                  1.4325         estimate D2E/DX2                !
 ! R7    R(3,11)                 1.3464         estimate D2E/DX2                !
 ! R8    R(4,5)                  1.391          estimate D2E/DX2                !
 ! R9    R(4,8)                  1.0955         estimate D2E/DX2                !
 ! R10   R(5,6)                  1.4145         estimate D2E/DX2                !
 ! R11   R(5,9)                  1.0954         estimate D2E/DX2                !
 ! R12   R(6,10)                 1.0939         estimate D2E/DX2                !
 ! R13   R(11,23)                1.3642         estimate D2E/DX2                !
 ! R14   R(12,23)                1.7559         estimate D2E/DX2                !
 ! R15   R(13,14)                1.4263         estimate D2E/DX2                !
 ! R16   R(13,15)                1.463          estimate D2E/DX2                !
 ! R17   R(13,23)                1.3997         estimate D2E/DX2                !
 ! R18   R(14,16)                1.3841         estimate D2E/DX2                !
 ! R19   R(14,17)                1.0949         estimate D2E/DX2                !
 ! R20   R(15,18)                1.4061         estimate D2E/DX2                !
 ! R21   R(15,24)                1.3202         estimate D2E/DX2                !
 ! R22   R(16,19)                1.4226         estimate D2E/DX2                !
 ! R23   R(16,20)                1.0936         estimate D2E/DX2                !
 ! R24   R(18,19)                1.4006         estimate D2E/DX2                !
 ! R25   R(18,21)                1.095          estimate D2E/DX2                !
 ! R26   R(19,22)                1.0934         estimate D2E/DX2                !
 ! R27   R(24,25)                0.808          estimate D2E/DX2                !
 ! A1    A(2,1,6)              118.3478         estimate D2E/DX2                !
 ! A2    A(2,1,7)              120.37           estimate D2E/DX2                !
 ! A3    A(6,1,7)              121.2821         estimate D2E/DX2                !
 ! A4    A(1,2,3)              123.5753         estimate D2E/DX2                !
 ! A5    A(1,2,12)             125.8554         estimate D2E/DX2                !
 ! A6    A(3,2,12)             110.5693         estimate D2E/DX2                !
 ! A7    A(2,3,4)              116.7111         estimate D2E/DX2                !
 ! A8    A(2,3,11)             114.5042         estimate D2E/DX2                !
 ! A9    A(4,3,11)             128.7847         estimate D2E/DX2                !
 ! A10   A(3,4,5)              119.2349         estimate D2E/DX2                !
 ! A11   A(3,4,8)              119.6978         estimate D2E/DX2                !
 ! A12   A(5,4,8)              121.0673         estimate D2E/DX2                !
 ! A13   A(4,5,6)              122.3442         estimate D2E/DX2                !
 ! A14   A(4,5,9)              118.9317         estimate D2E/DX2                !
 ! A15   A(6,5,9)              118.7241         estimate D2E/DX2                !
 ! A16   A(1,6,5)              119.7867         estimate D2E/DX2                !
 ! A17   A(1,6,10)             120.0885         estimate D2E/DX2                !
 ! A18   A(5,6,10)             120.1248         estimate D2E/DX2                !
 ! A19   A(3,11,23)            111.5498         estimate D2E/DX2                !
 ! A20   A(2,12,23)             88.7698         estimate D2E/DX2                !
 ! A21   A(14,13,15)           118.1751         estimate D2E/DX2                !
 ! A22   A(14,13,23)           123.5244         estimate D2E/DX2                !
 ! A23   A(15,13,23)           118.3005         estimate D2E/DX2                !
 ! A24   A(13,14,16)           120.3783         estimate D2E/DX2                !
 ! A25   A(13,14,17)           119.2012         estimate D2E/DX2                !
 ! A26   A(16,14,17)           120.4204         estimate D2E/DX2                !
 ! A27   A(13,15,18)           120.3212         estimate D2E/DX2                !
 ! A28   A(13,15,24)           116.7743         estimate D2E/DX2                !
 ! A29   A(18,15,24)           122.9045         estimate D2E/DX2                !
 ! A30   A(14,16,19)           120.9607         estimate D2E/DX2                !
 ! A31   A(14,16,20)           119.7021         estimate D2E/DX2                !
 ! A32   A(19,16,20)           119.3372         estimate D2E/DX2                !
 ! A33   A(15,18,19)           119.6193         estimate D2E/DX2                !
 ! A34   A(15,18,21)           118.9494         estimate D2E/DX2                !
 ! A35   A(19,18,21)           121.4313         estimate D2E/DX2                !
 ! A36   A(16,19,18)           120.5454         estimate D2E/DX2                !
 ! A37   A(16,19,22)           119.5934         estimate D2E/DX2                !
 ! A38   A(18,19,22)           119.8613         estimate D2E/DX2                !
 ! A39   A(11,23,12)           114.6068         estimate D2E/DX2                !
 ! A40   A(11,23,13)           125.7142         estimate D2E/DX2                !
 ! A41   A(12,23,13)           119.679          estimate D2E/DX2                !
 ! A42   A(15,24,25)           113.7665         estimate D2E/DX2                !
 ! D1    D(6,1,2,3)              0.0            estimate D2E/DX2                !
 ! D2    D(6,1,2,12)           180.0            estimate D2E/DX2                !
 ! D3    D(7,1,2,3)            179.9999         estimate D2E/DX2                !
 ! D4    D(7,1,2,12)            -0.0001         estimate D2E/DX2                !
 ! D5    D(2,1,6,5)             -0.0001         estimate D2E/DX2                !
 ! D6    D(2,1,6,10)           179.9999         estimate D2E/DX2                !
 ! D7    D(7,1,6,5)            179.9999         estimate D2E/DX2                !
 ! D8    D(7,1,6,10)             0.0            estimate D2E/DX2                !
 ! D9    D(1,2,3,4)              0.0002         estimate D2E/DX2                !
 ! D10   D(1,2,3,11)          -180.0            estimate D2E/DX2                !
 ! D11   D(12,2,3,4)          -179.9998         estimate D2E/DX2                !
 ! D12   D(12,2,3,11)            0.0001         estimate D2E/DX2                !
 ! D13   D(1,2,12,23)          179.9997         estimate D2E/DX2                !
 ! D14   D(3,2,12,23)           -0.0004         estimate D2E/DX2                !
 ! D15   D(2,3,4,5)             -0.0002         estimate D2E/DX2                !
 ! D16   D(2,3,4,8)            179.9999         estimate D2E/DX2                !
 ! D17   D(11,3,4,5)           180.0            estimate D2E/DX2                !
 ! D18   D(11,3,4,8)             0.0            estimate D2E/DX2                !
 ! D19   D(2,3,11,23)            0.0004         estimate D2E/DX2                !
 ! D20   D(4,3,11,23)         -179.9998         estimate D2E/DX2                !
 ! D21   D(3,4,5,6)              0.0            estimate D2E/DX2                !
 ! D22   D(3,4,5,9)           -179.9999         estimate D2E/DX2                !
 ! D23   D(8,4,5,6)            180.0            estimate D2E/DX2                !
 ! D24   D(8,4,5,9)              0.0            estimate D2E/DX2                !
 ! D25   D(4,5,6,1)              0.0001         estimate D2E/DX2                !
 ! D26   D(4,5,6,10)          -179.9999         estimate D2E/DX2                !
 ! D27   D(9,5,6,1)           -179.9999         estimate D2E/DX2                !
 ! D28   D(9,5,6,10)             0.0            estimate D2E/DX2                !
 ! D29   D(3,11,23,12)          -0.0007         estimate D2E/DX2                !
 ! D30   D(3,11,23,13)         179.9983         estimate D2E/DX2                !
 ! D31   D(2,12,23,11)           0.0006         estimate D2E/DX2                !
 ! D32   D(2,12,23,13)        -179.9985         estimate D2E/DX2                !
 ! D33   D(15,13,14,16)          0.0012         estimate D2E/DX2                !
 ! D34   D(15,13,14,17)       -179.9993         estimate D2E/DX2                !
 ! D35   D(23,13,14,16)       -179.9989         estimate D2E/DX2                !
 ! D36   D(23,13,14,17)          0.0006         estimate D2E/DX2                !
 ! D37   D(14,13,15,18)         -0.0014         estimate D2E/DX2                !
 ! D38   D(14,13,15,24)        179.9984         estimate D2E/DX2                !
 ! D39   D(23,13,15,18)        179.9987         estimate D2E/DX2                !
 ! D40   D(23,13,15,24)         -0.0015         estimate D2E/DX2                !
 ! D41   D(14,13,23,11)       -179.9999         estimate D2E/DX2                !
 ! D42   D(14,13,23,12)         -0.0009         estimate D2E/DX2                !
 ! D43   D(15,13,23,11)          0.0001         estimate D2E/DX2                !
 ! D44   D(15,13,23,12)        179.999          estimate D2E/DX2                !
 ! D45   D(13,14,16,19)         -0.0003         estimate D2E/DX2                !
 ! D46   D(13,14,16,20)        179.9997         estimate D2E/DX2                !
 ! D47   D(17,14,16,19)       -179.9999         estimate D2E/DX2                !
 ! D48   D(17,14,16,20)          0.0001         estimate D2E/DX2                !
 ! D49   D(13,15,18,19)          0.0007         estimate D2E/DX2                !
 ! D50   D(13,15,18,21)       -179.9999         estimate D2E/DX2                !
 ! D51   D(24,15,18,19)       -179.999          estimate D2E/DX2                !
 ! D52   D(24,15,18,21)          0.0004         estimate D2E/DX2                !
 ! D53   D(13,15,24,25)          0.0018         estimate D2E/DX2                !
 ! D54   D(18,15,24,25)       -179.9985         estimate D2E/DX2                !
 ! D55   D(14,16,19,18)         -0.0004         estimate D2E/DX2                !
 ! D56   D(14,16,19,22)        179.9998         estimate D2E/DX2                !
 ! D57   D(20,16,19,18)        179.9996         estimate D2E/DX2                !
 ! D58   D(20,16,19,22)         -0.0001         estimate D2E/DX2                !
 ! D59   D(15,18,19,16)          0.0002         estimate D2E/DX2                !
 ! D60   D(15,18,19,22)        179.9999         estimate D2E/DX2                !
 ! D61   D(21,18,19,16)       -179.9992         estimate D2E/DX2                !
 ! D62   D(21,18,19,22)          0.0005         estimate D2E/DX2                !
 ! Qtot  GIC-1                 -40.0            Frozen                          !
 ! Ptot  GIC-2                 160.0            Frozen                          !
 --------------------------------------------------------------------------------
 NOTE: GIC-type coordinates are in arbitrary units.
 Trust Radius=3.00D-01 FncErr=5.00D-06 GrdErr=5.00D-06 EigMax=2.50D+02 EigMin=1.00D-04
 Number of steps in this run=    143 maximum allowed number of steps=    150.
 GradGradGradGradGradGradGradGradGradGradGradGradGradGradGradGradGradGrad

 Leave Link  103 at Wed Oct 28 00:33:58 2020, MaxMem=  7784628224 cpu:               0.1 elap:               0.0
 (Enter /gpfs/loomis/apps/avx/software/Gaussian/16-C.01_AVX/g16/l202.exe)
                          Input orientation:                          
 ---------------------------------------------------------------------
 Center     Atomic      Atomic             Coordinates (Angstroms)
 Number     Number       Type             X           Y           Z
 ---------------------------------------------------------------------
      1          6           0        1.545947   -3.258059   -0.000017
      2          6           0        0.992209   -1.980658   -0.000023
      3          6           0        1.773495   -0.777056   -0.000027
      4          6           0        3.197424   -0.933691   -0.000030
      5          6           0        3.739974   -2.214504   -0.000024
      6          6           0        2.934789   -3.377410   -0.000016
      7          1           0        0.899168   -4.141970   -0.000013
      8          1           0        3.840980   -0.047108   -0.000035
      9          1           0        4.829461   -2.328519   -0.000025
     10          1           0        3.400158   -4.367407   -0.000011
     11          7           0        1.049921    0.358411   -0.000031
     12         16           0       -0.703762   -1.607178   -0.000025
     13          6           0       -1.307569    1.059522    0.000011
     14          6           0       -2.696441    0.735115    0.000023
     15          6           0       -0.928240    2.472445    0.000035
     16          6           0       -3.649636    1.738677    0.000032
     17          1           0       -2.999231   -0.317094    0.000017
     18          6           0       -1.916420    3.472742    0.000041
     19          6           0       -3.269121    3.109488    0.000037
     20          1           0       -4.711569    1.477381    0.000035
     21          1           0       -1.607264    4.523181    0.000057
     22          1           0       -4.040836    3.884094    0.000042
     23          6           0       -0.289411    0.099104   -0.000021
     24          8           0        0.364278    2.741205    0.000057
     25          1           0        0.833657    2.083474    0.000032
 ---------------------------------------------------------------------
                    Distance matrix (angstroms):
                    1          2          3          4          5
     1  C    0.000000
     2  C    1.392257   0.000000
     3  C    2.491416   1.434945   0.000000
     4  C    2.851326   2.441130   1.432518   0.000000
     5  C    2.429560   2.757698   2.435836   1.390986   0.000000
     6  C    1.393962   2.392600   2.847885   2.457791   1.414451
     7  H    1.095272   2.163314   3.476650   3.946521   3.432973
     8  H    3.946819   3.442980   2.192559   1.095533   2.169748
     9  H    3.412552   3.852988   3.427239   2.146879   1.095437
    10  H    2.160730   3.390397   3.941657   3.439696   2.179557
    11  N    3.650328   2.339781   1.346419   2.506252   3.722402
    12  S    2.790447   1.736607   2.612643   3.958893   4.485045
    13  C    5.175332   3.812043   3.586917   4.926243   6.016389
    14  C    5.826087   4.580563   4.718791   6.125566   7.080091
    15  C    6.241817   4.849562   4.225947   5.350035   6.615113
    16  C    7.208428   5.948123   5.978232   7.350087   8.380571
    17  H    5.413678   4.324238   4.794839   6.227257   7.001218
    18  C    7.569125   6.180590   5.628166   6.750412   8.021194
    19  C    7.983140   6.638412   6.366569   7.626500   8.801835
    20  H    7.847349   6.670166   6.865751   8.268340   9.222721
    21  H    8.395858   7.004083   6.286655   7.270659   8.601706
    22  H    9.067662   7.728315   7.452031   8.695025   9.886046
    23  C    3.826105   2.442941   2.241258   3.636576   4.646367
    24  O    6.114532   4.763432   3.789993   4.640214   5.996197
    25  H    5.388815   4.067224   3.010968   3.832843   5.188381
                    6          7          8          9         10
     6  C    0.000000
     7  H    2.174467   0.000000
     8  H    3.451390   5.042038   0.000000
     9  H    2.165630   4.328488   2.486349   0.000000
    10  H    1.093921   2.511130   4.342731   2.489974   0.000000
    11  N    4.184386   4.502905   2.820364   4.637296   5.277971
    12  S    4.046328   2.999092   4.805048   5.580044   4.945809
    13  C    6.138727   5.650240   5.266136   7.010133   7.184307
    14  C    6.973064   6.059238   6.584052   8.125581   7.950111
    15  C    7.010264   6.862209   5.393849   7.496692   8.094357
    16  C    8.338405   7.434623   7.700542   9.404104   9.326514
    17  H    6.676685   5.461427   6.845537   8.082960   7.573455
    18  C    8.393975   8.118582   6.748110   8.897277   9.472800
    19  C    8.975987   8.364106   7.779308   9.754945  10.019144
    20  H    9.057361   7.940873   8.687356  10.272104   9.998083
    21  H    9.113154   9.020368   7.111322   9.400916  10.203766
    22  H   10.069200   9.424508   8.807801  10.829531  11.111061
    23  C    4.741478   4.404478   4.132977   5.665351   5.793328
    24  O    6.636639   6.903927   4.456697   6.755736   7.729744
    25  H    5.851155   6.225789   3.685563   5.952490   6.942680
                   11         12         13         14         15
    11  N    0.000000
    12  S    2.634187   0.000000
    13  C    2.459536   2.734204   0.000000
    14  C    3.765254   3.075241   1.426256   0.000000
    15  C    2.895214   4.085794   1.462956   2.478881   0.000000
    16  C    4.898058   4.457905   2.438550   1.384094   2.818583
    17  H    4.105111   2.633153   2.181007   1.094909   3.474267
    18  C    4.300958   5.222655   2.488841   2.846582   1.406091
    19  C    5.120796   5.369171   2.837260   2.442459   2.426015
    20  H    5.869145   5.057373   3.429551   2.147486   3.911998
    21  H    4.940237   6.196581   3.476600   3.941541   2.160229
    22  H    6.192435   6.425740   3.930516   3.423955   3.417748
    23  C    1.364203   1.755872   1.399660   2.489639   2.457814
    24  O    2.479478   4.477627   2.371314   3.659562   1.320165
    25  H    1.738567   3.998071   2.373463   3.778844   1.804322
                   16         17         18         19         20
    16  C    0.000000
    17  H    2.156205   0.000000
    18  C    2.451738   3.941489   0.000000
    19  C    1.422643   3.437194   1.400626   0.000000
    20  H    1.093607   2.480371   3.434286   2.178171   0.000000
    21  H    3.453223   5.036451   1.094989   2.181811   4.348978
    22  H    2.180792   4.328386   2.163874   1.093416   2.498430
    23  C    3.738892   2.741596   3.745476   4.235691   4.631968
    24  O    4.137217   4.546029   2.395147   3.652016   5.230819
    25  H    4.496532   4.522583   3.081069   4.229124   5.578250
                   21         22         23         24         25
    21  H    0.000000
    22  H    2.516089   0.000000
    23  C    4.616188   5.329103   0.000000
    24  O    2.657520   4.550958   2.721765   0.000000
    25  H    3.451125   5.196432   2.280132   0.808038   0.000000
 Symmetry turned off by external request.
 Stoichiometry    C13H9NOS
 Framework group  C1[X(C13H9NOS)]
 Deg. of freedom    69
 Full point group                 C1      NOp   1
 Rotational constants (GHZ):           1.3968059           0.2864293           0.2376888
 Leave Link  202 at Wed Oct 28 00:33:58 2020, MaxMem=  7784628224 cpu:               0.1 elap:               0.0
 (Enter /gpfs/loomis/apps/avx/software/Gaussian/16-C.01_AVX/g16/l301.exe)
 Standard basis: CC-pVDZ (5D, 7F)
 Ernie: Thresh=  0.10000D-02 Tol=  0.10000D-05 Strict=F.
 Ernie:  40 primitive shells out of 425 were deleted.
   273 basis functions,   629 primitive gaussians,   289 cartesian basis functions
    59 alpha electrons       59 beta electrons
       nuclear repulsion energy      1100.2588756714 Hartrees.
 IExCor= 4639 DFT=T Ex+Corr=wB97XD ExCW=0 ScaHFX=  1.000000
 ScaDFX=  1.000000  1.000000  1.000000  1.000000 ScalE2=  1.000000  1.000000
 IRadAn=      5 IRanWt=     -1 IRanGd=            0 ICorTp=0 IEmpDi=121
 HFx  wShort=  0.000000 wLong=  0.200000 cFull=  0.222036 cShort=  0.000000 cLong=  0.777964
 DFx  wShort=  0.000000 wLong=  0.200000 cFull=  0.000000 cShort=  0.000000 cLong=  1.000000
 NAtoms=   25 NActive=   25 NUniq=   25 SFac= 1.00D+00 NAtFMM=   60 NAOKFM=F Big=F
 Integral buffers will be    131072 words long.
 Raffenetti 2 integral format.
 Two-electron integral symmetry is turned off.
 R6Disp:  Grimme-D2 Dispersion energy=       -0.0138210507 Hartrees.
 Nuclear repulsion after empirical dispersion term =     1100.2450546207 Hartrees.
 ------------------------------------------------------------------------------
 Polarizable Continuum Model (PCM)
 =================================
 Model                : PCM.
 Atomic radii         : UFF (Universal Force Field).
 Polarization charges : Total charges.
 Charge compensation  : None.
 Solution method      : On-the-fly selection.
 Cavity type          : Scaled VdW (van der Waals Surface) (Alpha=1.100).
 Cavity algorithm     : GePol (No added spheres)
                        Default sphere list used, NSphG=   25.
                        Lebedev-Laikov grids with approx.  5.0 points / Ang**2.
                        Smoothing algorithm: York/Karplus (Gamma=1.0000).
                        Polarization charges: spherical gaussians, with
                                              point-specific exponents (IZeta= 3).
                        Self-potential: point-specific (ISelfS= 7).
                        Self-field    : sphere-specific E.n sum rule (ISelfD= 2).
 1st derivatives      : Analytical E(r).r(x)/FMM algorithm (CHGder, D1EAlg=3).
                        Cavity 1st derivative terms included.
 Solvent              : CarbonTetraChloride, Eps=   2.228000 Eps(inf)=   2.131892
 ------------------------------------------------------------------------------
 GePol: Number of generator spheres                  =      25
 GePol: Total number of spheres                      =      25
 GePol: Number of exposed spheres                    =      25 (100.00%)
 GePol: Number of points                             =    2200
 GePol: Average weight of points                     =       0.12
 GePol: Minimum weight of points                     =   0.31D-09
 GePol: Maximum weight of points                     =    0.20577
 GePol: Number of points with low weight             =     157
 GePol: Fraction of low-weight points (<1% of avg)   =       7.14%
 GePol: Cavity surface area                          =    271.881 Ang**2
 GePol: Cavity volume                                =    292.244 Ang**3
 Leave Link  301 at Wed Oct 28 00:33:58 2020, MaxMem=  7784628224 cpu:               0.8 elap:               0.1
 (Enter /gpfs/loomis/apps/avx/software/Gaussian/16-C.01_AVX/g16/l302.exe)
 NPDir=0 NMtPBC=     1 NCelOv=     1 NCel=       1 NClECP=     1 NCelD=      1
         NCelK=      1 NCelE2=     1 NClLst=     1 CellRange=     0.0.
 One-electron integrals computed using PRISM.
 NBasis=   273 RedAO= T EigKep=  3.28D-04  NBF=   273
 NBsUse=   273 1.00D-06 EigRej= -1.00D+00 NBFU=   273
 Precomputing XC quadrature grid using
 IXCGrd= 4 IRadAn=           5 IRanWt=          -1 IRanGd=           0 AccXCQ= 0.00D+00.
 Generated NRdTot=       0 NPtTot=           0 NUsed=           0 NTot=          32
 NSgBfM=   288   288   288   288   288 MxSgAt=    25 MxSgA2=    25.
 Leave Link  302 at Wed Oct 28 00:33:58 2020, MaxMem=  7784628224 cpu:               2.5 elap:               0.3
 (Enter /gpfs/loomis/apps/avx/software/Gaussian/16-C.01_AVX/g16/l303.exe)
 DipDrv:  MaxL=1.
 Leave Link  303 at Wed Oct 28 00:33:59 2020, MaxMem=  7784628224 cpu:               0.4 elap:               0.1
 (Enter /gpfs/loomis/apps/avx/software/Gaussian/16-C.01_AVX/g16/l401.exe)
 ExpMin= 1.22D-01 ExpMax= 1.11D+05 ExpMxC= 1.07D+03 IAcc=3 IRadAn=         5 AccDes= 0.00D+00
 Harris functional with IExCor= 4639 and IRadAn=       5 diagonalized for initial guess.
 HarFok:  IExCor= 4639 AccDes= 0.00D+00 IRadAn=         5 IDoV= 1 UseB2=F ITyADJ=14
 ICtDFT=  3500011 ScaDFX=  1.000000  1.000000  1.000000  1.000000
 FoFCou: FMM=F IPFlag=           0 FMFlag=      100000 FMFlg1=           0
         NFxFlg=           0 DoJE=T BraDBF=F KetDBF=T FulRan=T
         wScrn=  0.000000 ICntrl=       500 IOpCl=  0 I1Cent=   200000004 NGrid=           0
         NMat0=    1 NMatS0=      1 NMatT0=    0 NMatD0=    1 NMtDS0=    0 NMtDT0=    0
 Symmetry not used in FoFCou.
 Harris En= -994.394442245946    
 JPrj=0 DoOrth=F DoCkMO=F.
 Leave Link  401 at Wed Oct 28 00:34:00 2020, MaxMem=  7784628224 cpu:              13.7 elap:               1.4
 (Enter /gpfs/loomis/apps/avx/software/Gaussian/16-C.01_AVX/g16/l502.exe)
 Two-electron integral symmetry not used.
 Closed shell SCF:
 Using DIIS extrapolation, IDIIS=  1040.
 NGot=  7784628224 LenX=  7784455381 LenY=  7784371419
 Requested convergence on RMS density matrix=1.00D-08 within 128 cycles.
 Requested convergence on MAX density matrix=1.00D-06.
 Requested convergence on             energy=1.00D-06.
 No special actions if energy rises.
 Fock matrices will be formed incrementally for  20 cycles.

 Cycle   1  Pass 1  IDiag  1:
 FoFJK:  IHMeth= 1 ICntrl=       0 DoSepK=T KAlg= 0 I1Cent=           0 FoldK=F
 IRaf=         1 NMat=       1 IRICut=       1 DoRegI=T DoRafI=F ISym2E= 0 IDoP0=0 IntGTp=1.
 FoFCou: FMM=F IPFlag=           0 FMFlag=      100000 FMFlg1=           0
         NFxFlg=           0 DoJE=T BraDBF=F KetDBF=F FulRan=T
         wScrn=  0.000000 ICntrl=       500 IOpCl=  0 I1Cent=           0 NGrid=           0
         NMat0=    1 NMatS0=      1 NMatT0=    0 NMatD0=    1 NMtDS0=    0 NMtDT0=    0
 Symmetry not used in FoFCou.
 Inv3:  Mode=1 IEnd=    14520000.
 Iteration    1 A*A^-1 deviation from unit magnitude is 4.88D-15 for   2182.
 Iteration    1 A*A^-1 deviation from orthogonality  is 1.75D-15 for   2054     80.
 Iteration    1 A^-1*A deviation from unit magnitude is 5.11D-15 for   2182.
 Iteration    1 A^-1*A deviation from orthogonality  is 1.32D-15 for   2186   2100.
 E= -1028.56178503446    
 DIIS: error= 2.91D-02 at cycle   1 NSaved=   1.
 NSaved= 1 IEnMin= 1 EnMin= -1028.56178503446     IErMin= 1 ErrMin= 2.91D-02
 ErrMax= 2.91D-02  0.00D+00 EMaxC= 1.00D-01 BMatC= 3.70D-01 BMatP= 3.70D-01
 IDIUse=3 WtCom= 7.09D-01 WtEn= 2.91D-01
 Coeff-Com:  0.100D+01
 Coeff-En:   0.100D+01
 Coeff:      0.100D+01
 Gap=     0.354 Goal=   None    Shift=    0.000
 GapD=    0.354 DampG=1.000 DampE=0.500 DampFc=0.5000 IDamp=-1.
 Damping current iteration by 5.00D-01
 RMSDP=3.38D-03 MaxDP=2.21D-01              OVMax= 1.70D-01

 Cycle   2  Pass 1  IDiag  1:
 RMSU=  1.68D-03    CP:  9.93D-01
 E= -1028.66958746329     Delta-E=       -0.107802428829 Rises=F Damp=T
 DIIS: error= 1.14D-02 at cycle   2 NSaved=   2.
 NSaved= 2 IEnMin= 2 EnMin= -1028.66958746329     IErMin= 2 ErrMin= 1.14D-02
 ErrMax= 1.14D-02  0.00D+00 EMaxC= 1.00D-01 BMatC= 5.69D-02 BMatP= 3.70D-01
 IDIUse=3 WtCom= 8.86D-01 WtEn= 1.14D-01
 Coeff-Com: -0.341D+00 0.134D+01
 Coeff-En:   0.000D+00 0.100D+01
 Coeff:     -0.302D+00 0.130D+01
 Gap=     0.306 Goal=   None    Shift=    0.000
 RMSDP=1.10D-03 MaxDP=2.09D-02 DE=-1.08D-01 OVMax= 1.18D-01

 Cycle   3  Pass 1  IDiag  1:
 RMSU=  1.04D-03    CP:  9.91D-01  1.22D+00
 E= -1028.76326739431     Delta-E=       -0.093679931023 Rises=F Damp=F
 DIIS: error= 5.79D-03 at cycle   3 NSaved=   3.
 NSaved= 3 IEnMin= 3 EnMin= -1028.76326739431     IErMin= 3 ErrMin= 5.79D-03
 ErrMax= 5.79D-03  0.00D+00 EMaxC= 1.00D-01 BMatC= 1.08D-02 BMatP= 5.69D-02
 IDIUse=3 WtCom= 9.42D-01 WtEn= 5.79D-02
 Coeff-Com: -0.207D+00 0.477D+00 0.730D+00
 Coeff-En:   0.000D+00 0.000D+00 0.100D+01
 Coeff:     -0.195D+00 0.449D+00 0.746D+00
 Gap=     0.265 Goal=   None    Shift=    0.000
 RMSDP=4.79D-04 MaxDP=1.56D-02 DE=-9.37D-02 OVMax= 3.83D-02

 Cycle   4  Pass 1  IDiag  1:
 RMSU=  3.51D-04    CP:  9.89D-01  1.39D+00  8.61D-01
 E= -1028.77416501694     Delta-E=       -0.010897622625 Rises=F Damp=F
 DIIS: error= 2.01D-03 at cycle   4 NSaved=   4.
 NSaved= 4 IEnMin= 4 EnMin= -1028.77416501694     IErMin= 4 ErrMin= 2.01D-03
 ErrMax= 2.01D-03  0.00D+00 EMaxC= 1.00D-01 BMatC= 1.39D-03 BMatP= 1.08D-02
 IDIUse=3 WtCom= 9.80D-01 WtEn= 2.01D-02
 Coeff-Com: -0.775D-01 0.154D+00 0.362D+00 0.562D+00
 Coeff-En:   0.000D+00 0.000D+00 0.000D+00 0.100D+01
 Coeff:     -0.759D-01 0.151D+00 0.355D+00 0.570D+00
 Gap=     0.263 Goal=   None    Shift=    0.000
 RMSDP=1.45D-04 MaxDP=7.84D-03 DE=-1.09D-02 OVMax= 1.10D-02

 Cycle   5  Pass 1  IDiag  1:
 RMSU=  9.67D-05    CP:  9.89D-01  1.39D+00  9.24D-01  7.54D-01
 E= -1028.77565992554     Delta-E=       -0.001494908601 Rises=F Damp=F
 DIIS: error= 4.10D-04 at cycle   5 NSaved=   5.
 NSaved= 5 IEnMin= 5 EnMin= -1028.77565992554     IErMin= 5 ErrMin= 4.10D-04
 ErrMax= 4.10D-04  0.00D+00 EMaxC= 1.00D-01 BMatC= 6.18D-05 BMatP= 1.39D-03
 IDIUse=3 WtCom= 9.96D-01 WtEn= 4.10D-03
 Coeff-Com: -0.430D-02 0.290D-02 0.515D-01 0.195D+00 0.755D+00
 Coeff-En:   0.000D+00 0.000D+00 0.000D+00 0.000D+00 0.100D+01
 Coeff:     -0.429D-02 0.289D-02 0.513D-01 0.194D+00 0.756D+00
 Gap=     0.264 Goal=   None    Shift=    0.000
 RMSDP=4.89D-05 MaxDP=1.60D-03 DE=-1.49D-03 OVMax= 4.33D-03

 Cycle   6  Pass 1  IDiag  1:
 RMSU=  3.29D-05    CP:  9.89D-01  1.40D+00  9.41D-01  8.40D-01  1.03D+00
 E= -1028.77576605829     Delta-E=       -0.000106132749 Rises=F Damp=F
 DIIS: error= 1.38D-04 at cycle   6 NSaved=   6.
 NSaved= 6 IEnMin= 6 EnMin= -1028.77576605829     IErMin= 6 ErrMin= 1.38D-04
 ErrMax= 1.38D-04  0.00D+00 EMaxC= 1.00D-01 BMatC= 8.75D-06 BMatP= 6.18D-05
 IDIUse=3 WtCom= 9.99D-01 WtEn= 1.38D-03
 Coeff-Com:  0.154D-01-0.319D-01-0.561D-01-0.450D-01 0.220D+00 0.898D+00
 Coeff-En:   0.000D+00 0.000D+00 0.000D+00 0.000D+00 0.000D+00 0.100D+01
 Coeff:      0.154D-01-0.319D-01-0.560D-01-0.449D-01 0.220D+00 0.898D+00
 Gap=     0.264 Goal=   None    Shift=    0.000
 RMSDP=2.95D-05 MaxDP=1.54D-03 DE=-1.06D-04 OVMax= 2.65D-03

 Cycle   7  Pass 1  IDiag  1:
 RMSU=  1.59D-05    CP:  9.89D-01  1.40D+00  9.53D-01  8.78D-01  1.19D+00
                    CP:  1.18D+00
 E= -1028.77579124973     Delta-E=       -0.000025191444 Rises=F Damp=F
 DIIS: error= 8.50D-05 at cycle   7 NSaved=   7.
 NSaved= 7 IEnMin= 7 EnMin= -1028.77579124973     IErMin= 7 ErrMin= 8.50D-05
 ErrMax= 8.50D-05  0.00D+00 EMaxC= 1.00D-01 BMatC= 1.92D-06 BMatP= 8.75D-06
 IDIUse=1 WtCom= 1.00D+00 WtEn= 0.00D+00
 Coeff-Com:  0.704D-02-0.136D-01-0.303D-01-0.452D-01-0.197D-01 0.378D+00
 Coeff-Com:  0.724D+00
 Coeff:      0.704D-02-0.136D-01-0.303D-01-0.452D-01-0.197D-01 0.378D+00
 Coeff:      0.724D+00
 Gap=     0.264 Goal=   None    Shift=    0.000
 RMSDP=9.94D-06 MaxDP=5.21D-04 DE=-2.52D-05 OVMax= 1.17D-03

 Cycle   8  Pass 1  IDiag  1:
 RMSU=  6.39D-06    CP:  9.89D-01  1.40D+00  9.55D-01  8.84D-01  1.23D+00
                    CP:  1.35D+00  1.08D+00
 E= -1028.77579512834     Delta-E=       -0.000003878610 Rises=F Damp=F
 DIIS: error= 3.17D-05 at cycle   8 NSaved=   8.
 NSaved= 8 IEnMin= 8 EnMin= -1028.77579512834     IErMin= 8 ErrMin= 3.17D-05
 ErrMax= 3.17D-05  0.00D+00 EMaxC= 1.00D-01 BMatC= 2.19D-07 BMatP= 1.92D-06
 IDIUse=1 WtCom= 1.00D+00 WtEn= 0.00D+00
 Coeff-Com: -0.986D-03 0.225D-02 0.230D-02-0.234D-02-0.402D-01-0.492D-01
 Coeff-Com:  0.211D+00 0.877D+00
 Coeff:     -0.986D-03 0.225D-02 0.230D-02-0.234D-02-0.402D-01-0.492D-01
 Coeff:      0.211D+00 0.877D+00
 Gap=     0.265 Goal=   None    Shift=    0.000
 RMSDP=4.36D-06 MaxDP=1.39D-04 DE=-3.88D-06 OVMax= 6.05D-04

 Cycle   9  Pass 1  IDiag  1:
 RMSU=  2.07D-06    CP:  9.89D-01  1.40D+00  9.55D-01  8.85D-01  1.24D+00
                    CP:  1.41D+00  1.27D+00  1.10D+00
 E= -1028.77579573763     Delta-E=       -0.000000609283 Rises=F Damp=F
 DIIS: error= 1.50D-05 at cycle   9 NSaved=   9.
 NSaved= 9 IEnMin= 9 EnMin= -1028.77579573763     IErMin= 9 ErrMin= 1.50D-05
 ErrMax= 1.50D-05  0.00D+00 EMaxC= 1.00D-01 BMatC= 4.91D-08 BMatP= 2.19D-07
 IDIUse=1 WtCom= 1.00D+00 WtEn= 0.00D+00
 Coeff-Com: -0.129D-02 0.261D-02 0.482D-02 0.533D-02-0.141D-01-0.721D-01
 Coeff-Com: -0.287D-02 0.366D+00 0.712D+00
 Coeff:     -0.129D-02 0.261D-02 0.482D-02 0.533D-02-0.141D-01-0.721D-01
 Coeff:     -0.287D-02 0.366D+00 0.712D+00
 Gap=     0.265 Goal=   None    Shift=    0.000
 RMSDP=1.68D-06 MaxDP=5.59D-05 DE=-6.09D-07 OVMax= 1.56D-04

 Cycle  10  Pass 1  IDiag  1:
 RMSU=  9.20D-07    CP:  9.89D-01  1.40D+00  9.55D-01  8.84D-01  1.25D+00
                    CP:  1.43D+00  1.31D+00  1.26D+00  1.06D+00
 E= -1028.77579584334     Delta-E=       -0.000000105712 Rises=F Damp=F
 DIIS: error= 6.46D-06 at cycle  10 NSaved=  10.
 NSaved=10 IEnMin=10 EnMin= -1028.77579584334     IErMin=10 ErrMin= 6.46D-06
 ErrMax= 6.46D-06  0.00D+00 EMaxC= 1.00D-01 BMatC= 6.85D-09 BMatP= 4.91D-08
 IDIUse=1 WtCom= 1.00D+00 WtEn= 0.00D+00
 Coeff-Com: -0.234D-03 0.430D-03 0.113D-02 0.240D-02 0.264D-02-0.198D-01
 Coeff-Com: -0.414D-01-0.384D-01 0.229D+00 0.864D+00
 Coeff:     -0.234D-03 0.430D-03 0.113D-02 0.240D-02 0.264D-02-0.198D-01
 Coeff:     -0.414D-01-0.384D-01 0.229D+00 0.864D+00
 Gap=     0.265 Goal=   None    Shift=    0.000
 RMSDP=9.31D-07 MaxDP=3.21D-05 DE=-1.06D-07 OVMax= 1.40D-04

 Cycle  11  Pass 1  IDiag  1:
 RMSU=  4.14D-07    CP:  9.89D-01  1.40D+00  9.55D-01  8.84D-01  1.25D+00
                    CP:  1.44D+00  1.34D+00  1.31D+00  1.28D+00  1.16D+00
 E= -1028.77579586993     Delta-E=       -0.000000026587 Rises=F Damp=F
 DIIS: error= 3.21D-06 at cycle  11 NSaved=  11.
 NSaved=11 IEnMin=11 EnMin= -1028.77579586993     IErMin=11 ErrMin= 3.21D-06
 ErrMax= 3.21D-06  0.00D+00 EMaxC= 1.00D-01 BMatC= 1.44D-09 BMatP= 6.85D-09
 IDIUse=1 WtCom= 1.00D+00 WtEn= 0.00D+00
 Coeff-Com:  0.150D-03-0.313D-03-0.491D-03-0.896D-04 0.313D-02 0.433D-02
 Coeff-Com: -0.823D-02-0.580D-01-0.652D-01 0.273D+00 0.852D+00
 Coeff:      0.150D-03-0.313D-03-0.491D-03-0.896D-04 0.313D-02 0.433D-02
 Coeff:     -0.823D-02-0.580D-01-0.652D-01 0.273D+00 0.852D+00
 Gap=     0.265 Goal=   None    Shift=    0.000
 RMSDP=3.69D-07 MaxDP=8.23D-06 DE=-2.66D-08 OVMax= 5.84D-05

 Cycle  12  Pass 1  IDiag  1:
 RMSU=  1.58D-07    CP:  9.89D-01  1.40D+00  9.55D-01  8.84D-01  1.25D+00
                    CP:  1.44D+00  1.35D+00  1.33D+00  1.37D+00  1.40D+00
                    CP:  1.16D+00
 E= -1028.77579587499     Delta-E=       -0.000000005062 Rises=F Damp=F
 DIIS: error= 9.02D-07 at cycle  12 NSaved=  12.
 NSaved=12 IEnMin=12 EnMin= -1028.77579587499     IErMin=12 ErrMin= 9.02D-07
 ErrMax= 9.02D-07  0.00D+00 EMaxC= 1.00D-01 BMatC= 2.64D-10 BMatP= 1.44D-09
 IDIUse=1 WtCom= 1.00D+00 WtEn= 0.00D+00
 Coeff-Com:  0.101D-03-0.197D-03-0.429D-03-0.577D-03 0.600D-03 0.578D-02
 Coeff-Com:  0.710D-02-0.859D-02-0.908D-01-0.111D+00 0.223D+00 0.975D+00
 Coeff:      0.101D-03-0.197D-03-0.429D-03-0.577D-03 0.600D-03 0.578D-02
 Coeff:      0.710D-02-0.859D-02-0.908D-01-0.111D+00 0.223D+00 0.975D+00
 Gap=     0.265 Goal=   None    Shift=    0.000
 RMSDP=2.26D-07 MaxDP=4.99D-06 DE=-5.06D-09 OVMax= 3.51D-05

 Cycle  13  Pass 1  IDiag  1:
 RMSU=  6.72D-08    CP:  9.89D-01  1.40D+00  9.55D-01  8.84D-01  1.25D+00
                    CP:  1.44D+00  1.35D+00  1.34D+00  1.42D+00  1.53D+00
                    CP:  1.45D+00  1.28D+00
 E= -1028.77579587627     Delta-E=       -0.000000001285 Rises=F Damp=F
 DIIS: error= 3.97D-07 at cycle  13 NSaved=  13.
 NSaved=13 IEnMin=13 EnMin= -1028.77579587627     IErMin=13 ErrMin= 3.97D-07
 ErrMax= 3.97D-07  0.00D+00 EMaxC= 1.00D-01 BMatC= 3.44D-11 BMatP= 2.64D-10
 IDIUse=1 WtCom= 1.00D+00 WtEn= 0.00D+00
 Coeff-Com:  0.223D-05-0.181D-05-0.360D-04-0.133D-03-0.217D-03 0.840D-03
 Coeff-Com:  0.332D-02 0.786D-02-0.152D-01-0.643D-01-0.865D-01 0.261D+00
 Coeff-Com:  0.893D+00
 Coeff:      0.223D-05-0.181D-05-0.360D-04-0.133D-03-0.217D-03 0.840D-03
 Coeff:      0.332D-02 0.786D-02-0.152D-01-0.643D-01-0.865D-01 0.261D+00
 Coeff:      0.893D+00
 Gap=     0.265 Goal=   None    Shift=    0.000
 RMSDP=6.57D-08 MaxDP=1.52D-06 DE=-1.28D-09 OVMax= 8.82D-06

 Cycle  14  Pass 1  IDiag  1:
 RMSU=  2.73D-08    CP:  9.89D-01  1.40D+00  9.55D-01  8.84D-01  1.25D+00
                    CP:  1.44D+00  1.35D+00  1.34D+00  1.43D+00  1.57D+00
                    CP:  1.52D+00  1.49D+00  1.16D+00
 E= -1028.77579587639     Delta-E=       -0.000000000119 Rises=F Damp=F
 DIIS: error= 1.36D-07 at cycle  14 NSaved=  14.
 NSaved=14 IEnMin=14 EnMin= -1028.77579587639     IErMin=14 ErrMin= 1.36D-07
 ErrMax= 1.36D-07  0.00D+00 EMaxC= 1.00D-01 BMatC= 5.53D-12 BMatP= 3.44D-11
 IDIUse=1 WtCom= 1.00D+00 WtEn= 0.00D+00
 Coeff-Com: -0.113D-04 0.232D-04 0.390D-04 0.194D-04-0.138D-03-0.380D-03
 Coeff-Com:  0.348D-03 0.375D-02 0.398D-02-0.890D-02-0.560D-01-0.131D-01
 Coeff-Com:  0.339D+00 0.731D+00
 Coeff:     -0.113D-04 0.232D-04 0.390D-04 0.194D-04-0.138D-03-0.380D-03
 Coeff:      0.348D-03 0.375D-02 0.398D-02-0.890D-02-0.560D-01-0.131D-01
 Coeff:      0.339D+00 0.731D+00
 Gap=     0.265 Goal=   None    Shift=    0.000
 RMSDP=1.67D-08 MaxDP=3.90D-07 DE=-1.19D-10 OVMax= 2.34D-06

 Cycle  15  Pass 1  IDiag  1:
 RMSU=  9.40D-09    CP:  9.89D-01  1.40D+00  9.55D-01  8.84D-01  1.25D+00
                    CP:  1.44D+00  1.35D+00  1.34D+00  1.43D+00  1.57D+00
                    CP:  1.53D+00  1.54D+00  1.30D+00  1.02D+00
 E= -1028.77579587640     Delta-E=       -0.000000000010 Rises=F Damp=F
 DIIS: error= 4.82D-08 at cycle  15 NSaved=  15.
 NSaved=15 IEnMin=15 EnMin= -1028.77579587640     IErMin=15 ErrMin= 4.82D-08
 ErrMax= 4.82D-08  0.00D+00 EMaxC= 1.00D-01 BMatC= 6.26D-13 BMatP= 5.53D-12
 IDIUse=1 WtCom= 1.00D+00 WtEn= 0.00D+00
 Coeff-Com: -0.299D-05 0.558D-05 0.163D-04 0.277D-04-0.420D-05-0.270D-03
 Coeff-Com: -0.562D-03-0.337D-03 0.388D-02 0.960D-02-0.163D-03-0.534D-01
 Coeff-Com: -0.735D-01 0.172D+00 0.943D+00
 Coeff:     -0.299D-05 0.558D-05 0.163D-04 0.277D-04-0.420D-05-0.270D-03
 Coeff:     -0.562D-03-0.337D-03 0.388D-02 0.960D-02-0.163D-03-0.534D-01
 Coeff:     -0.735D-01 0.172D+00 0.943D+00
 Gap=     0.265 Goal=   None    Shift=    0.000
 RMSDP=8.51D-09 MaxDP=1.94D-07 DE=-9.55D-12 OVMax= 9.35D-07

 Error on total polarization charges =  0.00800
 SCF Done:  E(RwB97XD) =  -1028.77579588     A.U. after   15 cycles
            NFock= 15  Conv=0.85D-08     -V/T= 2.0046
 KE= 1.024058721504D+03 PE=-4.612789935876D+03 EE= 1.459710363875D+03
 Leave Link  502 at Wed Oct 28 00:35:23 2020, MaxMem=  7784628224 cpu:             820.4 elap:              82.7
 (Enter /gpfs/loomis/apps/avx/software/Gaussian/16-C.01_AVX/g16/l601.exe)
 Copying SCF densities to generalized density rwf, IOpCl= 0 IROHF=0.

 **********************************************************************

            Population analysis using the SCF Density.

 **********************************************************************

 Alpha  occ. eigenvalues --  -89.08426 -19.27979 -14.46430 -10.39049 -10.38683
 Alpha  occ. eigenvalues --  -10.34905 -10.34266 -10.32604 -10.32561 -10.32503
 Alpha  occ. eigenvalues --  -10.31926 -10.31595 -10.31341 -10.31287 -10.31270
 Alpha  occ. eigenvalues --  -10.31025  -8.10510  -6.05338  -6.05002  -6.04583
 Alpha  occ. eigenvalues --   -1.21449  -1.07779  -0.97010  -0.95570  -0.91906
 Alpha  occ. eigenvalues --   -0.88691  -0.85975  -0.84444  -0.82427  -0.76644
 Alpha  occ. eigenvalues --   -0.72518  -0.70222  -0.69971  -0.68187  -0.64664
 Alpha  occ. eigenvalues --   -0.60270  -0.59408  -0.58470  -0.56145  -0.54712
 Alpha  occ. eigenvalues --   -0.53893  -0.53582  -0.52670  -0.50800  -0.50478
 Alpha  occ. eigenvalues --   -0.49172  -0.47821  -0.46098  -0.45655  -0.44903
 Alpha  occ. eigenvalues --   -0.43767  -0.43186  -0.42015  -0.39671  -0.37217
 Alpha  occ. eigenvalues --   -0.36397  -0.32128  -0.31563  -0.28272
 Alpha virt. eigenvalues --   -0.01820   0.05282   0.06634   0.06974   0.08133
 Alpha virt. eigenvalues --    0.11261   0.14341   0.15334   0.17079   0.18000
 Alpha virt. eigenvalues --    0.18589   0.21326   0.21635   0.22270   0.22755
 Alpha virt. eigenvalues --    0.23859   0.23875   0.24340   0.28214   0.30491
 Alpha virt. eigenvalues --    0.32271   0.33493   0.34811   0.35916   0.37159
 Alpha virt. eigenvalues --    0.37947   0.38902   0.40742   0.43535   0.45135
 Alpha virt. eigenvalues --    0.46562   0.49032   0.50517   0.51363   0.51515
 Alpha virt. eigenvalues --    0.52490   0.53524   0.54434   0.55065   0.55926
 Alpha virt. eigenvalues --    0.55978   0.56303   0.57165   0.57952   0.58057
 Alpha virt. eigenvalues --    0.58654   0.59003   0.59268   0.59704   0.60111
 Alpha virt. eigenvalues --    0.60794   0.60976   0.62184   0.62673   0.63502
 Alpha virt. eigenvalues --    0.65405   0.66175   0.66552   0.67905   0.69243
 Alpha virt. eigenvalues --    0.71193   0.71620   0.72557   0.72700   0.73373
 Alpha virt. eigenvalues --    0.73776   0.74570   0.75920   0.75974   0.78814
 Alpha virt. eigenvalues --    0.78884   0.79257   0.80534   0.81624   0.82179
 Alpha virt. eigenvalues --    0.85122   0.90734   0.91097   0.93044   0.94254
 Alpha virt. eigenvalues --    0.95127   0.95154   0.95762   0.97249   0.97250
 Alpha virt. eigenvalues --    0.98132   0.98835   1.00584   1.00998   1.02346
 Alpha virt. eigenvalues --    1.02510   1.05785   1.06571   1.07266   1.08097
 Alpha virt. eigenvalues --    1.08428   1.08586   1.09603   1.10546   1.11066
 Alpha virt. eigenvalues --    1.11994   1.12815   1.14544   1.14769   1.15711
 Alpha virt. eigenvalues --    1.16385   1.19874   1.20199   1.21690   1.22496
 Alpha virt. eigenvalues --    1.24991   1.30062   1.32763   1.34502   1.35363
 Alpha virt. eigenvalues --    1.36615   1.36850   1.39113   1.41002   1.46104
 Alpha virt. eigenvalues --    1.48432   1.48848   1.51121   1.51327   1.53588
 Alpha virt. eigenvalues --    1.55216   1.56154   1.56681   1.56762   1.57225
 Alpha virt. eigenvalues --    1.58295   1.59597   1.61859   1.65746   1.66608
 Alpha virt. eigenvalues --    1.67431   1.68872   1.69503   1.70313   1.70973
 Alpha virt. eigenvalues --    1.72260   1.72454   1.72684   1.73615   1.75258
 Alpha virt. eigenvalues --    1.75672   1.77404   1.79628   1.81067   1.82081
 Alpha virt. eigenvalues --    1.82957   1.83098   1.84716   1.84917   1.85118
 Alpha virt. eigenvalues --    1.86306   1.88102   1.88790   1.89571   1.92107
 Alpha virt. eigenvalues --    1.92127   1.93039   1.93342   1.94452   1.96827
 Alpha virt. eigenvalues --    2.00247   2.00388   2.03077   2.03284   2.04496
 Alpha virt. eigenvalues --    2.05654   2.07765   2.08753   2.11361   2.12453
 Alpha virt. eigenvalues --    2.17148   2.17754   2.19988   2.24105   2.25019
 Alpha virt. eigenvalues --    2.25780   2.27885   2.35989   2.37781   2.42210
 Alpha virt. eigenvalues --    2.42211   2.42474   2.46143   2.46831   2.47172
 Alpha virt. eigenvalues --    2.48949   2.49820   2.53549   2.58002   2.62497
 Alpha virt. eigenvalues --    2.63292   2.71889   2.74888   2.76416   2.79379
 Alpha virt. eigenvalues --    2.81153   2.83592   2.87914   2.90344   2.95095
 Alpha virt. eigenvalues --    2.99792   3.06214   3.15336   3.20868   3.29997
 Alpha virt. eigenvalues --    3.48547   3.55331   3.71335   4.16963
          Condensed to atoms (all electrons):
               1          2          3          4          5          6
     1  C    4.765108   0.447112   0.015907  -0.055654  -0.014338   0.519743
     2  C    0.447112   5.326156   0.334387  -0.026348  -0.068773  -0.004840
     3  C    0.015907   0.334387   4.772877   0.477304  -0.002846  -0.063931
     4  C   -0.055654  -0.026348   0.477304   4.791662   0.524576  -0.010661
     5  C   -0.014338  -0.068773  -0.002846   0.524576   4.743550   0.487169
     6  C    0.519743  -0.004840  -0.063931  -0.010661   0.487169   4.748496
     7  H    0.399901  -0.036159   0.008174  -0.000538   0.007903  -0.040013
     8  H   -0.001100   0.012440  -0.036686   0.394232  -0.043686   0.008044
     9  H    0.009173  -0.000937   0.008742  -0.039177   0.404331  -0.046018
    10  H   -0.042446   0.009449  -0.000513   0.008257  -0.042800   0.405658
    11  N    0.008936  -0.066215   0.511363  -0.042008   0.003194  -0.000230
    12  S   -0.073486   0.342026  -0.100258   0.007860   0.000227   0.004041
    13  C   -0.000202   0.003566   0.006756  -0.000545   0.000008   0.000005
    14  C   -0.000017   0.000032   0.000491   0.000008  -0.000000  -0.000000
    15  C    0.000009   0.000004  -0.001481  -0.000003  -0.000000  -0.000000
    16  C    0.000000  -0.000008   0.000008  -0.000000   0.000000  -0.000000
    17  H   -0.000010   0.000193  -0.000008   0.000000   0.000000   0.000000
    18  C    0.000000   0.000008  -0.000037  -0.000000  -0.000000  -0.000000
    19  C   -0.000000   0.000000   0.000002   0.000000   0.000000   0.000000
    20  H   -0.000000  -0.000000  -0.000000  -0.000000  -0.000000  -0.000000
    21  H   -0.000000  -0.000000   0.000000   0.000000   0.000000   0.000000
    22  H    0.000000  -0.000000  -0.000000  -0.000000   0.000000  -0.000000
    23  C    0.005082  -0.056341  -0.130661  -0.001327   0.000316  -0.000216
    24  O    0.000001  -0.000026  -0.001560  -0.000028  -0.000000  -0.000000
    25  H   -0.000062   0.001748  -0.002195  -0.000293  -0.000013   0.000008
               7          8          9         10         11         12
     1  C    0.399901  -0.001100   0.009173  -0.042446   0.008936  -0.073486
     2  C   -0.036159   0.012440  -0.000937   0.009449  -0.066215   0.342026
     3  C    0.008174  -0.036686   0.008742  -0.000513   0.511363  -0.100258
     4  C   -0.000538   0.394232  -0.039177   0.008257  -0.042008   0.007860
     5  C    0.007903  -0.043686   0.404331  -0.042800   0.003194   0.000227
     6  C   -0.040013   0.008044  -0.046018   0.405658  -0.000230   0.004041
     7  H    0.661584   0.000034  -0.000162  -0.011161  -0.000100  -0.007735
     8  H    0.000034   0.661902  -0.012902  -0.000108  -0.000931  -0.000107
     9  H   -0.000162  -0.012902   0.668931  -0.012073  -0.000089   0.000019
    10  H   -0.011161  -0.000108  -0.012073   0.664594  -0.000000  -0.000174
    11  N   -0.000100  -0.000931  -0.000089  -0.000000   6.477100  -0.078849
    12  S   -0.007735  -0.000107   0.000019  -0.000174  -0.078849  15.511219
    13  C   -0.000000   0.000031  -0.000000  -0.000000  -0.013530  -0.062389
    14  C    0.000001   0.000001   0.000000  -0.000000   0.003906  -0.012804
    15  C   -0.000000  -0.000026   0.000000   0.000000  -0.025869   0.006060
    16  C    0.000000   0.000000  -0.000000  -0.000000  -0.000069   0.000343
    17  H    0.000002   0.000000  -0.000000  -0.000000   0.000211   0.009356
    18  C   -0.000000  -0.000000  -0.000000  -0.000000  -0.000578  -0.000200
    19  C    0.000000   0.000000  -0.000000  -0.000000   0.000032   0.000022
    20  H    0.000000   0.000000   0.000000   0.000000   0.000001   0.000012
    21  H   -0.000000   0.000000  -0.000000   0.000000   0.000003   0.000004
    22  H    0.000000  -0.000000  -0.000000  -0.000000  -0.000000  -0.000000
    23  C    0.000124  -0.000949   0.000007   0.000004   0.541308   0.301062
    24  O   -0.000000  -0.000076   0.000000  -0.000000  -0.039923  -0.000105
    25  H    0.000001   0.000885  -0.000002   0.000000   0.066249   0.002812
              13         14         15         16         17         18
     1  C   -0.000202  -0.000017   0.000009   0.000000  -0.000010   0.000000
     2  C    0.003566   0.000032   0.000004  -0.000008   0.000193   0.000008
     3  C    0.006756   0.000491  -0.001481   0.000008  -0.000008  -0.000037
     4  C   -0.000545   0.000008  -0.000003  -0.000000   0.000000  -0.000000
     5  C    0.000008  -0.000000  -0.000000   0.000000   0.000000  -0.000000
     6  C    0.000005  -0.000000  -0.000000  -0.000000   0.000000  -0.000000
     7  H   -0.000000   0.000001  -0.000000   0.000000   0.000002  -0.000000
     8  H    0.000031   0.000001  -0.000026   0.000000   0.000000  -0.000000
     9  H   -0.000000   0.000000   0.000000  -0.000000  -0.000000  -0.000000
    10  H   -0.000000  -0.000000   0.000000  -0.000000  -0.000000  -0.000000
    11  N   -0.013530   0.003906  -0.025869  -0.000069   0.000211  -0.000578
    12  S   -0.062389  -0.012804   0.006060   0.000343   0.009356  -0.000200
    13  C    5.325326   0.494890   0.266191  -0.012724  -0.034203  -0.072012
    14  C    0.494890   4.813680  -0.020335   0.532444   0.398739  -0.053245
    15  C    0.266191  -0.020335   4.867920  -0.058610   0.006903   0.478563
    16  C   -0.012724   0.532444  -0.058610   4.729430  -0.033550  -0.017089
    17  H   -0.034203   0.398739   0.006903  -0.033550   0.654410  -0.000628
    18  C   -0.072012  -0.053245   0.478563  -0.017089  -0.000628   4.835414
    19  C   -0.049689  -0.021399  -0.010248   0.493838   0.007879   0.516253
    20  H    0.008656  -0.034672  -0.000255   0.401722  -0.012019   0.008079
    21  H    0.011893  -0.000423  -0.024534   0.006889   0.000039   0.381132
    22  H   -0.001139   0.009401   0.008947  -0.042569  -0.000158  -0.042254
    23  C    0.321633  -0.084655  -0.072125   0.006895  -0.022909   0.007994
    24  O   -0.092026   0.003738   0.521654  -0.000014  -0.000054  -0.053224
    25  H   -0.047471  -0.001349   0.005226   0.000008   0.000014   0.008000
              19         20         21         22         23         24
     1  C   -0.000000  -0.000000  -0.000000   0.000000   0.005082   0.000001
     2  C    0.000000  -0.000000  -0.000000  -0.000000  -0.056341  -0.000026
     3  C    0.000002  -0.000000   0.000000  -0.000000  -0.130661  -0.001560
     4  C    0.000000  -0.000000   0.000000  -0.000000  -0.001327  -0.000028
     5  C    0.000000  -0.000000   0.000000   0.000000   0.000316  -0.000000
     6  C    0.000000  -0.000000   0.000000  -0.000000  -0.000216  -0.000000
     7  H    0.000000   0.000000  -0.000000   0.000000   0.000124  -0.000000
     8  H    0.000000   0.000000   0.000000  -0.000000  -0.000949  -0.000076
     9  H   -0.000000   0.000000  -0.000000  -0.000000   0.000007   0.000000
    10  H   -0.000000   0.000000   0.000000  -0.000000   0.000004  -0.000000
    11  N    0.000032   0.000001   0.000003  -0.000000   0.541308  -0.039923
    12  S    0.000022   0.000012   0.000004  -0.000000   0.301062  -0.000105
    13  C   -0.049689   0.008656   0.011893  -0.001139   0.321633  -0.092026
    14  C   -0.021399  -0.034672  -0.000423   0.009401  -0.084655   0.003738
    15  C   -0.010248  -0.000255  -0.024534   0.008947  -0.072125   0.521654
    16  C    0.493838   0.401722   0.006889  -0.042569   0.006895  -0.000014
    17  H    0.007879  -0.012019   0.000039  -0.000158  -0.022909  -0.000054
    18  C    0.516253   0.008079   0.381132  -0.042254   0.007994  -0.053224
    19  C    4.725741  -0.045810  -0.042208   0.406626   0.000944   0.002318
    20  H   -0.045810   0.670567  -0.000127  -0.011565  -0.000359   0.000003
    21  H   -0.042208  -0.000127   0.651182  -0.011771  -0.000416   0.001756
    22  H    0.406626  -0.011565  -0.011771   0.656977  -0.000009  -0.000046
    23  C    0.000944  -0.000359  -0.000416  -0.000009   5.101561  -0.000445
    24  O    0.002318   0.000003   0.001756  -0.000046  -0.000445   7.243091
    25  H   -0.000042  -0.000001   0.000133   0.000006   0.004397   0.421715
              25
     1  C   -0.000062
     2  C    0.001748
     3  C   -0.002195
     4  C   -0.000293
     5  C   -0.000013
     6  C    0.000008
     7  H    0.000001
     8  H    0.000885
     9  H   -0.000002
    10  H    0.000000
    11  N    0.066249
    12  S    0.002812
    13  C   -0.047471
    14  C   -0.001349
    15  C    0.005226
    16  C    0.000008
    17  H    0.000014
    18  C    0.008000
    19  C   -0.000042
    20  H   -0.000001
    21  H    0.000133
    22  H    0.000006
    23  C    0.004397
    24  O    0.421715
    25  H    0.546698
 Mulliken charges:
               1
     1  C    0.016342
     2  C   -0.217474
     3  C    0.204165
     4  C   -0.027316
     5  C    0.001182
     6  C   -0.007253
     7  H    0.018144
     8  H    0.019004
     9  H    0.020155
    10  H    0.021312
    11  N   -0.343912
    12  S    0.151043
    13  C   -0.053024
    14  C   -0.028432
    15  C    0.052009
    16  C   -0.006943
    17  H    0.025794
    18  C    0.003824
    19  C    0.015739
    20  H    0.015767
    21  H    0.026448
    22  H    0.027555
    23  C    0.079087
    24  O   -0.006747
    25  H   -0.006471
 Sum of Mulliken charges =  -0.00000
 Mulliken charges with hydrogens summed into heavy atoms:
               1
     1  C    0.034487
     2  C   -0.217474
     3  C    0.204165
     4  C   -0.008312
     5  C    0.021337
     6  C    0.014059
    11  N   -0.343912
    12  S    0.151043
    13  C   -0.053024
    14  C   -0.002638
    15  C    0.052009
    16  C    0.008825
    18  C    0.030272
    19  C    0.043294
    23  C    0.079087
    24  O   -0.013218
 Electronic spatial extent (au):  <R**2>=           4329.0401
 Charge=             -0.0000 electrons
 Dipole moment (field-independent basis, Debye):
    X=             -1.1254    Y=             -1.5384    Z=              0.0000  Tot=              1.9061
 Quadrupole moment (field-independent basis, Debye-Ang):
   XX=            -82.9942   YY=            -87.8305   ZZ=           -104.2649
   XY=             -7.3770   XZ=             -0.0001   YZ=             -0.0000
 Traceless Quadrupole moment (field-independent basis, Debye-Ang):
   XX=              8.7023   YY=              3.8661   ZZ=            -12.5684
   XY=             -7.3770   XZ=             -0.0001   YZ=             -0.0000
 Octapole moment (field-independent basis, Debye-Ang**2):
  XXX=              0.4470  YYY=            -10.4688  ZZZ=              0.0001  XYY=             -9.5724
  XXY=              6.9007  XXZ=              0.0002  XZZ=              0.7359  YZZ=              4.4723
  YYZ=              0.0002  XYZ=             -0.0004
 Hexadecapole moment (field-independent basis, Debye-Ang**3):
 XXXX=          -2589.0949 YYYY=          -2578.1940 ZZZZ=           -113.4760 XXXY=            801.9359
 XXXZ=              0.0099 YYYX=            767.2494 YYYZ=             -0.0142 ZZZX=              0.0141
 ZZZY=             -0.0171 XXYY=           -837.2279 XXZZ=           -571.5696 YYZZ=           -545.3203
 XXYZ=             -0.0040 YYXZ=              0.0025 ZZXY=            358.1514
 N-N= 1.100245054621D+03 E-N=-4.612789939762D+03  KE= 1.024058721504D+03
 No NMR shielding tensors so no spin-rotation constants.
 Leave Link  601 at Wed Oct 28 00:35:23 2020, MaxMem=  7784628224 cpu:               1.1 elap:               0.1
 (Enter /gpfs/loomis/apps/avx/software/Gaussian/16-C.01_AVX/g16/l701.exe)
 ... and contract with generalized density number  0.
 Compute integral first derivatives.
 R6Disp: Adding Grimme-D2 dispersion energy 1st derivatives to the gradient.
 D1PCM: PCM CHGder 1st derivatives, ID1Alg=3 FixD1E=F DoIter=F DoCFld=F I1PDM=0.
 GePol: Maximum number of non-zero 1st derivatives   =     256
 Leave Link  701 at Wed Oct 28 00:35:25 2020, MaxMem=  7784628224 cpu:              14.0 elap:               1.4
 (Enter /gpfs/loomis/apps/avx/software/Gaussian/16-C.01_AVX/g16/l702.exe)
 L702 exits ... SP integral derivatives will be done elsewhere.
 Leave Link  702 at Wed Oct 28 00:35:25 2020, MaxMem=  7784628224 cpu:               0.3 elap:               0.1
 (Enter /gpfs/loomis/apps/avx/software/Gaussian/16-C.01_AVX/g16/l703.exe)
 Integral derivatives from FoFJK, PRISM(SPDF).
 Compute integral first derivatives, UseDBF=F ICtDFT=           0.
 Calling FoFJK, ICntrl=      2127 FMM=F ISym2X=0 I1Cent= 0 IOpClX= 0 NMat=1 NMatS=1 NMatT=0.
 FoFJK:  IHMeth= 1 ICntrl=    2127 DoSepK=T KAlg= 0 I1Cent=           0 FoldK=F
 IRaf=         1 NMat=       1 IRICut=       1 DoRegI=T DoRafI=F ISym2E= 0 IDoP0=0 IntGTp=1.
 FoFCou: FMM=F IPFlag=           0 FMFlag=      100000 FMFlg1=         800
         NFxFlg=           0 DoJE=F BraDBF=F KetDBF=F FulRan=T
         wScrn=  0.000000 ICntrl=      2527 IOpCl=  0 I1Cent=           0 NGrid=           0
         NMat0=    1 NMatS0=      1 NMatT0=    0 NMatD0=    1 NMtDS0=    0 NMtDT0=    0
 Symmetry not used in FoFCou.
 Leave Link  703 at Wed Oct 28 00:35:38 2020, MaxMem=  7784628224 cpu:             136.1 elap:              13.7
 (Enter /gpfs/loomis/apps/avx/software/Gaussian/16-C.01_AVX/g16/l716.exe)
 Dipole        =-4.42770269D-01-6.05251827D-01 2.09251716D-06
 -------------------------------------------------------------------
 Center     Atomic                   Forces (Hartrees/Bohr)
 Number     Number              X              Y              Z
 -------------------------------------------------------------------
      1        6           0.007118677   -0.005555161   -0.000000039
      2        6           0.008342836    0.005797829   -0.000000227
      3        6           0.015755077   -0.045435692   -0.000000764
      4        6          -0.016848737    0.004149491    0.000000059
      5        6          -0.000708099   -0.001934966    0.000000109
      6        6          -0.002480877    0.007682814   -0.000000159
      7        1           0.002491075    0.001903700   -0.000000029
      8        1          -0.002311586   -0.002333971    0.000000026
      9        1          -0.002563506    0.000790172    0.000000003
     10        1          -0.000785903    0.002346132   -0.000000000
     11        7          -0.053987509    0.006398244    0.000001067
     12       16           0.006282327    0.002751931    0.000000191
     13        6          -0.036160796    0.058215082    0.000000834
     14        6           0.017380874    0.007389062   -0.000001288
     15        6          -0.012488060   -0.043696122   -0.000000649
     16        6          -0.002064609    0.013981487    0.000000227
     17        1          -0.001138673    0.002622775   -0.000000041
     18        6          -0.002014211   -0.003838493    0.000000861
     19        6           0.009101106   -0.015906020    0.000000083
     20        1           0.002028338    0.000581224    0.000000056
     21        1          -0.000499119   -0.003153855   -0.000000276
     22        1           0.001685034   -0.001034781   -0.000000011
     23        6           0.062419946   -0.024437628    0.000000100
     24        8          -0.164442586    0.270741164    0.000008841
     25        1           0.165888980   -0.238024420   -0.000008975
 -------------------------------------------------------------------
 Cartesian Forces:  Max     0.270741164 RMS     0.051976217
 Leave Link  716 at Wed Oct 28 00:35:38 2020, MaxMem=  7784628224 cpu:               0.3 elap:               0.0
 (Enter /gpfs/loomis/apps/avx/software/Gaussian/16-C.01_AVX/g16/l103.exe)

 GradGradGradGradGradGradGradGradGradGradGradGradGradGradGradGradGradGrad
 Berny optimization.
 FormGI is forming the generalized inverse of G from B-inverse, IUseBI=4.
 Internal  Forces:  Max     0.288511589 RMS     0.026931502
 Search for a local minimum.
 Step number   1 out of a maximum of  143
 All quantities printed in internal units (Hartrees-Bohrs-Radians)
 RMS Force = .27136D-01 SwitMx=.10000D-02 MixMth= 1
 Mixed Optimization -- RFO/linear search
 Second derivative matrix not updated -- first step.
 ITU=  0
     Eigenvalues ---    0.01457   0.01503   0.01719   0.01738   0.01851
     Eigenvalues ---    0.01854   0.01856   0.01910   0.01913   0.01938
     Eigenvalues ---    0.01987   0.02015   0.02019   0.02032   0.02047
     Eigenvalues ---    0.02071   0.02092   0.02093   0.02126   0.02127
     Eigenvalues ---    0.02180   0.02748   0.16000   0.16000   0.16000
     Eigenvalues ---    0.16000   0.16000   0.16000   0.16000   0.16003
     Eigenvalues ---    0.16185   0.22000   0.22024   0.22531   0.22586
     Eigenvalues ---    0.24477   0.24549   0.25000   0.25000   0.25000
     Eigenvalues ---    0.28746   0.30986   0.33879   0.34181   0.34192
     Eigenvalues ---    0.34210   0.34242   0.34251   0.34363   0.34399
     Eigenvalues ---    0.34421   0.36651   0.38840   0.39596   0.40762
     Eigenvalues ---    0.42202   0.42979   0.43932   0.44803   0.45196
     Eigenvalues ---    0.46155   0.47020   0.47401   0.49568   0.53268
     Eigenvalues ---    0.61732   1.024311000.000001000.000001000.00000
     Eigenvalues --- 1000.000001000.000001000.000001000.000001000.00000
     Eigenvalues --- 1000.000001000.000001000.000001000.000001000.00000
     Eigenvalues --- 1000.000001000.000001000.000001000.000001000.00000
     Eigenvalues --- 1000.000001000.000001000.000001000.000001000.00000
     Eigenvalues --- 1000.000001000.000001000.000001000.000001000.00000
     Eigenvalues --- 1000.000001000.000001000.000001000.000001000.00000
     Eigenvalues --- 1000.000001000.000001000.000001000.000001000.00000
     Eigenvalues --- 1000.000001000.000001000.000001000.000001000.00000
     Eigenvalues --- 1000.000001000.000001000.000001000.000001000.00000
     Eigenvalues --- 1000.000001000.000001000.000001000.000001000.00000
     Eigenvalues --- 1000.000001000.000001000.000001000.000001000.00000
     Eigenvalues --- 1000.000001000.000001000.000001000.000001000.00000
     Eigenvalues --- 1000.000001000.000001000.00000
 RFO step:  Lambda=-9.49418177D-02 EMin= 1.45675494D-02
 Linear search not attempted -- first point.
 Maximum step size (   0.300) exceeded in Quadratic search.
    -- Step size scaled by   0.932
 Iteration  1 RMS(Cart)=  0.02700803 RMS(Int)=  0.00343936
 Iteration  2 RMS(Cart)=  0.00338250 RMS(Int)=  0.00004905
 Iteration  3 RMS(Cart)=  0.00002026 RMS(Int)=  0.00004633
 Iteration  4 RMS(Cart)=  0.00000001 RMS(Int)=  0.00004633
 Iteration  1 RMS(Cart)=  0.00000009 RMS(Int)=  0.00000002
 ITry= 1 IFail=0 DXMaxC= 1.67D-01 DCOld= 1.00D+10 DXMaxT= 3.00D-01 DXLimC= 3.00D+00 Rises=F
 Variable       Old X    -DE/DX   Delta X   Delta X   Delta X     New X
                                 (Linear)    (Quad)   (Total)
    R1        2.63098   0.00326   0.00000   0.00111   0.00108   2.63207
    R2        2.63421  -0.00456   0.00000  -0.01179  -0.01185   2.62235
    R3        2.06976  -0.00302   0.00000  -0.00655  -0.00655   2.06321
    R4        2.71165  -0.02122   0.00000  -0.04026  -0.04017   2.67149
    R5        3.28171   0.00284   0.00000   0.00147   0.00142   3.28313
    R6        2.70707  -0.02188   0.00000  -0.03683  -0.03678   2.67029
    R7        2.54436   0.02040   0.00000   0.03821   0.03835   2.58271
    R8        2.62858  -0.00752   0.00000  -0.00638  -0.00634   2.62224
    R9        2.07026  -0.00324   0.00000  -0.00689  -0.00689   2.06337
   R10        2.67293  -0.00721   0.00000  -0.01415  -0.01419   2.65874
   R11        2.07008  -0.00262   0.00000  -0.00565  -0.00565   2.06442
   R12        2.06721  -0.00248   0.00000  -0.00520  -0.00520   2.06201
   R13        2.57797  -0.04800   0.00000  -0.06912  -0.06910   2.50887
   R14        3.31812   0.01034   0.00000  -0.00706  -0.00726   3.31085
   R15        2.69523  -0.01213   0.00000  -0.03022  -0.03025   2.66498
   R16        2.76459  -0.00889   0.00000  -0.05095  -0.05109   2.71350
   R17        2.64497   0.05078   0.00000   0.07065   0.07057   2.71555
   R18        2.61556  -0.00336   0.00000  -0.00402  -0.00401   2.61155
   R19        2.06908  -0.00223   0.00000  -0.00467  -0.00467   2.06441
   R20        2.65713  -0.00964   0.00000  -0.00958  -0.00955   2.64758
   R21        2.49475   0.00859   0.00000   0.00676   0.00672   2.50147
   R22        2.68841  -0.02311   0.00000  -0.04096  -0.04096   2.64745
   R23        2.06662  -0.00214   0.00000  -0.00432  -0.00432   2.06230
   R24        2.64680  -0.01656   0.00000  -0.01852  -0.01847   2.62833
   R25        2.06923  -0.00315   0.00000  -0.00684  -0.00684   2.06239
   R26        2.06626  -0.00193   0.00000  -0.00390  -0.00390   2.06236
   R27        1.52697   0.28851   0.00000   0.24057   0.24067   1.76764
    A1        2.06556  -0.00421   0.00000  -0.00704  -0.00704   2.05852
    A2        2.10085   0.00315   0.00000   0.00574   0.00574   2.10659
    A3        2.11677   0.00107   0.00000   0.00129   0.00130   2.11807
    A4        2.15680  -0.00333   0.00000  -0.00089  -0.00085   2.15595
    A5        2.19659   0.01735   0.00000   0.02408   0.02394   2.22053
    A6        1.92980  -0.01402   0.00000  -0.02319  -0.02309   1.90671
    A7        2.03699   0.00857   0.00000   0.01139   0.01134   2.04834
    A8        1.99848   0.00512   0.00000   0.00358   0.00363   2.00211
    A9        2.24772  -0.01369   0.00000  -0.01497  -0.01498   2.23274
   A10        2.08104   0.00073   0.00000   0.00067   0.00071   2.08175
   A11        2.08912  -0.00100   0.00000  -0.00131  -0.00133   2.08779
   A12        2.11302   0.00027   0.00000   0.00064   0.00062   2.11364
   A13        2.13531  -0.00313   0.00000  -0.00612  -0.00612   2.12919
   A14        2.07575   0.00091   0.00000   0.00171   0.00171   2.07746
   A15        2.07213   0.00222   0.00000   0.00441   0.00441   2.07653
   A16        2.09067   0.00137   0.00000   0.00199   0.00194   2.09261
   A17        2.09594  -0.00028   0.00000  -0.00045  -0.00043   2.09551
   A18        2.09657  -0.00109   0.00000  -0.00154  -0.00151   2.09506
   A19        1.94691   0.00887   0.00000   0.01568   0.01571   1.96262
   A20        1.54933   0.00807   0.00000   0.01996   0.01984   1.56916
   A21        2.06254  -0.00708   0.00000   0.00301   0.00307   2.06562
   A22        2.15591  -0.01685   0.00000  -0.02567  -0.02567   2.13024
   A23        2.06473   0.02392   0.00000   0.02267   0.02260   2.08733
   A24        2.10100   0.00770   0.00000   0.01539   0.01540   2.11640
   A25        2.08045  -0.00187   0.00000  -0.00154  -0.00154   2.07891
   A26        2.10173  -0.00583   0.00000  -0.01386  -0.01385   2.08788
   A27        2.10000  -0.00270   0.00000  -0.01205  -0.01209   2.08791
   A28        2.03810   0.04091   0.00000   0.05334   0.05318   2.09127
   A29        2.14509  -0.03820   0.00000  -0.04129  -0.04109   2.10400
   A30        2.11116  -0.00469   0.00000  -0.01890  -0.01890   2.09226
   A31        2.08920   0.00253   0.00000   0.00935   0.00935   2.09854
   A32        2.08283   0.00217   0.00000   0.00955   0.00955   2.09238
   A33        2.08775   0.00614   0.00000   0.01081   0.01078   2.09853
   A34        2.07606  -0.00360   0.00000  -0.00616  -0.00614   2.06992
   A35        2.11938  -0.00254   0.00000  -0.00465  -0.00464   2.11474
   A36        2.10391   0.00064   0.00000   0.00174   0.00174   2.10566
   A37        2.08730   0.00029   0.00000  -0.00028  -0.00028   2.08701
   A38        2.09197  -0.00093   0.00000  -0.00146  -0.00146   2.09052
   A39        2.00027  -0.00804   0.00000  -0.01604  -0.01608   1.98418
   A40        2.19413  -0.00428   0.00000  -0.00682  -0.00670   2.18743
   A41        2.08879   0.01232   0.00000   0.02285   0.02278   2.11157
   A42        1.98560  -0.00415   0.00000  -0.03763  -0.03769   1.94791
    D1       -0.00000   0.00000   0.00000   0.00000   0.00000  -0.00000
    D2        3.14159   0.00000   0.00000   0.00000   0.00000   3.14159
    D3        3.14159   0.00000   0.00000   0.00000   0.00000   3.14159
    D4       -0.00000   0.00000   0.00000   0.00000   0.00000  -0.00000
    D5       -0.00000   0.00000   0.00000   0.00000   0.00000  -0.00000
    D6        3.14159  -0.00000   0.00000  -0.00000  -0.00000   3.14159
    D7        3.14159   0.00000   0.00000   0.00000   0.00000   3.14159
    D8       -0.00000  -0.00000   0.00000  -0.00000  -0.00000  -0.00000
    D9        0.00000  -0.00000   0.00000  -0.00000  -0.00000   0.00000
   D10       -3.14159  -0.00000   0.00000   0.00000   0.00000  -3.14159
   D11       -3.14159  -0.00000   0.00000  -0.00000  -0.00000  -3.14159
   D12        0.00000  -0.00000   0.00000  -0.00000  -0.00000   0.00000
   D13        3.14159   0.00000   0.00000   0.00000   0.00000   3.14159
   D14       -0.00001   0.00000   0.00000   0.00000   0.00000  -0.00000
   D15       -0.00000   0.00000   0.00000   0.00000   0.00000  -0.00000
   D16        3.14159   0.00000   0.00000   0.00000   0.00000   3.14159
   D17        3.14159  -0.00000   0.00000  -0.00000  -0.00000   3.14159
   D18        0.00000  -0.00000   0.00000  -0.00000  -0.00000  -0.00000
   D19        0.00001  -0.00000   0.00000  -0.00000  -0.00000   0.00000
   D20       -3.14159  -0.00000   0.00000  -0.00000  -0.00000  -3.14159
   D21        0.00000  -0.00000   0.00000   0.00000   0.00000   0.00000
   D22       -3.14159  -0.00000   0.00000  -0.00000  -0.00000  -3.14159
   D23        3.14159   0.00000   0.00000  -0.00000  -0.00000   3.14159
   D24        0.00000  -0.00000   0.00000  -0.00000  -0.00000   0.00000
   D25        0.00000  -0.00000   0.00000  -0.00000  -0.00000   0.00000
   D26       -3.14159  -0.00000   0.00000   0.00000   0.00000  -3.14159
   D27       -3.14159  -0.00000   0.00000  -0.00000  -0.00000  -3.14159
   D28        0.00000   0.00000   0.00000   0.00000   0.00000   0.00000
   D29       -0.00001   0.00000   0.00000   0.00000   0.00000  -0.00001
   D30        3.14156   0.00000   0.00000   0.00001   0.00001   3.14157
   D31        0.00001  -0.00000   0.00000  -0.00000  -0.00000   0.00001
   D32       -3.14157  -0.00000   0.00000  -0.00001  -0.00001  -3.14157
   D33        0.00002  -0.00000   0.00000  -0.00000  -0.00000   0.00002
   D34       -3.14158  -0.00000   0.00000  -0.00000  -0.00000  -3.14158
   D35       -3.14157  -0.00000   0.00000  -0.00000  -0.00000  -3.14158
   D36        0.00001  -0.00000   0.00000  -0.00000  -0.00000   0.00001
   D37       -0.00002   0.00000   0.00000   0.00000   0.00000  -0.00002
   D38        3.14156   0.00000   0.00000   0.00000   0.00000   3.14157
   D39        3.14157   0.00000   0.00000   0.00000   0.00000   3.14157
   D40       -0.00003   0.00000   0.00000   0.00000   0.00000  -0.00002
   D41       -3.14159  -0.00000   0.00000  -0.00000  -0.00000  -3.14159
   D42       -0.00002   0.00000   0.00000   0.00000   0.00000  -0.00001
   D43        0.00000  -0.00000   0.00000  -0.00000  -0.00000   0.00000
   D44        3.14158   0.00000   0.00000   0.00000   0.00000   3.14158
   D45       -0.00001   0.00000   0.00000   0.00000   0.00000  -0.00000
   D46        3.14159   0.00000   0.00000   0.00000   0.00000   3.14159
   D47       -3.14159  -0.00000   0.00000  -0.00000  -0.00000  -3.14159
   D48        0.00000  -0.00000   0.00000  -0.00000  -0.00000   0.00000
   D49        0.00001  -0.00000   0.00000  -0.00000  -0.00000   0.00001
[...]
 .00000098,-0.25664325,0.16125883,-0.00000758,-0.00224470,0.02324682,-0
 .00000003,0.77079821,-0.00038413,0.00093955,-0.00000002,0.00095924,-0.
 00054457,-0.00000003,-0.00005072,0.00105482,0.00000016,-0.00056146,0.0
 0008807,0.00000002,-0.00016630,-0.00090805,0.,0.00104503,-0.00016981,-
 0.00000002,-0.00006483,-0.00005682,0.,0.00004408,0.00004185,0.,0.00009
 566,-0.00004839,0.,0.00006409,-0.00004088,0.,0.00525233,0.00284186,0.0
 0000028,-0.00191256,-0.00151795,-0.00000004,0.06038556,0.04450673,0.00
 000034,0.08874303,-0.24811882,0.00000538,0.03097522,-0.07123455,0.0000
 0256,0.00894393,0.68515538,0.,0.,0.00010845,0.00000002,0.00000002,0.00
 058884,-0.00000004,-0.00000006,-0.00065098,0.,0.00000001,-0.00017276,0
 .,0.,0.00007009,-0.00000001,0.,-0.00003329,0.,0.,0.00000903,0.,0.,0.00
 001980,0.,0.,0.00002063,0.,0.,-0.00004293,-0.00000024,0.00000001,0.000
 13536,0.,0.00000007,-0.00103852,-0.00000192,-0.00000036,0.00788251,-0.
 00000704,0.00000760,-0.06255165,-0.00000061,0.00000183,-0.00477694,0.0
 0001300,-0.00001504,0.12776805,0.00038360,0.00001237,0.,-0.00089590,0.
 00035474,0.00000005,0.00024300,-0.00002400,0.,0.00007065,0.00003290,0.
 ,0.00006790,0.00009344,0.,-0.00010841,-0.00012768,0.,-0.00002123,-0.00
 001642,0.,0.00004640,0.00000462,0.,0.00001632,-0.00000238,0.,0.0000409
 5,-0.00001512,0.,0.00051155,0.00050766,0.00000003,-0.00187829,0.002157
 44,0.00000012,-0.00228298,-0.02767165,0.00000035,-0.07859884,-0.074543
 23,0.00000051,-0.00526330,0.00082759,-0.00000024,0.01012779,0.02222573
 ,-0.00000022,0.07961549,0.00005152,0.00004245,0.,0.00003949,0.00077714
 ,0.,0.00044066,-0.00041230,0.,0.00001750,0.00014188,0.,0.00001554,0.00
 004030,0.,-0.00005801,-0.00001794,0.,-0.00002142,0.00000274,0.,0.00004
 260,-0.00000191,0.,-0.00000013,0.00000311,0.,0.00001369,-0.00000073,0.
 ,-0.00073405,0.00028192,0.00000003,0.00175671,-0.00121628,-0.00000011,
 0.00072063,-0.00405370,0.00000005,-0.07304838,-0.32110114,0.00000250,-
 0.00060406,0.00200788,0.00000010,-0.00982132,-0.01603947,0.00000005,0.
 07641353,0.34200061,0.,0.,-0.00002653,-0.00000004,0.,-0.00081227,0.000
 00003,0.00000001,0.00016114,0.,0.,0.00010298,0.,0.,-0.00003344,0.,0.,0
 .00003812,0.,0.,-0.00001907,0.,0.,-0.00002907,0.,0.,-0.00000403,0.,0.,
 0.00003001,0.00000001,0.,0.00006981,0.00000016,-0.00000010,0.00168488,
 -0.00000052,-0.00000062,0.00281181,0.00000100,0.00000188,-0.03749100,-
 0.00000014,0.00000026,0.00610000,-0.00000006,0.00000138,0.00513695,-0.
 00000031,-0.00000267,0.02435322,0.00014946,0.00035843,-0.00000004,0.00
 031867,0.00005815,-0.00000005,0.00127048,-0.00001099,0.00000010,-0.000
 39199,-0.00003097,0.00000003,-0.00005978,-0.00039543,0.,0.00034014,-0.
 00008586,0.,-0.00004104,0.00001027,0.,0.00007597,0.00000057,0.,0.00003
 600,-0.00001832,0.,0.00002807,-0.00000590,0.,0.00132519,0.00463619,0.0
 0000077,-0.00018025,0.00007073,-0.00000002,0.05467624,0.04173153,-0.00
 000059,-0.06706951,0.02131549,-0.00000180,-0.19943809,0.05968765,-0.00
 000600,0.00534567,-0.08950099,0.00000176,-0.00089803,0.00040430,0.0000
 0031,0.72599548,0.00044637,-0.00030968,0.,-0.00101402,-0.00011288,0.,-
 0.00019006,0.00015717,-0.00000006,0.00042639,-0.00006979,-0.00000002,0
 .00011316,0.00049760,0.,-0.00048129,-0.00008756,0.00000001,-0.00000218
 ,0.00002830,0.,0.00000925,-0.00001114,0.,-0.00002017,0.00001738,0.,0.0
 0001170,0.00000193,0.,-0.00070204,-0.00035816,-0.00000006,0.00155527,-
 0.00037839,-0.00000002,0.00526388,-0.03557288,0.00000089,0.01733815,-0
 .00767106,0.00000062,0.12764842,-0.24309524,0.00000824,-0.03774894,0.0
 0759842,-0.00000063,0.00019966,0.00058564,-0.00000021,0.04503198,0.739
 02672,-0.00000005,0.00000007,-0.00015201,0.00000013,-0.00000006,-0.000
 08421,0.00000004,0.00000010,-0.00070703,-0.00000005,0.,0.00000313,-0.0
 0000002,-0.00000007,0.00002527,0.00000008,0.,0.00002555,0.,0.,-0.00002
 661,0.,0.,-0.00001843,0.,0.,-0.00000362,0.,0.,0.00003221,-0.00000003,0
 .00000002,0.00115520,-0.00000006,0.00000011,-0.00024470,0.00000084,0.0
 0000099,0.00828501,-0.00000162,0.00000079,-0.00336927,-0.00000645,0.00
 000717,-0.07078758,0.00000050,-0.00000187,0.00790573,0.00000001,-0.000
 00004,-0.00091998,0.00001958,-0.00000989,0.12639798,0.00032851,-0.0006
 9913,0.00000002,-0.00110659,0.00036446,0.00000004,-0.00057234,0.000015
 39,-0.00000010,0.00069892,-0.00008261,-0.00000003,0.00011516,0.0008525
 4,0.,-0.00084896,0.00002472,0.00000001,0.00004118,0.00004155,0.,-0.000
 03676,-0.00003530,0.,-0.00006942,0.00004142,0.,-0.00004042,0.00002688,
 0.,-0.00232138,-0.00192643,-0.00000025,0.00129745,0.00046161,0.,-0.037
 23385,-0.02377120,-0.00000022,0.06092961,0.00404908,0.00000116,-0.0576
 9440,0.05421328,-0.00000295,-0.14455844,-0.01827198,-0.00000064,-0.002
 90708,0.00418594,-0.00000057,-0.35957876,-0.09951022,-0.00000600,0.734
 34390,0.00008311,-0.00022595,0.00000002,-0.00020630,0.00023278,0.00000
 003,0.00016517,-0.00094921,-0.00000004,-0.00000762,0.00013573,0.,0.000
 06227,0.00014760,0.,-0.00024416,0.00011472,0.,0.00001871,0.00000851,0.
 ,-0.00001208,-0.00000830,0.,-0.00003208,0.00001813,0.,-0.00001025,0.00
 001038,0.,-0.00362514,-0.00124726,-0.00000026,0.00081552,0.00023530,0.
 00000002,-0.04078093,-0.03067041,0.00000033,0.06116217,-0.05471276,0.0
 0000266,-0.00145754,0.06852982,-0.00000113,-0.09278433,-0.32435475,0.0
 0000638,0.00340125,-0.00146621,0.00000001,-0.02699207,-0.15014474,0.00
 000016,-0.03159262,0.71573771,0.00000001,-0.00000002,0.00001573,-0.000
 00004,0.,-0.00001382,-0.00000002,0.00000003,0.00020263,0.00000003,0.,0
 .00001262,0.,0.00000003,-0.00001651,-0.00000003,0.,0.00000331,0.,0.,-0
 .00000049,0.,0.,0.00001223,0.,0.,-0.00000219,0.,0.,-0.00000793,0.00000
 005,0.,-0.00018885,0.00000002,-0.00000001,0.00003639,0.00000006,-0.000
 00006,-0.00412838,0.00000011,0.00000145,0.00729527,-0.00000186,0.00000
 021,0.00001288,0.00000098,0.00000818,-0.06419519,-0.00000028,0.0000002
 2,0.00748528,-0.00000609,-0.00000091,-0.05933971,0.00001432,-0.0000163
 1,0.14336357,0.00001118,-0.00007598,0.,-0.00005552,0.00013420,0.,-0.00
 005866,-0.00005565,0.,0.00006134,0.00002940,0.,-0.00000806,0.00007209,
 0.,-0.00008164,0.00001311,0.,0.00000493,0.00000823,0.,-0.00000048,-0.0
 0000682,0.,-0.00001071,0.00000825,0.,-0.00000917,0.00000653,0.,-0.0004
 0269,0.00034609,0.00000002,0.00004968,0.00003646,0.,-0.00054898,0.0038
 9282,-0.00000023,-0.01549131,-0.00932676,-0.00000010,0.00045048,0.0004
 0025,0.00000002,-0.32884957,-0.07359516,-0.00000471,0.00074370,0.00006
 960,0.00000009,0.00159154,-0.00128017,-0.00000007,-0.00335943,0.002172
 78,-0.00000021,0.34598511,0.00000182,0.00001458,0.,0.00001877,-0.00006
 512,0.,0.00006588,0.00005933,-0.00000001,-0.00000727,-0.00004073,0.,0.
 00000972,-0.00000638,0.,0.00001239,-0.00000655,0.,0.00000065,-0.000003
 32,0.,-0.00000025,0.00000124,0.,0.00000260,-0.00000396,0.,0.00000185,-
 0.00000085,0.,0.00032871,-0.00026568,0.,0.00000856,0.00004574,0.,0.002
 73800,-0.00286173,0.00000026,0.02293753,0.00902098,0.00000028,0.000653
 89,-0.00148751,0.00000004,-0.07441521,-0.07789330,-0.00000032,-0.00012
 569,0.00092314,-0.00000010,-0.00036872,-0.00528351,0.00000034,-0.02983
 010,-0.00224576,-0.00000054,0.07850814,0.07820341,0.,0.,0.00000077,0.,
 0.,-0.00001020,-0.00000001,0.,-0.00018163,0.,0.,-0.00000658,0.,0.,0.00
 001665,0.,0.,-0.00000580,0.,0.,0.00000197,0.,0.,-0.00000622,0.,0.,0.00
 000215,0.,0.,0.00000381,0.,0.00000004,-0.00013392,0.,0.,0.00003793,-0.
 00000021,0.00000011,0.00739218,-0.00000075,-0.00000044,0.00177128,0.00
 000004,0.00000010,-0.00066395,-0.00000484,-0.00000047,-0.03375021,0.00
 000007,-0.00000005,-0.00454584,-0.00000033,0.00000037,0.00633235,0.000
 00092,0.00000035,0.00173961,0.00000511,0.00000023,0.02513161,-0.000048
 17,-0.00001549,0.,0.00004118,0.00010384,0.,-0.00005311,-0.00001040,0.,
 -0.00000112,0.00000709,0.,-0.00000929,-0.00000645,0.,0.00000539,0.0000
 1369,0.,0.00000276,-0.00000290,0.,-0.00000619,0.00000051,0.,-0.0000009
 5,0.00000054,0.,-0.00000498,0.00000006,0.,0.00014815,-0.00023197,-0.00
 000004,-0.00025188,0.00013010,0.00000001,-0.00293287,0.00273394,-0.000
 00029,-0.00137641,0.00040977,-0.00000002,0.00925235,0.02217670,-0.0000
 0026,-0.00513238,-0.00054629,-0.00000036,0.00009870,-0.00006655,0.0000
 0003,-0.07796697,-0.07496975,-0.00000047,-0.00212712,-0.02939087,0.000
 00025,-0.00027977,-0.00141319,0.00000007,0.07712718,0.00002698,0.00008
 300,0.,-0.00002370,-0.00012735,0.,0.00009371,0.00003906,0.,-0.00005203
 ,-0.00000894,0.,0.00000739,-0.00006200,0.,0.00006484,-0.00002100,0.,-0
 .00000616,-0.00000124,0.,0.00000742,0.00000485,0.,0.00000950,-0.000005
 13,0.,0.00001072,-0.00000470,0.,0.00014121,0.00026164,0.00000001,0.000
 16436,-0.00021831,0.,0.00380322,-0.00163073,0.00000017,0.00083793,0.00
 053200,-0.00000001,-0.01114089,-0.01670903,-0.00000010,-0.00108443,0.0
 0189808,0.00000002,-0.00004098,-0.00008557,-0.00000001,-0.07344114,-0.
 32767151,0.00000182,0.00163323,-0.00258652,0.00000013,0.00006345,-0.00
 021445,0.,0.08079987,0.34440321,0.,0.,0.00001122,0.,0.00000003,-0.0000
 2586,0.,0.,-0.00000844,0.,0.,-0.00000066,0.,0.,-0.00000371,0.,0.,0.000
 00340,0.,0.,0.00000100,0.,0.,0.00000376,0.,0.,0.00000200,0.,0.,-0.0000
 0142,0.00000004,-0.00000001,-0.00002136,-0.00000004,0.00000002,-0.0000
 6353,-0.00000021,0.00000048,0.00545884,-0.00000049,0.00000003,-0.00087
 674,0.00000091,0.00000037,0.00475512,-0.00000016,-0.00000028,0.0075805
 0,0.00000002,-0.00000001,-0.00071368,-0.00000145,0.00000171,-0.0350192
 4,0.00000041,-0.00000039,0.00249045,-0.00000001,-0.00000003,0.00041021
 ,0.00000055,-0.00000183,0.02469355,0.00001146,-0.00003163,0.,-0.000017
 40,0.00009131,0.,0.00007344,-0.00005574,0.,0.00002030,0.00001012,0.,0.
 00000016,0.00003335,0.,-0.00003925,0.00000853,0.,0.00000144,0.00000404
 ,0.,0.00000311,-0.00000438,0.,-0.00000638,0.00000365,0.,-0.00000399,0.
 00000402,0.,-0.00014572,0.00018656,0.00000003,0.00000620,0.00012893,0.
 ,-0.00064005,-0.00068958,0.00000002,0.00113977,-0.00223865,-0.00000002
 ,-0.00363947,-0.00308539,-0.00000029,0.00891693,-0.00773474,0.00000035
 ,0.00031107,-0.00040007,0.,-0.01485699,0.02348704,-0.00000092,-0.20035
 796,0.14287832,-0.00000696,0.00063655,0.00035076,0.00000006,0.00103803
 ,-0.00014245,0.00000017,0.20893062,0.00002945,0.00001702,0.,-0.0000752
 7,0.00004318,0.,0.00003215,0.00001530,0.,-0.00000269,0.00000034,0.,0.0
 0000999,-0.00000389,0.,0.00000417,-0.00001420,0.,-0.00000504,-0.000002
 36,0.,0.00000514,0.00000259,0.,0.00000493,-0.00000193,0.,0.00000643,-0
 .00000373,0.,0.00010877,-0.00004901,0.,-0.00004316,0.00000924,0.,-0.00
 101129,0.00004200,-0.00000006,-0.00273617,-0.00514355,0.00000026,-0.00
 274403,0.00050393,0.00000010,0.02355540,-0.01380294,0.00000096,0.00111
 561,-0.00097018,0.00000003,-0.00811645,0.00858280,-0.00000024,0.143462
 01,-0.20480664,0.00000728,-0.00018296,0.00105484,-0.00000012,0.0002115
 6,0.00072586,-0.00000011,-0.15356060,0.21324979,0.,0.,-0.00002093,-0.0
 0000001,0.,-0.00009501,0.,-0.00000001,0.00010513,0.,0.,0.00001528,0.,0
 .,-0.00000744,0.,0.,0.00000200,0.,0.,0.00000167,0.,0.,-0.00000525,0.,0
 .,-0.00000062,0.,0.,0.00000836,0.,0.00000003,-0.00012842,0.00000001,-0
 .00000001,0.00021459,0.00000004,-0.00000007,-0.00105815,0.00000020,0.0
 0000027,0.00663250,-0.00000037,0.00000004,0.00870546,-0.00000063,0.000
 00062,0.00453003,-0.00000005,0.00000004,-0.00019955,-0.00000044,0.0000
 0030,0.00464191,-0.00000689,0.00000703,-0.04061100,0.00000011,-0.00000
 012,-0.00367902,0.00000018,-0.00000007,-0.00469059,0.00000769,-0.00000
 804,0.02683894,-0.00406190,-0.00624356,0.00000006,-0.00333336,0.016545
 52,0.00000048,-0.09047960,0.05259765,0.00000379,0.01593202,-0.00554180
 ,-0.00000033,-0.00273479,0.01063366,-0.00000004,-0.00581926,-0.0052044
 9,0.00000018,0.00032844,-0.00107842,0.,-0.00049441,-0.00006383,0.00000
 003,0.00022138,0.00003803,-0.00000002,-0.00076502,-0.00001053,0.000000
 02,-0.44581726,-0.05346303,0.00001525,-0.04796850,-0.02996069,-0.00000
 064,-0.16049277,0.07247336,0.00000036,-0.04345183,0.02837358,0.,0.0283
 3722,0.01437035,0.00000117,0.00001891,-0.01371024,0.00000042,0.0009777
 0,0.00084192,-0.00000006,-0.00301559,-0.00163855,0.00000010,0.00390788
 ,0.00439878,-0.00000005,-0.00039315,0.00078548,-0.00000008,0.00049375,
 -0.00112561,0.00000004,0.00024415,0.00001127,-0.00000001,0.77350180,0.
 00175419,-0.00192240,-0.00000030,0.02953414,-0.03101165,-0.00000130,0.
 02069436,0.00438946,-0.00000113,0.00678809,-0.00975336,-0.00000030,-0.
 00128169,0.00548068,0.00000002,-0.00309928,-0.00417061,0.00000015,0.00
 010754,-0.00082859,0.,-0.00044992,0.00014477,0.00000002,0.00023987,-0.
 00043033,0.00000002,-0.00037924,0.00008950,0.00000004,-0.07120733,-0.1
 2229220,0.00000194,-0.00640639,-0.13556550,-0.00000149,0.07099691,-0.1
 8720209,-0.00000123,0.01443437,0.01117824,-0.00000020,0.01575942,-0.03
 413429,-0.00000082,-0.00809256,0.00980105,-0.00000047,-0.00253207,-0.0
 0079129,0.00000006,0.00049577,-0.00702172,0.00000004,-0.00640743,-0.00
 555956,0.,-0.00120731,0.00082155,-0.00000005,0.00115354,-0.00034019,0.
 00000013,-0.00029792,0.00007579,0.,-0.06443685,0.50574237,0.00000009,0
 .00000016,0.00053070,0.00000077,-0.00000018,0.00471439,0.00000250,-0.0
 0000159,0.00381167,-0.00000045,0.00000009,0.00306483,0.00000006,-0.000
 00033,0.00063043,0.00000021,0.00000013,0.00091598,0.,0.,-0.00050712,0.
 ,0.,-0.00035212,-0.00000001,-0.00000001,-0.00048415,0.,0.,-0.00008441,
 0.00001374,0.00000190,-0.06372778,-0.00000046,-0.00000107,-0.03810569,
 0.00000238,-0.00000350,-0.05351302,0.00000031,0.00000028,-0.00210382,-
 0.00000063,0.00000076,0.00324557,-0.00000040,0.00000024,0.00659715,0.0
 0000003,-0.00000009,-0.00339825,0.00000013,0.00000016,0.00490015,-0.00
 000012,-0.00000025,-0.00101073,-0.00000006,0.00000006,0.00090390,0.,0.
 00000005,-0.00000307,0.00000001,-0.00000002,-0.00076438,-0.00001799,0.
 00000413,0.13604560,-0.00027433,0.00192354,-0.00000006,0.00151516,0.00
 099839,0.00000001,0.00827604,-0.00116096,0.00000016,-0.00186358,0.0003
 9593,0.00000009,-0.00015702,-0.00196043,0.,0.00184616,0.00023221,-0.00
 000004,-0.00015687,0.00014491,0.,0.00025615,-0.00003735,0.,0.00003465,
 -0.00002161,0.,0.00005870,0.00003482,0.,0.00555499,0.02456111,0.000002
 70,-0.00054060,0.00033784,-0.00000011,-0.01515724,-0.03108615,-0.00000
 243,-0.00696863,0.00300166,-0.00000055,-0.33459134,-0.09482081,-0.0000
 1507,-0.00421568,-0.01377246,0.00000026,-0.00094818,-0.00052231,0.0000
 0006,-0.06734592,0.00082024,-0.00000544,0.01317406,0.01163382,-0.00000
 013,-0.00004742,-0.00026719,-0.00000003,0.00219505,-0.00074078,0.00000
 024,-0.00147676,0.00009589,0.00000012,-0.02193818,0.01302791,0.0000005
 7,0.57057638,-0.00054905,-0.00027986,0.00000012,0.00046948,-0.00215968
 ,-0.00000002,-0.00720059,-0.00095440,-0.00000076,-0.00017539,-0.000286
 19,0.,0.00032840,0.00003446,0.00000001,0.00006156,-0.00005297,-0.00000
 001,0.00009316,-0.00020834,0.,0.00004142,0.00012318,-0.00000003,0.0001
 0733,-0.00009409,0.,0.00006308,-0.00006415,0.,0.01354376,-0.02710405,-
 0.00000238,-0.00087134,-0.00237567,0.,-0.04762549,-0.01285381,-0.00000
 217,0.00829109,-0.00709090,0.00000016,-0.05939393,-0.14002745,-0.00000
 007,-0.00267919,0.00609727,-0.00000021,-0.00168286,-0.00040854,0.00000
 008,0.03792465,0.01988969,0.00000107,-0.00148545,-0.01031531,0.0000001
 7,-0.00008714,0.00041402,-0.00000002,-0.00142040,0.00190332,-0.0000000
 5,0.00154849,0.00045345,0.,0.00376293,0.00535373,0.00000009,-0.0762920
 7,0.46493013,-0.00000004,0.00000006,-0.00012474,0.00000010,0.00000003,
 -0.00004898,0.00000034,-0.00000048,0.00110189,-0.00000015,0.00000004,0
 .00009584,0.00000002,-0.00000012,-0.00004182,0.00000009,0.00000005,0.0
 0003756,0.,0.,-0.00000809,0.,0.,-0.00001150,0.,0.,-0.00001431,0.,0.,-0
 .00000471,0.00000127,0.00000031,0.00365422,-0.00000018,-0.00000033,-0.
 00043374,-0.00000033,-0.00000087,0.01258368,-0.00000129,0.00000014,0.0
 0674200,-0.00001948,-0.00000464,-0.05303818,0.00000017,-0.00000127,-0.
 00100722,-0.00000011,-0.00000003,0.00026395,-0.00000550,-0.00000033,0.
 00859101,0.00000076,0.00000130,0.00502507,0.,-0.00000006,-0.00071201,0
 .00000032,-0.00000016,-0.00349381,-0.00000015,-0.00000002,-0.00016531,
 -0.00000171,0.00000143,-0.00340197,0.00004436,-0.00002483,0.04254723,0
 .00002359,-0.00050518,-0.00000001,-0.00091789,-0.00011869,0.00000002,-
 0.00229369,0.00236509,0.00000024,0.00070761,-0.00003881,-0.00000007,0.
 00000279,0.00040502,-0.00000002,-0.00041030,-0.00005542,0.,0.00004545,
 -0.00003842,0.,-0.00030756,0.00002684,0.00000003,0.00001586,-0.0000072
 4,0.,-0.00001172,-0.00004202,0.,-0.01137486,-0.00513246,-0.00000158,-0
 .00118424,-0.00194269,0.00000027,0.00080898,0.00375178,0.00000046,0.00
 027944,0.00096798,0.00000007,-0.04947246,0.03224235,-0.00000572,0.0007
 3104,0.00153797,0.,0.00054744,0.00026268,0.,-0.00031001,-0.00479411,-0
 .00000010,-0.00202376,0.00034410,-0.00000018,0.00006206,0.00000289,0.,
 -0.00021134,0.00013434,0.,-0.00014927,-0.00017509,0.00000005,0.0068023
 9,-0.00918813,-0.00000069,-0.14780559,0.13322753,-0.00001849,0.2064460
 2,0.00041542,0.00095133,-0.00000014,0.00066084,0.00339198,-0.00000009,
 0.01190686,-0.00243421,0.00000066,-0.00084233,0.00102941,0.00000010,-0
 .00048290,-0.00089488,0.,0.00058624,0.00038287,0.,-0.00015997,0.000316
 45,-0.00000001,0.00014443,-0.00019410,0.00000002,-0.00016156,0.0001404
 1,0.,-0.00006684,0.00010592,0.,-0.00425263,0.00523633,0.00000398,0.001
 17732,0.00440473,-0.00000041,-0.00020046,-0.00695163,0.,-0.00347738,-0
 .00032669,-0.00000003,0.01633854,0.02064049,0.00000006,-0.00028692,-0.
 00529278,0.00000012,-0.00056444,-0.00024155,0.00000001,-0.01275888,0.0
 0140262,-0.00000052,0.00424039,0.00412270,0.00000014,0.00005658,-0.000
 17997,-0.00000003,0.00033303,-0.00016434,-0.00000004,-0.00049397,0.000
 02231,0.,-0.02235493,-0.00205335,-0.00000103,0.16347385,-0.29492384,0.
 00002976,-0.15323032,0.27150980,0.00000013,0.00000011,0.00022128,-0.00
 000012,0.00000049,0.00029686,0.00000119,0.00000043,-0.00103780,0.,0.00
 000005,-0.00021399,-0.00000006,0.,0.00001114,0.,0.,-0.00004723,-0.0000
 0002,0.00000005,0.00002614,0.00000007,-0.00000005,0.00005930,-0.000000
 02,0.00000002,0.00001870,0.,0.00000001,-0.00000549,-0.00000166,-0.0000
 0009,-0.00828563,0.00000037,0.00000070,0.00086904,0.00000062,-0.000000
 30,-0.00188593,0.,0.00000019,-0.00034252,-0.00000025,0.00000300,-0.000
 74383,-0.00000011,-0.00000011,-0.00013342,0.00000004,0.00000001,-0.000
 04545,-0.00000035,-0.00000018,0.00237689,0.00000012,0.00000011,0.00181
 977,0.00000002,-0.00000001,-0.00004905,0.00000002,-0.00000004,-0.00048
 794,0.,-0.00000002,-0.00027021,-0.00000098,-0.00000068,0.00209615,-0.0
 0002474,0.00002886,-0.01813605,0.00002573,-0.00003255,0.02388927\\-0.0
 0058174,0.00032721,0.00000037,0.00054046,0.00111784,0.00000117,0.00120
 324,0.00023536,-0.00000059,0.00036739,-0.00053608,-0.00000036,-0.00026
 352,-0.00128865,0.00000014,-0.00074539,-0.00063656,0.00000016,-0.00014
 676,0.00006352,-0.00000009,0.00013004,-0.00008501,0.00000004,-0.000014
 74,-0.00014297,0.,-0.00007488,-0.00010006,-0.00000011,-0.00023891,0.00
 163152,-0.00000499,0.00082220,0.00334257,-0.00000187,-0.00062500,0.001
 04446,0.00000048,0.00129266,-0.00078496,0.00000185,0.00092299,0.000712
 89,-0.00000357,-0.00032495,-0.00026713,0.00000005,0.00010324,-0.000063
 69,-0.00000025,-0.00094554,-0.00016063,-0.00000060,-0.00114009,-0.0010
 7025,-0.00000011,-0.00000125,-0.00015688,-0.00000024,-0.00016939,0.000
 04821,0.00000013,-0.00010369,-0.00007024,0.00000021,0.00011137,-0.0004
 4406,0.00000349,-0.00061236,-0.00067595,-0.00000085,0.00049462,-0.0020
 4045,0.00000553\\\@
 The archive entry for this job was punched.


 FROM AN ANONYMOUS WRITER, ON PERSPECTIVE:

 MAN, DESPITE HIS ARTISTIC PRETENSIONS, HIS SOPHISTICATION AND MANY 
 ACCOMPLISHMENTS, OWES THE FACT OF HIS EXISTENCE TO A SIX-INCH LAYER OF 
 TOPSOIL AND THE FACT THAT IT RAINS.
 Job cpu time:       0 days  0 hours 58 minutes 41.6 seconds.
 Elapsed time:       0 days  0 hours  5 minutes 54.3 seconds.
 File lengths (MBytes):  RWF=    544 Int=      0 D2E=      0 Chk=     40 Scr=      8
 Normal termination of Gaussian 16 at Wed Oct 28 00:48:13 2020.
