 Entering Gaussian System, Link 0=g16
 Initial command:
 /gpfs/loomis/apps/avx/software/Gaussian/16-C.01_AVX/g16/l1.exe "/home/fas/batista/pev4/scratch60/gauss-scratch/Gau-120068.inp" -scrdir="/home/fas/batista/pev4/scratch60/gauss-scratch/"
 Entering Link 1 = /gpfs/loomis/apps/avx/software/Gaussian/16-C.01_AVX/g16/l1.exe PID=    120069.
  
 Copyright (c) 1988-2019, Gaussian, Inc.  All Rights Reserved.
  
 This is part of the Gaussian(R) 16 program.  It is based on
 the Gaussian(R) 09 system (copyright 2009, Gaussian, Inc.),
 the Gaussian(R) 03 system (copyright 2003, Gaussian, Inc.),
 the Gaussian(R) 98 system (copyright 1998, Gaussian, Inc.),
 the Gaussian(R) 94 system (copyright 1995, Gaussian, Inc.),
 the Gaussian 92(TM) system (copyright 1992, Gaussian, Inc.),
 the Gaussian 90(TM) system (copyright 1990, Gaussian, Inc.),
 the Gaussian 88(TM) system (copyright 1988, Gaussian, Inc.),
 the Gaussian 86(TM) system (copyright 1986, Carnegie Mellon
 University), and the Gaussian 82(TM) system (copyright 1983,
 Carnegie Mellon University). Gaussian is a federally registered
 trademark of Gaussian, Inc.
  
 This software contains proprietary and confidential information,
 including trade secrets, belonging to Gaussian, Inc.
  
 This software is provided under written license and may be
 used, copied, transmitted, or stored only in accord with that
 written license.
  
 The following legend is applicable only to US Government
 contracts under FAR:
  
                    RESTRICTED RIGHTS LEGEND
  
 Use, reproduction and disclosure by the US Government is
 subject to restrictions as set forth in subparagraphs (a)
 and (c) of the Commercial Computer Software - Restricted
 Rights clause in FAR 52.227-19.
  
 Gaussian, Inc.
 340 Quinnipiac St., Bldg. 40, Wallingford CT 06492
  
  
 ---------------------------------------------------------------
 Warning -- This program may not be used in any manner that
 competes with the business of Gaussian, Inc. or will provide
 assistance to any competitor of Gaussian, Inc.  The licensee
 of this program is prohibited from giving any competitor of
 Gaussian, Inc. access to this program.  By using this program,
 the user acknowledges that Gaussian, Inc. is engaged in the
 business of creating and licensing software in the field of
 computational chemistry and represents and warrants to the
 licensee that it is not a competitor of Gaussian, Inc. and that
 it will not use this program in any manner prohibited above.
 ---------------------------------------------------------------
  

 Cite this work as:
 Gaussian 16, Revision C.01,
 M. J. Frisch, G. W. Trucks, H. B. Schlegel, G. E. Scuseria, 
 M. A. Robb, J. R. Cheeseman, G. Scalmani, V. Barone, 
 G. A. Petersson, H. Nakatsuji, X. Li, M. Caricato, A. V. Marenich, 
 J. Bloino, B. G. Janesko, R. Gomperts, B. Mennucci, H. P. Hratchian, 
 J. V. Ortiz, A. F. Izmaylov, J. L. Sonnenberg, D. Williams-Young, 
 F. Ding, F. Lipparini, F. Egidi, J. Goings, B. Peng, A. Petrone, 
 T. Henderson, D. Ranasinghe, V. G. Zakrzewski, J. Gao, N. Rega, 
 G. Zheng, W. Liang, M. Hada, M. Ehara, K. Toyota, R. Fukuda, 
 J. Hasegawa, M. Ishida, T. Nakajima, Y. Honda, O. Kitao, H. Nakai, 
 T. Vreven, K. Throssell, J. A. Montgomery, Jr., J. E. Peralta, 
 F. Ogliaro, M. J. Bearpark, J. J. Heyd, E. N. Brothers, K. N. Kudin, 
 V. N. Staroverov, T. A. Keith, R. Kobayashi, J. Normand, 
 K. Raghavachari, A. P. Rendell, J. C. Burant, S. S. Iyengar, 
 J. Tomasi, M. Cossi, J. M. Millam, M. Klene, C. Adamo, R. Cammi, 
 J. W. Ochterski, R. L. Martin, K. Morokuma, O. Farkas, 
 J. B. Foresman, and D. J. Fox, Gaussian, Inc., Wallingford CT, 2019.
 
 ******************************************
 Gaussian 16:  ES64L-G16RevC.01  3-Jul-2019
                27-Oct-2020 
 ******************************************
 %chk=config_5_4.chk
 %mem=58GB
 %nprocshared=10
 Will use up to   10 processors via shared memory.
 ----------------------------------------------------------------------
 #p opt=addgic freq wb97xd/cc-pvdz nosymm int=ultrafine scrf=(solvent=C
 arbonTetraChloride)
 ----------------------------------------------------------------------
 1/18=20,19=15,26=6,38=1,145=903/1,3;
 2/9=110,12=2,15=1,17=6,18=5,40=1/2;
 3/5=16,11=2,25=1,30=1,70=2201,71=1,72=11,74=-58,75=-5/1,2,3;
 4//1;
 5/5=2,38=5,53=11/2;
 6/7=2,8=2,9=2,10=2,28=1/1;
 7/30=1/1,2,3,16;
 1/18=20,19=15,26=6,145=903/3(2);
 2/9=110,15=1/2;
 99//99;
 2/9=110,15=1/2;
 3/5=16,11=2,25=1,30=1,70=2205,71=1,72=11,74=-58,75=-5/1,2,3;
 4/5=5,16=3,69=1/1;
 5/5=2,38=5,53=11/2;
 7/30=1/1,2,3,16;
 1/18=20,19=15,26=6,145=903/3(-5);
 2/9=110,15=1/2;
 6/7=2,8=2,9=2,10=2,19=2,28=1/1;
 99/9=1/99;
 Leave Link    1 at Tue Oct 27 21:21:46 2020, MaxMem=  7784628224 cpu:               5.8 elap:               0.9
 (Enter /gpfs/loomis/apps/avx/software/Gaussian/16-C.01_AVX/g16/l101.exe)
 ------------------------------------------------
 NM 2D-scan of HBT TD-WB97XD pVDZ in CTC Relaxed.
 ------------------------------------------------
 Symbolic Z-matrix:
 Charge =  0 Multiplicity = 1
 C                     1.71915  -3.27147  -0.00002 
 C                     0.9986   -2.07777  -0.00002 
 C                     1.67407  -0.82173  -0.00002 
 C                     3.09008  -0.77909  -0.00002 
 C                     3.7898   -1.97093  -0.00002 
 C                     3.11596  -3.20922  -0.00002 
 H                     1.20823  -4.23665  -0.00002 
 H                     3.59482   0.18922  -0.00002 
 H                     4.88197  -1.95599  -0.00002 
 H                     3.69205  -4.13662  -0.00003 
 N                     0.87283   0.24727  -0.00002 
 S                    -0.74489  -1.81238  -0.00002 
 C                    -1.40123   1.0057    0. 
 C                    -2.80917   0.87038  -0.00001 
 C                    -0.87584   2.39568   0.00003 
 C                    -3.64329   1.99104   0.00002 
 H                    -3.24802  -0.12978  -0.00004 
 C                    -1.75183   3.49889   0.00006 
 C                    -3.12848   3.30782   0.00006 
 H                    -4.72525   1.84219   0.00002 
 H                    -1.30125   4.49309   0.00009 
 H                    -3.80633   4.16242   0.00009 
 C                    -0.45214  -0.04995  -0.00001 
 O                     0.40818   2.61681   0.00003 
 H                     0.85103   1.71228   0.00001 
 
 Initializing the GIC definitions file.
 Number of initial coordinates =   131
 Number of input entries/lines =    52
 Number of additional coordinates =     2
 Number of removed coordinates =     0
 Number of frozen coordinates =     2
 Number of final active and frozen coordinates =   133
 ITRead=  0  0  0  0  0  0  0  0  0  0  0  0  0  0  0  0  0  0  0  0
 ITRead=  0  0  0  0  0
 MicOpt= -1 -1 -1 -1 -1 -1 -1 -1 -1 -1 -1 -1 -1 -1 -1 -1 -1 -1 -1 -1
 MicOpt= -1 -1 -1 -1 -1
 NAtoms=     25 NQM=       25 NQMF=       0 NMMI=      0 NMMIF=      0
                NMic=       0 NMicF=      0.
                    Isotopes and Nuclear Properties:
 (Nuclear quadrupole moments (NQMom) in fm**2, nuclear magnetic moments (NMagM)
  in nuclear magnetons)

  Atom         1           2           3           4           5           6           7           8           9          10
 IAtWgt=          12          12          12          12          12          12           1           1           1           1
 AtmWgt=  12.0000000  12.0000000  12.0000000  12.0000000  12.0000000  12.0000000   1.0078250   1.0078250   1.0078250   1.0078250
 NucSpn=           0           0           0           0           0           0           1           1           1           1
 AtZEff=  -0.0000000  -0.0000000  -0.0000000  -0.0000000  -0.0000000  -0.0000000  -0.0000000  -0.0000000  -0.0000000  -0.0000000
 NQMom=    0.0000000   0.0000000   0.0000000   0.0000000   0.0000000   0.0000000   0.0000000   0.0000000   0.0000000   0.0000000
 NMagM=    0.0000000   0.0000000   0.0000000   0.0000000   0.0000000   0.0000000   2.7928460   2.7928460   2.7928460   2.7928460
 AtZNuc=   6.0000000   6.0000000   6.0000000   6.0000000   6.0000000   6.0000000   1.0000000   1.0000000   1.0000000   1.0000000

  Atom        11          12          13          14          15          16          17          18          19          20
 IAtWgt=          14          32          12          12          12          12           1          12          12           1
 AtmWgt=  14.0030740  31.9720718  12.0000000  12.0000000  12.0000000  12.0000000   1.0078250  12.0000000  12.0000000   1.0078250
 NucSpn=           2           0           0           0           0           0           1           0           0           1
 AtZEff=  -0.0000000  -0.0000000  -0.0000000  -0.0000000  -0.0000000  -0.0000000  -0.0000000  -0.0000000  -0.0000000  -0.0000000
 NQMom=    2.0440000   0.0000000   0.0000000   0.0000000   0.0000000   0.0000000   0.0000000   0.0000000   0.0000000   0.0000000
 NMagM=    0.4037610   0.0000000   0.0000000   0.0000000   0.0000000   0.0000000   2.7928460   0.0000000   0.0000000   2.7928460
 AtZNuc=   7.0000000  16.0000000   6.0000000   6.0000000   6.0000000   6.0000000   1.0000000   6.0000000   6.0000000   1.0000000

  Atom        21          22          23          24          25
 IAtWgt=           1           1          12          16           1
 AtmWgt=   1.0078250   1.0078250  12.0000000  15.9949146   1.0078250
 NucSpn=           1           1           0           0           1
 AtZEff=  -0.0000000  -0.0000000  -0.0000000  -0.0000000  -0.0000000
 NQMom=    0.0000000   0.0000000   0.0000000   0.0000000   0.0000000
 NMagM=    2.7928460   2.7928460   0.0000000   0.0000000   2.7928460
 AtZNuc=   1.0000000   1.0000000   6.0000000   8.0000000   1.0000000
 Leave Link  101 at Tue Oct 27 21:21:53 2020, MaxMem=  7784628224 cpu:              37.9 elap:               6.4
 (Enter /gpfs/loomis/apps/avx/software/Gaussian/16-C.01_AVX/g16/l103.exe)

 GradGradGradGradGradGradGradGradGradGradGradGradGradGradGradGradGradGrad
 Berny optimization.
 Initialization pass.
                           ----------------------------
                           !    Initial Parameters    !
                           ! (Angstroms and Degrees)  !
 --------------------------                            --------------------------
 ! Name  Definition              Value          Derivative Info.                !
 --------------------------------------------------------------------------------
 ! R1    R(1,2)                  1.3943         estimate D2E/DX2                !
 ! R2    R(1,6)                  1.3982         estimate D2E/DX2                !
 ! R3    R(1,7)                  1.0921         estimate D2E/DX2                !
 ! R4    R(2,3)                  1.4261         estimate D2E/DX2                !
 ! R5    R(2,12)                 1.7636         estimate D2E/DX2                !
 ! R6    R(3,4)                  1.4167         estimate D2E/DX2                !
 ! R7    R(3,11)                 1.336          estimate D2E/DX2                !
 ! R8    R(4,5)                  1.3821         estimate D2E/DX2                !
 ! R9    R(4,8)                  1.092          estimate D2E/DX2                !
 ! R10   R(5,6)                  1.4098         estimate D2E/DX2                !
 ! R11   R(5,9)                  1.0923         estimate D2E/DX2                !
 ! R12   R(6,10)                 1.0918         estimate D2E/DX2                !
 ! R13   R(11,23)                1.3579         estimate D2E/DX2                !
 ! R14   R(12,23)                1.7866         estimate D2E/DX2                !
 ! R15   R(13,14)                1.4144         estimate D2E/DX2                !
 ! R16   R(13,15)                1.486          estimate D2E/DX2                !
 ! R17   R(13,23)                1.4196         estimate D2E/DX2                !
 ! R18   R(14,16)                1.397          estimate D2E/DX2                !
 ! R19   R(14,17)                1.0922         estimate D2E/DX2                !
 ! R20   R(15,18)                1.4087         estimate D2E/DX2                !
 ! R21   R(15,24)                1.3029         estimate D2E/DX2                !
 ! R22   R(16,19)                1.4138         estimate D2E/DX2                !
 ! R23   R(16,20)                1.0922         estimate D2E/DX2                !
 ! R24   R(18,19)                1.3898         estimate D2E/DX2                !
 ! R25   R(18,21)                1.0915         estimate D2E/DX2                !
 ! R26   R(19,22)                1.0908         estimate D2E/DX2                !
 ! R27   R(24,25)                1.0071         estimate D2E/DX2                !
 ! A1    A(2,1,6)              118.5646         estimate D2E/DX2                !
 ! A2    A(2,1,7)              120.9889         estimate D2E/DX2                !
 ! A3    A(6,1,7)              120.4464         estimate D2E/DX2                !
 ! A4    A(1,2,3)              120.6134         estimate D2E/DX2                !
 ! A5    A(1,2,12)             129.7712         estimate D2E/DX2                !
 ! A6    A(3,2,12)             109.6154         estimate D2E/DX2                !
 ! A7    A(2,3,4)              119.995          estimate D2E/DX2                !
 ! A8    A(2,3,11)             114.8772         estimate D2E/DX2                !
 ! A9    A(4,3,11)             125.1278         estimate D2E/DX2                !
 ! A10   A(3,4,5)              118.6921         estimate D2E/DX2                !
 ! A11   A(3,4,8)              119.2557         estimate D2E/DX2                !
 ! A12   A(5,4,8)              122.0522         estimate D2E/DX2                !
 ! A13   A(4,5,6)              121.0298         estimate D2E/DX2                !
 ! A14   A(4,5,9)              119.6329         estimate D2E/DX2                !
 ! A15   A(6,5,9)              119.3374         estimate D2E/DX2                !
 ! A16   A(1,6,5)              121.1052         estimate D2E/DX2                !
 ! A17   A(1,6,10)             119.2965         estimate D2E/DX2                !
 ! A18   A(5,6,10)             119.5984         estimate D2E/DX2                !
 ! A19   A(3,11,23)            114.2089         estimate D2E/DX2                !
 ! A20   A(2,12,23)             89.2241         estimate D2E/DX2                !
 ! A21   A(14,13,15)           116.1958         estimate D2E/DX2                !
 ! A22   A(14,13,23)           126.4675         estimate D2E/DX2                !
 ! A23   A(15,13,23)           117.3367         estimate D2E/DX2                !
 ! A24   A(13,14,16)           121.1707         estimate D2E/DX2                !
 ! A25   A(13,14,17)           119.1808         estimate D2E/DX2                !
 ! A26   A(16,14,17)           119.6485         estimate D2E/DX2                !
 ! A27   A(13,15,18)           120.8432         estimate D2E/DX2                !
 ! A28   A(13,15,24)           120.4775         estimate D2E/DX2                !
 ! A29   A(18,15,24)           118.6794         estimate D2E/DX2                !
 ! A30   A(14,16,19)           121.9859         estimate D2E/DX2                !
 ! A31   A(14,16,20)           118.8275         estimate D2E/DX2                !
 ! A32   A(19,16,20)           119.1867         estimate D2E/DX2                !
 ! A33   A(15,18,19)           120.5493         estimate D2E/DX2                !
 ! A34   A(15,18,21)           117.1685         estimate D2E/DX2                !
 ! A35   A(19,18,21)           122.2822         estimate D2E/DX2                !
 ! A36   A(16,19,18)           119.2552         estimate D2E/DX2                !
 ! A37   A(16,19,22)           120.2255         estimate D2E/DX2                !
 ! A38   A(18,19,22)           120.5193         estimate D2E/DX2                !
 ! A39   A(11,23,12)           112.0745         estimate D2E/DX2                !
 ! A40   A(11,23,13)           119.3138         estimate D2E/DX2                !
 ! A41   A(12,23,13)           128.6117         estimate D2E/DX2                !
 ! A42   A(15,24,25)           106.3142         estimate D2E/DX2                !
 ! D1    D(6,1,2,3)              0.0            estimate D2E/DX2                !
 ! D2    D(6,1,2,12)          -179.9999         estimate D2E/DX2                !
 ! D3    D(7,1,2,3)            180.0            estimate D2E/DX2                !
 ! D4    D(7,1,2,12)             0.0            estimate D2E/DX2                !
 ! D5    D(2,1,6,5)              0.0            estimate D2E/DX2                !
 ! D6    D(2,1,6,10)           180.0            estimate D2E/DX2                !
 ! D7    D(7,1,6,5)           -179.9999         estimate D2E/DX2                !
 ! D8    D(7,1,6,10)             0.0001         estimate D2E/DX2                !
 ! D9    D(1,2,3,4)             -0.0001         estimate D2E/DX2                !
 ! D10   D(1,2,3,11)           179.9999         estimate D2E/DX2                !
 ! D11   D(12,2,3,4)           179.9999         estimate D2E/DX2                !
 ! D12   D(12,2,3,11)           -0.0001         estimate D2E/DX2                !
 ! D13   D(1,2,12,23)          179.9999         estimate D2E/DX2                !
 ! D14   D(3,2,12,23)            0.0            estimate D2E/DX2                !
 ! D15   D(2,3,4,5)              0.0            estimate D2E/DX2                !
 ! D16   D(2,3,4,8)           -180.0            estimate D2E/DX2                !
 ! D17   D(11,3,4,5)          -180.0            estimate D2E/DX2                !
 ! D18   D(11,3,4,8)             0.0            estimate D2E/DX2                !
 ! D19   D(2,3,11,23)            0.0002         estimate D2E/DX2                !
 ! D20   D(4,3,11,23)         -179.9998         estimate D2E/DX2                !
 ! D21   D(3,4,5,6)              0.0            estimate D2E/DX2                !
 ! D22   D(3,4,5,9)           -180.0            estimate D2E/DX2                !
 ! D23   D(8,4,5,6)           -180.0            estimate D2E/DX2                !
 ! D24   D(8,4,5,9)              0.0            estimate D2E/DX2                !
 ! D25   D(4,5,6,1)              0.0            estimate D2E/DX2                !
 ! D26   D(4,5,6,10)          -180.0            estimate D2E/DX2                !
 ! D27   D(9,5,6,1)            180.0            estimate D2E/DX2                !
 ! D28   D(9,5,6,10)             0.0            estimate D2E/DX2                !
 ! D29   D(3,11,23,12)          -0.0002         estimate D2E/DX2                !
 ! D30   D(3,11,23,13)         179.9994         estimate D2E/DX2                !
 ! D31   D(2,12,23,11)           0.0001         estimate D2E/DX2                !
 ! D32   D(2,12,23,13)        -179.9994         estimate D2E/DX2                !
 ! D33   D(15,13,14,16)         -0.0005         estimate D2E/DX2                !
 ! D34   D(15,13,14,17)        179.9996         estimate D2E/DX2                !
 ! D35   D(23,13,14,16)        179.9993         estimate D2E/DX2                !
 ! D36   D(23,13,14,17)         -0.0005         estimate D2E/DX2                !
 ! D37   D(14,13,15,18)          0.0006         estimate D2E/DX2                !
 ! D38   D(14,13,15,24)       -179.9995         estimate D2E/DX2                !
 ! D39   D(23,13,15,18)       -179.9993         estimate D2E/DX2                !
 ! D40   D(23,13,15,24)          0.0006         estimate D2E/DX2                !
 ! D41   D(14,13,23,11)        179.9993         estimate D2E/DX2                !
 ! D42   D(14,13,23,12)         -0.0012         estimate D2E/DX2                !
 ! D43   D(15,13,23,11)         -0.0009         estimate D2E/DX2                !
 ! D44   D(15,13,23,12)        179.9987         estimate D2E/DX2                !
 ! D45   D(13,14,16,19)          0.0001         estimate D2E/DX2                !
 ! D46   D(13,14,16,20)       -179.9998         estimate D2E/DX2                !
 ! D47   D(17,14,16,19)        180.0            estimate D2E/DX2                !
 ! D48   D(17,14,16,20)          0.0            estimate D2E/DX2                !
 ! D49   D(13,15,18,19)         -0.0002         estimate D2E/DX2                !
 ! D50   D(13,15,18,21)        179.9998         estimate D2E/DX2                !
 ! D51   D(24,15,18,19)        179.9999         estimate D2E/DX2                !
 ! D52   D(24,15,18,21)         -0.0001         estimate D2E/DX2                !
 ! D53   D(13,15,24,25)         -0.0002         estimate D2E/DX2                !
 ! D54   D(18,15,24,25)        179.9997         estimate D2E/DX2                !
 ! D55   D(14,16,19,18)          0.0003         estimate D2E/DX2                !
 ! D56   D(14,16,19,22)       -179.9998         estimate D2E/DX2                !
 ! D57   D(20,16,19,18)       -179.9998         estimate D2E/DX2                !
 ! D58   D(20,16,19,22)          0.0002         estimate D2E/DX2                !
 ! D59   D(15,18,19,16)         -0.0002         estimate D2E/DX2                !
 ! D60   D(15,18,19,22)        179.9999         estimate D2E/DX2                !
 ! D61   D(21,18,19,16)        179.9998         estimate D2E/DX2                !
 ! D62   D(21,18,19,22)         -0.0001         estimate D2E/DX2                !
 ! Qtot  GIC-1                  -10.0           Frozen                          !
 ! Ptot  GIC-2                 -80.0            Frozen                          !
 --------------------------------------------------------------------------------
 NOTE: GIC-type coordinates are in arbitrary units.
 Trust Radius=3.00D-01 FncErr=5.00D-06 GrdErr=5.00D-06 EigMax=2.50D+02 EigMin=1.00D-04
 Number of steps in this run=    143 maximum allowed number of steps=    150.
 GradGradGradGradGradGradGradGradGradGradGradGradGradGradGradGradGradGrad

 Leave Link  103 at Tue Oct 27 21:21:53 2020, MaxMem=  7784628224 cpu:               0.2 elap:               0.0
 (Enter /gpfs/loomis/apps/avx/software/Gaussian/16-C.01_AVX/g16/l202.exe)
                          Input orientation:                          
 ---------------------------------------------------------------------
 Center     Atomic      Atomic             Coordinates (Angstroms)
 Number     Number       Type             X           Y           Z
 ---------------------------------------------------------------------
      1          6           0        1.719155   -3.271471   -0.000024
      2          6           0        0.998605   -2.077768   -0.000021
      3          6           0        1.674073   -0.821729   -0.000020
      4          6           0        3.090083   -0.779093   -0.000020
      5          6           0        3.789797   -1.970929   -0.000022
      6          6           0        3.115960   -3.209223   -0.000024
      7          1           0        1.208233   -4.236646   -0.000024
      8          1           0        3.594823    0.189223   -0.000018
      9          1           0        4.881968   -1.955986   -0.000022
     10          1           0        3.692050   -4.136621   -0.000026
     11          7           0        0.872828    0.247274   -0.000018
     12         16           0       -0.744888   -1.812379   -0.000018
     13          6           0       -1.401233    1.005696    0.000000
     14          6           0       -2.809171    0.870378   -0.000008
     15          6           0       -0.875841    2.395675    0.000031
     16          6           0       -3.643287    1.991037    0.000022
     17          1           0       -3.248020   -0.129777   -0.000036
     18          6           0       -1.751832    3.498886    0.000062
     19          6           0       -3.128477    3.307821    0.000060
     20          1           0       -4.725254    1.842189    0.000017
     21          1           0       -1.301245    4.493094    0.000086
     22          1           0       -3.806333    4.162421    0.000087
     23          6           0       -0.452144   -0.049951   -0.000014
     24          8           0        0.408184    2.616808    0.000031
     25          1           0        0.851029    1.712281    0.000011
 ---------------------------------------------------------------------
                    Distance matrix (angstroms):
                    1          2          3          4          5
     1  C    0.000000
     2  C    1.394317   0.000000
     3  C    2.450156   1.426146   0.000000
     4  C    2.844537   2.461877   1.416651   0.000000
     5  C    2.445193   2.793236   2.407684   1.382053   0.000000
     6  C    1.398191   2.400705   2.789115   2.430268   1.409762
     7  H    1.092064   2.169032   3.446544   3.936500   3.434814
     8  H    3.936310   3.446680   2.170554   1.091970   2.168933
     9  H    3.425477   3.885273   3.402518   2.143812   1.092274
    10  H    2.154252   3.390210   3.880817   3.411064   2.167897
    11  N    3.619094   2.328442   1.335950   2.443287   3.664578
    12  S    2.863643   1.763575   2.613955   3.971735   4.537455
    13  C    5.294429   3.907298   3.577289   4.832949   5.983903
    14  C    6.136827   4.815675   4.791942   6.125517   7.184665
    15  C    6.233021   4.850283   4.105332   5.080129   6.390258
    16  C    7.513307   6.172709   6.015478   7.280927   8.423058
    17  H    5.877335   4.672097   4.970493   6.371276   7.274661
    18  C    7.608251   6.218036   5.514032   6.461056   7.786432
    19  C    8.172307   6.785084   6.333851   7.441327   8.702166
    20  H    8.226781   6.937479   6.931655   8.243216   9.329842
    21  H    8.331344   6.961720   6.090966   6.861466   8.228141
    22  H    9.262492   7.875747   7.407875   8.484051   9.763154
    23  C    3.884936   2.493334   2.261955   3.616492   4.656631
    24  O    6.032452   4.731558   3.664153   4.327208   5.699354
    25  H    5.058797   3.792921   2.664322   3.349673   4.711941
                    6          7          8          9         10
     6  C    0.000000
     7  H    2.166799   0.000000
     8  H    3.432018   5.028333   0.000000
     9  H    2.165500   4.324089   2.501732   0.000000
    10  H    1.091763   2.485830   4.326937   2.484165   0.000000
    11  N    4.120560   4.496448   2.722615   4.574665   5.212155
    12  S    4.105766   3.113158   4.779069   5.628688   5.008844
    13  C    6.178234   5.855892   5.062333   6.946235   7.237746
    14  C    7.193770   6.497787   6.440118   8.194020   8.205847
    15  C    6.881087   6.952054   4.985506   7.217293   7.970980
    16  C    8.528196   7.894384   7.459006   9.394624   9.558000
    17  H    7.069881   6.060080   6.850275   8.332571   8.013699
    18  C    8.288192   8.282539   6.288132   8.588535   9.377464
    19  C    9.025788   8.702071   7.411371   9.585139  10.096499
    20  H    9.327454   8.494616   8.482687  10.330772  10.324591
    21  H    8.879042   9.083273   6.518803   8.934358   9.970205
    22  H   10.112333   9.782137   8.400204  10.626452  11.184804
    23  C    4.765749   4.503917   4.054028   5.664426   5.820242
    24  O    6.424539   6.899994   4.005976   6.397280   7.509500
    25  H    5.417667   5.959642   3.138171   5.450198   6.502389
                   11         12         13         14         15
    11  N    0.000000
    12  S    2.619003   0.000000
    13  C    2.397198   2.893500   0.000000
    14  C    3.734351   3.385034   1.414426   0.000000
    15  C    2.770102   4.210092   1.485960   2.462580   0.000000
    16  C    4.841074   4.781914   2.449020   1.397006   2.796871
    17  H    4.138061   3.016094   2.167930   1.092199   3.464844
    18  C    4.178734   5.405874   2.517720   2.833200   1.408700
    19  C    5.037597   5.647827   2.878045   2.458268   2.430304
    20  H    5.820848   5.403627   3.427657   2.148438   3.889000
    21  H    4.770071   6.329971   3.488831   3.924017   2.140125
    22  H    6.101059   6.713471   3.968553   3.439750   3.421867
    23  C    1.357900   1.786576   1.419564   2.530333   2.482057
    24  O    2.414660   4.576820   2.422741   3.660791   1.302927
    25  H    1.465169   3.869132   2.360497   3.755778   1.857177
                   16         17         18         19         20
    16  C    0.000000
    17  H    2.157334   0.000000
    18  C    2.418927   3.925019   0.000000
    19  C    1.413841   3.439676   1.389840   0.000000
    20  H    1.092157   2.463914   3.403803   2.167434   0.000000
    21  H    3.427163   5.016061   1.091549   2.177991   4.330257
    22  H    2.177496   4.328357   2.158993   1.090794   2.495574
    23  C    3.788011   2.797015   3.779343   4.293878   4.673293
    24  O    4.099513   4.572915   2.333180   3.603535   5.191552
    25  H    4.502952   4.493927   3.157031   4.287448   5.577795
                   21         22         23         24         25
    21  H    0.000000
    22  H    2.526818   0.000000
    23  C    4.621713   5.384669   0.000000
    24  O    2.538227   4.488995   2.802100   0.000000
    25  H    3.516419   5.262529   2.191739   1.007115   0.000000
 Symmetry turned off by external request.
 Stoichiometry    C13H9NOS
 Framework group  C1[X(C13H9NOS)]
 Deg. of freedom    69
 Full point group                 C1      NOp   1
 Rotational constants (GHZ):           1.3562090           0.2856212           0.2359331
 Leave Link  202 at Tue Oct 27 21:21:53 2020, MaxMem=  7784628224 cpu:               0.3 elap:               0.1
 (Enter /gpfs/loomis/apps/avx/software/Gaussian/16-C.01_AVX/g16/l301.exe)
 Standard basis: CC-pVDZ (5D, 7F)
 Ernie: Thresh=  0.10000D-02 Tol=  0.10000D-05 Strict=F.
 Ernie:  40 primitive shells out of 425 were deleted.
   273 basis functions,   629 primitive gaussians,   289 cartesian basis functions
    59 alpha electrons       59 beta electrons
       nuclear repulsion energy      1095.9028529313 Hartrees.
 IExCor= 4639 DFT=T Ex+Corr=wB97XD ExCW=0 ScaHFX=  1.000000
 ScaDFX=  1.000000  1.000000  1.000000  1.000000 ScalE2=  1.000000  1.000000
 IRadAn=      5 IRanWt=     -1 IRanGd=            0 ICorTp=0 IEmpDi=121
 HFx  wShort=  0.000000 wLong=  0.200000 cFull=  0.222036 cShort=  0.000000 cLong=  0.777964
 DFx  wShort=  0.000000 wLong=  0.200000 cFull=  0.000000 cShort=  0.000000 cLong=  1.000000
 NAtoms=   25 NActive=   25 NUniq=   25 SFac= 1.00D+00 NAtFMM=   60 NAOKFM=F Big=F
 Integral buffers will be    131072 words long.
 Raffenetti 2 integral format.
 Two-electron integral symmetry is turned off.
 R6Disp:  Grimme-D2 Dispersion energy=       -0.0140003027 Hartrees.
 Nuclear repulsion after empirical dispersion term =     1095.8888526286 Hartrees.
 ------------------------------------------------------------------------------
 Polarizable Continuum Model (PCM)
 =================================
 Model                : PCM.
 Atomic radii         : UFF (Universal Force Field).
 Polarization charges : Total charges.
 Charge compensation  : None.
 Solution method      : On-the-fly selection.
 Cavity type          : Scaled VdW (van der Waals Surface) (Alpha=1.100).
 Cavity algorithm     : GePol (No added spheres)
                        Default sphere list used, NSphG=   25.
                        Lebedev-Laikov grids with approx.  5.0 points / Ang**2.
                        Smoothing algorithm: York/Karplus (Gamma=1.0000).
                        Polarization charges: spherical gaussians, with
                                              point-specific exponents (IZeta= 3).
                        Self-potential: point-specific (ISelfS= 7).
                        Self-field    : sphere-specific E.n sum rule (ISelfD= 2).
 1st derivatives      : Analytical E(r).r(x)/FMM algorithm (CHGder, D1EAlg=3).
                        Cavity 1st derivative terms included.
 Solvent              : CarbonTetraChloride, Eps=   2.228000 Eps(inf)=   2.131892
 ------------------------------------------------------------------------------
 GePol: Number of generator spheres                  =      25
 GePol: Total number of spheres                      =      25
 GePol: Number of exposed spheres                    =      25 (100.00%)
 GePol: Number of points                             =    2196
 GePol: Average weight of points                     =       0.13
 GePol: Minimum weight of points                     =   0.13D-10
 GePol: Maximum weight of points                     =    0.20577
 GePol: Number of points with low weight             =     149
 GePol: Fraction of low-weight points (<1% of avg)   =       6.79%
 GePol: Cavity surface area                          =    275.220 Ang**2
 GePol: Cavity volume                                =    294.267 Ang**3
 Leave Link  301 at Tue Oct 27 21:21:53 2020, MaxMem=  7784628224 cpu:               1.0 elap:               0.2
 (Enter /gpfs/loomis/apps/avx/software/Gaussian/16-C.01_AVX/g16/l302.exe)
 NPDir=0 NMtPBC=     1 NCelOv=     1 NCel=       1 NClECP=     1 NCelD=      1
         NCelK=      1 NCelE2=     1 NClLst=     1 CellRange=     0.0.
 One-electron integrals computed using PRISM.
 NBasis=   273 RedAO= T EigKep=  3.15D-04  NBF=   273
 NBsUse=   273 1.00D-06 EigRej= -1.00D+00 NBFU=   273
 Precomputing XC quadrature grid using
 IXCGrd= 4 IRadAn=           5 IRanWt=          -1 IRanGd=           0 AccXCQ= 0.00D+00.
 Generated NRdTot=       0 NPtTot=           0 NUsed=           0 NTot=          32
 NSgBfM=   288   288   288   288   288 MxSgAt=    25 MxSgA2=    25.
 Leave Link  302 at Tue Oct 27 21:21:54 2020, MaxMem=  7784628224 cpu:               7.0 elap:               1.2
 (Enter /gpfs/loomis/apps/avx/software/Gaussian/16-C.01_AVX/g16/l303.exe)
 DipDrv:  MaxL=1.
 Leave Link  303 at Tue Oct 27 21:21:55 2020, MaxMem=  7784628224 cpu:               0.5 elap:               0.1
 (Enter /gpfs/loomis/apps/avx/software/Gaussian/16-C.01_AVX/g16/l401.exe)
 ExpMin= 1.22D-01 ExpMax= 1.11D+05 ExpMxC= 1.07D+03 IAcc=3 IRadAn=         5 AccDes= 0.00D+00
 Harris functional with IExCor= 4639 and IRadAn=       5 diagonalized for initial guess.
 HarFok:  IExCor= 4639 AccDes= 0.00D+00 IRadAn=         5 IDoV= 1 UseB2=F ITyADJ=14
 ICtDFT=  3500011 ScaDFX=  1.000000  1.000000  1.000000  1.000000
 FoFCou: FMM=F IPFlag=           0 FMFlag=      100000 FMFlg1=           0
         NFxFlg=           0 DoJE=T BraDBF=F KetDBF=T FulRan=T
         wScrn=  0.000000 ICntrl=       500 IOpCl=  0 I1Cent=   200000004 NGrid=           0
         NMat0=    1 NMatS0=      1 NMatT0=    0 NMatD0=    1 NMtDS0=    0 NMtDT0=    0
 Symmetry not used in FoFCou.
 Harris En= -994.454057880060    
 JPrj=0 DoOrth=F DoCkMO=F.
 Leave Link  401 at Tue Oct 27 21:21:57 2020, MaxMem=  7784628224 cpu:              17.3 elap:               2.6
 (Enter /gpfs/loomis/apps/avx/software/Gaussian/16-C.01_AVX/g16/l502.exe)
 Two-electron integral symmetry not used.
 Closed shell SCF:
 Using DIIS extrapolation, IDIIS=  1040.
 NGot=  7784628224 LenX=  7784455381 LenY=  7784371419
 Requested convergence on RMS density matrix=1.00D-08 within 128 cycles.
 Requested convergence on MAX density matrix=1.00D-06.
 Requested convergence on             energy=1.00D-06.
 No special actions if energy rises.
 Fock matrices will be formed incrementally for  20 cycles.

 Cycle   1  Pass 1  IDiag  1:
 FoFJK:  IHMeth= 1 ICntrl=       0 DoSepK=T KAlg= 0 I1Cent=           0 FoldK=F
 IRaf=         1 NMat=       1 IRICut=       1 DoRegI=T DoRafI=F ISym2E= 0 IDoP0=0 IntGTp=1.
 FoFCou: FMM=F IPFlag=           0 FMFlag=      100000 FMFlg1=           0
         NFxFlg=           0 DoJE=T BraDBF=F KetDBF=F FulRan=T
         wScrn=  0.000000 ICntrl=       500 IOpCl=  0 I1Cent=           0 NGrid=           0
         NMat0=    1 NMatS0=      1 NMatT0=    0 NMatD0=    1 NMtDS0=    0 NMtDT0=    0
 Symmetry not used in FoFCou.
 Inv3:  Mode=1 IEnd=    14467248.
 Iteration    1 A*A^-1 deviation from unit magnitude is 7.77D-15 for   2179.
 Iteration    1 A*A^-1 deviation from orthogonality  is 1.69D-15 for   2193   2097.
 Iteration    1 A^-1*A deviation from unit magnitude is 7.55D-15 for   2179.
 Iteration    1 A^-1*A deviation from orthogonality  is 1.56D-15 for   1428    221.
 E= -1028.58451940256    
 DIIS: error= 2.49D-02 at cycle   1 NSaved=   1.
 NSaved= 1 IEnMin= 1 EnMin= -1028.58451940256     IErMin= 1 ErrMin= 2.49D-02
 ErrMax= 2.49D-02  0.00D+00 EMaxC= 1.00D-01 BMatC= 3.86D-01 BMatP= 3.86D-01
 IDIUse=3 WtCom= 7.51D-01 WtEn= 2.49D-01
 Coeff-Com:  0.100D+01
 Coeff-En:   0.100D+01
 Coeff:      0.100D+01
 Gap=     0.356 Goal=   None    Shift=    0.000
 GapD=    0.356 DampG=1.000 DampE=0.500 DampFc=0.5000 IDamp=-1.
 Damping current iteration by 5.00D-01
 RMSDP=3.48D-03 MaxDP=2.25D-01              OVMax= 1.71D-01

 Cycle   2  Pass 1  IDiag  1:
 RMSU=  1.74D-03    CP:  9.93D-01
 E= -1028.70026931747     Delta-E=       -0.115749914913 Rises=F Damp=T
 DIIS: error= 1.12D-02 at cycle   2 NSaved=   2.
 NSaved= 2 IEnMin= 2 EnMin= -1028.70026931747     IErMin= 2 ErrMin= 1.12D-02
 ErrMax= 1.12D-02  0.00D+00 EMaxC= 1.00D-01 BMatC= 5.73D-02 BMatP= 3.86D-01
 IDIUse=3 WtCom= 8.88D-01 WtEn= 1.12D-01
 Coeff-Com: -0.302D+00 0.130D+01
 Coeff-En:   0.000D+00 0.100D+01
 Coeff:     -0.268D+00 0.127D+01
 Gap=     0.301 Goal=   None    Shift=    0.000
 RMSDP=1.13D-03 MaxDP=2.23D-02 DE=-1.16D-01 OVMax= 1.12D-01

 Cycle   3  Pass 1  IDiag  1:
 RMSU=  1.07D-03    CP:  9.91D-01  1.21D+00
 E= -1028.80269189394     Delta-E=       -0.102422576465 Rises=F Damp=F
 DIIS: error= 5.29D-03 at cycle   3 NSaved=   3.
 NSaved= 3 IEnMin= 3 EnMin= -1028.80269189394     IErMin= 3 ErrMin= 5.29D-03
 ErrMax= 5.29D-03  0.00D+00 EMaxC= 1.00D-01 BMatC= 1.24D-02 BMatP= 5.73D-02
 IDIUse=3 WtCom= 9.47D-01 WtEn= 5.29D-02
 Coeff-Com: -0.201D+00 0.472D+00 0.728D+00
 Coeff-En:   0.000D+00 0.000D+00 0.100D+01
 Coeff:     -0.190D+00 0.447D+00 0.743D+00
 Gap=     0.263 Goal=   None    Shift=    0.000
 RMSDP=4.86D-04 MaxDP=1.67D-02 DE=-1.02D-01 OVMax= 3.75D-02

 Cycle   4  Pass 1  IDiag  1:
 RMSU=  3.71D-04    CP:  9.89D-01  1.36D+00  8.62D-01
 E= -1028.81457418719     Delta-E=       -0.011882293251 Rises=F Damp=F
 DIIS: error= 1.85D-03 at cycle   4 NSaved=   4.
 NSaved= 4 IEnMin= 4 EnMin= -1028.81457418719     IErMin= 4 ErrMin= 1.85D-03
 ErrMax= 1.85D-03  0.00D+00 EMaxC= 1.00D-01 BMatC= 1.40D-03 BMatP= 1.24D-02
 IDIUse=3 WtCom= 9.82D-01 WtEn= 1.85D-02
 Coeff-Com: -0.723D-01 0.143D+00 0.349D+00 0.581D+00
 Coeff-En:   0.000D+00 0.000D+00 0.000D+00 0.100D+01
 Coeff:     -0.710D-01 0.140D+00 0.342D+00 0.588D+00
 Gap=     0.261 Goal=   None    Shift=    0.000
 RMSDP=1.48D-04 MaxDP=8.15D-03 DE=-1.19D-02 OVMax= 1.01D-02

 Cycle   5  Pass 1  IDiag  1:
 RMSU=  9.95D-05    CP:  9.89D-01  1.37D+00  9.23D-01  7.71D-01
 E= -1028.81604694151     Delta-E=       -0.001472754320 Rises=F Damp=F
 DIIS: error= 3.55D-04 at cycle   5 NSaved=   5.
 NSaved= 5 IEnMin= 5 EnMin= -1028.81604694151     IErMin= 5 ErrMin= 3.55D-04
 ErrMax= 3.55D-04  0.00D+00 EMaxC= 1.00D-01 BMatC= 5.33D-05 BMatP= 1.40D-03
 IDIUse=3 WtCom= 9.96D-01 WtEn= 3.55D-03
 Coeff-Com: -0.226D-02-0.138D-02 0.391D-01 0.174D+00 0.791D+00
 Coeff-En:   0.000D+00 0.000D+00 0.000D+00 0.000D+00 0.100D+01
 Coeff:     -0.225D-02-0.137D-02 0.390D-01 0.173D+00 0.791D+00
 Gap=     0.261 Goal=   None    Shift=    0.000
 RMSDP=4.92D-05 MaxDP=1.56D-03 DE=-1.47D-03 OVMax= 4.65D-03

 Cycle   6  Pass 1  IDiag  1:
 RMSU=  3.34D-05    CP:  9.89D-01  1.38D+00  9.41D-01  8.51D-01  1.06D+00
 E= -1028.81614956547     Delta-E=       -0.000102623963 Rises=F Damp=F
 DIIS: error= 1.67D-04 at cycle   6 NSaved=   6.
 NSaved= 6 IEnMin= 6 EnMin= -1028.81614956547     IErMin= 6 ErrMin= 1.67D-04
 ErrMax= 1.67D-04  0.00D+00 EMaxC= 1.00D-01 BMatC= 8.78D-06 BMatP= 5.33D-05
 IDIUse=3 WtCom= 9.98D-01 WtEn= 1.67D-03
 Coeff-Com:  0.142D-01-0.294D-01-0.543D-01-0.505D-01 0.232D+00 0.888D+00
 Coeff-En:   0.000D+00 0.000D+00 0.000D+00 0.000D+00 0.000D+00 0.100D+01
 Coeff:      0.141D-01-0.293D-01-0.542D-01-0.504D-01 0.232D+00 0.888D+00
 Gap=     0.262 Goal=   None    Shift=    0.000
 RMSDP=2.88D-05 MaxDP=1.45D-03 DE=-1.03D-04 OVMax= 2.24D-03

 Cycle   7  Pass 1  IDiag  1:
 RMSU=  1.60D-05    CP:  9.89D-01  1.38D+00  9.52D-01  8.83D-01  1.22D+00
                    CP:  1.16D+00
 E= -1028.81617451401     Delta-E=       -0.000024948541 Rises=F Damp=F
 DIIS: error= 8.78D-05 at cycle   7 NSaved=   7.
 NSaved= 7 IEnMin= 7 EnMin= -1028.81617451401     IErMin= 7 ErrMin= 8.78D-05
 ErrMax= 8.78D-05  0.00D+00 EMaxC= 1.00D-01 BMatC= 2.21D-06 BMatP= 8.78D-06
 IDIUse=1 WtCom= 1.00D+00 WtEn= 0.00D+00
 Coeff-Com:  0.685D-02-0.132D-01-0.305D-01-0.480D-01-0.157D-01 0.401D+00
 Coeff-Com:  0.700D+00
 Coeff:      0.685D-02-0.132D-01-0.305D-01-0.480D-01-0.157D-01 0.401D+00
 Coeff:      0.700D+00
 Gap=     0.262 Goal=   None    Shift=    0.000
 RMSDP=1.01D-05 MaxDP=4.56D-04 DE=-2.49D-05 OVMax= 1.03D-03

 Cycle   8  Pass 1  IDiag  1:
 RMSU=  6.04D-06    CP:  9.89D-01  1.38D+00  9.54D-01  8.90D-01  1.26D+00
                    CP:  1.35D+00  1.07D+00
 E= -1028.81617864499     Delta-E=       -0.000004130979 Rises=F Damp=F
 DIIS: error= 2.57D-05 at cycle   8 NSaved=   8.
 NSaved= 8 IEnMin= 8 EnMin= -1028.81617864499     IErMin= 8 ErrMin= 2.57D-05
 ErrMax= 2.57D-05  0.00D+00 EMaxC= 1.00D-01 BMatC= 2.13D-07 BMatP= 2.21D-06
 IDIUse=1 WtCom= 1.00D+00 WtEn= 0.00D+00
 Coeff-Com: -0.117D-02 0.261D-02 0.349D-02 0.524D-03-0.401D-01-0.565D-01
 Coeff-Com:  0.187D+00 0.904D+00
 Coeff:     -0.117D-02 0.261D-02 0.349D-02 0.524D-03-0.401D-01-0.565D-01
 Coeff:      0.187D+00 0.904D+00
 Gap=     0.262 Goal=   None    Shift=    0.000
 RMSDP=4.34D-06 MaxDP=1.33D-04 DE=-4.13D-06 OVMax= 5.68D-04

 Cycle   9  Pass 1  IDiag  1:
 RMSU=  2.05D-06    CP:  9.89D-01  1.38D+00  9.53D-01  8.89D-01  1.27D+00
                    CP:  1.41D+00  1.26D+00  1.14D+00
 E= -1028.81617926273     Delta-E=       -0.000000617739 Rises=F Damp=F
 DIIS: error= 1.48D-05 at cycle   9 NSaved=   9.
 NSaved= 9 IEnMin= 9 EnMin= -1028.81617926273     IErMin= 9 ErrMin= 1.48D-05
 ErrMax= 1.48D-05  0.00D+00 EMaxC= 1.00D-01 BMatC= 3.24D-08 BMatP= 2.13D-07
 IDIUse=1 WtCom= 1.00D+00 WtEn= 0.00D+00
 Coeff-Com: -0.108D-02 0.215D-02 0.430D-02 0.591D-02-0.107D-01-0.679D-01
 Coeff-Com: -0.235D-01 0.263D+00 0.828D+00
 Coeff:     -0.108D-02 0.215D-02 0.430D-02 0.591D-02-0.107D-01-0.679D-01
 Coeff:     -0.235D-01 0.263D+00 0.828D+00
 Gap=     0.262 Goal=   None    Shift=    0.000
 RMSDP=1.76D-06 MaxDP=5.41D-05 DE=-6.18D-07 OVMax= 2.12D-04

 Cycle  10  Pass 1  IDiag  1:
 RMSU=  8.75D-07    CP:  9.89D-01  1.38D+00  9.53D-01  8.89D-01  1.27D+00
                    CP:  1.43D+00  1.32D+00  1.29D+00  1.19D+00
 E= -1028.81617937030     Delta-E=       -0.000000107568 Rises=F Damp=F
 DIIS: error= 7.29D-06 at cycle  10 NSaved=  10.
 NSaved=10 IEnMin=10 EnMin= -1028.81617937030     IErMin=10 ErrMin= 7.29D-06
 ErrMax= 7.29D-06  0.00D+00 EMaxC= 1.00D-01 BMatC= 6.35D-09 BMatP= 3.24D-08
 IDIUse=1 WtCom= 1.00D+00 WtEn= 0.00D+00
 Coeff-Com: -0.155D-03 0.273D-03 0.810D-03 0.212D-02 0.304D-02-0.167D-01
 Coeff-Com: -0.353D-01-0.637D-01 0.265D+00 0.845D+00
 Coeff:     -0.155D-03 0.273D-03 0.810D-03 0.212D-02 0.304D-02-0.167D-01
 Coeff:     -0.353D-01-0.637D-01 0.265D+00 0.845D+00
 Gap=     0.262 Goal=   None    Shift=    0.000
 RMSDP=8.82D-07 MaxDP=2.37D-05 DE=-1.08D-07 OVMax= 1.49D-04

 Cycle  11  Pass 1  IDiag  1:
 RMSU=  4.18D-07    CP:  9.89D-01  1.38D+00  9.53D-01  8.90D-01  1.27D+00
                    CP:  1.44D+00  1.34D+00  1.34D+00  1.43D+00  1.20D+00
 E= -1028.81617939613     Delta-E=       -0.000000025831 Rises=F Damp=F
 DIIS: error= 3.48D-06 at cycle  11 NSaved=  11.
 NSaved=11 IEnMin=11 EnMin= -1028.81617939613     IErMin=11 ErrMin= 3.48D-06
 ErrMax= 3.48D-06  0.00D+00 EMaxC= 1.00D-01 BMatC= 1.94D-09 BMatP= 6.35D-09
 IDIUse=1 WtCom= 1.00D+00 WtEn= 0.00D+00
 Coeff-Com:  0.162D-03-0.337D-03-0.575D-03-0.261D-03 0.346D-02 0.539D-02
 Coeff-Com: -0.582D-02-0.715D-01-0.708D-01 0.346D+00 0.794D+00
 Coeff:      0.162D-03-0.337D-03-0.575D-03-0.261D-03 0.346D-02 0.539D-02
 Coeff:     -0.582D-02-0.715D-01-0.708D-01 0.346D+00 0.794D+00
 Gap=     0.262 Goal=   None    Shift=    0.000
 RMSDP=4.04D-07 MaxDP=9.66D-06 DE=-2.58D-08 OVMax= 6.45D-05

 Cycle  12  Pass 1  IDiag  1:
 RMSU=  1.69D-07    CP:  9.89D-01  1.38D+00  9.53D-01  8.90D-01  1.27D+00
                    CP:  1.44D+00  1.35D+00  1.36D+00  1.54D+00  1.47D+00
                    CP:  1.12D+00
 E= -1028.81617940226     Delta-E=       -0.000000006133 Rises=F Damp=F
 DIIS: error= 1.52D-06 at cycle  12 NSaved=  12.
 NSaved=12 IEnMin=12 EnMin= -1028.81617940226     IErMin=12 ErrMin= 1.52D-06
 ErrMax= 1.52D-06  0.00D+00 EMaxC= 1.00D-01 BMatC= 3.28D-10 BMatP= 1.94D-09
 IDIUse=1 WtCom= 1.00D+00 WtEn= 0.00D+00
 Coeff-Com:  0.111D-03-0.219D-03-0.479D-03-0.697D-03 0.904D-03 0.649D-02
 Coeff-Com:  0.798D-02-0.138D-01-0.112D+00-0.752D-01 0.272D+00 0.915D+00
 Coeff:      0.111D-03-0.219D-03-0.479D-03-0.697D-03 0.904D-03 0.649D-02
 Coeff:      0.798D-02-0.138D-01-0.112D+00-0.752D-01 0.272D+00 0.915D+00
 Gap=     0.262 Goal=   None    Shift=    0.000
 RMSDP=2.48D-07 MaxDP=6.63D-06 DE=-6.13D-09 OVMax= 4.15D-05

 Cycle  13  Pass 1  IDiag  1:
 RMSU=  7.27D-08    CP:  9.89D-01  1.38D+00  9.53D-01  8.90D-01  1.27D+00
                    CP:  1.44D+00  1.35D+00  1.36D+00  1.60D+00  1.62D+00
                    CP:  1.40D+00  1.22D+00
 E= -1028.81617940381     Delta-E=       -0.000000001550 Rises=F Damp=F
 DIIS: error= 3.93D-07 at cycle  13 NSaved=  13.
 NSaved=13 IEnMin=13 EnMin= -1028.81617940381     IErMin=13 ErrMin= 3.93D-07
 ErrMax= 3.93D-07  0.00D+00 EMaxC= 1.00D-01 BMatC= 4.80D-11 BMatP= 3.28D-10
 IDIUse=1 WtCom= 1.00D+00 WtEn= 0.00D+00
 Coeff-Com: -0.132D-05 0.546D-05-0.178D-04-0.119D-03-0.178D-03 0.719D-03
 Coeff-Com:  0.339D-02 0.761D-02-0.187D-01-0.688D-01-0.769D-01 0.261D+00
 Coeff-Com:  0.892D+00
 Coeff:     -0.132D-05 0.546D-05-0.178D-04-0.119D-03-0.178D-03 0.719D-03
 Coeff:      0.339D-02 0.761D-02-0.187D-01-0.688D-01-0.769D-01 0.261D+00
 Coeff:      0.892D+00
 Gap=     0.262 Goal=   None    Shift=    0.000
 RMSDP=7.80D-08 MaxDP=1.67D-06 DE=-1.55D-09 OVMax= 1.15D-05

 Cycle  14  Pass 1  IDiag  1:
 RMSU=  2.79D-08    CP:  9.89D-01  1.38D+00  9.53D-01  8.90D-01  1.27D+00
                    CP:  1.44D+00  1.35D+00  1.37D+00  1.62D+00  1.67D+00
                    CP:  1.48D+00  1.43D+00  1.19D+00
 E= -1028.81617940396     Delta-E=       -0.000000000145 Rises=F Damp=F
 DIIS: error= 1.28D-07 at cycle  14 NSaved=  14.
 NSaved=14 IEnMin=14 EnMin= -1028.81617940396     IErMin=14 ErrMin= 1.28D-07
 ErrMax= 1.28D-07  0.00D+00 EMaxC= 1.00D-01 BMatC= 6.66D-12 BMatP= 4.80D-11
 IDIUse=1 WtCom= 1.00D+00 WtEn= 0.00D+00
 Coeff-Com: -0.114D-04 0.234D-04 0.407D-04 0.219D-04-0.146D-03-0.435D-03
 Coeff-Com:  0.507D-03 0.433D-02 0.472D-02-0.156D-01-0.598D-01 0.113D-01
 Coeff-Com:  0.349D+00 0.706D+00
 Coeff:     -0.114D-04 0.234D-04 0.407D-04 0.219D-04-0.146D-03-0.435D-03
 Coeff:      0.507D-03 0.433D-02 0.472D-02-0.156D-01-0.598D-01 0.113D-01
 Coeff:      0.349D+00 0.706D+00
 Gap=     0.262 Goal=   None    Shift=    0.000
 RMSDP=1.63D-08 MaxDP=4.31D-07 DE=-1.45D-10 OVMax= 1.96D-06

 Cycle  15  Pass 1  IDiag  1:
 RMSU=  1.06D-08    CP:  9.89D-01  1.38D+00  9.53D-01  8.90D-01  1.27D+00
                    CP:  1.44D+00  1.35D+00  1.37D+00  1.62D+00  1.67D+00
                    CP:  1.48D+00  1.47D+00  1.31D+00  1.02D+00
 E= -1028.81617940397     Delta-E=       -0.000000000009 Rises=F Damp=F
 DIIS: error= 5.43D-08 at cycle  15 NSaved=  15.
 NSaved=15 IEnMin=15 EnMin= -1028.81617940397     IErMin=15 ErrMin= 5.43D-08
 ErrMax= 5.43D-08  0.00D+00 EMaxC= 1.00D-01 BMatC= 8.69D-13 BMatP= 6.66D-12
 IDIUse=1 WtCom= 1.00D+00 WtEn= 0.00D+00
 Coeff-Com: -0.330D-05 0.620D-05 0.171D-04 0.290D-04-0.169D-04-0.296D-03
 Coeff-Com: -0.528D-03-0.152D-03 0.453D-02 0.859D-02-0.529D-02-0.461D-01
 Coeff-Com: -0.667D-01 0.203D+00 0.903D+00
 Coeff:     -0.330D-05 0.620D-05 0.171D-04 0.290D-04-0.169D-04-0.296D-03
 Coeff:     -0.528D-03-0.152D-03 0.453D-02 0.859D-02-0.529D-02-0.461D-01
 Coeff:     -0.667D-01 0.203D+00 0.903D+00
 Gap=     0.262 Goal=   None    Shift=    0.000
 RMSDP=9.46D-09 MaxDP=2.07D-07 DE=-9.32D-12 OVMax= 1.19D-06

 Error on total polarization charges =  0.00824
 SCF Done:  E(RwB97XD) =  -1028.81617940     A.U. after   15 cycles
            NFock= 15  Conv=0.95D-08     -V/T= 2.0050
 KE= 1.023740781739D+03 PE=-4.603962158183D+03 EE= 1.455516344411D+03
 Leave Link  502 at Tue Oct 27 21:23:24 2020, MaxMem=  7784628224 cpu:             842.7 elap:              86.9
 (Enter /gpfs/loomis/apps/avx/software/Gaussian/16-C.01_AVX/g16/l601.exe)
 Copying SCF densities to generalized density rwf, IOpCl= 0 IROHF=0.

 **********************************************************************

            Population analysis using the SCF Density.

 **********************************************************************

 Alpha  occ. eigenvalues --  -89.09347 -19.27264 -14.46959 -10.40088 -10.37968
 Alpha  occ. eigenvalues --  -10.35101 -10.35004 -10.32618 -10.32431 -10.32262
 Alpha  occ. eigenvalues --  -10.31842 -10.31626 -10.31593 -10.31491 -10.30339
 Alpha  occ. eigenvalues --  -10.30130  -8.11249  -6.06108  -6.05760  -6.05301
 Alpha  occ. eigenvalues --   -1.17309  -1.08669  -0.96719  -0.95519  -0.91727
 Alpha  occ. eigenvalues --   -0.88834  -0.84903  -0.84300  -0.82501  -0.76040
 Alpha  occ. eigenvalues --   -0.71032  -0.70217  -0.69208  -0.68446  -0.63639
 Alpha  occ. eigenvalues --   -0.60497  -0.58914  -0.58554  -0.55757  -0.54415
 Alpha  occ. eigenvalues --   -0.54019  -0.53039  -0.52834  -0.51140  -0.50293
 Alpha  occ. eigenvalues --   -0.49535  -0.47751  -0.45979  -0.45541  -0.44770
 Alpha  occ. eigenvalues --   -0.43767  -0.42774  -0.42534  -0.40074  -0.36620
 Alpha  occ. eigenvalues --   -0.36479  -0.32344  -0.31252  -0.27953
 Alpha virt. eigenvalues --   -0.01739   0.04937   0.06994   0.07313   0.07314
 Alpha virt. eigenvalues --    0.10980   0.13303   0.15097   0.15990   0.17964
 Alpha virt. eigenvalues --    0.18679   0.20981   0.21774   0.22344   0.22580
 Alpha virt. eigenvalues --    0.23436   0.24110   0.24538   0.28470   0.30573
 Alpha virt. eigenvalues --    0.32071   0.33152   0.35250   0.36213   0.36952
 Alpha virt. eigenvalues --    0.37797   0.38582   0.40705   0.43686   0.44827
 Alpha virt. eigenvalues --    0.47421   0.47696   0.50070   0.51626   0.51734
 Alpha virt. eigenvalues --    0.52180   0.53427   0.54233   0.55103   0.55608
 Alpha virt. eigenvalues --    0.55936   0.56270   0.56900   0.57669   0.58100
 Alpha virt. eigenvalues --    0.58488   0.58742   0.59155   0.59759   0.60064
 Alpha virt. eigenvalues --    0.60475   0.60643   0.62109   0.62439   0.63038
 Alpha virt. eigenvalues --    0.64459   0.65614   0.66654   0.67774   0.69045
 Alpha virt. eigenvalues --    0.70198   0.70404   0.72054   0.72653   0.72876
 Alpha virt. eigenvalues --    0.73033   0.74325   0.75374   0.76249   0.77253
 Alpha virt. eigenvalues --    0.78915   0.79440   0.79889   0.82060   0.82414
 Alpha virt. eigenvalues --    0.82923   0.88248   0.89906   0.91700   0.93156
 Alpha virt. eigenvalues --    0.94762   0.95189   0.95903   0.96501   0.96877
 Alpha virt. eigenvalues --    0.98451   0.98858   1.00158   1.00171   1.01707
 Alpha virt. eigenvalues --    1.02624   1.04873   1.05936   1.07496   1.08067
 Alpha virt. eigenvalues --    1.08100   1.08471   1.09670   1.10579   1.11708
 Alpha virt. eigenvalues --    1.11968   1.12500   1.13234   1.14962   1.15500
 Alpha virt. eigenvalues --    1.16078   1.18965   1.20443   1.22353   1.23803
 Alpha virt. eigenvalues --    1.25705   1.28187   1.33313   1.33712   1.34816
 Alpha virt. eigenvalues --    1.35487   1.35881   1.38472   1.41916   1.46224
 Alpha virt. eigenvalues --    1.47768   1.48985   1.50884   1.54459   1.54657
 Alpha virt. eigenvalues --    1.55209   1.56158   1.56995   1.57064   1.58043
 Alpha virt. eigenvalues --    1.59048   1.59256   1.62820   1.66140   1.66307
 Alpha virt. eigenvalues --    1.68461   1.69016   1.69826   1.70223   1.70984
 Alpha virt. eigenvalues --    1.71908   1.72604   1.72893   1.73518   1.74139
 Alpha virt. eigenvalues --    1.76673   1.77319   1.80185   1.80847   1.81998
 Alpha virt. eigenvalues --    1.82627   1.83380   1.84845   1.85217   1.85351
 Alpha virt. eigenvalues --    1.86811   1.88334   1.88440   1.89570   1.92056
 Alpha virt. eigenvalues --    1.92230   1.92862   1.93256   1.94385   1.95035
 Alpha virt. eigenvalues --    1.99557   2.00363   2.01958   2.03800   2.03812
 Alpha virt. eigenvalues --    2.05945   2.07816   2.08607   2.11155   2.12746
 Alpha virt. eigenvalues --    2.13339   2.17236   2.20688   2.21640   2.24271
 Alpha virt. eigenvalues --    2.26538   2.28959   2.35869   2.38194   2.40392
 Alpha virt. eigenvalues --    2.41020   2.41039   2.45586   2.46343   2.47247
 Alpha virt. eigenvalues --    2.47975   2.50639   2.52966   2.53579   2.62033
 Alpha virt. eigenvalues --    2.62717   2.72114   2.73236   2.74577   2.80401
 Alpha virt. eigenvalues --    2.81608   2.83831   2.85614   2.90086   2.93806
 Alpha virt. eigenvalues --    3.01868   3.04110   3.07484   3.20818   3.35305
 Alpha virt. eigenvalues --    3.48810   3.56380   3.63129   3.97541
          Condensed to atoms (all electrons):
               1          2          3          4          5          6
     1  C    4.741384   0.465272   0.005059  -0.051254  -0.013271   0.525814
     2  C    0.465272   5.321776   0.345060  -0.044315  -0.063310  -0.011199
     3  C    0.005059   0.345060   4.744422   0.500903  -0.007080  -0.063000
     4  C   -0.051254  -0.044315   0.500903   4.775521   0.524778  -0.015916
     5  C   -0.013271  -0.063310  -0.007080   0.524778   4.729817   0.491235
     6  C    0.525814  -0.011199  -0.063000  -0.015916   0.491235   4.745946
     7  H    0.402145  -0.039574   0.008247  -0.000460   0.008062  -0.038576
     8  H   -0.000845   0.011467  -0.028323   0.392269  -0.043795   0.007727
     9  H    0.008646  -0.000563   0.008509  -0.039221   0.404975  -0.044827
    10  H   -0.041913   0.009634  -0.000602   0.008742  -0.043797   0.405882
    11  N    0.007170  -0.058552   0.463417  -0.038978   0.003034   0.000172
    12  S   -0.061632   0.343107  -0.106852   0.006286   0.000219   0.003394
    13  C   -0.000153   0.003535   0.008744  -0.000813   0.000009   0.000000
    14  C   -0.000004   0.000035   0.000146   0.000006  -0.000000  -0.000000
    15  C    0.000003  -0.000250   0.000248   0.000073  -0.000000   0.000000
    16  C    0.000000  -0.000001   0.000004  -0.000000   0.000000   0.000000
    17  H   -0.000002   0.000042   0.000001  -0.000000   0.000000  -0.000000
    18  C    0.000000   0.000006  -0.000029  -0.000000  -0.000000   0.000000
    19  C   -0.000000   0.000000   0.000002  -0.000000   0.000000   0.000000
    20  H   -0.000000  -0.000000  -0.000000   0.000000   0.000000  -0.000000
    21  H   -0.000000  -0.000000   0.000001  -0.000000   0.000000   0.000000
    22  H    0.000000  -0.000000  -0.000000  -0.000000   0.000000  -0.000000
    23  C    0.004060  -0.053491  -0.123382   0.001073   0.000200  -0.000153
    24  O    0.000001  -0.000030  -0.002015  -0.000099  -0.000001  -0.000000
    25  H   -0.000066   0.003224  -0.008534  -0.001499   0.000001   0.000012
               7          8          9         10         11         12
     1  C    0.402145  -0.000845   0.008646  -0.041913   0.007170  -0.061632
     2  C   -0.039574   0.011467  -0.000563   0.009634  -0.058552   0.343107
     3  C    0.008247  -0.028323   0.008509  -0.000602   0.463417  -0.106852
     4  C   -0.000460   0.392269  -0.039221   0.008742  -0.038978   0.006286
     5  C    0.008062  -0.043795   0.404975  -0.043797   0.003034   0.000219
     6  C   -0.038576   0.007727  -0.044827   0.405882   0.000172   0.003394
     7  H    0.658485   0.000034  -0.000143  -0.012061  -0.000125  -0.006349
     8  H    0.000034   0.654906  -0.012036  -0.000130  -0.001845  -0.000162
     9  H   -0.000143  -0.012036   0.666495  -0.012263  -0.000116   0.000022
    10  H   -0.012061  -0.000130  -0.012263   0.664706  -0.000000  -0.000136
    11  N   -0.000125  -0.001845  -0.000116  -0.000000   6.498098  -0.071263
    12  S   -0.006349  -0.000162   0.000022  -0.000136  -0.071263  15.466989
    13  C    0.000006   0.000055  -0.000000  -0.000000  -0.018402  -0.060644
    14  C    0.000000   0.000001   0.000000  -0.000000   0.003179  -0.004759
    15  C   -0.000000  -0.000033   0.000000   0.000000  -0.015418   0.003581
    16  C   -0.000000  -0.000000  -0.000000   0.000000  -0.000098  -0.000082
    17  H    0.000001   0.000000  -0.000000  -0.000000   0.000210   0.005653
    18  C   -0.000000  -0.000000  -0.000000  -0.000000  -0.000489  -0.000093
    19  C    0.000000   0.000000  -0.000000  -0.000000   0.000057   0.000019
    20  H   -0.000000  -0.000000   0.000000   0.000000   0.000001  -0.000001
    21  H   -0.000000   0.000000  -0.000000   0.000000   0.000021   0.000003
    22  H    0.000000  -0.000000  -0.000000  -0.000000  -0.000000  -0.000000
    23  C    0.000059  -0.000900   0.000008   0.000003   0.534625   0.318101
    24  O   -0.000000  -0.000255   0.000000  -0.000000  -0.076742  -0.000289
    25  H    0.000001   0.001512  -0.000006   0.000000   0.115534   0.002774
              13         14         15         16         17         18
     1  C   -0.000153  -0.000004   0.000003   0.000000  -0.000002   0.000000
     2  C    0.003535   0.000035  -0.000250  -0.000001   0.000042   0.000006
     3  C    0.008744   0.000146   0.000248   0.000004   0.000001  -0.000029
     4  C   -0.000813   0.000006   0.000073  -0.000000  -0.000000  -0.000000
     5  C    0.000009  -0.000000  -0.000000   0.000000   0.000000  -0.000000
     6  C    0.000000  -0.000000   0.000000   0.000000  -0.000000   0.000000
     7  H    0.000006   0.000000  -0.000000  -0.000000   0.000001  -0.000000
     8  H    0.000055   0.000001  -0.000033  -0.000000   0.000000  -0.000000
     9  H   -0.000000   0.000000   0.000000  -0.000000  -0.000000  -0.000000
    10  H   -0.000000  -0.000000   0.000000   0.000000  -0.000000  -0.000000
    11  N   -0.018402   0.003179  -0.015418  -0.000098   0.000210  -0.000489
    12  S   -0.060644  -0.004759   0.003581  -0.000082   0.005653  -0.000093
    13  C    5.316826   0.485063   0.282229  -0.008112  -0.039093  -0.048579
    14  C    0.485063   4.793069  -0.001722   0.527668   0.402263  -0.053719
    15  C    0.282229  -0.001722   4.786865  -0.062405   0.007679   0.505879
    16  C   -0.008112   0.527668  -0.062405   4.755644  -0.035975  -0.018737
    17  H   -0.039093   0.402263   0.007679  -0.035975   0.673900  -0.000747
    18  C   -0.048579  -0.053719   0.505879  -0.018737  -0.000747   4.802996
    19  C   -0.048551  -0.017374  -0.010065   0.490275   0.008408   0.513578
    20  H    0.008771  -0.035913  -0.000267   0.401462  -0.012760   0.008396
    21  H    0.012405  -0.000476  -0.023223   0.007250   0.000042   0.379182
    22  H   -0.001062   0.008979   0.009035  -0.043962  -0.000151  -0.041517
    23  C    0.319613  -0.091385  -0.076948   0.007336  -0.019423   0.006961
    24  O   -0.082857   0.003900   0.524328   0.000016  -0.000058  -0.059747
    25  H   -0.028350  -0.000706  -0.022713  -0.000039   0.000010   0.005160
              19         20         21         22         23         24
     1  C   -0.000000  -0.000000  -0.000000   0.000000   0.004060   0.000001
     2  C    0.000000  -0.000000  -0.000000  -0.000000  -0.053491  -0.000030
     3  C    0.000002  -0.000000   0.000001  -0.000000  -0.123382  -0.002015
     4  C   -0.000000   0.000000  -0.000000  -0.000000   0.001073  -0.000099
     5  C    0.000000   0.000000   0.000000   0.000000   0.000200  -0.000001
     6  C    0.000000  -0.000000   0.000000  -0.000000  -0.000153  -0.000000
     7  H    0.000000  -0.000000  -0.000000   0.000000   0.000059  -0.000000
     8  H    0.000000  -0.000000   0.000000  -0.000000  -0.000900  -0.000255
     9  H   -0.000000   0.000000  -0.000000  -0.000000   0.000008   0.000000
    10  H   -0.000000   0.000000   0.000000  -0.000000   0.000003  -0.000000
    11  N    0.000057   0.000001   0.000021  -0.000000   0.534625  -0.076742
    12  S    0.000019  -0.000001   0.000003  -0.000000   0.318101  -0.000289
    13  C   -0.048551   0.008771   0.012405  -0.001062   0.319613  -0.082857
    14  C   -0.017374  -0.035913  -0.000476   0.008979  -0.091385   0.003900
    15  C   -0.010065  -0.000267  -0.023223   0.009035  -0.076948   0.524328
    16  C    0.490275   0.401462   0.007250  -0.043962   0.007336   0.000016
    17  H    0.008408  -0.012760   0.000042  -0.000151  -0.019423  -0.000058
    18  C    0.513578   0.008396   0.379182  -0.041517   0.006961  -0.059747
    19  C    4.721637  -0.046981  -0.044567   0.406448   0.000436   0.003114
    20  H   -0.046981   0.678650  -0.000164  -0.011951  -0.000331   0.000002
    21  H   -0.044567  -0.000164   0.661042  -0.011885  -0.000412   0.003204
    22  H    0.406448  -0.011951  -0.011885   0.663802   0.000004  -0.000067
    23  C    0.000436  -0.000331  -0.000412   0.000004   5.097111  -0.001045
    24  O    0.003114   0.000002   0.003204  -0.000067  -0.001045   7.537858
    25  H   -0.000196  -0.000001   0.000043   0.000010  -0.000600   0.343146
              25
     1  C   -0.000066
     2  C    0.003224
     3  C   -0.008534
     4  C   -0.001499
     5  C    0.000001
     6  C    0.000012
     7  H    0.000001
     8  H    0.001512
     9  H   -0.000006
    10  H    0.000000
    11  N    0.115534
    12  S    0.002774
    13  C   -0.028350
    14  C   -0.000706
    15  C   -0.022713
    16  C   -0.000039
    17  H    0.000010
    18  C    0.005160
    19  C   -0.000196
    20  H   -0.000001
    21  H    0.000043
    22  H    0.000010
    23  C   -0.000600
    24  O    0.343146
    25  H    0.437363
 Mulliken charges:
               1
     1  C    0.009586
     2  C   -0.231873
     3  C    0.255057
     4  C   -0.017097
     5  C    0.008923
     6  C   -0.006512
     7  H    0.020248
     8  H    0.020353
     9  H    0.020521
    10  H    0.021937
    11  N   -0.343490
    12  S    0.162117
    13  C   -0.100639
    14  C   -0.018250
    15  C    0.093124
    16  C   -0.020243
    17  H    0.010003
    18  C    0.001499
    19  C    0.023761
    20  H    0.011086
    21  H    0.017534
    22  H    0.022317
    23  C    0.078480
    24  O   -0.192364
    25  H    0.153918
 Sum of Mulliken charges =  -0.00000
 Mulliken charges with hydrogens summed into heavy atoms:
               1
     1  C    0.029834
     2  C   -0.231873
     3  C    0.255057
     4  C    0.003256
     5  C    0.029444
     6  C    0.015426
    11  N   -0.343490
    12  S    0.162117
    13  C   -0.100639
    14  C   -0.008247
    15  C    0.093124
    16  C   -0.009156
    18  C    0.019034
    19  C    0.046078
    23  C    0.078480
    24  O   -0.038445
 Electronic spatial extent (au):  <R**2>=           4357.5335
 Charge=             -0.0000 electrons
 Dipole moment (field-independent basis, Debye):
    X=             -0.1087    Y=             -2.2946    Z=             -0.0000  Tot=              2.2972
 Quadrupole moment (field-independent basis, Debye-Ang):
   XX=            -83.3246   YY=            -89.2282   ZZ=           -104.3926
   XY=             -7.0033   XZ=             -0.0001   YZ=              0.0002
 Traceless Quadrupole moment (field-independent basis, Debye-Ang):
   XX=              8.9905   YY=              3.0869   ZZ=            -12.0775
   XY=             -7.0033   XZ=             -0.0001   YZ=              0.0002
 Octapole moment (field-independent basis, Debye-Ang**2):
  XXX=             13.3502  YYY=            -18.6487  ZZZ=             -0.0000  XYY=             -5.4950
  XXY=              1.1402  XXZ=              0.0000  XZZ=              1.1140  YZZ=              2.5483
  YYZ=              0.0007  XYZ=             -0.0007
 Hexadecapole moment (field-independent basis, Debye-Ang**3):
 XXXX=          -2609.9215 YYYY=          -2616.7168 ZZZZ=           -113.6343 XXXY=            806.9012
 XXXZ=              0.0097 YYYX=            763.6062 YYYZ=             -0.0109 ZZZX=              0.0130
 ZZZY=             -0.0186 XXYY=           -850.3397 XXZZ=           -572.8253 YYZZ=           -552.5264
 XXYZ=             -0.0028 YYXZ=             -0.0001 ZZXY=            356.8782
 N-N= 1.095888852629D+03 E-N=-4.603962155028D+03  KE= 1.023740781739D+03
 No NMR shielding tensors so no spin-rotation constants.
 Leave Link  601 at Tue Oct 27 21:23:25 2020, MaxMem=  7784628224 cpu:               2.9 elap:               0.5
 (Enter /gpfs/loomis/apps/avx/software/Gaussian/16-C.01_AVX/g16/l701.exe)
 ... and contract with generalized density number  0.
 Compute integral first derivatives.
 R6Disp: Adding Grimme-D2 dispersion energy 1st derivatives to the gradient.
 D1PCM: PCM CHGder 1st derivatives, ID1Alg=3 FixD1E=F DoIter=F DoCFld=F I1PDM=0.
 GePol: Maximum number of non-zero 1st derivatives   =     273
 Leave Link  701 at Tue Oct 27 21:23:28 2020, MaxMem=  7784628224 cpu:              19.8 elap:               3.4
 (Enter /gpfs/loomis/apps/avx/software/Gaussian/16-C.01_AVX/g16/l702.exe)
 L702 exits ... SP integral derivatives will be done elsewhere.
 Leave Link  702 at Tue Oct 27 21:23:28 2020, MaxMem=  7784628224 cpu:               0.3 elap:               0.1
 (Enter /gpfs/loomis/apps/avx/software/Gaussian/16-C.01_AVX/g16/l703.exe)
 Integral derivatives from FoFJK, PRISM(SPDF).
 Compute integral first derivatives, UseDBF=F ICtDFT=           0.
 Calling FoFJK, ICntrl=      2127 FMM=F ISym2X=0 I1Cent= 0 IOpClX= 0 NMat=1 NMatS=1 NMatT=0.
 FoFJK:  IHMeth= 1 ICntrl=    2127 DoSepK=T KAlg= 0 I1Cent=           0 FoldK=F
 IRaf=         1 NMat=       1 IRICut=       1 DoRegI=T DoRafI=F ISym2E= 0 IDoP0=0 IntGTp=1.
 FoFCou: FMM=F IPFlag=           0 FMFlag=      100000 FMFlg1=         800
         NFxFlg=           0 DoJE=F BraDBF=F KetDBF=F FulRan=T
         wScrn=  0.000000 ICntrl=      2527 IOpCl=  0 I1Cent=           0 NGrid=           0
         NMat0=    1 NMatS0=      1 NMatT0=    0 NMatD0=    1 NMtDS0=    0 NMtDT0=    0
 Symmetry not used in FoFCou.
 Leave Link  703 at Tue Oct 27 21:23:47 2020, MaxMem=  7784628224 cpu:             136.9 elap:              18.5
 (Enter /gpfs/loomis/apps/avx/software/Gaussian/16-C.01_AVX/g16/l716.exe)
 Dipole        =-4.27574566D-02-9.02773134D-01-2.46462665D-06
 -------------------------------------------------------------------
 Center     Atomic                   Forces (Hartrees/Bohr)
 Number     Number              X              Y              Z
 -------------------------------------------------------------------
      1        6           0.004581426   -0.003864909    0.000000025
      2        6           0.005059658    0.011381814   -0.000000062
      3        6           0.017829520   -0.034890204   -0.000000184
      4        6          -0.012006385    0.000841687   -0.000000050
      5        6          -0.000054227   -0.005824086   -0.000000012
      6        6          -0.005131164    0.002778602    0.000000010
      7        1           0.000561537    0.000715472   -0.000000039
      8        1          -0.000445887   -0.000972422   -0.000000007
      9        1          -0.000789698   -0.000134884   -0.000000001
     10        1          -0.000647518    0.000473578    0.000000010
     11        7          -0.054891563    0.006171231    0.000000314
     12       16           0.006081917    0.013302904    0.000000078
     13        6          -0.015439751    0.050513061    0.000000730
     14        6           0.004607793    0.008487344    0.000000728
     15        6          -0.019824896   -0.029960131   -0.000000581
     16        6          -0.001171633   -0.002168780   -0.000000064
     17        1          -0.000932745   -0.000144412    0.000000060
     18        6          -0.005293640   -0.004290219   -0.000000069
     19        6           0.008028193   -0.015774235   -0.000000607
     20        1           0.000819475   -0.000243140   -0.000000024
     21        1          -0.000583730   -0.000616666    0.000000014
     22        1          -0.000036378   -0.000119251   -0.000000078
     23        6           0.052900983   -0.014519425   -0.000000534
     24        8           0.007900921    0.021495852    0.000000642
     25        1           0.008877791   -0.002638779   -0.000000299
 -------------------------------------------------------------------
 Cartesian Forces:  Max     0.054891563 RMS     0.013351209
 Leave Link  716 at Tue Oct 27 21:23:47 2020, MaxMem=  7784628224 cpu:               0.7 elap:               0.1
 (Enter /gpfs/loomis/apps/avx/software/Gaussian/16-C.01_AVX/g16/l103.exe)

 GradGradGradGradGradGradGradGradGradGradGradGradGradGradGradGradGradGrad
 Berny optimization.
 FormGI is forming the generalized inverse of G from B-inverse, IUseBI=4.
 Internal  Forces:  Max     0.043784915 RMS     0.006774826
 Search for a local minimum.
 Step number   1 out of a maximum of  143
 All quantities printed in internal units (Hartrees-Bohrs-Radians)
 RMS Force = .68263D-02 SwitMx=.10000D-02 MixMth= 1
 Mixed Optimization -- RFO/linear search
 Second derivative matrix not updated -- first step.
 ITU=  0
     Eigenvalues ---    0.01313   0.01352   0.01560   0.01639   0.01745
     Eigenvalues ---    0.01775   0.01830   0.01972   0.01973   0.01993
     Eigenvalues ---    0.02022   0.02027   0.02033   0.02062   0.02085
     Eigenvalues ---    0.02104   0.02118   0.02128   0.02138   0.02161
     Eigenvalues ---    0.02194   0.02976   0.16000   0.16000   0.16000
     Eigenvalues ---    0.16000   0.16000   0.16000   0.16000   0.16003
     Eigenvalues ---    0.16080   0.22000   0.22030   0.22522   0.22586
     Eigenvalues ---    0.24467   0.24557   0.25000   0.25000   0.25000
     Eigenvalues ---    0.26689   0.28699   0.31844   0.34551   0.34560
     Eigenvalues ---    0.34564   0.34575   0.34586   0.34610   0.34634
     Eigenvalues ---    0.34721   0.37470   0.39320   0.40924   0.41629
     Eigenvalues ---    0.41949   0.42957   0.43676   0.44333   0.45316
     Eigenvalues ---    0.45517   0.45828   0.46579   0.47997   0.50663
     Eigenvalues ---    0.55373   0.662681000.000001000.000001000.00000
     Eigenvalues --- 1000.000001000.000001000.000001000.000001000.00000
     Eigenvalues --- 1000.000001000.000001000.000001000.000001000.00000
     Eigenvalues --- 1000.000001000.000001000.000001000.000001000.00000
     Eigenvalues --- 1000.000001000.000001000.000001000.000001000.00000
     Eigenvalues --- 1000.000001000.000001000.000001000.000001000.00000
     Eigenvalues --- 1000.000001000.000001000.000001000.000001000.00000
     Eigenvalues --- 1000.000001000.000001000.000001000.000001000.00000
     Eigenvalues --- 1000.000001000.000001000.000001000.000001000.00000
     Eigenvalues --- 1000.000001000.000001000.000001000.000001000.00000
     Eigenvalues --- 1000.000001000.000001000.000001000.000001000.00000
     Eigenvalues --- 1000.000001000.000001000.000001000.000001000.00000
     Eigenvalues --- 1000.000001000.000001000.000001000.000001000.00000
     Eigenvalues --- 1000.000001000.000001000.00000
 RFO step:  Lambda=-1.42871956D-02 EMin= 1.31324118D-02
 Linear search not attempted -- first point.
 Iteration  1 RMS(Cart)=  0.02690720 RMS(Int)=  0.00060077
 Iteration  2 RMS(Cart)=  0.00059691 RMS(Int)=  0.00018715
 Iteration  3 RMS(Cart)=  0.00000030 RMS(Int)=  0.00018685
 Iteration  1 RMS(Cart)=  0.00000210 RMS(Int)=  0.00000056
 Iteration  2 RMS(Cart)=  0.00000001 RMS(Int)=  0.00000050
 ITry= 1 IFail=0 DXMaxC= 1.94D-01 DCOld= 1.00D+10 DXMaxT= 3.00D-01 DXLimC= 3.00D+00 Rises=F
 Variable       Old X    -DE/DX   Delta X   Delta X   Delta X     New X
                                 (Linear)    (Quad)   (Total)
    R1        2.63488   0.00177   0.00000   0.00346   0.00336   2.63823
    R2        2.64220  -0.00588   0.00000  -0.01215  -0.01228   2.62992
    R3        2.06370  -0.00103   0.00000  -0.00286  -0.00287   2.06083
    R4        2.69502  -0.01899   0.00000  -0.04206  -0.04202   2.65301
    R5        3.33267  -0.00167   0.00000  -0.00347  -0.00354   3.32914
    R6        2.67708  -0.01222   0.00000  -0.02792  -0.02783   2.64925
    R7        2.52458   0.02504   0.00000   0.04287   0.04313   2.56771
    R8        2.61170   0.00111   0.00000   0.00248   0.00260   2.61430
    R9        2.06352  -0.00100   0.00000  -0.00279  -0.00279   2.06074
   R10        2.66406  -0.00475   0.00000  -0.01006  -0.01013   2.65394
   R11        2.06410  -0.00077   0.00000  -0.00215  -0.00216   2.06194
   R12        2.06313  -0.00078   0.00000  -0.00217  -0.00217   2.06096
   R13        2.56606  -0.04378   0.00000  -0.08151  -0.08143   2.48463
   R14        3.37614  -0.00797   0.00000  -0.03342  -0.03394   3.34220
   R15        2.67288  -0.00579   0.00000  -0.01358  -0.01366   2.65922
   R16        2.80806  -0.02559   0.00000  -0.07464  -0.07520   2.73286
   R17        2.68259   0.02181   0.00000   0.04857   0.04820   2.73078
   R18        2.63996  -0.01109   0.00000  -0.02331  -0.02324   2.61672
   R19        2.06396   0.00043   0.00000   0.00119   0.00119   2.06515
   R20        2.66206  -0.00336   0.00000  -0.00693  -0.00685   2.65521
   R21        2.46218   0.01817   0.00000   0.02660   0.02647   2.48865
   R22        2.67177  -0.01292   0.00000  -0.02870  -0.02873   2.64305
   R23        2.06388  -0.00077   0.00000  -0.00212  -0.00211   2.06176
   R24        2.62642  -0.00515   0.00000  -0.00989  -0.00978   2.61664
   R25        2.06273  -0.00077   0.00000  -0.00213  -0.00214   2.06059
   R26        2.06130   0.00003   0.00000   0.00009   0.00009   2.06139
   R27        1.90317   0.01473   0.00000   0.03200   0.03246   1.93563
    A1        2.06934  -0.00225   0.00000  -0.00661  -0.00656   2.06278
    A2        2.11166   0.00135   0.00000   0.00449   0.00445   2.11611
    A3        2.10219   0.00090   0.00000   0.00212   0.00211   2.10430
    A4        2.10510   0.00185   0.00000   0.00436   0.00448   2.10958
    A5        2.26493   0.00520   0.00000   0.01443   0.01408   2.27902
    A6        1.91315  -0.00705   0.00000  -0.01879  -0.01856   1.89459
    A7        2.09431   0.00312   0.00000   0.00796   0.00783   2.10214
    A8        2.00498  -0.00304   0.00000  -0.00681  -0.00691   1.99807
    A9        2.18389  -0.00008   0.00000  -0.00116  -0.00091   2.18298
   A10        2.07157  -0.00020   0.00000  -0.00077  -0.00076   2.07080
   A11        2.08140   0.00005   0.00000   0.00020   0.00021   2.08162
   A12        2.13021   0.00015   0.00000   0.00057   0.00055   2.13077
   A13        2.11237  -0.00169   0.00000  -0.00474  -0.00472   2.10765
   A14        2.08799   0.00077   0.00000   0.00201   0.00200   2.08999
   A15        2.08283   0.00092   0.00000   0.00274   0.00272   2.08555
   A16        2.11368  -0.00083   0.00000  -0.00020  -0.00026   2.11342
   A17        2.08212   0.00032   0.00000  -0.00052  -0.00050   2.08162
   A18        2.08739   0.00051   0.00000   0.00072   0.00076   2.08814
   A19        1.99332   0.00528   0.00000   0.01573   0.01563   2.00895
   A20        1.55725   0.00482   0.00000   0.01646   0.01641   1.57367
   A21        2.02800   0.00814   0.00000   0.03180   0.03229   2.06029
   A22        2.20728  -0.00718   0.00000  -0.02535  -0.02511   2.18216
   A23        2.04791  -0.00096   0.00000  -0.00646  -0.00718   2.04073
   A24        2.11483   0.00282   0.00000   0.01107   0.01115   2.12598
   A25        2.08010  -0.00046   0.00000  -0.00017  -0.00022   2.07988
   A26        2.08826  -0.00236   0.00000  -0.01091  -0.01093   2.07733
   A27        2.10911  -0.00911   0.00000  -0.03504  -0.03517   2.07394
   A28        2.10273   0.01366   0.00000   0.04825   0.04749   2.15022
   A29        2.07135  -0.00455   0.00000  -0.01321  -0.01232   2.05903
   A30        2.12906  -0.00890   0.00000  -0.03832  -0.03837   2.09069
   A31        2.07393   0.00433   0.00000   0.01844   0.01845   2.09238
   A32        2.08020   0.00456   0.00000   0.01988   0.01991   2.10011
   A33        2.10398   0.00283   0.00000   0.01197   0.01171   2.11569
   A34        2.04498  -0.00124   0.00000  -0.00489  -0.00475   2.04023
   A35        2.13423  -0.00159   0.00000  -0.00708  -0.00696   2.12727
   A36        2.08140   0.00422   0.00000   0.01851   0.01838   2.09978
   A37        2.09833  -0.00213   0.00000  -0.00949  -0.00944   2.08889
   A38        2.10346  -0.00209   0.00000  -0.00902  -0.00894   2.09452
   A39        1.95607  -0.00000   0.00000  -0.00659  -0.00657   1.94949
   A40        2.08242  -0.00397   0.00000  -0.01173  -0.01170   2.07072
   A41        2.24470   0.00398   0.00000   0.01832   0.01828   2.26297
   A42        1.85553   0.01018   0.00000   0.05738   0.05716   1.91269
    D1        0.00000   0.00000   0.00000   0.00000   0.00000   0.00000
    D2       -3.14159   0.00000   0.00000   0.00000   0.00000  -3.14159
    D3        3.14159   0.00000   0.00000   0.00000   0.00000  -3.14159
    D4       -0.00000   0.00000   0.00000   0.00000   0.00000   0.00000
    D5       -0.00000   0.00000   0.00000   0.00000   0.00000   0.00000
    D6        3.14159   0.00000   0.00000   0.00000   0.00000   3.14159
    D7       -3.14159   0.00000   0.00000   0.00000   0.00000  -3.14159
    D8        0.00000  -0.00000   0.00000  -0.00000  -0.00000   0.00000
    D9       -0.00000  -0.00000   0.00000  -0.00000  -0.00000  -0.00000
   D10        3.14159  -0.00000   0.00000  -0.00000  -0.00000   3.14159
   D11        3.14159  -0.00000   0.00000  -0.00000  -0.00000   3.14159
   D12       -0.00000  -0.00000   0.00000  -0.00000  -0.00000  -0.00001
   D13        3.14159   0.00000   0.00000   0.00001   0.00001  -3.14159
   D14       -0.00000   0.00000   0.00000   0.00001   0.00001   0.00001
   D15        0.00000   0.00000   0.00000   0.00000   0.00000   0.00000
   D16       -3.14159   0.00000   0.00000   0.00000   0.00000  -3.14159
   D17       -3.14159   0.00000   0.00000   0.00000   0.00000  -3.14159
   D18        0.00000   0.00000   0.00000   0.00000   0.00000   0.00000
   D19        0.00000  -0.00000   0.00000  -0.00000  -0.00000   0.00000
   D20       -3.14159  -0.00000   0.00000  -0.00000  -0.00000  -3.14159
   D21        0.00000   0.00000   0.00000   0.00000   0.00000   0.00000
   D22       -3.14159  -0.00000   0.00000  -0.00000  -0.00000   3.14159
   D23       -3.14159   0.00000   0.00000   0.00000   0.00000  -3.14159
   D24        0.00000   0.00000   0.00000   0.00000   0.00000   0.00000
   D25       -0.00000  -0.00000   0.00000  -0.00000  -0.00000  -0.00000
   D26       -3.14159  -0.00000   0.00000  -0.00000  -0.00000   3.14159
   D27        3.14159  -0.00000   0.00000  -0.00000  -0.00000   3.14159
   D28       -0.00000   0.00000   0.00000   0.00000   0.00000   0.00000
   D29       -0.00000   0.00000   0.00000   0.00001   0.00001   0.00000
   D30        3.14158   0.00000   0.00000   0.00000   0.00000   3.14159
   D31        0.00000  -0.00000   0.00000  -0.00001  -0.00001  -0.00000
   D32       -3.14158  -0.00000   0.00000  -0.00001  -0.00001  -3.14159
   D33       -0.00001  -0.00000   0.00000  -0.00000  -0.00000  -0.00001
   D34        3.14159  -0.00000   0.00000  -0.00000  -0.00000   3.14159
   D35        3.14158  -0.00000   0.00000  -0.00000  -0.00000   3.14158
   D36       -0.00001  -0.00000   0.00000  -0.00000  -0.00000  -0.00001
   D37        0.00001   0.00000   0.00000   0.00000   0.00000   0.00001
   D38       -3.14158   0.00000   0.00000   0.00001   0.00001  -3.14158
   D39       -3.14158   0.00000   0.00000   0.00000   0.00000  -3.14158
   D40        0.00001   0.00000   0.00000   0.00001   0.00001   0.00002
   D41        3.14158   0.00000   0.00000   0.00001   0.00001   3.14159
   D42       -0.00002   0.00000   0.00000   0.00000   0.00000  -0.00002
   D43       -0.00002   0.00000   0.00000   0.00000   0.00000  -0.00001
   D44        3.14157   0.00000   0.00000   0.00000   0.00000   3.14157
   D45        0.00000  -0.00000   0.00000  -0.00000  -0.00000  -0.00000
   D46       -3.14159  -0.00000   0.00000  -0.00000  -0.00000  -3.14159
   D47        3.14159  -0.00000   0.00000  -0.00000  -0.00000   3.14159
   D48        0.00000  -0.00000   0.00000  -0.00000  -0.00000  -0.00000
   D49       -0.00000  -0.00000   0.00000  -0.00000  -0.00000  -0.00001
   D50        3.14159  -0.00000   0.00000  -0.00000  -0.00000   3.14159
   D51        3.14159  -0.00000   0.00000  -0.00001  -0.00001   3.14158
[...]
 -0.00075269,0.00115963,0.00000004,0.00167240,-0.00095951,0.00000002,-0
 .00002287,0.00114449,-0.00000013,-0.00076946,-0.00004621,-0.00000003,-
 0.00009586,-0.00121578,0.,0.00141425,-0.00000959,0.00000003,-0.0000520
 0,-0.00007492,0.,0.00003207,0.00004839,0.,0.00011534,-0.00004766,0.,0.
 00007048,-0.00003366,0.,0.00728996,0.00464995,-0.00000077,-0.00175956,
 -0.00151143,0.00000006,0.07107307,0.03115114,-0.00000086,0.07943799,-0
 .27274040,-0.00001121,0.02409324,-0.07384801,-0.00000450,0.00338753,0.
 67547066,-0.00000002,0.00000003,0.00003794,0.00000003,-0.00000005,0.00
 028941,0.,0.00000010,-0.00072418,0.,-0.00000002,-0.00011651,0.,-0.0000
 0003,0.00006574,0.00000004,-0.00000001,-0.00001295,0.,0.,-0.00000099,0
 .,0.,-0.00000121,0.,0.,0.00001507,0.,0.,-0.00002054,0.00000057,0.00000
 016,0.00021338,-0.00000007,-0.00000009,-0.00057129,0.00000424,0.000000
 23,0.00770445,0.00000924,-0.00001429,-0.06334305,0.00000095,-0.0000035
 4,-0.00468086,-0.00001926,0.00002737,0.12706034,0.00023924,0.00004935,
 0.,-0.00060576,0.00025300,-0.00000006,0.00030244,-0.00008194,0.,0.0000
 1147,0.00003013,0.,0.00004343,0.00005073,0.,-0.00005628,-0.00007753,0.
 ,-0.00001361,-0.00000823,0.,0.00003384,0.00000640,0.,0.00001020,-0.000
 00054,0.,0.00002787,-0.00000495,0.,0.00026044,0.00043634,-0.00000005,-
 0.00043549,0.00142915,0.00000018,-0.00608466,-0.02836304,-0.00000083,-
 0.10048228,-0.10055188,-0.00000199,-0.00532340,0.00166893,0.00000041,0
 .01131682,0.01854945,0.00000052,0.10200104,-0.00001012,-0.00005413,0.,
 -0.00007759,0.00042198,0.,0.00019826,-0.00010869,0.,0.00001200,0.00004
 167,0.,0.00000636,0.00004946,0.,-0.00006979,0.00002177,0.,-0.00000445,
 0.00001235,0.,0.00001247,-0.00000397,0.,-0.00000667,0.00000269,0.,-0.0
 0000711,0.00000280,0.,-0.00059859,0.00017185,-0.00000004,-0.00025364,0
 .00018646,0.00000011,0.00115373,-0.00026523,-0.00000008,-0.09858211,-0
 .29808279,-0.00000650,0.00031781,0.00197338,-0.00000021,-0.01353656,-0
 .01688924,-0.00000035,0.10637025,0.31513064,-0.00000002,0.,-0.00000107
 ,0.00000007,0.,-0.00045351,-0.00000001,-0.00000003,0.00015850,-0.00000
 002,0.,0.00007836,0.,-0.00000001,-0.00002154,0.00000001,0.,0.00002228,
 0.,0.,-0.00001028,0.,0.,-0.00001486,0.,0.,-0.00000612,0.,0.,0.00001514
 ,-0.00000009,-0.00000002,-0.00007242,0.00000007,0.00000010,0.00093235,
 0.00000067,0.00000096,0.00317924,-0.00000227,-0.00000578,-0.03761184,0
 .00000029,-0.00000044,0.00613600,-0.00000052,-0.00000215,0.00480231,0.
 00000152,0.00000723,0.02486652,0.00000868,0.00057202,0.00000004,0.0006
 2622,-0.00007631,0.00000003,0.00169922,-0.00015608,-0.00000011,-0.0006
 0021,-0.00007322,-0.00000004,-0.00000032,-0.00059084,0.,0.00054583,-0.
 00000321,0.,-0.00005104,0.00000827,0.,0.00010845,0.00001162,0.,0.00003
 994,-0.00001681,0.,0.00003744,0.00000263,0.,0.00311620,0.00788714,-0.0
 0000149,0.00025581,-0.00000882,0.00000010,0.05771848,0.02608661,0.0000
 0025,-0.06015785,0.02850755,0.00000305,-0.17159898,0.05370373,0.000007
 27,-0.01091405,-0.08702923,-0.00000329,-0.00076113,0.00060304,-0.00000
 030,0.75408480,0.00047810,-0.00038362,0.,-0.00115758,-0.00017536,-0.00
 000002,-0.00053904,0.00007963,0.00000013,0.00053305,0.00000578,0.00000
 002,0.00006846,0.00062959,0.,-0.00060563,-0.00011927,-0.00000001,0.000
 00324,0.00002674,0.,-0.00001075,-0.00000981,0.,-0.00003225,0.00001957,
 0.,0.00000376,0.00000271,0.,-0.00171862,-0.00187777,0.00000037,0.00147
 837,-0.00015005,0.00000003,-0.00664401,-0.03573980,-0.00000182,0.02333
 636,-0.01360228,-0.00000129,0.11709562,-0.26302937,-0.00001475,-0.0361
 8922,0.02295743,0.00000175,0.00033550,0.00051180,0.00000028,0.04839445
 ,0.71976959,0.00000006,-0.00000009,-0.00017216,-0.00000015,0.00000009,
 -0.00008276,-0.00000004,-0.00000016,-0.00064318,0.00000005,0.,0.000029
 33,0.00000002,0.00000009,0.00001123,-0.00000010,0.,0.00002527,0.,0.,-0
 .00002790,-0.00000002,0.,-0.00001830,0.,0.,-0.00001025,0.,0.,0.0000385
 2,-0.00000020,-0.00000018,0.00139065,0.00000001,-0.00000017,-0.0002295
 5,-0.00000184,-0.00000221,0.00779810,0.00000286,-0.00000164,-0.0032746
 9,0.00000957,-0.00001313,-0.07112106,-0.00000083,0.00000353,0.00820015
 ,0.,0.00000007,-0.00089673,-0.00002695,0.00002492,0.12420930,0.0005231
 5,-0.00083848,-0.00000004,-0.00146613,0.00046015,-0.00000004,-0.000717
 47,-0.00014163,0.00000013,0.00082442,0.00004112,0.00000003,0.00004829,
 0.00103497,0.,-0.00106806,-0.00006089,-0.00000002,0.00003703,0.0000533
 3,0.,-0.00004336,-0.00003935,0.,-0.00008526,0.00003998,0.,-0.00004744,
 0.00002124,0.,-0.00406601,-0.00367180,0.00000067,0.00122286,0.00054316
 ,-0.00000002,-0.04415921,-0.01864059,0.00000028,0.06612240,-0.01180248
 ,-0.00000248,-0.05114376,0.06492325,0.00000540,-0.15910798,-0.03690773
 ,0.00000060,-0.00198703,0.00428333,0.00000081,-0.38387733,-0.07212392,
 0.00000951,0.73617526,0.00022637,-0.00035582,-0.00000002,-0.00045709,0
 .00031485,-0.00000002,0.00001037,-0.00073266,0.,0.00010812,0.00009532,
 0.00000001,0.00003122,0.00029950,0.,-0.00041189,0.00003104,0.,0.000019
 97,0.00001340,0.,-0.00002132,-0.00001072,0.,-0.00003501,0.00001585,0.,
 -0.00001761,0.00000774,0.,-0.00437408,-0.00257151,0.00000057,0.0005097
 2,0.00041244,-0.00000005,-0.03913794,-0.02030552,-0.00000006,0.0454168
 9,-0.06048173,-0.00000458,0.01105085,0.05912726,0.00000204,-0.11147346
 ,-0.30551960,-0.00000994,0.00342298,-0.00245553,-0.00000033,-0.0003824
 9,-0.13828893,-0.00000264,-0.03222437,0.71769274,-0.00000002,0.0000000
 3,0.00001092,0.00000005,-0.00000002,0.00001651,0.00000002,-0.00000002,
 0.00022780,-0.00000003,0.,0.00000465,0.,-0.00000004,-0.00001692,0.0000
 0003,0.,0.00000255,0.,0.,0.00000185,0.,0.,0.00000859,0.,0.,-0.00000084
 ,0.,0.,-0.00000716,-0.00000009,-0.00000006,-0.00029787,-0.00000002,0.0
 0000002,0.00000854,-0.00000033,-0.00000003,-0.00398102,-0.00000023,-0.
 00000264,0.00685948,0.00000284,-0.00000002,-0.00023150,-0.00000283,-0.
 00001278,-0.06354158,0.00000046,-0.00000054,0.00749994,0.00001139,-0.0
 0000047,-0.05857072,-0.00002240,0.00003116,0.14287262,0.00002084,-0.00
 007155,0.,-0.00006775,0.00012097,0.,-0.00002878,-0.00005956,0.,0.00004
 628,0.00003222,0.,-0.00000888,0.00006450,0.,-0.00007812,0.00000940,0.,
 0.00000272,0.00000970,0.,0.00000211,-0.00000638,0.,-0.00001119,0.00000
 609,0.,-0.00000900,0.00000532,0.,-0.00042570,0.00032248,-0.00000001,0.
 00002340,0.00005916,0.,0.00021831,0.00352851,0.00000037,-0.01352571,-0
 .00643443,0.00000017,0.00054672,0.00013389,-0.00000004,-0.34236834,-0.
 04018173,0.00000799,0.00077008,0.00008692,-0.00000016,0.00131562,-0.00
 218985,0.00000004,-0.00694345,0.00265641,0.00000045,0.36057075,-0.0000
 0308,0.00002766,0.,0.00003430,-0.00006421,0.,0.00008511,0.00005123,0.0
 0000002,-0.00001329,-0.00004062,0.,0.00001224,-0.00001774,0.,0.0000270
 7,-0.00000577,0.,-0.00000036,-0.00000425,0.,0.00000103,0.00000253,0.,0
 .00000511,-0.00000447,0.,0.00000360,-0.00000165,0.,0.00042769,-0.00022
 499,0.,0.00000853,0.00003484,0.,0.00228646,-0.00369630,-0.00000056,0.0
 2591305,0.00675587,-0.00000058,0.00041314,-0.00155012,-0.00000006,-0.0
 4084099,-0.06332099,-0.00000031,-0.00024146,0.00095410,0.00000027,-0.0
 0114408,-0.00506101,-0.00000057,-0.02955729,0.00101559,0.00000094,0.04
 298403,0.06318784,0.,0.,-0.00000303,0.,0.,-0.00001871,0.00000001,0.,-0
 .00020979,0.,0.,-0.00000902,0.,0.,0.00001701,0.,0.,-0.00000461,0.,0.,0
 .00000048,0.,0.,-0.00000538,0.,0.,0.00000315,0.,0.,0.00000447,0.000000
 02,-0.00000007,-0.00013774,0.,0.,0.00002955,0.00000035,-0.00000039,0.0
 0726161,0.00000158,0.00000056,0.00151830,-0.00000009,-0.00000013,-0.00
 074918,0.00000814,-0.00000021,-0.03294308,-0.00000017,0.00000019,-0.00
 461707,0.00000033,-0.00000063,0.00622073,-0.00000146,-0.00000026,0.001
 59180,-0.00000871,0.00000057,0.02482155,-0.00004377,-0.00000513,0.,0.0
 0002709,0.00008640,0.,-0.00002710,0.00000569,0.,-0.00000802,0.00000534
 ,0.,-0.00000879,-0.00002171,0.,0.00001945,0.00001209,0.,0.00000228,-0.
 00000255,0.,-0.00000753,0.00000129,0.,0.00000090,0.00000004,0.,-0.0000
 0320,-0.00000164,0.,0.00013904,-0.00024347,0.00000006,-0.00024115,0.00
 003400,-0.00000001,-0.00194948,0.00243090,0.00000044,-0.00117230,0.000
 60951,0.00000004,0.00964441,0.01895107,0.00000064,-0.00521433,0.000400
 36,0.00000057,0.00008733,-0.00009762,-0.00000004,-0.10140731,-0.105382
 57,-0.00000127,-0.00557765,-0.02893769,-0.00000083,-0.00045496,-0.0013
 8561,-0.00000008,0.10306610,0.00002527,0.00009104,0.,-0.00002116,-0.00
 014196,0.,0.00009123,0.00007240,0.,-0.00004303,-0.00001921,0.,0.000012
 12,-0.00005207,0.,0.00006213,-0.00002178,0.,-0.00000659,-0.00000193,0.
 ,0.00000802,0.00000448,0.,0.00000971,-0.00000418,0.,0.00001160,-0.0000
 0261,0.,0.00012110,0.00050133,-0.00000006,0.00022492,-0.00021000,0.,0.
 00378700,-0.00236882,-0.00000047,0.00108348,0.00030576,0.00000002,-0.0
 1453097,-0.01817130,-0.00000022,-0.00018505,0.00206874,-0.00000020,-0.
 00006778,-0.00006118,0.00000004,-0.10323908,-0.30288832,-0.00000658,0.
 00202229,0.00102101,-0.00000016,0.00009522,-0.00004938,-0.00000001,0.1
 1281921,0.31792323,0.,0.,0.00001963,0.,-0.00000002,-0.00001720,0.,0.,-
 0.00003605,0.,0.,0.00000096,0.,0.,-0.00000322,0.,0.,0.00000105,0.,0.,0
 .00000169,0.,0.,0.00000388,0.,0.,0.00000257,0.,0.,-0.00000274,-0.00000
 004,0.00000005,0.00003554,0.00000004,-0.00000002,-0.00004102,0.0000002
 9,-0.00000065,0.00528001,0.00000054,-0.00000010,-0.00086061,-0.0000014
 0,-0.00000108,0.00482149,0.00000040,0.00000016,0.00763408,-0.00000003,
 0.00000003,-0.00075276,-0.00000023,-0.00000661,-0.03474762,-0.00000021
 ,0.00000083,0.00244457,0.00000004,0.00000004,0.00047062,0.00000122,0.0
 0000708,0.02460440,0.00001945,-0.00003434,0.,-0.00003480,0.00009439,0.
 ,0.00009038,-0.00005999,0.,0.00001558,0.00000984,0.,-0.00000056,0.0000
 3548,0.,-0.00004435,0.00000589,0.,0.00000046,0.00000536,0.,0.00000503,
 -0.00000360,0.,-0.00000690,0.00000306,0.,-0.00000446,0.00000350,0.,-0.
 00010216,0.00023875,-0.00000005,-0.00000026,0.00016387,0.00000001,-0.0
 0089249,-0.00049813,-0.00000002,0.00049028,-0.00293880,0.00000002,-0.0
 0419315,-0.00256976,0.00000040,0.01040206,-0.01062612,-0.00000080,0.00
 038040,-0.00056856,-0.00000003,-0.01237478,0.02647136,0.00000185,-0.16
 547301,0.13707134,0.00001108,0.00067098,0.00042098,-0.00000009,0.00107
 392,-0.00024727,-0.00000026,0.17129737,0.00001417,0.00002226,0.,-0.000
 05050,-0.00000818,0.,-0.00000059,0.00003171,0.,-0.00000349,-0.00000604
 ,0.,0.00000672,-0.00000866,0.,0.00001348,-0.00001137,0.,-0.00000276,-0
 .00000352,0.,0.00000088,0.00000331,0.,0.00000527,-0.00000163,0.,0.0000
 0574,-0.00000306,0.,0.00012302,-0.00011294,0.00000002,-0.00003692,-0.0
 0000079,0.,-0.00085801,0.00027033,0.00000010,-0.00344873,-0.00432002,-
 0.00000045,-0.00215949,0.00116829,-0.00000028,0.02054038,-0.01525853,-
 0.00000168,0.00095244,-0.00106221,-0.00000007,-0.00533496,0.00634623,0
 .00000023,0.13777454,-0.23816018,-0.00001480,-0.00015303,0.00101344,0.
 00000024,0.00019614,0.00068978,0.00000025,-0.14781212,0.24893024,0.,0.
 ,-0.00000773,0.00000001,0.,-0.00003982,0.,0.00000002,0.00012098,0.,0.,
 0.00000471,0.,0.,-0.00000532,0.,0.,-0.00000216,0.,0.,0.00000334,0.,0.,
 0.00000079,0.,0.,0.00000015,0.,0.,0.00000399,0.,-0.00000006,-0.0002006
 9,0.,0.00000002,0.00014301,-0.00000009,0.00000013,-0.00102345,-0.00000
 017,-0.00000048,0.00654697,0.00000049,-0.00000020,0.00895575,0.0000009
 4,-0.00000087,0.00443514,0.00000005,-0.00000005,-0.00015919,0.00000057
 ,-0.00000077,0.00489295,0.00001103,-0.00001458,-0.04083288,-0.00000016
 ,0.00000023,-0.00362679,-0.00000026,0.00000023,-0.00472680,-0.00001229
 ,0.00001637,0.02686743,-0.00312130,-0.00671119,-0.00000023,-0.00349875
 ,0.01684927,0.,-0.09117634,0.04246644,-0.00000286,0.01631549,-0.002820
 58,0.00000024,-0.00384680,0.00981451,0.00000012,-0.00482517,-0.0055970
 4,-0.00000027,0.00045571,-0.00096866,0.,-0.00042254,-0.00014431,-0.000
 00003,0.00021736,0.00009506,0.00000003,-0.00074343,-0.00012364,0.,-0.4
 4455068,-0.06548951,-0.00001565,-0.04903234,-0.02219006,-0.00000021,-0
 .14404900,0.06572343,0.00000302,-0.03801646,0.03107544,0.00000114,0.03
 486986,0.01146682,-0.00000166,-0.00129913,-0.01518449,-0.00000074,0.00
 085645,0.00103290,0.00000010,-0.00510374,-0.00029963,0.00000004,0.0058
 0378,0.00498173,0.00000003,-0.00023560,0.00082995,0.00000013,0.0002969
 3,-0.00124288,-0.00000005,0.00027172,-0.00000693,0.00000003,0.75327829
 ,0.00221891,-0.00291048,0.00000008,0.02864376,-0.02487111,0.00000059,0
 .01371305,0.00696491,0.00000079,0.00875176,-0.00839323,0.00000018,-0.0
 0188536,0.00632353,0.00000002,-0.00370873,-0.00473868,-0.00000020,0.00
 031734,-0.00079730,0.00000001,-0.00045301,0.00010349,-0.00000001,0.000
 23777,-0.00032695,0.,-0.00043656,0.00003625,-0.00000002,-0.08439026,-0
 .13199860,-0.00000172,0.00480451,-0.12792106,-0.00000052,0.05816310,-0
 .18406213,-0.00000278,0.01736337,0.00589241,0.00000025,0.00984893,-0.0
 3742649,-0.00000024,-0.00638117,0.01294980,0.00000076,-0.00183753,-0.0
 0013705,0.,0.00088844,-0.00771880,-0.00000030,-0.00821245,-0.00558288,
 0.00000004,-0.00103565,0.00078947,0.00000005,0.00115860,-0.00049429,-0
 .00000017,-0.00031290,0.00015067,0.,-0.04100046,0.49728331,0.00000020,
 -0.00000044,-0.00010886,-0.00000059,0.00000005,0.00428025,-0.00000264,
 0.00000166,0.00447509,0.00000093,-0.00000036,0.00316152,-0.00000014,0.
 00000073,0.00052726,-0.00000054,-0.00000035,0.00082123,0.00000003,-0.0
 0000002,-0.00037035,0.,0.,-0.00029560,0.00000001,0.00000001,-0.0004928
 8,-0.00000003,0.,-0.00000304,-0.00001342,-0.00000377,-0.06453268,0.000
 00032,-0.00000142,-0.03787727,0.00000053,-0.00000032,-0.05330388,0.000
 00064,-0.00000054,-0.00346996,0.00000018,-0.00000140,0.00304830,0.0000
 0034,0.00000019,0.00666335,-0.00000011,0.00000016,-0.00331441,0.000000
 12,-0.00000052,0.00450799,-0.00000024,0.00000002,-0.00096117,0.0000000
 4,-0.00000009,0.00105027,0.,-0.00000003,-0.00006982,-0.00000004,0.0000
 0004,-0.00079579,0.00001337,0.00000485,0.13732488,-0.00050966,0.002168
 83,0.00000011,0.00204443,0.00140112,0.00000008,0.00950538,-0.00102830,
 -0.00000005,-0.00219161,0.00007951,-0.00000014,-0.00003283,-0.00211807
 ,-0.00000003,0.00201092,0.00037973,0.00000005,-0.00019006,0.00015566,0
 .,0.00035980,-0.00001721,-0.00000002,0.00002084,-0.00001057,0.,0.00005
 105,0.00006987,0.,0.01603625,0.04154901,-0.00000533,-0.00011839,0.0009
 1567,0.00000010,-0.01756516,-0.03579365,0.00000235,-0.00868027,0.00425
 769,0.00000066,-0.36260859,-0.07113572,0.00001828,-0.00594294,-0.01599
 643,-0.00000063,-0.00113035,-0.00044963,-0.00000008,-0.07227417,0.0132
 9821,0.00000736,0.01729657,0.01172320,0.00000018,-0.00009367,-0.000279
 53,0.00000005,0.00195897,-0.00104315,-0.00000033,-0.00142785,0.0003806
 4,-0.00000010,-0.02834348,0.01712356,-0.00000002,0.54188525,-0.0006570
 0,-0.00091275,-0.00000018,0.00030892,-0.00354603,-0.00000008,-0.012201
 48,-0.00308075,0.00000103,0.00005773,-0.00057712,0.,0.00051572,0.00045
 594,0.00000001,-0.00024168,-0.00012074,0.,0.00021942,-0.00033220,0.,0.
 00001850,0.00017472,0.00000004,0.00016839,-0.00012467,0.,0.00009576,-0
 .00008914,0.,0.01584743,-0.06778982,0.00000619,-0.00108786,-0.00457532
 ,-0.00000017,-0.04429381,-0.00282764,0.00000208,0.00892264,-0.00840858
 ,-0.00000058,-0.05288523,-0.12677951,-0.00000164,-0.00108037,0.0090369
 8,0.00000051,-0.00148093,-0.00011000,-0.00000005,0.05070903,0.01316634
 ,-0.00000248,-0.00521120,-0.01168389,-0.00000045,-0.00000640,0.0005220
 0,0.00000002,-0.00123950,0.00245435,0.00000019,0.00180960,0.00016066,0
 .,0.01139670,0.00336712,0.00000021,-0.03976505,0.43238329,0.00000005,-
 0.00000012,-0.00016960,-0.00000017,-0.00000021,-0.00019935,-0.00000101
 ,0.00000063,0.00123644,0.00000026,-0.00000004,0.00016096,-0.00000002,0
 .00000021,-0.00004339,-0.00000014,-0.00000009,0.00004502,0.,0.,-0.0000
 0391,0.,0.,-0.00002171,0.,0.,-0.00001418,0.,0.,-0.00000306,-0.00000169
 ,-0.00000264,0.00833187,0.00000023,0.00000046,-0.00073229,-0.00000070,
 0.00000183,0.01303881,0.00000207,-0.00000077,0.00645938,0.00002234,0.0
 0000158,-0.05680574,-0.00000009,0.00000212,-0.00100965,0.00000011,0.,0
 .00027455,0.00000876,-0.00000068,0.00999340,-0.00000151,-0.00000204,0.
 00508273,0.,0.00000009,-0.00063797,-0.00000044,0.00000031,-0.00356771,
 0.00000021,0.,-0.00026582,0.00000316,-0.00000207,-0.00270622,-0.000042
 18,0.00002474,0.04626023,0.00026610,-0.00041867,0.00000003,-0.00151440
 ,0.00030003,-0.00000004,-0.00047794,0.00473562,-0.00000053,0.00095976,
 0.00019839,0.00000011,-0.00008534,0.00035635,0.00000005,-0.00040678,-0
 .00010714,-0.00000002,0.00000964,0.00000938,0.,-0.00053873,-0.00004500
 ,-0.00000007,0.00002694,-0.00001440,0.,-0.00001357,-0.00006233,0.,-0.0
 2388709,-0.01009606,0.00000304,-0.00150903,-0.00224109,-0.00000035,0.0
 0021478,0.00379533,-0.00000035,0.00086925,0.00081337,0.00000002,-0.048
 77331,0.03605617,0.00000746,0.00076546,0.00184202,0.00000004,0.0005389
 3,0.00018538,0.,-0.00043579,-0.00460340,0.00000005,-0.00229061,0.00024
 376,0.00000024,0.00006336,0.00001340,-0.00000001,-0.00020082,0.0002536
 6,0.00000002,-0.00016286,-0.00014591,-0.00000006,0.00589915,-0.0135790
 3,0.00000103,-0.09006044,0.07008066,0.00001077,0.16074334,0.00030410,0
 .00161530,0.00000022,0.00142260,0.00500923,0.00000037,0.01762433,-0.00
 293153,-0.00000075,-0.00147872,0.00151363,-0.00000017,-0.00067468,-0.0
 0153726,-0.00000006,0.00094101,0.00063164,0.00000001,-0.00028671,0.000
 43528,0.00000002,0.00032140,-0.00021780,-0.00000002,-0.00026282,0.0001
 9682,0.,-0.00011235,0.00014851,0.,-0.00063427,0.01152335,-0.00000879,0
 .00163888,0.00721547,0.00000091,0.00219198,-0.01290407,-0.00000036,-0.
 00669217,0.00034965,0.,0.04606301,0.01977216,-0.00000232,-0.00102216,-
 0.00916164,-0.00000040,-0.00083884,-0.00025095,-0.00000001,-0.01931942
 ,0.00552896,0.00000119,0.00823483,0.00610224,-0.00000018,0.00002377,-0
 .00031306,0.00000005,0.00060686,-0.00064508,0.00000001,-0.00066185,0.0
 0017022,0.00000002,-0.03395288,0.00351812,0.00000135,0.07413460,-0.230
 76324,-0.00002330,-0.08757051,0.19499407,-0.00000013,-0.00000018,0.000
 28579,0.00000021,-0.00000054,0.00056270,-0.00000115,-0.00000087,-0.000
 87306,-0.00000003,-0.00000006,-0.00041479,0.00000008,-0.00000002,-0.00
 002492,0.,0.00000003,-0.00005915,0.00000004,-0.00000005,0.00002461,-0.
 00000014,0.00000005,0.00016819,0.00000002,-0.00000002,0.00002740,0.,-0
 .00000001,0.,0.00000247,0.00000275,-0.01448269,-0.00000051,-0.00000096
 ,0.00161381,-0.00000028,0.00000025,-0.00244657,-0.00000012,-0.00000017
 ,-0.00039057,0.00000046,-0.00000349,0.00076866,0.00000015,0.00000004,-
 0.00015546,-0.00000005,0.,-0.00003340,0.00000050,0.00000008,0.00247732
 ,-0.00000007,-0.00000013,0.00180911,-0.00000001,0.00000002,-0.00002718
 ,-0.00000002,0.00000006,-0.00049493,0.,0.00000003,-0.00028876,0.000000
 30,0.00000043,0.00244177,0.00001968,-0.00002941,-0.02470277,-0.0000214
 2,0.00003217,0.03421489\\0.00149444,0.00082595,-0.00000003,0.00131617,
 0.00119473,-0.00000037,0.00163173,-0.00039761,0.00000051,-0.00098793,0
 .00148839,0.00000028,0.00027710,0.00106755,-0.00000003,0.00159938,0.00
 152094,0.00000002,0.00013885,0.00006434,0.00000004,-0.00008078,0.00012
 464,-0.00000007,0.00002754,0.00022162,-0.00000001,0.00017516,0.0001599
 4,0.,-0.00479638,0.00129349,0.00000569,-0.00000241,-0.00173369,0.00000
 034,-0.00257171,0.00085476,0.00000094,0.00109976,0.00075190,-0.0000017
 8,0.00376754,0.00014829,0.00000289,-0.00060627,0.00358695,0.00000007,-
 0.00009626,0.00012355,0.00000014,0.00037087,0.00025798,0.00000040,-0.0
 0028668,0.00115200,0.00000019,-0.00004839,0.00024003,0.00000018,0.0001
 2369,-0.00001578,-0.00000006,0.00002371,0.00013420,-0.00000014,-0.0031
 2833,-0.00238564,-0.00000390,-0.00142401,-0.00383677,0.00000310,0.0019
 8323,-0.00684177,-0.00000841\\\@
 The archive entry for this job was punched.


 NEVER TEACH A PIG TO SING.
 IT WASTES YOUR TIME AND ANNOYS THE PIG.
     -- SEEN ON A GREETING CARD
 Job cpu time:       0 days  1 hours  3 minutes  9.1 seconds.
 Elapsed time:       0 days  0 hours  7 minutes 15.3 seconds.
 File lengths (MBytes):  RWF=    544 Int=      0 D2E=      0 Chk=     40 Scr=      8
 Normal termination of Gaussian 16 at Tue Oct 27 21:41:47 2020.
