 Entering Gaussian System, Link 0=g16
 Initial command:
 /gpfs/loomis/apps/avx/software/Gaussian/16-C.01_AVX/g16/l1.exe "/home/fas/batista/pev4/scratch60/gauss-scratch/Gau-42898.inp" -scrdir="/home/fas/batista/pev4/scratch60/gauss-scratch/"
 Entering Link 1 = /gpfs/loomis/apps/avx/software/Gaussian/16-C.01_AVX/g16/l1.exe PID=     42899.
  
 Copyright (c) 1988-2019, Gaussian, Inc.  All Rights Reserved.
  
 This is part of the Gaussian(R) 16 program.  It is based on
 the Gaussian(R) 09 system (copyright 2009, Gaussian, Inc.),
 the Gaussian(R) 03 system (copyright 2003, Gaussian, Inc.),
 the Gaussian(R) 98 system (copyright 1998, Gaussian, Inc.),
 the Gaussian(R) 94 system (copyright 1995, Gaussian, Inc.),
 the Gaussian 92(TM) system (copyright 1992, Gaussian, Inc.),
 the Gaussian 90(TM) system (copyright 1990, Gaussian, Inc.),
 the Gaussian 88(TM) system (copyright 1988, Gaussian, Inc.),
 the Gaussian 86(TM) system (copyright 1986, Carnegie Mellon
 University), and the Gaussian 82(TM) system (copyright 1983,
 Carnegie Mellon University). Gaussian is a federally registered
 trademark of Gaussian, Inc.
  
 This software contains proprietary and confidential information,
 including trade secrets, belonging to Gaussian, Inc.
  
 This software is provided under written license and may be
 used, copied, transmitted, or stored only in accord with that
 written license.
  
 The following legend is applicable only to US Government
 contracts under FAR:
  
                    RESTRICTED RIGHTS LEGEND
  
 Use, reproduction and disclosure by the US Government is
 subject to restrictions as set forth in subparagraphs (a)
 and (c) of the Commercial Computer Software - Restricted
 Rights clause in FAR 52.227-19.
  
 Gaussian, Inc.
 340 Quinnipiac St., Bldg. 40, Wallingford CT 06492
  
  
 ---------------------------------------------------------------
 Warning -- This program may not be used in any manner that
 competes with the business of Gaussian, Inc. or will provide
 assistance to any competitor of Gaussian, Inc.  The licensee
 of this program is prohibited from giving any competitor of
 Gaussian, Inc. access to this program.  By using this program,
 the user acknowledges that Gaussian, Inc. is engaged in the
 business of creating and licensing software in the field of
 computational chemistry and represents and warrants to the
 licensee that it is not a competitor of Gaussian, Inc. and that
 it will not use this program in any manner prohibited above.
 ---------------------------------------------------------------
  

 Cite this work as:
 Gaussian 16, Revision C.01,
 M. J. Frisch, G. W. Trucks, H. B. Schlegel, G. E. Scuseria, 
 M. A. Robb, J. R. Cheeseman, G. Scalmani, V. Barone, 
 G. A. Petersson, H. Nakatsuji, X. Li, M. Caricato, A. V. Marenich, 
 J. Bloino, B. G. Janesko, R. Gomperts, B. Mennucci, H. P. Hratchian, 
 J. V. Ortiz, A. F. Izmaylov, J. L. Sonnenberg, D. Williams-Young, 
 F. Ding, F. Lipparini, F. Egidi, J. Goings, B. Peng, A. Petrone, 
 T. Henderson, D. Ranasinghe, V. G. Zakrzewski, J. Gao, N. Rega, 
 G. Zheng, W. Liang, M. Hada, M. Ehara, K. Toyota, R. Fukuda, 
 J. Hasegawa, M. Ishida, T. Nakajima, Y. Honda, O. Kitao, H. Nakai, 
 T. Vreven, K. Throssell, J. A. Montgomery, Jr., J. E. Peralta, 
 F. Ogliaro, M. J. Bearpark, J. J. Heyd, E. N. Brothers, K. N. Kudin, 
 V. N. Staroverov, T. A. Keith, R. Kobayashi, J. Normand, 
 K. Raghavachari, A. P. Rendell, J. C. Burant, S. S. Iyengar, 
 J. Tomasi, M. Cossi, J. M. Millam, M. Klene, C. Adamo, R. Cammi, 
 J. W. Ochterski, R. L. Martin, K. Morokuma, O. Farkas, 
 J. B. Foresman, and D. J. Fox, Gaussian, Inc., Wallingford CT, 2019.
 
 ******************************************
 Gaussian 16:  ES64L-G16RevC.01  3-Jul-2019
                27-Oct-2020 
 ******************************************
 %chk=config_2_7.chk
 %mem=58GB
 %nprocshared=10
 Will use up to   10 processors via shared memory.
 ----------------------------------------------------------------------
 #p opt=addgic freq wb97xd/cc-pvdz nosymm int=ultrafine scrf=(solvent=C
 arbonTetraChloride)
 ----------------------------------------------------------------------
 1/18=20,19=15,26=6,38=1,145=903/1,3;
 2/9=110,12=2,15=1,17=6,18=5,40=1/2;
 3/5=16,11=2,25=1,30=1,70=2201,71=1,72=11,74=-58,75=-5/1,2,3;
 4//1;
 5/5=2,38=5,53=11/2;
 6/7=2,8=2,9=2,10=2,28=1/1;
 7/30=1/1,2,3,16;
 1/18=20,19=15,26=6,145=903/3(2);
 2/9=110,15=1/2;
 99//99;
 2/9=110,15=1/2;
 3/5=16,11=2,25=1,30=1,70=2205,71=1,72=11,74=-58,75=-5/1,2,3;
 4/5=5,16=3,69=1/1;
 5/5=2,38=5,53=11/2;
 7/30=1/1,2,3,16;
 1/18=20,19=15,26=6,145=903/3(-5);
 2/9=110,15=1/2;
 6/7=2,8=2,9=2,10=2,19=2,28=1/1;
 99/9=1/99;
 Leave Link    1 at Tue Oct 27 22:01:16 2020, MaxMem=  7784628224 cpu:               8.8 elap:               1.0
 (Enter /gpfs/loomis/apps/avx/software/Gaussian/16-C.01_AVX/g16/l101.exe)
 ------------------------------------------------
 NM 2D-scan of HBT TD-WB97XD pVDZ in CTC Relaxed.
 ------------------------------------------------
 Symbolic Z-matrix:
 Charge =  0 Multiplicity = 1
 C                     1.67504  -3.271    -0.00002 
 C                     0.99299  -2.05944  -0.00002 
 C                     1.69149  -0.81043  -0.00002 
 C                     3.11763  -0.81891  -0.00002 
 C                     3.77759  -2.0296   -0.00002 
 C                     3.06978  -3.25222  -0.00002 
 H                     1.1329   -4.21745  -0.00002 
 H                     3.65383   0.13098  -0.00002 
 H                     4.86923  -2.04877  -0.00002 
 H                     3.61937  -4.19474  -0.00002 
 N                     0.92597   0.26897  -0.00002 
 S                    -0.73555  -1.76369  -0.00002 
 C                    -1.37168   1.01528   0. 
 C                    -2.78711   0.83722  0. 
 C                    -0.89978   2.41256   0.00003 
 C                    -3.64273   1.92235   0.00002 
 H                    -3.18768  -0.17697  -0.00002 
 C                    -1.79034   3.4921    0.00006 
 C                    -3.15958   3.25908   0.00005 
 H                    -4.72063   1.7502    0.00002 
 H                    -1.37574   4.5004    0.00008 
 H                    -3.86079   4.09375   0.00008 
 C                    -0.40515  -0.00856  -0.00002 
 O                     0.40159   2.65418   0.00004 
 H                     0.77195   2.05562   0.00002 
 
 Initializing the GIC definitions file.
 Number of initial coordinates =   131
 Number of input entries/lines =    52
 Number of additional coordinates =     2
 Number of removed coordinates =     0
 Number of frozen coordinates =     2
 Number of final active and frozen coordinates =   133
 ITRead=  0  0  0  0  0  0  0  0  0  0  0  0  0  0  0  0  0  0  0  0
 ITRead=  0  0  0  0  0
 MicOpt= -1 -1 -1 -1 -1 -1 -1 -1 -1 -1 -1 -1 -1 -1 -1 -1 -1 -1 -1 -1
 MicOpt= -1 -1 -1 -1 -1
 NAtoms=     25 NQM=       25 NQMF=       0 NMMI=      0 NMMIF=      0
                NMic=       0 NMicF=      0.
                    Isotopes and Nuclear Properties:
 (Nuclear quadrupole moments (NQMom) in fm**2, nuclear magnetic moments (NMagM)
  in nuclear magnetons)

  Atom         1           2           3           4           5           6           7           8           9          10
 IAtWgt=          12          12          12          12          12          12           1           1           1           1
 AtmWgt=  12.0000000  12.0000000  12.0000000  12.0000000  12.0000000  12.0000000   1.0078250   1.0078250   1.0078250   1.0078250
 NucSpn=           0           0           0           0           0           0           1           1           1           1
 AtZEff=  -0.0000000  -0.0000000  -0.0000000  -0.0000000  -0.0000000  -0.0000000  -0.0000000  -0.0000000  -0.0000000  -0.0000000
 NQMom=    0.0000000   0.0000000   0.0000000   0.0000000   0.0000000   0.0000000   0.0000000   0.0000000   0.0000000   0.0000000
 NMagM=    0.0000000   0.0000000   0.0000000   0.0000000   0.0000000   0.0000000   2.7928460   2.7928460   2.7928460   2.7928460
 AtZNuc=   6.0000000   6.0000000   6.0000000   6.0000000   6.0000000   6.0000000   1.0000000   1.0000000   1.0000000   1.0000000

  Atom        11          12          13          14          15          16          17          18          19          20
 IAtWgt=          14          32          12          12          12          12           1          12          12           1
 AtmWgt=  14.0030740  31.9720718  12.0000000  12.0000000  12.0000000  12.0000000   1.0078250  12.0000000  12.0000000   1.0078250
 NucSpn=           2           0           0           0           0           0           1           0           0           1
 AtZEff=  -0.0000000  -0.0000000  -0.0000000  -0.0000000  -0.0000000  -0.0000000  -0.0000000  -0.0000000  -0.0000000  -0.0000000
 NQMom=    2.0440000   0.0000000   0.0000000   0.0000000   0.0000000   0.0000000   0.0000000   0.0000000   0.0000000   0.0000000
 NMagM=    0.4037610   0.0000000   0.0000000   0.0000000   0.0000000   0.0000000   2.7928460   0.0000000   0.0000000   2.7928460
 AtZNuc=   7.0000000  16.0000000   6.0000000   6.0000000   6.0000000   6.0000000   1.0000000   6.0000000   6.0000000   1.0000000

  Atom        21          22          23          24          25
 IAtWgt=           1           1          12          16           1
 AtmWgt=   1.0078250   1.0078250  12.0000000  15.9949146   1.0078250
 NucSpn=           1           1           0           0           1
 AtZEff=  -0.0000000  -0.0000000  -0.0000000  -0.0000000  -0.0000000
 NQMom=    0.0000000   0.0000000   0.0000000   0.0000000   0.0000000
 NMagM=    2.7928460   2.7928460   0.0000000   0.0000000   2.7928460
 AtZNuc=   1.0000000   1.0000000   6.0000000   8.0000000   1.0000000
 Leave Link  101 at Tue Oct 27 22:01:19 2020, MaxMem=  7784628224 cpu:              31.8 elap:               3.2
 (Enter /gpfs/loomis/apps/avx/software/Gaussian/16-C.01_AVX/g16/l103.exe)

 GradGradGradGradGradGradGradGradGradGradGradGradGradGradGradGradGradGrad
 Berny optimization.
 Initialization pass.
                           ----------------------------
                           !    Initial Parameters    !
                           ! (Angstroms and Degrees)  !
 --------------------------                            --------------------------
 ! Name  Definition              Value          Derivative Info.                !
 --------------------------------------------------------------------------------
 ! R1    R(1,2)                  1.3904         estimate D2E/DX2                !
 ! R2    R(1,6)                  1.3949         estimate D2E/DX2                !
 ! R3    R(1,7)                  1.0907         estimate D2E/DX2                !
 ! R4    R(2,3)                  1.4311         estimate D2E/DX2                !
 ! R5    R(2,12)                 1.7537         estimate D2E/DX2                !
 ! R6    R(3,4)                  1.4262         estimate D2E/DX2                !
 ! R7    R(3,11)                 1.3233         estimate D2E/DX2                !
 ! R8    R(4,5)                  1.3789         estimate D2E/DX2                !
 ! R9    R(4,8)                  1.0908         estimate D2E/DX2                !
 ! R10   R(5,6)                  1.4127         estimate D2E/DX2                !
 ! R11   R(5,9)                  1.0918         estimate D2E/DX2                !
 ! R12   R(6,10)                 1.091          estimate D2E/DX2                !
 ! R13   R(11,23)                1.3597         estimate D2E/DX2                !
 ! R14   R(12,23)                1.786          estimate D2E/DX2                !
 ! R15   R(13,14)                1.4266         estimate D2E/DX2                !
 ! R16   R(13,15)                1.4748         estimate D2E/DX2                !
 ! R17   R(13,23)                1.408          estimate D2E/DX2                !
 ! R18   R(14,16)                1.3819         estimate D2E/DX2                !
 ! R19   R(14,17)                1.0904         estimate D2E/DX2                !
 ! R20   R(15,18)                1.3995         estimate D2E/DX2                !
 ! R21   R(15,24)                1.3236         estimate D2E/DX2                !
 ! R22   R(16,19)                1.4214         estimate D2E/DX2                !
 ! R23   R(16,20)                1.0916         estimate D2E/DX2                !
 ! R24   R(18,19)                1.3889         estimate D2E/DX2                !
 ! R25   R(18,21)                1.0902         estimate D2E/DX2                !
 ! R26   R(19,22)                1.0901         estimate D2E/DX2                !
 ! R27   R(24,25)                0.7039         estimate D2E/DX2                !
 ! A1    A(2,1,6)              118.6059         estimate D2E/DX2                !
 ! A2    A(2,1,7)              120.8181         estimate D2E/DX2                !
 ! A3    A(6,1,7)              120.576          estimate D2E/DX2                !
 ! A4    A(1,2,3)              121.4071         estimate D2E/DX2                !
 ! A5    A(1,2,12)             129.0861         estimate D2E/DX2                !
 ! A6    A(3,2,12)             109.5067         estimate D2E/DX2                !
 ! A7    A(2,3,4)              118.8748         estimate D2E/DX2                !
 ! A8    A(2,3,11)             115.4398         estimate D2E/DX2                !
 ! A9    A(4,3,11)             125.6854         estimate D2E/DX2                !
 ! A10   A(3,4,5)              118.9363         estimate D2E/DX2                !
 ! A11   A(3,4,8)              119.1031         estimate D2E/DX2                !
 ! A12   A(5,4,8)              121.9606         estimate D2E/DX2                !
 ! A13   A(4,5,6)              121.3366         estimate D2E/DX2                !
 ! A14   A(4,5,9)              119.601          estimate D2E/DX2                !
 ! A15   A(6,5,9)              119.0623         estimate D2E/DX2                !
 ! A16   A(1,6,5)              120.8393         estimate D2E/DX2                !
 ! A17   A(1,6,10)             119.4755         estimate D2E/DX2                !
 ! A18   A(5,6,10)             119.6853         estimate D2E/DX2                !
 ! A19   A(3,11,23)            113.5673         estimate D2E/DX2                !
 ! A20   A(2,12,23)             89.0481         estimate D2E/DX2                !
 ! A21   A(14,13,15)           115.8318         estimate D2E/DX2                !
 ! A22   A(14,13,23)           126.1803         estimate D2E/DX2                !
 ! A23   A(15,13,23)           117.9879         estimate D2E/DX2                !
 ! A24   A(13,14,16)           121.0851         estimate D2E/DX2                !
 ! A25   A(13,14,17)           118.7228         estimate D2E/DX2                !
 ! A26   A(16,14,17)           120.1921         estimate D2E/DX2                !
 ! A27   A(13,15,18)           121.8177         estimate D2E/DX2                !
 ! A28   A(13,15,24)           119.1798         estimate D2E/DX2                !
 ! A29   A(18,15,24)           119.0025         estimate D2E/DX2                !
 ! A30   A(14,16,19)           121.8729         estimate D2E/DX2                !
 ! A31   A(14,16,20)           119.1813         estimate D2E/DX2                !
 ! A32   A(19,16,20)           118.9459         estimate D2E/DX2                !
 ! A33   A(15,18,19)           119.8627         estimate D2E/DX2                !
 ! A34   A(15,18,21)           118.127          estimate D2E/DX2                !
 ! A35   A(19,18,21)           122.0103         estimate D2E/DX2                !
 ! A36   A(16,19,18)           119.5298         estimate D2E/DX2                !
 ! A37   A(16,19,22)           120.0944         estimate D2E/DX2                !
 ! A38   A(18,19,22)           120.3757         estimate D2E/DX2                !
 ! A39   A(11,23,12)           112.438          estimate D2E/DX2                !
 ! A40   A(11,23,13)           121.5734         estimate D2E/DX2                !
 ! A41   A(12,23,13)           125.9886         estimate D2E/DX2                !
 ! A42   A(15,24,25)           111.2289         estimate D2E/DX2                !
 ! D1    D(6,1,2,3)              0.0            estimate D2E/DX2                !
 ! D2    D(6,1,2,12)          -180.0            estimate D2E/DX2                !
 ! D3    D(7,1,2,3)            180.0            estimate D2E/DX2                !
 ! D4    D(7,1,2,12)             0.0            estimate D2E/DX2                !
 ! D5    D(2,1,6,5)              0.0            estimate D2E/DX2                !
 ! D6    D(2,1,6,10)           180.0            estimate D2E/DX2                !
 ! D7    D(7,1,6,5)           -180.0            estimate D2E/DX2                !
 ! D8    D(7,1,6,10)             0.0            estimate D2E/DX2                !
 ! D9    D(1,2,3,4)              0.0            estimate D2E/DX2                !
 ! D10   D(1,2,3,11)           180.0            estimate D2E/DX2                !
 ! D11   D(12,2,3,4)           180.0            estimate D2E/DX2                !
 ! D12   D(12,2,3,11)            0.0            estimate D2E/DX2                !
 ! D13   D(1,2,12,23)          179.9999         estimate D2E/DX2                !
 ! D14   D(3,2,12,23)           -0.0001         estimate D2E/DX2                !
 ! D15   D(2,3,4,5)              0.0            estimate D2E/DX2                !
 ! D16   D(2,3,4,8)           -180.0            estimate D2E/DX2                !
 ! D17   D(11,3,4,5)          -180.0            estimate D2E/DX2                !
 ! D18   D(11,3,4,8)             0.0            estimate D2E/DX2                !
 ! D19   D(2,3,11,23)            0.0003         estimate D2E/DX2                !
 ! D20   D(4,3,11,23)         -179.9998         estimate D2E/DX2                !
 ! D21   D(3,4,5,6)              0.0            estimate D2E/DX2                !
 ! D22   D(3,4,5,9)           -180.0            estimate D2E/DX2                !
 ! D23   D(8,4,5,6)           -180.0            estimate D2E/DX2                !
 ! D24   D(8,4,5,9)              0.0            estimate D2E/DX2                !
 ! D25   D(4,5,6,1)              0.0            estimate D2E/DX2                !
 ! D26   D(4,5,6,10)          -180.0            estimate D2E/DX2                !
 ! D27   D(9,5,6,1)           -180.0            estimate D2E/DX2                !
 ! D28   D(9,5,6,10)             0.0            estimate D2E/DX2                !
 ! D29   D(3,11,23,12)          -0.0004         estimate D2E/DX2                !
 ! D30   D(3,11,23,13)         179.9991         estimate D2E/DX2                !
 ! D31   D(2,12,23,11)           0.0003         estimate D2E/DX2                !
 ! D32   D(2,12,23,13)        -179.9992         estimate D2E/DX2                !
 ! D33   D(15,13,14,16)         -0.0001         estimate D2E/DX2                !
 ! D34   D(15,13,14,17)        179.9999         estimate D2E/DX2                !
 ! D35   D(23,13,14,16)        179.9998         estimate D2E/DX2                !
 ! D36   D(23,13,14,17)         -0.0002         estimate D2E/DX2                !
 ! D37   D(14,13,15,18)          0.0001         estimate D2E/DX2                !
 ! D38   D(14,13,15,24)        179.9999         estimate D2E/DX2                !
 ! D39   D(23,13,15,18)       -179.9998         estimate D2E/DX2                !
 ! D40   D(23,13,15,24)          0.0001         estimate D2E/DX2                !
 ! D41   D(14,13,23,11)        179.9995         estimate D2E/DX2                !
 ! D42   D(14,13,23,12)         -0.0011         estimate D2E/DX2                !
 ! D43   D(15,13,23,11)         -0.0007         estimate D2E/DX2                !
 ! D44   D(15,13,23,12)        179.9987         estimate D2E/DX2                !
 ! D45   D(13,14,16,19)          0.0            estimate D2E/DX2                !
 ! D46   D(13,14,16,20)       -180.0            estimate D2E/DX2                !
 ! D47   D(17,14,16,19)       -180.0            estimate D2E/DX2                !
 ! D48   D(17,14,16,20)          0.0            estimate D2E/DX2                !
 ! D49   D(13,15,18,19)          0.0            estimate D2E/DX2                !
 ! D50   D(13,15,18,21)        179.9999         estimate D2E/DX2                !
 ! D51   D(24,15,18,19)       -179.9998         estimate D2E/DX2                !
 ! D52   D(24,15,18,21)          0.0001         estimate D2E/DX2                !
 ! D53   D(13,15,24,25)          0.0002         estimate D2E/DX2                !
 ! D54   D(18,15,24,25)        180.0            estimate D2E/DX2                !
 ! D55   D(14,16,19,18)          0.0001         estimate D2E/DX2                !
 ! D56   D(14,16,19,22)       -179.9999         estimate D2E/DX2                !
 ! D57   D(20,16,19,18)       -179.9999         estimate D2E/DX2                !
 ! D58   D(20,16,19,22)          0.0001         estimate D2E/DX2                !
 ! D59   D(15,18,19,16)         -0.0001         estimate D2E/DX2                !
 ! D60   D(15,18,19,22)        179.9999         estimate D2E/DX2                !
 ! D61   D(21,18,19,16)       -180.0            estimate D2E/DX2                !
 ! D62   D(21,18,19,22)          0.0            estimate D2E/DX2                !
 ! Qtot  GIC-1                 -40.0            Frozen                          !
 ! Ptot  GIC-2                 -20.0            Frozen                          !
 --------------------------------------------------------------------------------
 NOTE: GIC-type coordinates are in arbitrary units.
 Trust Radius=3.00D-01 FncErr=5.00D-06 GrdErr=5.00D-06 EigMax=2.50D+02 EigMin=1.00D-04
 Number of steps in this run=    143 maximum allowed number of steps=    150.
 GradGradGradGradGradGradGradGradGradGradGradGradGradGradGradGradGradGrad

 Leave Link  103 at Tue Oct 27 22:01:19 2020, MaxMem=  7784628224 cpu:               0.1 elap:               0.0
 (Enter /gpfs/loomis/apps/avx/software/Gaussian/16-C.01_AVX/g16/l202.exe)
                          Input orientation:                          
 ---------------------------------------------------------------------
 Center     Atomic      Atomic             Coordinates (Angstroms)
 Number     Number       Type             X           Y           Z
 ---------------------------------------------------------------------
      1          6           0        1.675040   -3.271000   -0.000022
      2          6           0        0.992994   -2.059435   -0.000021
      3          6           0        1.691488   -0.810428   -0.000022
      4          6           0        3.117629   -0.818914   -0.000022
      5          6           0        3.777592   -2.029604   -0.000022
      6          6           0        3.069778   -3.252222   -0.000022
      7          1           0        1.132901   -4.217448   -0.000021
      8          1           0        3.653827    0.130978   -0.000022
      9          1           0        4.869230   -2.048766   -0.000023
     10          1           0        3.619366   -4.194737   -0.000022
     11          7           0        0.925969    0.268974   -0.000022
     12         16           0       -0.735549   -1.763693   -0.000020
     13          6           0       -1.371682    1.015283    0.000003
     14          6           0       -2.787109    0.837219   -0.000000
     15          6           0       -0.899777    2.412556    0.000032
     16          6           0       -3.642726    1.922353    0.000025
     17          1           0       -3.187684   -0.176974   -0.000023
     18          6           0       -1.790345    3.492103    0.000056
     19          6           0       -3.159581    3.259085    0.000054
     20          1           0       -4.720625    1.750201    0.000022
     21          1           0       -1.375737    4.500403    0.000079
     22          1           0       -3.860790    4.093750    0.000075
     23          6           0       -0.405155   -0.008559   -0.000016
     24          8           0        0.401588    2.654180    0.000037
     25          1           0        0.771948    2.055619    0.000024
 ---------------------------------------------------------------------
                    Distance matrix (angstroms):
                    1          2          3          4          5
     1  C    0.000000
     2  C    1.390351   0.000000
     3  C    2.460626   1.431053   0.000000
     4  C    2.844958   2.460278   1.426166   0.000000
     5  C    2.441677   2.784759   2.416241   1.378885   0.000000
     6  C    1.394865   2.394948   2.803933   2.433779   1.412727
     7  H    1.090724   2.162543   3.452506   3.935629   3.432354
     8  H    3.935613   3.446440   2.176470   1.090781   2.164124
     9  H    3.420045   3.876251   3.410502   2.140244   1.091806
    10  H    2.152601   3.384870   3.894902   3.412906   2.170907
    11  N    3.618359   2.329374   1.323303   2.446809   3.662679
    12  S    2.843046   1.753660   2.607531   3.967314   4.520968
    13  C    5.258777   3.878863   3.565983   4.849555   5.982170
    14  C    6.065330   4.762329   4.772062   6.132593   7.163377
    15  C    6.239590   4.856056   4.135491   5.155768   6.450626
    16  C    7.433004   6.111017   5.993491   7.294994   8.407086
    17  H    5.763599   4.584945   4.920120   6.337906   7.207448
    18  C    7.599240   6.210197   5.534883   6.532462   7.841631
    19  C    8.124997   6.747632   6.331968   7.485549   8.723223
    20  H    8.131235   6.867224   6.904492   8.248550   9.300894
    21  H    8.348769   6.974407   6.132927   6.963151   8.318521
    22  H    9.213303   7.837149   7.408020   8.534201   9.789808
    23  C    3.869203   2.482119   2.244751   3.614786   4.645428
    24  O    6.060482   4.750571   3.696939   4.408998   5.773668
    25  H    5.402633   4.120987   3.009947   3.710143   5.071780
                    6          7          8          9         10
     6  C    0.000000
     7  H    2.164060   0.000000
     8  H    3.433243   5.026319   0.000000
     9  H    2.164794   4.320109   2.495694   0.000000
    10  H    1.091045   2.486569   4.325853   2.483416   0.000000
    11  N    4.122468   4.491192   2.731347   4.573973   5.213359
    12  S    4.086103   3.084155   4.780837   5.612024   4.987510
    13  C    6.159397   5.801241   5.102719   6.952509   7.214906
    14  C    7.143295   6.396571   6.479540   8.182202   8.146379
    15  C    6.917159   6.934603   5.093222   7.292793   8.004934
    16  C    8.475491   7.778416   7.513236   9.392719   9.495092
    17  H    6.972301   5.915478   6.848438   8.271485   7.904324
    18  C    8.313045   8.245152   6.398138   8.663207   9.399600
    19  C    9.011218   8.621133   7.497172   9.624713  10.075395
    20  H    9.258219   8.359222   8.529556  10.314915  10.241959
    21  H    8.936767   9.071614   6.662461   9.049377  10.027787
    22  H   10.099311   9.696028   8.495471  10.674444  11.164755
    23  C    4.753579   4.481112   4.061380   5.655226   5.806966
    24  O    6.481114   6.910433   4.116262   6.486719   7.567150
    25  H    5.783875   6.283443   3.465468   5.799457   6.868387
                   11         12         13         14         15
    11  N    0.000000
    12  S    2.625333   0.000000
    13  C    2.415818   2.850854   0.000000
    14  C    3.756308   3.312649   1.426583   0.000000
    15  C    2.815722   4.179477   1.474811   2.458395   0.000000
    16  C    4.858666   4.694530   2.445489   1.381882   2.786408
    17  H    4.137753   2.920726   2.172403   1.090434   3.455457
    18  C    4.215082   5.360595   2.511955   2.835833   1.399476
    19  C    5.062853   5.577117   2.869013   2.450341   2.413157
    20  H    5.837641   5.313029   3.428633   2.138228   3.877834
    21  H    4.816932   6.296724   3.485123   3.925670   2.141411
    22  H    6.127150   6.639034   3.958866   3.428963   3.404998
    23  C    1.359748   1.785961   1.407986   2.527656   2.471123
    24  O    2.442168   4.561873   2.414637   3.670032   1.323606
    25  H    1.793272   4.106056   2.382740   3.761833   1.709406
                   16         17         18         19         20
    16  C    0.000000
    17  H    2.148077   0.000000
    18  C    2.428051   3.926153   0.000000
    19  C    1.421366   3.436174   1.388923   0.000000
    20  H    1.091560   2.462501   3.408924   2.171080   0.000000
    21  H    3.433013   5.016074   1.090215   2.173240   4.330345
    22  H    2.182320   4.323443   2.156089   1.090119   2.496306
    23  C    3.769653   2.787621   3.764755   4.273682   4.660098
    24  O    4.109993   4.571466   2.346632   3.612179   5.201369
    25  H    4.416685   4.545674   2.937487   4.111600   5.501058
                   21         22         23         24         25
    21  H    0.000000
    22  H    2.518105   0.000000
    23  C    4.612241   5.363800   0.000000
    24  O    2.562698   4.498913   2.782267   0.000000
    25  H    3.254154   5.061248   2.376216   0.703876   0.000000
 Symmetry turned off by external request.
 Stoichiometry    C13H9NOS
 Framework group  C1[X(C13H9NOS)]
 Deg. of freedom    69
 Full point group                 C1      NOp   1
 Rotational constants (GHZ):           1.3647473           0.2859304           0.2364015
 Leave Link  202 at Tue Oct 27 22:01:19 2020, MaxMem=  7784628224 cpu:               0.1 elap:               0.0
 (Enter /gpfs/loomis/apps/avx/software/Gaussian/16-C.01_AVX/g16/l301.exe)
 Standard basis: CC-pVDZ (5D, 7F)
 Ernie: Thresh=  0.10000D-02 Tol=  0.10000D-05 Strict=F.
 Ernie:  40 primitive shells out of 425 were deleted.
   273 basis functions,   629 primitive gaussians,   289 cartesian basis functions
    59 alpha electrons       59 beta electrons
       nuclear repulsion energy      1098.2148568042 Hartrees.
 IExCor= 4639 DFT=T Ex+Corr=wB97XD ExCW=0 ScaHFX=  1.000000
 ScaDFX=  1.000000  1.000000  1.000000  1.000000 ScalE2=  1.000000  1.000000
 IRadAn=      5 IRanWt=     -1 IRanGd=            0 ICorTp=0 IEmpDi=121
 HFx  wShort=  0.000000 wLong=  0.200000 cFull=  0.222036 cShort=  0.000000 cLong=  0.777964
 DFx  wShort=  0.000000 wLong=  0.200000 cFull=  0.000000 cShort=  0.000000 cLong=  1.000000
 NAtoms=   25 NActive=   25 NUniq=   25 SFac= 1.00D+00 NAtFMM=   60 NAOKFM=F Big=F
 Integral buffers will be    131072 words long.
 Raffenetti 2 integral format.
 Two-electron integral symmetry is turned off.
 R6Disp:  Grimme-D2 Dispersion energy=       -0.0139632591 Hartrees.
 Nuclear repulsion after empirical dispersion term =     1098.2008935451 Hartrees.
 ------------------------------------------------------------------------------
 Polarizable Continuum Model (PCM)
 =================================
 Model                : PCM.
 Atomic radii         : UFF (Universal Force Field).
 Polarization charges : Total charges.
 Charge compensation  : None.
 Solution method      : On-the-fly selection.
 Cavity type          : Scaled VdW (van der Waals Surface) (Alpha=1.100).
 Cavity algorithm     : GePol (No added spheres)
                        Default sphere list used, NSphG=   25.
                        Lebedev-Laikov grids with approx.  5.0 points / Ang**2.
                        Smoothing algorithm: York/Karplus (Gamma=1.0000).
                        Polarization charges: spherical gaussians, with
                                              point-specific exponents (IZeta= 3).
                        Self-potential: point-specific (ISelfS= 7).
                        Self-field    : sphere-specific E.n sum rule (ISelfD= 2).
 1st derivatives      : Analytical E(r).r(x)/FMM algorithm (CHGder, D1EAlg=3).
                        Cavity 1st derivative terms included.
 Solvent              : CarbonTetraChloride, Eps=   2.228000 Eps(inf)=   2.131892
 ------------------------------------------------------------------------------
 GePol: Number of generator spheres                  =      25
 GePol: Total number of spheres                      =      25
 GePol: Number of exposed spheres                    =      25 (100.00%)
 GePol: Number of points                             =    2190
 GePol: Average weight of points                     =       0.13
 GePol: Minimum weight of points                     =   0.64D-10
 GePol: Maximum weight of points                     =    0.20577
 GePol: Number of points with low weight             =     138
 GePol: Fraction of low-weight points (<1% of avg)   =       6.30%
 GePol: Cavity surface area                          =    274.561 Ang**2
 GePol: Cavity volume                                =    293.559 Ang**3
 Leave Link  301 at Tue Oct 27 22:01:19 2020, MaxMem=  7784628224 cpu:               0.8 elap:               0.1
 (Enter /gpfs/loomis/apps/avx/software/Gaussian/16-C.01_AVX/g16/l302.exe)
 NPDir=0 NMtPBC=     1 NCelOv=     1 NCel=       1 NClECP=     1 NCelD=      1
         NCelK=      1 NCelE2=     1 NClLst=     1 CellRange=     0.0.
 One-electron integrals computed using PRISM.
 NBasis=   273 RedAO= T EigKep=  3.17D-04  NBF=   273
 NBsUse=   273 1.00D-06 EigRej= -1.00D+00 NBFU=   273
 Precomputing XC quadrature grid using
 IXCGrd= 4 IRadAn=           5 IRanWt=          -1 IRanGd=           0 AccXCQ= 0.00D+00.
 Generated NRdTot=       0 NPtTot=           0 NUsed=           0 NTot=          32
 NSgBfM=   288   288   288   288   288 MxSgAt=    25 MxSgA2=    25.
 Leave Link  302 at Tue Oct 27 22:01:20 2020, MaxMem=  7784628224 cpu:               2.5 elap:               0.3
 (Enter /gpfs/loomis/apps/avx/software/Gaussian/16-C.01_AVX/g16/l303.exe)
 DipDrv:  MaxL=1.
 Leave Link  303 at Tue Oct 27 22:01:20 2020, MaxMem=  7784628224 cpu:               0.4 elap:               0.1
 (Enter /gpfs/loomis/apps/avx/software/Gaussian/16-C.01_AVX/g16/l401.exe)
 ExpMin= 1.22D-01 ExpMax= 1.11D+05 ExpMxC= 1.07D+03 IAcc=3 IRadAn=         5 AccDes= 0.00D+00
 Harris functional with IExCor= 4639 and IRadAn=       5 diagonalized for initial guess.
 HarFok:  IExCor= 4639 AccDes= 0.00D+00 IRadAn=         5 IDoV= 1 UseB2=F ITyADJ=14
 ICtDFT=  3500011 ScaDFX=  1.000000  1.000000  1.000000  1.000000
 FoFCou: FMM=F IPFlag=           0 FMFlag=      100000 FMFlg1=           0
         NFxFlg=           0 DoJE=T BraDBF=F KetDBF=T FulRan=T
         wScrn=  0.000000 ICntrl=       500 IOpCl=  0 I1Cent=   200000004 NGrid=           0
         NMat0=    1 NMatS0=      1 NMatT0=    0 NMatD0=    1 NMtDS0=    0 NMtDT0=    0
 Symmetry not used in FoFCou.
 Harris En= -994.292426892940    
 JPrj=0 DoOrth=F DoCkMO=F.
 Leave Link  401 at Tue Oct 27 22:01:21 2020, MaxMem=  7784628224 cpu:              13.7 elap:               1.4
 (Enter /gpfs/loomis/apps/avx/software/Gaussian/16-C.01_AVX/g16/l502.exe)
 Two-electron integral symmetry not used.
 Closed shell SCF:
 Using DIIS extrapolation, IDIIS=  1040.
 NGot=  7784628224 LenX=  7784455381 LenY=  7784371419
 Requested convergence on RMS density matrix=1.00D-08 within 128 cycles.
 Requested convergence on MAX density matrix=1.00D-06.
 Requested convergence on             energy=1.00D-06.
 No special actions if energy rises.
 Fock matrices will be formed incrementally for  20 cycles.

 Cycle   1  Pass 1  IDiag  1:
 FoFJK:  IHMeth= 1 ICntrl=       0 DoSepK=T KAlg= 0 I1Cent=           0 FoldK=F
 IRaf=         1 NMat=       1 IRICut=       1 DoRegI=T DoRafI=F ISym2E= 0 IDoP0=0 IntGTp=1.
 FoFCou: FMM=F IPFlag=           0 FMFlag=      100000 FMFlg1=           0
         NFxFlg=           0 DoJE=T BraDBF=F KetDBF=F FulRan=T
         wScrn=  0.000000 ICntrl=       500 IOpCl=  0 I1Cent=           0 NGrid=           0
         NMat0=    1 NMatS0=      1 NMatT0=    0 NMatD0=    1 NMtDS0=    0 NMtDT0=    0
 Symmetry not used in FoFCou.
 Inv3:  Mode=1 IEnd=    14388300.
 Iteration    1 A*A^-1 deviation from unit magnitude is 3.55D-15 for   2163.
 Iteration    1 A*A^-1 deviation from orthogonality  is 1.83D-15 for   1827    310.
 Iteration    1 A^-1*A deviation from unit magnitude is 3.55D-15 for   2163.
 Iteration    1 A^-1*A deviation from orthogonality  is 1.44D-15 for   1828    357.
 E= -1028.46310295324    
 DIIS: error= 3.09D-02 at cycle   1 NSaved=   1.
 NSaved= 1 IEnMin= 1 EnMin= -1028.46310295324     IErMin= 1 ErrMin= 3.09D-02
 ErrMax= 3.09D-02  0.00D+00 EMaxC= 1.00D-01 BMatC= 3.71D-01 BMatP= 3.71D-01
 IDIUse=3 WtCom= 6.91D-01 WtEn= 3.09D-01
 Coeff-Com:  0.100D+01
 Coeff-En:   0.100D+01
 Coeff:      0.100D+01
 Gap=     0.366 Goal=   None    Shift=    0.000
 GapD=    0.366 DampG=1.000 DampE=0.500 DampFc=0.5000 IDamp=-1.
 Damping current iteration by 5.00D-01
 RMSDP=3.42D-03 MaxDP=2.27D-01              OVMax= 1.78D-01

 Cycle   2  Pass 1  IDiag  1:
 RMSU=  1.70D-03    CP:  9.94D-01
 E= -1028.57262640284     Delta-E=       -0.109523449602 Rises=F Damp=T
 DIIS: error= 1.13D-02 at cycle   2 NSaved=   2.
 NSaved= 2 IEnMin= 2 EnMin= -1028.57262640284     IErMin= 2 ErrMin= 1.13D-02
 ErrMax= 1.13D-02  0.00D+00 EMaxC= 1.00D-01 BMatC= 5.69D-02 BMatP= 3.71D-01
 IDIUse=3 WtCom= 8.87D-01 WtEn= 1.13D-01
 Coeff-Com: -0.333D+00 0.133D+01
 Coeff-En:   0.000D+00 0.100D+01
 Coeff:     -0.295D+00 0.130D+01
 Gap=     0.302 Goal=   None    Shift=    0.000
 RMSDP=1.14D-03 MaxDP=2.05D-02 DE=-1.10D-01 OVMax= 1.31D-01

 Cycle   3  Pass 1  IDiag  1:
 RMSU=  1.08D-03    CP:  9.91D-01  1.21D+00
 E= -1028.66756445369     Delta-E=       -0.094938050851 Rises=F Damp=F
 DIIS: error= 6.55D-03 at cycle   3 NSaved=   3.
 NSaved= 3 IEnMin= 3 EnMin= -1028.66756445369     IErMin= 3 ErrMin= 6.55D-03
 ErrMax= 6.55D-03  0.00D+00 EMaxC= 1.00D-01 BMatC= 1.21D-02 BMatP= 5.69D-02
 IDIUse=3 WtCom= 9.34D-01 WtEn= 6.55D-02
 Coeff-Com: -0.210D+00 0.491D+00 0.718D+00
 Coeff-En:   0.000D+00 0.000D+00 0.100D+01
 Coeff:     -0.196D+00 0.459D+00 0.737D+00
 Gap=     0.263 Goal=   None    Shift=    0.000
 RMSDP=5.06D-04 MaxDP=2.09D-02 DE=-9.49D-02 OVMax= 4.13D-02

 Cycle   4  Pass 1  IDiag  1:
 RMSU=  3.68D-04    CP:  9.89D-01  1.38D+00  8.38D-01
 E= -1028.67944869004     Delta-E=       -0.011884236349 Rises=F Damp=F
 DIIS: error= 2.31D-03 at cycle   4 NSaved=   4.
 NSaved= 4 IEnMin= 4 EnMin= -1028.67944869004     IErMin= 4 ErrMin= 2.31D-03
 ErrMax= 2.31D-03  0.00D+00 EMaxC= 1.00D-01 BMatC= 1.87D-03 BMatP= 1.21D-02
 IDIUse=3 WtCom= 9.77D-01 WtEn= 2.31D-02
 Coeff-Com: -0.821D-01 0.164D+00 0.374D+00 0.544D+00
 Coeff-En:   0.000D+00 0.000D+00 0.000D+00 0.100D+01
 Coeff:     -0.802D-01 0.161D+00 0.365D+00 0.554D+00
 Gap=     0.262 Goal=   None    Shift=    0.000
 RMSDP=1.62D-04 MaxDP=9.74D-03 DE=-1.19D-02 OVMax= 1.18D-02

 Cycle   5  Pass 1  IDiag  1:
 RMSU=  1.04D-04    CP:  9.89D-01  1.38D+00  9.11D-01  7.40D-01
 E= -1028.68138674468     Delta-E=       -0.001938054640 Rises=F Damp=F
 DIIS: error= 4.84D-04 at cycle   5 NSaved=   5.
 NSaved= 5 IEnMin= 5 EnMin= -1028.68138674468     IErMin= 5 ErrMin= 4.84D-04
 ErrMax= 4.84D-04  0.00D+00 EMaxC= 1.00D-01 BMatC= 7.34D-05 BMatP= 1.87D-03
 IDIUse=3 WtCom= 9.95D-01 WtEn= 4.84D-03
 Coeff-Com: -0.679D-02 0.776D-02 0.583D-01 0.195D+00 0.746D+00
 Coeff-En:   0.000D+00 0.000D+00 0.000D+00 0.000D+00 0.100D+01
 Coeff:     -0.676D-02 0.772D-02 0.580D-01 0.194D+00 0.747D+00
 Gap=     0.262 Goal=   None    Shift=    0.000
 RMSDP=4.93D-05 MaxDP=1.58D-03 DE=-1.94D-03 OVMax= 4.79D-03

 Cycle   6  Pass 1  IDiag  1:
 RMSU=  3.43D-05    CP:  9.89D-01  1.39D+00  9.26D-01  8.21D-01  1.03D+00
 E= -1028.68150771721     Delta-E=       -0.000120972533 Rises=F Damp=F
 DIIS: error= 1.67D-04 at cycle   6 NSaved=   6.
 NSaved= 6 IEnMin= 6 EnMin= -1028.68150771721     IErMin= 6 ErrMin= 1.67D-04
 ErrMax= 1.67D-04  0.00D+00 EMaxC= 1.00D-01 BMatC= 9.77D-06 BMatP= 7.34D-05
 IDIUse=3 WtCom= 9.98D-01 WtEn= 1.67D-03
 Coeff-Com:  0.156D-01-0.325D-01-0.572D-01-0.450D-01 0.209D+00 0.910D+00
 Coeff-En:   0.000D+00 0.000D+00 0.000D+00 0.000D+00 0.000D+00 0.100D+01
 Coeff:      0.156D-01-0.324D-01-0.572D-01-0.449D-01 0.209D+00 0.910D+00
 Gap=     0.263 Goal=   None    Shift=    0.000
 RMSDP=3.26D-05 MaxDP=1.55D-03 DE=-1.21D-04 OVMax= 3.02D-03

 Cycle   7  Pass 1  IDiag  1:
 RMSU=  1.74D-05    CP:  9.89D-01  1.39D+00  9.39D-01  8.62D-01  1.20D+00
                    CP:  1.19D+00
 E= -1028.68153654038     Delta-E=       -0.000028823166 Rises=F Damp=F
 DIIS: error= 1.21D-04 at cycle   7 NSaved=   7.
 NSaved= 7 IEnMin= 7 EnMin= -1028.68153654038     IErMin= 7 ErrMin= 1.21D-04
 ErrMax= 1.21D-04  0.00D+00 EMaxC= 1.00D-01 BMatC= 2.11D-06 BMatP= 9.77D-06
 IDIUse=3 WtCom= 9.99D-01 WtEn= 1.21D-03
 Coeff-Com:  0.734D-02-0.142D-01-0.313D-01-0.457D-01-0.256D-01 0.378D+00
 Coeff-Com:  0.731D+00
 Coeff-En:   0.000D+00 0.000D+00 0.000D+00 0.000D+00 0.000D+00 0.000D+00
 Coeff-En:   0.100D+01
 Coeff:      0.733D-02-0.142D-01-0.313D-01-0.456D-01-0.256D-01 0.378D+00
 Coeff:      0.732D+00
 Gap=     0.263 Goal=   None    Shift=    0.000
 RMSDP=1.09D-05 MaxDP=5.64D-04 DE=-2.88D-05 OVMax= 1.33D-03

 Cycle   8  Pass 1  IDiag  1:
 RMSU=  7.13D-06    CP:  9.89D-01  1.39D+00  9.40D-01  8.67D-01  1.24D+00
                    CP:  1.38D+00  1.05D+00
 E= -1028.68154111769     Delta-E=       -0.000004577317 Rises=F Damp=F
 DIIS: error= 3.50D-05 at cycle   8 NSaved=   8.
 NSaved= 8 IEnMin= 8 EnMin= -1028.68154111769     IErMin= 8 ErrMin= 3.50D-05
 ErrMax= 3.50D-05  0.00D+00 EMaxC= 1.00D-01 BMatC= 2.51D-07 BMatP= 2.11D-06
 IDIUse=1 WtCom= 1.00D+00 WtEn= 0.00D+00
 Coeff-Com: -0.874D-03 0.206D-02 0.194D-02-0.319D-02-0.388D-01-0.486D-01
 Coeff-Com:  0.218D+00 0.869D+00
 Coeff:     -0.874D-03 0.206D-02 0.194D-02-0.319D-02-0.388D-01-0.486D-01
 Coeff:      0.218D+00 0.869D+00
 Gap=     0.263 Goal=   None    Shift=    0.000
 RMSDP=4.64D-06 MaxDP=1.38D-04 DE=-4.58D-06 OVMax= 6.24D-04

 Cycle   9  Pass 1  IDiag  1:
 RMSU=  2.22D-06    CP:  9.89D-01  1.39D+00  9.40D-01  8.68D-01  1.24D+00
                    CP:  1.45D+00  1.24D+00  1.10D+00
 E= -1028.68154181230     Delta-E=       -0.000000694603 Rises=F Damp=F
 DIIS: error= 1.61D-05 at cycle   9 NSaved=   9.
 NSaved= 9 IEnMin= 9 EnMin= -1028.68154181230     IErMin= 9 ErrMin= 1.61D-05
 ErrMax= 1.61D-05  0.00D+00 EMaxC= 1.00D-01 BMatC= 4.82D-08 BMatP= 2.51D-07
 IDIUse=1 WtCom= 1.00D+00 WtEn= 0.00D+00
 Coeff-Com: -0.125D-02 0.253D-02 0.472D-02 0.516D-02-0.109D-01-0.703D-01
 Coeff-Com: -0.121D-01 0.332D+00 0.750D+00
 Coeff:     -0.125D-02 0.253D-02 0.472D-02 0.516D-02-0.109D-01-0.703D-01
 Coeff:     -0.121D-01 0.332D+00 0.750D+00
 Gap=     0.263 Goal=   None    Shift=    0.000
 RMSDP=1.79D-06 MaxDP=5.71D-05 DE=-6.95D-07 OVMax= 1.64D-04

 Cycle  10  Pass 1  IDiag  1:
 RMSU=  9.35D-07    CP:  9.89D-01  1.39D+00  9.40D-01  8.68D-01  1.25D+00
                    CP:  1.47D+00  1.28D+00  1.25D+00  1.09D+00
 E= -1028.68154192583     Delta-E=       -0.000000113529 Rises=F Damp=F
 DIIS: error= 6.65D-06 at cycle  10 NSaved=  10.
 NSaved=10 IEnMin=10 EnMin= -1028.68154192583     IErMin=10 ErrMin= 6.65D-06
 ErrMax= 6.65D-06  0.00D+00 EMaxC= 1.00D-01 BMatC= 6.30D-09 BMatP= 4.82D-08
 IDIUse=1 WtCom= 1.00D+00 WtEn= 0.00D+00
 Coeff-Com: -0.250D-03 0.463D-03 0.117D-02 0.235D-02 0.276D-02-0.189D-01
 Coeff-Com: -0.416D-01-0.314D-01 0.215D+00 0.871D+00
 Coeff:     -0.250D-03 0.463D-03 0.117D-02 0.235D-02 0.276D-02-0.189D-01
 Coeff:     -0.416D-01-0.314D-01 0.215D+00 0.871D+00
 Gap=     0.263 Goal=   None    Shift=    0.000
 RMSDP=9.27D-07 MaxDP=3.04D-05 DE=-1.14D-07 OVMax= 1.34D-04

 Cycle  11  Pass 1  IDiag  1:
 RMSU=  4.33D-07    CP:  9.89D-01  1.39D+00  9.40D-01  8.68D-01  1.25D+00
                    CP:  1.48D+00  1.31D+00  1.30D+00  1.29D+00  1.16D+00
 E= -1028.68154195147     Delta-E=       -0.000000025647 Rises=F Damp=F
 DIIS: error= 2.87D-06 at cycle  11 NSaved=  11.
 NSaved=11 IEnMin=11 EnMin= -1028.68154195147     IErMin=11 ErrMin= 2.87D-06
 ErrMax= 2.87D-06  0.00D+00 EMaxC= 1.00D-01 BMatC= 1.65D-09 BMatP= 6.30D-09
 IDIUse=1 WtCom= 1.00D+00 WtEn= 0.00D+00
 Coeff-Com:  0.141D-03-0.295D-03-0.462D-03-0.559D-04 0.281D-02 0.424D-02
 Coeff-Com: -0.922D-02-0.527D-01-0.692D-01 0.315D+00 0.809D+00
 Coeff:      0.141D-03-0.295D-03-0.462D-03-0.559D-04 0.281D-02 0.424D-02
 Coeff:     -0.922D-02-0.527D-01-0.692D-01 0.315D+00 0.809D+00
 Gap=     0.263 Goal=   None    Shift=    0.000
 RMSDP=3.63D-07 MaxDP=7.47D-06 DE=-2.56D-08 OVMax= 5.38D-05

 Cycle  12  Pass 1  IDiag  1:
 RMSU=  1.66D-07    CP:  9.89D-01  1.39D+00  9.40D-01  8.68D-01  1.25D+00
                    CP:  1.48D+00  1.31D+00  1.32D+00  1.36D+00  1.40D+00
                    CP:  1.11D+00
 E= -1028.68154195666     Delta-E=       -0.000000005190 Rises=F Damp=F
 DIIS: error= 1.00D-06 at cycle  12 NSaved=  12.
 NSaved=12 IEnMin=12 EnMin= -1028.68154195666     IErMin=12 ErrMin= 1.00D-06
 ErrMax= 1.00D-06  0.00D+00 EMaxC= 1.00D-01 BMatC= 2.84D-10 BMatP= 1.65D-09
 IDIUse=1 WtCom= 1.00D+00 WtEn= 0.00D+00
 Coeff-Com:  0.107D-03-0.210D-03-0.450D-03-0.573D-03 0.440D-03 0.592D-02
 Coeff-Com:  0.695D-02-0.886D-02-0.923D-01-0.103D+00 0.217D+00 0.974D+00
 Coeff:      0.107D-03-0.210D-03-0.450D-03-0.573D-03 0.440D-03 0.592D-02
 Coeff:      0.695D-02-0.886D-02-0.923D-01-0.103D+00 0.217D+00 0.974D+00
 Gap=     0.263 Goal=   None    Shift=    0.000
 RMSDP=2.29D-07 MaxDP=5.10D-06 DE=-5.19D-09 OVMax= 3.50D-05

 Cycle  13  Pass 1  IDiag  1:
 RMSU=  7.04D-08    CP:  9.89D-01  1.39D+00  9.40D-01  8.68D-01  1.25D+00
                    CP:  1.48D+00  1.31D+00  1.33D+00  1.41D+00  1.53D+00
                    CP:  1.40D+00  1.27D+00
 E= -1028.68154195805     Delta-E=       -0.000000001386 Rises=F Damp=F
 DIIS: error= 4.63D-07 at cycle  13 NSaved=  13.
 NSaved=13 IEnMin=13 EnMin= -1028.68154195805     IErMin=13 ErrMin= 4.63D-07
 ErrMax= 4.63D-07  0.00D+00 EMaxC= 1.00D-01 BMatC= 3.27D-11 BMatP= 2.84D-10
 IDIUse=1 WtCom= 1.00D+00 WtEn= 0.00D+00
 Coeff-Com:  0.150D-05-0.666D-06-0.298D-04-0.109D-03-0.218D-03 0.760D-03
 Coeff-Com:  0.292D-02 0.711D-02-0.118D-01-0.623D-01-0.874D-01 0.225D+00
 Coeff-Com:  0.926D+00
 Coeff:      0.150D-05-0.666D-06-0.298D-04-0.109D-03-0.218D-03 0.760D-03
 Coeff:      0.292D-02 0.711D-02-0.118D-01-0.623D-01-0.874D-01 0.225D+00
 Coeff:      0.926D+00
 Gap=     0.263 Goal=   None    Shift=    0.000
 RMSDP=6.77D-08 MaxDP=1.61D-06 DE=-1.39D-09 OVMax= 9.03D-06

 Cycle  14  Pass 1  IDiag  1:
 RMSU=  2.72D-08    CP:  9.89D-01  1.39D+00  9.40D-01  8.68D-01  1.25D+00
                    CP:  1.48D+00  1.31D+00  1.33D+00  1.41D+00  1.57D+00
                    CP:  1.47D+00  1.49D+00  1.19D+00
 E= -1028.68154195817     Delta-E=       -0.000000000124 Rises=F Damp=F
 DIIS: error= 1.23D-07 at cycle  14 NSaved=  14.
 NSaved=14 IEnMin=14 EnMin= -1028.68154195817     IErMin=14 ErrMin= 1.23D-07
 ErrMax= 1.23D-07  0.00D+00 EMaxC= 1.00D-01 BMatC= 5.25D-12 BMatP= 3.27D-11
 IDIUse=1 WtCom= 1.00D+00 WtEn= 0.00D+00
 Coeff-Com: -0.115D-04 0.233D-04 0.403D-04 0.248D-04-0.125D-03-0.385D-03
 Coeff-Com:  0.197D-03 0.346D-02 0.509D-02-0.920D-02-0.549D-01-0.284D-01
 Coeff-Com:  0.337D+00 0.748D+00
 Coeff:     -0.115D-04 0.233D-04 0.403D-04 0.248D-04-0.125D-03-0.385D-03
 Coeff:      0.197D-03 0.346D-02 0.509D-02-0.920D-02-0.549D-01-0.284D-01
 Coeff:      0.337D+00 0.748D+00
 Gap=     0.263 Goal=   None    Shift=    0.000
 RMSDP=1.75D-08 MaxDP=4.01D-07 DE=-1.24D-10 OVMax= 2.48D-06

 Cycle  15  Pass 1  IDiag  1:
 RMSU=  9.00D-09    CP:  9.89D-01  1.39D+00  9.40D-01  8.68D-01  1.25D+00
                    CP:  1.48D+00  1.31D+00  1.33D+00  1.42D+00  1.57D+00
                    CP:  1.49D+00  1.53D+00  1.33D+00  1.06D+00
 E= -1028.68154195819     Delta-E=       -0.000000000013 Rises=F Damp=F
 DIIS: error= 4.84D-08 at cycle  15 NSaved=  15.
 NSaved=15 IEnMin=15 EnMin= -1028.68154195819     IErMin=15 ErrMin= 4.84D-08
 ErrMax= 4.84D-08  0.00D+00 EMaxC= 1.00D-01 BMatC= 5.09D-13 BMatP= 5.25D-12
 IDIUse=1 WtCom= 1.00D+00 WtEn= 0.00D+00
 Coeff-Com: -0.259D-05 0.482D-05 0.141D-04 0.243D-04 0.411D-06-0.235D-03
 Coeff-Com: -0.505D-03-0.309D-03 0.325D-02 0.895D-02 0.155D-02-0.461D-01
 Coeff-Com: -0.750D-01 0.145D+00 0.963D+00
 Coeff:     -0.259D-05 0.482D-05 0.141D-04 0.243D-04 0.411D-06-0.235D-03
 Coeff:     -0.505D-03-0.309D-03 0.325D-02 0.895D-02 0.155D-02-0.461D-01
 Coeff:     -0.750D-01 0.145D+00 0.963D+00
 Gap=     0.263 Goal=   None    Shift=    0.000
 RMSDP=8.02D-09 MaxDP=1.72D-07 DE=-1.30D-11 OVMax= 7.99D-07

 Error on total polarization charges =  0.00805
 SCF Done:  E(RwB97XD) =  -1028.68154196     A.U. after   15 cycles
            NFock= 15  Conv=0.80D-08     -V/T= 2.0040
 KE= 1.024558132849D+03 PE=-4.608864831073D+03 EE= 1.457424262720D+03
 Leave Link  502 at Tue Oct 27 22:02:44 2020, MaxMem=  7784628224 cpu:             824.2 elap:              83.1
 (Enter /gpfs/loomis/apps/avx/software/Gaussian/16-C.01_AVX/g16/l601.exe)
 Copying SCF densities to generalized density rwf, IOpCl= 0 IROHF=0.

 **********************************************************************

            Population analysis using the SCF Density.

 **********************************************************************

 Alpha  occ. eigenvalues --  -89.08721 -19.27284 -14.45806 -10.39206 -10.38648
 Alpha  occ. eigenvalues --  -10.34416 -10.34375 -10.33101 -10.32497 -10.32268
 Alpha  occ. eigenvalues --  -10.31931 -10.31255 -10.31216 -10.31089 -10.30937
 Alpha  occ. eigenvalues --  -10.30892  -8.10657  -6.05502  -6.05164  -6.04726
 Alpha  occ. eigenvalues --   -1.24791  -1.07957  -0.97176  -0.95635  -0.91460
 Alpha  occ. eigenvalues --   -0.88840  -0.86600  -0.84340  -0.82744  -0.77178
 Alpha  occ. eigenvalues --   -0.72994  -0.70319  -0.69648  -0.68555  -0.64748
 Alpha  occ. eigenvalues --   -0.60255  -0.59447  -0.58410  -0.56234  -0.54776
 Alpha  occ. eigenvalues --   -0.53882  -0.53517  -0.52674  -0.51007  -0.50959
 Alpha  occ. eigenvalues --   -0.49294  -0.48379  -0.46053  -0.45645  -0.44985
 Alpha  occ. eigenvalues --   -0.43599  -0.43283  -0.42141  -0.39620  -0.36963
 Alpha  occ. eigenvalues --   -0.36475  -0.32269  -0.31625  -0.28167
 Alpha virt. eigenvalues --   -0.01830   0.05424   0.06636   0.07160   0.07857
 Alpha virt. eigenvalues --    0.11474   0.13750   0.15264   0.16207   0.18132
 Alpha virt. eigenvalues --    0.18584   0.21309   0.21835   0.22330   0.23019
 Alpha virt. eigenvalues --    0.23551   0.23843   0.25014   0.28212   0.30858
 Alpha virt. eigenvalues --    0.32165   0.33616   0.35119   0.36308   0.37047
 Alpha virt. eigenvalues --    0.37989   0.38556   0.40840   0.44016   0.46007
 Alpha virt. eigenvalues --    0.46828   0.48705   0.50971   0.51315   0.51781
 Alpha virt. eigenvalues --    0.52389   0.53577   0.54587   0.54984   0.55866
 Alpha virt. eigenvalues --    0.56039   0.56414   0.57374   0.58055   0.58234
 Alpha virt. eigenvalues --    0.58795   0.59047   0.59664   0.59938   0.60053
 Alpha virt. eigenvalues --    0.60655   0.60939   0.62240   0.62780   0.64043
 Alpha virt. eigenvalues --    0.65215   0.66102   0.66495   0.68495   0.69125
 Alpha virt. eigenvalues --    0.70524   0.72038   0.72531   0.72959   0.73279
 Alpha virt. eigenvalues --    0.74042   0.75468   0.76175   0.77414   0.78535
 Alpha virt. eigenvalues --    0.79354   0.79447   0.80905   0.82308   0.82402
 Alpha virt. eigenvalues --    0.83883   0.89275   0.91895   0.93277   0.93987
 Alpha virt. eigenvalues --    0.95111   0.95152   0.96262   0.96919   0.97602
 Alpha virt. eigenvalues --    0.98603   0.99228   1.00421   1.01038   1.02240
 Alpha virt. eigenvalues --    1.03012   1.05035   1.06267   1.07459   1.08008
 Alpha virt. eigenvalues --    1.08354   1.08918   1.09450   1.10893   1.11038
 Alpha virt. eigenvalues --    1.12114   1.13246   1.13305   1.15244   1.15769
 Alpha virt. eigenvalues --    1.16923   1.19129   1.20464   1.22080   1.23992
 Alpha virt. eigenvalues --    1.25170   1.29137   1.33501   1.34991   1.35040
 Alpha virt. eigenvalues --    1.35651   1.36339   1.38618   1.43660   1.44042
 Alpha virt. eigenvalues --    1.47999   1.48923   1.51689   1.52499   1.54581
 Alpha virt. eigenvalues --    1.55480   1.56199   1.57112   1.57498   1.58327
 Alpha virt. eigenvalues --    1.58625   1.59797   1.62070   1.66264   1.66622
 Alpha virt. eigenvalues --    1.68293   1.68604   1.70275   1.70719   1.70913
 Alpha virt. eigenvalues --    1.72344   1.72650   1.72849   1.73889   1.75004
 Alpha virt. eigenvalues --    1.76273   1.77385   1.80022   1.81394   1.82382
 Alpha virt. eigenvalues --    1.83042   1.83598   1.84987   1.85841   1.86089
 Alpha virt. eigenvalues --    1.86777   1.88384   1.89039   1.90316   1.92418
 Alpha virt. eigenvalues --    1.92516   1.93110   1.93921   1.94882   1.95037
 Alpha virt. eigenvalues --    2.00565   2.00818   2.02582   2.03770   2.04977
 Alpha virt. eigenvalues --    2.07956   2.08636   2.09228   2.11359   2.12194
 Alpha virt. eigenvalues --    2.16426   2.18042   2.20786   2.24869   2.26234
 Alpha virt. eigenvalues --    2.26488   2.28061   2.37044   2.38633   2.42122
 Alpha virt. eigenvalues --    2.42365   2.43730   2.47601   2.47926   2.48116
 Alpha virt. eigenvalues --    2.50161   2.51187   2.54219   2.61326   2.63084
 Alpha virt. eigenvalues --    2.66056   2.72748   2.75328   2.78494   2.81441
 Alpha virt. eigenvalues --    2.82449   2.84418   2.89588   2.91725   2.99688
 Alpha virt. eigenvalues --    3.02033   3.09620   3.29062   3.31283   3.31762
 Alpha virt. eigenvalues --    3.54057   3.57509   3.72671   4.46647
          Condensed to atoms (all electrons):
               1          2          3          4          5          6
     1  C    4.759300   0.441692   0.013498  -0.054550  -0.012701   0.524896
     2  C    0.441692   5.341990   0.335377  -0.034776  -0.065780  -0.006440
     3  C    0.013498   0.335377   4.747158   0.488385  -0.005207  -0.065367
     4  C   -0.054550  -0.034776   0.488385   4.779651   0.526750  -0.013186
     5  C   -0.012701  -0.065780  -0.005207   0.526750   4.734944   0.487097
     6  C    0.524896  -0.006440  -0.065367  -0.013186   0.487097   4.749163
     7  H    0.400813  -0.038231   0.008186  -0.000460   0.008085  -0.039369
     8  H   -0.001136   0.012559  -0.031565   0.391821  -0.045094   0.008141
     9  H    0.008983  -0.000800   0.008805  -0.039660   0.404931  -0.045834
    10  H   -0.042166   0.009806  -0.000622   0.008720  -0.043973   0.405531
    11  N    0.009313  -0.065416   0.519498  -0.042352   0.003154  -0.000076
    12  S   -0.066102   0.347049  -0.099998   0.007403   0.000197   0.003596
    13  C   -0.000164   0.003957   0.007775  -0.000754   0.000010   0.000002
    14  C   -0.000008  -0.000028   0.000406   0.000007  -0.000000  -0.000000
    15  C    0.000006   0.000042  -0.001521   0.000003  -0.000001   0.000000
    16  C    0.000000  -0.000002   0.000005  -0.000000   0.000000   0.000000
    17  H   -0.000003   0.000062  -0.000006  -0.000000   0.000000  -0.000000
    18  C    0.000000   0.000007  -0.000040  -0.000000  -0.000000   0.000000
    19  C   -0.000000   0.000000   0.000003  -0.000000   0.000000   0.000000
    20  H   -0.000000  -0.000000  -0.000000   0.000000   0.000000  -0.000000
    21  H   -0.000000  -0.000000   0.000001   0.000000   0.000000  -0.000000
    22  H   -0.000000  -0.000000   0.000000  -0.000000   0.000000  -0.000000
    23  C    0.005001  -0.057563  -0.134479  -0.000115   0.000267  -0.000194
    24  O    0.000001  -0.000037  -0.001221  -0.000024  -0.000000  -0.000000
    25  H   -0.000063   0.001640  -0.002200  -0.000680   0.000005   0.000009
               7          8          9         10         11         12
     1  C    0.400813  -0.001136   0.008983  -0.042166   0.009313  -0.066102
     2  C   -0.038231   0.012559  -0.000800   0.009806  -0.065416   0.347049
     3  C    0.008186  -0.031565   0.008805  -0.000622   0.519498  -0.099998
     4  C   -0.000460   0.391821  -0.039660   0.008720  -0.042352   0.007403
     5  C    0.008085  -0.045094   0.404931  -0.043973   0.003154   0.000197
     6  C   -0.039369   0.008141  -0.045834   0.405531  -0.000076   0.003596
     7  H    0.663620   0.000036  -0.000151  -0.012088  -0.000124  -0.006772
     8  H    0.000036   0.663827  -0.012696  -0.000125  -0.000756  -0.000097
     9  H   -0.000151  -0.012696   0.671458  -0.012379  -0.000109   0.000021
    10  H   -0.012088  -0.000125  -0.012379   0.667930  -0.000002  -0.000149
    11  N   -0.000124  -0.000756  -0.000109  -0.000002   6.441248  -0.080832
    12  S   -0.006772  -0.000097   0.000021  -0.000149  -0.080832  15.498647
    13  C    0.000005   0.000041  -0.000000  -0.000000  -0.015001  -0.062206
    14  C    0.000001   0.000001   0.000000  -0.000000   0.003643  -0.006243
    15  C   -0.000000  -0.000048   0.000000   0.000000  -0.025166   0.004891
    16  C   -0.000000  -0.000000  -0.000000   0.000000  -0.000092  -0.000064
    17  H    0.000001   0.000000  -0.000000  -0.000000   0.000194   0.006794
    18  C   -0.000000   0.000000  -0.000000  -0.000000  -0.000351  -0.000096
    19  C    0.000000   0.000000  -0.000000  -0.000000   0.000051   0.000017
    20  H   -0.000000  -0.000000   0.000000   0.000000   0.000001  -0.000001
    21  H   -0.000000   0.000000   0.000000   0.000000  -0.000003   0.000002
    22  H    0.000000   0.000000  -0.000000  -0.000000   0.000000  -0.000000
    23  C    0.000053  -0.001047   0.000008   0.000003   0.548611   0.304701
    24  O   -0.000000  -0.000140   0.000000  -0.000000  -0.034619  -0.000116
    25  H    0.000001   0.001229  -0.000003   0.000000   0.058351   0.002465
              13         14         15         16         17         18
     1  C   -0.000164  -0.000008   0.000006   0.000000  -0.000003   0.000000
     2  C    0.003957  -0.000028   0.000042  -0.000002   0.000062   0.000007
     3  C    0.007775   0.000406  -0.001521   0.000005  -0.000006  -0.000040
     4  C   -0.000754   0.000007   0.000003  -0.000000  -0.000000  -0.000000
     5  C    0.000010  -0.000000  -0.000001   0.000000   0.000000  -0.000000
     6  C    0.000002  -0.000000   0.000000   0.000000  -0.000000   0.000000
     7  H    0.000005   0.000001  -0.000000  -0.000000   0.000001  -0.000000
     8  H    0.000041   0.000001  -0.000048  -0.000000   0.000000   0.000000
     9  H   -0.000000   0.000000   0.000000  -0.000000  -0.000000  -0.000000
    10  H   -0.000000  -0.000000   0.000000   0.000000  -0.000000  -0.000000
    11  N   -0.015001   0.003643  -0.025166  -0.000092   0.000194  -0.000351
    12  S   -0.062206  -0.006243   0.004891  -0.000064   0.006794  -0.000096
    13  C    5.341419   0.503322   0.261529  -0.010498  -0.037178  -0.078915
    14  C    0.503322   4.787920  -0.019503   0.529819   0.402196  -0.053236
    15  C    0.261529  -0.019503   4.899898  -0.064273   0.008176   0.488455
    16  C   -0.010498   0.529819  -0.064273   4.741048  -0.036618  -0.015237
    17  H   -0.037178   0.402196   0.008176  -0.036618   0.668850  -0.000755
    18  C   -0.078915  -0.053236   0.488455  -0.015237  -0.000755   4.825212
    19  C   -0.045492  -0.017782  -0.008043   0.489659   0.008408   0.507517
    20  H    0.008718  -0.035282  -0.000318   0.402116  -0.012897   0.008452
    21  H    0.011354  -0.000381  -0.024160   0.007101   0.000039   0.382845
    22  H   -0.000897   0.008962   0.009128  -0.042958  -0.000148  -0.042046
    23  C    0.297450  -0.089087  -0.065983   0.007595  -0.020786   0.007736
    24  O   -0.073024   0.003463   0.495450   0.000027  -0.000054  -0.059064
    25  H   -0.053593  -0.001270   0.008171  -0.000030   0.000036   0.010670
              19         20         21         22         23         24
     1  C   -0.000000  -0.000000  -0.000000  -0.000000   0.005001   0.000001
     2  C    0.000000  -0.000000  -0.000000  -0.000000  -0.057563  -0.000037
     3  C    0.000003  -0.000000   0.000001   0.000000  -0.134479  -0.001221
     4  C   -0.000000   0.000000   0.000000  -0.000000  -0.000115  -0.000024
     5  C    0.000000   0.000000   0.000000   0.000000   0.000267  -0.000000
     6  C    0.000000  -0.000000  -0.000000  -0.000000  -0.000194  -0.000000
     7  H    0.000000  -0.000000  -0.000000   0.000000   0.000053  -0.000000
     8  H    0.000000  -0.000000   0.000000   0.000000  -0.001047  -0.000140
     9  H   -0.000000   0.000000   0.000000  -0.000000   0.000008   0.000000
    10  H   -0.000000   0.000000   0.000000  -0.000000   0.000003  -0.000000
    11  N    0.000051   0.000001  -0.000003   0.000000   0.548611  -0.034619
    12  S    0.000017  -0.000001   0.000002  -0.000000   0.304701  -0.000116
    13  C   -0.045492   0.008718   0.011354  -0.000897   0.297450  -0.073024
    14  C   -0.017782  -0.035282  -0.000381   0.008962  -0.089087   0.003463
    15  C   -0.008043  -0.000318  -0.024160   0.009128  -0.065983   0.495450
    16  C    0.489659   0.402116   0.007101  -0.042958   0.007595   0.000027
    17  H    0.008408  -0.012897   0.000039  -0.000148  -0.020786  -0.000054
    18  C    0.507517   0.008452   0.382845  -0.042046   0.007736  -0.059064
    19  C    4.728363  -0.046911  -0.042994   0.407386   0.000504   0.002634
    20  H   -0.046911   0.673624  -0.000150  -0.011748  -0.000331   0.000003
    21  H   -0.042994  -0.000150   0.652848  -0.011829  -0.000411   0.001697
    22  H    0.407386  -0.011748  -0.011829   0.659039   0.000000  -0.000054
    23  C    0.000504  -0.000331  -0.000411   0.000000   5.127264  -0.001696
    24  O    0.002634   0.000003   0.001697  -0.000054  -0.001696   7.122711
    25  H   -0.000057  -0.000001   0.000265   0.000005   0.006664   0.445241
              25
     1  C   -0.000063
     2  C    0.001640
     3  C   -0.002200
     4  C   -0.000680
     5  C    0.000005
     6  C    0.000009
     7  H    0.000001
     8  H    0.001229
     9  H   -0.000003
    10  H    0.000000
    11  N    0.058351
    12  S    0.002465
    13  C   -0.053593
    14  C   -0.001270
    15  C    0.008171
    16  C   -0.000030
    17  H    0.000036
    18  C    0.010670
    19  C   -0.000057
    20  H   -0.000001
    21  H    0.000265
    22  H    0.000005
    23  C    0.006664
    24  O    0.445241
    25  H    0.632308
 Mulliken charges:
               1
     1  C    0.013390
     2  C   -0.225108
     3  C    0.213131
     4  C   -0.016183
     5  C    0.007316
     6  C   -0.007968
     7  H    0.016395
     8  H    0.015049
     9  H    0.017425
    10  H    0.019515
    11  N   -0.319166
    12  S    0.146892
    13  C   -0.057859
    14  C   -0.016919
    15  C    0.033265
    16  C   -0.007600
    17  H    0.013689
    18  C    0.018845
    19  C    0.016738
    20  H    0.014723
    21  H    0.023776
    22  H    0.025159
    23  C    0.065835
    24  O    0.098824
    25  H   -0.109163
 Sum of Mulliken charges =  -0.00000
 Mulliken charges with hydrogens summed into heavy atoms:
               1
     1  C    0.029785
     2  C   -0.225108
     3  C    0.213131
     4  C   -0.001134
     5  C    0.024741
     6  C    0.011547
    11  N   -0.319166
    12  S    0.146892
    13  C   -0.057859
    14  C   -0.003230
    15  C    0.033265
    16  C    0.007123
    18  C    0.042621
    19  C    0.041897
    23  C    0.065835
    24  O   -0.010340
 Electronic spatial extent (au):  <R**2>=           4349.2400
 Charge=             -0.0000 electrons
 Dipole moment (field-independent basis, Debye):
    X=             -0.9450    Y=             -1.2284    Z=              0.0000  Tot=              1.5498
 Quadrupole moment (field-independent basis, Debye-Ang):
   XX=            -82.9169   YY=            -87.0356   ZZ=           -104.1276
   XY=             -7.5770   XZ=             -0.0001   YZ=              0.0002
 Traceless Quadrupole moment (field-independent basis, Debye-Ang):
   XX=              8.4431   YY=              4.3244   ZZ=            -12.7675
   XY=             -7.5770   XZ=             -0.0001   YZ=              0.0002
 Octapole moment (field-independent basis, Debye-Ang**2):
  XXX=              3.1695  YYY=             -4.6757  ZZZ=              0.0000  XYY=             -8.9686
  XXY=              6.4398  XXZ=              0.0002  XZZ=              0.7730  YZZ=              3.7778
  YYZ=              0.0007  XYZ=             -0.0006
 Hexadecapole moment (field-independent basis, Debye-Ang**3):
 XXXX=          -2596.3917 YYYY=          -2584.0250 ZZZZ=           -113.3690 XXXY=            801.3545
 XXXZ=              0.0097 YYYX=            761.4666 YYYZ=             -0.0114 ZZZX=              0.0133
 ZZZY=             -0.0182 XXYY=           -843.4566 XXZZ=           -570.8577 YYZZ=           -549.3983
 XXYZ=             -0.0030 YYXZ=              0.0005 ZZXY=            356.4110
 N-N= 1.098200893545D+03 E-N=-4.608864833701D+03  KE= 1.024558132849D+03
 No NMR shielding tensors so no spin-rotation constants.
 Leave Link  601 at Tue Oct 27 22:02:45 2020, MaxMem=  7784628224 cpu:               1.1 elap:               0.2
 (Enter /gpfs/loomis/apps/avx/software/Gaussian/16-C.01_AVX/g16/l701.exe)
 ... and contract with generalized density number  0.
 Compute integral first derivatives.
 R6Disp: Adding Grimme-D2 dispersion energy 1st derivatives to the gradient.
 D1PCM: PCM CHGder 1st derivatives, ID1Alg=3 FixD1E=F DoIter=F DoCFld=F I1PDM=0.
 GePol: Maximum number of non-zero 1st derivatives   =     266
 Leave Link  701 at Tue Oct 27 22:02:46 2020, MaxMem=  7784628224 cpu:              13.8 elap:               1.4
 (Enter /gpfs/loomis/apps/avx/software/Gaussian/16-C.01_AVX/g16/l702.exe)
 L702 exits ... SP integral derivatives will be done elsewhere.
 Leave Link  702 at Tue Oct 27 22:02:46 2020, MaxMem=  7784628224 cpu:               0.2 elap:               0.0
 (Enter /gpfs/loomis/apps/avx/software/Gaussian/16-C.01_AVX/g16/l703.exe)
 Integral derivatives from FoFJK, PRISM(SPDF).
 Compute integral first derivatives, UseDBF=F ICtDFT=           0.
 Calling FoFJK, ICntrl=      2127 FMM=F ISym2X=0 I1Cent= 0 IOpClX= 0 NMat=1 NMatS=1 NMatT=0.
 FoFJK:  IHMeth= 1 ICntrl=    2127 DoSepK=T KAlg= 0 I1Cent=           0 FoldK=F
 IRaf=         1 NMat=       1 IRICut=       1 DoRegI=T DoRafI=F ISym2E= 0 IDoP0=0 IntGTp=1.
 FoFCou: FMM=F IPFlag=           0 FMFlag=      100000 FMFlg1=         800
         NFxFlg=           0 DoJE=F BraDBF=F KetDBF=F FulRan=T
         wScrn=  0.000000 ICntrl=      2527 IOpCl=  0 I1Cent=           0 NGrid=           0
         NMat0=    1 NMatS0=      1 NMatT0=    0 NMatD0=    1 NMtDS0=    0 NMtDT0=    0
 Symmetry not used in FoFCou.
 Leave Link  703 at Tue Oct 27 22:03:00 2020, MaxMem=  7784628224 cpu:             136.0 elap:              13.7
 (Enter /gpfs/loomis/apps/avx/software/Gaussian/16-C.01_AVX/g16/l716.exe)
 Dipole        =-3.71782058D-01-4.83285405D-01 5.46619733D-06
 -------------------------------------------------------------------
 Center     Atomic                   Forces (Hartrees/Bohr)
 Number     Number              X              Y              Z
 -------------------------------------------------------------------
      1        6           0.006127477   -0.006661823    0.000000006
      2        6           0.004237710    0.013519762   -0.000000124
      3        6           0.024551065   -0.047389667   -0.000000345
      4        6          -0.017645247    0.002993588   -0.000000050
      5        6           0.000454451   -0.008074772    0.000000026
      6        6          -0.003680549    0.004756876   -0.000000035
      7        1           0.000317992   -0.000375902   -0.000000028
      8        1          -0.000219092   -0.000039668   -0.000000005
      9        1          -0.000278752    0.000065477    0.000000003
     10        1          -0.000227784    0.000146731    0.000000012
     11        7          -0.064635527    0.021537566    0.000000591
     12       16           0.005118271    0.011965071    0.000000198
     13        6          -0.030706503    0.062296319    0.000000936
     14        6           0.022089812    0.000699750    0.000000013
     15        6          -0.011904432   -0.036596664   -0.000000647
     16        6          -0.004685234    0.015145736    0.000000377
     17        1          -0.001533621   -0.001052444   -0.000000001
     18        6          -0.002521090   -0.004405844    0.000000013
     19        6           0.002045304   -0.020571104   -0.000000551
     20        1           0.000433233   -0.000132256    0.000000011
     21        1           0.000225669   -0.000102487   -0.000000015
     22        1          -0.000277000    0.000023171   -0.000000053
     23        6           0.066355829   -0.025930664   -0.000000555
     24        8          -0.377531379    0.629506717    0.000014475
     25        1           0.383889398   -0.611323469   -0.000014252
 -------------------------------------------------------------------
 Cartesian Forces:  Max     0.629506717 RMS     0.120046524
 Leave Link  716 at Tue Oct 27 22:03:00 2020, MaxMem=  7784628224 cpu:               0.3 elap:               0.0
 (Enter /gpfs/loomis/apps/avx/software/Gaussian/16-C.01_AVX/g16/l103.exe)

 GradGradGradGradGradGradGradGradGradGradGradGradGradGradGradGradGradGrad
 Berny optimization.
 FormGI is forming the generalized inverse of G from B-inverse, IUseBI=4.
 GSVD:  received Info=                   1 from GESDD.
 Internal  Forces:  Max     0.684205730 RMS     0.061766109
 Search for a local minimum.
 Step number   1 out of a maximum of  143
 All quantities printed in internal units (Hartrees-Bohrs-Radians)
 RMS Force = .62236D-01 SwitMx=.10000D-02 MixMth= 1
 Mixed Optimization -- RFO/linear search
 Second derivative matrix not updated -- first step.
 ITU=  0
     Eigenvalues ---    0.01326   0.01425   0.01639   0.01682   0.01765
     Eigenvalues ---    0.01807   0.01944   0.01946   0.01983   0.01991
     Eigenvalues ---    0.01996   0.02026   0.02046   0.02090   0.02095
     Eigenvalues ---    0.02126   0.02164   0.02178   0.02184   0.02199
     Eigenvalues ---    0.02224   0.02702   0.16000   0.16000   0.16000
     Eigenvalues ---    0.16000   0.16000   0.16000   0.16000   0.16003
     Eigenvalues ---    0.16099   0.22000   0.22028   0.22522   0.22583
     Eigenvalues ---    0.24472   0.24553   0.25000   0.25000   0.25000
     Eigenvalues ---    0.26737   0.29511   0.32810   0.34605   0.34633
     Eigenvalues ---    0.34692   0.34722   0.34729   0.34763   0.34788
     Eigenvalues ---    0.34799   0.36972   0.39211   0.39910   0.40926
     Eigenvalues ---    0.42555   0.43257   0.44099   0.44573   0.46327
     Eigenvalues ---    0.46500   0.47892   0.48558   0.50462   0.57819
     Eigenvalues ---    0.60931   1.755221000.000001000.000001000.00000
     Eigenvalues --- 1000.000001000.000001000.000001000.000001000.00000
     Eigenvalues --- 1000.000001000.000001000.000001000.000001000.00000
     Eigenvalues --- 1000.000001000.000001000.000001000.000001000.00000
     Eigenvalues --- 1000.000001000.000001000.000001000.000001000.00000
     Eigenvalues --- 1000.000001000.000001000.000001000.000001000.00000
     Eigenvalues --- 1000.000001000.000001000.000001000.000001000.00000
     Eigenvalues --- 1000.000001000.000001000.000001000.000001000.00000
     Eigenvalues --- 1000.000001000.000001000.000001000.000001000.00000
     Eigenvalues --- 1000.000001000.000001000.000001000.000001000.00000
     Eigenvalues --- 1000.000001000.000001000.000001000.000001000.00000
     Eigenvalues --- 1000.000001000.000001000.000001000.000001000.00000
     Eigenvalues --- 1000.000001000.000001000.000001000.000001000.00000
     Eigenvalues --- 1000.000001000.000001000.00000
 RFO step:  Lambda=-2.59424775D-01 EMin= 1.32621138D-02
 Linear search not attempted -- first point.
 Maximum step size (   0.300) exceeded in Quadratic search.
    -- Step size scaled by   0.802
 Iteration  1 RMS(Cart)=  0.02352868 RMS(Int)=  0.00610760
 Iteration  2 RMS(Cart)=  0.00628730 RMS(Int)=  0.00019971
 Iteration  3 RMS(Cart)=  0.00008341 RMS(Int)=  0.00019003
 Iteration  4 RMS(Cart)=  0.00000010 RMS(Int)=  0.00019012
 Iteration  1 RMS(Cart)=  0.00000098 RMS(Int)=  0.00000023
 ITry= 1 IFail=0 DXMaxC= 2.02D-01 DCOld= 1.00D+10 DXMaxT= 3.00D-01 DXLimC= 3.00D+00 Rises=F
 Variable       Old X    -DE/DX   Delta X   Delta X   Delta X     New X
                                 (Linear)    (Quad)   (Total)
    R1        2.62738   0.01668   0.00000   0.00955   0.00942   2.63680
    R2        2.63591   0.00689   0.00000  -0.00176  -0.00191   2.63400
    R3        2.06117   0.00040   0.00000   0.00019   0.00018   2.06135
    R4        2.70430  -0.01445   0.00000  -0.02040  -0.02042   2.68388
    R5        3.31394   0.00934   0.00000   0.00259   0.00246   3.31640
    R6        2.69506  -0.02391   0.00000  -0.02183  -0.02173   2.67333
    R7        2.50068   0.01308   0.00000   0.02866   0.02896   2.52964
    R8        2.60571  -0.01021   0.00000  -0.00037  -0.00021   2.60550
    R9        2.06128   0.00003   0.00000  -0.00008  -0.00008   2.06119
   R10        2.66967  -0.00138   0.00000  -0.00512  -0.00518   2.66449
   R11        2.06321  -0.00008   0.00000  -0.00030  -0.00030   2.06291
   R12        2.06178  -0.00032   0.00000  -0.00038  -0.00038   2.06140
   R13        2.56955  -0.06140   0.00000  -0.05313  -0.05298   2.51657
   R14        3.37498   0.03913   0.00000   0.00620   0.00564   3.38062
   R15        2.69585   0.00237   0.00000  -0.01253  -0.01274   2.68312
   R16        2.78699   0.02732   0.00000  -0.02125  -0.02194   2.76505
   R17        2.66071   0.06908   0.00000   0.04859   0.04817   2.70888
   R18        2.61138   0.00081   0.00000   0.00200   0.00201   2.61339
   R19        2.06062   0.00145   0.00000   0.00194   0.00194   2.06256
   R20        2.64463  -0.01717   0.00000  -0.00719  -0.00701   2.63761
   R21        2.50125   0.01940   0.00000   0.01001   0.00984   2.51109
   R22        2.68599  -0.02054   0.00000  -0.02388  -0.02386   2.66213
   R23        2.06275  -0.00070   0.00000  -0.00063  -0.00062   2.06213
   R24        2.62468  -0.02363   0.00000  -0.00891  -0.00865   2.61603
   R25        2.06021   0.00035   0.00000   0.00013   0.00012   2.06033
   R26        2.06003   0.00008   0.00000   0.00030   0.00030   2.06033
   R27        1.33013   0.68421   0.00000   0.27259   0.27310   1.60323
    A1        2.07006  -0.00684   0.00000  -0.00521  -0.00517   2.06489
    A2        2.10867   0.00549   0.00000   0.00430   0.00427   2.11294
    A3        2.10445   0.00134   0.00000   0.00091   0.00091   2.10536
    A4        2.11895  -0.01175   0.00000  -0.00331  -0.00315   2.11581
    A5        2.25298   0.03396   0.00000   0.01938   0.01904   2.27202
    A6        1.91125  -0.02221   0.00000  -0.01607  -0.01589   1.89536
    A7        2.07476   0.01732   0.00000   0.00984   0.00968   2.08444
    A8        2.01480   0.01702   0.00000   0.00709   0.00690   2.02170
    A9        2.19362  -0.03434   0.00000  -0.01692  -0.01657   2.17705
   A10        2.07583   0.00190   0.00000   0.00090   0.00090   2.07673
   A11        2.07874  -0.00257   0.00000  -0.00156  -0.00155   2.07720
   A12        2.12861   0.00067   0.00000   0.00067   0.00065   2.12926
   A13        2.11772  -0.00528   0.00000  -0.00429  -0.00425   2.11347
   A14        2.08743   0.00136   0.00000   0.00124   0.00123   2.08866
   A15        2.07803   0.00392   0.00000   0.00306   0.00302   2.08105
   A16        2.10904   0.00464   0.00000   0.00208   0.00200   2.11104
   A17        2.08524  -0.00129   0.00000  -0.00051  -0.00049   2.08475
   A18        2.08890  -0.00335   0.00000  -0.00156  -0.00151   2.08739
   A19        1.98212   0.00956   0.00000   0.00379   0.00370   1.98583
   A20        1.55418   0.00538   0.00000   0.00804   0.00800   1.56219
   A21        2.02165  -0.02379   0.00000  -0.00029   0.00007   2.02171
   A22        2.20226  -0.03279   0.00000  -0.02137  -0.02108   2.18118
   A23        2.05928   0.05657   0.00000   0.02166   0.02101   2.08029
   A24        2.11333   0.01132   0.00000   0.00853   0.00842   2.12176
   A25        2.07210  -0.00340   0.00000  -0.00153  -0.00149   2.07061
   A26        2.09775  -0.00792   0.00000  -0.00700  -0.00693   2.09082
   A27        2.12612   0.00197   0.00000  -0.00683  -0.00693   2.11919
   A28        2.08008   0.08653   0.00000   0.04870   0.04780   2.12788
   A29        2.07698  -0.08850   0.00000  -0.04187  -0.04087   2.03611
   A30        2.12708  -0.00088   0.00000  -0.01072  -0.01081   2.11628
   A31        2.08011   0.00121   0.00000   0.00570   0.00573   2.08584
   A32        2.07600  -0.00034   0.00000   0.00502   0.00507   2.08107
   A33        2.09200   0.01067   0.00000   0.00743   0.00734   2.09934
   A34        2.06171  -0.00682   0.00000  -0.00489  -0.00483   2.05688
   A35        2.12948  -0.00385   0.00000  -0.00255  -0.00251   2.12697
   A36        2.08619   0.00070   0.00000   0.00188   0.00190   2.08809
   A37        2.09604   0.00116   0.00000  -0.00045  -0.00048   2.09556
   A38        2.10095  -0.00186   0.00000  -0.00143  -0.00142   2.09953
   A39        1.96241  -0.00975   0.00000  -0.00284  -0.00271   1.95970
   A40        2.12186  -0.00913   0.00000  -0.00993  -0.00987   2.11199
   A41        2.19892   0.01888   0.00000   0.01276   0.01258   2.21149
   A42        1.94131   0.01954   0.00000   0.01462   0.01434   1.95565
    D1        0.00000   0.00000   0.00000   0.00000   0.00000   0.00000
    D2       -3.14159   0.00000   0.00000   0.00000   0.00000  -3.14159
    D3        3.14159   0.00000   0.00000   0.00000   0.00000   3.14159
    D4       -0.00000   0.00000   0.00000   0.00000   0.00000  -0.00000
    D5       -0.00000   0.00000   0.00000   0.00000   0.00000  -0.00000
    D6        3.14159   0.00000   0.00000   0.00000   0.00000   3.14159
    D7       -3.14159   0.00000   0.00000   0.00000   0.00000  -3.14159
    D8        0.00000  -0.00000   0.00000  -0.00000  -0.00000   0.00000
    D9       -0.00000  -0.00000   0.00000  -0.00000  -0.00000  -0.00000
   D10        3.14159  -0.00000   0.00000  -0.00000  -0.00000   3.14159
   D11        3.14159  -0.00000   0.00000  -0.00000  -0.00000   3.14159
   D12       -0.00000  -0.00000   0.00000  -0.00000  -0.00000  -0.00000
   D13        3.14159   0.00000   0.00000   0.00000   0.00000   3.14159
   D14       -0.00000   0.00000   0.00000   0.00000   0.00000  -0.00000
   D15        0.00000   0.00000   0.00000   0.00000   0.00000   0.00000
   D16       -3.14159   0.00000   0.00000   0.00000   0.00000  -3.14159
   D17       -3.14159   0.00000   0.00000   0.00000   0.00000  -3.14159
   D18        0.00000   0.00000   0.00000   0.00000   0.00000   0.00000
   D19        0.00000  -0.00000   0.00000  -0.00000  -0.00000   0.00000
   D20       -3.14159  -0.00000   0.00000  -0.00000  -0.00000  -3.14159
   D21        0.00000  -0.00000   0.00000  -0.00000   0.00000   0.00000
   D22       -3.14159  -0.00000   0.00000  -0.00000  -0.00000  -3.14159
   D23       -3.14159   0.00000   0.00000   0.00000   0.00000  -3.14159
   D24        0.00000   0.00000   0.00000   0.00000   0.00000   0.00000
   D25        0.00000  -0.00000   0.00000  -0.00000  -0.00000   0.00000
   D26       -3.14159  -0.00000   0.00000  -0.00000  -0.00000  -3.14159
   D27       -3.14159  -0.00000   0.00000  -0.00000  -0.00000   3.14159
   D28       -0.00000   0.00000   0.00000   0.00000   0.00000   0.00000
   D29       -0.00001   0.00000   0.00000   0.00000   0.00000  -0.00001
   D30        3.14158   0.00000   0.00000   0.00000   0.00000   3.14158
   D31        0.00000  -0.00000   0.00000  -0.00000  -0.00000   0.00000
   D32       -3.14158  -0.00000   0.00000  -0.00000  -0.00000  -3.14158
   D33       -0.00000  -0.00000   0.00000  -0.00000  -0.00000  -0.00000
   D34        3.14159  -0.00000   0.00000  -0.00000  -0.00000   3.14159
   D35        3.14159  -0.00000   0.00000  -0.00000  -0.00000   3.14159
   D36       -0.00000  -0.00000   0.00000  -0.00000  -0.00000  -0.00000
   D37        0.00000   0.00000   0.00000   0.00000   0.00000   0.00000
   D38        3.14159   0.00000   0.00000   0.00000   0.00000   3.14159
   D39       -3.14159   0.00000   0.00000   0.00000   0.00000  -3.14159
   D40        0.00000   0.00000   0.00000   0.00000   0.00000   0.00000
   D41        3.14158  -0.00000   0.00000  -0.00000  -0.00000   3.14158
   D42       -0.00002  -0.00000   0.00000   0.00000   0.00000  -0.00002
   D43       -0.00001  -0.00000   0.00000  -0.00000  -0.00000  -0.00001
   D44        3.14157  -0.00000   0.00000   0.00000   0.00000   3.14157
   D45       -0.00000  -0.00000   0.00000  -0.00000  -0.00000  -0.00000
   D46       -3.14159   0.00000   0.00000   0.00000   0.00000  -3.14159
   D47       -3.14159  -0.00000   0.00000  -0.00000  -0.00000   3.14159
[...]
 550647,-0.00000246,-0.08791983,0.01936976,0.00000046,-0.01860383,0.680
 42842,0.,0.,0.00032042,0.00000002,0.00000005,0.00025560,0.00000005,-0.
 00000002,-0.00088872,-0.00000002,0.,-0.00011852,0.,-0.00000002,0.00007
 538,0.,0.,-0.00009109,0.,0.,0.00001442,0.,0.,-0.00003762,0.,0.,0.00002
 549,0.,0.,-0.00003743,-0.00000004,0.00000018,0.00029377,-0.00000007,0.
 00000003,0.00122647,0.00000072,-0.00000295,-0.07098688,-0.00000241,0.0
 0000051,0.00168085,-0.00000475,0.00000972,0.17535463,0.00014037,-0.000
 06321,0.,-0.00029443,0.00062445,0.00000001,0.00038239,-0.00082650,0.,-
 0.00014103,0.00023854,0.,-0.00000191,0.00001074,0.,-0.00012108,0.00006
 044,0.,-0.00001064,0.00002296,0.,0.00004021,-0.00001240,0.,-0.00002483
 ,0.00001892,0.,-0.00000307,0.00001132,0.,-0.00312685,0.00193633,0.,-0.
 00011601,0.00057142,0.,-0.04379127,0.01455746,0.00000011,-0.23155975,0
 .15804408,0.00000301,0.00036680,0.01746341,0.00000030,0.76597228,-0.00
 047700,0.00088023,0.,0.00116273,-0.00077733,0.00000001,-0.00035542,0.0
 0120377,0.00000004,-0.00043603,-0.00009700,0.,-0.00013468,-0.00082315,
 -0.00000001,0.00103803,-0.00015411,-0.00000001,-0.00003907,-0.00007297
 ,0.,0.00002114,0.00004044,0.,0.00010090,-0.00003917,0.,0.00006029,-0.0
 0003296,0.,0.00568650,0.00211342,0.00000002,-0.00150710,-0.00107754,-0
 .00000003,0.06691822,0.03858667,0.00000082,0.08507639,-0.26778666,-0.0
 0000401,0.02618171,-0.07432467,-0.00000181,0.00184494,0.68041356,-0.00
 000002,0.00000003,0.00006292,0.00000006,-0.00000002,0.00033540,0.00000
 001,0.,-0.00069288,-0.00000003,0.,-0.00012728,0.,-0.00000004,0.0000708
 9,0.00000004,0.,-0.00001667,0.,0.,0.00000215,0.,0.,0.00000212,0.,0.,0.
 00001583,0.,0.,-0.00002781,0.00000006,0.00000008,0.00011848,-0.0000000
 2,-0.00000006,-0.00062287,0.00000129,0.00000077,0.00727366,0.00000162,
 -0.00000430,-0.06274954,0.00000066,-0.00000157,-0.00441557,0.00000232,
 0.00001423,0.12833417,0.00026541,0.00005819,0.,-0.00064583,0.00018902,
 0.00000005,0.00027447,-0.00005078,0.,0.00001606,0.00002571,0.,0.000048
 66,0.00005087,0.,-0.00005636,-0.00008597,0.,-0.00001297,-0.00001031,0.
 ,0.00003334,0.00000704,0.,0.00001129,-0.00000098,0.,0.00003122,-0.0000
 0633,0.,0.00027072,0.00040512,0.,-0.00113563,0.00183453,-0.00000012,-0
 .00507794,-0.02798320,-0.00000061,-0.09342137,-0.09365317,-0.00000228,
 -0.00550188,0.00104956,-0.00000003,0.01092798,0.01987243,0.00000045,0.
 09544530,0.00001416,-0.00001934,0.,-0.00007771,0.00048744,0.00000001,0
 .00025015,-0.00020573,0.,-0.00000168,0.00006313,0.,0.00001345,0.000039
 91,0.,-0.00005813,0.00000920,0.,-0.00000811,0.00000661,0.,0.00001998,0
 .00000134,0.,-0.00000290,0.00000180,0.,0.00000066,0.00000114,0.,-0.000
 55011,0.00024021,0.00000001,0.00038566,0.00000762,-0.00000013,0.001079
 47,-0.00123743,-0.00000009,-0.09161702,-0.30545037,-0.00000610,-0.0001
 2560,0.00188128,-0.00000012,-0.01234913,-0.01691302,-0.00000048,0.0978
 7694,0.32351070,0.00000001,0.,-0.00001438,-0.00000003,0.00000002,-0.00
 054160,0.,0.00000001,0.00011392,0.00000001,0.,0.00008574,0.,0.,-0.0000
 2686,0.,0.,0.00002806,0.,0.,-0.00001372,0.,0.,-0.00001767,0.,0.,-0.000
 00602,0.,0.,0.00002053,0.00000005,0.,0.00006274,-0.00000010,-0.0000000
 9,0.00095569,0.00000027,-0.00000013,0.00307720,-0.00000254,-0.00000603
 ,-0.03750748,-0.00000001,-0.00000019,0.00590121,-0.00000012,-0.0000006
 3,0.00482184,0.00000245,0.00000691,0.02497405,0.00012980,0.00035104,0.
 ,0.00035673,-0.00008151,0.00000002,0.00105107,-0.00012180,0.,-0.000378
 96,-0.00012510,0.,-0.00001059,-0.00034139,0.,0.00031313,-0.00008507,0.
 ,-0.00003436,-0.00000365,0.,0.00009527,0.00001328,0.,0.00003767,-0.000
 01632,0.,0.00003135,-0.00000098,0.,0.00190027,0.00379702,-0.00000001,0
 .00030493,0.00005140,-0.00000003,0.05707854,0.03427003,0.00000109,-0.0
 6292930,0.02668631,0.00000057,-0.18429368,0.06199811,0.00000202,-0.005
 78965,-0.08880923,-0.00000204,-0.00084323,0.00059052,-0.00000015,0.774
 66467,0.00037001,-0.00026359,0.,-0.00094454,-0.00020495,0.,-0.00032151
 ,0.00009502,0.,0.00040362,0.00002082,0.,0.00008746,0.00047460,0.,-0.00
 045675,-0.00006749,0.,-0.00000221,0.00002433,0.,0.00000356,-0.00000985
 ,0.,-0.00002653,0.00001585,0.,0.00000886,0.00000337,0.,-0.00098070,-0.
 00071156,-0.00000001,0.00134052,-0.00024407,0.,-0.00377180,-0.03666433
 ,-0.00000114,0.02262178,-0.01230510,-0.00000021,0.13259387,-0.26102985
 ,-0.00000534,-0.03814054,0.01868363,0.00000016,0.00032669,0.00053805,0
 .00000011,0.04597164,0.72857970,0.00000002,-0.00000002,-0.00020769,-0.
 00000006,0.,-0.00004273,-0.00000002,0.,-0.00043421,0.00000002,0.,0.000
 00830,0.,0.00000003,0.00001221,-0.00000003,0.,0.00002088,0.,0.,-0.0000
 1656,0.,0.,-0.00001082,0.,0.,-0.00000682,0.,0.,0.00003835,-0.00000005,
 -0.00000005,0.00081856,0.00000007,-0.00000002,-0.00009802,-0.00000003,
 -0.00000063,0.00746319,0.00000050,-0.00000024,-0.00352329,0.00000364,-
 0.00000572,-0.07088062,-0.00000094,0.00000010,0.00827245,0.,0.00000005
 ,-0.00101802,-0.00000148,0.00001499,0.12410861,0.00033692,-0.00063163,
 0.,-0.00114146,0.00037084,-0.00000001,-0.00042810,-0.00010284,-0.00000
 001,0.00060709,0.00007078,0.,0.00007757,0.00076938,0.,-0.00080600,0.00
 003580,0.,0.00002618,0.00005422,0.,-0.00002920,-0.00003627,0.,-0.00007
 592,0.00003463,0.,-0.00003990,0.00002205,0.,-0.00275071,-0.00154956,0.
 ,0.00102231,0.00028882,0.00000002,-0.04135624,-0.02368320,-0.00000059,
 0.06530020,-0.00697774,-0.00000016,-0.05333197,0.06300862,0.00000167,-
 0.15317263,-0.02932673,-0.00000122,-0.00222544,0.00422351,0.00000017,-
 0.39158662,-0.08255302,-0.00000124,0.75012123,0.00010501,-0.00020285,0
 .,-0.00021096,0.00026703,0.,0.00028149,-0.00084226,-0.00000002,-0.0000
 7258,0.00013692,0.,0.00004530,0.00009614,0.,-0.00021999,0.00009743,0.,
 0.00001146,0.00001319,0.,-0.00001395,-0.00000691,0.,-0.00002830,0.0000
 1221,0.,-0.00001082,0.00000711,0.,-0.00355877,-0.00075768,0.00000002,0
 .00040131,0.00024037,0.00000002,-0.03957647,-0.02472850,-0.00000065,0.
 05040929,-0.05846208,-0.00000160,0.00685300,0.06292265,0.00000144,-0.1
 0334731,-0.31078829,-0.00000725,0.00344283,-0.00210996,-0.00000010,-0.
 01072064,-0.14119132,-0.00000173,-0.03305557,0.71379341,0.,0.,0.000017
 18,0.,0.00000001,-0.00000846,0.00000001,-0.00000003,0.00019356,0.,0.,0
 .00000950,0.,0.,-0.00001542,0.,0.,0.00000319,0.,0.,-0.00000010,0.,0.,0
 .00000838,0.,0.,-0.00000125,0.,0.,-0.00000733,-0.00000010,-0.00000002,
 -0.00015340,0.,0.,0.00002524,-0.00000100,-0.00000050,-0.00383959,0.000
 00121,-0.00000152,0.00690110,0.00000038,0.00000143,0.00039500,-0.00000
 293,-0.00000720,-0.06419136,0.00000005,-0.00000021,0.00751595,0.,-0.00
 000188,-0.05842348,-0.00000124,0.00001568,0.14196386,0.00001700,-0.000
 06952,0.,-0.00006605,0.00012230,0.,-0.00003639,-0.00005189,0.,0.000045
 81,0.00003393,0.,-0.00000738,0.00006255,0.,-0.00007583,0.00001294,0.,0
 .00000253,0.00001028,0.,0.00000264,-0.00000612,0.,-0.00001141,0.000006
 41,0.,-0.00000912,0.00000568,0.,-0.00041498,0.00033803,0.,0.00003181,0
 .00005279,0.,0.00002798,0.00362675,0.00000004,-0.01439786,-0.00730528,
 -0.00000023,0.00054399,0.00025651,0.,-0.33911866,-0.05168824,-0.000002
 25,0.00075990,0.00007972,0.00000002,0.00138954,-0.00197747,-0.00000008
 ,-0.00578636,0.00235920,0.00000006,0.35717572,-0.00000114,0.00002073,0
 .,0.00002690,-0.00006311,0.,0.00006938,0.00005100,0.,-0.00000615,-0.00
 004106,0.,0.00001084,-0.00001038,0.,0.00001944,-0.00000735,0.,0.000000
 31,-0.00000430,0.,0.00000026,0.00000216,0.,0.00000445,-0.00000418,0.,0
 .00000297,-0.00000147,0.,0.00040576,-0.00028905,0.,0.00000714,0.000029
 13,0.,0.00245859,-0.00338375,-0.00000023,0.02508460,0.00746560,0.00000
 022,0.00048812,-0.00156801,-0.00000002,-0.05245043,-0.06739306,-0.0000
 0111,-0.00019176,0.00092776,0.00000013,-0.00097521,-0.00526339,-0.0000
 0032,-0.02982597,-0.00007346,-0.00000012,0.05529019,0.06757844,0.,0.,-
 0.00000094,0.,0.,-0.00000927,0.,0.,-0.00018598,0.,0.,-0.00000572,0.,0.
 ,0.00001504,0.,0.,-0.00000536,0.,0.,0.00000121,0.,0.,-0.00000453,0.,0.
 ,0.00000208,0.,0.,0.00000416,0.00000001,0.,-0.00012721,0.,0.,0.0000176
 7,0.00000009,-0.00000018,0.00732963,0.00000045,0.00000016,0.00179333,0
 .00000004,-0.00000008,-0.00069816,-0.00000221,-0.00000114,-0.03374719,
 0.00000002,0.00000012,-0.00465591,-0.00000002,-0.00000033,0.00634276,-
 0.00000080,0.,0.00183074,0.00000243,0.00000129,0.02513229,-0.00003591,
 -0.00000699,0.,0.00001348,0.00009186,0.,-0.00001484,0.00001493,0.,-0.0
 0000296,0.00000664,0.,-0.00001002,-0.00001589,0.,0.00001310,0.00001047
 ,0.,0.00000183,-0.00000136,0.,-0.00000814,0.00000049,0.,0.00000020,0.0
 0000059,0.,-0.00000342,-0.00000137,0.,0.00009588,-0.00013199,0.,-0.000
 22474,0.00004548,0.,-0.00222326,0.00234789,0.00000008,-0.00118563,0.00
 056029,0.00000001,0.00905686,0.01975258,0.00000046,-0.00525567,0.00012
 014,0.00000004,0.00008946,-0.00009380,0.,-0.09541025,-0.10004698,-0.00
 000208,-0.00446634,-0.02897559,-0.00000066,-0.00039202,-0.00139992,-0.
 00000005,0.09717776,0.00002325,0.00008001,0.,-0.00000824,-0.00013005,0
 .,0.00008312,0.00003939,0.,-0.00004062,-0.00001779,0.,0.00000983,-0.00
 004713,0.,0.00005553,-0.00002258,0.,-0.00000564,-0.00000321,0.,0.00000
 765,0.00000498,0.,0.00000926,-0.00000394,0.,0.00001082,-0.00000293,0.,
 0.00013227,0.00032289,0.,0.00019715,-0.00017941,0.,0.00378205,-0.00198
 443,-0.00000018,0.00098402,0.00040814,0.00000004,-0.01331186,-0.018113
 79,-0.00000047,-0.00044269,0.00200454,-0.00000014,-0.00005468,-0.00006
 400,0.00000002,-0.09699305,-0.30942619,-0.00000628,0.00182996,0.000290
 08,-0.00000006,0.00008905,-0.00008215,0.,0.10629705,0.32478317,0.,0.,0
 .00001184,0.,-0.00000001,-0.00002245,0.,0.,-0.00002416,0.,0.,-0.000000
 48,0.,0.,-0.00000401,0.,0.,0.00000212,0.,0.,0.00000158,0.,0.,0.0000043
 7,0.,0.,0.00000238,0.,0.,-0.00000130,0.,0.,-0.00000639,0.00000001,0.,-
 0.00005616,0.00000005,-0.00000025,0.00510744,0.00000018,0.,-0.00090255
 ,-0.00000052,-0.00000038,0.00490709,-0.00000002,-0.00000001,0.00758346
 ,0.,0.00000001,-0.00065740,-0.00000175,-0.00000628,-0.03523856,-0.0000
 0013,-0.00000009,0.00267085,0.,0.,0.00041343,0.00000226,0.00000681,0.0
 2487307,0.00001368,-0.00002955,0.,-0.00002834,0.00008133,0.,0.00007048
 ,-0.00005308,0.,0.00001177,0.00000917,0.,0.00000135,0.00002935,0.,-0.0
 0003693,0.00000817,0.,0.00000059,0.00000479,0.,0.00000534,-0.00000313,
 0.,-0.00000622,0.00000266,0.,-0.00000397,0.00000336,0.,-0.00010045,0.0
 0014628,0.,-0.00000443,0.00013255,0.,-0.00082515,-0.00060575,-0.000000
 02,0.00066586,-0.00274429,-0.00000008,-0.00394836,-0.00267838,-0.00000
 004,0.01005281,-0.00965709,-0.00000027,0.00036249,-0.00051418,0.,-0.01
 314748,0.02598206,0.00000069,-0.17664941,0.13980466,0.00000378,0.00064
 370,0.00044572,0.00000002,0.00109547,-0.00022541,-0.00000002,0.1833251
 7,0.00001794,0.00002131,0.,-0.00005426,0.00000240,0.,0.00001096,0.0000
 2320,0.,-0.00000384,-0.00000458,0.,0.00000716,-0.00000728,0.,0.0000107
 9,-0.00001231,0.,-0.00000283,-0.00000372,0.,0.00000140,0.00000310,0.,0
 .00000514,-0.00000159,0.,0.00000599,-0.00000312,0.,0.00011782,-0.00007
 629,0.,-0.00003496,0.00000752,0.,-0.00088132,0.00014120,0.00000003,-0.
 00322967,-0.00448251,-0.00000032,-0.00227858,0.00100313,-0.00000020,0.
 02145107,-0.01458537,-0.00000048,0.00099291,-0.00102136,0.,-0.00613346
 ,0.00723068,0.00000007,0.14083903,-0.22818969,-0.00000517,-0.00014805,
 0.00102615,0.00000013,0.00021960,0.00065373,0.00000014,-0.15101122,0.2
 3779448,0.,0.,-0.00000656,0.,0.,-0.00004899,0.,0.,0.00007798,0.,0.,0.0
 0000962,0.,0.,-0.00000616,0.,0.,-0.00000082,0.,0.,0.00000159,0.,0.,-0.
 00000166,0.,0.,-0.00000023,0.,0.,0.00000495,0.00000001,0.,-0.00008860,
 0.,0.,0.00012976,-0.00000007,0.00000001,-0.00099654,-0.00000014,-0.000
 00032,0.00664060,-0.00000003,-0.00000010,0.00890237,0.00000061,-0.0000
 0051,0.00425529,0.00000004,-0.00000004,-0.00014399,0.,0.00000006,0.004
 83969,0.00000373,-0.00000518,-0.04069135,0.00000001,0.00000013,-0.0036
 4493,-0.00000002,0.00000013,-0.00466190,-0.00000410,0.00000577,0.02679
 201,-0.00248229,-0.00739979,-0.00000005,-0.00362022,0.01563652,0.00000
 003,-0.09567028,0.04702041,0.00000036,0.01730921,-0.00329842,-0.000000
 05,-0.00369413,0.01125384,0.00000010,-0.00600814,-0.00591513,0.,0.0005
 3772,-0.00099381,-0.00000003,-0.00049527,-0.00011151,0.,0.00017836,0.0
 0012131,0.,-0.00076206,-0.00010995,0.,-0.46570752,-0.06449423,0.000000
 30,-0.04684089,-0.01588872,0.00000011,-0.14448545,0.06646742,0.0000002
 8,-0.03647124,0.02918902,0.00000028,0.02806283,0.01219323,-0.00000009,
 -0.00118050,-0.01219151,-0.00000034,0.00074273,0.00102026,0.00000002,-
 0.00250979,-0.00172609,-0.00000005,0.00328872,0.00353457,0.00000011,-0
 .00030118,0.00080108,0.00000002,0.00033225,-0.00112509,-0.00000004,0.0
 0022894,-0.00000490,0.,0.77580411,0.00172165,-0.00277175,0.00000009,0.
 02958399,-0.02548955,-0.00000011,0.01785958,0.00267815,-0.00000003,0.0
 0819561,-0.00857659,-0.00000006,-0.00168973,0.00601486,0.00000005,-0.0
 0350572,-0.00447431,-0.00000004,0.00034202,-0.00084098,-0.00000001,-0.
 00044040,0.00020975,0.,0.00025384,-0.00034182,0.,-0.00043253,0.0000406
 6,-0.00000001,-0.07952485,-0.12078073,-0.00000020,0.00680191,-0.097816
 03,-0.00000012,0.06162218,-0.18404267,-0.00000076,0.01455360,0.0083891
 8,0.00000018,0.01367961,-0.03522877,-0.00000018,-0.00660333,0.01020080
 ,0.00000014,-0.00200720,-0.00032889,0.00000002,-0.00042553,-0.00640234
 ,-0.00000022,-0.00630593,-0.00462072,-0.00000012,-0.00110565,0.0008184
 2,0.00000002,0.00109394,-0.00043945,-0.00000004,-0.00026108,0.00013606
 ,0.,-0.05832724,0.45655150,-0.00000003,0.00000009,-0.00012154,0.000000
 17,-0.00000042,0.00440272,0.00000049,-0.00000024,0.00526094,-0.0000001
 0,0.00000003,0.00326536,0.,-0.00000011,0.00039992,0.00000010,0.0000000
 2,0.00076324,-0.00000001,0.,-0.00032228,0.,0.,-0.00022970,0.,0.,-0.000
 49164,0.,0.,0.00002482,0.00000008,-0.00000003,-0.06276348,0.00000011,0
 .00000012,-0.03875779,0.00000012,-0.00000034,-0.05284635,0.,0.00000026
 ,-0.00260355,0.00000025,-0.00000071,0.00254483,-0.00000006,-0.00000018
 ,0.00664039,0.,0.00000007,-0.00327987,-0.00000005,-0.00000014,0.004915
 99,0.00000003,0.,-0.00098060,0.,-0.00000001,0.00090374,0.,-0.00000002,
 0.00003519,0.,0.00000003,-0.00085196,-0.00000114,0.00000138,0.13574612
 ,-0.00035335,0.00172535,0.,0.00160751,0.00058607,-0.00000002,0.0066285
 8,-0.00087156,0.00000002,-0.00171652,-0.00010309,0.,-0.00000867,-0.001
 65122,-0.00000002,0.00165176,0.00015868,0.,-0.00013698,0.00008337,0.,0
 .00032406,0.00001512,0.,0.00005461,-0.00003244,0.,0.00006188,0.0000431
 0,0.,0.00931611,0.01917117,0.00000005,-0.00026275,0.00015798,0.0000000
 5,-0.01127182,-0.02758009,0.00000004,-0.00810105,0.00453847,0.00000023
 ,-0.32085687,-0.08664503,0.00000113,-0.00492181,-0.01468815,-0.0000003
 7,-0.00083963,-0.00033805,-0.00000005,-0.07823348,0.00597228,0.0000012
 3,0.01482096,0.01170466,0.00000025,-0.00008312,-0.00025961,0.,0.001544
 98,-0.00147078,-0.00000002,-0.00149279,0.00026547,-0.00000002,-0.02004
 837,0.01318281,0.00000007,0.58560591,-0.00047093,-0.00023275,0.,0.0002
 7571,-0.00190195,0.,-0.00636396,-0.00105546,0.00000004,-0.00020943,-0.
 00034563,0.,0.00032286,-0.00001865,0.,0.00012338,-0.00003031,0.,0.0001
 0647,-0.00018435,0.,0.00001837,0.00008442,0.,0.00011440,-0.00008270,0.
 ,0.00007132,-0.00005394,0.,0.00930894,-0.02583750,-0.00000021,-0.00090
 997,-0.00293982,0.00000001,-0.04161521,-0.00795771,0.,0.00714744,-0.00
 739919,-0.00000020,-0.05202338,-0.13575100,-0.00000101,-0.00206437,0.0
 0582353,0.00000015,-0.00164322,-0.00019506,-0.00000004,0.04288172,0.01
 584172,-0.00000015,-0.00178015,-0.00951974,-0.00000036,-0.00003392,0.0
 0043503,0.00000003,-0.00018835,0.00208110,0.00000009,0.00155672,0.0002
 6371,0.00000002,0.00349893,0.00519603,0.00000006,-0.12436680,0.4909271
 1,0.,-0.00000002,-0.00008698,0.,-0.00000003,-0.00007893,-0.00000013,0.
 00000001,0.00064718,0.00000002,0.,0.00013102,0.,0.00000002,-0.00003160
 ,-0.00000001,0.,0.00003591,0.,0.,-0.00001244,0.,0.,-0.00003551,0.,0.,-
 0.00001633,0.,0.,-0.00000397,0.00000005,-0.00000045,0.00423626,0.,0.,-
 0.00055569,-0.00000082,-0.00000031,0.01047636,0.00000040,-0.00000029,0
 .00643545,0.00000198,-0.00000019,-0.05302853,-0.00000007,0.00000045,-0
 .00105452,0.,0.,0.00037914,0.00000193,-0.00000003,0.01037670,-0.000000
 33,-0.00000052,0.00478917,0.,0.00000003,-0.00062229,-0.00000005,0.0000
 0012,-0.00337780,0.00000004,0.,-0.00019630,0.00000026,-0.00000010,-0.0
 0288045,-0.00000767,0.00000849,0.03602723,0.00010979,-0.00034617,0.,-0
 .00071412,0.00031228,0.,-0.00041667,0.00214699,0.,0.00069871,0.0003093
 6,0.,-0.00013724,0.00021646,0.,-0.00030183,-0.00003366,0.,0.00000958,0
 .00000490,0.,-0.00042921,-0.00003482,0.,0.00000236,0.00000619,0.,-0.00
 002055,-0.00004420,0.,-0.01159447,-0.00128845,0.00000004,-0.00079997,-
 0.00091764,0.,0.00164214,0.00257493,0.,0.00029511,0.00093165,0.,-0.045
 84062,0.03476838,0.00000107,0.00074694,0.00122684,0.00000002,0.0004812
 6,0.00018193,0.00000002,-0.00218561,-0.00473420,-0.00000012,-0.0017548
 9,0.00083814,0.00000007,0.00005975,-0.00000557,0.,-0.00018804,0.000167
 04,0.,-0.00023411,-0.00016222,0.,0.00379247,-0.00826155,-0.00000002,-0
 .17328914,0.16624345,0.00000441,0.23006835,0.00024568,0.00080819,0.,0.
 00079806,0.00279531,0.,0.00988629,-0.00248066,-0.00000004,-0.00085743,
 0.00081619,0.,-0.00038723,-0.00072715,0.,0.00046168,0.00032930,0.,-0.0
 0016109,0.00026022,0.,0.00030482,-0.00009804,0.,-0.00015966,0.00011646
 ,0.,-0.00007255,0.00009503,0.,0.00084724,0.00568823,-0.00000007,0.0011
 6016,0.00418052,0.00000003,0.00034172,-0.00639785,-0.00000006,-0.00349
 574,0.00021139,0.00000004,0.01251714,0.01985945,0.00000022,-0.00055615
 ,-0.00508529,-0.00000012,-0.00044424,-0.00017103,-0.00000002,-0.011778
 16,0.00227625,0.00000016,0.00428097,0.00361695,0.00000004,0.00003982,-
 0.00016968,0.,0.00030031,-0.00015099,0.00000002,-0.00042367,0.00008114
 ,0.,-0.01915021,0.00191919,0.00000011,0.20040229,-0.32714691,-0.000007
 17,-0.19410006,0.29937380,0.,0.,0.00015185,0.00000002,0.,0.00027265,0.
 00000006,-0.00000003,-0.00035330,-0.00000001,0.,-0.00026241,0.,-0.0000
 0001,-0.00001456,0.00000001,0.,-0.00003553,0.,0.,0.00001944,0.,0.,0.00
 014323,0.,0.,0.00002065,0.,0.,-0.00000100,0.00000004,0.00000012,-0.008
 09234,0.,0.,0.00086953,0.,-0.00000003,-0.00181037,-0.00000009,0.,-0.00
 020388,0.00000048,-0.00000015,-0.00071441,0.,-0.00000012,-0.00014338,-
 0.00000001,0.,-0.00005318,-0.00000010,0.00000005,0.00268313,0.00000012
 ,0.,0.00198860,0.,0.,-0.00007857,0.,0.00000003,-0.00065965,0.,0.000000
 01,-0.00031389,-0.00000013,0.00000011,0.00122596,0.00000510,-0.0000068
 9,-0.01155308,-0.00000548,0.00000687,0.01691452\\0.00164227,-0.0014947
 5,-0.00000026,-0.00178239,-0.00372362,-0.00000033,-0.00456083,-0.00030
 917,0.00000006,-0.00091031,0.00108147,0.00000012,0.00072353,0.00373677
 ,0.00000006,0.00145905,0.00142872,-0.00000010,0.00033713,-0.00025996,0
 .00000004,-0.00032936,0.00026584,0.,0.00004197,0.00034624,0.,0.0002631
 3,0.00018660,0.00000004,0.00210113,-0.00494252,0.00000055,-0.00238195,
 -0.00932377,0.00000079,0.00195505,-0.00220408,-0.00000028,-0.00397200,
 0.00188728,-0.00000048,-0.00446312,-0.00239259,0.00000026,0.00094740,0
 .00014470,-0.00000015,-0.00030724,0.00013686,0.,0.00269992,0.00022543,
 0.00000022,0.00364506,0.00263630,0.00000025,0.00007635,0.00030952,0.,0
 .00040637,-0.00001349,0.,0.00040583,0.00032768,0.00000002,0.00130510,0
 .00061459,-0.00000031,0.00366226,0.00175444,-0.00000041,-0.00296436,0.
 00958149,-0.00000009\\\@
 The archive entry for this job was punched.


 GOD GAVE US TWO ENDS... ONE TO SIT ON...    
 AND THE OTHER TO THINK WITH...              
 YOUR SUCCESS DEPENDS UPON WHICH END YOU     
 USE THE MOST...                             
                                             
 IT'S A CASE OF HEADS YOU WIN TAILS YOU LOSE.
          SOURCE UNKNOWN(IT'S JUST AS WELL.) 
 Job cpu time:       0 days  0 hours 58 minutes 28.8 seconds.
 Elapsed time:       0 days  0 hours  5 minutes 53.0 seconds.
 File lengths (MBytes):  RWF=    544 Int=      0 D2E=      0 Chk=     40 Scr=      8
 Normal termination of Gaussian 16 at Tue Oct 27 22:17:11 2020.
