 Entering Gaussian System, Link 0=g16
 Initial command:
 /gpfs/loomis/apps/avx/software/Gaussian/16-C.01_AVX/g16/l1.exe "/home/fas/batista/pev4/scratch60/gauss-scratch/Gau-61703.inp" -scrdir="/home/fas/batista/pev4/scratch60/gauss-scratch/"
 Entering Link 1 = /gpfs/loomis/apps/avx/software/Gaussian/16-C.01_AVX/g16/l1.exe PID=     61704.
  
 Copyright (c) 1988-2019, Gaussian, Inc.  All Rights Reserved.
  
 This is part of the Gaussian(R) 16 program.  It is based on
 the Gaussian(R) 09 system (copyright 2009, Gaussian, Inc.),
 the Gaussian(R) 03 system (copyright 2003, Gaussian, Inc.),
 the Gaussian(R) 98 system (copyright 1998, Gaussian, Inc.),
 the Gaussian(R) 94 system (copyright 1995, Gaussian, Inc.),
 the Gaussian 92(TM) system (copyright 1992, Gaussian, Inc.),
 the Gaussian 90(TM) system (copyright 1990, Gaussian, Inc.),
 the Gaussian 88(TM) system (copyright 1988, Gaussian, Inc.),
 the Gaussian 86(TM) system (copyright 1986, Carnegie Mellon
 University), and the Gaussian 82(TM) system (copyright 1983,
 Carnegie Mellon University). Gaussian is a federally registered
 trademark of Gaussian, Inc.
  
 This software contains proprietary and confidential information,
 including trade secrets, belonging to Gaussian, Inc.
  
 This software is provided under written license and may be
 used, copied, transmitted, or stored only in accord with that
 written license.
  
 The following legend is applicable only to US Government
 contracts under FAR:
  
                    RESTRICTED RIGHTS LEGEND
  
 Use, reproduction and disclosure by the US Government is
 subject to restrictions as set forth in subparagraphs (a)
 and (c) of the Commercial Computer Software - Restricted
 Rights clause in FAR 52.227-19.
  
 Gaussian, Inc.
 340 Quinnipiac St., Bldg. 40, Wallingford CT 06492
  
  
 ---------------------------------------------------------------
 Warning -- This program may not be used in any manner that
 competes with the business of Gaussian, Inc. or will provide
 assistance to any competitor of Gaussian, Inc.  The licensee
 of this program is prohibited from giving any competitor of
 Gaussian, Inc. access to this program.  By using this program,
 the user acknowledges that Gaussian, Inc. is engaged in the
 business of creating and licensing software in the field of
 computational chemistry and represents and warrants to the
 licensee that it is not a competitor of Gaussian, Inc. and that
 it will not use this program in any manner prohibited above.
 ---------------------------------------------------------------
  

 Cite this work as:
 Gaussian 16, Revision C.01,
 M. J. Frisch, G. W. Trucks, H. B. Schlegel, G. E. Scuseria, 
 M. A. Robb, J. R. Cheeseman, G. Scalmani, V. Barone, 
 G. A. Petersson, H. Nakatsuji, X. Li, M. Caricato, A. V. Marenich, 
 J. Bloino, B. G. Janesko, R. Gomperts, B. Mennucci, H. P. Hratchian, 
 J. V. Ortiz, A. F. Izmaylov, J. L. Sonnenberg, D. Williams-Young, 
 F. Ding, F. Lipparini, F. Egidi, J. Goings, B. Peng, A. Petrone, 
 T. Henderson, D. Ranasinghe, V. G. Zakrzewski, J. Gao, N. Rega, 
 G. Zheng, W. Liang, M. Hada, M. Ehara, K. Toyota, R. Fukuda, 
 J. Hasegawa, M. Ishida, T. Nakajima, Y. Honda, O. Kitao, H. Nakai, 
 T. Vreven, K. Throssell, J. A. Montgomery, Jr., J. E. Peralta, 
 F. Ogliaro, M. J. Bearpark, J. J. Heyd, E. N. Brothers, K. N. Kudin, 
 V. N. Staroverov, T. A. Keith, R. Kobayashi, J. Normand, 
 K. Raghavachari, A. P. Rendell, J. C. Burant, S. S. Iyengar, 
 J. Tomasi, M. Cossi, J. M. Millam, M. Klene, C. Adamo, R. Cammi, 
 J. W. Ochterski, R. L. Martin, K. Morokuma, O. Farkas, 
 J. B. Foresman, and D. J. Fox, Gaussian, Inc., Wallingford CT, 2019.
 
 ******************************************
 Gaussian 16:  ES64L-G16RevC.01  3-Jul-2019
                28-Oct-2020 
 ******************************************
 %chk=config_8_15.chk
 %mem=58GB
 %nprocshared=10
 Will use up to   10 processors via shared memory.
 ----------------------------------------------------------------------
 #p opt=addgic freq wb97xd/cc-pvdz nosymm int=ultrafine scrf=(solvent=C
 arbonTetraChloride)
 ----------------------------------------------------------------------
 1/18=20,19=15,26=6,38=1,145=903/1,3;
 2/9=110,12=2,15=1,17=6,18=5,40=1/2;
 3/5=16,11=2,25=1,30=1,70=2201,71=1,72=11,74=-58,75=-5/1,2,3;
 4//1;
 5/5=2,38=5,53=11/2;
 6/7=2,8=2,9=2,10=2,28=1/1;
 7/30=1/1,2,3,16;
 1/18=20,19=15,26=6,145=903/3(2);
 2/9=110,15=1/2;
 99//99;
 2/9=110,15=1/2;
 3/5=16,11=2,25=1,30=1,70=2205,71=1,72=11,74=-58,75=-5/1,2,3;
 4/5=5,16=3,69=1/1;
 5/5=2,38=5,53=11/2;
 7/30=1/1,2,3,16;
 1/18=20,19=15,26=6,145=903/3(-5);
 2/9=110,15=1/2;
 6/7=2,8=2,9=2,10=2,19=2,28=1/1;
 99/9=1/99;
 Leave Link    1 at Wed Oct 28 00:42:33 2020, MaxMem=  7784628224 cpu:               4.6 elap:               0.5
 (Enter /gpfs/loomis/apps/avx/software/Gaussian/16-C.01_AVX/g16/l101.exe)
 ------------------------------------------------
 NM 2D-scan of HBT TD-WB97XD pVDZ in CTC Relaxed.
 ------------------------------------------------
 Symbolic Z-matrix:
 Charge =  0 Multiplicity = 1
 C                     1.56246  -3.25181  -0.00002 
 C                     1.00299  -1.97356  -0.00002 
 C                     1.78423  -0.78112  -0.00003 
 C                     3.18666  -0.91782  -0.00003 
 C                     3.74348  -2.19988  -0.00002 
 C                     2.95216  -3.36096  -0.00002 
 H                     0.91998  -4.13844  -0.00001 
 H                     3.82695  -0.02956  -0.00003 
 H                     4.83284  -2.29838  -0.00002 
 H                     3.42375  -4.3471   -0.00001 
 N                     1.0125    0.3647   -0.00003 
 S                    -0.70478  -1.6176   -0.00002 
 C                    -1.33105   1.06493   0.00001 
 C                    -2.69019   0.74471   0.00002 
 C                    -0.89618   2.47196   0.00004 
 C                    -3.6546    1.774     0.00003 
 H                    -3.01521  -0.30055   0.00001 
 C                    -1.90944   3.47555   0.00004 
 C                    -3.26777   3.12385   0.00004 
 H                    -4.71579   1.50979   0.00003 
 H                    -1.58691   4.52122   0.00006 
 H                    -4.03195   3.90496   0.00005 
 C                    -0.31909   0.07613  -0.00002 
 O                     0.35674   2.71481   0.00005 
 H                     1.0261    1.41227   0.00001 
 
 Initializing the GIC definitions file.
 Number of initial coordinates =   134
 Number of input entries/lines =    52
 Number of additional coordinates =     2
 Number of removed coordinates =     0
 Number of frozen coordinates =     2
 Number of final active and frozen coordinates =   136
 ITRead=  0  0  0  0  0  0  0  0  0  0  0  0  0  0  0  0  0  0  0  0
 ITRead=  0  0  0  0  0
 MicOpt= -1 -1 -1 -1 -1 -1 -1 -1 -1 -1 -1 -1 -1 -1 -1 -1 -1 -1 -1 -1
 MicOpt= -1 -1 -1 -1 -1
 NAtoms=     25 NQM=       25 NQMF=       0 NMMI=      0 NMMIF=      0
                NMic=       0 NMicF=      0.
                    Isotopes and Nuclear Properties:
 (Nuclear quadrupole moments (NQMom) in fm**2, nuclear magnetic moments (NMagM)
  in nuclear magnetons)

  Atom         1           2           3           4           5           6           7           8           9          10
 IAtWgt=          12          12          12          12          12          12           1           1           1           1
 AtmWgt=  12.0000000  12.0000000  12.0000000  12.0000000  12.0000000  12.0000000   1.0078250   1.0078250   1.0078250   1.0078250
 NucSpn=           0           0           0           0           0           0           1           1           1           1
 AtZEff=  -0.0000000  -0.0000000  -0.0000000  -0.0000000  -0.0000000  -0.0000000  -0.0000000  -0.0000000  -0.0000000  -0.0000000
 NQMom=    0.0000000   0.0000000   0.0000000   0.0000000   0.0000000   0.0000000   0.0000000   0.0000000   0.0000000   0.0000000
 NMagM=    0.0000000   0.0000000   0.0000000   0.0000000   0.0000000   0.0000000   2.7928460   2.7928460   2.7928460   2.7928460
 AtZNuc=   6.0000000   6.0000000   6.0000000   6.0000000   6.0000000   6.0000000   1.0000000   1.0000000   1.0000000   1.0000000

  Atom        11          12          13          14          15          16          17          18          19          20
 IAtWgt=          14          32          12          12          12          12           1          12          12           1
 AtmWgt=  14.0030740  31.9720718  12.0000000  12.0000000  12.0000000  12.0000000   1.0078250  12.0000000  12.0000000   1.0078250
 NucSpn=           2           0           0           0           0           0           1           0           0           1
 AtZEff=  -0.0000000  -0.0000000  -0.0000000  -0.0000000  -0.0000000  -0.0000000  -0.0000000  -0.0000000  -0.0000000  -0.0000000
 NQMom=    2.0440000   0.0000000   0.0000000   0.0000000   0.0000000   0.0000000   0.0000000   0.0000000   0.0000000   0.0000000
 NMagM=    0.4037610   0.0000000   0.0000000   0.0000000   0.0000000   0.0000000   2.7928460   0.0000000   0.0000000   2.7928460
 AtZNuc=   7.0000000  16.0000000   6.0000000   6.0000000   6.0000000   6.0000000   1.0000000   6.0000000   6.0000000   1.0000000

  Atom        21          22          23          24          25
 IAtWgt=           1           1          12          16           1
 AtmWgt=   1.0078250   1.0078250  12.0000000  15.9949146   1.0078250
 NucSpn=           1           1           0           0           1
 AtZEff=  -0.0000000  -0.0000000  -0.0000000  -0.0000000  -0.0000000
 NQMom=    0.0000000   0.0000000   0.0000000   0.0000000   0.0000000
 NMagM=    2.7928460   2.7928460   0.0000000   0.0000000   2.7928460
 AtZNuc=   1.0000000   1.0000000   6.0000000   8.0000000   1.0000000
 Leave Link  101 at Wed Oct 28 00:42:36 2020, MaxMem=  7784628224 cpu:              32.9 elap:               3.3
 (Enter /gpfs/loomis/apps/avx/software/Gaussian/16-C.01_AVX/g16/l103.exe)

 GradGradGradGradGradGradGradGradGradGradGradGradGradGradGradGradGradGrad
 Berny optimization.
 Initialization pass.
                           ----------------------------
                           !    Initial Parameters    !
                           ! (Angstroms and Degrees)  !
 --------------------------                            --------------------------
 ! Name  Definition              Value          Derivative Info.                !
 --------------------------------------------------------------------------------
 ! R1    R(1,2)                  1.3953         estimate D2E/DX2                !
 ! R2    R(1,6)                  1.394          estimate D2E/DX2                !
 ! R3    R(1,7)                  1.0949         estimate D2E/DX2                !
 ! R4    R(2,3)                  1.4256         estimate D2E/DX2                !
 ! R5    R(2,12)                 1.7445         estimate D2E/DX2                !
 ! R6    R(3,4)                  1.4091         estimate D2E/DX2                !
 ! R7    R(3,11)                 1.3815         estimate D2E/DX2                !
 ! R8    R(4,5)                  1.3978         estimate D2E/DX2                !
 ! R9    R(4,8)                  1.095          estimate D2E/DX2                !
 ! R10   R(5,6)                  1.4051         estimate D2E/DX2                !
 ! R11   R(5,9)                  1.0938         estimate D2E/DX2                !
 ! R12   R(6,10)                 1.0931         estimate D2E/DX2                !
 ! R13   R(11,23)                1.3625         estimate D2E/DX2                !
 ! R14   R(11,25)                1.0477         estimate D2E/DX2                !
 ! R15   R(12,23)                1.7371         estimate D2E/DX2                !
 ! R16   R(13,14)                1.3964         estimate D2E/DX2                !
 ! R17   R(13,15)                1.4727         estimate D2E/DX2                !
 ! R18   R(13,23)                1.4148         estimate D2E/DX2                !
 ! R19   R(14,16)                1.4105         estimate D2E/DX2                !
 ! R20   R(14,17)                1.0946         estimate D2E/DX2                !
 ! R21   R(15,18)                1.4261         estimate D2E/DX2                !
 ! R22   R(15,24)                1.2762         estimate D2E/DX2                !
 ! R23   R(16,19)                1.4042         estimate D2E/DX2                !
 ! R24   R(16,20)                1.0936         estimate D2E/DX2                !
 ! R25   R(18,19)                1.4031         estimate D2E/DX2                !
 ! R26   R(18,21)                1.0943         estimate D2E/DX2                !
 ! R27   R(19,22)                1.0928         estimate D2E/DX2                !
 ! A1    A(2,1,6)              118.1287         estimate D2E/DX2                !
 ! A2    A(2,1,7)              120.4338         estimate D2E/DX2                !
 ! A3    A(6,1,7)              121.4375         estimate D2E/DX2                !
 ! A4    A(1,2,3)              123.1312         estimate D2E/DX2                !
 ! A5    A(1,2,12)             125.4118         estimate D2E/DX2                !
 ! A6    A(3,2,12)             111.457          estimate D2E/DX2                !
 ! A7    A(2,3,4)              117.6637         estimate D2E/DX2                !
 ! A8    A(2,3,11)             112.8083         estimate D2E/DX2                !
 ! A9    A(4,3,11)             129.528          estimate D2E/DX2                !
 ! A10   A(3,4,5)              119.0433         estimate D2E/DX2                !
 ! A11   A(3,4,8)              120.2179         estimate D2E/DX2                !
 ! A12   A(5,4,8)              120.7388         estimate D2E/DX2                !
 ! A13   A(4,5,6)              122.2479         estimate D2E/DX2                !
 ! A14   A(4,5,9)              118.6429         estimate D2E/DX2                !
 ! A15   A(6,5,9)              119.1092         estimate D2E/DX2                !
 ! A16   A(1,6,5)              119.7852         estimate D2E/DX2                !
 ! A17   A(1,6,10)             120.0486         estimate D2E/DX2                !
 ! A18   A(5,6,10)             120.1662         estimate D2E/DX2                !
 ! A19   A(3,11,23)            111.7335         estimate D2E/DX2                !
 ! A20   A(3,11,25)            145.2954         estimate D2E/DX2                !
 ! A21   A(23,11,25)           102.9711         estimate D2E/DX2                !
 ! A22   A(2,12,23)             88.9453         estimate D2E/DX2                !
 ! A23   A(14,13,15)           120.4322         estimate D2E/DX2                !
 ! A24   A(14,13,23)           122.4063         estimate D2E/DX2                !
 ! A25   A(15,13,23)           117.1615         estimate D2E/DX2                !
 ! A26   A(13,14,16)           119.8785         estimate D2E/DX2                !
 ! A27   A(13,14,17)           120.5299         estimate D2E/DX2                !
 ! A28   A(16,14,17)           119.5917         estimate D2E/DX2                !
 ! A29   A(13,15,18)           117.5506         estimate D2E/DX2                !
 ! A30   A(13,15,24)           118.1445         estimate D2E/DX2                !
 ! A31   A(18,15,24)           124.3049         estimate D2E/DX2                !
 ! A32   A(14,16,19)           120.8734         estimate D2E/DX2                !
 ! A33   A(14,16,20)           119.1548         estimate D2E/DX2                !
 ! A34   A(19,16,20)           119.9719         estimate D2E/DX2                !
 ! A35   A(15,18,19)           120.758          estimate D2E/DX2                !
 ! A36   A(15,18,21)           117.5834         estimate D2E/DX2                !
 ! A37   A(19,18,21)           121.6586         estimate D2E/DX2                !
 ! A38   A(16,19,18)           120.5073         estimate D2E/DX2                !
 ! A39   A(16,19,22)           119.6368         estimate D2E/DX2                !
 ! A40   A(18,19,22)           119.8559         estimate D2E/DX2                !
 ! A41   A(11,23,12)           115.0559         estimate D2E/DX2                !
 ! A42   A(11,23,13)           123.4362         estimate D2E/DX2                !
 ! A43   A(12,23,13)           121.5079         estimate D2E/DX2                !
 ! D1    D(6,1,2,3)              0.0            estimate D2E/DX2                !
 ! D2    D(6,1,2,12)           180.0            estimate D2E/DX2                !
 ! D3    D(7,1,2,3)            179.9999         estimate D2E/DX2                !
 ! D4    D(7,1,2,12)            -0.0001         estimate D2E/DX2                !
 ! D5    D(2,1,6,5)             -0.0001         estimate D2E/DX2                !
 ! D6    D(2,1,6,10)           179.9999         estimate D2E/DX2                !
 ! D7    D(7,1,6,5)            179.9999         estimate D2E/DX2                !
 ! D8    D(7,1,6,10)             0.0            estimate D2E/DX2                !
 ! D9    D(1,2,3,4)              0.0002         estimate D2E/DX2                !
 ! D10   D(1,2,3,11)          -180.0            estimate D2E/DX2                !
 ! D11   D(12,2,3,4)          -179.9998         estimate D2E/DX2                !
 ! D12   D(12,2,3,11)            0.0            estimate D2E/DX2                !
 ! D13   D(1,2,12,23)          179.9997         estimate D2E/DX2                !
 ! D14   D(3,2,12,23)           -0.0003         estimate D2E/DX2                !
 ! D15   D(2,3,4,5)             -0.0002         estimate D2E/DX2                !
 ! D16   D(2,3,4,8)            179.9999         estimate D2E/DX2                !
 ! D17   D(11,3,4,5)           180.0            estimate D2E/DX2                !
 ! D18   D(11,3,4,8)             0.0            estimate D2E/DX2                !
 ! D19   D(2,3,11,23)            0.0004         estimate D2E/DX2                !
 ! D20   D(2,3,11,25)          179.9958         estimate D2E/DX2                !
 ! D21   D(4,3,11,23)         -179.9998         estimate D2E/DX2                !
 ! D22   D(4,3,11,25)           -0.0044         estimate D2E/DX2                !
 ! D23   D(3,4,5,6)              0.0            estimate D2E/DX2                !
 ! D24   D(3,4,5,9)           -179.9999         estimate D2E/DX2                !
 ! D25   D(8,4,5,6)            180.0            estimate D2E/DX2                !
 ! D26   D(8,4,5,9)              0.0            estimate D2E/DX2                !
 ! D27   D(4,5,6,1)              0.0001         estimate D2E/DX2                !
 ! D28   D(4,5,6,10)          -179.9999         estimate D2E/DX2                !
 ! D29   D(9,5,6,1)           -179.9999         estimate D2E/DX2                !
 ! D30   D(9,5,6,10)             0.0            estimate D2E/DX2                !
 ! D31   D(3,11,23,12)          -0.0006         estimate D2E/DX2                !
 ! D32   D(3,11,23,13)         179.9984         estimate D2E/DX2                !
 ! D33   D(25,11,23,12)       -179.9979         estimate D2E/DX2                !
 ! D34   D(25,11,23,13)          0.0011         estimate D2E/DX2                !
 ! D35   D(2,12,23,11)           0.0005         estimate D2E/DX2                !
 ! D36   D(2,12,23,13)        -179.9985         estimate D2E/DX2                !
 ! D37   D(15,13,14,16)          0.001          estimate D2E/DX2                !
 ! D38   D(15,13,14,17)       -179.9994         estimate D2E/DX2                !
 ! D39   D(23,13,14,16)       -179.9991         estimate D2E/DX2                !
 ! D40   D(23,13,14,17)          0.0005         estimate D2E/DX2                !
 ! D41   D(14,13,15,18)         -0.0012         estimate D2E/DX2                !
 ! D42   D(14,13,15,24)        179.9985         estimate D2E/DX2                !
 ! D43   D(23,13,15,18)        179.9989         estimate D2E/DX2                !
 ! D44   D(23,13,15,24)         -0.0014         estimate D2E/DX2                !
 ! D45   D(14,13,23,11)       -179.9999         estimate D2E/DX2                !
 ! D46   D(14,13,23,12)         -0.001          estimate D2E/DX2                !
 ! D47   D(15,13,23,11)          0.0            estimate D2E/DX2                !
 ! D48   D(15,13,23,12)        179.9989         estimate D2E/DX2                !
 ! D49   D(13,14,16,19)         -0.0002         estimate D2E/DX2                !
 ! D50   D(13,14,16,20)        179.9997         estimate D2E/DX2                !
 ! D51   D(17,14,16,19)       -179.9998         estimate D2E/DX2                !
 ! D52   D(17,14,16,20)          0.0001         estimate D2E/DX2                !
 ! D53   D(13,15,18,19)          0.0006         estimate D2E/DX2                !
 ! D54   D(13,15,18,21)       -180.0            estimate D2E/DX2                !
 ! D55   D(24,15,18,19)       -179.9991         estimate D2E/DX2                !
 ! D56   D(24,15,18,21)          0.0003         estimate D2E/DX2                !
 ! D57   D(14,16,19,18)         -0.0004         estimate D2E/DX2                !
 ! D58   D(14,16,19,22)        179.9998         estimate D2E/DX2                !
 ! D59   D(20,16,19,18)        179.9997         estimate D2E/DX2                !
 ! D60   D(20,16,19,22)         -0.0001         estimate D2E/DX2                !
 ! D61   D(15,18,19,16)          0.0001         estimate D2E/DX2                !
 ! D62   D(15,18,19,22)        179.9999         estimate D2E/DX2                !
 ! D63   D(21,18,19,16)       -179.9992         estimate D2E/DX2                !
 ! D64   D(21,18,19,22)          0.0006         estimate D2E/DX2                !
 ! Qtot  GIC-1                  20.0            Frozen                          !
 ! Ptot  GIC-2                 140.0            Frozen                          !
 --------------------------------------------------------------------------------
 NOTE: GIC-type coordinates are in arbitrary units.
 Trust Radius=3.00D-01 FncErr=5.00D-06 GrdErr=5.00D-06 EigMax=2.50D+02 EigMin=1.00D-04
 Number of steps in this run=    146 maximum allowed number of steps=    150.
 GradGradGradGradGradGradGradGradGradGradGradGradGradGradGradGradGradGrad

 Leave Link  103 at Wed Oct 28 00:42:36 2020, MaxMem=  7784628224 cpu:               0.3 elap:               0.1
 (Enter /gpfs/loomis/apps/avx/software/Gaussian/16-C.01_AVX/g16/l202.exe)
                          Input orientation:                          
 ---------------------------------------------------------------------
 Center     Atomic      Atomic             Coordinates (Angstroms)
 Number     Number       Type             X           Y           Z
 ---------------------------------------------------------------------
      1          6           0        1.562457   -3.251812   -0.000018
      2          6           0        1.002995   -1.973559   -0.000023
      3          6           0        1.784225   -0.781117   -0.000026
      4          6           0        3.186664   -0.917816   -0.000029
      5          6           0        3.743484   -2.199876   -0.000024
      6          6           0        2.952158   -3.360960   -0.000017
      7          1           0        0.919981   -4.138435   -0.000014
      8          1           0        3.826945   -0.029556   -0.000034
      9          1           0        4.832843   -2.298379   -0.000024
     10          1           0        3.423745   -4.347103   -0.000012
     11          7           0        1.012502    0.364699   -0.000029
     12         16           0       -0.704780   -1.617598   -0.000025
     13          6           0       -1.331054    1.064928    0.000010
     14          6           0       -2.690195    0.744710    0.000020
     15          6           0       -0.896181    2.471956    0.000035
     16          6           0       -3.654597    1.774004    0.000031
     17          1           0       -3.015207   -0.300545    0.000011
     18          6           0       -1.909437    3.475552    0.000042
     19          6           0       -3.267767    3.123849    0.000039
     20          1           0       -4.715794    1.509792    0.000034
     21          1           0       -1.586906    4.521218    0.000060
     22          1           0       -4.031949    3.904960    0.000045
     23          6           0       -0.319086    0.076133   -0.000021
     24          8           0        0.356742    2.714808    0.000055
     25          1           0        1.026101    1.412273    0.000011
 ---------------------------------------------------------------------
                    Distance matrix (angstroms):
                    1          2          3          4          5
     1  C    0.000000
     2  C    1.395324   0.000000
     3  C    2.480628   1.425566   0.000000
     4  C    2.843517   2.425491   1.409085   0.000000
     5  C    2.421456   2.749818   2.419002   1.397757   0.000000
     6  C    1.393981   2.392513   2.831900   2.454373   1.405103
     7  H    1.094931   2.166467   3.466771   3.938304   3.424935
     8  H    3.938381   3.428388   2.176591   1.094973   2.171924
     9  H    3.406533   3.843598   3.405313   2.148455   1.093804
    10  H    2.159643   3.390242   3.924829   3.437473   2.170903
    11  N    3.658087   2.338277   1.381467   2.524247   3.746372
    12  S    2.794820   1.744478   2.625804   3.953863   4.486212
    13  C    5.196792   3.831473   3.621166   4.933664   6.034059
    14  C    5.835858   4.585699   4.727429   6.107492   7.075507
    15  C    6.229480   4.834198   4.215099   5.306616   6.584261
    16  C    7.244065   5.978075   6.009112   7.351785   8.397816
    17  H    5.446557   4.352576   4.823432   6.232514   7.020495
    18  C    7.570435   6.178598   5.635812   6.728442   8.010368
    19  C    7.998757   6.650036   6.385248   7.615427   8.803390
    20  H    7.879677   6.696139   6.891917   8.266930   9.236937
    21  H    8.386804   6.992118   6.283254   7.236716   8.578237
    22  H    9.083874   7.740003   7.469083   8.681448   9.885665
    23  C    3.823012   2.439085   2.271298   3.643929   4.656682
    24  O    6.087225   4.732698   3.776136   4.604825   5.968595
    25  H    4.694824   3.385911   2.320714   3.177632   4.520153
                    6          7          8          9         10
     6  C    0.000000
     7  H    2.175824   0.000000
     8  H    3.444344   5.033223   0.000000
     9  H    2.160106   4.323922   2.481811   0.000000
    10  H    1.093102   2.512444   4.336333   2.486530   0.000000
    11  N    4.200333   4.504084   2.841923   4.656929   5.292936
    12  S    4.051235   2.999078   4.801918   5.579313   4.949234
    13  C    6.159089   5.669404   5.272840   7.021784   7.204040
    14  C    6.978013   6.072765   6.562972   8.115201   7.956559
    15  C    6.988034   6.855342   5.344668   7.455052   8.072256
    16  C    8.367620   7.475540   7.695862   9.413869   9.357931
    17  H    6.706384   5.496827   6.847517   8.098348   7.604915
    18  C    8.388862   8.122710   6.722490   8.876746   9.467670
    19  C    8.985556   8.383198   7.763949   9.747843  10.029530
    20  H    9.084146   7.979000   8.680322  10.280012  10.027728
    21  H    9.095704   9.015213   7.072434   9.365899  10.185958
    22  H   10.078261   9.445519   8.788779  10.819702  11.121327
    23  C    4.744960   4.392935   4.147378   5.672802   5.794291
    24  O    6.606901   6.876350   4.424234   6.720679   7.699162
    25  H    5.147179   5.551723   3.150175   5.316035   6.238518
                   11         12         13         14         15
    11  N    0.000000
    12  S    2.622701   0.000000
    13  C    2.445930   2.754662   0.000000
    14  C    3.722146   3.085834   1.396354   0.000000
    15  C    2.843168   4.094030   1.472699   2.490355   0.000000
    16  C    4.875239   4.494928   2.429329   1.410502   2.845346
    17  H    4.082278   2.659455   2.168153   1.094619   3.489561
    18  C    4.267920   5.233677   2.479040   2.840261   1.426147
    19  C    5.092506   5.389826   2.826662   2.448243   2.459550
    20  H    5.841628   5.086138   3.413850   2.165272   3.938935
    21  H    4.902405   6.201871   3.465747   3.934369   2.162539
    22  H    6.162787   6.447379   3.919263   3.433291   3.447687
    23  C    1.362496   1.737091   1.414847   2.463565   2.464347
    24  O    2.439884   4.460558   2.360246   3.628376   1.276242
    25  H    1.047663   3.489422   2.382609   3.775777   2.195016
                   16         17         18         19         20
    16  C    0.000000
    17  H    2.170846   0.000000
    18  C    2.437385   3.934671   0.000000
    19  C    1.404180   3.433695   1.403123   0.000000
    20  H    1.093594   2.483811   3.426347   2.168402   0.000000
    21  H    3.438390   5.028861   1.094277   2.185848   4.342652
    22  H    2.164109   4.326666   2.165513   1.092753   2.490879
    23  C    3.742779   2.722307   3.753034   4.240671   4.624546
    24  O    4.120189   4.523538   2.390461   3.647517   5.213703
    25  H    4.694654   4.389296   3.588106   4.622423   5.742723
                   21         22         23         24         25
    21  H    0.000000
    22  H    2.521509   0.000000
    23  C    4.622353   5.333411   0.000000
    24  O    2.653466   4.547205   2.723848   0.000000
    25  H    4.061199   5.638915   1.895995   1.464458   0.000000
 Symmetry turned off by external request.
 Stoichiometry    C13H9NOS
 Framework group  C1[X(C13H9NOS)]
 Deg. of freedom    69
 Full point group                 C1      NOp   1
 Rotational constants (GHZ):           1.4092747           0.2863236           0.2379741
 Leave Link  202 at Wed Oct 28 00:42:36 2020, MaxMem=  7784628224 cpu:               0.4 elap:               0.1
 (Enter /gpfs/loomis/apps/avx/software/Gaussian/16-C.01_AVX/g16/l301.exe)
 Standard basis: CC-pVDZ (5D, 7F)
 Ernie: Thresh=  0.10000D-02 Tol=  0.10000D-05 Strict=F.
 Ernie:  40 primitive shells out of 425 were deleted.
   273 basis functions,   629 primitive gaussians,   289 cartesian basis functions
    59 alpha electrons       59 beta electrons
       nuclear repulsion energy      1101.1624720484 Hartrees.
 IExCor= 4639 DFT=T Ex+Corr=wB97XD ExCW=0 ScaHFX=  1.000000
 ScaDFX=  1.000000  1.000000  1.000000  1.000000 ScalE2=  1.000000  1.000000
 IRadAn=      5 IRanWt=     -1 IRanGd=            0 ICorTp=0 IEmpDi=121
 HFx  wShort=  0.000000 wLong=  0.200000 cFull=  0.222036 cShort=  0.000000 cLong=  0.777964
 DFx  wShort=  0.000000 wLong=  0.200000 cFull=  0.000000 cShort=  0.000000 cLong=  1.000000
 NAtoms=   25 NActive=   25 NUniq=   25 SFac= 1.00D+00 NAtFMM=   60 NAOKFM=F Big=F
 Integral buffers will be    131072 words long.
 Raffenetti 2 integral format.
 Two-electron integral symmetry is turned off.
 R6Disp:  Grimme-D2 Dispersion energy=       -0.0138947514 Hartrees.
 Nuclear repulsion after empirical dispersion term =     1101.1485772970 Hartrees.
 ------------------------------------------------------------------------------
 Polarizable Continuum Model (PCM)
 =================================
 Model                : PCM.
 Atomic radii         : UFF (Universal Force Field).
 Polarization charges : Total charges.
 Charge compensation  : None.
 Solution method      : On-the-fly selection.
 Cavity type          : Scaled VdW (van der Waals Surface) (Alpha=1.100).
 Cavity algorithm     : GePol (No added spheres)
                        Default sphere list used, NSphG=   25.
                        Lebedev-Laikov grids with approx.  5.0 points / Ang**2.
                        Smoothing algorithm: York/Karplus (Gamma=1.0000).
                        Polarization charges: spherical gaussians, with
                                              point-specific exponents (IZeta= 3).
                        Self-potential: point-specific (ISelfS= 7).
                        Self-field    : sphere-specific E.n sum rule (ISelfD= 2).
 1st derivatives      : Analytical E(r).r(x)/FMM algorithm (CHGder, D1EAlg=3).
                        Cavity 1st derivative terms included.
 Solvent              : CarbonTetraChloride, Eps=   2.228000 Eps(inf)=   2.131892
 ------------------------------------------------------------------------------
 GePol: Number of generator spheres                  =      25
 GePol: Total number of spheres                      =      25
 GePol: Number of exposed spheres                    =      25 (100.00%)
 GePol: Number of points                             =    2187
 GePol: Average weight of points                     =       0.12
 GePol: Minimum weight of points                     =   0.35D-09
 GePol: Maximum weight of points                     =    0.20577
 GePol: Number of points with low weight             =     120
 GePol: Fraction of low-weight points (<1% of avg)   =       5.49%
 GePol: Cavity surface area                          =    271.197 Ang**2
 GePol: Cavity volume                                =    291.595 Ang**3
 Leave Link  301 at Wed Oct 28 00:42:36 2020, MaxMem=  7784628224 cpu:               0.8 elap:               0.1
 (Enter /gpfs/loomis/apps/avx/software/Gaussian/16-C.01_AVX/g16/l302.exe)
 NPDir=0 NMtPBC=     1 NCelOv=     1 NCel=       1 NClECP=     1 NCelD=      1
         NCelK=      1 NCelE2=     1 NClLst=     1 CellRange=     0.0.
 One-electron integrals computed using PRISM.
 NBasis=   273 RedAO= T EigKep=  3.15D-04  NBF=   273
 NBsUse=   273 1.00D-06 EigRej= -1.00D+00 NBFU=   273
 Precomputing XC quadrature grid using
 IXCGrd= 4 IRadAn=           5 IRanWt=          -1 IRanGd=           0 AccXCQ= 0.00D+00.
 Generated NRdTot=       0 NPtTot=           0 NUsed=           0 NTot=          32
 NSgBfM=   288   288   288   288   288 MxSgAt=    25 MxSgA2=    25.
 Leave Link  302 at Wed Oct 28 00:42:37 2020, MaxMem=  7784628224 cpu:               2.7 elap:               0.3
 (Enter /gpfs/loomis/apps/avx/software/Gaussian/16-C.01_AVX/g16/l303.exe)
 DipDrv:  MaxL=1.
 Leave Link  303 at Wed Oct 28 00:42:37 2020, MaxMem=  7784628224 cpu:               0.6 elap:               0.1
 (Enter /gpfs/loomis/apps/avx/software/Gaussian/16-C.01_AVX/g16/l401.exe)
 ExpMin= 1.22D-01 ExpMax= 1.11D+05 ExpMxC= 1.07D+03 IAcc=3 IRadAn=         5 AccDes= 0.00D+00
 Harris functional with IExCor= 4639 and IRadAn=       5 diagonalized for initial guess.
 HarFok:  IExCor= 4639 AccDes= 0.00D+00 IRadAn=         5 IDoV= 1 UseB2=F ITyADJ=14
 ICtDFT=  3500011 ScaDFX=  1.000000  1.000000  1.000000  1.000000
 FoFCou: FMM=F IPFlag=           0 FMFlag=      100000 FMFlg1=           0
         NFxFlg=           0 DoJE=T BraDBF=F KetDBF=T FulRan=T
         wScrn=  0.000000 ICntrl=       500 IOpCl=  0 I1Cent=   200000004 NGrid=           0
         NMat0=    1 NMatS0=      1 NMatT0=    0 NMatD0=    1 NMtDS0=    0 NMtDT0=    0
 Symmetry not used in FoFCou.
 Harris En= -994.451521254973    
 JPrj=0 DoOrth=F DoCkMO=F.
 Leave Link  401 at Wed Oct 28 00:42:38 2020, MaxMem=  7784628224 cpu:              14.2 elap:               1.5
 (Enter /gpfs/loomis/apps/avx/software/Gaussian/16-C.01_AVX/g16/l502.exe)
 Two-electron integral symmetry not used.
 Closed shell SCF:
 Using DIIS extrapolation, IDIIS=  1040.
 NGot=  7784628224 LenX=  7784455381 LenY=  7784371419
 Requested convergence on RMS density matrix=1.00D-08 within 128 cycles.
 Requested convergence on MAX density matrix=1.00D-06.
 Requested convergence on             energy=1.00D-06.
 No special actions if energy rises.
 Fock matrices will be formed incrementally for  20 cycles.

 Cycle   1  Pass 1  IDiag  1:
 FoFJK:  IHMeth= 1 ICntrl=       0 DoSepK=T KAlg= 0 I1Cent=           0 FoldK=F
 IRaf=         1 NMat=       1 IRICut=       1 DoRegI=T DoRafI=F ISym2E= 0 IDoP0=0 IntGTp=1.
 FoFCou: FMM=F IPFlag=           0 FMFlag=      100000 FMFlg1=           0
         NFxFlg=           0 DoJE=T BraDBF=F KetDBF=F FulRan=T
         wScrn=  0.000000 ICntrl=       500 IOpCl=  0 I1Cent=           0 NGrid=           0
         NMat0=    1 NMatS0=      1 NMatT0=    0 NMatD0=    1 NMtDS0=    0 NMtDT0=    0
 Symmetry not used in FoFCou.
 Inv3:  Mode=1 IEnd=    14348907.
 Iteration    1 A*A^-1 deviation from unit magnitude is 5.22D-15 for   2172.
 Iteration    1 A*A^-1 deviation from orthogonality  is 2.11D-15 for   2184   2092.
 Iteration    1 A^-1*A deviation from unit magnitude is 5.22D-15 for   2172.
 Iteration    1 A^-1*A deviation from orthogonality  is 1.93D-15 for   2184   2092.
 E= -1028.55851207887    
 DIIS: error= 3.84D-02 at cycle   1 NSaved=   1.
 NSaved= 1 IEnMin= 1 EnMin= -1028.55851207887     IErMin= 1 ErrMin= 3.84D-02
 ErrMax= 3.84D-02  0.00D+00 EMaxC= 1.00D-01 BMatC= 3.94D-01 BMatP= 3.94D-01
 IDIUse=3 WtCom= 6.16D-01 WtEn= 3.84D-01
 Coeff-Com:  0.100D+01
 Coeff-En:   0.100D+01
 Coeff:      0.100D+01
 Gap=     0.322 Goal=   None    Shift=    0.000
 GapD=    0.322 DampG=1.000 DampE=0.500 DampFc=0.5000 IDamp=-1.
 Damping current iteration by 5.00D-01
 RMSDP=3.57D-03 MaxDP=2.32D-01              OVMax= 1.83D-01

 Cycle   2  Pass 1  IDiag  1:
 RMSU=  1.78D-03    CP:  9.94D-01
 E= -1028.67729015351     Delta-E=       -0.118778074640 Rises=F Damp=T
 DIIS: error= 1.23D-02 at cycle   2 NSaved=   2.
 NSaved= 2 IEnMin= 2 EnMin= -1028.67729015351     IErMin= 2 ErrMin= 1.23D-02
 ErrMax= 1.23D-02  0.00D+00 EMaxC= 1.00D-01 BMatC= 5.87D-02 BMatP= 3.94D-01
 IDIUse=3 WtCom= 8.77D-01 WtEn= 1.23D-01
 Coeff-Com: -0.278D+00 0.128D+01
 Coeff-En:   0.000D+00 0.100D+01
 Coeff:     -0.244D+00 0.124D+01
 Gap=     0.290 Goal=   None    Shift=    0.000
 RMSDP=1.16D-03 MaxDP=2.56D-02 DE=-1.19D-01 OVMax= 1.30D-01

 Cycle   3  Pass 1  IDiag  1:
 RMSU=  1.11D-03    CP:  9.93D-01  1.17D+00
 E= -1028.78389665227     Delta-E=       -0.106606498755 Rises=F Damp=F
 DIIS: error= 7.14D-03 at cycle   3 NSaved=   3.
 NSaved= 3 IEnMin= 3 EnMin= -1028.78389665227     IErMin= 3 ErrMin= 7.14D-03
 ErrMax= 7.14D-03  0.00D+00 EMaxC= 1.00D-01 BMatC= 1.61D-02 BMatP= 5.87D-02
 IDIUse=3 WtCom= 9.29D-01 WtEn= 7.14D-02
 Coeff-Com: -0.205D+00 0.504D+00 0.702D+00
 Coeff-En:   0.000D+00 0.000D+00 0.100D+01
 Coeff:     -0.191D+00 0.468D+00 0.723D+00
 Gap=     0.245 Goal=   None    Shift=    0.000
 RMSDP=5.66D-04 MaxDP=2.38D-02 DE=-1.07D-01 OVMax= 4.19D-02

 Cycle   4  Pass 1  IDiag  1:
 RMSU=  4.49D-04    CP:  9.91D-01  1.33D+00  8.22D-01
 E= -1028.79908937857     Delta-E=       -0.015192726307 Rises=F Damp=F
 DIIS: error= 2.10D-03 at cycle   4 NSaved=   4.
 NSaved= 4 IEnMin= 4 EnMin= -1028.79908937857     IErMin= 4 ErrMin= 2.10D-03
 ErrMax= 2.10D-03  0.00D+00 EMaxC= 1.00D-01 BMatC= 2.07D-03 BMatP= 1.61D-02
 IDIUse=3 WtCom= 9.79D-01 WtEn= 2.10D-02
 Coeff-Com: -0.716D-01 0.142D+00 0.347D+00 0.583D+00
 Coeff-En:   0.000D+00 0.000D+00 0.000D+00 0.100D+01
 Coeff:     -0.701D-01 0.139D+00 0.339D+00 0.592D+00
 Gap=     0.245 Goal=   None    Shift=    0.000
 RMSDP=1.82D-04 MaxDP=1.06D-02 DE=-1.52D-02 OVMax= 1.36D-02

 Cycle   5  Pass 1  IDiag  1:
 RMSU=  1.10D-04    CP:  9.91D-01  1.34D+00  9.02D-01  7.49D-01
 E= -1028.80128745558     Delta-E=       -0.002198077003 Rises=F Damp=F
 DIIS: error= 4.68D-04 at cycle   5 NSaved=   5.
 NSaved= 5 IEnMin= 5 EnMin= -1028.80128745558     IErMin= 5 ErrMin= 4.68D-04
 ErrMax= 4.68D-04  0.00D+00 EMaxC= 1.00D-01 BMatC= 5.69D-05 BMatP= 2.07D-03
 IDIUse=3 WtCom= 9.95D-01 WtEn= 4.68D-03
 Coeff-Com: -0.135D-02-0.360D-02 0.325D-01 0.154D+00 0.818D+00
 Coeff-En:   0.000D+00 0.000D+00 0.000D+00 0.000D+00 0.100D+01
 Coeff:     -0.135D-02-0.358D-02 0.324D-01 0.153D+00 0.819D+00
 Gap=     0.246 Goal=   None    Shift=    0.000
 RMSDP=5.51D-05 MaxDP=1.78D-03 DE=-2.20D-03 OVMax= 5.30D-03

 Cycle   6  Pass 1  IDiag  1:
 RMSU=  3.52D-05    CP:  9.91D-01  1.34D+00  9.19D-01  8.29D-01  1.10D+00
 E= -1028.80141433941     Delta-E=       -0.000126883834 Rises=F Damp=F
 DIIS: error= 2.51D-04 at cycle   6 NSaved=   6.
 NSaved= 6 IEnMin= 6 EnMin= -1028.80141433941     IErMin= 6 ErrMin= 2.51D-04
 ErrMax= 2.51D-04  0.00D+00 EMaxC= 1.00D-01 BMatC= 1.06D-05 BMatP= 5.69D-05
 IDIUse=3 WtCom= 9.97D-01 WtEn= 2.51D-03
 Coeff-Com:  0.160D-01-0.328D-01-0.619D-01-0.726D-01 0.210D+00 0.941D+00
 Coeff-En:   0.000D+00 0.000D+00 0.000D+00 0.000D+00 0.000D+00 0.100D+01
 Coeff:      0.159D-01-0.328D-01-0.618D-01-0.724D-01 0.209D+00 0.942D+00
 Gap=     0.247 Goal=   None    Shift=    0.000
 RMSDP=3.46D-05 MaxDP=1.65D-03 DE=-1.27D-04 OVMax= 4.35D-03

 Cycle   7  Pass 1  IDiag  1:
 RMSU=  1.68D-05    CP:  9.91D-01  1.34D+00  9.30D-01  8.62D-01  1.28D+00
                    CP:  1.33D+00
 E= -1028.80144906298     Delta-E=       -0.000034723573 Rises=F Damp=F
 DIIS: error= 1.17D-04 at cycle   7 NSaved=   7.
 NSaved= 7 IEnMin= 7 EnMin= -1028.80144906298     IErMin= 7 ErrMin= 1.17D-04
 ErrMax= 1.17D-04  0.00D+00 EMaxC= 1.00D-01 BMatC= 2.23D-06 BMatP= 1.06D-05
 IDIUse=3 WtCom= 9.99D-01 WtEn= 1.17D-03
 Coeff-Com:  0.640D-02-0.122D-01-0.270D-01-0.478D-01-0.198D-01 0.385D+00
 Coeff-Com:  0.715D+00
 Coeff-En:   0.000D+00 0.000D+00 0.000D+00 0.000D+00 0.000D+00 0.000D+00
 Coeff-En:   0.100D+01
 Coeff:      0.640D-02-0.121D-01-0.270D-01-0.477D-01-0.198D-01 0.385D+00
 Coeff:      0.716D+00
 Gap=     0.247 Goal=   None    Shift=    0.000
 RMSDP=1.18D-05 MaxDP=5.03D-04 DE=-3.47D-05 OVMax= 1.39D-03

 Cycle   8  Pass 1  IDiag  1:
 RMSU=  7.16D-06    CP:  9.91D-01  1.34D+00  9.31D-01  8.67D-01  1.32D+00
                    CP:  1.54D+00  1.17D+00
 E= -1028.80145472601     Delta-E=       -0.000005663026 Rises=F Damp=F
 DIIS: error= 6.09D-05 at cycle   8 NSaved=   8.
 NSaved= 8 IEnMin= 8 EnMin= -1028.80145472601     IErMin= 8 ErrMin= 6.09D-05
 ErrMax= 6.09D-05  0.00D+00 EMaxC= 1.00D-01 BMatC= 3.39D-07 BMatP= 2.23D-06
 IDIUse=1 WtCom= 1.00D+00 WtEn= 0.00D+00
 Coeff-Com: -0.167D-02 0.359D-02 0.705D-02 0.408D-02-0.435D-01-0.110D+00
 Coeff-Com:  0.173D+00 0.968D+00
 Coeff:     -0.167D-02 0.359D-02 0.705D-02 0.408D-02-0.435D-01-0.110D+00
 Coeff:      0.173D+00 0.968D+00
 Gap=     0.247 Goal=   None    Shift=    0.000
 RMSDP=7.41D-06 MaxDP=2.02D-04 DE=-5.66D-06 OVMax= 1.27D-03

 Cycle   9  Pass 1  IDiag  1:
 RMSU=  2.82D-06    CP:  9.91D-01  1.34D+00  9.31D-01  8.67D-01  1.34D+00
                    CP:  1.66D+00  1.45D+00  1.26D+00
 E= -1028.80145634770     Delta-E=       -0.000001621688 Rises=F Damp=F
 DIIS: error= 2.06D-05 at cycle   9 NSaved=   9.
 NSaved= 9 IEnMin= 9 EnMin= -1028.80145634770     IErMin= 9 ErrMin= 2.06D-05
 ErrMax= 2.06D-05  0.00D+00 EMaxC= 1.00D-01 BMatC= 6.47D-08 BMatP= 3.39D-07
 IDIUse=1 WtCom= 1.00D+00 WtEn= 0.00D+00
 Coeff-Com: -0.113D-02 0.219D-02 0.519D-02 0.727D-02-0.709D-02-0.814D-01
 Coeff-Com: -0.836D-01 0.225D+00 0.933D+00
 Coeff:     -0.113D-02 0.219D-02 0.519D-02 0.727D-02-0.709D-02-0.814D-01
 Coeff:     -0.836D-01 0.225D+00 0.933D+00
 Gap=     0.247 Goal=   None    Shift=    0.000
 RMSDP=3.63D-06 MaxDP=9.14D-05 DE=-1.62D-06 OVMax= 5.91D-04

 Cycle  10  Pass 1  IDiag  1:
 RMSU=  1.29D-06    CP:  9.90D-01  1.34D+00  9.31D-01  8.67D-01  1.35D+00
                    CP:  1.71D+00  1.56D+00  1.51D+00  1.36D+00
 E= -1028.80145667944     Delta-E=       -0.000000331746 Rises=F Damp=F
 DIIS: error= 1.02D-05 at cycle  10 NSaved=  10.
 NSaved=10 IEnMin=10 EnMin= -1028.80145667944     IErMin=10 ErrMin= 1.02D-05
 ErrMax= 1.02D-05  0.00D+00 EMaxC= 1.00D-01 BMatC= 1.57D-08 BMatP= 6.47D-08
 IDIUse=1 WtCom= 1.00D+00 WtEn= 0.00D+00
 Coeff-Com:  0.103D-03-0.271D-03-0.486D-04 0.113D-02 0.762D-02-0.149D-02
 Coeff-Com: -0.720D-01-0.124D+00 0.336D+00 0.854D+00
 Coeff:      0.103D-03-0.271D-03-0.486D-04 0.113D-02 0.762D-02-0.149D-02
 Coeff:     -0.720D-01-0.124D+00 0.336D+00 0.854D+00
 Gap=     0.247 Goal=   None    Shift=    0.000
 RMSDP=1.62D-06 MaxDP=4.34D-05 DE=-3.32D-07 OVMax= 2.95D-04

 Cycle  11  Pass 1  IDiag  1:
 RMSU=  5.20D-07    CP:  9.90D-01  1.34D+00  9.31D-01  8.68D-01  1.35D+00
                    CP:  1.73D+00  1.60D+00  1.61D+00  1.68D+00  1.18D+00
 E= -1028.80145674778     Delta-E=       -0.000000068337 Rises=F Damp=F
 DIIS: error= 2.89D-06 at cycle  11 NSaved=  11.
 NSaved=11 IEnMin=11 EnMin= -1028.80145674778     IErMin=11 ErrMin= 2.89D-06
 ErrMax= 2.89D-06  0.00D+00 EMaxC= 1.00D-01 BMatC= 2.85D-09 BMatP= 1.57D-08
 IDIUse=1 WtCom= 1.00D+00 WtEn= 0.00D+00
 Coeff-Com:  0.280D-03-0.571D-03-0.106D-02-0.117D-02 0.441D-02 0.162D-01
 Coeff-Com: -0.946D-02-0.815D-01-0.785D-01 0.245D+00 0.906D+00
 Coeff:      0.280D-03-0.571D-03-0.106D-02-0.117D-02 0.441D-02 0.162D-01
 Coeff:     -0.946D-02-0.815D-01-0.785D-01 0.245D+00 0.906D+00
 Gap=     0.247 Goal=   None    Shift=    0.000
 RMSDP=7.24D-07 MaxDP=1.83D-05 DE=-6.83D-08 OVMax= 1.18D-04

 Cycle  12  Pass 1  IDiag  1:
 RMSU=  2.29D-07    CP:  9.90D-01  1.34D+00  9.31D-01  8.68D-01  1.35D+00
                    CP:  1.73D+00  1.62D+00  1.65D+00  1.82D+00  1.45D+00
                    CP:  1.17D+00
 E= -1028.80145675894     Delta-E=       -0.000000011165 Rises=F Damp=F
 DIIS: error= 1.48D-06 at cycle  12 NSaved=  12.
 NSaved=12 IEnMin=12 EnMin= -1028.80145675894     IErMin=12 ErrMin= 1.48D-06
 ErrMax= 1.48D-06  0.00D+00 EMaxC= 1.00D-01 BMatC= 5.34D-10 BMatP= 2.85D-09
 IDIUse=1 WtCom= 1.00D+00 WtEn= 0.00D+00
 Coeff-Com:  0.109D-03-0.211D-03-0.456D-03-0.775D-03 0.752D-03 0.750D-02
 Coeff-Com:  0.697D-02-0.121D-01-0.882D-01-0.403D-01 0.367D+00 0.759D+00
 Coeff:      0.109D-03-0.211D-03-0.456D-03-0.775D-03 0.752D-03 0.750D-02
 Coeff:      0.697D-02-0.121D-01-0.882D-01-0.403D-01 0.367D+00 0.759D+00
 Gap=     0.247 Goal=   None    Shift=    0.000
 RMSDP=2.26D-07 MaxDP=7.83D-06 DE=-1.12D-08 OVMax= 3.72D-05

 Cycle  13  Pass 1  IDiag  1:
 RMSU=  9.01D-08    CP:  9.90D-01  1.34D+00  9.31D-01  8.68D-01  1.35D+00
                    CP:  1.73D+00  1.62D+00  1.66D+00  1.87D+00  1.52D+00
                    CP:  1.38D+00  9.57D-01
 E= -1028.80145676039     Delta-E=       -0.000000001443 Rises=F Damp=F
 DIIS: error= 4.69D-07 at cycle  13 NSaved=  13.
 NSaved=13 IEnMin=13 EnMin= -1028.80145676039     IErMin=13 ErrMin= 4.69D-07
 ErrMax= 4.69D-07  0.00D+00 EMaxC= 1.00D-01 BMatC= 9.13D-11 BMatP= 5.34D-10
 IDIUse=1 WtCom= 1.00D+00 WtEn= 0.00D+00
 Coeff-Com: -0.754D-05 0.185D-04 0.135D-04-0.894D-04-0.339D-03 0.426D-03
 Coeff-Com:  0.338D-02 0.778D-02-0.214D-01-0.521D-01-0.300D-01 0.288D+00
 Coeff-Com:  0.804D+00
 Coeff:     -0.754D-05 0.185D-04 0.135D-04-0.894D-04-0.339D-03 0.426D-03
 Coeff:      0.338D-02 0.778D-02-0.214D-01-0.521D-01-0.300D-01 0.288D+00
 Coeff:      0.804D+00
 Gap=     0.247 Goal=   None    Shift=    0.000
 RMSDP=9.54D-08 MaxDP=2.56D-06 DE=-1.44D-09 OVMax= 1.21D-05

 Cycle  14  Pass 1  IDiag  1:
 RMSU=  3.51D-08    CP:  9.90D-01  1.34D+00  9.31D-01  8.68D-01  1.35D+00
                    CP:  1.73D+00  1.62D+00  1.66D+00  1.88D+00  1.56D+00
                    CP:  1.44D+00  1.13D+00  1.03D+00
 E= -1028.80145676057     Delta-E=       -0.000000000188 Rises=F Damp=F
 DIIS: error= 1.77D-07 at cycle  14 NSaved=  14.
 NSaved=14 IEnMin=14 EnMin= -1028.80145676057     IErMin=14 ErrMin= 1.77D-07
 ErrMax= 1.77D-07  0.00D+00 EMaxC= 1.00D-01 BMatC= 1.14D-11 BMatP= 9.13D-11
 IDIUse=1 WtCom= 1.00D+00 WtEn= 0.00D+00
 Coeff-Com: -0.132D-04 0.272D-04 0.501D-04 0.375D-04-0.205D-03-0.540D-03
 Coeff-Com:  0.567D-03 0.500D-02 0.119D-02-0.147D-01-0.530D-01 0.494D-01
 Coeff-Com:  0.345D+00 0.667D+00
 Coeff:     -0.132D-04 0.272D-04 0.501D-04 0.375D-04-0.205D-03-0.540D-03
 Coeff:      0.567D-03 0.500D-02 0.119D-02-0.147D-01-0.530D-01 0.494D-01
 Coeff:      0.345D+00 0.667D+00
 Gap=     0.247 Goal=   None    Shift=    0.000
 RMSDP=2.06D-08 MaxDP=6.53D-07 DE=-1.88D-10 OVMax= 2.14D-06

 Cycle  15  Pass 1  IDiag  1:
 RMSU=  1.42D-08    CP:  9.90D-01  1.34D+00  9.31D-01  8.68D-01  1.35D+00
                    CP:  1.73D+00  1.62D+00  1.66D+00  1.88D+00  1.56D+00
                    CP:  1.44D+00  1.16D+00  1.15D+00  9.52D-01
 E= -1028.80145676058     Delta-E=       -0.000000000009 Rises=F Damp=F
 DIIS: error= 7.66D-08 at cycle  15 NSaved=  15.
 NSaved=15 IEnMin=15 EnMin= -1028.80145676058     IErMin=15 ErrMin= 7.66D-08
 ErrMax= 7.66D-08  0.00D+00 EMaxC= 1.00D-01 BMatC= 1.60D-12 BMatP= 1.14D-11
 IDIUse=1 WtCom= 1.00D+00 WtEn= 0.00D+00
 Coeff-Com: -0.407D-05 0.760D-05 0.193D-04 0.391D-04-0.190D-04-0.353D-03
 Coeff-Com: -0.673D-03 0.109D-03 0.502D-02 0.717D-02-0.150D-01-0.485D-01
 Coeff-Com: -0.537D-01 0.226D+00 0.880D+00
 Coeff:     -0.407D-05 0.760D-05 0.193D-04 0.391D-04-0.190D-04-0.353D-03
 Coeff:     -0.673D-03 0.109D-03 0.502D-02 0.717D-02-0.150D-01-0.485D-01
 Coeff:     -0.537D-01 0.226D+00 0.880D+00
 Gap=     0.247 Goal=   None    Shift=    0.000
 RMSDP=1.19D-08 MaxDP=2.94D-07 DE=-9.09D-12 OVMax= 1.46D-06

 Cycle  16  Pass 1  IDiag  1:
 RMSU=  5.12D-09    CP:  9.90D-01  1.34D+00  9.31D-01  8.68D-01  1.35D+00
                    CP:  1.73D+00  1.62D+00  1.66D+00  1.88D+00  1.56D+00
                    CP:  1.45D+00  1.17D+00  1.20D+00  1.14D+00  1.10D+00
 E= -1028.80145676059     Delta-E=       -0.000000000005 Rises=F Damp=F
 DIIS: error= 2.58D-08 at cycle  16 NSaved=  16.
 NSaved=16 IEnMin=16 EnMin= -1028.80145676059     IErMin=16 ErrMin= 2.58D-08
 ErrMax= 2.58D-08  0.00D+00 EMaxC= 1.00D-01 BMatC= 1.56D-13 BMatP= 1.60D-12
 IDIUse=1 WtCom= 1.00D+00 WtEn= 0.00D+00
 Coeff-Com: -0.494D-08-0.181D-06 0.106D-05 0.780D-05 0.946D-05-0.560D-04
 Coeff-Com: -0.242D-03-0.357D-03 0.112D-02 0.328D-02-0.783D-04-0.188D-01
 Coeff-Com: -0.448D-01-0.143D-01 0.239D+00 0.835D+00
 Coeff:     -0.494D-08-0.181D-06 0.106D-05 0.780D-05 0.946D-05-0.560D-04
 Coeff:     -0.242D-03-0.357D-03 0.112D-02 0.328D-02-0.783D-04-0.188D-01
 Coeff:     -0.448D-01-0.143D-01 0.239D+00 0.835D+00
 Gap=     0.247 Goal=   None    Shift=    0.000
 RMSDP=3.89D-09 MaxDP=1.06D-07 DE=-4.55D-12 OVMax= 4.73D-07

 Error on total polarization charges =  0.00852
 SCF Done:  E(RwB97XD) =  -1028.80145676     A.U. after   16 cycles
            NFock= 16  Conv=0.39D-08     -V/T= 2.0049
 KE= 1.023735595999D+03 PE=-4.614236127056D+03 EE= 1.460550497000D+03
 Leave Link  502 at Wed Oct 28 00:44:07 2020, MaxMem=  7784628224 cpu:             879.4 elap:              88.6
 (Enter /gpfs/loomis/apps/avx/software/Gaussian/16-C.01_AVX/g16/l601.exe)
 Copying SCF densities to generalized density rwf, IOpCl= 0 IROHF=0.

 **********************************************************************

            Population analysis using the SCF Density.

 **********************************************************************

 Alpha  occ. eigenvalues --  -89.10018 -19.21953 -14.51245 -10.41131 -10.37698
 Alpha  occ. eigenvalues --  -10.36264 -10.36024 -10.33199 -10.32948 -10.32457
 Alpha  occ. eigenvalues --  -10.32320 -10.31804 -10.31298 -10.30835 -10.29631
 Alpha  occ. eigenvalues --  -10.29055  -8.12110  -6.06962  -6.06609  -6.06140
 Alpha  occ. eigenvalues --   -1.12893  -1.09573  -0.98016  -0.95686  -0.93197
 Alpha  occ. eigenvalues --   -0.89066  -0.86525  -0.83571  -0.81716  -0.76055
 Alpha  occ. eigenvalues --   -0.72497  -0.71871  -0.68349  -0.67879  -0.64998
 Alpha  occ. eigenvalues --   -0.60911  -0.59544  -0.57055  -0.55488  -0.55327
 Alpha  occ. eigenvalues --   -0.54729  -0.53863  -0.52968  -0.50442  -0.49554
 Alpha  occ. eigenvalues --   -0.48997  -0.48185  -0.46769  -0.45230  -0.45061
 Alpha  occ. eigenvalues --   -0.44171  -0.43282  -0.42172  -0.40457  -0.36683
 Alpha  occ. eigenvalues --   -0.33280  -0.32901  -0.31341  -0.26600
 Alpha virt. eigenvalues --   -0.01899   0.03902   0.05718   0.06756   0.08790
 Alpha virt. eigenvalues --    0.10562   0.14343   0.14855   0.16693   0.17551
 Alpha virt. eigenvalues --    0.18709   0.20354   0.21274   0.21292   0.22859
 Alpha virt. eigenvalues --    0.23492   0.24139   0.25285   0.28300   0.28446
 Alpha virt. eigenvalues --    0.31654   0.33640   0.35258   0.35542   0.36565
 Alpha virt. eigenvalues --    0.38063   0.39074   0.40261   0.41545   0.43280
 Alpha virt. eigenvalues --    0.46985   0.47662   0.50952   0.51101   0.51439
 Alpha virt. eigenvalues --    0.52525   0.52916   0.53252   0.54292   0.54792
 Alpha virt. eigenvalues --    0.56263   0.56326   0.56710   0.56728   0.57882
 Alpha virt. eigenvalues --    0.58061   0.58443   0.59083   0.59500   0.59870
 Alpha virt. eigenvalues --    0.61085   0.61181   0.61957   0.62817   0.62982
 Alpha virt. eigenvalues --    0.65060   0.66114   0.66914   0.67939   0.68727
 Alpha virt. eigenvalues --    0.70672   0.70863   0.72016   0.72718   0.72966
 Alpha virt. eigenvalues --    0.73680   0.74727   0.75442   0.75858   0.77931
 Alpha virt. eigenvalues --    0.78690   0.79458   0.80351   0.80946   0.82509
 Alpha virt. eigenvalues --    0.83988   0.87819   0.90043   0.91026   0.92980
 Alpha virt. eigenvalues --    0.94326   0.94467   0.95963   0.96612   0.97058
 Alpha virt. eigenvalues --    0.98385   0.98778   1.00323   1.00819   1.01399
 Alpha virt. eigenvalues --    1.02579   1.05374   1.05650   1.06339   1.07349
 Alpha virt. eigenvalues --    1.08012   1.09623   1.10039   1.10504   1.10921
 Alpha virt. eigenvalues --    1.12345   1.12980   1.14290   1.14611   1.15039
 Alpha virt. eigenvalues --    1.16423   1.19807   1.19924   1.22482   1.23601
 Alpha virt. eigenvalues --    1.25818   1.28330   1.32460   1.33161   1.34254
 Alpha virt. eigenvalues --    1.35738   1.37085   1.38748   1.40611   1.46779
 Alpha virt. eigenvalues --    1.48887   1.49755   1.53216   1.53850   1.54560
 Alpha virt. eigenvalues --    1.56637   1.57056   1.57197   1.58564   1.58965
 Alpha virt. eigenvalues --    1.60509   1.60707   1.65180   1.65486   1.67217
 Alpha virt. eigenvalues --    1.67677   1.69904   1.70096   1.70891   1.71369
 Alpha virt. eigenvalues --    1.71633   1.72226   1.73468   1.73612   1.75296
 Alpha virt. eigenvalues --    1.77677   1.79922   1.80314   1.80685   1.81810
 Alpha virt. eigenvalues --    1.82754   1.84450   1.84479   1.85202   1.85468
 Alpha virt. eigenvalues --    1.86881   1.88727   1.88965   1.91349   1.91724
 Alpha virt. eigenvalues --    1.92695   1.93929   1.95153   1.95548   1.96732
 Alpha virt. eigenvalues --    1.97723   1.99271   1.99894   2.02952   2.03898
 Alpha virt. eigenvalues --    2.06210   2.07476   2.09508   2.10306   2.14616
 Alpha virt. eigenvalues --    2.16339   2.17010   2.18800   2.21124   2.23532
 Alpha virt. eigenvalues --    2.26521   2.27452   2.31734   2.37211   2.39657
 Alpha virt. eigenvalues --    2.41732   2.42282   2.46168   2.47745   2.48239
 Alpha virt. eigenvalues --    2.50163   2.51026   2.51909   2.53882   2.61540
 Alpha virt. eigenvalues --    2.61742   2.71005   2.74051   2.74601   2.78730
 Alpha virt. eigenvalues --    2.80960   2.82785   2.85472   2.86018   2.89400
 Alpha virt. eigenvalues --    2.91498   3.01419   3.14403   3.23701   3.42982
 Alpha virt. eigenvalues --    3.47344   3.55857   3.59626   3.75759
          Condensed to atoms (all electrons):
               1          2          3          4          5          6
     1  C    4.731903   0.491268   0.005649  -0.051638  -0.014239   0.513579
     2  C    0.491268   5.308911   0.316010  -0.045688  -0.069037  -0.007651
     3  C    0.005649   0.316010   4.873741   0.505908  -0.002762  -0.063897
     4  C   -0.051638  -0.045688   0.505908   4.781109   0.518916  -0.011713
     5  C   -0.014239  -0.069037  -0.002762   0.518916   4.730348   0.497213
     6  C    0.513579  -0.007651  -0.063897  -0.011713   0.497213   4.735454
     7  H    0.403263  -0.038287   0.008815  -0.000631   0.007988  -0.039111
     8  H   -0.000576   0.010616  -0.030896   0.395671  -0.040644   0.007412
     9  H    0.008881  -0.000595   0.008366  -0.038021   0.405035  -0.044441
    10  H   -0.042434   0.009330  -0.000472   0.008277  -0.042088   0.407212
    11  N    0.004264  -0.040321   0.366815  -0.046414   0.002558   0.000182
    12  S   -0.070676   0.329473  -0.117665   0.005369   0.000255   0.004176
    13  C   -0.000224   0.001097   0.011145  -0.000442   0.000009   0.000003
    14  C   -0.000010   0.000140   0.000409   0.000007  -0.000000  -0.000000
    15  C    0.000004  -0.000307   0.000353   0.000040  -0.000000   0.000000
    16  C    0.000000  -0.000006   0.000004  -0.000000   0.000000   0.000000
    17  H   -0.000011   0.000205   0.000000   0.000001   0.000000   0.000000
    18  C    0.000000   0.000008  -0.000018  -0.000000  -0.000000  -0.000000
    19  C   -0.000000   0.000000   0.000001   0.000000  -0.000000   0.000000
    20  H   -0.000000  -0.000000  -0.000000   0.000000  -0.000000  -0.000000
    21  H   -0.000000  -0.000000  -0.000000  -0.000000  -0.000000   0.000000
    22  H    0.000000  -0.000000  -0.000000  -0.000000   0.000000  -0.000000
    23  C    0.003584  -0.046142  -0.114523   0.001139   0.000273  -0.000233
    24  O    0.000002  -0.000153  -0.000495  -0.000005   0.000000  -0.000000
    25  H    0.000113   0.007677  -0.031995  -0.003196  -0.000070  -0.000004
               7          8          9         10         11         12
     1  C    0.403263  -0.000576   0.008881  -0.042434   0.004264  -0.070676
     2  C   -0.038287   0.010616  -0.000595   0.009330  -0.040321   0.329473
     3  C    0.008815  -0.030896   0.008366  -0.000472   0.366815  -0.117665
     4  C   -0.000631   0.395671  -0.038021   0.008277  -0.046414   0.005369
     5  C    0.007988  -0.040644   0.405035  -0.042088   0.002558   0.000255
     6  C   -0.039111   0.007412  -0.044441   0.407212   0.000182   0.004176
     7  H    0.649805   0.000028  -0.000150  -0.010991  -0.000083  -0.007781
     8  H    0.000028   0.641155  -0.012167  -0.000105  -0.003323  -0.000231
     9  H   -0.000150  -0.012167   0.657330  -0.012003  -0.000098   0.000020
    10  H   -0.010991  -0.000105  -0.012003   0.655956   0.000004  -0.000158
    11  N   -0.000083  -0.003323  -0.000098   0.000004   6.174465  -0.053515
    12  S   -0.007781  -0.000231   0.000020  -0.000158  -0.053515  15.452123
    13  C   -0.000000   0.000029  -0.000000  -0.000000  -0.028554  -0.066374
    14  C    0.000001   0.000000   0.000000  -0.000000   0.003484  -0.011902
    15  C   -0.000000  -0.000004   0.000000   0.000000  -0.007309   0.005119
    16  C    0.000000   0.000000  -0.000000  -0.000000  -0.000075   0.000332
    17  H    0.000001   0.000000   0.000000  -0.000000   0.000240   0.008578
    18  C    0.000000  -0.000000   0.000000  -0.000000  -0.000506  -0.000195
    19  C   -0.000000   0.000000  -0.000000  -0.000000   0.000033   0.000025
    20  H    0.000000  -0.000000   0.000000   0.000000   0.000001   0.000010
    21  H   -0.000000   0.000000  -0.000000   0.000000   0.000013   0.000004
    22  H    0.000000  -0.000000   0.000000  -0.000000  -0.000000  -0.000001
    23  C    0.000209  -0.000648   0.000006   0.000005   0.530491   0.319510
    24  O    0.000000  -0.000140   0.000000  -0.000000  -0.062838  -0.000168
    25  H    0.000004   0.000746  -0.000006  -0.000000   0.313064   0.004238
              13         14         15         16         17         18
     1  C   -0.000224  -0.000010   0.000004   0.000000  -0.000011   0.000000
     2  C    0.001097   0.000140  -0.000307  -0.000006   0.000205   0.000008
     3  C    0.011145   0.000409   0.000353   0.000004   0.000000  -0.000018
     4  C   -0.000442   0.000007   0.000040  -0.000000   0.000001  -0.000000
     5  C    0.000009  -0.000000  -0.000000   0.000000   0.000000  -0.000000
     6  C    0.000003  -0.000000   0.000000   0.000000   0.000000  -0.000000
     7  H   -0.000000   0.000001  -0.000000   0.000000   0.000001   0.000000
     8  H    0.000029   0.000000  -0.000004   0.000000   0.000000  -0.000000
     9  H   -0.000000   0.000000   0.000000  -0.000000   0.000000   0.000000
    10  H   -0.000000  -0.000000   0.000000  -0.000000  -0.000000  -0.000000
    11  N   -0.028554   0.003484  -0.007309  -0.000075   0.000240  -0.000506
    12  S   -0.066374  -0.011902   0.005119   0.000332   0.008578  -0.000195
    13  C    5.419664   0.433872   0.199582  -0.007342  -0.038621  -0.040168
    14  C    0.433872   4.861601   0.006097   0.538276   0.397240  -0.059112
    15  C    0.199582   0.006097   4.739099  -0.054471   0.006013   0.470113
    16  C   -0.007342   0.538276  -0.054471   4.755711  -0.030861  -0.019825
    17  H   -0.038621   0.397240   0.006013  -0.030861   0.667689  -0.000758
    18  C   -0.040168  -0.059112   0.470113  -0.019825  -0.000758   4.881667
    19  C   -0.053542  -0.019733  -0.006210   0.481993   0.007937   0.506426
    20  H    0.008993  -0.036082  -0.000157   0.400375  -0.011792   0.008098
    21  H    0.015098  -0.000657  -0.024749   0.007507   0.000050   0.373732
    22  H   -0.001635   0.009805   0.008647  -0.045590  -0.000191  -0.040170
    23  C    0.367318  -0.091011  -0.075558   0.006125  -0.022102   0.009377
    24  O   -0.095952   0.006277   0.618995  -0.000132  -0.000071  -0.062359
    25  H   -0.033861  -0.000814  -0.016503   0.000053  -0.000074   0.003516
              19         20         21         22         23         24
     1  C   -0.000000  -0.000000  -0.000000   0.000000   0.003584   0.000002
     2  C    0.000000  -0.000000  -0.000000  -0.000000  -0.046142  -0.000153
     3  C    0.000001  -0.000000  -0.000000  -0.000000  -0.114523  -0.000495
     4  C    0.000000   0.000000  -0.000000  -0.000000   0.001139  -0.000005
     5  C   -0.000000  -0.000000  -0.000000   0.000000   0.000273   0.000000
     6  C    0.000000  -0.000000   0.000000  -0.000000  -0.000233  -0.000000
     7  H   -0.000000   0.000000  -0.000000   0.000000   0.000209   0.000000
     8  H    0.000000  -0.000000   0.000000  -0.000000  -0.000648  -0.000140
     9  H   -0.000000   0.000000  -0.000000   0.000000   0.000006   0.000000
    10  H   -0.000000   0.000000   0.000000  -0.000000   0.000005  -0.000000
    11  N    0.000033   0.000001   0.000013  -0.000000   0.530491  -0.062838
    12  S    0.000025   0.000010   0.000004  -0.000001   0.319510  -0.000168
    13  C   -0.053542   0.008993   0.015098  -0.001635   0.367318  -0.095952
    14  C   -0.019733  -0.036082  -0.000657   0.009805  -0.091011   0.006277
    15  C   -0.006210  -0.000157  -0.024749   0.008647  -0.075558   0.618995
    16  C    0.481993   0.400375   0.007507  -0.045590   0.006125  -0.000132
    17  H    0.007937  -0.011792   0.000050  -0.000191  -0.022102  -0.000071
    18  C    0.506426   0.008098   0.373732  -0.040170   0.009377  -0.062359
    19  C    4.739212  -0.046478  -0.046302   0.403513   0.000589   0.003836
    20  H   -0.046478   0.684834  -0.000147  -0.012297  -0.000396   0.000001
    21  H   -0.046302  -0.000147   0.676218  -0.012560  -0.000467   0.004519
    22  H    0.403513  -0.012297  -0.012560   0.672050   0.000002  -0.000068
    23  C    0.000589  -0.000396  -0.000467   0.000002   5.070241  -0.010768
    24  O    0.003836   0.000001   0.004519  -0.000068  -0.010768   7.873031
    25  H   -0.000351  -0.000001   0.000007   0.000007   0.013558   0.134678
              25
     1  C    0.000113
     2  C    0.007677
     3  C   -0.031995
     4  C   -0.003196
     5  C   -0.000070
     6  C   -0.000004
     7  H    0.000004
     8  H    0.000746
     9  H   -0.000006
    10  H   -0.000000
    11  N    0.313064
    12  S    0.004238
    13  C   -0.033861
    14  C   -0.000814
    15  C   -0.016503
    16  C    0.000053
    17  H   -0.000074
    18  C    0.003516
    19  C   -0.000351
    20  H   -0.000001
    21  H    0.000007
    22  H    0.000007
    23  C    0.013558
    24  O    0.134678
    25  H    0.466403
 Mulliken charges:
               1
     1  C    0.017299
     2  C   -0.226548
     3  C    0.265507
     4  C   -0.018687
     5  C    0.006244
     6  C    0.001818
     7  H    0.026921
     8  H    0.033074
     9  H    0.027844
    10  H    0.027470
    11  N   -0.152577
    12  S    0.199434
    13  C   -0.090094
    14  C   -0.037889
    15  C    0.131206
    16  C   -0.032074
    17  H    0.016530
    18  C   -0.029827
    19  C    0.029049
    20  H    0.005038
    21  H    0.007734
    22  H    0.018488
    23  C    0.039421
    24  O   -0.408192
    25  H    0.142813
 Sum of Mulliken charges =  -0.00000
 Mulliken charges with hydrogens summed into heavy atoms:
               1
     1  C    0.044219
     2  C   -0.226548
     3  C    0.265507
     4  C    0.014387
     5  C    0.034089
     6  C    0.029287
    11  N   -0.009764
    12  S    0.199434
    13  C   -0.090094
    14  C   -0.021359
    15  C    0.131206
    16  C   -0.027036
    18  C   -0.022093
    19  C    0.047536
    23  C    0.039421
    24  O   -0.408192
 Electronic spatial extent (au):  <R**2>=           4325.3067
 Charge=             -0.0000 electrons
 Dipole moment (field-independent basis, Debye):
    X=              1.1039    Y=             -5.1249    Z=             -0.0001  Tot=              5.2424
 Quadrupole moment (field-independent basis, Debye-Ang):
   XX=            -82.5374   YY=            -94.1773   ZZ=           -104.1952
   XY=             -6.8865   XZ=             -0.0001   YZ=             -0.0001
 Traceless Quadrupole moment (field-independent basis, Debye-Ang):
   XX=             11.0992   YY=             -0.5407   ZZ=            -10.5586
   XY=             -6.8865   XZ=             -0.0001   YZ=             -0.0001
 Octapole moment (field-independent basis, Debye-Ang**2):
  XXX=             28.8238  YYY=            -54.3432  ZZZ=             -0.0000  XYY=             -0.3538
  XXY=             -6.3206  XXZ=             -0.0000  XZZ=              2.1011  YZZ=              2.6661
  YYZ=             -0.0003  XYZ=             -0.0005
 Hexadecapole moment (field-independent basis, Debye-Ang**3):
 XXXX=          -2597.2810 YYYY=          -2643.7745 ZZZZ=           -113.1122 XXXY=            810.0367
 XXXZ=              0.0099 YYYX=            771.7579 YYYZ=             -0.0153 ZZZX=              0.0140
 ZZZY=             -0.0173 XXYY=           -841.8965 XXZZ=           -572.5824 YYZZ=           -544.7701
 XXYZ=             -0.0041 YYXZ=              0.0023 ZZXY=            359.2504
 N-N= 1.101148577297D+03 E-N=-4.614236129468D+03  KE= 1.023735595999D+03
 No NMR shielding tensors so no spin-rotation constants.
 Leave Link  601 at Wed Oct 28 00:44:07 2020, MaxMem=  7784628224 cpu:               3.5 elap:               0.4
 (Enter /gpfs/loomis/apps/avx/software/Gaussian/16-C.01_AVX/g16/l701.exe)
 ... and contract with generalized density number  0.
 Compute integral first derivatives.
 R6Disp: Adding Grimme-D2 dispersion energy 1st derivatives to the gradient.
 D1PCM: PCM CHGder 1st derivatives, ID1Alg=3 FixD1E=F DoIter=F DoCFld=F I1PDM=0.
 GePol: Maximum number of non-zero 1st derivatives   =     253
 Leave Link  701 at Wed Oct 28 00:44:10 2020, MaxMem=  7784628224 cpu:              23.5 elap:               2.6
 (Enter /gpfs/loomis/apps/avx/software/Gaussian/16-C.01_AVX/g16/l702.exe)
 L702 exits ... SP integral derivatives will be done elsewhere.
 Leave Link  702 at Wed Oct 28 00:44:10 2020, MaxMem=  7784628224 cpu:               0.3 elap:               0.0
 (Enter /gpfs/loomis/apps/avx/software/Gaussian/16-C.01_AVX/g16/l703.exe)
 Integral derivatives from FoFJK, PRISM(SPDF).
 Compute integral first derivatives, UseDBF=F ICtDFT=           0.
 Calling FoFJK, ICntrl=      2127 FMM=F ISym2X=0 I1Cent= 0 IOpClX= 0 NMat=1 NMatS=1 NMatT=0.
 FoFJK:  IHMeth= 1 ICntrl=    2127 DoSepK=T KAlg= 0 I1Cent=           0 FoldK=F
 IRaf=         1 NMat=       1 IRICut=       1 DoRegI=T DoRafI=F ISym2E= 0 IDoP0=0 IntGTp=1.
 FoFCou: FMM=F IPFlag=           0 FMFlag=      100000 FMFlg1=         800
         NFxFlg=           0 DoJE=F BraDBF=F KetDBF=F FulRan=T
         wScrn=  0.000000 ICntrl=      2527 IOpCl=  0 I1Cent=           0 NGrid=           0
         NMat0=    1 NMatS0=      1 NMatT0=    0 NMatD0=    1 NMtDS0=    0 NMtDT0=    0
 Symmetry not used in FoFCou.
 Leave Link  703 at Wed Oct 28 00:44:24 2020, MaxMem=  7784628224 cpu:             138.7 elap:              14.4
 (Enter /gpfs/loomis/apps/avx/software/Gaussian/16-C.01_AVX/g16/l716.exe)
 Dipole        = 4.34292753D-01-2.01627825D+00-3.01431234D-05
 -------------------------------------------------------------------
 Center     Atomic                   Forces (Hartrees/Bohr)
 Number     Number              X              Y              Z
 -------------------------------------------------------------------
      1        6           0.003833118    0.001481407   -0.000000083
      2        6           0.009221800    0.003587811   -0.000000234
      3        6           0.012593115   -0.021705624   -0.000000150
      4        6          -0.005446311    0.002841152    0.000000105
      5        6          -0.000402234    0.001802986    0.000000072
      6        6          -0.001363187    0.004833315   -0.000000118
      7        1           0.002049800    0.002409354   -0.000000049
      8        1          -0.002052324   -0.002410853    0.000000042
      9        1          -0.001875904    0.000602840   -0.000000001
     10        1          -0.000689670    0.001930376   -0.000000006
     11        7          -0.048221922   -0.045494623    0.000000004
     12       16           0.005683723    0.002328850   -0.000000258
     13        6           0.008268707    0.021728952   -0.000000346
     14        6          -0.029017661    0.021653872   -0.000000586
     15        6           0.008664538   -0.019067567    0.000000252
     16        6           0.006740724   -0.028179508   -0.000000185
     17        1          -0.001115708    0.001623389   -0.000000008
     18        6          -0.019152019   -0.001280534    0.000000613
     19        6           0.028129856    0.005139469    0.000000173
     20        1           0.001967647    0.000363931    0.000000049
     21        1          -0.000859382   -0.002242334   -0.000000327
     22        1           0.000883621   -0.000083682    0.000000016
     23        6           0.005852609    0.003556621    0.000000952
     24        8          -0.003013961    0.009695812   -0.000000856
     25        1           0.019321023    0.034884586    0.000000928
 -------------------------------------------------------------------
 Cartesian Forces:  Max     0.048221922 RMS     0.012297567
 Leave Link  716 at Wed Oct 28 00:44:24 2020, MaxMem=  7784628224 cpu:               0.5 elap:               0.1
 (Enter /gpfs/loomis/apps/avx/software/Gaussian/16-C.01_AVX/g16/l103.exe)

 GradGradGradGradGradGradGradGradGradGradGradGradGradGradGradGradGradGrad
 Berny optimization.
 FormGI is forming the generalized inverse of G from B-inverse, IUseBI=4.
 Internal  Forces:  Max     0.029299798 RMS     0.006419258
 Search for a local minimum.
 Step number   1 out of a maximum of  146
 All quantities printed in internal units (Hartrees-Bohrs-Radians)
 RMS Force = .64669D-02 SwitMx=.10000D-02 MixMth= 1
 Mixed Optimization -- RFO/linear search
 Second derivative matrix not updated -- first step.
 ITU=  0
     Eigenvalues ---    0.01408   0.01555   0.01584   0.01747   0.01803
     Eigenvalues ---    0.01872   0.01892   0.01893   0.01922   0.01945
     Eigenvalues ---    0.01968   0.01989   0.02019   0.02020   0.02032
     Eigenvalues ---    0.02041   0.02060   0.02060   0.02069   0.02102
     Eigenvalues ---    0.02123   0.02160   0.16000   0.16000   0.16000
     Eigenvalues ---    0.16000   0.16000   0.16000   0.16000   0.16003
     Eigenvalues ---    0.16919   0.22006   0.22010   0.22530   0.22584
     Eigenvalues ---    0.24380   0.24475   0.24588   0.25000   0.25000
     Eigenvalues ---    0.28890   0.30249   0.32384   0.34244   0.34249
     Eigenvalues ---    0.34284   0.34323   0.34377   0.34401   0.34457
     Eigenvalues ---    0.34496   0.34824   0.38113   0.39469   0.41266
     Eigenvalues ---    0.42572   0.42824   0.43173   0.43261   0.44569
     Eigenvalues ---    0.44861   0.45796   0.46106   0.46221   0.46574
     Eigenvalues ---    0.50283   0.725891000.000001000.000001000.00000
     Eigenvalues --- 1000.000001000.000001000.000001000.000001000.00000
     Eigenvalues --- 1000.000001000.000001000.000001000.000001000.00000
     Eigenvalues --- 1000.000001000.000001000.000001000.000001000.00000
     Eigenvalues --- 1000.000001000.000001000.000001000.000001000.00000
     Eigenvalues --- 1000.000001000.000001000.000001000.000001000.00000
     Eigenvalues --- 1000.000001000.000001000.000001000.000001000.00000
     Eigenvalues --- 1000.000001000.000001000.000001000.000001000.00000
     Eigenvalues --- 1000.000001000.000001000.000001000.000001000.00000
     Eigenvalues --- 1000.000001000.000001000.000001000.000001000.00000
     Eigenvalues --- 1000.000001000.000001000.000001000.000001000.00000
     Eigenvalues --- 1000.000001000.000001000.000001000.000001000.00000
     Eigenvalues --- 1000.000001000.000001000.000001000.000001000.00000
     Eigenvalues --- 1000.000001000.000001000.000001000.000001000.00000
     Eigenvalues --- 1000.00000
 RFO step:  Lambda=-1.76888367D-02 EMin= 1.40788536D-02
 Linear search not attempted -- first point.
 Iteration  1 RMS(Cart)=  0.03272503 RMS(Int)=  0.00155376
 Iteration  2 RMS(Cart)=  0.00202106 RMS(Int)=  0.00145322
 Iteration  3 RMS(Cart)=  0.00000521 RMS(Int)=  0.00143453
 Iteration  4 RMS(Cart)=  0.00000016 RMS(Int)=  0.00143434
 Iteration  1 RMS(Cart)=  0.00002705 RMS(Int)=  0.00002278
 Iteration  2 RMS(Cart)=  0.00000043 RMS(Int)=  0.00001535
 ITry= 1 IFail=0 DXMaxC= 2.17D-01 DCOld= 1.00D+10 DXMaxT= 3.00D-01 DXLimC= 3.00D+00 Rises=F
 Variable       Old X    -DE/DX   Delta X   Delta X   Delta X     New X
                                 (Linear)    (Quad)   (Total)
    R1        2.63678  -0.00495   0.00000  -0.00890  -0.00828   2.62850
    R2        2.63424  -0.00382   0.00000  -0.00667  -0.00659   2.62765
    R3        2.06912  -0.00322   0.00000  -0.00875  -0.00868   2.06044
    R4        2.69393  -0.02170   0.00000  -0.04527  -0.04287   2.65106
    R5        3.29659   0.00470   0.00000   0.01318   0.01216   3.30875
    R6        2.66278  -0.00914   0.00000  -0.02112  -0.02120   2.64159
    R7        2.61059   0.00593   0.00000   0.01163   0.01235   2.62294
    R8        2.64138  -0.00600   0.00000  -0.01340  -0.01374   2.62764
    R9        2.06920  -0.00314   0.00000  -0.00877  -0.00879   2.06040
   R10        2.65526  -0.00548   0.00000  -0.00936  -0.00877   2.64649
   R11        2.06699  -0.00194   0.00000  -0.00534  -0.00533   2.06166
   R12        2.06566  -0.00203   0.00000  -0.00558  -0.00556   2.06010
   R13        2.57475  -0.01494   0.00000  -0.03079  -0.03203   2.54271
   R14        1.97980   0.02549   0.00000   0.07771   0.08384   2.06363
   R15        3.28263  -0.00345   0.00000  -0.00007   0.00260   3.28523
   R16        2.63873   0.01175   0.00000   0.02772   0.02875   2.66747
   R17        2.78300  -0.01014   0.00000  -0.02129  -0.01977   2.76323
   R18        2.67367   0.00717   0.00000   0.01262   0.01128   2.68495
   R19        2.66546  -0.02927   0.00000  -0.06761  -0.06898   2.59648
   R20        2.06853  -0.00121   0.00000  -0.00331  -0.00329   2.06524
   R21        2.69503   0.00216   0.00000   0.00088  -0.00085   2.69418
   R22        2.41175  -0.00466   0.00000  -0.00281  -0.00042   2.41133
   R23        2.65351   0.00285   0.00000   0.00679   0.00757   2.66108
   R24        2.06659  -0.00193   0.00000  -0.00542  -0.00545   2.06114
   R25        2.65152  -0.01861   0.00000  -0.04296  -0.04394   2.60758
   R26        2.06788  -0.00244   0.00000  -0.00671  -0.00670   2.06119
   R27        2.06500  -0.00060   0.00000  -0.00183  -0.00189   2.06311
    A1        2.06173  -0.00009   0.00000  -0.00160  -0.00216   2.05958
    A2        2.10197   0.00001   0.00000   0.00143   0.00183   2.10380
    A3        2.11948   0.00008   0.00000   0.00017   0.00033   2.11981
    A4        2.14905  -0.00269   0.00000  -0.01196  -0.01169   2.13735
    A5        2.18885   0.00738   0.00000   0.03141   0.03193   2.22078
    A6        1.94529  -0.00469   0.00000  -0.01945  -0.02024   1.92505
    A7        2.05362   0.00740   0.00000   0.02434   0.02380   2.07741
    A8        1.96888  -0.00322   0.00000  -0.00560  -0.00371   1.96517
    A9        2.26069  -0.00419   0.00000  -0.01875  -0.02009   2.24060
   A10        2.07770  -0.00149   0.00000  -0.00591  -0.00553   2.07217
   A11        2.09820   0.00072   0.00000   0.00224   0.00196   2.10016
   A12        2.10729   0.00077   0.00000   0.00367   0.00357   2.11086
   A13        2.13363  -0.00348   0.00000  -0.01095  -0.01063   2.12299
   A14        2.07071   0.00145   0.00000   0.00365   0.00347   2.07418
   A15        2.07885   0.00202   0.00000   0.00730   0.00716   2.08601
   A16        2.09065   0.00035   0.00000   0.00608   0.00622   2.09687
   A17        2.09524  -0.00010   0.00000  -0.00245  -0.00251   2.09273
   A18        2.09730  -0.00025   0.00000  -0.00363  -0.00371   2.09359
   A19        1.95012   0.01521   0.00000   0.04670   0.04434   1.99446
   A20        2.53588  -0.02930   0.00000  -0.13300  -0.12893   2.40696
   A21        1.79718   0.01409   0.00000   0.08629   0.08459   1.88177
   A22        1.55239   0.00840   0.00000   0.03067   0.02958   1.58197
   A23        2.10194   0.00141   0.00000   0.00702   0.00670   2.10864
   A24        2.13639  -0.00581   0.00000  -0.02499  -0.02566   2.11073
   A25        2.04485   0.00440   0.00000   0.01797   0.01896   2.06382
   A26        2.09227   0.00433   0.00000   0.01712   0.01683   2.10911
   A27        2.10364  -0.00075   0.00000  -0.00021   0.00000   2.10364
   A28        2.08727  -0.00358   0.00000  -0.01692  -0.01683   2.07044
   A29        2.05165  -0.00894   0.00000  -0.02931  -0.02896   2.02269
   A30        2.06201   0.01363   0.00000   0.05906   0.06123   2.12324
   A31        2.16953  -0.00469   0.00000  -0.02975  -0.03227   2.13726
   A32        2.10964  -0.00629   0.00000  -0.02951  -0.02942   2.08022
   A33        2.07964   0.00291   0.00000   0.01342   0.01338   2.09302
   A34        2.09390   0.00338   0.00000   0.01609   0.01605   2.10995
   A35        2.10763   0.00303   0.00000   0.00980   0.00950   2.11713
   A36        2.05222  -0.00114   0.00000  -0.00326  -0.00319   2.04903
   A37        2.12334  -0.00189   0.00000  -0.00654  -0.00631   2.11703
   A38        2.10325   0.00647   0.00000   0.02487   0.02535   2.12860
   A39        2.08806  -0.00294   0.00000  -0.01003  -0.01015   2.07791
   A40        2.09188  -0.00352   0.00000  -0.01483  -0.01521   2.07668
   A41        2.00810  -0.01571   0.00000  -0.05233  -0.04998   1.95813
   A42        2.15437   0.00636   0.00000   0.01847   0.01701   2.17137
   A43        2.12071   0.00935   0.00000   0.03385   0.03297   2.15368
    D1       -0.00000   0.00000   0.00000   0.00000   0.00000  -0.00000
    D2        3.14159  -0.00000   0.00000  -0.00000  -0.00000   3.14159
    D3        3.14159   0.00000   0.00000   0.00000   0.00000   3.14159
    D4       -0.00000  -0.00000   0.00000  -0.00000  -0.00000  -0.00000
    D5       -0.00000  -0.00000   0.00000  -0.00000  -0.00000  -0.00000
    D6        3.14159  -0.00000   0.00000  -0.00000  -0.00000   3.14159
    D7        3.14159  -0.00000   0.00000  -0.00000  -0.00000   3.14159
    D8       -0.00000  -0.00000   0.00000  -0.00000  -0.00000  -0.00000
    D9        0.00000   0.00000   0.00000   0.00000  -0.00000   0.00000
   D10       -3.14159  -0.00000   0.00000  -0.00000  -0.00000   3.14159
   D11       -3.14159   0.00000   0.00000   0.00000   0.00000  -3.14159
   D12        0.00000   0.00000   0.00000  -0.00000  -0.00000  -0.00000
   D13        3.14159   0.00000   0.00000   0.00000   0.00000   3.14159
   D14       -0.00001  -0.00000   0.00000   0.00000   0.00000  -0.00000
   D15       -0.00000  -0.00000   0.00000  -0.00000  -0.00000  -0.00000
   D16        3.14159  -0.00000   0.00000  -0.00000  -0.00000   3.14159
   D17        3.14159   0.00000   0.00000   0.00000   0.00000  -3.14159
   D18        0.00000   0.00000   0.00000   0.00000   0.00000   0.00000
   D19        0.00001   0.00000   0.00000  -0.00000  -0.00000   0.00000
   D20        3.14152   0.00000   0.00000   0.00002   0.00002   3.14154
   D21       -3.14159  -0.00000   0.00000  -0.00000  -0.00000   3.14159
   D22       -0.00008   0.00000   0.00000   0.00002   0.00002  -0.00006
   D23        0.00000   0.00000   0.00000   0.00000   0.00000   0.00000
   D24       -3.14159   0.00000   0.00000   0.00000   0.00000  -3.14159
   D25        3.14159   0.00000   0.00000   0.00000   0.00000  -3.14159
   D26        0.00000  -0.00000   0.00000  -0.00000  -0.00000   0.00000
   D27        0.00000   0.00000   0.00000  -0.00000  -0.00000   0.00000
   D28       -3.14159  -0.00000   0.00000  -0.00000  -0.00000  -3.14159
[...]
 .00052726,-0.00071870,-0.00000002,-0.00099557,0.00131138,-0.00000002,0
 .00013470,-0.00154786,0.00000003,0.00049138,0.00016440,0.,0.00001055,0
 .00081229,0.,-0.00092503,-0.00003809,0.,0.00002306,0.00002710,0.,0.000
 02956,-0.00003967,0.,-0.00006721,0.00005902,0.,-0.00003556,0.00003047,
 0.,-0.00696001,-0.00036841,-0.00000007,0.00092080,0.00186611,0.0000001
 7,-0.05356583,0.01966967,-0.00000037,-0.27356753,0.18401840,-0.0000008
 6,-0.00228529,0.01818541,0.00000032,0.78683252,-0.00113661,0.00207880,
 0.,0.00223557,-0.00126979,0.00000002,0.00074354,0.00165469,0.00000016,
 -0.00162724,0.00043675,0.00000003,-0.00013448,-0.00235168,0.,0.0024578
 8,0.00015485,-0.00000002,-0.00012928,-0.00003454,0.,0.00007678,0.00006
 755,0.,0.00015185,-0.00010075,0.,0.00012378,-0.00006556,0.,0.01333814,
 0.00813186,-0.00000025,-0.00416601,-0.00448633,-0.00000031,0.05995504,
 0.01395350,0.00000039,0.12152289,-0.27718773,-0.00000053,0.03255125,-0
 .04648338,0.00000054,-0.03244263,0.66654413,0.,0.00000002,0.00008120,0
 .00000002,0.00000001,0.00062882,-0.00000001,-0.00000002,-0.00050952,0.
 ,0.00000001,-0.00014463,0.,-0.00000002,0.00005205,0.00000002,0.,-0.000
 03039,0.,0.,0.00000651,0.,0.,0.00001181,0.,0.,0.00001794,0.,0.,-0.0000
 3572,0.,0.00000010,-0.00006113,-0.00000007,-0.00000005,-0.00114228,0.0
 0000025,0.00000034,0.00967133,-0.00000187,0.00000035,-0.05993477,0.000
 00033,-0.00000022,-0.00602760,0.00000699,0.00000270,0.12027798,0.00031
 359,-0.00003567,0.,-0.00069077,0.00039868,0.,0.00030836,-0.00019821,0.
 ,0.00006305,0.00004119,0.,0.00005847,0.00010071,0.,-0.00012518,-0.0000
 8522,0.,-0.00001579,-0.00000922,0.,0.00003888,-0.00000046,0.,0.0000078
 2,0.00000058,0.,0.00002893,-0.00000953,0.,0.00011578,0.00047728,0.,-0.
 00251184,0.00315670,0.00000004,-0.00329514,-0.02746859,-0.00000038,-0.
 08028545,-0.07589344,-0.00000110,-0.00499508,0.00261184,0.00000004,0.0
 1051694,0.02215595,0.00000028,0.08204761,0.00013421,-0.00002433,0.,-0.
 00019245,0.00083984,0.00000002,0.00048367,-0.00044928,0.,0.00006048,0.
 00013152,0.,0.00002249,0.00011374,0.,-0.00014317,-0.00003245,0.,-0.000
 02254,0.00001207,0.,0.00004335,-0.00000616,0.,-0.00000375,0.00000772,0
 .,0.00001273,0.00000111,0.,-0.00124478,0.00024245,0.00000003,0.0018575
 3,-0.00134841,-0.00000002,0.00009910,-0.00346596,-0.00000006,-0.072577
 92,-0.31673790,-0.00000388,-0.00006285,0.00251169,0.00000006,-0.010886
 18,-0.01656983,-0.00000040,0.07654032,0.33819197,0.,0.,-0.00001962,-0.
 00000002,0.,-0.00076158,0.00000002,0.,0.00012060,0.,0.,0.00008727,0.,0
 .,-0.00002281,0.,0.,0.00003505,0.,0.,-0.00001424,0.,0.,-0.00002201,0.,
 0.,-0.00000226,0.,0.,0.00002293,-0.00000003,0.00000001,-0.00018067,0.0
 0000003,0.00000004,0.00171695,-0.00000035,-0.00000044,0.00247494,-0.00
 000076,-0.00000416,-0.03718539,-0.00000014,0.00000010,0.00482645,-0.00
 000024,0.00000037,0.00613595,0.00000131,0.00000433,0.02370302,-0.00031
 656,0.00115657,0.,0.00100417,-0.00034377,-0.00000001,0.00235954,0.0006
 8812,0.00000010,-0.00100297,0.00020097,0.00000002,-0.00005574,-0.00129
 829,0.,0.00126174,0.00011177,0.,-0.00009127,0.00004120,0.,0.00012216,0
 .00001274,0.,0.00006280,-0.00004202,0.,0.00006370,-0.00001317,0.,0.007
 01250,0.01117758,-0.00000005,-0.00166392,-0.00156529,-0.00000015,0.047
 57308,0.01031289,-0.00000013,-0.05227406,0.01953303,-0.00000032,-0.152
 80301,0.05428777,-0.00000075,0.00313023,-0.07610539,-0.00000080,-0.000
 25526,0.00034799,0.00000021,0.73401207,0.00071393,-0.00065012,0.,-0.00
 136475,0.00011027,0.,-0.00025610,-0.00032732,-0.00000004,0.00063165,-0
 .00014062,-0.00000001,0.00010241,0.00085995,0.,-0.00087686,-0.00016250
 ,0.,0.00001302,0.00002948,0.,-0.00000243,-0.00001801,0.,-0.00003506,0.
 00003246,0.,-0.00000336,0.00000701,0.,-0.00402910,-0.00133782,0.000000
 15,0.00230854,0.00052381,0.00000011,0.00736633,-0.02443001,-0.00000004
 ,0.01174801,-0.00528284,0.,0.08295063,-0.21683425,-0.00000012,-0.03700
 537,0.00381940,-0.00000046,0.00001298,0.00050207,-0.00000012,0.0828255
 5,0.70531457,0.,0.00000002,-0.00012150,0.,-0.00000001,-0.00025738,0.00
 000006,0.00000011,-0.00110056,0.00000001,0.,0.00003756,0.,0.,0.0000433
 2,0.,0.,0.00004673,0.,0.,-0.00006099,0.,0.,-0.00003932,0.,0.,-0.000007
 04,0.,0.,0.00003765,-0.00000007,0.00000009,0.00199107,0.00000002,0.,-0
 .00088739,0.00000057,-0.00000048,0.00995735,-0.00000030,0.00000017,-0.
 00132493,-0.00000084,0.00000048,-0.07549314,-0.00000047,-0.00000071,0.
 00755279,-0.00000002,-0.00000001,-0.00034444,0.00001435,0.00000798,0.1
 2008924,0.00078114,-0.00134950,0.,-0.00167328,0.00078509,0.,-0.0009024
 1,-0.00077609,-0.00000009,0.00117154,-0.00025912,-0.00000002,0.0000828
 9,0.00160151,0.,-0.00163164,-0.00015782,0.00000001,0.00007827,0.000019
 65,0.,-0.00005976,-0.00004357,0.,-0.00009506,0.00006836,0.,-0.00007185
 ,0.00003690,0.,-0.00800732,-0.00509154,0.00000022,0.00265134,0.0023982
 5,0.00000018,-0.03467700,0.00039399,-0.00000014,0.05241950,0.00389525,
 0.00000049,-0.05568920,0.03046297,-0.00000109,-0.14012341,-0.01680839,
 -0.00000069,-0.00305662,0.00442251,-0.00000026,-0.40427889,-0.10548066
 ,-0.00000780,0.76520043,0.00064665,-0.00117238,0.,-0.00120273,0.000796
 52,-0.00000001,-0.00060977,-0.00159506,-0.00000005,0.00078766,-0.00009
 129,-0.00000001,0.00007158,0.00127023,0.,-0.00138399,-0.00007017,0.000
 00001,0.00007559,0.00000068,0.,-0.00005236,-0.00003190,0.,-0.00008569,
 0.00006102,0.,-0.00006032,0.00003211,0.,-0.00992709,-0.00621012,0.0000
 0004,0.00248524,0.00202578,0.00000021,-0.04006027,-0.00836209,-0.00000
 013,0.05211528,-0.05544489,0.00000004,-0.00573433,0.05472774,0.0000003
 4,-0.08422620,-0.27984865,-0.00000154,0.00292800,-0.00171345,-0.000000
 23,-0.04231946,-0.15379575,-0.00000233,-0.02207924,0.67273916,0.000000
 02,-0.00000003,-0.00000115,-0.00000005,0.00000003,0.00014145,0.,-0.000
 00002,0.00037096,0.00000002,0.,0.00000131,0.,0.00000003,-0.00003017,-0
 .00000003,0.,0.00000072,0.,0.,0.00000830,0.,0.,0.00002881,0.,0.,-0.000
 00368,0.,0.,-0.00001177,-0.00000017,0.00000002,-0.00031748,0.00000004,
 0.,-0.00016194,-0.00000073,-0.00000001,-0.00446833,0.00000102,-0.00000
 050,0.00704864,-0.00000108,0.00000093,-0.00027714,-0.00000126,-0.00000
 086,-0.06364463,-0.00000009,-0.00000006,0.00846343,-0.00000652,-0.0000
 0266,-0.05820561,0.00000998,0.00000276,0.14552075,0.00000944,-0.000078
 57,0.,-0.00002061,0.00013165,0.,-0.00003129,-0.00015514,0.,0.00004599,
 0.00003134,0.,-0.00001244,0.00006808,0.,-0.00008218,0.00001040,0.,0.00
 000587,0.00000450,0.,0.00000051,-0.00000509,0.,-0.00000981,0.00000835,
 0.,-0.00000956,0.00000612,0.,-0.00048298,0.00040905,0.00000003,0.00005
 116,0.00008721,0.,-0.00030134,0.00395112,-0.00000004,-0.01551698,-0.00
 894092,-0.00000023,0.00052545,0.00019180,0.00000003,-0.33296045,-0.065
 66018,-0.00000384,0.00077728,0.00012440,0.00000006,0.00144972,-0.00127
 394,-0.00000003,-0.00389289,0.00246765,-0.00000006,0.35060798,0.000001
 81,0.00002205,0.,0.00001215,-0.00006409,0.,0.00008237,0.00010083,0.,-0
 .00001254,-0.00004051,0.,0.00001172,-0.00001463,0.,0.00002074,-0.00000
 438,0.,-0.00000040,-0.00000206,0.,0.00000061,0.00000107,0.,0.00000298,
 -0.00000449,0.,0.00000242,-0.00000107,0.,0.00032839,-0.00021940,0.,0.0
 0001340,0.00003983,0.,0.00240791,-0.00303282,-0.00000005,0.02378177,0.
 00874879,0.00000028,0.00063125,-0.00142515,0.,-0.06695618,-0.07290687,
 -0.00000084,-0.00016076,0.00094736,0.00000004,-0.00001841,-0.00519362,
 -0.00000004,-0.02973343,-0.00196133,-0.00000038,0.07005809,0.07314473,
 0.,0.,0.00000477,0.00000002,0.,-0.00007469,-0.00000002,0.,-0.00033062,
 0.,0.,-0.00002506,0.,0.,0.00003488,0.,0.,-0.00000754,0.,0.,0.00000040,
 0.,0.,-0.00001575,0.,0.,0.00000782,0.,0.,0.00000511,0.00000006,0.00000
 004,-0.00052144,0.,0.,0.00021588,-0.00000005,-0.00000020,0.00808650,0.
 00000008,-0.00000015,0.00170858,0.00000002,0.00000012,-0.00071526,-0.0
 0000394,-0.00000081,-0.03133418,0.00000005,0.00000008,-0.00537526,-0.0
 0000005,-0.00000005,0.00464819,-0.00000020,-0.00000003,0.00059546,0.00
 000413,0.00000101,0.02397830,-0.00006916,0.00000391,0.,0.00008584,0.00
 009244,0.,-0.00006112,-0.00001326,0.,-0.00001639,0.00000801,0.,-0.0000
 0925,-0.00002716,0.,0.00002966,0.00001567,0.,0.00000178,-0.00000497,0.
 ,-0.00000423,0.00000064,0.,0.00000070,-0.00000102,0.,-0.00000433,-0.00
 000050,0.,0.00034494,-0.00027932,0.,-0.00031344,0.00014944,0.,-0.00274
 583,0.00254751,-0.00000012,-0.00140972,0.00031631,0.00000001,0.0093177
 6,0.02231531,0.00000040,-0.00472528,-0.00018574,-0.00000028,0.00012524
 ,-0.00008198,0.00000002,-0.07661576,-0.07439096,-0.00000207,-0.0031193
 1,-0.02969953,-0.00000045,-0.00032761,-0.00139847,0.,0.07641846,0.0000
 2852,0.00009968,0.,-0.00006988,-0.00016452,0.,0.00005383,0.00015168,0.
 ,-0.00004954,-0.00000814,0.,0.00001318,-0.00007677,0.,0.00008378,-0.00
 001760,0.,-0.00000772,0.00000254,0.,0.00000540,0.00000497,0.,0.0000106
 0,-0.00000617,0.,0.00001323,-0.00000576,0.,0.00028507,0.00027995,-0.00
 000002,0.00016800,-0.00039077,-0.00000001,0.00402677,-0.00228908,-0.00
 000005,0.00096484,0.00047258,0.00000002,-0.01222195,-0.01660339,-0.000
 00062,-0.00101978,0.00209158,-0.00000012,-0.00004979,-0.00010222,0.,-0
 .07409916,-0.32600410,-0.00000520,0.00203209,-0.00282991,-0.00000004,0
 .00004193,-0.00023538,-0.00000001,0.08130553,0.34227117,0.,0.,0.000035
 78,0.,0.,0.00000567,0.,0.,-0.00003751,0.,0.,0.00000079,0.,0.,0.0000005
 8,0.,0.,-0.00000324,0.,0.,0.00000327,0.,0.,0.00000047,0.,0.,0.00000256
 ,0.,0.,-0.00000607,0.00000004,-0.00000003,-0.00002346,0.,0.00000003,0.
 00005086,-0.00000004,0.,0.00430765,-0.00000017,0.00000006,-0.00075491,
 0.00000020,0.,0.00449999,-0.00000018,-0.00000015,0.00882808,0.00000001
 ,0.,-0.00097305,-0.00000234,-0.00000545,-0.03440524,0.00000014,-0.0000
 0044,0.00292075,-0.00000001,-0.00000004,0.00049166,0.00000220,0.000005
 80,0.02440412,0.00003672,-0.00006988,0.,-0.00004066,0.00013873,0.,0.00
 011786,-0.00014590,0.,0.00004025,0.00000746,0.,-0.00000096,0.00007396,
 0.,-0.00008691,0.00000384,0.,0.00000327,0.00000342,0.,0.00000411,-0.00
 000496,0.,-0.00000915,0.00000617,0.,-0.00000657,0.00000542,0.,-0.00042
 218,0.00031072,0.00000002,0.00006549,0.00027454,0.,-0.00084358,0.00008
 464,0.00000003,0.00105715,-0.00225253,-0.00000007,-0.00310734,-0.00397
 936,-0.00000026,0.00877493,-0.00796564,0.00000003,0.00032169,-0.000413
 69,0.,-0.01577220,0.02448623,-0.00000019,-0.19646496,0.14074068,-0.000
 00128,0.00060241,0.00040037,0.00000004,0.00096006,-0.00027144,0.000000
 11,0.20582712,0.00002741,0.00002109,0.,-0.00009028,0.00003769,0.,0.000
 01787,0.00006090,0.,0.00000181,-0.00000168,0.,0.00001109,-0.00000650,0
 .,0.00000985,-0.00001314,0.,-0.00000585,-0.00000025,0.,0.00000436,0.00
 000178,0.,0.00000510,-0.00000230,0.,0.00000677,-0.00000383,0.,0.000147
 58,-0.00008113,0.,-0.00008661,-0.00000252,0.,-0.00083594,0.00051427,0.
 ,-0.00320681,-0.00526229,-0.00000007,-0.00262984,0.00013835,-0.0000001
 5,0.02334587,-0.01431292,0.00000019,0.00112390,-0.00110325,0.,-0.00791
 661,0.00846258,-0.00000013,0.14170695,-0.20443424,0.00000109,-0.000229
 34,0.00104206,0.00000001,0.00008951,0.00085074,0.00000005,-0.15166189,
 0.21351318,0.,0.,-0.00001239,0.,0.,-0.00008722,0.,-0.00000001,0.000161
 08,0.,0.,0.00000579,0.,0.,-0.00000776,0.,0.,-0.00000203,0.,0.,0.000006
 36,0.,0.,-0.00000111,0.,0.,0.00000035,0.,0.,0.00000537,0.00000001,0.00
 000002,-0.00026681,0.,0.,0.00032266,0.00000005,-0.00000006,-0.00115020
 ,0.00000001,-0.00000002,0.00491475,-0.00000033,-0.00000024,0.01095411,
 0.00000013,-0.00000015,0.00473567,0.,0.00000002,-0.00036248,-0.0000006
 1,0.00000034,0.00683984,-0.00000115,0.00000094,-0.04239495,0.00000004,
 0.00000002,-0.00261593,0.00000014,0.00000008,-0.00580446,0.00000161,-0
 .00000102,0.02690296,-0.00801375,-0.00073441,0.00000013,0.00343797,0.0
 1742015,0.00000032,-0.07140325,0.05179082,0.00000100,0.00854687,-0.003
 90433,-0.00000009,-0.00304148,0.00228629,0.00000003,0.00113555,-0.0030
 4090,0.,0.00007344,-0.00093109,0.,-0.00056169,-0.00004607,-0.00000002,
 0.00046578,-0.00023835,-0.00000002,-0.00060142,-0.00009959,0.,-0.37267
 714,-0.04395075,0.00000724,-0.06260577,-0.05230683,-0.00000097,-0.1855
 8060,0.09289414,0.00000230,-0.06330752,0.03293713,0.00000108,0.0493540
 5,0.02440249,0.00000190,0.00548484,-0.02864169,-0.00000017,0.00124409,
 0.00198825,0.00000007,-0.01297930,0.00376570,0.,0.01383805,0.01441908,
 0.00000026,-0.00033243,0.00083545,-0.00000012,0.00027078,-0.00147337,-
 0.00000001,0.00072884,-0.00000301,-0.00000004,0.74143749,0.00243873,-0
 .00279959,-0.00000011,0.02404793,-0.02654338,-0.00000047,0.01756645,0.
 01542994,-0.00000069,0.00703456,-0.01002876,-0.00000008,-0.00094118,0.
 00622479,0.,-0.00421880,-0.00375990,0.00000010,0.00018809,-0.00062281,
 0.,-0.00069034,-0.00000170,0.,0.00011061,-0.00039721,0.00000001,-0.000
 42400,0.00013272,0.00000002,-0.06113281,-0.15416646,0.00000160,-0.0086
 1976,-0.15836729,-0.00000056,0.09361800,-0.21780135,-0.00000392,0.0298
 5060,0.00716177,-0.00000002,0.00163435,-0.04205538,-0.00000179,-0.0131
 3699,0.02118492,-0.00000004,-0.00282451,-0.00113814,0.,0.00807823,-0.0
 1103921,-0.00000024,-0.01336884,-0.01357077,-0.00000021,-0.00117316,0.
 00081376,-0.00000001,0.00137400,-0.00031426,0.00000007,-0.00062749,0.0
 0013524,0.00000002,-0.06697898,0.57962052,0.00000024,-0.00000018,0.000
 01138,-0.00000039,0.00000039,0.00271202,0.00000079,-0.00000066,0.00336
 690,0.00000009,0.,0.00159627,0.00000005,0.00000018,0.00108517,-0.00000
 022,0.00000001,0.00103370,0.,0.,-0.00054517,0.,0.,-0.00039824,-0.00000
 002,0.,-0.00033755,0.,0.,-0.00008168,0.00000646,0.00000101,-0.06379696
 ,0.00000012,-0.00000109,-0.03590881,0.00000255,-0.00000381,-0.05604819
 ,0.00000079,0.00000024,-0.00537358,-0.00000026,-0.00000103,0.00394916,
 -0.00000040,0.00000061,0.00538438,0.,-0.00000006,-0.00237345,0.0000002
 9,-0.00000039,0.00394166,-0.00000044,-0.00000043,-0.00087652,-0.000000
 06,0.00000001,0.00157533,0.00000003,0.00000003,-0.00030220,0.,0.000000
 01,-0.00060479,-0.00001140,0.00000403,0.13941360,-0.00087797,0.0033221
 1,0.,0.00216120,0.00071171,0.,0.01127950,0.00068553,0.00000005,-0.0030
 1763,0.00083182,0.00000004,-0.00010956,-0.00363740,0.00000002,0.003404
 94,0.00063769,-0.00000003,-0.00025914,0.00023334,0.,0.00028811,0.00001
 682,0.,0.00007448,-0.00004730,0.,0.00012962,0.00002044,0.,0.01778625,0
 .05078577,0.,-0.00306879,-0.00408751,-0.00000037,-0.00527055,-0.065601
 24,-0.00000329,-0.01584372,0.00329975,0.00000004,-0.46227304,-0.088464
 05,-0.00001560,-0.00045355,-0.02347844,-0.00000022,-0.00106674,-0.0006
 8310,0.00000009,-0.08494605,0.00974754,-0.00000350,0.02003120,0.023302
 63,0.00000041,-0.00017147,-0.00034889,-0.00000003,0.00195475,0.0001890
 9,0.00000004,-0.00192027,0.00023327,0.00000013,-0.04602514,0.02664296,
 0.00000116,0.56132538,-0.00052042,-0.00056183,0.00000009,0.00038289,-0
 .00276484,0.00000006,-0.00953246,-0.00199191,-0.00000062,0.00012379,-0
 .00044863,0.00000002,0.00041295,0.00040071,0.00000002,-0.00014572,-0.0
 0018290,0.,0.00011901,-0.00025042,0.,0.00012054,0.00011902,-0.00000003
 ,0.00012559,-0.00012452,0.,0.00006914,-0.00007706,0.,0.01763393,-0.045
 67594,-0.00000114,-0.00007505,-0.00222661,-0.00000001,-0.05413408,-0.0
 1200179,-0.00000239,0.01089665,-0.00805826,-0.00000030,-0.10699081,-0.
 13120574,-0.00000579,-0.00373922,0.00799622,0.00000009,-0.00205837,-0.
 00063294,-0.00000001,0.03509369,0.02210892,0.00000135,-0.00176428,-0.0
 1160114,-0.00000010,-0.00009203,0.00054361,0.00000001,-0.00254474,0.00
 313312,0.00000010,0.00140303,0.00039824,-0.00000001,0.00625071,0.00405
 825,-0.00000021,0.12845584,0.16714283,-0.00000009,-0.00000004,-0.00026
 367,0.00000008,-0.00000028,-0.00006254,-0.00000102,-0.00000030,0.00232
 399,-0.00000005,-0.00000002,0.00002936,0.00000004,-0.00000003,-0.00010
 695,0.00000003,0.,0.00004814,0.00000001,-0.00000003,0.00002742,0.,0.00
 000002,0.00003532,0.00000002,-0.00000002,-0.00001326,0.00000001,-0.000
 00001,0.00000195,0.00000196,-0.00000428,0.00271322,-0.00000015,-0.0000
 0058,-0.00010214,-0.00000190,-0.00000137,0.01736544,-0.00000035,-0.000
 00013,0.00529076,-0.00001807,-0.00000707,-0.07040567,-0.00000002,-0.00
 000055,-0.00050092,-0.00000009,-0.00000003,0.00006134,-0.00000205,0.00
 000085,0.01584196,0.00000064,0.00000032,0.00486764,-0.00000001,0.,-0.0
 0051607,0.00000008,0.00000013,-0.00318988,0.00000004,0.00000004,-0.001
 36812,0.00000033,0.00000088,-0.00239089,0.00002350,0.00000750,0.044551
 90,0.00115484,-0.00034223,0.00000003,-0.00445933,0.00259307,0.00000002
 ,0.00774830,0.01139119,-0.00000056,0.00143114,-0.00024952,-0.00000003,
 -0.00006534,0.00067193,0.,-0.00070652,-0.00014596,0.,-0.00006585,0.000
 20831,0.,-0.00061597,-0.00029021,-0.00000001,-0.00001572,0.00001320,0.
 ,-0.00003644,-0.00004174,0.,-0.07918697,-0.04944863,0.00000145,-0.0032
 5678,-0.00332574,0.00000025,-0.00426916,0.00711699,-0.00000003,0.00251
 403,-0.00005736,-0.00000010,-0.02497869,0.00201025,0.00000026,-0.00021
 207,0.00316903,0.00000003,0.00033015,0.00017540,-0.00000001,0.00500329
 ,-0.00195393,0.00000027,-0.00251076,-0.00259905,-0.00000005,0.00007625
 ,0.00003763,0.00000001,-0.00008854,0.00004075,0.00000001,0.00013486,-0
 .00006518,-0.00000002,0.00111172,-0.03844766,0.00000062,0.00686817,-0.
 01949059,-0.00000296,0.09409539,-0.00021894,0.00226900,-0.00000004,0.0
 0283624,0.00471129,0.00000007,0.01564147,-0.00309302,0.00000010,-0.002
 44090,0.00206432,0.00000002,-0.00054931,-0.00274572,0.00000001,0.00181
 683,0.00105194,-0.00000003,-0.00021635,0.00039265,0.,0.00019764,-0.000
 28699,0.00000002,-0.00018677,0.00019033,0.,-0.00001827,0.00012086,0.,-
 0.04211569,-0.20931233,0.00000372,-0.00034301,0.00448755,-0.00000019,0
 .01378317,-0.02283846,-0.00000059,-0.01153979,-0.00039345,0.00000019,0
 .05303002,0.02474492,0.00000291,0.00263517,-0.01249622,-0.00000010,-0.
 00075436,-0.00017722,0.00000005,-0.02014651,0.00344567,-0.00000104,0.0
 0908897,0.01107992,0.00000002,0.00001669,-0.00029830,-0.00000001,0.000
 40935,-0.00030995,0.00000002,-0.00054646,0.00004791,0.00000008,-0.0466
 4084,0.00784429,0.00000132,-0.06276839,0.01190360,0.00000499,0.0890300
 3,0.17759741,0.,0.00000004,0.00097940,0.00000008,0.00000017,0.00163067
 ,0.00000055,-0.00000056,-0.00773721,-0.00000014,0.00000004,-0.00038845
 ,0.00000001,-0.00000007,0.00001521,0.00000003,0.00000005,-0.00013917,0
 .,0.00000001,0.00003270,-0.00000001,0.,-0.00011619,0.,0.,0.00003878,0.
 ,0.,-0.00001064,0.00000202,0.00000903,-0.02436720,-0.00000007,-0.00000
 019,0.00341208,0.00000056,-0.00000116,-0.00291268,-0.00000057,-0.00000
 009,-0.00085476,0.00000180,0.00000147,0.00060307,0.00000022,-0.0000004
 8,-0.00001871,-0.00000005,-0.00000001,-0.00001068,-0.00000117,-0.00000
 009,0.00122016,0.00000021,0.00000056,0.00042517,0.,-0.00000001,0.00017
 894,0.00000004,-0.00000002,-0.00005219,-0.00000006,0.,-0.00017069,-0.0
 0000184,0.00000142,0.00496847,-0.00000241,0.00000140,-0.01423833,0.000
 00081,-0.00001152,0.03751224\\-0.00140591,-0.00060968,0.00000014,-0.00
 101806,-0.00077236,0.00000053,-0.00113635,0.00027987,0.00000099,0.0008
 6669,-0.00133279,-0.00000035,-0.00028959,-0.00111959,0.00000006,-0.001
 42953,-0.00137388,0.00000017,-0.00013939,-0.00003665,-0.00000002,0.000
 09027,-0.00012405,0.,-0.00002371,-0.00020653,0.00000001,-0.00015947,-0
 .00013651,-0.00000006,0.00395746,-0.00088076,0.00000039,0.00014550,0.0
 0200207,-0.00000112,0.00207561,-0.00053175,0.00000057,-0.00075357,-0.0
 0073997,0.00000085,-0.00305948,-0.00009078,-0.00000184,0.00053645,-0.0
 0309304,0.00000013,0.00011867,-0.00011715,0.,-0.00044824,-0.00022635,-
 0.00000059,0.00004232,-0.00113468,-0.00000065,0.00002672,-0.00020477,-
 0.00000007,-0.00013154,0.00000682,0.00000017,-0.00004532,-0.00014730,0
 .00000015,0.00266808,0.00196585,0.00000067,0.00107368,0.00319162,0.000
 00475,-0.00156131,0.00543235,-0.00000486\\\@
 The archive entry for this job was punched.


 EXPERIENCE IS THE FRUIT OF THE TREE OF ERRORS.
 Job cpu time:       0 days  1 hours  0 minutes 17.8 seconds.
 Elapsed time:       0 days  0 hours  6 minutes  5.5 seconds.
 File lengths (MBytes):  RWF=    544 Int=      0 D2E=      0 Chk=     40 Scr=      8
 Normal termination of Gaussian 16 at Wed Oct 28 01:00:18 2020.
