 Entering Gaussian System, Link 0=g16
 Initial command:
 /gpfs/loomis/apps/avx/software/Gaussian/16-C.01_AVX/g16/l1.exe "/home/fas/batista/pev4/scratch60/gauss-scratch/Gau-201832.inp" -scrdir="/home/fas/batista/pev4/scratch60/gauss-scratch/"
 Entering Link 1 = /gpfs/loomis/apps/avx/software/Gaussian/16-C.01_AVX/g16/l1.exe PID=    201833.
  
 Copyright (c) 1988-2019, Gaussian, Inc.  All Rights Reserved.
  
 This is part of the Gaussian(R) 16 program.  It is based on
 the Gaussian(R) 09 system (copyright 2009, Gaussian, Inc.),
 the Gaussian(R) 03 system (copyright 2003, Gaussian, Inc.),
 the Gaussian(R) 98 system (copyright 1998, Gaussian, Inc.),
 the Gaussian(R) 94 system (copyright 1995, Gaussian, Inc.),
 the Gaussian 92(TM) system (copyright 1992, Gaussian, Inc.),
 the Gaussian 90(TM) system (copyright 1990, Gaussian, Inc.),
 the Gaussian 88(TM) system (copyright 1988, Gaussian, Inc.),
 the Gaussian 86(TM) system (copyright 1986, Carnegie Mellon
 University), and the Gaussian 82(TM) system (copyright 1983,
 Carnegie Mellon University). Gaussian is a federally registered
 trademark of Gaussian, Inc.
  
 This software contains proprietary and confidential information,
 including trade secrets, belonging to Gaussian, Inc.
  
 This software is provided under written license and may be
 used, copied, transmitted, or stored only in accord with that
 written license.
  
 The following legend is applicable only to US Government
 contracts under FAR:
  
                    RESTRICTED RIGHTS LEGEND
  
 Use, reproduction and disclosure by the US Government is
 subject to restrictions as set forth in subparagraphs (a)
 and (c) of the Commercial Computer Software - Restricted
 Rights clause in FAR 52.227-19.
  
 Gaussian, Inc.
 340 Quinnipiac St., Bldg. 40, Wallingford CT 06492
  
  
 ---------------------------------------------------------------
 Warning -- This program may not be used in any manner that
 competes with the business of Gaussian, Inc. or will provide
 assistance to any competitor of Gaussian, Inc.  The licensee
 of this program is prohibited from giving any competitor of
 Gaussian, Inc. access to this program.  By using this program,
 the user acknowledges that Gaussian, Inc. is engaged in the
 business of creating and licensing software in the field of
 computational chemistry and represents and warrants to the
 licensee that it is not a competitor of Gaussian, Inc. and that
 it will not use this program in any manner prohibited above.
 ---------------------------------------------------------------
  

 Cite this work as:
 Gaussian 16, Revision C.01,
 M. J. Frisch, G. W. Trucks, H. B. Schlegel, G. E. Scuseria, 
 M. A. Robb, J. R. Cheeseman, G. Scalmani, V. Barone, 
 G. A. Petersson, H. Nakatsuji, X. Li, M. Caricato, A. V. Marenich, 
 J. Bloino, B. G. Janesko, R. Gomperts, B. Mennucci, H. P. Hratchian, 
 J. V. Ortiz, A. F. Izmaylov, J. L. Sonnenberg, D. Williams-Young, 
 F. Ding, F. Lipparini, F. Egidi, J. Goings, B. Peng, A. Petrone, 
 T. Henderson, D. Ranasinghe, V. G. Zakrzewski, J. Gao, N. Rega, 
 G. Zheng, W. Liang, M. Hada, M. Ehara, K. Toyota, R. Fukuda, 
 J. Hasegawa, M. Ishida, T. Nakajima, Y. Honda, O. Kitao, H. Nakai, 
 T. Vreven, K. Throssell, J. A. Montgomery, Jr., J. E. Peralta, 
 F. Ogliaro, M. J. Bearpark, J. J. Heyd, E. N. Brothers, K. N. Kudin, 
 V. N. Staroverov, T. A. Keith, R. Kobayashi, J. Normand, 
 K. Raghavachari, A. P. Rendell, J. C. Burant, S. S. Iyengar, 
 J. Tomasi, M. Cossi, J. M. Millam, M. Klene, C. Adamo, R. Cammi, 
 J. W. Ochterski, R. L. Martin, K. Morokuma, O. Farkas, 
 J. B. Foresman, and D. J. Fox, Gaussian, Inc., Wallingford CT, 2019.
 
 ******************************************
 Gaussian 16:  ES64L-G16RevC.01  3-Jul-2019
                27-Oct-2020 
 ******************************************
 %chk=config_4_3.chk
 %mem=58GB
 %nprocshared=10
 Will use up to   10 processors via shared memory.
 ----------------------------------------------------------------------
 #p opt=addgic freq wb97xd/cc-pvdz nosymm int=ultrafine scrf=(solvent=C
 arbonTetraChloride)
 ----------------------------------------------------------------------
 1/18=20,19=15,26=6,38=1,145=903/1,3;
 2/9=110,12=2,15=1,17=6,18=5,40=1/2;
 3/5=16,11=2,25=1,30=1,70=2201,71=1,72=11,74=-58,75=-5/1,2,3;
 4//1;
 5/5=2,38=5,53=11/2;
 6/7=2,8=2,9=2,10=2,28=1/1;
 7/30=1/1,2,3,16;
 1/18=20,19=15,26=6,145=903/3(2);
 2/9=110,15=1/2;
 99//99;
 2/9=110,15=1/2;
 3/5=16,11=2,25=1,30=1,70=2205,71=1,72=11,74=-58,75=-5/1,2,3;
 4/5=5,16=3,69=1/1;
 5/5=2,38=5,53=11/2;
 7/30=1/1,2,3,16;
 1/18=20,19=15,26=6,145=903/3(-5);
 2/9=110,15=1/2;
 6/7=2,8=2,9=2,10=2,19=2,28=1/1;
 99/9=1/99;
 Leave Link    1 at Tue Oct 27 20:58:05 2020, MaxMem=  7784628224 cpu:               3.9 elap:               0.5
 (Enter /gpfs/loomis/apps/avx/software/Gaussian/16-C.01_AVX/g16/l101.exe)
 ------------------------------------------------
 NM 2D-scan of HBT TD-WB97XD pVDZ in CTC Relaxed.
 ------------------------------------------------
 Symbolic Z-matrix:
 Charge =  0 Multiplicity = 1
 C                     1.73314  -3.27419  -0.00002 
 C                     0.99691  -2.08916  -0.00002 
 C                     1.66165  -0.82538  -0.00002 
 C                     3.08153  -0.76686  -0.00002 
 C                     3.79409  -1.9494   -0.00002 
 C                     3.13056  -3.19574  -0.00002 
 H                     1.23506  -4.24702  -0.00003 
 H                     3.5729    0.20938  -0.00002 
 H                     4.88656  -1.92475  -0.00002 
 H                     3.71653  -4.11762  -0.00003 
 N                     0.863     0.23463  -0.00002 
 S                    -0.74884  -1.83093  -0.00002 
 C                    -1.40563   0.99906  0. 
 C                    -2.82197   0.88201  -0.00001 
 C                    -0.87749   2.38799   0.00003 
 C                    -3.64156   2.00896   0.00002 
 H                    -3.26979  -0.11437  -0.00004 
 C                    -1.73665   3.50093   0.00006 
 C                    -3.1145    3.32482   0.00006 
 H                    -4.72572   1.87215   0.00002 
 H                    -1.27463   4.49047   0.00009 
 H                    -3.78448   4.18612   0.00009 
 C                    -0.4622   -0.06008  -0.00001 
 O                     0.41428   2.60993   0.00003 
 H                     0.81096   1.82054   0.00001 
 
 Initializing the GIC definitions file.
 Number of initial coordinates =   131
 Number of input entries/lines =    52
 Number of additional coordinates =     2
 Number of removed coordinates =     0
 Number of frozen coordinates =     2
 Number of final active and frozen coordinates =   133
 ITRead=  0  0  0  0  0  0  0  0  0  0  0  0  0  0  0  0  0  0  0  0
 ITRead=  0  0  0  0  0
 MicOpt= -1 -1 -1 -1 -1 -1 -1 -1 -1 -1 -1 -1 -1 -1 -1 -1 -1 -1 -1 -1
 MicOpt= -1 -1 -1 -1 -1
 NAtoms=     25 NQM=       25 NQMF=       0 NMMI=      0 NMMIF=      0
                NMic=       0 NMicF=      0.
                    Isotopes and Nuclear Properties:
 (Nuclear quadrupole moments (NQMom) in fm**2, nuclear magnetic moments (NMagM)
  in nuclear magnetons)

  Atom         1           2           3           4           5           6           7           8           9          10
 IAtWgt=          12          12          12          12          12          12           1           1           1           1
 AtmWgt=  12.0000000  12.0000000  12.0000000  12.0000000  12.0000000  12.0000000   1.0078250   1.0078250   1.0078250   1.0078250
 NucSpn=           0           0           0           0           0           0           1           1           1           1
 AtZEff=  -0.0000000  -0.0000000  -0.0000000  -0.0000000  -0.0000000  -0.0000000  -0.0000000  -0.0000000  -0.0000000  -0.0000000
 NQMom=    0.0000000   0.0000000   0.0000000   0.0000000   0.0000000   0.0000000   0.0000000   0.0000000   0.0000000   0.0000000
 NMagM=    0.0000000   0.0000000   0.0000000   0.0000000   0.0000000   0.0000000   2.7928460   2.7928460   2.7928460   2.7928460
 AtZNuc=   6.0000000   6.0000000   6.0000000   6.0000000   6.0000000   6.0000000   1.0000000   1.0000000   1.0000000   1.0000000

  Atom        11          12          13          14          15          16          17          18          19          20
 IAtWgt=          14          32          12          12          12          12           1          12          12           1
 AtmWgt=  14.0030740  31.9720718  12.0000000  12.0000000  12.0000000  12.0000000   1.0078250  12.0000000  12.0000000   1.0078250
 NucSpn=           2           0           0           0           0           0           1           0           0           1
 AtZEff=  -0.0000000  -0.0000000  -0.0000000  -0.0000000  -0.0000000  -0.0000000  -0.0000000  -0.0000000  -0.0000000  -0.0000000
 NQMom=    2.0440000   0.0000000   0.0000000   0.0000000   0.0000000   0.0000000   0.0000000   0.0000000   0.0000000   0.0000000
 NMagM=    0.4037610   0.0000000   0.0000000   0.0000000   0.0000000   0.0000000   2.7928460   0.0000000   0.0000000   2.7928460
 AtZNuc=   7.0000000  16.0000000   6.0000000   6.0000000   6.0000000   6.0000000   1.0000000   6.0000000   6.0000000   1.0000000

  Atom        21          22          23          24          25
 IAtWgt=           1           1          12          16           1
 AtmWgt=   1.0078250   1.0078250  12.0000000  15.9949146   1.0078250
 NucSpn=           1           1           0           0           1
 AtZEff=  -0.0000000  -0.0000000  -0.0000000  -0.0000000  -0.0000000
 NQMom=    0.0000000   0.0000000   0.0000000   0.0000000   0.0000000
 NMagM=    2.7928460   2.7928460   0.0000000   0.0000000   2.7928460
 AtZNuc=   1.0000000   1.0000000   6.0000000   8.0000000   1.0000000
 Leave Link  101 at Tue Oct 27 20:58:09 2020, MaxMem=  7784628224 cpu:              32.6 elap:               3.9
 (Enter /gpfs/loomis/apps/avx/software/Gaussian/16-C.01_AVX/g16/l103.exe)

 GradGradGradGradGradGradGradGradGradGradGradGradGradGradGradGradGradGrad
 Berny optimization.
 Initialization pass.
                           ----------------------------
                           !    Initial Parameters    !
                           ! (Angstroms and Degrees)  !
 --------------------------                            --------------------------
 ! Name  Definition              Value          Derivative Info.                !
 --------------------------------------------------------------------------------
 ! R1    R(1,2)                  1.3951         estimate D2E/DX2                !
 ! R2    R(1,6)                  1.3996         estimate D2E/DX2                !
 ! R3    R(1,7)                  1.0929         estimate D2E/DX2                !
 ! R4    R(2,3)                  1.4279         estimate D2E/DX2                !
 ! R5    R(2,12)                 1.7647         estimate D2E/DX2                !
 ! R6    R(3,4)                  1.4211         estimate D2E/DX2                !
 ! R7    R(3,11)                 1.3272         estimate D2E/DX2                !
 ! R8    R(4,5)                  1.3806         estimate D2E/DX2                !
 ! R9    R(4,8)                  1.0929         estimate D2E/DX2                !
 ! R10   R(5,6)                  1.412          estimate D2E/DX2                !
 ! R11   R(5,9)                  1.0927         estimate D2E/DX2                !
 ! R12   R(6,10)                 1.0924         estimate D2E/DX2                !
 ! R13   R(11,23)                1.3576         estimate D2E/DX2                !
 ! R14   R(12,23)                1.7939         estimate D2E/DX2                !
 ! R15   R(13,14)                1.4212         estimate D2E/DX2                !
 ! R16   R(13,15)                1.486          estimate D2E/DX2                !
 ! R17   R(13,23)                1.4184         estimate D2E/DX2                !
 ! R18   R(14,16)                1.3935         estimate D2E/DX2                !
 ! R19   R(14,17)                1.0924         estimate D2E/DX2                !
 ! R20   R(15,18)                1.406          estimate D2E/DX2                !
 ! R21   R(15,24)                1.3107         estimate D2E/DX2                !
 ! R22   R(16,19)                1.4175         estimate D2E/DX2                !
 ! R23   R(16,20)                1.0928         estimate D2E/DX2                !
 ! R24   R(18,19)                1.3891         estimate D2E/DX2                !
 ! R25   R(18,21)                1.0921         estimate D2E/DX2                !
 ! R26   R(19,22)                1.0912         estimate D2E/DX2                !
 ! R27   R(24,25)                0.8835         estimate D2E/DX2                !
 ! A1    A(2,1,6)              118.6384         estimate D2E/DX2                !
 ! A2    A(2,1,7)              121.0365         estimate D2E/DX2                !
 ! A3    A(6,1,7)              120.325          estimate D2E/DX2                !
 ! A4    A(1,2,3)              120.4041         estimate D2E/DX2                !
 ! A5    A(1,2,12)             130.2659         estimate D2E/DX2                !
 ! A6    A(3,2,12)             109.33           estimate D2E/DX2                !
 ! A7    A(2,3,4)              120.1042         estimate D2E/DX2                !
 ! A8    A(2,3,11)             115.2599         estimate D2E/DX2                !
 ! A9    A(4,3,11)             124.6359         estimate D2E/DX2                !
 ! A10   A(3,4,5)              118.7117         estimate D2E/DX2                !
 ! A11   A(3,4,8)              119.0774         estimate D2E/DX2                !
 ! A12   A(5,4,8)              122.211          estimate D2E/DX2                !
 ! A13   A(4,5,6)              120.8984         estimate D2E/DX2                !
 ! A14   A(4,5,9)              119.7789         estimate D2E/DX2                !
 ! A15   A(6,5,9)              119.3227         estimate D2E/DX2                !
 ! A16   A(1,6,5)              121.2432         estimate D2E/DX2                !
 ! A17   A(1,6,10)             119.2277         estimate D2E/DX2                !
 ! A18   A(5,6,10)             119.5291         estimate D2E/DX2                !
 ! A19   A(3,11,23)            114.4579         estimate D2E/DX2                !
 ! A20   A(2,12,23)             89.2198         estimate D2E/DX2                !
 ! A21   A(14,13,15)           115.5433         estimate D2E/DX2                !
 ! A22   A(14,13,23)           126.9689         estimate D2E/DX2                !
 ! A23   A(15,13,23)           117.4878         estimate D2E/DX2                !
 ! A24   A(13,14,16)           121.3033         estimate D2E/DX2                !
 ! A25   A(13,14,17)           118.9255         estimate D2E/DX2                !
 ! A26   A(16,14,17)           119.7713         estimate D2E/DX2                !
 ! A27   A(13,15,18)           121.5136         estimate D2E/DX2                !
 ! A28   A(13,15,24)           120.5677         estimate D2E/DX2                !
 ! A29   A(18,15,24)           117.9187         estimate D2E/DX2                !
 ! A30   A(14,16,19)           122.1442         estimate D2E/DX2                !
 ! A31   A(14,16,20)           118.8355         estimate D2E/DX2                !
 ! A32   A(19,16,20)           119.0203         estimate D2E/DX2                !
 ! A33   A(15,18,19)           120.3836         estimate D2E/DX2                !
 ! A34   A(15,18,21)           117.3043         estimate D2E/DX2                !
 ! A35   A(19,18,21)           122.3121         estimate D2E/DX2                !
 ! A36   A(16,19,18)           119.112          estimate D2E/DX2                !
 ! A37   A(16,19,22)           120.2937         estimate D2E/DX2                !
 ! A38   A(18,19,22)           120.5943         estimate D2E/DX2                !
 ! A39   A(11,23,12)           111.7324         estimate D2E/DX2                !
 ! A40   A(11,23,13)           119.1551         estimate D2E/DX2                !
 ! A41   A(12,23,13)           129.1126         estimate D2E/DX2                !
 ! A42   A(15,24,25)           106.9316         estimate D2E/DX2                !
 ! D1    D(6,1,2,3)              0.0001         estimate D2E/DX2                !
 ! D2    D(6,1,2,12)          -179.9999         estimate D2E/DX2                !
 ! D3    D(7,1,2,3)            180.0            estimate D2E/DX2                !
 ! D4    D(7,1,2,12)             0.0            estimate D2E/DX2                !
 ! D5    D(2,1,6,5)              0.0            estimate D2E/DX2                !
 ! D6    D(2,1,6,10)           180.0            estimate D2E/DX2                !
 ! D7    D(7,1,6,5)           -179.9999         estimate D2E/DX2                !
 ! D8    D(7,1,6,10)             0.0001         estimate D2E/DX2                !
 ! D9    D(1,2,3,4)             -0.0001         estimate D2E/DX2                !
 ! D10   D(1,2,3,11)           179.9999         estimate D2E/DX2                !
 ! D11   D(12,2,3,4)           179.9999         estimate D2E/DX2                !
 ! D12   D(12,2,3,11)           -0.0001         estimate D2E/DX2                !
 ! D13   D(1,2,12,23)          180.0            estimate D2E/DX2                !
 ! D14   D(3,2,12,23)            0.0            estimate D2E/DX2                !
 ! D15   D(2,3,4,5)              0.0001         estimate D2E/DX2                !
 ! D16   D(2,3,4,8)           -180.0            estimate D2E/DX2                !
 ! D17   D(11,3,4,5)          -180.0            estimate D2E/DX2                !
 ! D18   D(11,3,4,8)             0.0            estimate D2E/DX2                !
 ! D19   D(2,3,11,23)            0.0002         estimate D2E/DX2                !
 ! D20   D(4,3,11,23)         -179.9998         estimate D2E/DX2                !
 ! D21   D(3,4,5,6)              0.0            estimate D2E/DX2                !
 ! D22   D(3,4,5,9)            180.0            estimate D2E/DX2                !
 ! D23   D(8,4,5,6)           -180.0            estimate D2E/DX2                !
 ! D24   D(8,4,5,9)              0.0            estimate D2E/DX2                !
 ! D25   D(4,5,6,1)              0.0            estimate D2E/DX2                !
 ! D26   D(4,5,6,10)           180.0            estimate D2E/DX2                !
 ! D27   D(9,5,6,1)            180.0            estimate D2E/DX2                !
 ! D28   D(9,5,6,10)             0.0            estimate D2E/DX2                !
 ! D29   D(3,11,23,12)          -0.0002         estimate D2E/DX2                !
 ! D30   D(3,11,23,13)         179.9995         estimate D2E/DX2                !
 ! D31   D(2,12,23,11)           0.0001         estimate D2E/DX2                !
 ! D32   D(2,12,23,13)        -179.9995         estimate D2E/DX2                !
 ! D33   D(15,13,14,16)         -0.0007         estimate D2E/DX2                !
 ! D34   D(15,13,14,17)        179.9995         estimate D2E/DX2                !
 ! D35   D(23,13,14,16)        179.9992         estimate D2E/DX2                !
 ! D36   D(23,13,14,17)         -0.0006         estimate D2E/DX2                !
 ! D37   D(14,13,15,18)          0.0008         estimate D2E/DX2                !
 ! D38   D(14,13,15,24)       -179.9993         estimate D2E/DX2                !
 ! D39   D(23,13,15,18)       -179.9991         estimate D2E/DX2                !
 ! D40   D(23,13,15,24)          0.0008         estimate D2E/DX2                !
 ! D41   D(14,13,23,11)        179.9992         estimate D2E/DX2                !
 ! D42   D(14,13,23,12)         -0.0012         estimate D2E/DX2                !
 ! D43   D(15,13,23,11)         -0.001          estimate D2E/DX2                !
 ! D44   D(15,13,23,12)        179.9987         estimate D2E/DX2                !
 ! D45   D(13,14,16,19)          0.0002         estimate D2E/DX2                !
 ! D46   D(13,14,16,20)       -179.9998         estimate D2E/DX2                !
 ! D47   D(17,14,16,19)        179.9999         estimate D2E/DX2                !
 ! D48   D(17,14,16,20)          0.0            estimate D2E/DX2                !
 ! D49   D(13,15,18,19)         -0.0003         estimate D2E/DX2                !
 ! D50   D(13,15,18,21)        179.9998         estimate D2E/DX2                !
 ! D51   D(24,15,18,19)        179.9998         estimate D2E/DX2                !
 ! D52   D(24,15,18,21)         -0.0001         estimate D2E/DX2                !
 ! D53   D(13,15,24,25)         -0.0004         estimate D2E/DX2                !
 ! D54   D(18,15,24,25)        179.9995         estimate D2E/DX2                !
 ! D55   D(14,16,19,18)          0.0003         estimate D2E/DX2                !
 ! D56   D(14,16,19,22)       -179.9998         estimate D2E/DX2                !
 ! D57   D(20,16,19,18)       -179.9997         estimate D2E/DX2                !
 ! D58   D(20,16,19,22)          0.0002         estimate D2E/DX2                !
 ! D59   D(15,18,19,16)         -0.0003         estimate D2E/DX2                !
 ! D60   D(15,18,19,22)        179.9999         estimate D2E/DX2                !
 ! D61   D(21,18,19,16)        179.9997         estimate D2E/DX2                !
 ! D62   D(21,18,19,22)         -0.0002         estimate D2E/DX2                !
 ! Qtot  GIC-1                 -20.0            Frozen                          !
 ! Ptot  GIC-2                 -100.0           Frozen                          !
 --------------------------------------------------------------------------------
 NOTE: GIC-type coordinates are in arbitrary units.
 Trust Radius=3.00D-01 FncErr=5.00D-06 GrdErr=5.00D-06 EigMax=2.50D+02 EigMin=1.00D-04
 Number of steps in this run=    143 maximum allowed number of steps=    150.
 GradGradGradGradGradGradGradGradGradGradGradGradGradGradGradGradGradGrad

 Leave Link  103 at Tue Oct 27 20:58:09 2020, MaxMem=  7784628224 cpu:               0.2 elap:               0.0
 (Enter /gpfs/loomis/apps/avx/software/Gaussian/16-C.01_AVX/g16/l202.exe)
                          Input orientation:                          
 ---------------------------------------------------------------------
 Center     Atomic      Atomic             Coordinates (Angstroms)
 Number     Number       Type             X           Y           Z
 ---------------------------------------------------------------------
      1          6           0        1.733137   -3.274190   -0.000024
      2          6           0        0.996909   -2.089163   -0.000021
      3          6           0        1.661654   -0.825379   -0.000019
      4          6           0        3.081532   -0.766861   -0.000019
      5          6           0        3.794088   -1.949399   -0.000022
      6          6           0        3.130563   -3.195737   -0.000025
      7          1           0        1.235063   -4.247020   -0.000025
      8          1           0        3.572902    0.209383   -0.000017
      9          1           0        4.886560   -1.924745   -0.000022
     10          1           0        3.716534   -4.117622   -0.000027
     11          7           0        0.862996    0.234633   -0.000017
     12         16           0       -0.748838   -1.830932   -0.000018
     13          6           0       -1.405630    0.999061   -0.000001
     14          6           0       -2.821966    0.882015   -0.000010
     15          6           0       -0.877494    2.387993    0.000030
     16          6           0       -3.641564    2.008960    0.000021
     17          1           0       -3.269786   -0.114371   -0.000041
     18          6           0       -1.736653    3.500927    0.000063
     19          6           0       -3.114503    3.324819    0.000062
     20          1           0       -4.725723    1.872153    0.000016
     21          1           0       -1.274626    4.490469    0.000088
     22          1           0       -3.784475    4.186121    0.000090
     23          6           0       -0.462202   -0.060079   -0.000013
     24          8           0        0.414276    2.609927    0.000028
     25          1           0        0.810955    1.820537    0.000013
 ---------------------------------------------------------------------
                    Distance matrix (angstroms):
                    1          2          3          4          5
     1  C    0.000000
     2  C    1.395106   0.000000
     3  C    2.449854   1.427949   0.000000
     4  C    2.846905   2.468631   1.421083   0.000000
     5  C    2.450018   2.800669   2.410538   1.380627   0.000000
     6  C    1.399627   2.403537   2.788600   2.429371   1.411958
     7  H    1.092921   2.170959   3.448131   3.939665   3.439139
     8  H    3.939544   3.452398   2.173384   1.092930   2.170083
     9  H    3.430025   3.893125   3.407143   2.144486   1.092750
    10  H    2.155283   3.392788   3.880902   3.410400   2.169610
    11  N    3.615104   2.327651   1.327207   2.434110   3.655310
    12  S    2.871097   1.764743   2.611822   3.975423   4.544471
    13  C    5.302125   3.912713   3.568867   4.822148   5.977498
    14  C    6.166279   4.838564   4.797712   6.129444   7.196462
    15  C    6.235039   4.853691   4.095490   5.062311   6.374688
    16  C    7.536517   6.189511   6.013119   7.273597   8.423629
    17  H    5.917237   4.701541   4.982433   6.384747   7.298331
    18  C    7.611942   6.222658   5.501401   6.436531   7.764995
    19  C    8.188195   6.798155   6.327386   7.425139   8.691720
    20  H    8.258433   6.959924   6.933633   8.241216   9.337636
    21  H    8.326857   6.960705   6.072888   6.827563   8.195349
    22  H    9.279024   7.889285   7.401044   8.466055   9.750857
    23  C    3.892303   2.499237   2.257532   3.613529   4.656773
    24  O    6.030110   4.735072   3.654761   4.303133   5.675436
    25  H    5.177515   3.914120   2.779309   3.442404   4.807442
                    6          7          8          9         10
     6  C    0.000000
     7  H    2.167514   0.000000
     8  H    3.433730   5.032397   0.000000
     9  H    2.167705   4.327400   2.506032   0.000000
    10  H    1.092353   2.484843   4.329388   2.485492   0.000000
    11  N    4.112092   4.497070   2.710023   4.566396   5.204306
    12  S    4.112475   3.126235   4.779155   5.636179   5.016823
    13  C    6.178461   5.873212   5.040771   6.938321   7.239960
    14  C    7.215307   6.539608   6.430145   8.203613   8.230939
    15  C    6.873323   6.963210   4.955035   7.198891   7.964178
    16  C    8.541111   7.932135   7.435523   9.391642   9.574791
    17  H    7.103470   6.113301   6.850343   8.354845   8.051999
    18  C    8.278593   8.298300   6.247051   8.561826   9.369074
    19  C    9.028760   8.732208   7.377488   9.569479  10.102129
    20  H    9.349051   8.542555   8.463568  10.335009  10.351286
    21  H    8.859088   9.090777   6.467319   8.894671   9.950422
    22  H   10.114820   9.813950   8.363339  10.607994  11.190053
    23  C    4.768681   4.517874   4.044091   5.664471   5.824560
    24  O    6.409676   6.905896   3.967308   6.369032   7.494319
    25  H    5.526625   6.082361   3.197525   5.535132   6.610910
                   11         12         13         14         15
    11  N    0.000000
    12  S    2.620032   0.000000
    13  C    2.393954   2.905208   0.000000
    14  C    3.741397   3.414372   1.421163   0.000000
    15  C    2.768803   4.220886   1.485955   2.459459   0.000000
    16  C    4.841415   4.807559   2.453425   1.393466   2.789937
    17  H    4.147493   3.049878   2.171361   1.092396   3.461920
    18  C    4.174549   5.422592   2.523670   2.834891   1.405979
    19  C    5.036839   5.672578   2.886070   2.460259   2.425252
    20  H    5.823681   5.434009   3.432974   2.145849   3.882648
    21  H    4.762517   6.343229   3.493865   3.926220   2.139653
    22  H    6.100266   6.739437   3.976966   3.441445   3.418157
    23  C    1.357573   1.793901   1.418391   2.540871   2.483047
    24  O    2.417307   4.590649   2.430422   3.668643   1.310697
    25  H    1.586758   3.970665   2.363911   3.752191   1.781255
                   16         17         18         19         20
    16  C    0.000000
    17  H    2.155633   0.000000
    18  C    2.419639   3.926943   0.000000
    19  C    1.417491   3.442695   1.389058   0.000000
    20  H    1.092756   2.462932   3.404034   2.169394   0.000000
    21  H    3.429327   5.018487   1.092090   2.178046   4.331934
    22  H    2.181847   4.331182   2.159413   1.091194   2.498078
    23  C    3.793319   2.808109   3.782194   4.300260   4.680933
    24  O    4.100122   4.581933   2.328171   3.600465   5.192678
    25  H    4.456505   4.516229   3.051888   4.203818   5.536919
                   21         22         23         24         25
    21  H    0.000000
    22  H    2.528235   0.000000
    23  C    4.622500   5.391448   0.000000
    24  O    2.527613   4.484852   2.810185   0.000000
    25  H    3.387947   5.168556   2.271045   0.883454   0.000000
 Symmetry turned off by external request.
 Stoichiometry    C13H9NOS
 Framework group  C1[X(C13H9NOS)]
 Deg. of freedom    69
 Full point group                 C1      NOp   1
 Rotational constants (GHZ):           1.3482189           0.2855200           0.2356212
 Leave Link  202 at Tue Oct 27 20:58:09 2020, MaxMem=  7784628224 cpu:               0.2 elap:               0.1
 (Enter /gpfs/loomis/apps/avx/software/Gaussian/16-C.01_AVX/g16/l301.exe)
 Standard basis: CC-pVDZ (5D, 7F)
 Ernie: Thresh=  0.10000D-02 Tol=  0.10000D-05 Strict=F.
 Ernie:  40 primitive shells out of 425 were deleted.
   273 basis functions,   629 primitive gaussians,   289 cartesian basis functions
    59 alpha electrons       59 beta electrons
       nuclear repulsion energy      1095.3052659860 Hartrees.
 IExCor= 4639 DFT=T Ex+Corr=wB97XD ExCW=0 ScaHFX=  1.000000
 ScaDFX=  1.000000  1.000000  1.000000  1.000000 ScalE2=  1.000000  1.000000
 IRadAn=      5 IRanWt=     -1 IRanGd=            0 ICorTp=0 IEmpDi=121
 HFx  wShort=  0.000000 wLong=  0.200000 cFull=  0.222036 cShort=  0.000000 cLong=  0.777964
 DFx  wShort=  0.000000 wLong=  0.200000 cFull=  0.000000 cShort=  0.000000 cLong=  1.000000
 NAtoms=   25 NActive=   25 NUniq=   25 SFac= 1.00D+00 NAtFMM=   60 NAOKFM=F Big=F
 Integral buffers will be    131072 words long.
 Raffenetti 2 integral format.
 Two-electron integral symmetry is turned off.
 R6Disp:  Grimme-D2 Dispersion energy=       -0.0140124474 Hartrees.
 Nuclear repulsion after empirical dispersion term =     1095.2912535386 Hartrees.
 ------------------------------------------------------------------------------
 Polarizable Continuum Model (PCM)
 =================================
 Model                : PCM.
 Atomic radii         : UFF (Universal Force Field).
 Polarization charges : Total charges.
 Charge compensation  : None.
 Solution method      : On-the-fly selection.
 Cavity type          : Scaled VdW (van der Waals Surface) (Alpha=1.100).
 Cavity algorithm     : GePol (No added spheres)
                        Default sphere list used, NSphG=   25.
                        Lebedev-Laikov grids with approx.  5.0 points / Ang**2.
                        Smoothing algorithm: York/Karplus (Gamma=1.0000).
                        Polarization charges: spherical gaussians, with
                                              point-specific exponents (IZeta= 3).
                        Self-potential: point-specific (ISelfS= 7).
                        Self-field    : sphere-specific E.n sum rule (ISelfD= 2).
 1st derivatives      : Analytical E(r).r(x)/FMM algorithm (CHGder, D1EAlg=3).
                        Cavity 1st derivative terms included.
 Solvent              : CarbonTetraChloride, Eps=   2.228000 Eps(inf)=   2.131892
 ------------------------------------------------------------------------------
 GePol: Number of generator spheres                  =      25
 GePol: Total number of spheres                      =      25
 GePol: Number of exposed spheres                    =      25 (100.00%)
 GePol: Number of points                             =    2203
 GePol: Average weight of points                     =       0.13
 GePol: Minimum weight of points                     =   0.11D-06
 GePol: Maximum weight of points                     =    0.20577
 GePol: Number of points with low weight             =     131
 GePol: Fraction of low-weight points (<1% of avg)   =       5.95%
 GePol: Cavity surface area                          =    275.526 Ang**2
 GePol: Cavity volume                                =    294.428 Ang**3
 Leave Link  301 at Tue Oct 27 20:58:09 2020, MaxMem=  7784628224 cpu:               0.6 elap:               0.1
 (Enter /gpfs/loomis/apps/avx/software/Gaussian/16-C.01_AVX/g16/l302.exe)
 NPDir=0 NMtPBC=     1 NCelOv=     1 NCel=       1 NClECP=     1 NCelD=      1
         NCelK=      1 NCelE2=     1 NClLst=     1 CellRange=     0.0.
 One-electron integrals computed using PRISM.
 NBasis=   273 RedAO= T EigKep=  3.18D-04  NBF=   273
 NBsUse=   273 1.00D-06 EigRej= -1.00D+00 NBFU=   273
 Precomputing XC quadrature grid using
 IXCGrd= 4 IRadAn=           5 IRanWt=          -1 IRanGd=           0 AccXCQ= 0.00D+00.
 Generated NRdTot=       0 NPtTot=           0 NUsed=           0 NTot=          32
 NSgBfM=   288   288   288   288   288 MxSgAt=    25 MxSgA2=    25.
 Leave Link  302 at Tue Oct 27 20:58:11 2020, MaxMem=  7784628224 cpu:               7.5 elap:               1.1
 (Enter /gpfs/loomis/apps/avx/software/Gaussian/16-C.01_AVX/g16/l303.exe)
 DipDrv:  MaxL=1.
 Leave Link  303 at Tue Oct 27 20:58:11 2020, MaxMem=  7784628224 cpu:               1.4 elap:               0.2
 (Enter /gpfs/loomis/apps/avx/software/Gaussian/16-C.01_AVX/g16/l401.exe)
 ExpMin= 1.22D-01 ExpMax= 1.11D+05 ExpMxC= 1.07D+03 IAcc=3 IRadAn=         5 AccDes= 0.00D+00
 Harris functional with IExCor= 4639 and IRadAn=       5 diagonalized for initial guess.
 HarFok:  IExCor= 4639 AccDes= 0.00D+00 IRadAn=         5 IDoV= 1 UseB2=F ITyADJ=14
 ICtDFT=  3500011 ScaDFX=  1.000000  1.000000  1.000000  1.000000
 FoFCou: FMM=F IPFlag=           0 FMFlag=      100000 FMFlg1=           0
         NFxFlg=           0 DoJE=T BraDBF=F KetDBF=T FulRan=T
         wScrn=  0.000000 ICntrl=       500 IOpCl=  0 I1Cent=   200000004 NGrid=           0
         NMat0=    1 NMatS0=      1 NMatT0=    0 NMatD0=    1 NMtDS0=    0 NMtDT0=    0
 Symmetry not used in FoFCou.
 Harris En= -994.429647296035    
 JPrj=0 DoOrth=F DoCkMO=F.
 Leave Link  401 at Tue Oct 27 20:58:13 2020, MaxMem=  7784628224 cpu:              14.3 elap:               1.6
 (Enter /gpfs/loomis/apps/avx/software/Gaussian/16-C.01_AVX/g16/l502.exe)
 Two-electron integral symmetry not used.
 Closed shell SCF:
 Using DIIS extrapolation, IDIIS=  1040.
 NGot=  7784628224 LenX=  7784455381 LenY=  7784371419
 Requested convergence on RMS density matrix=1.00D-08 within 128 cycles.
 Requested convergence on MAX density matrix=1.00D-06.
 Requested convergence on             energy=1.00D-06.
 No special actions if energy rises.
 Fock matrices will be formed incrementally for  20 cycles.

 Cycle   1  Pass 1  IDiag  1:
 FoFJK:  IHMeth= 1 ICntrl=       0 DoSepK=T KAlg= 0 I1Cent=           0 FoldK=F
 IRaf=         1 NMat=       1 IRICut=       1 DoRegI=T DoRafI=F ISym2E= 0 IDoP0=0 IntGTp=1.
 FoFCou: FMM=F IPFlag=           0 FMFlag=      100000 FMFlg1=           0
         NFxFlg=           0 DoJE=T BraDBF=F KetDBF=F FulRan=T
         wScrn=  0.000000 ICntrl=       500 IOpCl=  0 I1Cent=           0 NGrid=           0
         NMat0=    1 NMatS0=      1 NMatT0=    0 NMatD0=    1 NMtDS0=    0 NMtDT0=    0
 Symmetry not used in FoFCou.
 Inv3:  Mode=1 IEnd=    14559627.
 Iteration    1 A*A^-1 deviation from unit magnitude is 3.89D-15 for   1002.
 Iteration    1 A*A^-1 deviation from orthogonality  is 1.85D-15 for   2202   2103.
 Iteration    1 A^-1*A deviation from unit magnitude is 3.89D-15 for   1002.
 Iteration    1 A^-1*A deviation from orthogonality  is 2.05D-15 for   2203   2107.
 E= -1028.57641612755    
 DIIS: error= 3.00D-02 at cycle   1 NSaved=   1.
 NSaved= 1 IEnMin= 1 EnMin= -1028.57641612755     IErMin= 1 ErrMin= 3.00D-02
 ErrMax= 3.00D-02  0.00D+00 EMaxC= 1.00D-01 BMatC= 3.79D-01 BMatP= 3.79D-01
 IDIUse=3 WtCom= 7.00D-01 WtEn= 3.00D-01
 Coeff-Com:  0.100D+01
 Coeff-En:   0.100D+01
 Coeff:      0.100D+01
 Gap=     0.362 Goal=   None    Shift=    0.000
 GapD=    0.362 DampG=1.000 DampE=0.500 DampFc=0.5000 IDamp=-1.
 Damping current iteration by 5.00D-01
 RMSDP=3.44D-03 MaxDP=2.26D-01              OVMax= 1.78D-01

 Cycle   2  Pass 1  IDiag  1:
 RMSU=  1.71D-03    CP:  9.94D-01
 E= -1028.68904417074     Delta-E=       -0.112628043194 Rises=F Damp=T
 DIIS: error= 1.11D-02 at cycle   2 NSaved=   2.
 NSaved= 2 IEnMin= 2 EnMin= -1028.68904417074     IErMin= 2 ErrMin= 1.11D-02
 ErrMax= 1.11D-02  0.00D+00 EMaxC= 1.00D-01 BMatC= 5.71D-02 BMatP= 3.79D-01
 IDIUse=3 WtCom= 8.89D-01 WtEn= 1.11D-01
 Coeff-Com: -0.316D+00 0.132D+01
 Coeff-En:   0.000D+00 0.100D+01
 Coeff:     -0.281D+00 0.128D+01
 Gap=     0.303 Goal=   None    Shift=    0.000
 RMSDP=1.13D-03 MaxDP=2.12D-02 DE=-1.13D-01 OVMax= 1.07D-01

 Cycle   3  Pass 1  IDiag  1:
 RMSU=  1.07D-03    CP:  9.91D-01  1.21D+00
 E= -1028.78798904530     Delta-E=       -0.098944874559 Rises=F Damp=F
 DIIS: error= 6.04D-03 at cycle   3 NSaved=   3.
 NSaved= 3 IEnMin= 3 EnMin= -1028.78798904530     IErMin= 3 ErrMin= 6.04D-03
 ErrMax= 6.04D-03  0.00D+00 EMaxC= 1.00D-01 BMatC= 1.20D-02 BMatP= 5.71D-02
 IDIUse=3 WtCom= 9.40D-01 WtEn= 6.04D-02
 Coeff-Com: -0.204D+00 0.477D+00 0.727D+00
 Coeff-En:   0.000D+00 0.000D+00 0.100D+01
 Coeff:     -0.192D+00 0.449D+00 0.743D+00
 Gap=     0.263 Goal=   None    Shift=    0.000
 RMSDP=4.85D-04 MaxDP=1.81D-02 DE=-9.89D-02 OVMax= 3.88D-02

 Cycle   4  Pass 1  IDiag  1:
 RMSU=  3.61D-04    CP:  9.90D-01  1.37D+00  8.55D-01
 E= -1028.79977519756     Delta-E=       -0.011786152254 Rises=F Damp=F
 DIIS: error= 1.96D-03 at cycle   4 NSaved=   4.
 NSaved= 4 IEnMin= 4 EnMin= -1028.79977519756     IErMin= 4 ErrMin= 1.96D-03
 ErrMax= 1.96D-03  0.00D+00 EMaxC= 1.00D-01 BMatC= 1.51D-03 BMatP= 1.20D-02
 IDIUse=3 WtCom= 9.80D-01 WtEn= 1.96D-02
 Coeff-Com: -0.764D-01 0.152D+00 0.360D+00 0.565D+00
 Coeff-En:   0.000D+00 0.000D+00 0.000D+00 0.100D+01
 Coeff:     -0.749D-01 0.149D+00 0.352D+00 0.574D+00
 Gap=     0.262 Goal=   None    Shift=    0.000
 RMSDP=1.49D-04 MaxDP=8.55D-03 DE=-1.18D-02 OVMax= 1.07D-02

 Cycle   5  Pass 1  IDiag  1:
 RMSU=  1.01D-04    CP:  9.89D-01  1.38D+00  9.20D-01  7.66D-01
 E= -1028.80137060023     Delta-E=       -0.001595402670 Rises=F Damp=F
 DIIS: error= 4.46D-04 at cycle   5 NSaved=   5.
 NSaved= 5 IEnMin= 5 EnMin= -1028.80137060023     IErMin= 5 ErrMin= 4.46D-04
 ErrMax= 4.46D-04  0.00D+00 EMaxC= 1.00D-01 BMatC= 6.76D-05 BMatP= 1.51D-03
 IDIUse=3 WtCom= 9.96D-01 WtEn= 4.46D-03
 Coeff-Com: -0.606D-02 0.622D-02 0.570D-01 0.201D+00 0.742D+00
 Coeff-En:   0.000D+00 0.000D+00 0.000D+00 0.000D+00 0.100D+01
 Coeff:     -0.604D-02 0.620D-02 0.568D-01 0.200D+00 0.743D+00
 Gap=     0.262 Goal=   None    Shift=    0.000
 RMSDP=4.91D-05 MaxDP=1.66D-03 DE=-1.60D-03 OVMax= 4.27D-03

 Cycle   6  Pass 1  IDiag  1:
 RMSU=  3.50D-05    CP:  9.89D-01  1.38D+00  9.35D-01  8.45D-01  1.03D+00
 E= -1028.80148373295     Delta-E=       -0.000113132721 Rises=F Damp=F
 DIIS: error= 1.74D-04 at cycle   6 NSaved=   6.
 NSaved= 6 IEnMin= 6 EnMin= -1028.80148373295     IErMin= 6 ErrMin= 1.74D-04
 ErrMax= 1.74D-04  0.00D+00 EMaxC= 1.00D-01 BMatC= 1.06D-05 BMatP= 6.76D-05
 IDIUse=3 WtCom= 9.98D-01 WtEn= 1.74D-03
 Coeff-Com:  0.148D-01-0.310D-01-0.545D-01-0.415D-01 0.242D+00 0.870D+00
 Coeff-En:   0.000D+00 0.000D+00 0.000D+00 0.000D+00 0.000D+00 0.100D+01
 Coeff:      0.148D-01-0.310D-01-0.544D-01-0.414D-01 0.242D+00 0.870D+00
 Gap=     0.263 Goal=   None    Shift=    0.000
 RMSDP=3.07D-05 MaxDP=1.48D-03 DE=-1.13D-04 OVMax= 2.59D-03

 Cycle   7  Pass 1  IDiag  1:
 RMSU=  1.70D-05    CP:  9.89D-01  1.38D+00  9.48D-01  8.83D-01  1.19D+00
                    CP:  1.15D+00
 E= -1028.80151214454     Delta-E=       -0.000028411592 Rises=F Damp=F
 DIIS: error= 9.41D-05 at cycle   7 NSaved=   7.
 NSaved= 7 IEnMin= 7 EnMin= -1028.80151214454     IErMin= 7 ErrMin= 9.41D-05
 ErrMax= 9.41D-05  0.00D+00 EMaxC= 1.00D-01 BMatC= 2.18D-06 BMatP= 1.06D-05
 IDIUse=1 WtCom= 1.00D+00 WtEn= 0.00D+00
 Coeff-Com:  0.725D-02-0.140D-01-0.317D-01-0.481D-01-0.191D-01 0.363D+00
 Coeff-Com:  0.742D+00
 Coeff:      0.725D-02-0.140D-01-0.317D-01-0.481D-01-0.191D-01 0.363D+00
 Coeff:      0.742D+00
 Gap=     0.263 Goal=   None    Shift=    0.000
 RMSDP=1.10D-05 MaxDP=5.51D-04 DE=-2.84D-05 OVMax= 1.27D-03

 Cycle   8  Pass 1  IDiag  1:
 RMSU=  6.52D-06    CP:  9.89D-01  1.38D+00  9.50D-01  8.91D-01  1.23D+00
                    CP:  1.33D+00  1.10D+00
 E= -1028.80151672119     Delta-E=       -0.000004576655 Rises=F Damp=F
 DIIS: error= 3.02D-05 at cycle   8 NSaved=   8.
 NSaved= 8 IEnMin= 8 EnMin= -1028.80151672119     IErMin= 8 ErrMin= 3.02D-05
 ErrMax= 3.02D-05  0.00D+00 EMaxC= 1.00D-01 BMatC= 2.02D-07 BMatP= 2.18D-06
 IDIUse=1 WtCom= 1.00D+00 WtEn= 0.00D+00
 Coeff-Com: -0.102D-02 0.233D-02 0.266D-02-0.143D-02-0.370D-01-0.536D-01
 Coeff-Com:  0.177D+00 0.911D+00
 Coeff:     -0.102D-02 0.233D-02 0.266D-02-0.143D-02-0.370D-01-0.536D-01
 Coeff:      0.177D+00 0.911D+00
 Gap=     0.263 Goal=   None    Shift=    0.000
 RMSDP=4.43D-06 MaxDP=1.27D-04 DE=-4.58D-06 OVMax= 5.93D-04

 Cycle   9  Pass 1  IDiag  1:
 RMSU=  2.12D-06    CP:  9.89D-01  1.38D+00  9.50D-01  8.91D-01  1.24D+00
                    CP:  1.39D+00  1.28D+00  1.13D+00
 E= -1028.80151733171     Delta-E=       -0.000000610517 Rises=F Damp=F
 DIIS: error= 1.47D-05 at cycle   9 NSaved=   9.
 NSaved= 9 IEnMin= 9 EnMin= -1028.80151733171     IErMin= 9 ErrMin= 1.47D-05
 ErrMax= 1.47D-05  0.00D+00 EMaxC= 1.00D-01 BMatC= 4.56D-08 BMatP= 2.02D-07
 IDIUse=1 WtCom= 1.00D+00 WtEn= 0.00D+00
 Coeff-Com: -0.124D-02 0.249D-02 0.470D-02 0.558D-02-0.122D-01-0.678D-01
 Coeff-Com: -0.168D-01 0.354D+00 0.731D+00
 Coeff:     -0.124D-02 0.249D-02 0.470D-02 0.558D-02-0.122D-01-0.678D-01
 Coeff:     -0.168D-01 0.354D+00 0.731D+00
 Gap=     0.263 Goal=   None    Shift=    0.000
 RMSDP=1.67D-06 MaxDP=5.26D-05 DE=-6.11D-07 OVMax= 1.55D-04

 Cycle  10  Pass 1  IDiag  1:
 RMSU=  9.21D-07    CP:  9.89D-01  1.38D+00  9.50D-01  8.91D-01  1.24D+00
                    CP:  1.41D+00  1.32D+00  1.28D+00  1.08D+00
 E= -1028.80151743749     Delta-E=       -0.000000105782 Rises=F Damp=F
 DIIS: error= 7.74D-06 at cycle  10 NSaved=  10.
 NSaved=10 IEnMin=10 EnMin= -1028.80151743749     IErMin=10 ErrMin= 7.74D-06
 ErrMax= 7.74D-06  0.00D+00 EMaxC= 1.00D-01 BMatC= 7.44D-09 BMatP= 4.56D-08
 IDIUse=1 WtCom= 1.00D+00 WtEn= 0.00D+00
 Coeff-Com: -0.254D-03 0.469D-03 0.117D-02 0.251D-02 0.228D-02-0.193D-01
 Coeff-Com: -0.390D-01-0.351D-01 0.252D+00 0.835D+00
 Coeff:     -0.254D-03 0.469D-03 0.117D-02 0.251D-02 0.228D-02-0.193D-01
 Coeff:     -0.390D-01-0.351D-01 0.252D+00 0.835D+00
 Gap=     0.263 Goal=   None    Shift=    0.000
 RMSDP=9.17D-07 MaxDP=2.68D-05 DE=-1.06D-07 OVMax= 1.41D-04

 Cycle  11  Pass 1  IDiag  1:
 RMSU=  4.34D-07    CP:  9.89D-01  1.38D+00  9.50D-01  8.91D-01  1.24D+00
                    CP:  1.42D+00  1.35D+00  1.33D+00  1.31D+00  1.16D+00
 E= -1028.80151746528     Delta-E=       -0.000000027787 Rises=F Damp=F
 DIIS: error= 3.26D-06 at cycle  11 NSaved=  11.
 NSaved=11 IEnMin=11 EnMin= -1028.80151746528     IErMin=11 ErrMin= 3.26D-06
 ErrMax= 3.26D-06  0.00D+00 EMaxC= 1.00D-01 BMatC= 1.84D-09 BMatP= 7.44D-09
 IDIUse=1 WtCom= 1.00D+00 WtEn= 0.00D+00
 Coeff-Com:  0.143D-03-0.299D-03-0.488D-03-0.722D-04 0.304D-02 0.412D-02
 Coeff-Com: -0.674D-02-0.638D-01-0.702D-01 0.301D+00 0.833D+00
 Coeff:      0.143D-03-0.299D-03-0.488D-03-0.722D-04 0.304D-02 0.412D-02
 Coeff:     -0.674D-02-0.638D-01-0.702D-01 0.301D+00 0.833D+00
 Gap=     0.263 Goal=   None    Shift=    0.000
 RMSDP=3.98D-07 MaxDP=9.38D-06 DE=-2.78D-08 OVMax= 6.30D-05

 Cycle  12  Pass 1  IDiag  1:
 RMSU=  1.66D-07    CP:  9.89D-01  1.38D+00  9.50D-01  8.91D-01  1.24D+00
                    CP:  1.42D+00  1.36D+00  1.35D+00  1.40D+00  1.41D+00
                    CP:  1.16D+00
 E= -1028.80151747129     Delta-E=       -0.000000006005 Rises=F Damp=F
 DIIS: error= 1.15D-06 at cycle  12 NSaved=  12.
 NSaved=12 IEnMin=12 EnMin= -1028.80151747129     IErMin=12 ErrMin= 1.15D-06
 ErrMax= 1.15D-06  0.00D+00 EMaxC= 1.00D-01 BMatC= 2.86D-10 BMatP= 1.84D-09
 IDIUse=1 WtCom= 1.00D+00 WtEn= 0.00D+00
 Coeff-Com:  0.108D-03-0.211D-03-0.460D-03-0.633D-03 0.630D-03 0.576D-02
 Coeff-Com:  0.759D-02-0.101D-01-0.997D-01-0.978D-01 0.197D+00 0.998D+00
 Coeff:      0.108D-03-0.211D-03-0.460D-03-0.633D-03 0.630D-03 0.576D-02
 Coeff:      0.759D-02-0.101D-01-0.997D-01-0.978D-01 0.197D+00 0.998D+00
 Gap=     0.263 Goal=   None    Shift=    0.000
 RMSDP=2.45D-07 MaxDP=5.89D-06 DE=-6.01D-09 OVMax= 3.83D-05

 Cycle  13  Pass 1  IDiag  1:
 RMSU=  7.03D-08    CP:  9.89D-01  1.38D+00  9.50D-01  8.91D-01  1.24D+00
                    CP:  1.42D+00  1.36D+00  1.36D+00  1.45D+00  1.56D+00
                    CP:  1.45D+00  1.31D+00
 E= -1028.80151747278     Delta-E=       -0.000000001494 Rises=F Damp=F
 DIIS: error= 4.11D-07 at cycle  13 NSaved=  13.
 NSaved=13 IEnMin=13 EnMin= -1028.80151747278     IErMin=13 ErrMin= 4.11D-07
 ErrMax= 4.11D-07  0.00D+00 EMaxC= 1.00D-01 BMatC= 3.22D-11 BMatP= 2.86D-10
 IDIUse=1 WtCom= 1.00D+00 WtEn= 0.00D+00
 Coeff-Com: -0.325D-05 0.890D-05-0.905D-05-0.958D-04-0.194D-03 0.473D-03
 Coeff-Com:  0.260D-02 0.840D-02-0.112D-01-0.533D-01-0.991D-01 0.204D+00
 Coeff-Com:  0.949D+00
 Coeff:     -0.325D-05 0.890D-05-0.905D-05-0.958D-04-0.194D-03 0.473D-03
 Coeff:      0.260D-02 0.840D-02-0.112D-01-0.533D-01-0.991D-01 0.204D+00
 Coeff:      0.949D+00
 Gap=     0.263 Goal=   None    Shift=    0.000
 RMSDP=6.99D-08 MaxDP=1.56D-06 DE=-1.49D-09 OVMax= 1.01D-05

 Cycle  14  Pass 1  IDiag  1:
 RMSU=  2.65D-08    CP:  9.89D-01  1.38D+00  9.50D-01  8.91D-01  1.24D+00
                    CP:  1.42D+00  1.36D+00  1.36D+00  1.46D+00  1.60D+00
                    CP:  1.52D+00  1.52D+00  1.23D+00
 E= -1028.80151747291     Delta-E=       -0.000000000130 Rises=F Damp=F
 DIIS: error= 1.28D-07 at cycle  14 NSaved=  14.
 NSaved=14 IEnMin=14 EnMin= -1028.80151747291     IErMin=14 ErrMin= 1.28D-07
 ErrMax= 1.28D-07  0.00D+00 EMaxC= 1.00D-01 BMatC= 4.91D-12 BMatP= 3.22D-11
 IDIUse=1 WtCom= 1.00D+00 WtEn= 0.00D+00
 Coeff-Com: -0.115D-04 0.235D-04 0.418D-04 0.268D-04-0.123D-03-0.412D-03
 Coeff-Com:  0.111D-03 0.375D-02 0.468D-02-0.687D-02-0.536D-01-0.259D-01
 Coeff-Com:  0.334D+00 0.744D+00
 Coeff:     -0.115D-04 0.235D-04 0.418D-04 0.268D-04-0.123D-03-0.412D-03
 Coeff:      0.111D-03 0.375D-02 0.468D-02-0.687D-02-0.536D-01-0.259D-01
 Coeff:      0.334D+00 0.744D+00
 Gap=     0.263 Goal=   None    Shift=    0.000
 RMSDP=1.70D-08 MaxDP=4.10D-07 DE=-1.30D-10 OVMax= 2.37D-06

 Cycle  15  Pass 1  IDiag  1:
 RMSU=  9.29D-09    CP:  9.89D-01  1.38D+00  9.50D-01  8.91D-01  1.24D+00
                    CP:  1.42D+00  1.36D+00  1.36D+00  1.47D+00  1.60D+00
                    CP:  1.53D+00  1.56D+00  1.36D+00  1.06D+00
 E= -1028.80151747291     Delta-E=       -0.000000000002 Rises=F Damp=F
 DIIS: error= 4.28D-08 at cycle  15 NSaved=  15.
 NSaved=15 IEnMin=15 EnMin= -1028.80151747291     IErMin=15 ErrMin= 4.28D-08
 ErrMax= 4.28D-08  0.00D+00 EMaxC= 1.00D-01 BMatC= 6.29D-13 BMatP= 4.91D-12
 IDIUse=1 WtCom= 1.00D+00 WtEn= 0.00D+00
 Coeff-Com: -0.257D-05 0.475D-05 0.141D-04 0.254D-04-0.650D-05-0.232D-03
 Coeff-Com: -0.498D-03-0.279D-03 0.351D-02 0.865D-02 0.133D-02-0.488D-01
 Coeff-Com: -0.726D-01 0.201D+00 0.908D+00
 Coeff:     -0.257D-05 0.475D-05 0.141D-04 0.254D-04-0.650D-05-0.232D-03
 Coeff:     -0.498D-03-0.279D-03 0.351D-02 0.865D-02 0.133D-02-0.488D-01
 Coeff:     -0.726D-01 0.201D+00 0.908D+00
 Gap=     0.263 Goal=   None    Shift=    0.000
 RMSDP=8.20D-09 MaxDP=1.75D-07 DE=-1.59D-12 OVMax= 9.27D-07

 Error on total polarization charges =  0.00827
 SCF Done:  E(RwB97XD) =  -1028.80151747     A.U. after   15 cycles
            NFock= 15  Conv=0.82D-08     -V/T= 2.0048
 KE= 1.023897482639D+03 PE=-4.602839992796D+03 EE= 1.454849739145D+03
 Leave Link  502 at Tue Oct 27 20:59:43 2020, MaxMem=  7784628224 cpu:             862.7 elap:              90.1
 (Enter /gpfs/loomis/apps/avx/software/Gaussian/16-C.01_AVX/g16/l601.exe)
 Copying SCF densities to generalized density rwf, IOpCl= 0 IROHF=0.

 **********************************************************************

            Population analysis using the SCF Density.

 **********************************************************************

 Alpha  occ. eigenvalues --  -89.09127 -19.27825 -14.46173 -10.39743 -10.38293
 Alpha  occ. eigenvalues --  -10.34807 -10.34676 -10.33001 -10.32404 -10.32296
 Alpha  occ. eigenvalues --  -10.32019 -10.31493 -10.31440 -10.31335 -10.30596
 Alpha  occ. eigenvalues --  -10.30464  -8.11008  -6.05867  -6.05522  -6.05065
 Alpha  occ. eigenvalues --   -1.19907  -1.08297  -0.96645  -0.95555  -0.91417
 Alpha  occ. eigenvalues --   -0.88805  -0.85017  -0.84453  -0.82610  -0.76318
 Alpha  occ. eigenvalues --   -0.71374  -0.70267  -0.69443  -0.68531  -0.64033
 Alpha  occ. eigenvalues --   -0.60314  -0.59098  -0.58489  -0.55946  -0.54537
 Alpha  occ. eigenvalues --   -0.53855  -0.53100  -0.52767  -0.51121  -0.50648
 Alpha  occ. eigenvalues --   -0.49326  -0.48220  -0.45854  -0.45600  -0.44764
 Alpha  occ. eigenvalues --   -0.43596  -0.43023  -0.42338  -0.39804  -0.36897
 Alpha  occ. eigenvalues --   -0.36447  -0.32206  -0.31395  -0.28072
 Alpha virt. eigenvalues --   -0.01759   0.05130   0.06948   0.07119   0.07506
 Alpha virt. eigenvalues --    0.11198   0.13180   0.15140   0.15918   0.18031
 Alpha virt. eigenvalues --    0.18617   0.21070   0.21823   0.22250   0.22766
 Alpha virt. eigenvalues --    0.23319   0.23870   0.24918   0.28341   0.30779
 Alpha virt. eigenvalues --    0.32005   0.33292   0.35241   0.36364   0.36882
 Alpha virt. eigenvalues --    0.37682   0.38523   0.40766   0.43968   0.45591
 Alpha virt. eigenvalues --    0.47270   0.47973   0.50369   0.51509   0.51835
 Alpha virt. eigenvalues --    0.52186   0.53535   0.54456   0.55047   0.55795
 Alpha virt. eigenvalues --    0.55899   0.56351   0.57333   0.57878   0.57958
 Alpha virt. eigenvalues --    0.58562   0.58882   0.59424   0.59867   0.60318
 Alpha virt. eigenvalues --    0.60466   0.60787   0.62050   0.62584   0.63682
 Alpha virt. eigenvalues --    0.64290   0.65760   0.66587   0.68080   0.69055
 Alpha virt. eigenvalues --    0.70176   0.71238   0.72231   0.72716   0.73004
 Alpha virt. eigenvalues --    0.73696   0.74241   0.75450   0.76250   0.77331
 Alpha virt. eigenvalues --    0.78880   0.79541   0.79882   0.82098   0.82606
 Alpha virt. eigenvalues --    0.82893   0.88158   0.90612   0.92322   0.93224
 Alpha virt. eigenvalues --    0.94890   0.95188   0.95760   0.96640   0.96978
 Alpha virt. eigenvalues --    0.98550   0.98830   1.00231   1.00417   1.01808
 Alpha virt. eigenvalues --    1.02703   1.04689   1.05847   1.07510   1.07964
 Alpha virt. eigenvalues --    1.08415   1.08701   1.09252   1.10369   1.11440
 Alpha virt. eigenvalues --    1.12165   1.12482   1.13214   1.14872   1.15617
 Alpha virt. eigenvalues --    1.16410   1.18750   1.20660   1.22153   1.24055
 Alpha virt. eigenvalues --    1.25471   1.28275   1.33257   1.33642   1.34854
 Alpha virt. eigenvalues --    1.35316   1.36018   1.38560   1.42335   1.45573
 Alpha virt. eigenvalues --    1.47644   1.48860   1.51189   1.53654   1.53935
 Alpha virt. eigenvalues --    1.54708   1.55919   1.56720   1.57013   1.57616
 Alpha virt. eigenvalues --    1.58723   1.59074   1.62138   1.65963   1.66235
 Alpha virt. eigenvalues --    1.68263   1.68723   1.70067   1.70190   1.70955
 Alpha virt. eigenvalues --    1.71916   1.72273   1.72601   1.73579   1.73726
 Alpha virt. eigenvalues --    1.76240   1.77275   1.80088   1.80818   1.81955
 Alpha virt. eigenvalues --    1.82222   1.83405   1.84721   1.85492   1.85499
 Alpha virt. eigenvalues --    1.86528   1.88225   1.88391   1.89986   1.92049
 Alpha virt. eigenvalues --    1.92066   1.92913   1.93313   1.94204   1.94902
 Alpha virt. eigenvalues --    2.00073   2.00421   2.01926   2.03718   2.03978
 Alpha virt. eigenvalues --    2.07163   2.07746   2.08310   2.11193   2.12045
 Alpha virt. eigenvalues --    2.14215   2.17404   2.20641   2.23745   2.24363
 Alpha virt. eigenvalues --    2.26339   2.28472   2.37049   2.37778   2.40995
 Alpha virt. eigenvalues --    2.41155   2.41404   2.47144   2.47263   2.47763
 Alpha virt. eigenvalues --    2.48391   2.50606   2.53131   2.57045   2.62041
 Alpha virt. eigenvalues --    2.63400   2.72891   2.73653   2.74505   2.80569
 Alpha virt. eigenvalues --    2.81512   2.83646   2.86453   2.90394   2.95094
 Alpha virt. eigenvalues --    3.02811   3.05521   3.14069   3.22026   3.33400
 Alpha virt. eigenvalues --    3.51066   3.56173   3.64653   4.08022
          Condensed to atoms (all electrons):
               1          2          3          4          5          6
     1  C    4.751193   0.455258   0.006485  -0.051670  -0.013282   0.526404
     2  C    0.455258   5.329082   0.345448  -0.042966  -0.062510  -0.010920
     3  C    0.006485   0.345448   4.734866   0.497358  -0.007821  -0.063002
     4  C   -0.051670  -0.042966   0.497358   4.779253   0.525240  -0.016116
     5  C   -0.013282  -0.062510  -0.007821   0.525240   4.732613   0.489204
     6  C    0.526404  -0.010920  -0.063002  -0.016116   0.489204   4.749404
     7  H    0.401683  -0.039479   0.008068  -0.000436   0.008010  -0.038437
     8  H   -0.000934   0.011638  -0.028510   0.391766  -0.044337   0.007800
     9  H    0.008639  -0.000627   0.008541  -0.039472   0.405003  -0.044915
    10  H   -0.041832   0.009666  -0.000639   0.008757  -0.043921   0.405557
    11  N    0.008001  -0.060738   0.487914  -0.039527   0.003035   0.000130
    12  S   -0.061055   0.345165  -0.103579   0.006571   0.000203   0.003330
    13  C   -0.000143   0.003807   0.008464  -0.000848   0.000009   0.000000
    14  C   -0.000004   0.000005   0.000194   0.000006  -0.000000  -0.000000
    15  C    0.000003  -0.000151  -0.000288   0.000061  -0.000000   0.000000
    16  C    0.000000  -0.000001   0.000004  -0.000000   0.000000   0.000000
    17  H   -0.000002   0.000033  -0.000001  -0.000000   0.000000  -0.000000
    18  C    0.000000   0.000006  -0.000032  -0.000000  -0.000000   0.000000
    19  C   -0.000000   0.000000   0.000002  -0.000000   0.000000   0.000000
    20  H   -0.000000  -0.000000  -0.000000   0.000000   0.000000  -0.000000
    21  H   -0.000000  -0.000000   0.000002   0.000000   0.000000  -0.000000
    22  H    0.000000  -0.000000  -0.000000  -0.000000   0.000000  -0.000000
    23  C    0.004328  -0.055116  -0.128723   0.000951   0.000191  -0.000155
    24  O    0.000001  -0.000014  -0.001900  -0.000087  -0.000001  -0.000000
    25  H   -0.000075   0.002503  -0.005352  -0.001270   0.000014   0.000012
               7          8          9         10         11         12
     1  C    0.401683  -0.000934   0.008639  -0.041832   0.008001  -0.061055
     2  C   -0.039479   0.011638  -0.000627   0.009666  -0.060738   0.345165
     3  C    0.008068  -0.028510   0.008541  -0.000639   0.487914  -0.103579
     4  C   -0.000436   0.391766  -0.039472   0.008757  -0.039527   0.006571
     5  C    0.008010  -0.044337   0.405003  -0.043921   0.003035   0.000203
     6  C   -0.038437   0.007800  -0.044915   0.405557   0.000130   0.003330
     7  H    0.659242   0.000034  -0.000142  -0.012094  -0.000131  -0.006169
     8  H    0.000034   0.657170  -0.012041  -0.000131  -0.001393  -0.000138
     9  H   -0.000142  -0.012041   0.667725  -0.012226  -0.000115   0.000021
    10  H   -0.012094  -0.000131  -0.012226   0.665489  -0.000002  -0.000134
    11  N   -0.000131  -0.001393  -0.000115  -0.000002   6.488775  -0.075392
    12  S   -0.006169  -0.000138   0.000021  -0.000134  -0.075392  15.477541
    13  C    0.000006   0.000054  -0.000000  -0.000000  -0.017607  -0.060422
    14  C    0.000000   0.000001   0.000000  -0.000000   0.003257  -0.004124
    15  C   -0.000000  -0.000045   0.000000   0.000000  -0.018870   0.003674
    16  C   -0.000000  -0.000000  -0.000000   0.000000  -0.000099  -0.000097
    17  H    0.000001   0.000000  -0.000000  -0.000000   0.000197   0.005347
    18  C   -0.000000   0.000000  -0.000000  -0.000000  -0.000361  -0.000080
    19  C    0.000000   0.000000  -0.000000  -0.000000   0.000058   0.000017
    20  H   -0.000000  -0.000000   0.000000   0.000000   0.000001  -0.000001
    21  H   -0.000000   0.000000  -0.000000   0.000000   0.000013   0.000002
    22  H    0.000000  -0.000000  -0.000000  -0.000000  -0.000000  -0.000000
    23  C    0.000039  -0.000956   0.000008   0.000003   0.539049   0.313072
    24  O   -0.000000  -0.000235   0.000000  -0.000000  -0.062625  -0.000222
    25  H    0.000001   0.001560  -0.000005   0.000000   0.084286   0.002686
              13         14         15         16         17         18
     1  C   -0.000143  -0.000004   0.000003   0.000000  -0.000002   0.000000
     2  C    0.003807   0.000005  -0.000151  -0.000001   0.000033   0.000006
     3  C    0.008464   0.000194  -0.000288   0.000004  -0.000001  -0.000032
     4  C   -0.000848   0.000006   0.000061  -0.000000  -0.000000  -0.000000
     5  C    0.000009  -0.000000  -0.000000   0.000000   0.000000  -0.000000
     6  C    0.000000  -0.000000   0.000000   0.000000  -0.000000   0.000000
     7  H    0.000006   0.000000  -0.000000  -0.000000   0.000001  -0.000000
     8  H    0.000054   0.000001  -0.000045  -0.000000   0.000000   0.000000
     9  H   -0.000000   0.000000   0.000000  -0.000000  -0.000000  -0.000000
    10  H   -0.000000  -0.000000   0.000000   0.000000  -0.000000  -0.000000
    11  N   -0.017607   0.003257  -0.018870  -0.000099   0.000197  -0.000361
    12  S   -0.060422  -0.004124   0.003674  -0.000097   0.005347  -0.000080
    13  C    5.314466   0.492738   0.288164  -0.008746  -0.038617  -0.055934
    14  C    0.492738   4.786874  -0.005685   0.526272   0.403174  -0.052736
    15  C    0.288164  -0.005685   4.815772  -0.063620   0.007920   0.503960
    16  C   -0.008746   0.526272  -0.063620   4.754710  -0.036802  -0.017947
    17  H   -0.038617   0.403174   0.007920  -0.036802   0.672250  -0.000762
    18  C   -0.055934  -0.052736   0.503960  -0.017947  -0.000762   4.803943
    19  C   -0.046738  -0.017007  -0.009546   0.489828   0.008413   0.510809
    20  H    0.008679  -0.035833  -0.000308   0.401749  -0.012833   0.008420
    21  H    0.011760  -0.000438  -0.023716   0.007175   0.000040   0.381065
    22  H   -0.000965   0.008812   0.009011  -0.043406  -0.000144  -0.041658
    23  C    0.306782  -0.090702  -0.073660   0.007494  -0.019311   0.007062
    24  O   -0.080406   0.003525   0.511019   0.000028  -0.000055  -0.059796
    25  H   -0.035532  -0.000824  -0.014482  -0.000049   0.000023   0.006486
              19         20         21         22         23         24
     1  C   -0.000000  -0.000000  -0.000000   0.000000   0.004328   0.000001
     2  C    0.000000  -0.000000  -0.000000  -0.000000  -0.055116  -0.000014
     3  C    0.000002  -0.000000   0.000002  -0.000000  -0.128723  -0.001900
     4  C   -0.000000   0.000000   0.000000  -0.000000   0.000951  -0.000087
     5  C    0.000000   0.000000   0.000000   0.000000   0.000191  -0.000001
     6  C    0.000000  -0.000000  -0.000000  -0.000000  -0.000155  -0.000000
     7  H    0.000000  -0.000000  -0.000000   0.000000   0.000039  -0.000000
     8  H    0.000000  -0.000000   0.000000  -0.000000  -0.000956  -0.000235
     9  H   -0.000000   0.000000  -0.000000  -0.000000   0.000008   0.000000
    10  H   -0.000000   0.000000   0.000000  -0.000000   0.000003  -0.000000
    11  N    0.000058   0.000001   0.000013  -0.000000   0.539049  -0.062625
    12  S    0.000017  -0.000001   0.000002  -0.000000   0.313072  -0.000222
    13  C   -0.046738   0.008679   0.011760  -0.000965   0.306782  -0.080406
    14  C   -0.017007  -0.035833  -0.000438   0.008812  -0.090702   0.003525
    15  C   -0.009546  -0.000308  -0.023716   0.009011  -0.073660   0.511019
    16  C    0.489828   0.401749   0.007175  -0.043406   0.007494   0.000028
    17  H    0.008413  -0.012833   0.000040  -0.000144  -0.019311  -0.000055
    18  C    0.510809   0.008420   0.381065  -0.041658   0.007062  -0.059796
    19  C    4.724242  -0.046895  -0.043843   0.406945   0.000361   0.002955
    20  H   -0.046895   0.675955  -0.000163  -0.011782  -0.000315   0.000003
    21  H   -0.043843  -0.000163   0.656724  -0.011690  -0.000411   0.002611
    22  H    0.406945  -0.011782  -0.011690   0.661069   0.000004  -0.000063
    23  C    0.000361  -0.000315  -0.000411   0.000004   5.113209   0.000401
    24  O    0.002955   0.000003   0.002611  -0.000063   0.000401   7.363563
    25  H   -0.000150  -0.000001   0.000109   0.000009   0.002224   0.400063
              25
     1  C   -0.000075
     2  C    0.002503
     3  C   -0.005352
     4  C   -0.001270
     5  C    0.000014
     6  C    0.000012
     7  H    0.000001
     8  H    0.001560
     9  H   -0.000005
    10  H    0.000000
    11  N    0.084286
    12  S    0.002686
    13  C   -0.035532
    14  C   -0.000824
    15  C   -0.014482
    16  C   -0.000049
    17  H    0.000023
    18  C    0.006486
    19  C   -0.000150
    20  H   -0.000001
    21  H    0.000109
    22  H    0.000009
    23  C    0.002224
    24  O    0.400063
    25  H    0.495599
 Mulliken charges:
               1
     1  C    0.007001
     2  C   -0.230090
     3  C    0.242505
     4  C   -0.017570
     5  C    0.008350
     6  C   -0.008295
     7  H    0.019802
     8  H    0.018697
     9  H    0.019606
    10  H    0.021506
    11  N   -0.337859
    12  S    0.153784
    13  C   -0.088972
    14  C   -0.017505
    15  C    0.070790
    16  C   -0.016494
    17  H    0.011129
    18  C    0.007556
    19  C    0.020548
    20  H    0.013324
    21  H    0.020761
    22  H    0.023859
    23  C    0.074172
    24  O   -0.078765
    25  H    0.062163
 Sum of Mulliken charges =  -0.00000
 Mulliken charges with hydrogens summed into heavy atoms:
               1
     1  C    0.026804
     2  C   -0.230090
     3  C    0.242505
     4  C    0.001126
     5  C    0.027956
     6  C    0.013211
    11  N   -0.337859
    12  S    0.153784
    13  C   -0.088972
    14  C   -0.006377
    15  C    0.070790
    16  C   -0.003170
    18  C    0.028316
    19  C    0.044406
    23  C    0.074172
    24  O   -0.016602
 Electronic spatial extent (au):  <R**2>=           4362.5581
 Charge=             -0.0000 electrons
 Dipole moment (field-independent basis, Debye):
    X=             -0.3972    Y=             -1.7110    Z=              0.0000  Tot=              1.7565
 Quadrupole moment (field-independent basis, Debye-Ang):
   XX=            -83.2467   YY=            -88.1529   ZZ=           -104.3879
   XY=             -7.1392   XZ=             -0.0001   YZ=              0.0002
 Traceless Quadrupole moment (field-independent basis, Debye-Ang):
   XX=              8.6825   YY=              3.7763   ZZ=            -12.4588
   XY=             -7.1392   XZ=             -0.0001   YZ=              0.0002
 Octapole moment (field-independent basis, Debye-Ang**2):
  XXX=              9.5659  YYY=            -11.3011  ZZZ=             -0.0000  XYY=             -6.5636
  XXY=              3.0934  XXZ=              0.0000  XZZ=              0.9428  YZZ=              2.8218
  YYZ=              0.0009  XYZ=             -0.0007
 Hexadecapole moment (field-independent basis, Debye-Ang**3):
 XXXX=          -2608.4473 YYYY=          -2608.6921 ZZZZ=           -113.7280 XXXY=            804.7677
 XXXZ=              0.0097 YYYX=            761.7158 YYYZ=             -0.0104 ZZZX=              0.0129
 ZZZY=             -0.0187 XXYY=           -850.3992 XXZZ=           -572.9637 YYZZ=           -553.5568
 XXYZ=             -0.0026 YYXZ=             -0.0004 ZZXY=            356.6238
 N-N= 1.095291253539D+03 E-N=-4.602839997837D+03  KE= 1.023897482639D+03
 No NMR shielding tensors so no spin-rotation constants.
 Leave Link  601 at Tue Oct 27 20:59:43 2020, MaxMem=  7784628224 cpu:               2.6 elap:               0.4
 (Enter /gpfs/loomis/apps/avx/software/Gaussian/16-C.01_AVX/g16/l701.exe)
 ... and contract with generalized density number  0.
 Compute integral first derivatives.
 R6Disp: Adding Grimme-D2 dispersion energy 1st derivatives to the gradient.
 D1PCM: PCM CHGder 1st derivatives, ID1Alg=3 FixD1E=F DoIter=F DoCFld=F I1PDM=0.
 GePol: Maximum number of non-zero 1st derivatives   =     271
 Leave Link  701 at Tue Oct 27 20:59:46 2020, MaxMem=  7784628224 cpu:              19.3 elap:               2.8
 (Enter /gpfs/loomis/apps/avx/software/Gaussian/16-C.01_AVX/g16/l702.exe)
 L702 exits ... SP integral derivatives will be done elsewhere.
 Leave Link  702 at Tue Oct 27 20:59:46 2020, MaxMem=  7784628224 cpu:               0.3 elap:               0.1
 (Enter /gpfs/loomis/apps/avx/software/Gaussian/16-C.01_AVX/g16/l703.exe)
 Integral derivatives from FoFJK, PRISM(SPDF).
 Compute integral first derivatives, UseDBF=F ICtDFT=           0.
 Calling FoFJK, ICntrl=      2127 FMM=F ISym2X=0 I1Cent= 0 IOpClX= 0 NMat=1 NMatS=1 NMatT=0.
 FoFJK:  IHMeth= 1 ICntrl=    2127 DoSepK=T KAlg= 0 I1Cent=           0 FoldK=F
 IRaf=         1 NMat=       1 IRICut=       1 DoRegI=T DoRafI=F ISym2E= 0 IDoP0=0 IntGTp=1.
 FoFCou: FMM=F IPFlag=           0 FMFlag=      100000 FMFlg1=         800
         NFxFlg=           0 DoJE=F BraDBF=F KetDBF=F FulRan=T
         wScrn=  0.000000 ICntrl=      2527 IOpCl=  0 I1Cent=           0 NGrid=           0
         NMat0=    1 NMatS0=      1 NMatT0=    0 NMatD0=    1 NMtDS0=    0 NMtDT0=    0
 Symmetry not used in FoFCou.
 Leave Link  703 at Tue Oct 27 21:00:05 2020, MaxMem=  7784628224 cpu:             136.1 elap:              18.7
 (Enter /gpfs/loomis/apps/avx/software/Gaussian/16-C.01_AVX/g16/l716.exe)
 Dipole        =-1.56259956D-01-6.73146235D-01 1.95608247D-06
 -------------------------------------------------------------------
 Center     Atomic                   Forces (Hartrees/Bohr)
 Number     Number              X              Y              Z
 -------------------------------------------------------------------
      1        6           0.005273195   -0.004588115    0.000000035
      2        6           0.005030774    0.012298473   -0.000000056
      3        6           0.021992789   -0.039818781   -0.000000160
      4        6          -0.013947745    0.000625572   -0.000000073
      5        6          -0.000402172   -0.007026637   -0.000000023
      6        6          -0.005967624    0.003074175    0.000000023
      7        1           0.000800193    0.001192382   -0.000000039
      8        1          -0.000747638   -0.001567532   -0.000000011
      9        1          -0.001089407   -0.000165345   -0.000000001
     10        1          -0.000898457    0.000735259    0.000000011
     11        7          -0.060109535    0.010976301    0.000000274
     12       16           0.006258435    0.014089205    0.000000076
     13        6          -0.021582691    0.056438728    0.000000862
     14        6           0.012179666    0.005278766    0.000000810
     15        6          -0.023093038   -0.030236150   -0.000000574
     16        6          -0.002013614    0.004005116    0.000000102
     17        1          -0.000856410    0.000104303    0.000000085
     18        6          -0.003947017   -0.005108556   -0.000000226
     19        6           0.004724292   -0.018884956   -0.000000738
     20        1           0.001193411   -0.000224805   -0.000000025
     21        1          -0.000700264   -0.001031555    0.000000033
     22        1           0.000127102   -0.000535998   -0.000000095
     23        6           0.060236439   -0.018816227   -0.000000710
     24        8          -0.050003040    0.130430561    0.000002897
     25        1           0.067542356   -0.111244184   -0.000002476
 -------------------------------------------------------------------
 Cartesian Forces:  Max     0.130430561 RMS     0.026511618
 Leave Link  716 at Tue Oct 27 21:00:05 2020, MaxMem=  7784628224 cpu:               0.3 elap:               0.1
 (Enter /gpfs/loomis/apps/avx/software/Gaussian/16-C.01_AVX/g16/l103.exe)

 GradGradGradGradGradGradGradGradGradGradGradGradGradGradGradGradGradGrad
 Berny optimization.
 FormGI is forming the generalized inverse of G from B-inverse, IUseBI=4.
 Internal  Forces:  Max     0.130975219 RMS     0.013879593
 Search for a local minimum.
 Step number   1 out of a maximum of  143
 All quantities printed in internal units (Hartrees-Bohrs-Radians)
 RMS Force = .13985D-01 SwitMx=.10000D-02 MixMth= 1
 Mixed Optimization -- RFO/linear search
 Second derivative matrix not updated -- first step.
 ITU=  0
     Eigenvalues ---    0.01274   0.01341   0.01541   0.01621   0.01723
     Eigenvalues ---    0.01755   0.01845   0.01941   0.01959   0.01982
     Eigenvalues ---    0.01998   0.02008   0.02016   0.02062   0.02091
     Eigenvalues ---    0.02101   0.02103   0.02124   0.02142   0.02181
     Eigenvalues ---    0.02206   0.02873   0.16000   0.16000   0.16000
     Eigenvalues ---    0.16000   0.16000   0.16000   0.16000   0.16003
     Eigenvalues ---    0.16072   0.22000   0.22030   0.22520   0.22584
     Eigenvalues ---    0.24468   0.24557   0.25000   0.25000   0.25000
     Eigenvalues ---    0.26233   0.28604   0.31860   0.34476   0.34477
     Eigenvalues ---    0.34496   0.34497   0.34537   0.34542   0.34572
     Eigenvalues ---    0.34675   0.37258   0.39240   0.40430   0.41222
     Eigenvalues ---    0.42090   0.42672   0.43465   0.44089   0.45630
     Eigenvalues ---    0.45883   0.46595   0.48153   0.50740   0.56987
     Eigenvalues ---    0.64157   0.728721000.000001000.000001000.00000
     Eigenvalues --- 1000.000001000.000001000.000001000.000001000.00000
     Eigenvalues --- 1000.000001000.000001000.000001000.000001000.00000
     Eigenvalues --- 1000.000001000.000001000.000001000.000001000.00000
     Eigenvalues --- 1000.000001000.000001000.000001000.000001000.00000
     Eigenvalues --- 1000.000001000.000001000.000001000.000001000.00000
     Eigenvalues --- 1000.000001000.000001000.000001000.000001000.00000
     Eigenvalues --- 1000.000001000.000001000.000001000.000001000.00000
     Eigenvalues --- 1000.000001000.000001000.000001000.000001000.00000
     Eigenvalues --- 1000.000001000.000001000.000001000.000001000.00000
     Eigenvalues --- 1000.000001000.000001000.000001000.000001000.00000
     Eigenvalues --- 1000.000001000.000001000.000001000.000001000.00000
     Eigenvalues --- 1000.000001000.000001000.000001000.000001000.00000
     Eigenvalues --- 1000.000001000.000001000.00000
 RFO step:  Lambda=-3.99881023D-02 EMin= 1.27352446D-02
 Linear search not attempted -- first point.
 Iteration  1 RMS(Cart)=  0.03372550 RMS(Int)=  0.00136281
 Iteration  2 RMS(Cart)=  0.00167549 RMS(Int)=  0.00048646
 Iteration  3 RMS(Cart)=  0.00001486 RMS(Int)=  0.00050427
 Iteration  4 RMS(Cart)=  0.00000002 RMS(Int)=  0.00050414
 Iteration  1 RMS(Cart)=  0.00000752 RMS(Int)=  0.00000211
 Iteration  2 RMS(Cart)=  0.00000003 RMS(Int)=  0.00000173
 ITry= 1 IFail=0 DXMaxC= 2.85D-01 DCOld= 1.00D+10 DXMaxT= 3.00D-01 DXLimC= 3.00D+00 Rises=F
 Variable       Old X    -DE/DX   Delta X   Delta X   Delta X     New X
                                 (Linear)    (Quad)   (Total)
    R1        2.63637   0.00401   0.00000   0.00543   0.00515   2.64151
    R2        2.64491  -0.00492   0.00000  -0.01231  -0.01264   2.63227
    R3        2.06532  -0.00150   0.00000  -0.00404  -0.00405   2.06127
    R4        2.69843  -0.01930   0.00000  -0.04148  -0.04152   2.65691
    R5        3.33488  -0.00007   0.00000  -0.00197  -0.00223   3.33265
    R6        2.68546  -0.01602   0.00000  -0.03332  -0.03312   2.65234
    R7        2.50806   0.02560   0.00000   0.04493   0.04559   2.55364
    R8        2.60901  -0.00140   0.00000   0.00021   0.00055   2.60955
    R9        2.06534  -0.00162   0.00000  -0.00426  -0.00427   2.06107
   R10        2.66821  -0.00512   0.00000  -0.01152  -0.01165   2.65656
   R11        2.06500  -0.00102   0.00000  -0.00273  -0.00274   2.06226
   R12        2.06425  -0.00115   0.00000  -0.00298  -0.00298   2.06127
   R13        2.56544  -0.04967   0.00000  -0.08541  -0.08508   2.48036
   R14        3.38998   0.00029   0.00000  -0.02112  -0.02235   3.36763
   R15        2.68561  -0.00757   0.00000  -0.02122  -0.02163   2.66398
   R16        2.80805  -0.01786   0.00000  -0.06606  -0.06752   2.74052
   R17        2.68037   0.03343   0.00000   0.06184   0.06089   2.74126
   R18        2.63327  -0.00702   0.00000  -0.01367  -0.01362   2.61964
   R19        2.06433   0.00017   0.00000   0.00043   0.00043   2.06476
   R20        2.65691  -0.00682   0.00000  -0.01039  -0.01005   2.64686
   R21        2.47686   0.02072   0.00000   0.02840   0.02806   2.50491
   R22        2.67867  -0.01715   0.00000  -0.03655  -0.03655   2.64212
   R23        2.06501  -0.00119   0.00000  -0.00300  -0.00299   2.06202
   R24        2.62494  -0.00815   0.00000  -0.01074  -0.01024   2.61470
   R25        2.06375  -0.00111   0.00000  -0.00300  -0.00301   2.06074
   R26        2.06206  -0.00040   0.00000  -0.00100  -0.00100   2.06106
   R27        1.66949   0.13098   0.00000   0.17126   0.17240   1.84188
    A1        2.07063  -0.00314   0.00000  -0.00716  -0.00707   2.06356
    A2        2.11249   0.00212   0.00000   0.00537   0.00528   2.11777
    A3        2.10007   0.00102   0.00000   0.00179   0.00179   2.10185
    A4        2.10145  -0.00050   0.00000   0.00142   0.00176   2.10320
    A5        2.27357   0.01040   0.00000   0.01997   0.01921   2.29278
    A6        1.90817  -0.00991   0.00000  -0.02139  -0.02096   1.88720
    A7        2.09621   0.00564   0.00000   0.01042   0.01006   2.10628
    A8        2.01166   0.00050   0.00000  -0.00059  -0.00099   2.01068
    A9        2.17531  -0.00615   0.00000  -0.00983  -0.00908   2.16623
   A10        2.07191   0.00029   0.00000   0.00006   0.00005   2.07196
   A11        2.07829  -0.00050   0.00000  -0.00094  -0.00090   2.07739
   A12        2.13298   0.00021   0.00000   0.00088   0.00086   2.13384
   A13        2.11008  -0.00235   0.00000  -0.00565  -0.00556   2.10452
   A14        2.09054   0.00086   0.00000   0.00194   0.00192   2.09246
   A15        2.08257   0.00148   0.00000   0.00371   0.00363   2.08621
   A16        2.11609   0.00005   0.00000   0.00092   0.00076   2.11685
   A17        2.08092   0.00006   0.00000  -0.00069  -0.00063   2.08028
   A18        2.08618  -0.00010   0.00000  -0.00023  -0.00012   2.08605
   A19        1.99767   0.00563   0.00000   0.01229   0.01208   2.00975
   A20        1.55718   0.00491   0.00000   0.01532   0.01529   1.57247
   A21        2.01661   0.00236   0.00000   0.02151   0.02243   2.03904
   A22        2.21602  -0.01189   0.00000  -0.02945  -0.02881   2.18721
   A23        2.05055   0.00953   0.00000   0.00794   0.00639   2.05694
   A24        2.11714   0.00464   0.00000   0.01361   0.01347   2.13061
   A25        2.07564  -0.00110   0.00000  -0.00140  -0.00136   2.07428
   A26        2.09040  -0.00354   0.00000  -0.01221  -0.01211   2.07829
   A27        2.12081  -0.00691   0.00000  -0.02818  -0.02844   2.09237
   A28        2.10430   0.02660   0.00000   0.06091   0.05895   2.16325
   A29        2.05807  -0.01969   0.00000  -0.03273  -0.03051   2.02756
   A30        2.13182  -0.00751   0.00000  -0.03254  -0.03272   2.09910
   A31        2.07407   0.00382   0.00000   0.01611   0.01617   2.09025
   A32        2.07730   0.00369   0.00000   0.01643   0.01654   2.09384
   A33        2.10109   0.00446   0.00000   0.01348   0.01317   2.11426
   A34        2.04735  -0.00238   0.00000  -0.00676  -0.00658   2.04077
   A35        2.13475  -0.00209   0.00000  -0.00671  -0.00659   2.12816
   A36        2.07890   0.00295   0.00000   0.01212   0.01210   2.09100
   A37        2.09952  -0.00129   0.00000  -0.00616  -0.00619   2.09333
   A38        2.10477  -0.00167   0.00000  -0.00597  -0.00591   2.09886
   A39        1.95010  -0.00113   0.00000  -0.00564  -0.00541   1.94468
   A40        2.07965  -0.00544   0.00000  -0.01489  -0.01480   2.06485
   A41        2.25344   0.00657   0.00000   0.02053   0.02021   2.27365
   A42        1.86631   0.01681   0.00000   0.07582   0.07519   1.94150
    D1        0.00000   0.00000   0.00000   0.00000   0.00000   0.00000
    D2       -3.14159   0.00000   0.00000   0.00000   0.00000  -3.14159
    D3        3.14159   0.00000   0.00000   0.00000   0.00000  -3.14159
    D4       -0.00000   0.00000   0.00000   0.00000   0.00000   0.00000
    D5        0.00000   0.00000   0.00000   0.00000   0.00000   0.00000
    D6        3.14159   0.00000   0.00000   0.00000   0.00000   3.14159
    D7       -3.14159   0.00000   0.00000   0.00000   0.00000  -3.14159
    D8        0.00000  -0.00000   0.00000  -0.00000  -0.00000   0.00000
    D9       -0.00000  -0.00000   0.00000  -0.00000  -0.00000  -0.00000
   D10        3.14159  -0.00000   0.00000  -0.00000  -0.00000   3.14159
   D11        3.14159  -0.00000   0.00000  -0.00000  -0.00000   3.14159
   D12       -0.00000  -0.00000   0.00000  -0.00000  -0.00000  -0.00000
   D13        3.14159   0.00000   0.00000   0.00000   0.00000  -3.14159
   D14       -0.00000   0.00000   0.00000   0.00000   0.00000   0.00000
   D15        0.00000   0.00000   0.00000   0.00000   0.00000   0.00000
   D16       -3.14159   0.00000   0.00000   0.00000   0.00000  -3.14159
   D17       -3.14159   0.00000   0.00000   0.00000   0.00000  -3.14159
   D18        0.00000   0.00000   0.00000   0.00000   0.00000   0.00000
   D19        0.00000  -0.00000   0.00000  -0.00000  -0.00000   0.00000
   D20       -3.14159  -0.00000   0.00000  -0.00000  -0.00000  -3.14159
   D21       -0.00000  -0.00000   0.00000  -0.00000  -0.00000  -0.00000
   D22        3.14159  -0.00000   0.00000  -0.00000  -0.00000   3.14159
   D23       -3.14159   0.00000   0.00000   0.00000   0.00000  -3.14159
   D24        0.00000   0.00000   0.00000   0.00000   0.00000   0.00000
   D25       -0.00000  -0.00000   0.00000  -0.00000  -0.00000  -0.00000
   D26        3.14159  -0.00000   0.00000  -0.00000  -0.00000   3.14159
   D27        3.14159  -0.00000   0.00000  -0.00000  -0.00000   3.14159
   D28       -0.00000   0.00000   0.00000   0.00000   0.00000   0.00000
   D29       -0.00000   0.00000   0.00000   0.00000   0.00000   0.00000
   D30        3.14158   0.00000   0.00000   0.00000   0.00000   3.14159
   D31        0.00000  -0.00000   0.00000  -0.00000  -0.00000  -0.00000
   D32       -3.14158  -0.00000   0.00000  -0.00000  -0.00000  -3.14159
   D33       -0.00001  -0.00000   0.00000  -0.00000  -0.00000  -0.00001
   D34        3.14158  -0.00000   0.00000  -0.00000  -0.00000   3.14158
   D35        3.14158  -0.00000   0.00000  -0.00000  -0.00000   3.14158
   D36       -0.00001  -0.00000   0.00000  -0.00000  -0.00000  -0.00001
   D37        0.00001   0.00000   0.00000   0.00000   0.00000   0.00002
   D38       -3.14158   0.00000   0.00000   0.00000   0.00000  -3.14158
   D39       -3.14158   0.00000   0.00000   0.00000   0.00000  -3.14157
   D40        0.00001   0.00000   0.00000   0.00000   0.00000   0.00002
   D41        3.14158   0.00000   0.00000   0.00000   0.00000   3.14158
   D42       -0.00002   0.00000   0.00000   0.00000   0.00000  -0.00002
   D43       -0.00002   0.00000   0.00000   0.00000   0.00000  -0.00001
   D44        3.14157  -0.00000   0.00000   0.00000   0.00000   3.14157
   D45        0.00000  -0.00000   0.00000  -0.00000  -0.00000   0.00000
   D46       -3.14159  -0.00000   0.00000  -0.00000  -0.00000  -3.14159
   D47        3.14159  -0.00000   0.00000  -0.00000  -0.00000   3.14159
   D48        0.00000  -0.00000   0.00000  -0.00000  -0.00000  -0.00000
   D49       -0.00001  -0.00000   0.00000  -0.00000  -0.00000  -0.00001
   D50        3.14159  -0.00000   0.00000  -0.00000  -0.00000   3.14159
[...]
 ,0.,-0.00011613,0.,-0.00000003,0.00007932,0.00000002,0.,-0.00008643,0.
 ,0.,0.00001469,0.00000001,0.,-0.00005782,0.,0.,0.00002635,0.,0.,-0.000
 04022,-0.00000004,0.00000033,0.00064962,0.,0.00000002,0.00121422,0.000
 00098,-0.00000357,-0.07209609,-0.00000291,0.00000096,0.00153705,-0.000
 00761,0.00001254,0.17749746,0.00013765,-0.00007246,0.,-0.00030144,0.00
 058363,0.,0.00034141,-0.00070429,0.,-0.00011619,0.00020873,0.,-0.00001
 582,0.00003081,0.,-0.00013217,0.00004242,0.,-0.00000959,0.00002406,0.,
 0.00003787,-0.00001344,0.,-0.00002562,0.00001821,0.,-0.00000683,0.0000
 1201,0.,-0.00305214,0.00177838,0.00000003,-0.00018712,0.00063319,0.,-0
 .04040573,0.01843751,0.00000048,-0.21777586,0.15197239,0.00000426,0.00
 257913,0.01395389,0.00000026,0.76263291,-0.00065267,0.00102195,0.,0.00
 151665,-0.00090668,0.00000001,-0.00023176,0.00117272,0.00000005,-0.000
 59805,-0.00011004,0.,-0.00010282,-0.00102666,0.,0.00124925,-0.00006888
 ,0.,-0.00004081,-0.00007836,0.,0.00002455,0.00004464,0.,0.00011050,-0.
 00004114,0.,0.00006422,-0.00003112,0.,0.00671573,0.00340050,-0.0000000
 9,-0.00157442,-0.00121102,-0.00000004,0.07092137,0.03264340,0.00000068
 ,0.07937454,-0.27508105,-0.00000556,0.02342218,-0.07496217,-0.00000236
 ,0.00190178,0.67657740,-0.00000002,0.00000003,0.00003341,0.00000006,-0
 .00000003,0.00026530,0.,0.00000002,-0.00071807,-0.00000002,0.,-0.00011
 189,0.,-0.00000004,0.00006707,0.00000004,0.,-0.00001152,0.,0.,-0.00000
 065,0.,0.,-0.00000255,0.,0.,0.00001428,0.,0.,-0.00001938,0.00000017,0.
 00000012,0.00017647,-0.00000004,-0.00000006,-0.00051206,0.00000196,0.0
 0000070,0.00737617,0.00000247,-0.00000607,-0.06316408,0.00000073,-0.00
 000204,-0.00448401,0.00000037,0.00001715,0.12770287,0.00022874,0.00005
 535,0.,-0.00058441,0.00021228,0.,0.00029109,-0.00005869,0.,0.00000528,
 0.00002278,0.,0.00004437,0.00004533,0.,-0.00005018,-0.00007336,0.,-0.0
 0001218,-0.00000811,0.,0.00003141,0.00000699,0.,0.00001010,-0.00000060
 ,0.,0.00002695,-0.00000433,0.,0.00024061,0.00039570,0.,-0.00057182,0.0
 0152308,-0.00000002,-0.00629294,-0.02813074,-0.00000074,-0.10248117,-0
 .10269940,-0.00000291,-0.00545113,0.00148796,0.00000001,0.01125395,0.0
 1844460,0.00000050,0.10445503,-0.00001993,-0.00005342,0.,-0.00004315,0
 .00038779,0.,0.00017469,-0.00012434,0.,0.00000510,0.00003900,0.,0.0000
 0502,0.00004294,0.,-0.00006307,0.00002578,0.,-0.00000300,0.00001162,0.
 ,0.00001063,-0.00000295,0.,-0.00000710,0.00000219,0.,-0.00000800,0.000
 00287,0.,-0.00056749,0.00017723,0.,-0.00015819,-0.00005093,0.,0.001337
 37,0.00007230,-0.00000007,-0.10057322,-0.29640732,-0.00000702,0.000297
 84,0.00190435,-0.00000014,-0.01373506,-0.01707078,-0.00000058,0.108272
 49,0.31358804,0.,0.,0.00000019,-0.00000001,0.00000001,-0.00043839,0.,0
 .,0.00012969,0.,0.,0.00007754,0.,0.,-0.00002187,0.,0.,0.00002192,0.,0.
 ,-0.00001012,0.,0.,-0.00001392,0.,0.,-0.00000613,0.,0.,0.00001474,0.00
 000003,0.,-0.00002044,-0.00000005,0.00000005,0.00088176,0.00000029,-0.
 00000002,0.00316794,-0.00000314,-0.00000690,-0.03757629,0.00000003,-0.
 00000024,0.00603062,-0.00000026,-0.00000086,0.00475500,0.00000303,0.00
 000782,0.02493494,0.00005552,0.00047491,0.,0.00053100,-0.00010569,0.00
 000001,0.00137960,-0.00019205,0.,-0.00050258,-0.00011985,0.,0.00000500
 ,-0.00046870,0.,0.00043954,-0.00003982,0.,-0.00004202,-0.00000044,0.,0
 .00010655,0.00001408,0.,0.00003920,-0.00001565,0.,0.00003509,0.0000027
 3,0.,0.00277245,0.00593926,-0.00000008,0.00037170,0.00006802,-0.000000
 01,0.05777269,0.02772198,0.00000095,-0.06007586,0.02900829,0.00000095,
 -0.17301774,0.05666958,0.00000248,-0.01177825,-0.08724094,-0.00000244,
 -0.00077429,0.00064197,-0.00000015,0.77095926,0.00041504,-0.00032714,0
 .,-0.00105930,-0.00020588,0.,-0.00047708,0.00008182,0.,0.00047439,0.00
 003693,0.,0.00006974,0.00055914,0.,-0.00053982,-0.00009158,0.,0.000001
 25,0.00002563,0.,-0.00000653,-0.00001013,0.,-0.00003175,0.00001748,0.,
 0.00000508,0.00000309,0.,-0.00149156,-0.00147400,0.00000002,0.00136460
 ,-0.00015587,0.00000001,-0.00782622,-0.03611507,-0.00000141,0.02412518
 ,-0.01445170,-0.00000039,0.12397121,-0.26795139,-0.00000698,-0.0364623
 5,0.02407965,0.00000050,0.00036374,0.00050239,0.00000014,0.04529106,0.
 72205454,0.00000002,-0.00000002,-0.00019894,-0.00000006,0.,-0.00005814
 ,-0.00000002,0.,-0.00049246,0.00000002,0.,0.00002065,0.,0.00000003,0.0
 0000918,-0.00000003,0.,0.00002241,0.,0.,-0.00002084,0.,0.,-0.00001268,
 0.,0.,-0.00000945,0.,0.,0.00003947,-0.00000010,-0.00000009,0.00108927,
 0.00000005,-0.00000003,-0.00013540,-0.00000033,-0.00000099,0.00744548,
 0.00000087,-0.00000046,-0.00339345,0.00000445,-0.00000717,-0.07088965,
 -0.00000106,0.00000062,0.00830937,0.00000001,0.00000005,-0.00096917,-0
 .00000355,0.00001815,0.12365323,0.00044508,-0.00073591,0.,-0.00134998,
 0.00041619,-0.00000002,-0.00056246,-0.00013542,-0.00000002,0.00071045,
 0.00009081,0.,0.00005116,0.00090234,0.,-0.00094800,-0.00001576,0.,0.00
 002888,0.00005684,0.,-0.00003671,-0.00003840,0.,-0.00008285,0.00003556
 ,0.,-0.00004348,0.00002000,0.,-0.00362628,-0.00268535,0.00000007,0.001
 08342,0.00037393,0.00000003,-0.04414568,-0.02059680,-0.00000056,0.0665
 0784,-0.01281903,-0.00000054,-0.05074486,0.06662173,0.00000239,-0.1593
 5747,-0.03651877,-0.00000136,-0.00190415,0.00424099,0.00000024,-0.3918
 7942,-0.07071851,-0.00000013,0.74363743,0.00017772,-0.00028064,0.,-0.0
 0035617,0.00029787,0.,0.00015283,-0.00074285,-0.00000002,0.00001821,0.
 00011396,0.,0.00003356,0.00019845,0.,-0.00032099,0.00005601,0.,0.00001
 453,0.00001436,0.,-0.00001869,-0.00000864,0.,-0.00003106,0.00001276,0.
 ,-0.00001429,0.00000646,0.,-0.00399741,-0.00166924,0.00000006,0.000389
 38,0.00031326,0.00000002,-0.03880916,-0.02077018,-0.00000056,0.0445517
 4,-0.06024773,-0.00000217,0.01166628,0.05900675,0.00000165,-0.11095008
 ,-0.30456325,-0.00000813,0.00342495,-0.00248494,-0.00000017,0.00099926
 ,-0.13777849,-0.00000213,-0.03387370,0.71676033,0.,0.,0.00001389,0.,0.
 00000001,0.00000570,0.00000001,-0.00000003,0.00021210,0.,0.,0.00000600
 ,0.,0.,-0.00001589,0.,0.,0.00000268,0.,0.,0.00000094,0.,0.,0.00000715,
 0.,0.,-0.00000079,0.,0.,-0.00000702,-0.00000012,-0.00000005,-0.0002299
 0,0.,0.00000001,0.00000992,-0.00000108,-0.00000043,-0.00387828,0.00000
 113,-0.00000192,0.00677433,0.00000075,0.00000145,0.00009133,-0.0000034
 9,-0.00000835,-0.06379355,0.00000010,-0.00000029,0.00750852,0.00000151
 ,-0.00000201,-0.05829684,-0.00000355,0.00001933,0.14221402,0.00002004,
 -0.00006915,0.,-0.00006914,0.00011844,0.,-0.00002735,-0.00005495,0.,0.
 00004322,0.00003362,0.,-0.00000849,0.00006175,0.,-0.00007573,0.0000108
 8,0.,0.00000208,0.00001029,0.,0.00000267,-0.00000622,0.,-0.00001138,0.
 00000572,0.,-0.00000895,0.00000525,0.,-0.00042093,0.00032471,0.,0.0000
 2210,0.00005858,0.,0.00027497,0.00348079,0.00000008,-0.01351135,-0.006
 28868,-0.00000019,0.00056804,0.00014298,0.,-0.34244590,-0.03892183,-0.
 00000124,0.00077849,0.00009090,0.,0.00126775,-0.00227558,-0.00000009,-
 0.00709524,0.00265873,0.00000011,0.36075478,-0.00000317,0.00002625,0.,
 0.00003380,-0.00006394,0.,0.00008030,0.00004845,0.,-0.00001036,-0.0000
 4112,0.,0.00001196,-0.00001563,0.,0.00002560,-0.00000658,0.,0.,-0.0000
 0453,0.,0.00000071,0.00000261,0.,0.00000523,-0.00000433,0.,0.00000359,
 -0.00000164,0.,0.00043652,-0.00025473,0.,0.00001003,0.00002868,0.,0.00
 227060,-0.00370195,-0.00000031,0.02607992,0.00655212,0.00000015,0.0004
 0410,-0.00157446,-0.00000003,-0.03961130,-0.06297298,-0.00000103,-0.00
 019484,0.00094738,0.00000017,-0.00123822,-0.00510993,-0.00000038,-0.02
 958122,0.00113394,0.,0.04166768,0.06299895,0.,0.,-0.00000275,0.,0.,-0.
 00001364,0.,0.,-0.00020099,0.,0.,-0.00000744,0.,0.,0.00001580,0.,0.,-0
 .00000481,0.,0.,0.00000066,0.,0.,-0.00000461,0.,0.,0.00000266,0.,0.,0.
 00000443,0.00000002,0.,-0.00013012,0.,0.,0.00002075,0.00000014,-0.0000
 0025,0.00725254,0.00000067,0.00000021,0.00163337,0.00000003,-0.0000001
 0,-0.00074380,-0.00000119,-0.00000108,-0.03323629,0.,0.00000015,-0.004
 64640,-0.00000002,-0.00000039,0.00628167,-0.00000094,0.00000002,0.0017
 1553,0.00000132,0.00000124,0.02492344,-0.00003734,-0.00000503,0.,0.000
 01437,0.00008849,0.,-0.00001219,0.00001650,0.,-0.00000528,0.00000530,0
 .,-0.00000912,-0.00001967,0.,0.00001689,0.00001077,0.,0.00000188,-0.00
 000157,0.,-0.00000768,0.00000089,0.,0.00000061,0.00000035,0.,-0.000003
 15,-0.00000160,0.,0.00009985,-0.00016330,0.,-0.00022765,0.00002079,0.,
 -0.00190033,0.00229776,0.00000012,-0.00112059,0.00062077,0.00000002,0.
 00932401,0.01864186,0.00000053,-0.00524042,0.00046154,0.00000010,0.000
 08418,-0.00010037,0.,-0.10422188,-0.10863883,-0.00000267,-0.00568771,-
 0.02875956,-0.00000080,-0.00045668,-0.00138371,-0.00000006,0.10646345,
 0.00002364,0.00008631,0.,-0.00001106,-0.00013902,0.,0.00008530,0.00005
 624,0.,-0.00004026,-0.00002033,0.,0.00001170,-0.00004722,0.,0.00005789
 ,-0.00002266,0.,-0.00000606,-0.00000301,0.,0.00000788,0.00000482,0.,0.
 00000954,-0.00000377,0.,0.00001129,-0.00000238,0.,0.00013327,0.0004435
 5,0.,0.00022105,-0.00018223,0.,0.00375397,-0.00227001,-0.00000025,0.00
 107076,0.00030450,0.00000004,-0.01459910,-0.01837296,-0.00000055,-0.00
 011779,0.00204289,-0.00000017,-0.00006474,-0.00005811,0.00000002,-0.10
 583418,-0.30042611,-0.00000724,0.00206780,0.00141952,-0.00000004,0.000
 10246,-0.00003108,-0.00000001,0.11568821,0.31512783,0.,0.,0.00001713,0
 .,0.,-0.00001947,0.,0.,-0.00003580,0.,0.,0.00000040,0.,0.,-0.00000360,
 0.,0.,0.00000127,0.,0.,0.00000169,0.,0.,0.00000405,0.,0.,0.00000257,0.
 ,0.,-0.00000215,0.,0.00000002,0.00002340,0.00000002,0.,-0.00004664,0.0
 0000008,-0.00000030,0.00517867,0.00000020,-0.00000003,-0.00088201,-0.0
 0000067,-0.00000055,0.00486922,0.00000004,-0.00000003,0.00759160,0.,0.
 00000002,-0.00070643,-0.00000231,-0.00000726,-0.03498286,-0.00000011,0
 .00000003,0.00255929,0.,0.,0.00045106,0.00000284,0.00000785,0.02474830
 ,0.00001678,-0.00003193,0.,-0.00003307,0.00008656,0.,0.00008147,-0.000
 05722,0.,0.00001234,0.00000948,0.,0.00000018,0.00003204,0.,-0.00004064
 ,0.00000696,0.,0.00000034,0.00000530,0.,0.00000547,-0.00000329,0.,-0.0
 0000664,0.00000267,0.,-0.00000423,0.00000332,0.,-0.00008978,0.00018933
 ,0.,-0.00000460,0.00015093,0.,-0.00090581,-0.00052042,-0.00000002,0.00
 042726,-0.00296551,-0.00000008,-0.00418367,-0.00249383,0.,0.01046849,-
 0.01074865,-0.00000039,0.00038085,-0.00057633,0.,-0.01213716,0.0267810
 9,0.00000093,-0.16427774,0.13677911,0.00000495,0.00066851,0.00043752,0
 .,0.00108164,-0.00025403,-0.00000004,0.16994113,0.00001327,0.00002248,
 0.,-0.00004621,-0.00001085,0.,-0.00000012,0.00002946,0.,-0.00000354,-0
 .00000630,0.,0.00000656,-0.00000875,0.,0.00001362,-0.00001139,0.,-0.00
 000235,-0.00000388,0.,0.00000048,0.00000332,0.,0.00000527,-0.00000149,
 0.,0.00000568,-0.00000295,0.,0.00012093,-0.00010362,0.,-0.00003529,0.0
 0000323,0.,-0.00083878,0.00023752,0.00000004,-0.00345516,-0.00420666,-
 0.00000037,-0.00208362,0.00121307,-0.00000024,0.02034161,-0.01511830,-
 0.00000068,0.00093689,-0.00105656,-0.00000002,-0.00520447,0.00626419,0
 .00000007,0.13768633,-0.23996693,-0.00000717,-0.00014378,0.00101179,0.
 00000016,0.00020211,0.00066688,0.00000017,-0.14773575,0.25058804,0.,0.
 ,-0.00000347,0.,0.,-0.00003577,0.,0.,0.00009694,0.,0.,0.00000576,0.,0.
 ,-0.00000547,0.,0.,-0.00000204,0.,0.,0.00000252,0.,0.,0.00000065,0.,0.
 ,0.00000009,0.,0.,0.00000356,0.,0.,-0.00014723,0.,0.,0.00012074,-0.000
 00008,0.00000004,-0.00099626,-0.00000015,-0.00000037,0.00660440,0.0000
 0001,-0.00000014,0.00894284,0.00000069,-0.00000060,0.00430106,0.000000
 04,-0.00000004,-0.00014357,0.00000005,-0.00000006,0.00488761,0.0000048
 9,-0.00000717,-0.04079682,0.,0.00000016,-0.00363944,-0.00000004,0.0000
 0016,-0.00467341,-0.00000539,0.00000799,0.02685345,-0.00244415,-0.0072
 3787,-0.00000013,-0.00370860,0.01621659,0.00000013,-0.09429038,0.04259
 247,0.,0.01696770,-0.00247101,0.00000003,-0.00401115,0.01053272,0.0000
 0004,-0.00536000,-0.00589198,-0.00000004,0.00052583,-0.00094843,0.,-0.
 00043452,-0.00013764,0.,0.00018629,0.00012638,0.,-0.00074903,-0.000138
 79,0.00000001,-0.45570638,-0.06831157,-0.00000133,-0.04832076,-0.01737
 169,-0.00000012,-0.13999659,0.06347182,0.00000090,-0.03537525,0.030335
 37,0.00000056,0.03184333,0.01117623,-0.00000023,-0.00153724,-0.0135659
 7,-0.00000044,0.00078072,0.00098568,0.00000003,-0.00393200,-0.00089114
 ,-0.00000001,0.00460975,0.00417559,0.00000013,-0.00023731,0.00082303,0
 .00000003,0.00027785,-0.00119039,-0.00000004,0.00024885,-0.00000944,0.
 00000001,0.76055726,0.00205178,-0.00303992,-0.00000004,0.02893369,-0.0
 2398926,0.,0.01446271,0.00504677,0.00000004,0.00883698,-0.00812704,-0.
 00000001,-0.00193769,0.00632295,0.00000002,-0.00370403,-0.00474035,-0.
 00000003,0.00036908,-0.00081196,0.,-0.00043980,0.00015793,0.,0.0002464
 6,-0.00031301,0.,-0.00044159,0.00002393,0.,-0.08531442,-0.12761448,-0.
 00000038,0.00765430,-0.10738084,-0.00000014,0.05602030,-0.18134427,-0.
 00000168,0.01609241,0.00622069,0.00000018,0.01101303,-0.03669422,-0.00
 000040,-0.00604394,0.01183415,0.00000026,-0.00177057,-0.00010002,0.000
 00003,0.00009107,-0.00703312,-0.00000028,-0.00736109,-0.00491972,-0.00
 000013,-0.00103532,0.00079436,0.00000002,0.00111248,-0.00049624,-0.000
 00005,-0.00028215,0.00015511,0.,-0.04348165,0.46850400,0.00000008,-0.0
 0000009,-0.00023975,-0.00000004,-0.00000002,0.00423990,-0.00000021,0.0
 0000016,0.00511405,0.00000016,-0.00000008,0.00324692,-0.00000002,0.000
 00014,0.00042218,-0.00000012,-0.00000006,0.00077046,0.,0.,-0.00031575,
 0.,0.,-0.00024185,0.,0.,-0.00049517,0.,0.,0.00002949,-0.00000107,-0.00
 000068,-0.06371254,0.00000012,-0.00000035,-0.03821555,0.00000046,-0.00
 000097,-0.05285846,0.00000022,0.00000017,-0.00329502,0.00000017,-0.000
 00094,0.00270726,-0.00000006,-0.00000005,0.00666114,-0.00000002,0.0000
 0010,-0.00326729,0.,-0.00000024,0.00464445,-0.00000007,-0.00000004,-0.
 00096130,0.,-0.00000002,0.00099201,0.00000001,-0.00000002,-0.00002182,
 0.,0.00000003,-0.00083319,0.00000022,0.00000268,0.13656219,-0.00044830
 ,0.00193178,0.,0.00186860,0.00101948,0.,0.00804409,-0.00098351,0.00000
 011,-0.00195549,-0.00011277,0.,0.00000515,-0.00183964,-0.00000001,0.00
 180542,0.00026983,0.,-0.00016379,0.00011486,0.,0.00036376,-0.00000124,
 0.,0.00003630,-0.00001987,0.,0.00005417,0.00006300,0.,0.01405802,0.030
 55678,-0.00000012,-0.00009652,0.00064054,-0.00000002,-0.01486217,-0.03
 171829,0.00000010,-0.00842894,0.00465293,0.00000027,-0.34387494,-0.075
 50920,0.00000243,-0.00583661,-0.01546564,-0.00000047,-0.00099877,-0.00
 037604,-0.00000005,-0.07562290,0.01212882,0.00000183,0.01663450,0.0114
 2658,0.00000027,-0.00009759,-0.00026991,0.,0.00174467,-0.00135557,-0.0
 0000002,-0.00143493,0.00037161,-0.00000002,-0.02450925,0.01552804,0.00
 000022,0.55256289,-0.00056531,-0.00061868,0.,0.00023265,-0.00281471,0.
 ,-0.00968123,-0.00217054,0.,-0.00005751,-0.00050998,0.,0.00045155,0.00
 024327,0.,-0.00007867,-0.00006981,0.,0.00017794,-0.00026488,0.,0.00000
 983,0.00012355,0.,0.00014864,-0.00010523,0.,0.00008744,-0.00007223,0.,
 0.01165579,-0.04918401,-0.00000027,-0.00106871,-0.00409336,0.,-0.04213
 603,-0.00406346,0.00000014,0.00796816,-0.00814744,-0.00000032,-0.04995
 637,-0.12871574,-0.00000111,-0.00126831,0.00779407,0.00000026,-0.00152
 619,-0.00009958,-0.00000003,0.04945626,0.01303188,-0.00000045,-0.00403
 224,-0.01073646,-0.00000047,-0.00000200,0.00049424,0.00000003,-0.00056
 914,0.00240674,0.00000013,0.00173214,0.00015367,0.00000001,0.00820703,
 0.00408265,0.00000010,-0.08173647,0.47614331,0.,-0.00000004,-0.0001239
 5,-0.00000001,-0.00000006,-0.00015475,-0.00000027,0.,0.00087464,0.0000
 0004,0.,0.00016492,0.,0.00000004,-0.00003748,-0.00000003,0.,0.00004037
 ,0.,0.,-0.00000887,0.,0.,-0.00003606,0.,0.,-0.00001572,0.,0.,-0.000003
 02,0.,-0.00000106,0.00685161,0.00000002,0.00000001,-0.00070589,-0.0000
 0097,-0.00000011,0.01167381,0.00000057,-0.00000042,0.00639542,0.000003
 32,-0.00000023,-0.05536879,-0.00000004,0.00000065,-0.00104387,0.,-0.00
 000002,0.00034115,0.00000274,-0.00000018,0.01044775,-0.00000050,-0.000
 00071,0.00493977,0.,0.00000004,-0.00060973,-0.00000005,0.00000017,-0.0
 0348357,0.00000006,0.,-0.00023677,0.00000055,-0.00000022,-0.00270292,-
 0.00000925,0.00000991,0.04185686,0.00019998,-0.00035909,0.,-0.00110554
 ,0.00038324,0.,-0.00017913,0.00359364,-0.00000003,0.00085297,0.0003527
 8,0.,-0.00014107,0.00024469,0.,-0.00033520,-0.00007084,0.,0.00000325,0
 .00001227,0.,-0.00050561,-0.00005745,0.,0.00001577,-0.00000377,0.,-0.0
 0001852,-0.00005787,0.,-0.01814284,-0.00497971,0.00000016,-0.00115115,
 -0.00149007,-0.00000002,0.00115474,0.00297452,0.,0.00056709,0.00088755
 ,0.00000002,-0.04799775,0.03757206,0.00000161,0.00077303,0.00145541,0.
 00000004,0.00050926,0.00016826,0.00000002,-0.00175123,-0.00457254,-0.0
 0000012,-0.00196649,0.00066264,0.00000008,0.00006339,0.00000213,0.,-0.
 00017936,0.00022841,0.,-0.00021500,-0.00014584,-0.00000001,0.00461505,
 -0.01060007,-0.00000005,-0.11884738,0.11255079,0.00000382,0.18378174,0
 .00024819,0.00121181,0.,0.00119216,0.00394128,0.00000003,0.01390018,-0
 .00298864,0.00000004,-0.00119951,0.00119584,0.,-0.00055274,-0.00113376
 ,0.,0.00069322,0.00048737,0.,-0.00023452,0.00034894,0.,0.00038088,-0.0
 0017754,0.,-0.00022250,0.00015943,0.,-0.00009806,0.00012403,0.,0.00190
 868,0.00869764,-0.00000050,0.00149014,0.00597952,0.00000005,0.00132598
 ,-0.00991000,-0.00000011,-0.00526971,0.00040163,0.00000004,0.03248677,
 0.01901277,-0.00000011,-0.00095959,-0.00736894,-0.00000022,-0.00066057
 ,-0.00019491,-0.00000003,-0.01591846,0.00447366,0.00000033,0.00659970,
 0.00483538,0.00000007,0.00002474,-0.00025588,0.,0.00047496,-0.00048414
 ,0.00000001,-0.00054732,0.00014890,0.,-0.02699535,0.00346190,0.0000001
 9,0.13068391,-0.29280729,-0.00000778,-0.13875114,0.26084101,0.,0.00000
 001,0.00020971,0.00000002,0.00000001,0.00042776,0.00000010,-0.00000003
 ,-0.00045882,-0.00000001,0.,-0.00037281,0.,-0.00000002,-0.00002533,0.0
 0000002,0.,-0.00004469,0.,0.,0.00002074,-0.00000001,0.,0.00019501,0.,0
 .,0.00002444,0.,0.,0.00000038,0.00000018,0.00000029,-0.01179655,-0.000
 00002,-0.00000001,0.00129439,0.,-0.00000008,-0.00218407,-0.00000013,0.
 00000001,-0.00029294,0.00000094,-0.00000039,0.00056275,-0.00000002,-0.
 00000016,-0.00015582,-0.00000002,0.,-0.00004398,-0.00000014,0.00000009
 ,0.00260935,0.00000018,0.,0.00191922,0.,0.,-0.00005391,0.,0.00000003,-
 0.00059088,0.,0.00000002,-0.00030618,-0.00000030,0.00000012,0.00177056
 ,0.00000473,-0.00000791,-0.01905491,-0.00000551,0.00000799,0.02634658\
 \0.00200348,-0.00048054,0.00000012,-0.00027091,-0.00187626,0.00000028,
 -0.00217831,-0.00032489,0.,-0.00118208,0.00165780,0.00000009,0.0005898
 8,0.00314431,0.,0.00197975,0.00183145,-0.00000006,0.00031619,-0.000141
 47,-0.00000003,-0.00026761,0.00024448,0.,0.00004843,0.00036961,0.,0.00
 029735,0.00022146,-0.00000005,-0.00113064,-0.00230429,0.00000036,-0.00
 149606,-0.00715454,-0.00000024,-0.00047874,-0.00109331,0.00000012,-0.0
 0197113,0.00165547,-0.00000049,-0.00055119,-0.00104668,0.00000034,0.00
 034378,0.00241773,-0.00000010,-0.00026649,0.00019646,-0.00000004,0.002
 24517,0.00022333,0.00000018,0.00207293,0.00238302,0.00000027,0.0000015
 4,0.00033637,0.,0.00031462,-0.00002051,0.00000001,0.00028919,0.0002892
 7,0.00000003,-0.00133302,-0.00137425,-0.00000002,0.00121812,-0.0009034
 5,-0.00000025,-0.00059426,0.00174942,-0.00000052\\\@
 The archive entry for this job was punched.


      HUMANKIND PERIODICALLY GOES THROUGH A SPEEDUP OF ITS AFFAIRS, 
      THEREBY EXPERIENCING THE RACE BETWEEN THE RENEWABLE VITALITY
      OF THE LIVING, AND THE BECKONING VITIATION OF DECADENCE.
      IN THIS PERIODIC RACE, ANY PAUSE BECOMES A LUXURY.
      ONLY THEN CAN ONE REFLECT THAT ALL IS PERMITTED;
      ALL IS POSSIBLE.

                              -- THE APOCRYPHA OF MUAD'DIB
                                 CHILDREN OF DUNE, BY FRANK HERBERT
 Job cpu time:       0 days  1 hours  7 minutes 48.6 seconds.
 Elapsed time:       0 days  0 hours  8 minutes 21.0 seconds.
 File lengths (MBytes):  RWF=    544 Int=      0 D2E=      0 Chk=     40 Scr=      8
 Normal termination of Gaussian 16 at Tue Oct 27 21:17:11 2020.
