 Entering Gaussian System, Link 0=g16
 Initial command:
 /gpfs/loomis/apps/avx/software/Gaussian/16-C.01_AVX/g16/l1.exe "/home/fas/batista/pev4/scratch60/gauss-scratch/Gau-230142.inp" -scrdir="/home/fas/batista/pev4/scratch60/gauss-scratch/"
 Entering Link 1 = /gpfs/loomis/apps/avx/software/Gaussian/16-C.01_AVX/g16/l1.exe PID=    230143.
  
 Copyright (c) 1988-2019, Gaussian, Inc.  All Rights Reserved.
  
 This is part of the Gaussian(R) 16 program.  It is based on
 the Gaussian(R) 09 system (copyright 2009, Gaussian, Inc.),
 the Gaussian(R) 03 system (copyright 2003, Gaussian, Inc.),
 the Gaussian(R) 98 system (copyright 1998, Gaussian, Inc.),
 the Gaussian(R) 94 system (copyright 1995, Gaussian, Inc.),
 the Gaussian 92(TM) system (copyright 1992, Gaussian, Inc.),
 the Gaussian 90(TM) system (copyright 1990, Gaussian, Inc.),
 the Gaussian 88(TM) system (copyright 1988, Gaussian, Inc.),
 the Gaussian 86(TM) system (copyright 1986, Carnegie Mellon
 University), and the Gaussian 82(TM) system (copyright 1983,
 Carnegie Mellon University). Gaussian is a federally registered
 trademark of Gaussian, Inc.
  
 This software contains proprietary and confidential information,
 including trade secrets, belonging to Gaussian, Inc.
  
 This software is provided under written license and may be
 used, copied, transmitted, or stored only in accord with that
 written license.
  
 The following legend is applicable only to US Government
 contracts under FAR:
  
                    RESTRICTED RIGHTS LEGEND
  
 Use, reproduction and disclosure by the US Government is
 subject to restrictions as set forth in subparagraphs (a)
 and (c) of the Commercial Computer Software - Restricted
 Rights clause in FAR 52.227-19.
  
 Gaussian, Inc.
 340 Quinnipiac St., Bldg. 40, Wallingford CT 06492
  
  
 ---------------------------------------------------------------
 Warning -- This program may not be used in any manner that
 competes with the business of Gaussian, Inc. or will provide
 assistance to any competitor of Gaussian, Inc.  The licensee
 of this program is prohibited from giving any competitor of
 Gaussian, Inc. access to this program.  By using this program,
 the user acknowledges that Gaussian, Inc. is engaged in the
 business of creating and licensing software in the field of
 computational chemistry and represents and warrants to the
 licensee that it is not a competitor of Gaussian, Inc. and that
 it will not use this program in any manner prohibited above.
 ---------------------------------------------------------------
  

 Cite this work as:
 Gaussian 16, Revision C.01,
 M. J. Frisch, G. W. Trucks, H. B. Schlegel, G. E. Scuseria, 
 M. A. Robb, J. R. Cheeseman, G. Scalmani, V. Barone, 
 G. A. Petersson, H. Nakatsuji, X. Li, M. Caricato, A. V. Marenich, 
 J. Bloino, B. G. Janesko, R. Gomperts, B. Mennucci, H. P. Hratchian, 
 J. V. Ortiz, A. F. Izmaylov, J. L. Sonnenberg, D. Williams-Young, 
 F. Ding, F. Lipparini, F. Egidi, J. Goings, B. Peng, A. Petrone, 
 T. Henderson, D. Ranasinghe, V. G. Zakrzewski, J. Gao, N. Rega, 
 G. Zheng, W. Liang, M. Hada, M. Ehara, K. Toyota, R. Fukuda, 
 J. Hasegawa, M. Ishida, T. Nakajima, Y. Honda, O. Kitao, H. Nakai, 
 T. Vreven, K. Throssell, J. A. Montgomery, Jr., J. E. Peralta, 
 F. Ogliaro, M. J. Bearpark, J. J. Heyd, E. N. Brothers, K. N. Kudin, 
 V. N. Staroverov, T. A. Keith, R. Kobayashi, J. Normand, 
 K. Raghavachari, A. P. Rendell, J. C. Burant, S. S. Iyengar, 
 J. Tomasi, M. Cossi, J. M. Millam, M. Klene, C. Adamo, R. Cammi, 
 J. W. Ochterski, R. L. Martin, K. Morokuma, O. Farkas, 
 J. B. Foresman, and D. J. Fox, Gaussian, Inc., Wallingford CT, 2019.
 
 ******************************************
 Gaussian 16:  ES64L-G16RevC.01  3-Jul-2019
                27-Oct-2020 
 ******************************************
 %chk=config_10_5.chk
 %mem=58GB
 %nprocshared=10
 Will use up to   10 processors via shared memory.
 ----------------------------------------------------------------------
 #p opt=addgic freq wb97xd/cc-pvdz nosymm int=ultrafine scrf=(solvent=C
 arbonTetraChloride)
 ----------------------------------------------------------------------
 1/18=20,19=15,26=6,38=1,145=903/1,3;
 2/9=110,12=2,15=1,17=6,18=5,40=1/2;
 3/5=16,11=2,25=1,30=1,70=2201,71=1,72=11,74=-58,75=-5/1,2,3;
 4//1;
 5/5=2,38=5,53=11/2;
 6/7=2,8=2,9=2,10=2,28=1/1;
 7/30=1/1,2,3,16;
 1/18=20,19=15,26=6,145=903/3(2);
 2/9=110,15=1/2;
 99//99;
 2/9=110,15=1/2;
 3/5=16,11=2,25=1,30=1,70=2205,71=1,72=11,74=-58,75=-5/1,2,3;
 4/5=5,16=3,69=1/1;
 5/5=2,38=5,53=11/2;
 7/30=1/1,2,3,16;
 1/18=20,19=15,26=6,145=903/3(-5);
 2/9=110,15=1/2;
 6/7=2,8=2,9=2,10=2,19=2,28=1/1;
 99/9=1/99;
 Leave Link    1 at Tue Oct 27 21:23:59 2020, MaxMem=  7784628224 cpu:               3.9 elap:               0.4
 (Enter /gpfs/loomis/apps/avx/software/Gaussian/16-C.01_AVX/g16/l101.exe)
 ------------------------------------------------
 NM 2D-scan of HBT TD-WB97XD pVDZ in CTC Relaxed.
 ------------------------------------------------
 Symbolic Z-matrix:
 Charge =  0 Multiplicity = 1
 C                     1.70662  -3.26363  -0.00002 
 C                     1.00743  -2.05581  -0.00002 
 C                     1.69972  -0.81832  -0.00002 
 C                     3.09737  -0.78924  -0.00002 
 C                     3.78506  -1.9964   -0.00002 
 C                     3.10294  -3.22102  -0.00002 
 H                     1.17796  -4.21833  -0.00002 
 H                     3.62125   0.16757  -0.00002 
 H                     4.87669  -1.98786  -0.00002 
 H                     3.66705  -4.15487  -0.00002 
 N                     0.86689   0.27073  -0.00002 
 S                    -0.73926  -1.78918  -0.00002 
 C                    -1.40774   1.01921   0. 
 C                    -2.7855    0.85757  -0.00001 
 C                    -0.85492   2.40747   0.00003 
 C                    -3.64883   1.98306   0.00002 
 H                    -3.22294  -0.14453  -0.00003 
 C                    -1.7717    3.49728   0.00006 
 C                    -3.14966   3.28932   0.00006 
 H                    -4.72693   1.81362   0.00002 
 H                    -1.33144   4.4961    0.00008 
 H                    -3.8356    4.1371    0.00008 
 C                    -0.4533   -0.04716  -0.00001 
 O                     0.3943    2.61254   0.00003 
 H                     1.02397   1.15862  0. 
 
 Initializing the GIC definitions file.
 Number of initial coordinates =   134
 Number of input entries/lines =    52
 Number of additional coordinates =     2
 Number of removed coordinates =     0
 Number of frozen coordinates =     2
 Number of final active and frozen coordinates =   136
 ITRead=  0  0  0  0  0  0  0  0  0  0  0  0  0  0  0  0  0  0  0  0
 ITRead=  0  0  0  0  0
 MicOpt= -1 -1 -1 -1 -1 -1 -1 -1 -1 -1 -1 -1 -1 -1 -1 -1 -1 -1 -1 -1
 MicOpt= -1 -1 -1 -1 -1
 NAtoms=     25 NQM=       25 NQMF=       0 NMMI=      0 NMMIF=      0
                NMic=       0 NMicF=      0.
                    Isotopes and Nuclear Properties:
 (Nuclear quadrupole moments (NQMom) in fm**2, nuclear magnetic moments (NMagM)
  in nuclear magnetons)

  Atom         1           2           3           4           5           6           7           8           9          10
 IAtWgt=          12          12          12          12          12          12           1           1           1           1
 AtmWgt=  12.0000000  12.0000000  12.0000000  12.0000000  12.0000000  12.0000000   1.0078250   1.0078250   1.0078250   1.0078250
 NucSpn=           0           0           0           0           0           0           1           1           1           1
 AtZEff=  -0.0000000  -0.0000000  -0.0000000  -0.0000000  -0.0000000  -0.0000000  -0.0000000  -0.0000000  -0.0000000  -0.0000000
 NQMom=    0.0000000   0.0000000   0.0000000   0.0000000   0.0000000   0.0000000   0.0000000   0.0000000   0.0000000   0.0000000
 NMagM=    0.0000000   0.0000000   0.0000000   0.0000000   0.0000000   0.0000000   2.7928460   2.7928460   2.7928460   2.7928460
 AtZNuc=   6.0000000   6.0000000   6.0000000   6.0000000   6.0000000   6.0000000   1.0000000   1.0000000   1.0000000   1.0000000

  Atom        11          12          13          14          15          16          17          18          19          20
 IAtWgt=          14          32          12          12          12          12           1          12          12           1
 AtmWgt=  14.0030740  31.9720718  12.0000000  12.0000000  12.0000000  12.0000000   1.0078250  12.0000000  12.0000000   1.0078250
 NucSpn=           2           0           0           0           0           0           1           0           0           1
 AtZEff=  -0.0000000  -0.0000000  -0.0000000  -0.0000000  -0.0000000  -0.0000000  -0.0000000  -0.0000000  -0.0000000  -0.0000000
 NQMom=    2.0440000   0.0000000   0.0000000   0.0000000   0.0000000   0.0000000   0.0000000   0.0000000   0.0000000   0.0000000
 NMagM=    0.4037610   0.0000000   0.0000000   0.0000000   0.0000000   0.0000000   2.7928460   0.0000000   0.0000000   2.7928460
 AtZNuc=   7.0000000  16.0000000   6.0000000   6.0000000   6.0000000   6.0000000   1.0000000   6.0000000   6.0000000   1.0000000

  Atom        21          22          23          24          25
 IAtWgt=           1           1          12          16           1
 AtmWgt=   1.0078250   1.0078250  12.0000000  15.9949146   1.0078250
 NucSpn=           1           1           0           0           1
 AtZEff=  -0.0000000  -0.0000000  -0.0000000  -0.0000000  -0.0000000
 NQMom=    0.0000000   0.0000000   0.0000000   0.0000000   0.0000000
 NMagM=    2.7928460   2.7928460   0.0000000   0.0000000   2.7928460
 AtZNuc=   1.0000000   1.0000000   6.0000000   8.0000000   1.0000000
 Leave Link  101 at Tue Oct 27 21:24:02 2020, MaxMem=  7784628224 cpu:              32.3 elap:               3.3
 (Enter /gpfs/loomis/apps/avx/software/Gaussian/16-C.01_AVX/g16/l103.exe)

 GradGradGradGradGradGradGradGradGradGradGradGradGradGradGradGradGradGrad
 Berny optimization.
 Initialization pass.
                           ----------------------------
                           !    Initial Parameters    !
                           ! (Angstroms and Degrees)  !
 --------------------------                            --------------------------
 ! Name  Definition              Value          Derivative Info.                !
 --------------------------------------------------------------------------------
 ! R1    R(1,2)                  1.3956         estimate D2E/DX2                !
 ! R2    R(1,6)                  1.397          estimate D2E/DX2                !
 ! R3    R(1,7)                  1.0913         estimate D2E/DX2                !
 ! R4    R(2,3)                  1.418          estimate D2E/DX2                !
 ! R5    R(2,12)                 1.7669         estimate D2E/DX2                !
 ! R6    R(3,4)                  1.398          estimate D2E/DX2                !
 ! R7    R(3,11)                 1.371          estimate D2E/DX2                !
 ! R8    R(4,5)                  1.3893         estimate D2E/DX2                !
 ! R9    R(4,8)                  1.0908         estimate D2E/DX2                !
 ! R10   R(5,6)                  1.4018         estimate D2E/DX2                !
 ! R11   R(5,9)                  1.0917         estimate D2E/DX2                !
 ! R12   R(6,10)                 1.091          estimate D2E/DX2                !
 ! R13   R(11,23)                1.3579         estimate D2E/DX2                !
 ! R14   R(11,25)                0.9017         estimate D2E/DX2                !
 ! R15   R(12,23)                1.7653         estimate D2E/DX2                !
 ! R16   R(13,14)                1.3872         estimate D2E/DX2                !
 ! R17   R(13,15)                1.4943         estimate D2E/DX2                !
 ! R18   R(13,23)                1.4311         estimate D2E/DX2                !
 ! R19   R(14,16)                1.4185         estimate D2E/DX2                !
 ! R20   R(14,17)                1.0934         estimate D2E/DX2                !
 ! R21   R(15,18)                1.4241         estimate D2E/DX2                !
 ! R22   R(15,24)                1.2659         estimate D2E/DX2                !
 ! R23   R(16,19)                1.3984         estimate D2E/DX2                !
 ! R24   R(16,20)                1.0913         estimate D2E/DX2                !
 ! R25   R(18,19)                1.3936         estimate D2E/DX2                !
 ! R26   R(18,21)                1.0915         estimate D2E/DX2                !
 ! R27   R(19,22)                1.0905         estimate D2E/DX2                !
 ! A1    A(2,1,6)              118.3176         estimate D2E/DX2                !
 ! A2    A(2,1,7)              120.9594         estimate D2E/DX2                !
 ! A3    A(6,1,7)              120.723          estimate D2E/DX2                !
 ! A4    A(1,2,3)              120.7105         estimate D2E/DX2                !
 ! A5    A(1,2,12)             128.7446         estimate D2E/DX2                !
 ! A6    A(3,2,12)             110.545          estimate D2E/DX2                !
 ! A7    A(2,3,4)              120.4155         estimate D2E/DX2                !
 ! A8    A(2,3,11)             113.37           estimate D2E/DX2                !
 ! A9    A(4,3,11)             126.2145         estimate D2E/DX2                !
 ! A10   A(3,4,5)              118.4774         estimate D2E/DX2                !
 ! A11   A(3,4,8)              119.8934         estimate D2E/DX2                !
 ! A12   A(5,4,8)              121.6292         estimate D2E/DX2                !
 ! A13   A(4,5,6)              121.2127         estimate D2E/DX2                !
 ! A14   A(4,5,9)              119.2204         estimate D2E/DX2                !
 ! A15   A(6,5,9)              119.5669         estimate D2E/DX2                !
 ! A16   A(1,6,5)              120.8663         estimate D2E/DX2                !
 ! A17   A(1,6,10)             119.3869         estimate D2E/DX2                !
 ! A18   A(5,6,10)             119.7468         estimate D2E/DX2                !
 ! A19   A(3,11,23)            113.8674         estimate D2E/DX2                !
 ! A20   A(3,11,25)            132.5616         estimate D2E/DX2                !
 ! A21   A(23,11,25)           113.5711         estimate D2E/DX2                !
 ! A22   A(2,12,23)             89.3565         estimate D2E/DX2                !
 ! A23   A(14,13,15)           118.4045         estimate D2E/DX2                !
 ! A24   A(14,13,23)           125.1385         estimate D2E/DX2                !
 ! A25   A(15,13,23)           116.4571         estimate D2E/DX2                !
 ! A26   A(13,14,16)           120.7995         estimate D2E/DX2                !
 ! A27   A(13,14,17)           120.274          estimate D2E/DX2                !
 ! A28   A(16,14,17)           118.9265         estimate D2E/DX2                !
 ! A29   A(13,15,18)           118.2158         estimate D2E/DX2                !
 ! A30   A(13,15,24)           121.0356         estimate D2E/DX2                !
 ! A31   A(18,15,24)           120.7487         estimate D2E/DX2                !
 ! A32   A(14,16,19)           121.5955         estimate D2E/DX2                !
 ! A33   A(14,16,20)           118.5592         estimate D2E/DX2                !
 ! A34   A(19,16,20)           119.8453         estimate D2E/DX2                !
 ! A35   A(15,18,19)           121.4886         estimate D2E/DX2                !
 ! A36   A(15,18,21)           116.1422         estimate D2E/DX2                !
 ! A37   A(19,18,21)           122.3693         estimate D2E/DX2                !
 ! A38   A(16,19,18)           119.4962         estimate D2E/DX2                !
 ! A39   A(16,19,22)           120.1101         estimate D2E/DX2                !
 ! A40   A(18,19,22)           120.3937         estimate D2E/DX2                !
 ! A41   A(11,23,12)           112.8612         estimate D2E/DX2                !
 ! A42   A(11,23,13)           118.2911         estimate D2E/DX2                !
 ! A43   A(12,23,13)           128.8478         estimate D2E/DX2                !
 ! D1    D(6,1,2,3)              0.0            estimate D2E/DX2                !
 ! D2    D(6,1,2,12)          -179.9999         estimate D2E/DX2                !
 ! D3    D(7,1,2,3)            179.9999         estimate D2E/DX2                !
 ! D4    D(7,1,2,12)             0.0            estimate D2E/DX2                !
 ! D5    D(2,1,6,5)              0.0            estimate D2E/DX2                !
 ! D6    D(2,1,6,10)           180.0            estimate D2E/DX2                !
 ! D7    D(7,1,6,5)           -179.9999         estimate D2E/DX2                !
 ! D8    D(7,1,6,10)             0.0            estimate D2E/DX2                !
 ! D9    D(1,2,3,4)              0.0            estimate D2E/DX2                !
 ! D10   D(1,2,3,11)           180.0            estimate D2E/DX2                !
 ! D11   D(12,2,3,4)           180.0            estimate D2E/DX2                !
 ! D12   D(12,2,3,11)           -0.0001         estimate D2E/DX2                !
 ! D13   D(1,2,12,23)          179.9999         estimate D2E/DX2                !
 ! D14   D(3,2,12,23)            0.0            estimate D2E/DX2                !
 ! D15   D(2,3,4,5)              0.0            estimate D2E/DX2                !
 ! D16   D(2,3,4,8)            180.0            estimate D2E/DX2                !
 ! D17   D(11,3,4,5)          -180.0            estimate D2E/DX2                !
 ! D18   D(11,3,4,8)             0.0001         estimate D2E/DX2                !
 ! D19   D(2,3,11,23)            0.0002         estimate D2E/DX2                !
 ! D20   D(2,3,11,25)          179.9988         estimate D2E/DX2                !
 ! D21   D(4,3,11,23)         -179.9998         estimate D2E/DX2                !
 ! D22   D(4,3,11,25)           -0.0012         estimate D2E/DX2                !
 ! D23   D(3,4,5,6)              0.0            estimate D2E/DX2                !
 ! D24   D(3,4,5,9)           -180.0            estimate D2E/DX2                !
 ! D25   D(8,4,5,6)           -180.0            estimate D2E/DX2                !
 ! D26   D(8,4,5,9)              0.0            estimate D2E/DX2                !
 ! D27   D(4,5,6,1)              0.0            estimate D2E/DX2                !
 ! D28   D(4,5,6,10)          -180.0            estimate D2E/DX2                !
 ! D29   D(9,5,6,1)            180.0            estimate D2E/DX2                !
 ! D30   D(9,5,6,10)             0.0            estimate D2E/DX2                !
 ! D31   D(3,11,23,12)          -0.0002         estimate D2E/DX2                !
 ! D32   D(3,11,23,13)         179.9993         estimate D2E/DX2                !
 ! D33   D(25,11,23,12)       -179.9991         estimate D2E/DX2                !
 ! D34   D(25,11,23,13)          0.0004         estimate D2E/DX2                !
 ! D35   D(2,12,23,11)           0.0002         estimate D2E/DX2                !
 ! D36   D(2,12,23,13)        -179.9993         estimate D2E/DX2                !
 ! D37   D(15,13,14,16)         -0.0004         estimate D2E/DX2                !
 ! D38   D(15,13,14,17)        179.9997         estimate D2E/DX2                !
 ! D39   D(23,13,14,16)        179.9995         estimate D2E/DX2                !
 ! D40   D(23,13,14,17)         -0.0004         estimate D2E/DX2                !
 ! D41   D(14,13,15,18)          0.0004         estimate D2E/DX2                !
 ! D42   D(14,13,15,24)       -179.9996         estimate D2E/DX2                !
 ! D43   D(23,13,15,18)       -179.9995         estimate D2E/DX2                !
 ! D44   D(23,13,15,24)          0.0004         estimate D2E/DX2                !
 ! D45   D(14,13,23,11)        179.9993         estimate D2E/DX2                !
 ! D46   D(14,13,23,12)         -0.0012         estimate D2E/DX2                !
 ! D47   D(15,13,23,11)         -0.0008         estimate D2E/DX2                !
 ! D48   D(15,13,23,12)        179.9987         estimate D2E/DX2                !
 ! D49   D(13,14,16,19)          0.0001         estimate D2E/DX2                !
 ! D50   D(13,14,16,20)       -179.9998         estimate D2E/DX2                !
 ! D51   D(17,14,16,19)       -180.0            estimate D2E/DX2                !
 ! D52   D(17,14,16,20)          0.0001         estimate D2E/DX2                !
 ! D53   D(13,15,18,19)         -0.0001         estimate D2E/DX2                !
 ! D54   D(13,15,18,21)        179.9998         estimate D2E/DX2                !
 ! D55   D(24,15,18,19)        180.0            estimate D2E/DX2                !
 ! D56   D(24,15,18,21)         -0.0001         estimate D2E/DX2                !
 ! D57   D(14,16,19,18)          0.0002         estimate D2E/DX2                !
 ! D58   D(14,16,19,22)       -179.9998         estimate D2E/DX2                !
 ! D59   D(20,16,19,18)       -179.9998         estimate D2E/DX2                !
 ! D60   D(20,16,19,22)          0.0001         estimate D2E/DX2                !
 ! D61   D(15,18,19,16)         -0.0002         estimate D2E/DX2                !
 ! D62   D(15,18,19,22)        179.9998         estimate D2E/DX2                !
 ! D63   D(21,18,19,16)        179.9999         estimate D2E/DX2                !
 ! D64   D(21,18,19,22)          0.0            estimate D2E/DX2                !
 ! Qtot  GIC-1                  40.0            Frozen                          !
 ! Ptot  GIC-2                 -60.0            Frozen                          !
 --------------------------------------------------------------------------------
 NOTE: GIC-type coordinates are in arbitrary units.
 Trust Radius=3.00D-01 FncErr=5.00D-06 GrdErr=5.00D-06 EigMax=2.50D+02 EigMin=1.00D-04
 Number of steps in this run=    146 maximum allowed number of steps=    150.
 GradGradGradGradGradGradGradGradGradGradGradGradGradGradGradGradGradGrad

 Leave Link  103 at Tue Oct 27 21:24:02 2020, MaxMem=  7784628224 cpu:               0.1 elap:               0.0
 (Enter /gpfs/loomis/apps/avx/software/Gaussian/16-C.01_AVX/g16/l202.exe)
                          Input orientation:                          
 ---------------------------------------------------------------------
 Center     Atomic      Atomic             Coordinates (Angstroms)
 Number     Number       Type             X           Y           Z
 ---------------------------------------------------------------------
      1          6           0        1.706616   -3.263630   -0.000023
      2          6           0        1.007433   -2.055806   -0.000021
      3          6           0        1.699720   -0.818316   -0.000020
      4          6           0        3.097371   -0.789244   -0.000020
      5          6           0        3.785058   -1.996404   -0.000022
      6          6           0        3.102935   -3.221017   -0.000024
      7          1           0        1.177965   -4.218326   -0.000023
      8          1           0        3.621252    0.167573   -0.000019
      9          1           0        4.876686   -1.987856   -0.000022
     10          1           0        3.667052   -4.154875   -0.000025
     11          7           0        0.866895    0.270733   -0.000019
     12         16           0       -0.739261   -1.789180   -0.000019
     13          6           0       -1.407744    1.019212    0.000002
     14          6           0       -2.785497    0.857575   -0.000006
     15          6           0       -0.854922    2.407467    0.000031
     16          6           0       -3.648828    1.983061    0.000023
     17          1           0       -3.222945   -0.144529   -0.000033
     18          6           0       -1.771695    3.497284    0.000060
     19          6           0       -3.149662    3.289315    0.000058
     20          1           0       -4.726930    1.813624    0.000019
     21          1           0       -1.331443    4.496098    0.000084
     22          1           0       -3.835604    4.137101    0.000083
     23          6           0       -0.453295   -0.047162   -0.000015
     24          8           0        0.394304    2.612538    0.000033
     25          1           0        1.023969    1.158621   -0.000004
 ---------------------------------------------------------------------
                    Distance matrix (angstroms):
                    1          2          3          4          5
     1  C    0.000000
     2  C    1.395599   0.000000
     3  C    2.445324   1.417971   0.000000
     4  C    2.838447   2.443771   1.397953   0.000000
     5  C    2.434293   2.778260   2.395104   1.389298   0.000000
     6  C    1.396969   2.397675   2.782442   2.431779   1.401773
     7  H    1.091291   2.169234   3.439811   3.929723   3.425474
     8  H    3.929247   3.431539   2.159690   1.090848   2.170167
     9  H    3.417154   3.869849   3.385400   2.145374   1.091661
    10  H    2.153515   3.388166   3.873373   3.413504   2.161695
    11  N    3.632747   2.330779   1.370994   2.469529   3.695346
    12  S    2.855927   1.766927   2.625111   3.964797   4.529062
    13  C    5.295468   3.910091   3.610103   4.854542   6.004926
    14  C    6.096180   4.782688   4.788088   6.109022   7.163616
    15  C    6.222766   4.836235   4.114836   5.083265   6.397147
    16  C    7.497236   6.163864   6.037772   7.293619   8.432011
    17  H    5.833469   4.642098   4.968563   6.353113   7.248554
    18  C    7.603197   6.209699   5.538513   6.487074   7.813969
    19  C    8.156257   6.771392   6.355245   7.460567   8.719470
    20  H    8.195671   6.917760   6.944706   8.245884   9.325784
    21  H    8.333257   6.956851   6.118083   6.895595   8.266266
    22  H    9.245919   7.861749   7.429399   8.504999   9.782350
    23  C    3.874388   2.483621   2.286953   3.627384   4.665102
    24  O    6.020923   4.708435   3.670813   4.344962   5.721849
    25  H    4.474629   3.214469   2.089239   2.844850   4.192588
                    6          7          8          9         10
     6  C    0.000000
     7  H    2.167980   0.000000
     8  H    3.428001   5.020534   0.000000
     9  H    2.160295   4.319205   2.494391   0.000000
    10  H    1.091017   2.489896   4.322690   2.481771   0.000000
    11  N    4.146347   4.499824   2.756288   4.602135   5.237068
    12  S    4.100321   3.094593   4.779431   5.619460   5.001211
    13  C    6.190781   5.841036   5.100597   6.966815   7.247395
    14  C    7.162998   6.440016   6.443798   8.173464   8.170682
    15  C    6.880731   6.930639   5.005323   7.222893   7.969478
    16  C    8.524596   7.858444   7.493335   9.404923   9.549679
    17  H    7.034311   5.996985   6.851309   8.306736   7.972134
    18  C    8.300457   8.260214   6.338049   8.619033   9.388051
    19  C    9.026593   8.665623   7.455907   9.605768  10.093738
    20  H    9.308835   8.441102   8.508915  10.328634  10.299608
    21  H    8.900425   9.068534   6.577638   8.976776   9.991210
    22  H   10.113616   9.744179   8.447595  10.649840  11.182429
    23  C    4.766564   4.478796   4.080202   5.672300   5.818124
    24  O    6.431722   6.875669   4.048586   6.423034   7.517231
    25  H    4.848023   5.379152   2.779938   4.974308   5.934570
                   11         12         13         14         15
    11  N    0.000000
    12  S    2.612083   0.000000
    13  C    2.394620   2.886856   0.000000
    14  C    3.699237   3.345504   1.387203   0.000000
    15  C    2.744137   4.198241   1.494276   2.475739   0.000000
    16  C    4.829475   4.763968   2.439562   1.418471   2.825957
    17  H    4.110867   2.978852   2.156212   1.093423   3.481410
    18  C    4.168068   5.386337   2.504656   2.827695   1.424140
    19  C    5.024397   5.621490   2.861406   2.458857   2.458350
    20  H    5.802706   5.374170   3.412929   2.164068   3.917281
    21  H    4.763024   6.313113   3.477723   3.918306   2.142301
    22  H    6.087881   6.686415   3.951675   3.443547   3.446171
    23  C    1.357925   1.765334   1.431128   2.501542   2.487269
    24  O    2.389016   4.545338   2.405424   3.631946   1.265947
    25  H    0.901675   3.434896   2.435706   3.821343   2.256070
                   16         17         18         19         20
    16  C    0.000000
    17  H    2.169797   0.000000
    18  C    2.411742   3.920322   0.000000
    19  C    1.398380   3.434626   1.393572   0.000000
    20  H    1.091335   2.469076   3.401194   2.159963   0.000000
    21  H    3.418425   5.011307   1.091536   2.182256   4.327239
    22  H    2.162122   4.325241   2.160806   1.090531   2.488575
    23  C    3.785926   2.771360   3.781703   4.289810   4.661167
    24  O    4.091841   4.548177   2.339729   3.608008   5.183175
    25  H    4.744970   4.442351   3.644871   4.686049   5.788080
                   21         22         23         24         25
    21  H    0.000000
    22  H    2.529763   0.000000
    23  C    4.627349   5.380341   0.000000
    24  O    2.554604   4.496267   2.791493   0.000000
    25  H    4.084938   5.699719   1.906888   1.584410   0.000000
 Symmetry turned off by external request.
 Stoichiometry    C13H9NOS
 Framework group  C1[X(C13H9NOS)]
 Deg. of freedom    69
 Full point group                 C1      NOp   1
 Rotational constants (GHZ):           1.3729888           0.2856204           0.2364352
 Leave Link  202 at Tue Oct 27 21:24:02 2020, MaxMem=  7784628224 cpu:               0.1 elap:               0.0
 (Enter /gpfs/loomis/apps/avx/software/Gaussian/16-C.01_AVX/g16/l301.exe)
 Standard basis: CC-pVDZ (5D, 7F)
 Ernie: Thresh=  0.10000D-02 Tol=  0.10000D-05 Strict=F.
 Ernie:  40 primitive shells out of 425 were deleted.
   273 basis functions,   629 primitive gaussians,   289 cartesian basis functions
    59 alpha electrons       59 beta electrons
       nuclear repulsion energy      1098.2555563035 Hartrees.
 IExCor= 4639 DFT=T Ex+Corr=wB97XD ExCW=0 ScaHFX=  1.000000
 ScaDFX=  1.000000  1.000000  1.000000  1.000000 ScalE2=  1.000000  1.000000
 IRadAn=      5 IRanWt=     -1 IRanGd=            0 ICorTp=0 IEmpDi=121
 HFx  wShort=  0.000000 wLong=  0.200000 cFull=  0.222036 cShort=  0.000000 cLong=  0.777964
 DFx  wShort=  0.000000 wLong=  0.200000 cFull=  0.000000 cShort=  0.000000 cLong=  1.000000
 NAtoms=   25 NActive=   25 NUniq=   25 SFac= 1.00D+00 NAtFMM=   60 NAOKFM=F Big=F
 Integral buffers will be    131072 words long.
 Raffenetti 2 integral format.
 Two-electron integral symmetry is turned off.
 R6Disp:  Grimme-D2 Dispersion energy=       -0.0140864723 Hartrees.
 Nuclear repulsion after empirical dispersion term =     1098.2414698312 Hartrees.
 ------------------------------------------------------------------------------
 Polarizable Continuum Model (PCM)
 =================================
 Model                : PCM.
 Atomic radii         : UFF (Universal Force Field).
 Polarization charges : Total charges.
 Charge compensation  : None.
 Solution method      : On-the-fly selection.
 Cavity type          : Scaled VdW (van der Waals Surface) (Alpha=1.100).
 Cavity algorithm     : GePol (No added spheres)
                        Default sphere list used, NSphG=   25.
                        Lebedev-Laikov grids with approx.  5.0 points / Ang**2.
                        Smoothing algorithm: York/Karplus (Gamma=1.0000).
                        Polarization charges: spherical gaussians, with
                                              point-specific exponents (IZeta= 3).
                        Self-potential: point-specific (ISelfS= 7).
                        Self-field    : sphere-specific E.n sum rule (ISelfD= 2).
 1st derivatives      : Analytical E(r).r(x)/FMM algorithm (CHGder, D1EAlg=3).
                        Cavity 1st derivative terms included.
 Solvent              : CarbonTetraChloride, Eps=   2.228000 Eps(inf)=   2.131892
 ------------------------------------------------------------------------------
 GePol: Number of generator spheres                  =      25
 GePol: Total number of spheres                      =      25
 GePol: Number of exposed spheres                    =      25 (100.00%)
 GePol: Number of points                             =    2205
 GePol: Average weight of points                     =       0.12
 GePol: Minimum weight of points                     =   0.17D-10
 GePol: Maximum weight of points                     =    0.20577
 GePol: Number of points with low weight             =     167
 GePol: Fraction of low-weight points (<1% of avg)   =       7.57%
 GePol: Cavity surface area                          =    274.603 Ang**2
 GePol: Cavity volume                                =    293.647 Ang**3
 Leave Link  301 at Tue Oct 27 21:24:03 2020, MaxMem=  7784628224 cpu:               1.0 elap:               0.1
 (Enter /gpfs/loomis/apps/avx/software/Gaussian/16-C.01_AVX/g16/l302.exe)
 NPDir=0 NMtPBC=     1 NCelOv=     1 NCel=       1 NClECP=     1 NCelD=      1
         NCelK=      1 NCelE2=     1 NClLst=     1 CellRange=     0.0.
 One-electron integrals computed using PRISM.
 NBasis=   273 RedAO= T EigKep=  3.05D-04  NBF=   273
 NBsUse=   273 1.00D-06 EigRej= -1.00D+00 NBFU=   273
 Precomputing XC quadrature grid using
 IXCGrd= 4 IRadAn=           5 IRanWt=          -1 IRanGd=           0 AccXCQ= 0.00D+00.
 Generated NRdTot=       0 NPtTot=           0 NUsed=           0 NTot=          32
 NSgBfM=   288   288   288   288   288 MxSgAt=    25 MxSgA2=    25.
 Leave Link  302 at Tue Oct 27 21:24:03 2020, MaxMem=  7784628224 cpu:               2.6 elap:               0.3
 (Enter /gpfs/loomis/apps/avx/software/Gaussian/16-C.01_AVX/g16/l303.exe)
 DipDrv:  MaxL=1.
 Leave Link  303 at Tue Oct 27 21:24:03 2020, MaxMem=  7784628224 cpu:               0.4 elap:               0.1
 (Enter /gpfs/loomis/apps/avx/software/Gaussian/16-C.01_AVX/g16/l401.exe)
 ExpMin= 1.22D-01 ExpMax= 1.11D+05 ExpMxC= 1.07D+03 IAcc=3 IRadAn=         5 AccDes= 0.00D+00
 Harris functional with IExCor= 4639 and IRadAn=       5 diagonalized for initial guess.
 HarFok:  IExCor= 4639 AccDes= 0.00D+00 IRadAn=         5 IDoV= 1 UseB2=F ITyADJ=14
 ICtDFT=  3500011 ScaDFX=  1.000000  1.000000  1.000000  1.000000
 FoFCou: FMM=F IPFlag=           0 FMFlag=      100000 FMFlg1=           0
         NFxFlg=           0 DoJE=T BraDBF=F KetDBF=T FulRan=T
         wScrn=  0.000000 ICntrl=       500 IOpCl=  0 I1Cent=   200000004 NGrid=           0
         NMat0=    1 NMatS0=      1 NMatT0=    0 NMatD0=    1 NMtDS0=    0 NMtDT0=    0
 Symmetry not used in FoFCou.
 Harris En= -994.429449972650    
 JPrj=0 DoOrth=F DoCkMO=F.
 Leave Link  401 at Tue Oct 27 21:24:05 2020, MaxMem=  7784628224 cpu:              13.9 elap:               1.4
 (Enter /gpfs/loomis/apps/avx/software/Gaussian/16-C.01_AVX/g16/l502.exe)
 Two-electron integral symmetry not used.
 Closed shell SCF:
 Using DIIS extrapolation, IDIIS=  1040.
 NGot=  7784628224 LenX=  7784455381 LenY=  7784371419
 Requested convergence on RMS density matrix=1.00D-08 within 128 cycles.
 Requested convergence on MAX density matrix=1.00D-06.
 Requested convergence on             energy=1.00D-06.
 No special actions if energy rises.
 Fock matrices will be formed incrementally for  20 cycles.

 Cycle   1  Pass 1  IDiag  1:
 FoFJK:  IHMeth= 1 ICntrl=       0 DoSepK=T KAlg= 0 I1Cent=           0 FoldK=F
 IRaf=         1 NMat=       1 IRICut=       1 DoRegI=T DoRafI=F ISym2E= 0 IDoP0=0 IntGTp=1.
 FoFCou: FMM=F IPFlag=           0 FMFlag=      100000 FMFlg1=           0
         NFxFlg=           0 DoJE=T BraDBF=F KetDBF=F FulRan=T
         wScrn=  0.000000 ICntrl=       500 IOpCl=  0 I1Cent=           0 NGrid=           0
         NMat0=    1 NMatS0=      1 NMatT0=    0 NMatD0=    1 NMtDS0=    0 NMtDT0=    0
 Symmetry not used in FoFCou.
 Inv3:  Mode=1 IEnd=    14586075.
 Iteration    1 A*A^-1 deviation from unit magnitude is 4.88D-15 for   2193.
 Iteration    1 A*A^-1 deviation from orthogonality  is 2.37D-15 for   2189   2012.
 Iteration    1 A^-1*A deviation from unit magnitude is 5.11D-15 for   2191.
 Iteration    1 A^-1*A deviation from orthogonality  is 2.03D-15 for   2202   2103.
 E= -1028.53280787964    
 DIIS: error= 3.95D-02 at cycle   1 NSaved=   1.
 NSaved= 1 IEnMin= 1 EnMin= -1028.53280787964     IErMin= 1 ErrMin= 3.95D-02
 ErrMax= 3.95D-02  0.00D+00 EMaxC= 1.00D-01 BMatC= 3.95D-01 BMatP= 3.95D-01
 IDIUse=3 WtCom= 6.05D-01 WtEn= 3.95D-01
 Coeff-Com:  0.100D+01
 Coeff-En:   0.100D+01
 Coeff:      0.100D+01
 Gap=     0.312 Goal=   None    Shift=    0.000
 GapD=    0.312 DampG=1.000 DampE=0.500 DampFc=0.5000 IDamp=-1.
 Damping current iteration by 5.00D-01
 RMSDP=3.66D-03 MaxDP=2.45D-01              OVMax= 2.08D-01

 Cycle   2  Pass 1  IDiag  1:
 RMSU=  1.83D-03    CP:  9.94D-01
 E= -1028.65469607517     Delta-E=       -0.121888195529 Rises=F Damp=T
 DIIS: error= 1.17D-02 at cycle   2 NSaved=   2.
 NSaved= 2 IEnMin= 2 EnMin= -1028.65469607517     IErMin= 2 ErrMin= 1.17D-02
 ErrMax= 1.17D-02  0.00D+00 EMaxC= 1.00D-01 BMatC= 5.84D-02 BMatP= 3.95D-01
 IDIUse=3 WtCom= 8.83D-01 WtEn= 1.17D-01
 Coeff-Com: -0.280D+00 0.128D+01
 Coeff-En:   0.000D+00 0.100D+01
 Coeff:     -0.247D+00 0.125D+01
 Gap=     0.281 Goal=   None    Shift=    0.000
 RMSDP=1.17D-03 MaxDP=2.71D-02 DE=-1.22D-01 OVMax= 1.47D-01

 Cycle   3  Pass 1  IDiag  1:
 RMSU=  1.13D-03    CP:  9.93D-01  1.16D+00
 E= -1028.76503878553     Delta-E=       -0.110342710357 Rises=F Damp=F
 DIIS: error= 7.02D-03 at cycle   3 NSaved=   3.
 NSaved= 3 IEnMin= 3 EnMin= -1028.76503878553     IErMin= 3 ErrMin= 7.02D-03
 ErrMax= 7.02D-03  0.00D+00 EMaxC= 1.00D-01 BMatC= 1.58D-02 BMatP= 5.84D-02
 IDIUse=3 WtCom= 9.30D-01 WtEn= 7.02D-02
 Coeff-Com: -0.204D+00 0.501D+00 0.703D+00
 Coeff-En:   0.000D+00 0.000D+00 0.100D+01
 Coeff:     -0.190D+00 0.465D+00 0.724D+00
 Gap=     0.236 Goal=   None    Shift=    0.000
 RMSDP=5.62D-04 MaxDP=1.91D-02 DE=-1.10D-01 OVMax= 4.72D-02

 Cycle   4  Pass 1  IDiag  1:
 RMSU=  4.44D-04    CP:  9.91D-01  1.32D+00  8.42D-01
 E= -1028.78061379440     Delta-E=       -0.015575008868 Rises=F Damp=F
 DIIS: error= 2.36D-03 at cycle   4 NSaved=   4.
 NSaved= 4 IEnMin= 4 EnMin= -1028.78061379440     IErMin= 4 ErrMin= 2.36D-03
 ErrMax= 2.36D-03  0.00D+00 EMaxC= 1.00D-01 BMatC= 1.94D-03 BMatP= 1.58D-02
 IDIUse=3 WtCom= 9.76D-01 WtEn= 2.36D-02
 Coeff-Com: -0.715D-01 0.141D+00 0.341D+00 0.589D+00
 Coeff-En:   0.000D+00 0.000D+00 0.000D+00 0.100D+01
 Coeff:     -0.698D-01 0.138D+00 0.333D+00 0.599D+00
 Gap=     0.238 Goal=   None    Shift=    0.000
 RMSDP=1.77D-04 MaxDP=1.01D-02 DE=-1.56D-02 OVMax= 1.41D-02

 Cycle   5  Pass 1  IDiag  1:
 RMSU=  1.13D-04    CP:  9.91D-01  1.33D+00  9.17D-01  7.66D-01
 E= -1028.78276360372     Delta-E=       -0.002149809321 Rises=F Damp=F
 DIIS: error= 5.61D-04 at cycle   5 NSaved=   5.
 NSaved= 5 IEnMin= 5 EnMin= -1028.78276360372     IErMin= 5 ErrMin= 5.61D-04
 ErrMax= 5.61D-04  0.00D+00 EMaxC= 1.00D-01 BMatC= 6.04D-05 BMatP= 1.94D-03
 IDIUse=3 WtCom= 9.94D-01 WtEn= 5.61D-03
 Coeff-Com:  0.250D-03-0.694D-02 0.218D-01 0.149D+00 0.836D+00
 Coeff-En:   0.000D+00 0.000D+00 0.000D+00 0.000D+00 0.100D+01
 Coeff:      0.249D-03-0.690D-02 0.217D-01 0.148D+00 0.837D+00
 Gap=     0.239 Goal=   None    Shift=    0.000
 RMSDP=6.04D-05 MaxDP=1.95D-03 DE=-2.15D-03 OVMax= 6.58D-03

 Cycle   6  Pass 1  IDiag  1:
 RMSU=  3.81D-05    CP:  9.91D-01  1.33D+00  9.34D-01  8.55D-01  1.12D+00
 E= -1028.78291102891     Delta-E=       -0.000147425186 Rises=F Damp=F
 DIIS: error= 2.44D-04 at cycle   6 NSaved=   6.
 NSaved= 6 IEnMin= 6 EnMin= -1028.78291102891     IErMin= 6 ErrMin= 2.44D-04
 ErrMax= 2.44D-04  0.00D+00 EMaxC= 1.00D-01 BMatC= 1.06D-05 BMatP= 6.04D-05
 IDIUse=3 WtCom= 9.98D-01 WtEn= 2.44D-03
 Coeff-Com:  0.174D-01-0.353D-01-0.694D-01-0.891D-01 0.185D+00 0.992D+00
 Coeff-En:   0.000D+00 0.000D+00 0.000D+00 0.000D+00 0.000D+00 0.100D+01
 Coeff:      0.174D-01-0.352D-01-0.693D-01-0.889D-01 0.184D+00 0.992D+00
 Gap=     0.240 Goal=   None    Shift=    0.000
 RMSDP=3.97D-05 MaxDP=1.82D-03 DE=-1.47D-04 OVMax= 4.70D-03

 Cycle   7  Pass 1  IDiag  1:
 RMSU=  1.81D-05    CP:  9.90D-01  1.33D+00  9.47D-01  8.92D-01  1.33D+00
                    CP:  1.38D+00
 E= -1028.78295194039     Delta-E=       -0.000040911481 Rises=F Damp=F
 DIIS: error= 7.46D-05 at cycle   7 NSaved=   7.
 NSaved= 7 IEnMin= 7 EnMin= -1028.78295194039     IErMin= 7 ErrMin= 7.46D-05
 ErrMax= 7.46D-05  0.00D+00 EMaxC= 1.00D-01 BMatC= 1.84D-06 BMatP= 1.06D-05
 IDIUse=1 WtCom= 1.00D+00 WtEn= 0.00D+00
 Coeff-Com:  0.557D-02-0.104D-01-0.230D-01-0.455D-01-0.262D-01 0.340D+00
 Coeff-Com:  0.759D+00
 Coeff:      0.557D-02-0.104D-01-0.230D-01-0.455D-01-0.262D-01 0.340D+00
 Coeff:      0.759D+00
 Gap=     0.240 Goal=   None    Shift=    0.000
 RMSDP=1.20D-05 MaxDP=4.32D-04 DE=-4.09D-05 OVMax= 1.56D-03

 Cycle   8  Pass 1  IDiag  1:
 RMSU=  6.84D-06    CP:  9.90D-01  1.33D+00  9.48D-01  8.96D-01  1.37D+00
                    CP:  1.59D+00  1.21D+00
 E= -1028.78295721755     Delta-E=       -0.000005277164 Rises=F Damp=F
 DIIS: error= 5.48D-05 at cycle   8 NSaved=   8.
 NSaved= 8 IEnMin= 8 EnMin= -1028.78295721755     IErMin= 8 ErrMin= 5.48D-05
 ErrMax= 5.48D-05  0.00D+00 EMaxC= 1.00D-01 BMatC= 3.88D-07 BMatP= 1.84D-06
 IDIUse=1 WtCom= 1.00D+00 WtEn= 0.00D+00
 Coeff-Com: -0.197D-02 0.414D-02 0.886D-02 0.567D-02-0.409D-01-0.126D+00
 Coeff-Com:  0.220D+00 0.930D+00
 Coeff:     -0.197D-02 0.414D-02 0.886D-02 0.567D-02-0.409D-01-0.126D+00
 Coeff:      0.220D+00 0.930D+00
 Gap=     0.240 Goal=   None    Shift=    0.000
 RMSDP=7.59D-06 MaxDP=1.80D-04 DE=-5.28D-06 OVMax= 1.23D-03

 Cycle   9  Pass 1  IDiag  1:
 RMSU=  2.91D-06    CP:  9.90D-01  1.33D+00  9.48D-01  8.95D-01  1.39D+00
                    CP:  1.70D+00  1.48D+00  1.23D+00
 E= -1028.78295887391     Delta-E=       -0.000001656358 Rises=F Damp=F
 DIIS: error= 1.81D-05 at cycle   9 NSaved=   9.
 NSaved= 9 IEnMin= 9 EnMin= -1028.78295887391     IErMin= 9 ErrMin= 1.81D-05
 ErrMax= 1.81D-05  0.00D+00 EMaxC= 1.00D-01 BMatC= 6.20D-08 BMatP= 3.88D-07
 IDIUse=1 WtCom= 1.00D+00 WtEn= 0.00D+00
 Coeff-Com: -0.981D-03 0.188D-02 0.468D-02 0.659D-02-0.404D-02-0.772D-01
 Coeff-Com: -0.854D-01 0.179D+00 0.975D+00
 Coeff:     -0.981D-03 0.188D-02 0.468D-02 0.659D-02-0.404D-02-0.772D-01
 Coeff:     -0.854D-01 0.179D+00 0.975D+00
 Gap=     0.240 Goal=   None    Shift=    0.000
 RMSDP=3.94D-06 MaxDP=9.74D-05 DE=-1.66D-06 OVMax= 6.25D-04

 Cycle  10  Pass 1  IDiag  1:
 RMSU=  1.29D-06    CP:  9.90D-01  1.33D+00  9.48D-01  8.96D-01  1.40D+00
                    CP:  1.75D+00  1.59D+00  1.50D+00  1.38D+00
 E= -1028.78295921316     Delta-E=       -0.000000339253 Rises=F Damp=F
 DIIS: error= 9.95D-06 at cycle  10 NSaved=  10.
 NSaved=10 IEnMin=10 EnMin= -1028.78295921316     IErMin=10 ErrMin= 9.95D-06
 ErrMax= 9.95D-06  0.00D+00 EMaxC= 1.00D-01 BMatC= 1.59D-08 BMatP= 6.20D-08
 IDIUse=1 WtCom= 1.00D+00 WtEn= 0.00D+00
 Coeff-Com:  0.188D-03-0.439D-03-0.456D-03 0.579D-03 0.845D-02 0.102D-02
 Coeff-Com: -0.753D-01-0.120D+00 0.363D+00 0.823D+00
 Coeff:      0.188D-03-0.439D-03-0.456D-03 0.579D-03 0.845D-02 0.102D-02
 Coeff:     -0.753D-01-0.120D+00 0.363D+00 0.823D+00
 Gap=     0.240 Goal=   None    Shift=    0.000
 RMSDP=1.43D-06 MaxDP=3.68D-05 DE=-3.39D-07 OVMax= 2.64D-04

 Cycle  11  Pass 1  IDiag  1:
 RMSU=  4.83D-07    CP:  9.90D-01  1.33D+00  9.48D-01  8.96D-01  1.40D+00
                    CP:  1.76D+00  1.63D+00  1.59D+00  1.67D+00  1.17D+00
 E= -1028.78295927117     Delta-E=       -0.000000058005 Rises=F Damp=F
 DIIS: error= 2.65D-06 at cycle  11 NSaved=  11.
 NSaved=11 IEnMin=11 EnMin= -1028.78295927117     IErMin=11 ErrMin= 2.65D-06
 ErrMax= 2.65D-06  0.00D+00 EMaxC= 1.00D-01 BMatC= 2.55D-09 BMatP= 1.59D-08
 IDIUse=1 WtCom= 1.00D+00 WtEn= 0.00D+00
 Coeff-Com:  0.266D-03-0.537D-03-0.104D-02-0.125D-02 0.384D-02 0.150D-01
 Coeff-Com: -0.102D-01-0.753D-01-0.711D-01 0.205D+00 0.935D+00
 Coeff:      0.266D-03-0.537D-03-0.104D-02-0.125D-02 0.384D-02 0.150D-01
 Coeff:     -0.102D-01-0.753D-01-0.711D-01 0.205D+00 0.935D+00
 Gap=     0.240 Goal=   None    Shift=    0.000
 RMSDP=7.67D-07 MaxDP=2.24D-05 DE=-5.80D-08 OVMax= 1.18D-04

 Cycle  12  Pass 1  IDiag  1:
 RMSU=  2.38D-07    CP:  9.90D-01  1.33D+00  9.48D-01  8.96D-01  1.40D+00
                    CP:  1.77D+00  1.64D+00  1.64D+00  1.81D+00  1.44D+00
                    CP:  1.21D+00
 E= -1028.78295928121     Delta-E=       -0.000000010046 Rises=F Damp=F
 DIIS: error= 2.12D-06 at cycle  12 NSaved=  12.
 NSaved=12 IEnMin=12 EnMin= -1028.78295928121     IErMin=12 ErrMin= 2.12D-06
 ErrMax= 2.12D-06  0.00D+00 EMaxC= 1.00D-01 BMatC= 6.75D-10 BMatP= 2.55D-09
 IDIUse=1 WtCom= 1.00D+00 WtEn= 0.00D+00
 Coeff-Com:  0.111D-03-0.216D-03-0.457D-03-0.784D-03 0.876D-03 0.745D-02
 Coeff-Com:  0.612D-02-0.161D-01-0.820D-01-0.343D-01 0.444D+00 0.676D+00
 Coeff:      0.111D-03-0.216D-03-0.457D-03-0.784D-03 0.876D-03 0.745D-02
 Coeff:      0.612D-02-0.161D-01-0.820D-01-0.343D-01 0.444D+00 0.676D+00
 Gap=     0.240 Goal=   None    Shift=    0.000
 RMSDP=1.84D-07 MaxDP=8.81D-06 DE=-1.00D-08 OVMax= 2.81D-05

 Cycle  13  Pass 1  IDiag  1:
 RMSU=  9.54D-08    CP:  9.90D-01  1.33D+00  9.48D-01  8.96D-01  1.40D+00
                    CP:  1.77D+00  1.64D+00  1.65D+00  1.84D+00  1.49D+00
                    CP:  1.39D+00  8.32D-01
 E= -1028.78295928240     Delta-E=       -0.000000001186 Rises=F Damp=F
 DIIS: error= 5.92D-07 at cycle  13 NSaved=  13.
 NSaved=13 IEnMin=13 EnMin= -1028.78295928240     IErMin=13 ErrMin= 5.92D-07
 ErrMax= 5.92D-07  0.00D+00 EMaxC= 1.00D-01 BMatC= 9.98D-11 BMatP= 6.75D-10
 IDIUse=1 WtCom= 1.00D+00 WtEn= 0.00D+00
 Coeff-Com: -0.166D-04 0.357D-04 0.605D-04-0.241D-04-0.326D-03-0.118D-03
 Coeff-Com:  0.350D-02 0.777D-02-0.162D-01-0.541D-01-0.418D-01 0.262D+00
 Coeff-Com:  0.839D+00
 Coeff:     -0.166D-04 0.357D-04 0.605D-04-0.241D-04-0.326D-03-0.118D-03
 Coeff:      0.350D-02 0.777D-02-0.162D-01-0.541D-01-0.418D-01 0.262D+00
 Coeff:      0.839D+00
 Gap=     0.240 Goal=   None    Shift=    0.000
 RMSDP=1.00D-07 MaxDP=2.40D-06 DE=-1.19D-09 OVMax= 1.27D-05

 Cycle  14  Pass 1  IDiag  1:
 RMSU=  3.36D-08    CP:  9.90D-01  1.33D+00  9.48D-01  8.96D-01  1.40D+00
                    CP:  1.77D+00  1.64D+00  1.65D+00  1.86D+00  1.52D+00
                    CP:  1.46D+00  1.02D+00  1.07D+00
 E= -1028.78295928261     Delta-E=       -0.000000000211 Rises=F Damp=F
 DIIS: error= 1.35D-07 at cycle  14 NSaved=  14.
 NSaved=14 IEnMin=14 EnMin= -1028.78295928261     IErMin=14 ErrMin= 1.35D-07
 ErrMax= 1.35D-07  0.00D+00 EMaxC= 1.00D-01 BMatC= 6.12D-12 BMatP= 9.98D-11
 IDIUse=1 WtCom= 1.00D+00 WtEn= 0.00D+00
 Coeff-Com: -0.121D-04 0.243D-04 0.502D-04 0.503D-04-0.153D-03-0.633D-03
 Coeff-Com:  0.322D-03 0.362D-02 0.370D-02-0.828D-02-0.530D-01 0.247D-01
 Coeff-Com:  0.239D+00 0.791D+00
 Coeff:     -0.121D-04 0.243D-04 0.502D-04 0.503D-04-0.153D-03-0.633D-03
 Coeff:      0.322D-03 0.362D-02 0.370D-02-0.828D-02-0.530D-01 0.247D-01
 Coeff:      0.239D+00 0.791D+00
 Gap=     0.240 Goal=   None    Shift=    0.000
 RMSDP=1.73D-08 MaxDP=4.12D-07 DE=-2.11D-10 OVMax= 1.87D-06

 Cycle  15  Pass 1  IDiag  1:
 RMSU=  1.15D-08    CP:  9.90D-01  1.33D+00  9.48D-01  8.96D-01  1.40D+00
                    CP:  1.77D+00  1.64D+00  1.65D+00  1.86D+00  1.53D+00
                    CP:  1.46D+00  1.04D+00  1.17D+00  1.11D+00
 E= -1028.78295928262     Delta-E=       -0.000000000012 Rises=F Damp=F
 DIIS: error= 8.15D-08 at cycle  15 NSaved=  15.
 NSaved=15 IEnMin=15 EnMin= -1028.78295928262     IErMin=15 ErrMin= 8.15D-08
 ErrMax= 8.15D-08  0.00D+00 EMaxC= 1.00D-01 BMatC= 9.48D-13 BMatP= 6.12D-12
 IDIUse=1 WtCom= 1.00D+00 WtEn= 0.00D+00
 Coeff-Com: -0.240D-05 0.433D-05 0.117D-04 0.302D-04-0.102D-04-0.274D-03
 Coeff-Com: -0.574D-03-0.512D-04 0.408D-02 0.749D-02-0.151D-01-0.411D-01
 Coeff-Com: -0.728D-01 0.216D+00 0.903D+00
 Coeff:     -0.240D-05 0.433D-05 0.117D-04 0.302D-04-0.102D-04-0.274D-03
 Coeff:     -0.574D-03-0.512D-04 0.408D-02 0.749D-02-0.151D-01-0.411D-01
 Coeff:     -0.728D-01 0.216D+00 0.903D+00
 Gap=     0.240 Goal=   None    Shift=    0.000
 RMSDP=1.16D-08 MaxDP=3.44D-07 DE=-1.16D-11 OVMax= 1.65D-06

 Cycle  16  Pass 1  IDiag  1:
 RMSU=  4.53D-09    CP:  9.90D-01  1.33D+00  9.48D-01  8.96D-01  1.40D+00
                    CP:  1.77D+00  1.64D+00  1.65D+00  1.86D+00  1.53D+00
                    CP:  1.47D+00  1.06D+00  1.22D+00  1.29D+00  1.13D+00
 E= -1028.78295928262     Delta-E=        0.000000000001 Rises=F Damp=F
 DIIS: error= 2.75D-08 at cycle  16 NSaved=  16.
 NSaved=16 IEnMin=15 EnMin= -1028.78295928262     IErMin=16 ErrMin= 2.75D-08
 ErrMax= 2.75D-08  0.00D+00 EMaxC= 1.00D-01 BMatC= 1.43D-13 BMatP= 9.48D-13
 IDIUse=1 WtCom= 1.00D+00 WtEn= 0.00D+00
 Coeff-Com:  0.614D-06-0.132D-05-0.200D-05 0.219D-05 0.948D-05-0.674D-05
 Coeff-Com: -0.166D-03-0.311D-03 0.530D-03 0.273D-02 0.675D-03-0.114D-01
 Coeff-Com: -0.369D-01-0.551D-01 0.245D+00 0.855D+00
 Coeff:      0.614D-06-0.132D-05-0.200D-05 0.219D-05 0.948D-05-0.674D-05
 Coeff:     -0.166D-03-0.311D-03 0.530D-03 0.273D-02 0.675D-03-0.114D-01
 Coeff:     -0.369D-01-0.551D-01 0.245D+00 0.855D+00
 Gap=     0.240 Goal=   None    Shift=    0.000
 RMSDP=3.24D-09 MaxDP=1.18D-07 DE= 9.09D-13 OVMax= 3.55D-07

 Error on total polarization charges =  0.00840
 SCF Done:  E(RwB97XD) =  -1028.78295928     A.U. after   16 cycles
            NFock= 16  Conv=0.32D-08     -V/T= 2.0047
 KE= 1.024003258309D+03 PE=-4.608487984012D+03 EE= 1.457460296589D+03
 Leave Link  502 at Tue Oct 27 21:25:34 2020, MaxMem=  7784628224 cpu:             881.9 elap:              89.0
 (Enter /gpfs/loomis/apps/avx/software/Gaussian/16-C.01_AVX/g16/l601.exe)
 Copying SCF densities to generalized density rwf, IOpCl= 0 IROHF=0.

 **********************************************************************

            Population analysis using the SCF Density.

 **********************************************************************

 Alpha  occ. eigenvalues --  -89.10772 -19.20924 -14.50981 -10.41874 -10.37464
 Alpha  occ. eigenvalues --  -10.36455 -10.35905 -10.33485 -10.32830 -10.32533
 Alpha  occ. eigenvalues --  -10.32405 -10.31532 -10.31135 -10.30784 -10.29284
 Alpha  occ. eigenvalues --  -10.28410  -8.12705  -6.07587  -6.07221  -6.06717
 Alpha  occ. eigenvalues --   -1.13879  -1.09359  -0.98539  -0.95389  -0.93361
 Alpha  occ. eigenvalues --   -0.89207  -0.86730  -0.83923  -0.81232  -0.76294
 Alpha  occ. eigenvalues --   -0.74350  -0.72071  -0.69193  -0.67770  -0.65449
 Alpha  occ. eigenvalues --   -0.60819  -0.59717  -0.56752  -0.55949  -0.55896
 Alpha  occ. eigenvalues --   -0.54939  -0.53656  -0.53131  -0.50785  -0.49221
 Alpha  occ. eigenvalues --   -0.48821  -0.48594  -0.46889  -0.45397  -0.44861
 Alpha  occ. eigenvalues --   -0.44327  -0.43002  -0.42260  -0.40219  -0.36790
 Alpha  occ. eigenvalues --   -0.33662  -0.31772  -0.31522  -0.26001
 Alpha virt. eigenvalues --   -0.01968   0.03691   0.05773   0.06039   0.09253
 Alpha virt. eigenvalues --    0.10476   0.12978   0.14619   0.16235   0.17440
 Alpha virt. eigenvalues --    0.18982   0.20236   0.21249   0.21281   0.23046
 Alpha virt. eigenvalues --    0.23626   0.23913   0.25457   0.28830   0.29880
 Alpha virt. eigenvalues --    0.30927   0.33570   0.35630   0.35866   0.36562
 Alpha virt. eigenvalues --    0.38425   0.39039   0.40001   0.42096   0.44469
 Alpha virt. eigenvalues --    0.46427   0.48628   0.50399   0.51047   0.51389
 Alpha virt. eigenvalues --    0.52745   0.52880   0.53078   0.54293   0.55556
 Alpha virt. eigenvalues --    0.56257   0.56313   0.56496   0.56574   0.57755
 Alpha virt. eigenvalues --    0.57963   0.59068   0.59471   0.59615   0.60092
 Alpha virt. eigenvalues --    0.60574   0.61521   0.61664   0.62360   0.62995
 Alpha virt. eigenvalues --    0.64659   0.66373   0.67110   0.68643   0.68882
 Alpha virt. eigenvalues --    0.70118   0.70673   0.72017   0.72104   0.72896
 Alpha virt. eigenvalues --    0.74170   0.75089   0.75850   0.76219   0.78197
 Alpha virt. eigenvalues --    0.79085   0.79262   0.80933   0.81836   0.82952
 Alpha virt. eigenvalues --    0.83011   0.87735   0.88926   0.91346   0.92336
 Alpha virt. eigenvalues --    0.93609   0.94518   0.95843   0.96648   0.97331
 Alpha virt. eigenvalues --    0.98679   0.99322   1.00048   1.00456   1.01138
 Alpha virt. eigenvalues --    1.02573   1.04976   1.05796   1.06075   1.07264
 Alpha virt. eigenvalues --    1.08036   1.08673   1.10265   1.11230   1.11353
 Alpha virt. eigenvalues --    1.11981   1.12570   1.13332   1.14597   1.15467
 Alpha virt. eigenvalues --    1.17002   1.18566   1.20224   1.23898   1.23944
 Alpha virt. eigenvalues --    1.26893   1.27167   1.32201   1.32733   1.33885
 Alpha virt. eigenvalues --    1.34848   1.36235   1.38362   1.40946   1.45195
 Alpha virt. eigenvalues --    1.49196   1.49343   1.53174   1.54732   1.54889
 Alpha virt. eigenvalues --    1.56512   1.57113   1.57472   1.57859   1.59772
 Alpha virt. eigenvalues --    1.60049   1.61921   1.63248   1.65036   1.67710
 Alpha virt. eigenvalues --    1.68390   1.69857   1.70847   1.71408   1.71970
 Alpha virt. eigenvalues --    1.72026   1.73173   1.73572   1.74230   1.74942
 Alpha virt. eigenvalues --    1.78284   1.79151   1.80263   1.81778   1.81929
 Alpha virt. eigenvalues --    1.82856   1.84334   1.84652   1.85395   1.86193
 Alpha virt. eigenvalues --    1.86717   1.89585   1.91235   1.91994   1.92437
 Alpha virt. eigenvalues --    1.93088   1.93467   1.95096   1.96499   1.98087
 Alpha virt. eigenvalues --    2.00101   2.00335   2.01744   2.04690   2.05530
 Alpha virt. eigenvalues --    2.05919   2.06919   2.09809   2.10025   2.12864
 Alpha virt. eigenvalues --    2.16973   2.17554   2.22023   2.23910   2.24744
 Alpha virt. eigenvalues --    2.27227   2.29940   2.34905   2.38284   2.40011
 Alpha virt. eigenvalues --    2.40457   2.42434   2.46578   2.48681   2.50092
 Alpha virt. eigenvalues --    2.52355   2.53672   2.54706   2.59400   2.62423
 Alpha virt. eigenvalues --    2.63369   2.69365   2.73578   2.76037   2.80026
 Alpha virt. eigenvalues --    2.81764   2.82376   2.84774   2.87008   2.89974
 Alpha virt. eigenvalues --    2.93018   3.01510   3.15850   3.32197   3.47632
 Alpha virt. eigenvalues --    3.51159   3.56899   3.60316   3.76213
          Condensed to atoms (all electrons):
               1          2          3          4          5          6
     1  C    4.727040   0.484873   0.006231  -0.050117  -0.012081   0.515892
     2  C    0.484873   5.369223   0.285514  -0.064363  -0.067724  -0.007903
     3  C    0.006231   0.285514   4.855459   0.524212  -0.003340  -0.066392
     4  C   -0.050117  -0.064363   0.524212   4.790119   0.520708  -0.016238
     5  C   -0.012081  -0.067724  -0.003340   0.520708   4.717270   0.500083
     6  C    0.515892  -0.007903  -0.066392  -0.016238   0.500083   4.736160
     7  H    0.404868  -0.041219   0.008944  -0.000515   0.008110  -0.037808
     8  H   -0.000592   0.010636  -0.024161   0.393257  -0.040823   0.007296
     9  H    0.008488  -0.000320   0.008145  -0.038373   0.405535  -0.043388
    10  H   -0.042250   0.009590  -0.000592   0.008749  -0.042946   0.407416
    11  N    0.003850  -0.037468   0.408082  -0.054802   0.002518   0.000399
    12  S   -0.063009   0.336745  -0.129069   0.003853   0.000202   0.003759
    13  C   -0.000198   0.000788   0.014419  -0.000425   0.000013  -0.000001
    14  C   -0.000004   0.000020   0.000290   0.000007  -0.000000  -0.000000
    15  C    0.000001  -0.000202   0.000539   0.000046  -0.000001   0.000000
    16  C    0.000000  -0.000001   0.000004  -0.000000   0.000000   0.000000
    17  H   -0.000003   0.000065  -0.000003  -0.000000   0.000000  -0.000000
    18  C    0.000000   0.000010  -0.000048  -0.000001  -0.000000   0.000000
    19  C   -0.000000   0.000000   0.000002  -0.000000   0.000000   0.000000
    20  H   -0.000000  -0.000000  -0.000000   0.000000  -0.000000  -0.000000
    21  H   -0.000000   0.000000  -0.000000  -0.000000  -0.000000   0.000000
    22  H    0.000000  -0.000000  -0.000000  -0.000000   0.000000  -0.000000
    23  C    0.003307  -0.051282  -0.100530   0.004137   0.000266  -0.000280
    24  O    0.000002  -0.000228  -0.000872   0.000067  -0.000000  -0.000000
    25  H    0.000202   0.011949  -0.030263  -0.011590  -0.000220  -0.000019
               7          8          9         10         11         12
     1  C    0.404868  -0.000592   0.008488  -0.042250   0.003850  -0.063009
     2  C   -0.041219   0.010636  -0.000320   0.009590  -0.037468   0.336745
     3  C    0.008944  -0.024161   0.008145  -0.000592   0.408082  -0.129069
     4  C   -0.000515   0.393257  -0.038373   0.008749  -0.054802   0.003853
     5  C    0.008110  -0.040823   0.405535  -0.042946   0.002518   0.000202
     6  C   -0.037808   0.007296  -0.043388   0.407416   0.000399   0.003759
     7  H    0.648877   0.000028  -0.000137  -0.011818  -0.000102  -0.006536
     8  H    0.000028   0.637658  -0.011469  -0.000121  -0.005235  -0.000245
     9  H   -0.000137  -0.011469   0.656144  -0.012182  -0.000108   0.000022
    10  H   -0.011818  -0.000121  -0.012182   0.657272   0.000004  -0.000128
    11  N   -0.000102  -0.005235  -0.000108   0.000004   5.915214  -0.046707
    12  S   -0.006536  -0.000245   0.000022  -0.000128  -0.046707  15.433160
    13  C    0.000006   0.000057  -0.000000  -0.000000  -0.030632  -0.064141
    14  C    0.000000   0.000001   0.000000  -0.000000   0.003283  -0.005712
    15  C   -0.000000  -0.000004   0.000000   0.000000  -0.001980   0.003800
    16  C   -0.000000  -0.000000  -0.000000   0.000000  -0.000092  -0.000029
    17  H    0.000001   0.000000  -0.000000  -0.000000   0.000249   0.005661
    18  C    0.000000  -0.000000  -0.000000  -0.000000  -0.000587  -0.000087
    19  C    0.000000   0.000000  -0.000000   0.000000   0.000043   0.000016
    20  H   -0.000000  -0.000000   0.000000   0.000000   0.000001  -0.000000
    21  H   -0.000000   0.000000  -0.000000   0.000000   0.000013   0.000003
    22  H    0.000000  -0.000000  -0.000000  -0.000000  -0.000000  -0.000000
    23  C    0.000145  -0.000649   0.000007   0.000004   0.513358   0.316427
    24  O    0.000000  -0.000256   0.000000  -0.000000  -0.051394  -0.000231
    25  H    0.000006   0.001073  -0.000015  -0.000000   0.367808   0.004636
              13         14         15         16         17         18
     1  C   -0.000198  -0.000004   0.000001   0.000000  -0.000003   0.000000
     2  C    0.000788   0.000020  -0.000202  -0.000001   0.000065   0.000010
     3  C    0.014419   0.000290   0.000539   0.000004  -0.000003  -0.000048
     4  C   -0.000425   0.000007   0.000046  -0.000000  -0.000000  -0.000001
     5  C    0.000013  -0.000000  -0.000001   0.000000   0.000000  -0.000000
     6  C   -0.000001  -0.000000   0.000000   0.000000  -0.000000   0.000000
     7  H    0.000006   0.000000  -0.000000  -0.000000   0.000001   0.000000
     8  H    0.000057   0.000001  -0.000004  -0.000000   0.000000  -0.000000
     9  H   -0.000000   0.000000   0.000000  -0.000000  -0.000000  -0.000000
    10  H   -0.000000  -0.000000   0.000000   0.000000  -0.000000  -0.000000
    11  N   -0.030632   0.003283  -0.001980  -0.000092   0.000249  -0.000587
    12  S   -0.064141  -0.005712   0.003800  -0.000029   0.005661  -0.000087
    13  C    5.480092   0.431143   0.182865  -0.005161  -0.042905  -0.039562
    14  C    0.431143   4.845636   0.013499   0.537311   0.400810  -0.062118
    15  C    0.182865   0.013499   4.732053  -0.057763   0.006746   0.474727
    16  C   -0.005161   0.537311  -0.057763   4.774447  -0.033594  -0.018581
    17  H   -0.042905   0.400810   0.006746  -0.033594   0.684919  -0.000947
    18  C   -0.039562  -0.062118   0.474727  -0.018581  -0.000947   4.882210
    19  C   -0.050610  -0.016672  -0.009206   0.473710   0.008517   0.497649
    20  H    0.009162  -0.036559  -0.000192   0.400231  -0.012482   0.008363
    21  H    0.015422  -0.000674  -0.022726   0.007691   0.000053   0.371393
    22  H   -0.001510   0.009417   0.008791  -0.046776  -0.000190  -0.038848
    23  C    0.342289  -0.098687  -0.074936   0.006787  -0.019788   0.010217
    24  O   -0.089510   0.006103   0.639061  -0.000143  -0.000073  -0.066950
    25  H   -0.042421  -0.000628  -0.012223   0.000059  -0.000069   0.004194
              19         20         21         22         23         24
     1  C   -0.000000  -0.000000  -0.000000   0.000000   0.003307   0.000002
     2  C    0.000000  -0.000000   0.000000  -0.000000  -0.051282  -0.000228
     3  C    0.000002  -0.000000  -0.000000  -0.000000  -0.100530  -0.000872
     4  C   -0.000000   0.000000  -0.000000  -0.000000   0.004137   0.000067
     5  C    0.000000  -0.000000  -0.000000   0.000000   0.000266  -0.000000
     6  C    0.000000  -0.000000   0.000000  -0.000000  -0.000280  -0.000000
     7  H    0.000000  -0.000000  -0.000000   0.000000   0.000145   0.000000
     8  H    0.000000  -0.000000   0.000000  -0.000000  -0.000649  -0.000256
     9  H   -0.000000   0.000000  -0.000000  -0.000000   0.000007   0.000000
    10  H    0.000000   0.000000   0.000000  -0.000000   0.000004  -0.000000
    11  N    0.000043   0.000001   0.000013  -0.000000   0.513358  -0.051394
    12  S    0.000016  -0.000000   0.000003  -0.000000   0.316427  -0.000231
    13  C   -0.050610   0.009162   0.015422  -0.001510   0.342289  -0.089510
    14  C   -0.016672  -0.036559  -0.000674   0.009417  -0.098687   0.006103
    15  C   -0.009206  -0.000192  -0.022726   0.008791  -0.074936   0.639061
    16  C    0.473710   0.400231   0.007691  -0.046776   0.006787  -0.000143
    17  H    0.008517  -0.012482   0.000053  -0.000190  -0.019788  -0.000073
    18  C    0.497649   0.008363   0.371393  -0.038848   0.010217  -0.066950
    19  C    4.751993  -0.047690  -0.047906   0.402828   0.000201   0.004915
    20  H   -0.047690   0.689649  -0.000176  -0.012547  -0.000365   0.000001
    21  H   -0.047906  -0.000176   0.681752  -0.012707  -0.000456   0.006049
    22  H    0.402828  -0.012547  -0.012707   0.677310   0.000011  -0.000089
    23  C    0.000201  -0.000365  -0.000456   0.000011   5.115972  -0.017000
    24  O    0.004915   0.000001   0.006049  -0.000089  -0.017000   7.873164
    25  H   -0.000416  -0.000001   0.000011   0.000007   0.015357   0.099349
              25
     1  C    0.000202
     2  C    0.011949
     3  C   -0.030263
     4  C   -0.011590
     5  C   -0.000220
     6  C   -0.000019
     7  H    0.000006
     8  H    0.001073
     9  H   -0.000015
    10  H   -0.000000
    11  N    0.367808
    12  S    0.004636
    13  C   -0.042421
    14  C   -0.000628
    15  C   -0.012223
    16  C    0.000059
    17  H   -0.000069
    18  C    0.004194
    19  C   -0.000416
    20  H   -0.000001
    21  H    0.000011
    22  H    0.000007
    23  C    0.015357
    24  O    0.099349
    25  H    0.564074
 Mulliken charges:
               1
     1  C    0.013500
     2  C   -0.238702
     3  C    0.243429
     4  C   -0.008732
     5  C    0.012431
     6  C    0.001024
     7  H    0.027150
     8  H    0.033549
     9  H    0.027650
    10  H    0.027003
    11  N    0.014281
    12  S    0.207610
    13  C   -0.109179
    14  C   -0.026465
    15  C    0.117104
    16  C   -0.038100
    17  H    0.003033
    18  C   -0.021035
    19  C    0.032625
    20  H    0.002606
    21  H    0.002259
    22  H    0.014303
    23  C    0.035487
    24  O   -0.401966
    25  H    0.029136
 Sum of Mulliken charges =  -0.00000
 Mulliken charges with hydrogens summed into heavy atoms:
               1
     1  C    0.040649
     2  C   -0.238702
     3  C    0.243429
     4  C    0.024817
     5  C    0.040080
     6  C    0.028027
    11  N    0.043417
    12  S    0.207610
    13  C   -0.109179
    14  C   -0.023433
    15  C    0.117104
    16  C   -0.035494
    18  C   -0.018776
    19  C    0.046928
    23  C    0.035487
    24  O   -0.401966
 Electronic spatial extent (au):  <R**2>=           4349.9237
 Charge=             -0.0000 electrons
 Dipole moment (field-independent basis, Debye):
    X=              1.5597    Y=             -5.4593    Z=             -0.0001  Tot=              5.6777
 Quadrupole moment (field-independent basis, Debye-Ang):
   XX=            -82.7359   YY=            -94.1208   ZZ=           -104.1078
   XY=             -6.7585   XZ=             -0.0001   YZ=              0.0001
 Traceless Quadrupole moment (field-independent basis, Debye-Ang):
   XX=             10.9189   YY=             -0.4660   ZZ=            -10.4529
   XY=             -6.7585   XZ=             -0.0001   YZ=              0.0001
 Octapole moment (field-independent basis, Debye-Ang**2):
  XXX=             36.2337  YYY=            -54.7252  ZZZ=             -0.0001  XYY=              1.7595
  XXY=             -9.8112  XXZ=             -0.0001  XZZ=              2.3519  YZZ=              1.5661
  YYZ=              0.0002  XYZ=             -0.0006
 Hexadecapole moment (field-independent basis, Debye-Ang**3):
 XXXX=          -2610.3772 YYYY=          -2662.4806 ZZZZ=           -113.1083 XXXY=            814.0476
 XXXZ=              0.0097 YYYX=            771.6092 YYYZ=             -0.0124 ZZZX=              0.0131
 ZZZY=             -0.0185 XXYY=           -852.7288 XXZZ=           -573.2051 YYZZ=           -550.1316
 XXYZ=             -0.0031 YYXZ=              0.0004 ZZXY=            358.1933
 N-N= 1.098241469831D+03 E-N=-4.608487983649D+03  KE= 1.024003258309D+03
 No NMR shielding tensors so no spin-rotation constants.
 Leave Link  601 at Tue Oct 27 21:25:34 2020, MaxMem=  7784628224 cpu:               1.2 elap:               0.2
 (Enter /gpfs/loomis/apps/avx/software/Gaussian/16-C.01_AVX/g16/l701.exe)
 ... and contract with generalized density number  0.
 Compute integral first derivatives.
 R6Disp: Adding Grimme-D2 dispersion energy 1st derivatives to the gradient.
 D1PCM: PCM CHGder 1st derivatives, ID1Alg=3 FixD1E=F DoIter=F DoCFld=F I1PDM=0.
 GePol: Maximum number of non-zero 1st derivatives   =     268
 Leave Link  701 at Tue Oct 27 21:25:36 2020, MaxMem=  7784628224 cpu:              14.3 elap:               1.5
 (Enter /gpfs/loomis/apps/avx/software/Gaussian/16-C.01_AVX/g16/l702.exe)
 L702 exits ... SP integral derivatives will be done elsewhere.
 Leave Link  702 at Tue Oct 27 21:25:36 2020, MaxMem=  7784628224 cpu:               0.2 elap:               0.0
 (Enter /gpfs/loomis/apps/avx/software/Gaussian/16-C.01_AVX/g16/l703.exe)
 Integral derivatives from FoFJK, PRISM(SPDF).
 Compute integral first derivatives, UseDBF=F ICtDFT=           0.
 Calling FoFJK, ICntrl=      2127 FMM=F ISym2X=0 I1Cent= 0 IOpClX= 0 NMat=1 NMatS=1 NMatT=0.
 FoFJK:  IHMeth= 1 ICntrl=    2127 DoSepK=T KAlg= 0 I1Cent=           0 FoldK=F
 IRaf=         1 NMat=       1 IRICut=       1 DoRegI=T DoRafI=F ISym2E= 0 IDoP0=0 IntGTp=1.
 FoFCou: FMM=F IPFlag=           0 FMFlag=      100000 FMFlg1=         800
         NFxFlg=           0 DoJE=F BraDBF=F KetDBF=F FulRan=T
         wScrn=  0.000000 ICntrl=      2527 IOpCl=  0 I1Cent=           0 NGrid=           0
         NMat0=    1 NMatS0=      1 NMatT0=    0 NMatD0=    1 NMtDS0=    0 NMtDT0=    0
 Symmetry not used in FoFCou.
 Leave Link  703 at Tue Oct 27 21:25:49 2020, MaxMem=  7784628224 cpu:             136.9 elap:              13.8
 (Enter /gpfs/loomis/apps/avx/software/Gaussian/16-C.01_AVX/g16/l716.exe)
 Dipole        = 6.13621996D-01-2.14784723D+00-2.59819432D-05
 -------------------------------------------------------------------
 Center     Atomic                   Forces (Hartrees/Bohr)
 Number     Number              X              Y              Z
 -------------------------------------------------------------------
      1        6           0.001176179    0.001571819    0.000000028
      2        6           0.007542963    0.008554995   -0.000000070
      3        6           0.008530466   -0.014998124   -0.000000156
      4        6          -0.002613878    0.000691616    0.000000020
      5        6           0.000472405   -0.001789389   -0.000000007
      6        6          -0.003169150    0.001162503    0.000000004
      7        1           0.000139988    0.000717353   -0.000000047
      8        1           0.000146543   -0.000522534    0.000000003
      9        1          -0.000654739   -0.000126177   -0.000000003
     10        1          -0.000404857    0.000240255    0.000000004
     11        7          -0.059564220   -0.190747947   -0.000002373
     12       16           0.006569185    0.013566117   -0.000000103
     13        6           0.025885830    0.013084061    0.000000091
     14        6          -0.039588231    0.022689318    0.000000983
     15        6           0.014183451   -0.015456544   -0.000000499
     16        6           0.004744918   -0.040606534   -0.000001043
     17        1          -0.000860106    0.000095326    0.000000041
     18        6          -0.024029603    0.002316771    0.000000407
     19        6           0.028947778    0.005030215   -0.000000069
     20        1           0.000302165   -0.000543472   -0.000000059
     21        1          -0.000884677   -0.000412283   -0.000000052
     22        1          -0.000389543    0.000812276   -0.000000047
     23        6           0.000134053    0.019385797    0.000000279
     24        8          -0.006386554    0.011698213    0.000000240
     25        1           0.039769634    0.163586370    0.000002430
 -------------------------------------------------------------------
 Cartesian Forces:  Max     0.190747947 RMS     0.031831741
 Leave Link  716 at Tue Oct 27 21:25:49 2020, MaxMem=  7784628224 cpu:               0.5 elap:               0.1
 (Enter /gpfs/loomis/apps/avx/software/Gaussian/16-C.01_AVX/g16/l103.exe)

 GradGradGradGradGradGradGradGradGradGradGradGradGradGradGradGradGradGrad
 Berny optimization.
 FormGI is forming the generalized inverse of G from B-inverse, IUseBI=4.
 Internal  Forces:  Max     0.121373888 RMS     0.013823036
 Search for a local minimum.
 Step number   1 out of a maximum of  146
 All quantities printed in internal units (Hartrees-Bohrs-Radians)
 RMS Force = .13925D-01 SwitMx=.10000D-02 MixMth= 1
 Mixed Optimization -- RFO/linear search
 Second derivative matrix not updated -- first step.
 ITU=  0
     Eigenvalues ---    0.01238   0.01451   0.01466   0.01657   0.01662
     Eigenvalues ---    0.01677   0.01794   0.01955   0.01967   0.02019
     Eigenvalues ---    0.02020   0.02038   0.02046   0.02094   0.02112
     Eigenvalues ---    0.02115   0.02138   0.02143   0.02143   0.02147
     Eigenvalues ---    0.02163   0.02182   0.16000   0.16000   0.16000
     Eigenvalues ---    0.16000   0.16000   0.16000   0.16000   0.16003
     Eigenvalues ---    0.17568   0.22003   0.22012   0.22537   0.22586
     Eigenvalues ---    0.24365   0.24472   0.24600   0.25000   0.25000
     Eigenvalues ---    0.27927   0.28393   0.31840   0.34420   0.34621
     Eigenvalues ---    0.34635   0.34658   0.34661   0.34695   0.34715
     Eigenvalues ---    0.34750   0.35556   0.39164   0.40397   0.41527
     Eigenvalues ---    0.42004   0.43578   0.43762   0.45261   0.45901
     Eigenvalues ---    0.46049   0.47024   0.47349   0.48084   0.51008
     Eigenvalues ---    0.57862   0.769231000.000001000.000001000.00000
     Eigenvalues --- 1000.000001000.000001000.000001000.000001000.00000
     Eigenvalues --- 1000.000001000.000001000.000001000.000001000.00000
     Eigenvalues --- 1000.000001000.000001000.000001000.000001000.00000
     Eigenvalues --- 1000.000001000.000001000.000001000.000001000.00000
     Eigenvalues --- 1000.000001000.000001000.000001000.000001000.00000
     Eigenvalues --- 1000.000001000.000001000.000001000.000001000.00000
     Eigenvalues --- 1000.000001000.000001000.000001000.000001000.00000
     Eigenvalues --- 1000.000001000.000001000.000001000.000001000.00000
     Eigenvalues --- 1000.000001000.000001000.000001000.000001000.00000
     Eigenvalues --- 1000.000001000.000001000.000001000.000001000.00000
     Eigenvalues --- 1000.000001000.000001000.000001000.000001000.00000
     Eigenvalues --- 1000.000001000.000001000.000001000.000001000.00000
     Eigenvalues --- 1000.000001000.000001000.000001000.000001000.00000
     Eigenvalues --- 1000.00000
 RFO step:  Lambda=-4.82239255D-02 EMin= 1.23787294D-02
 Linear search not attempted -- first point.
 Maximum step size (   0.300) exceeded in Quadratic search.
    -- Step size scaled by   0.955
 Iteration  1 RMS(Cart)=  0.02937683 RMS(Int)=  0.00146672
 Iteration  2 RMS(Cart)=  0.00211081 RMS(Int)=  0.00095436
 Iteration  3 RMS(Cart)=  0.00001011 RMS(Int)=  0.00098236
 Iteration  4 RMS(Cart)=  0.00000008 RMS(Int)=  0.00098205
 Iteration  1 RMS(Cart)=  0.00001350 RMS(Int)=  0.00000967
 Iteration  2 RMS(Cart)=  0.00000013 RMS(Int)=  0.00000744
 ITry= 1 IFail=0 DXMaxC= 1.75D-01 DCOld= 1.00D+10 DXMaxT= 3.00D-01 DXLimC= 3.00D+00 Rises=F
 Variable       Old X    -DE/DX   Delta X   Delta X   Delta X     New X
                                 (Linear)    (Quad)   (Total)
    R1        2.63730  -0.00548   0.00000  -0.00517  -0.00479   2.63251
    R2        2.63989  -0.00180   0.00000  -0.00018  -0.00013   2.63976
    R3        2.06224  -0.00131   0.00000  -0.00235  -0.00229   2.05995
    R4        2.67958  -0.03778   0.00000  -0.05531  -0.05345   2.62612
    R5        3.33901   0.01170   0.00000   0.02489   0.02388   3.36289
    R6        2.64175  -0.00348   0.00000  -0.00892  -0.00894   2.63280
    R7        2.59080  -0.00343   0.00000  -0.00544  -0.00490   2.58590
    R8        2.62539  -0.00076   0.00000  -0.00439  -0.00457   2.62082
    R9        2.06140  -0.00026   0.00000  -0.00069  -0.00070   2.06070
   R10        2.64897  -0.00680   0.00000  -0.00560  -0.00510   2.64386
   R11        2.06294  -0.00071   0.00000  -0.00156  -0.00156   2.06138
   R12        2.06172  -0.00054   0.00000  -0.00118  -0.00117   2.06055
   R13        2.56611  -0.00757   0.00000  -0.02281  -0.02357   2.54254
   R14        1.70392   0.12137   0.00000   0.19064   0.19503   1.89895
   R15        3.33600  -0.02170   0.00000  -0.02366  -0.02176   3.31424
   R16        2.62143   0.01809   0.00000   0.04232   0.04312   2.66455
   R17        2.82377  -0.01330   0.00000  -0.01509  -0.01391   2.80986
   R18        2.70444   0.00917   0.00000   0.00643   0.00543   2.70987
   R19        2.68052  -0.02373   0.00000  -0.05969  -0.06071   2.61981
   R20        2.06627   0.00000   0.00000   0.00028   0.00029   2.06656
   R21        2.69123   0.01667   0.00000   0.01832   0.01705   2.70829
   R22        2.39229  -0.02108   0.00000  -0.01237  -0.01063   2.38167
   R23        2.64256   0.00546   0.00000   0.01683   0.01742   2.65997
   R24        2.06232  -0.00003   0.00000  -0.00041  -0.00043   2.06189
   R25        2.63347  -0.01074   0.00000  -0.02991  -0.03074   2.60273
   R26        2.06270  -0.00081   0.00000  -0.00170  -0.00169   2.06102
   R27        2.06080   0.00129   0.00000   0.00260   0.00257   2.06337
    A1        2.06503   0.00296   0.00000   0.00267   0.00215   2.06718
    A2        2.11114  -0.00235   0.00000  -0.00268  -0.00233   2.10881
    A3        2.10701  -0.00060   0.00000   0.00001   0.00018   2.10719
    A4        2.10680  -0.00379   0.00000  -0.01466  -0.01438   2.09241
    A5        2.24702   0.00606   0.00000   0.02980   0.03023   2.27724
    A6        1.92937  -0.00227   0.00000  -0.01514  -0.01585   1.91353
    A7        2.10165   0.01175   0.00000   0.03007   0.02964   2.13128
    A8        1.97868  -0.01637   0.00000  -0.02985  -0.02853   1.95015
    A9        2.20286   0.00462   0.00000  -0.00022  -0.00111   2.20175
   A10        2.06782  -0.00378   0.00000  -0.00944  -0.00912   2.05871
   A11        2.09253   0.00266   0.00000   0.00628   0.00606   2.09859
   A12        2.12283   0.00112   0.00000   0.00316   0.00306   2.12589
   A13        2.11556  -0.00559   0.00000  -0.01211  -0.01186   2.10370
   A14        2.08079   0.00282   0.00000   0.00543   0.00529   2.08608
   A15        2.08684   0.00277   0.00000   0.00668   0.00657   2.09341
   A16        2.10951  -0.00155   0.00000   0.00348   0.00357   2.11308
   A17        2.08370   0.00071   0.00000  -0.00149  -0.00153   2.08217
   A18        2.08998   0.00084   0.00000  -0.00199  -0.00204   2.08793
   A19        1.98736   0.03818   0.00000   0.08474   0.08317   2.07053
   A20        2.31364  -0.04807   0.00000  -0.11974  -0.11634   2.19729
   A21        1.98219   0.00989   0.00000   0.03501   0.03317   2.01536
   A22        1.55957   0.01499   0.00000   0.03795   0.03669   1.59626
   A23        2.06655   0.00359   0.00000   0.00807   0.00785   2.07440
   A24        2.18408  -0.00326   0.00000  -0.01953  -0.02027   2.16381
   A25        2.03256  -0.00033   0.00000   0.01146   0.01241   2.04497
   A26        2.10835   0.00629   0.00000   0.01517   0.01490   2.12325
   A27        2.09918  -0.00246   0.00000  -0.00312  -0.00294   2.09624
   A28        2.07566  -0.00383   0.00000  -0.01205  -0.01196   2.06370
   A29        2.06325  -0.01252   0.00000  -0.03044  -0.03005   2.03320
   A30        2.11247  -0.00055   0.00000   0.03155   0.03328   2.14575
   A31        2.10746   0.01307   0.00000  -0.00111  -0.00323   2.10424
   A32        2.12224  -0.00727   0.00000  -0.02466  -0.02454   2.09770
   A33        2.06925   0.00342   0.00000   0.01127   0.01121   2.08046
   A34        2.09170   0.00385   0.00000   0.01339   0.01333   2.10503
   A35        2.12038   0.00517   0.00000   0.01179   0.01153   2.13190
   A36        2.02706  -0.00168   0.00000  -0.00323  -0.00316   2.02391
   A37        2.13575  -0.00349   0.00000  -0.00856  -0.00837   2.12738
   A38        2.08560   0.00474   0.00000   0.02007   0.02031   2.10591
   A39        2.09632  -0.00275   0.00000  -0.00911  -0.00913   2.08719
   A40        2.10127  -0.00199   0.00000  -0.01096  -0.01118   2.09009
   A41        1.96980  -0.03452   0.00000  -0.07770  -0.07549   1.89431
   A42        2.06457   0.02017   0.00000   0.04141   0.04024   2.10480
   A43        2.24882   0.01436   0.00000   0.03630   0.03525   2.28407
    D1        0.00000   0.00000   0.00000   0.00000   0.00000   0.00000
    D2       -3.14159  -0.00000   0.00000  -0.00000  -0.00000  -3.14159
    D3        3.14159   0.00000   0.00000   0.00000   0.00000   3.14159
    D4       -0.00000  -0.00000   0.00000   0.00000   0.00000  -0.00000
    D5       -0.00000  -0.00000   0.00000   0.00000   0.00000   0.00000
    D6        3.14159   0.00000   0.00000   0.00000   0.00000   3.14159
    D7       -3.14159  -0.00000   0.00000  -0.00000  -0.00000  -3.14159
    D8        0.00000  -0.00000   0.00000  -0.00000  -0.00000   0.00000
    D9        0.00000  -0.00000   0.00000  -0.00000  -0.00000  -0.00000
   D10        3.14159  -0.00000   0.00000  -0.00000  -0.00000   3.14159
   D11        3.14159   0.00000   0.00000  -0.00000  -0.00000   3.14159
   D12       -0.00000  -0.00000   0.00000  -0.00000  -0.00000  -0.00000
   D13        3.14159   0.00000   0.00000   0.00000   0.00000  -3.14159
   D14       -0.00000   0.00000   0.00000   0.00000   0.00000   0.00000
   D15       -0.00000  -0.00000   0.00000   0.00000   0.00000   0.00000
   D16        3.14159  -0.00000   0.00000  -0.00000  -0.00000   3.14159
   D17       -3.14159   0.00000   0.00000   0.00000   0.00000  -3.14159
   D18        0.00000   0.00000   0.00000   0.00000   0.00000   0.00000
   D19        0.00000   0.00000   0.00000   0.00000   0.00000   0.00000
   D20        3.14157   0.00000   0.00000   0.00001   0.00001   3.14158
   D21       -3.14159   0.00000   0.00000  -0.00000  -0.00000  -3.14159
   D22       -0.00002   0.00000   0.00000   0.00000   0.00000  -0.00002
   D23        0.00000   0.00000   0.00000   0.00000   0.00000   0.00000
   D24       -3.14159  -0.00000   0.00000  -0.00000  -0.00000  -3.14159
   D25       -3.14159   0.00000   0.00000   0.00000   0.00000  -3.14159
   D26        0.00000   0.00000   0.00000   0.00000   0.00000   0.00000
   D27       -0.00000  -0.00000   0.00000  -0.00000  -0.00000  -0.00000
   D28       -3.14159  -0.00000   0.00000  -0.00000  -0.00000   3.14159
[...]
 07,0.00016118,0.00000005,0.00000002,-0.00014159,0.,0.,0.00003157,0.000
 00001,0.,-0.00009656,0.,0.,0.00004229,0.,0.,-0.00009035,0.00000025,0.0
 0000071,0.00017438,-0.00000007,-0.00000012,0.00207312,0.00000100,-0.00
 000216,-0.07342669,-0.00000163,0.00000073,0.00030060,-0.00001167,0.000
 00410,0.19947644,0.00053226,-0.00061784,0.,-0.00098978,0.00107610,0.00
 000002,0.00019587,-0.00123894,-0.00000002,0.00035288,0.00018194,0.,-0.
 00004823,0.00068225,0.00000001,-0.00081587,-0.00008036,0.,0.00001953,0
 .00003907,0.,0.00003133,-0.00003145,0.,-0.00006528,0.00004535,0.,-0.00
 003959,0.00002428,0.,-0.00618037,0.00011045,0.00000005,0.00046586,0.00
 165863,-0.00000002,-0.04446182,0.02564774,0.00000060,-0.23405903,0.167
 03795,0.00000375,0.00170641,0.01367891,0.00000011,0.76706584,-0.001587
 28,0.00218994,0.00000001,0.00289438,-0.00177339,-0.00000003,0.00033404
 ,0.00174661,0.,-0.00171916,0.00018081,0.00000002,0.00000078,-0.0025267
 9,-0.00000004,0.00273119,0.00034580,0.,-0.00010850,-0.00008529,0.,0.00
 005700,0.00007593,0.,0.00017281,-0.00009497,0.,0.00013055,-0.00004903,
 0.,0.01518604,0.00681113,0.00000008,-0.00336113,-0.00433083,0.00000002
 ,0.06546418,0.00454483,-0.00000008,0.10509387,-0.29266364,-0.00000469,
 0.02791651,-0.04877426,-0.00000135,-0.02458076,0.66945110,-0.00000003,
 0.00000004,0.00003017,0.00000006,-0.00000004,0.00031316,0.00000001,0.0
 0000003,-0.00057144,-0.00000004,0.,-0.00009464,0.,-0.00000005,0.000047
 54,0.00000005,0.,-0.00000875,0.,0.,-0.00000316,0.,0.,-0.00000612,0.,0.
 ,0.00001394,0.,0.,-0.00001887,0.00000028,0.00000014,0.00003437,-0.0000
 0005,-0.00000010,-0.00068798,0.00000130,-0.00000014,0.00916984,0.00000
 277,-0.00000511,-0.06245492,0.00000043,-0.00000085,-0.00603045,-0.0000
 0235,0.00001156,0.12097882,0.00026696,0.00000512,0.,-0.00062848,0.0003
 2375,0.00000002,0.00037446,-0.00023489,0.,0.00002313,0.00004616,0.,0.0
 0004220,0.00008330,0.,-0.00010259,-0.00007351,0.,-0.00001281,-0.000004
 47,0.,0.00003575,0.00000233,0.,0.00000497,0.00000166,0.,0.00002524,-0.
 00000270,0.,-0.00004870,0.00032959,0.,-0.00037723,0.00157067,-0.000000
 01,-0.00662617,-0.02828317,-0.00000053,-0.09745892,-0.09806061,-0.0000
 0177,-0.00475587,0.00343779,0.00000005,0.01117670,0.01913006,0.0000003
 5,0.09890442,0.00005720,-0.00009954,0.,-0.00021726,0.00053754,0.,0.000
 25109,-0.00020273,0.,0.00004179,0.00004646,0.,0.00000858,0.00011007,0.
 ,-0.00014178,0.00000305,0.,-0.00000525,0.00001471,0.,0.00001695,-0.000
 00416,0.,-0.00000878,0.00000602,0.,-0.00000672,0.00000324,0.,-0.001022
 74,0.00008517,0.,-0.00040095,0.00031044,-0.00000001,0.00058693,-0.0002
 3047,-0.00000006,-0.09471782,-0.29727672,-0.00000467,0.00050163,0.0022
 1946,-0.00000008,-0.01370948,-0.01727877,-0.00000038,0.10308532,0.3149
 3807,0.,0.,-0.00000283,0.,0.00000001,-0.00043025,0.,0.,0.00012411,0.,0
 .,0.00006342,0.,0.,-0.00001430,0.,0.,0.00001962,0.,0.,-0.00000766,0.,0
 .,-0.00000993,0.,0.,-0.00000418,0.,0.,0.00001278,0.,0.,-0.00021366,-0.
 00000003,0.00000001,0.00085372,0.00000016,0.00000002,0.00303672,-0.000
 00186,-0.00000459,-0.03735644,0.00000006,-0.00000006,0.00487107,-0.000
 00022,-0.00000066,0.00575660,0.00000181,0.00000524,0.02440799,-0.00052
 098,0.00120975,0.00000001,0.00123975,-0.00070694,0.,0.00189227,0.00061
 909,-0.00000003,-0.00105829,0.00004050,0.,0.00005559,-0.00134040,-0.00
 000002,0.00135496,0.00019368,0.,-0.00008428,0.00000843,0.,0.00014978,0
 .00002915,0.,0.00007253,-0.00004177,0.,0.00007158,-0.00000257,0.,0.008
 68073,0.00917898,0.00000005,-0.00084978,-0.00167125,0.,0.04755370,0.00
 140870,0.00000014,-0.04739278,0.02417234,0.00000065,-0.13274419,0.0418
 6886,0.00000068,-0.00881022,-0.07481072,-0.00000123,-0.00021473,0.0005
 4468,-0.00000007,0.75788998,0.00084448,-0.00072007,0.,-0.00159827,0.00
 017720,0.00000002,-0.00035547,-0.00044927,0.00000002,0.00071634,-0.000
 07281,0.,0.00004721,0.00100506,0.00000002,-0.00104194,-0.00022985,0.,0
 .00001606,0.00003595,0.,-0.00002044,-0.00001774,0.,-0.00004793,0.00003
 535,0.,-0.00001095,0.00000576,0.,-0.00541620,-0.00166238,-0.00000006,0
 .00218170,0.00071537,0.,-0.00032865,-0.02333189,-0.00000071,0.01505847
 ,-0.00964316,-0.00000021,0.07066007,-0.22020333,-0.00000304,-0.0373332
 6,0.01387220,0.00000022,0.00005127,0.00054956,0.00000009,0.08526321,0.
 67430443,0.00000003,-0.00000003,-0.00016884,-0.00000008,0.00000001,-0.
 00022932,-0.00000004,-0.00000003,-0.00086518,0.00000003,0.,0.00007409,
 0.,0.00000004,0.00002044,-0.00000004,0.,0.00005189,0.,0.,-0.00005602,0
 .,0.,-0.00004386,0.,0.,-0.00001411,0.,0.,0.00004432,-0.00000021,-0.000
 00011,0.00149733,0.00000006,-0.00000001,-0.00083278,-0.00000017,-0.000
 00042,0.00948382,0.00000040,-0.00000027,-0.00121405,0.00000121,-0.0000
 0322,-0.07647528,-0.00000059,0.00000031,0.00797372,0.00000001,0.000000
 02,-0.00026926,-0.00000445,0.00000895,0.11926027,0.00107707,-0.0014570
 6,0.,-0.00207383,0.00103964,0.00000002,-0.00066040,-0.00093995,0.00000
 001,0.00124680,-0.00009373,-0.00000001,-0.00001288,0.00175231,0.000000
 03,-0.00185208,-0.00027298,0.,0.00007082,0.00005297,0.,-0.00006199,-0.
 00005011,0.,-0.00011382,0.00006753,0.,-0.00008017,0.00002745,0.,-0.009
 85793,-0.00445660,-0.00000007,0.00227882,0.00241996,-0.00000001,-0.037
 26976,0.00399035,0.00000001,0.05549301,-0.00747373,-0.00000033,-0.0505
 2385,0.03784541,0.00000148,-0.15009247,-0.03195197,-0.00000059,-0.0023
 1450,0.00446245,0.00000021,-0.42397647,-0.07660944,0.00000150,0.764428
 96,0.00085103,-0.00117220,0.,-0.00143138,0.00096250,0.00000001,-0.0003
 2490,-0.00139263,-0.00000001,0.00077512,-0.00000037,0.,-0.00001409,0.0
 0128018,0.00000002,-0.00144751,-0.00017250,0.,0.00006386,0.00002941,0.
 ,-0.00005546,-0.00003474,0.,-0.00008999,0.00005241,0.,-0.00006431,0.00
 002104,0.,-0.01037692,-0.00497533,-0.00000001,0.00174507,0.00200089,-0
 .00000001,-0.03737278,-0.00284245,-0.00000006,0.04027195,-0.05955023,-
 0.00000148,0.00281590,0.05033297,0.00000103,-0.09878623,-0.27731743,-0
 .00000452,0.00296090,-0.00252792,-0.00000015,-0.01459831,-0.14085468,-
 0.00000095,-0.02855382,0.68291640,0.,-0.00000001,-0.00000335,-0.000000
 01,0.00000001,0.00011454,0.,-0.00000003,0.00035953,0.,0.,-0.00000800,0
 .,0.00000001,-0.00002742,-0.00000001,0.,-0.00000045,0.,0.,0.00001030,0
 .,0.,0.00002447,0.,0.,-0.00000175,0.,0.,-0.00000986,-0.00000016,-0.000
 00011,-0.00028519,0.00000002,0.00000003,-0.00008937,-0.00000053,0.0000
 0003,-0.00436422,0.00000053,-0.00000123,0.00677400,0.00000046,0.000000
 66,-0.00051737,-0.00000175,-0.00000473,-0.06215616,0.00000009,-0.00000
 023,0.00829700,0.00000218,-0.00000090,-0.05786782,-0.00000440,0.000011
 37,0.14400236,0.00002379,-0.00007786,0.,-0.00004199,0.00012786,0.,-0.0
 0000112,-0.00014735,0.,0.00003329,0.00003309,0.,-0.00001114,0.00006219
 ,0.,-0.00008192,0.00000677,0.,0.00000437,0.00000686,0.,0.00000350,-0.0
 0000491,0.,-0.00001002,0.00000651,0.,-0.00000914,0.00000474,0.,-0.0004
 6330,0.00039421,0.,0.00002325,0.00009448,0.,0.00027784,0.00354530,0.00
 000008,-0.01395645,-0.00664007,-0.00000009,0.00058961,0.00001901,0.,-0
 .34185845,-0.04147345,0.00000005,0.00077922,0.00014182,-0.00000001,0.0
 0128649,-0.00201440,-0.00000004,-0.00656596,0.00283753,0.00000009,0.36
 018847,-0.00000604,0.00003256,0.,0.00002867,-0.00006539,0.,0.00007941,
 0.00009677,0.,-0.00001436,-0.00004158,0.,0.00001458,-0.00002224,0.,0.0
 0003256,-0.00000294,0.,-0.00000112,-0.00000320,0.,0.00000129,0.0000020
 6,0.,0.00000495,-0.00000493,0.,0.00000374,-0.00000153,0.,0.00039785,-0
 .00027838,0.00000001,0.00000396,0.00003574,0.,0.00201627,-0.00361005,-
 0.00000023,0.02607892,0.00678687,0.00000005,0.00041009,-0.00147810,-0.
 00000002,-0.04259740,-0.06312677,-0.00000064,-0.00017718,0.00096961,0.
 00000013,-0.00067568,-0.00513408,-0.00000021,-0.02952654,0.00063122,0.
 00000010,0.04423834,0.06323111,0.,0.,-0.00000232,0.,0.,-0.00006992,0.,
 0.,-0.00036455,0.,0.,-0.00002477,0.,0.,0.00003509,0.,0.,-0.00000578,0.
 ,0.,-0.00000162,0.,0.,-0.00001497,0.,0.,0.00000801,0.,0.,0.00000649,0.
 ,0.,-0.00051767,0.,0.,0.00016086,0.00000011,-0.00000019,0.00793642,0.0
 0000048,0.00000018,0.00141631,0.,-0.00000007,-0.00073952,0.00000005,-0
 .00000067,-0.03075592,-0.00000001,0.00000012,-0.00540307,0.00000002,-0
 .00000021,0.00455955,-0.00000061,0.00000001,0.00063452,-0.00000006,0.0
 0000073,0.02375887,-0.00007210,0.00001767,0.,0.00008763,0.00007300,0.,
 -0.00004083,0.00001455,0.,-0.00002346,0.00000693,0.,-0.00000792,-0.000
 04667,0.,0.00005001,0.00001790,0.,0.00000113,-0.00000431,0.,-0.0000059
 3,0.00000121,0.,0.00000249,-0.00000134,0.,-0.00000250,-0.00000183,0.,0
 .00037061,-0.00017648,0.,-0.00030002,0.00007223,0.,-0.00192288,0.00219
 146,0.00000011,-0.00127947,0.00049971,0.,0.00931381,0.01991458,0.00000
 030,-0.00490486,0.00046501,0.00000012,0.00010580,-0.00010870,-0.000000
 01,-0.09486001,-0.09951139,-0.00000102,-0.00587076,-0.02937085,-0.0000
 0043,-0.00047092,-0.00139828,-0.00000004,0.09716172,0.00002500,0.00010
 373,0.,-0.00007077,-0.00018617,0.,0.00003173,0.00016483,0.,-0.00003818
 ,-0.00001843,0.,0.00001791,-0.00006150,0.,0.00007648,-0.00001841,0.,-0
 .00000803,0.00000029,0.,0.00000563,0.00000443,0.,0.00001050,-0.0000054
 7,0.,0.00001386,-0.00000314,0.,0.00021436,0.00030701,0.,0.00024683,-0.
 00036634,0.,0.00388858,-0.00280678,-0.00000013,0.00120752,0.00030914,0
 .00000001,-0.01494569,-0.01788167,-0.00000021,-0.00039632,0.00225670,-
 0.00000008,-0.00007328,-0.00006876,0.00000001,-0.09887602,-0.30558791,
 -0.00000358,0.00230537,-0.00001399,-0.00000007,0.00006955,-0.00010368,
 0.,0.10771537,0.32099983,0.,0.,0.00004865,0.,0.,0.00001852,0.,0.,-0.00
 006400,0.,0.,-0.00000092,0.,0.,0.00000368,0.,0.,-0.00000625,0.,0.,0.00
 000338,0.,0.,0.00000057,0.,0.,0.00000316,0.,0.,-0.00000827,-0.00000002
 ,0.00000002,-0.00003097,0.,0.,0.00007317,0.00000003,-0.00000014,0.0040
 7055,0.00000015,-0.00000003,-0.00076121,-0.00000045,-0.00000035,0.0045
 5069,0.00000007,-0.00000004,0.00882882,0.,0.00000002,-0.00094565,-0.00
 000080,-0.00000359,-0.03424371,-0.00000007,0.00000008,0.00302359,0.,0.
 ,0.00055410,0.00000112,0.00000393,0.02436825,0.00004773,-0.00007247,0.
 ,-0.00006351,0.00013656,0.,0.00011651,-0.00013995,0.,0.00003252,0.0000
 0798,0.,-0.00000187,0.00007333,0.,-0.00009077,-0.00000081,0.,0.0000029
 4,0.00000530,0.,0.00000648,-0.00000398,0.,-0.00000924,0.00000496,0.,-0
 .00000687,0.00000422,0.,-0.00036381,0.00024349,0.,0.00003502,0.0002775
 0,0.,-0.00096037,0.00030322,0.,0.00051335,-0.00280652,-0.00000004,-0.0
 0326967,-0.00372118,0.00000003,0.01002787,-0.01018772,-0.00000025,0.00
 037523,-0.00055001,0.,-0.01351103,0.02681148,0.00000059,-0.16842352,0.
 13656269,0.00000342,0.00062841,0.00047070,0.,0.00096849,-0.00031982,-0
 .00000006,0.17508208,0.00000647,0.00003440,0.,-0.00005761,-0.00001486,
 0.,-0.00001074,0.00007946,0.,-0.00000262,-0.00000647,0.,0.00000780,-0.
 00001823,0.,0.00002786,-0.00000929,0.,-0.00000440,-0.00000223,0.,0.000
 00029,0.00000278,0.,0.00000576,-0.00000226,0.,0.00000660,-0.00000313,0
 .,0.00020409,-0.00010227,0.,-0.00006781,-0.00003495,0.,-0.00060950,0.0
 0056601,0.00000004,-0.00380636,-0.00451374,-0.00000019,-0.00224123,0.0
 0074034,-0.00000018,0.02102745,-0.01533706,-0.00000048,0.00096759,-0.0
 0115651,-0.00000002,-0.00555027,0.00662714,0.00000002,0.13741500,-0.23
 144435,-0.00000459,-0.00019867,0.00102374,0.00000008,0.00011148,0.0008
 3807,0.00000013,-0.14752824,0.24219974,0.,0.,0.00000231,0.,0.,-0.00003
 204,0.,0.,0.00014782,0.,0.,-0.00000328,0.,0.,-0.00000533,0.,0.,-0.0000
 0629,0.,0.,0.00000693,0.,0.,0.00000421,0.,0.,0.00000105,0.,0.,0.000001
 51,0.00000002,0.,-0.00020529,0.,0.,0.00024022,-0.00000002,0.00000004,-
 0.00112484,-0.00000012,-0.00000019,0.00489218,0.00000015,-0.00000017,0
 .01106169,0.00000041,-0.00000043,0.00462777,0.00000002,-0.00000002,-0.
 00031097,0.00000008,-0.00000010,0.00690309,0.00000340,-0.00000452,-0.0
 4226480,-0.00000001,0.00000007,-0.00257752,-0.00000006,0.00000010,-0.0
 0581125,-0.00000374,0.00000516,0.02686823,-0.00745033,-0.00201935,-0.0
 0000010,0.00489096,0.01702623,0.00000006,-0.06891922,0.04255566,0.0000
 0021,0.00972545,-0.00287636,0.00000008,-0.00327191,0.00236598,-0.00000
 002,0.00137348,-0.00317814,-0.00000003,0.00018439,-0.00096768,-0.00000
 003,-0.00053097,-0.00010695,0.00000002,0.00050622,-0.00018587,0.,-0.00
 059524,-0.00018724,0.00000001,-0.37644328,-0.04789600,-0.00000138,-0.0
 6024750,-0.04236593,-0.00000001,-0.15903118,0.07310391,0.00000079,-0.0
 5615260,0.03748288,0.00000042,0.05053740,0.01826406,-0.00000065,0.0030
 7214,-0.02850502,-0.00000056,0.00146449,0.00156238,0.00000003,-0.01283
 379,0.00487679,0.00000018,0.01480637,0.01325574,0.00000017,-0.00022404
 ,0.00090169,0.00000005,0.00005501,-0.00146993,0.,0.00074276,-0.0000922
 3,-0.00000001,0.70559740,0.00288562,-0.00367882,0.00000004,0.02104640,
 -0.01975961,-0.00000006,0.01127428,0.01640120,0.00000011,0.00851411,-0
 .00872113,-0.00000004,-0.00132396,0.00690692,0.00000007,-0.00485546,-0
 .00415206,-0.00000009,0.00032921,-0.00053064,0.,-0.00057469,-0.0000738
 5,0.,0.00010210,-0.00031883,0.,-0.00048091,0.00007609,0.,-0.05995645,-
 0.15522463,-0.00000092,0.00357413,-0.15420462,-0.00000065,0.07075811,-
 0.20612355,-0.00000145,0.03208837,0.00076930,0.00000014,-0.00286647,-0
 .04135156,0.00000005,-0.01075357,0.02374710,0.00000040,-0.00227357,-0.
 00055224,0.00000002,0.00768075,-0.01192074,-0.00000034,-0.01496582,-0.
 01287778,-0.00000016,-0.00100338,0.00075118,0.,0.00139866,-0.00050947,
 -0.00000005,-0.00060425,0.00023460,0.00000003,-0.05187540,0.55336593,0
 .00000004,-0.00000002,-0.00053989,0.00000013,-0.00000036,0.00167353,-0
 .00000009,0.00000023,0.00171912,0.00000009,-0.00000006,0.00165798,-0.0
 0000002,0.00000006,0.00111859,-0.00000004,-0.00000006,0.00090515,0.,0.
 ,-0.00039884,0.,0.,-0.00043060,0.,0.,-0.00033798,0.,0.,-0.00000466,-0.
 00000113,-0.00000104,-0.05848436,0.00000019,-0.00000046,-0.03438165,0.
 00000063,-0.00000103,-0.05646806,0.00000039,0.00000003,-0.00627202,-0.
 00000007,-0.00000064,0.00334194,-0.00000008,0.00000014,0.00542448,-0.0
 0000003,0.00000005,-0.00245708,0.00000010,-0.00000019,0.00371494,-0.00
 000015,-0.00000012,-0.00077952,0.,-0.00000003,0.00164815,0.00000001,0.
 ,-0.00033548,0.,0.00000002,-0.00069502,0.00000022,0.00000336,0.1398650
 2,-0.00140553,0.00325466,0.00000002,0.00276971,-0.00011269,-0.00000003
 ,0.00875556,0.00090966,0.00000007,-0.00308967,0.00026567,0.00000001,0.
 00018346,-0.00351600,-0.00000005,0.00343158,0.00076451,0.00000001,-0.0
 0023125,0.00013124,0.,0.00040376,0.00007077,0.,0.00010497,-0.00006791,
 0.,0.00014050,0.00004310,0.,0.02568719,0.04333224,0.00000031,-0.001999
 97,-0.00376952,0.00000002,-0.01291209,-0.06623482,0.00000049,-0.015364
 27,0.00449749,0.00000016,-0.52691221,-0.07115261,0.00000975,-0.0024349
 9,-0.02312684,-0.00000038,-0.00130463,-0.00047026,-0.00000009,-0.08633
 249,0.01942514,0.00000274,0.02196526,0.02178056,0.00000031,-0.00021605
 ,-0.00029280,0.,0.00167678,0.00034784,0.00000002,-0.00196580,0.0004505
 7,-0.00000013,-0.04452380,0.02765500,0.00000020,0.63237539,-0.00032314
 ,-0.00067978,-0.00000003,0.00016111,-0.00248408,-0.00000003,-0.0086684
 9,-0.00328056,0.00000009,0.00022338,-0.00039187,0.,0.00036542,0.000542
 24,0.,-0.00026476,-0.00019631,0.,0.00013859,-0.00024004,0.,0.00009829,
 0.00007760,0.,0.00011765,-0.00009754,0.,0.00007210,-0.00006337,0.,0.01
 381579,-0.04754697,-0.00000010,0.00004286,-0.00230485,0.,-0.05192679,-
 0.00415488,0.00000066,0.01055210,-0.00979775,-0.00000017,-0.08748247,-
 0.11511589,0.00000147,-0.00270177,0.00926645,0.00000019,-0.00217940,-0
 .00040820,-0.00000003,0.04299956,0.01773085,-0.00000067,-0.00375181,-0
 .01213313,-0.00000030,-0.00002171,0.00056968,0.00000002,-0.00215329,0.
 00295954,0.00000004,0.00146123,0.00021456,0.00000005,0.00695802,0.0028
 4946,0.00000010,0.09298200,0.16526152,0.00000002,-0.00000003,-0.000250
 78,-0.00000002,0.00000001,-0.00021054,-0.00000004,0.00000008,0.0019612
 9,0.00000006,0.,0.00004694,-0.00000001,0.00000005,-0.00009228,-0.00000
 004,-0.00000002,0.00003882,0.,0.,0.00002838,0.,0.,0.00002439,0.,0.,-0.
 00001116,0.,0.,0.00000619,-0.00000037,-0.00000016,0.00419549,0.0000000
 6,0.00000022,-0.00018681,-0.00000029,0.00000057,0.01723331,0.00000053,
 -0.00000030,0.00493633,0.00001063,0.00000181,-0.06894517,-0.00000002,0
 .00000061,-0.00045513,0.00000002,0.,0.00002783,0.00000258,-0.00000033,
 0.01722431,-0.00000048,-0.00000066,0.00485100,0.,0.00000002,-0.0004590
 2,-0.00000011,0.00000002,-0.00332227,0.00000004,0.00000003,-0.00149683
 ,0.00000051,-0.00000045,-0.00170419,-0.00001328,-0.00000144,0.03704406
 ,0.00137860,0.00031826,0.,-0.00434180,0.00440028,0.00000002,0.01272703
 ,0.02060195,0.00000027,0.00162425,0.00023649,0.,-0.00014407,0.00029069
 ,0.00000001,-0.00051287,-0.00014143,0.,-0.00019544,0.00030105,0.,-0.00
 036853,-0.00050904,0.,-0.00000861,-0.00000351,0.,-0.00004794,-0.000063
 31,0.,-0.10424806,-0.10904587,-0.00000131,-0.00384825,-0.00237326,-0.0
 0000007,-0.00104348,0.00447879,0.00000009,0.00137611,-0.00016078,0.000
 00002,-0.01734494,0.00409503,0.00000016,0.00011428,0.00183614,0.000000
 03,0.00026606,0.00009892,0.00000001,0.00294166,-0.00166387,-0.00000011
 ,-0.00161671,-0.00143379,0.,0.00007226,0.00000637,0.,-0.00003181,0.000
 02153,0.,0.00008708,-0.00006127,0.,-0.00273220,-0.03577278,-0.00000040
 ,0.00119858,-0.01051448,0.00000022,0.11469879,-0.00093811,0.00170168,0
 .00000003,0.00393474,0.00260804,-0.00000004,0.00822242,-0.01002881,-0.
 00000013,-0.00264033,0.00231555,0.00000004,-0.00042547,-0.00260169,-0.
 00000003,0.00163807,0.00108927,0.00000002,-0.00011813,0.00022292,0.,0.
 00041276,0.00010417,0.,-0.00017526,0.00016451,0.,-0.00002092,0.0001031
 6,0.,-0.08985777,-0.33240394,-0.00000355,0.00060438,0.00523708,0.,0.01
 008681,-0.02042916,-0.00000013,-0.01056039,0.00070490,-0.00000003,0.04
 596845,0.01712092,-0.00000094,0.00161727,-0.01113037,-0.00000020,-0.00
 063274,0.00001261,-0.00000003,-0.01694375,0.00476903,0.00000050,0.0087
 2512,0.00908272,0.00000015,-0.00000647,-0.00025767,0.,0.00027336,-0.00
 031186,-0.00000001,-0.00042771,0.00008451,-0.00000004,-0.03662722,0.01
 489774,0.00000001,-0.04716699,-0.00057669,-0.00000003,0.12505788,0.317
 52139,-0.00000001,0.00000002,0.00085199,0.,-0.00000004,0.00215490,0.00
 000004,0.00000008,-0.00287868,0.,0.00000004,-0.00079755,0.,-0.00000003
 ,-0.00024577,0.00000003,0.,-0.00008454,0.,0.,-0.00000284,0.,0.,0.00007
 196,0.,0.,0.00005875,0.,0.,0.00000401,-0.00000138,-0.00000453,-0.01845
 112,0.00000003,0.00000003,0.00444982,0.00000001,0.00000007,-0.00344118
 ,-0.00000001,0.00000004,-0.00101901,0.00000024,-0.00000025,0.00089363,
 -0.00000002,-0.00000004,0.00004431,0.,0.,-0.00004557,0.00000010,0.0000
 0005,0.00147246,0.00000006,-0.00000002,0.00028400,0.,0.,0.00021828,0.,
 0.,-0.00001715,0.00000001,0.,-0.00022356,0.00000003,-0.00000002,0.0022
 2047,-0.00000018,0.00000016,-0.01048416,0.00000106,0.00000442,0.024966
 54\\0.00158645,0.00260511,-0.00000016,0.00373477,0.00499363,-0.0000002
 0,0.00629586,-0.00031099,0.00000028,-0.00107277,0.00172572,0.00000016,
 -0.00000007,-0.00088307,0.,0.00163075,0.00164190,-0.00000006,-0.000004
 66,0.00031653,0.00000002,0.00008879,0.00005661,0.,0.00000711,0.0001401
 7,-0.00000002,0.00011451,0.00014053,0.00000003,-0.01039018,0.00549524,
 -0.00000031,0.00178176,0.00396948,0.00000063,-0.00624276,0.00312549,-0
 .00000046,0.00535596,-0.00007158,-0.00000056,0.01010329,0.00201165,0.0
 0000260,-0.00195659,0.00647550,0.,-0.00001200,0.00009828,0.,-0.0015074
 0,0.00022414,-0.00000046,-0.00328501,-0.00008640,0.00000028,-0.0000957
 9,0.00009687,0.00000001,-0.00007549,0.00000505,-0.00000006,-0.00023316
 ,0.00001678,0.00000003,-0.00644661,-0.00439243,-0.00000053,-0.00511779
 ,-0.00840488,-0.00000183,0.00574103,-0.01898933,0.00000060\\\@
 The archive entry for this job was punched.


 WOMEN HOLD UP HALF THE SKY. -- MAO TSE TUNG
 Job cpu time:       0 days  0 hours 59 minutes 54.9 seconds.
 Elapsed time:       0 days  0 hours  6 minutes  1.9 seconds.
 File lengths (MBytes):  RWF=    544 Int=      0 D2E=      0 Chk=     40 Scr=      8
 Normal termination of Gaussian 16 at Tue Oct 27 21:38:47 2020.
