 Entering Gaussian System, Link 0=g16
 Initial command:
 /gpfs/loomis/apps/avx/software/Gaussian/16-C.01_AVX/g16/l1.exe "/home/fas/batista/pev4/scratch60/gauss-scratch/Gau-257743.inp" -scrdir="/home/fas/batista/pev4/scratch60/gauss-scratch/"
 Entering Link 1 = /gpfs/loomis/apps/avx/software/Gaussian/16-C.01_AVX/g16/l1.exe PID=    257744.
  
 Copyright (c) 1988-2019, Gaussian, Inc.  All Rights Reserved.
  
 This is part of the Gaussian(R) 16 program.  It is based on
 the Gaussian(R) 09 system (copyright 2009, Gaussian, Inc.),
 the Gaussian(R) 03 system (copyright 2003, Gaussian, Inc.),
 the Gaussian(R) 98 system (copyright 1998, Gaussian, Inc.),
 the Gaussian(R) 94 system (copyright 1995, Gaussian, Inc.),
 the Gaussian 92(TM) system (copyright 1992, Gaussian, Inc.),
 the Gaussian 90(TM) system (copyright 1990, Gaussian, Inc.),
 the Gaussian 88(TM) system (copyright 1988, Gaussian, Inc.),
 the Gaussian 86(TM) system (copyright 1986, Carnegie Mellon
 University), and the Gaussian 82(TM) system (copyright 1983,
 Carnegie Mellon University). Gaussian is a federally registered
 trademark of Gaussian, Inc.
  
 This software contains proprietary and confidential information,
 including trade secrets, belonging to Gaussian, Inc.
  
 This software is provided under written license and may be
 used, copied, transmitted, or stored only in accord with that
 written license.
  
 The following legend is applicable only to US Government
 contracts under FAR:
  
                    RESTRICTED RIGHTS LEGEND
  
 Use, reproduction and disclosure by the US Government is
 subject to restrictions as set forth in subparagraphs (a)
 and (c) of the Commercial Computer Software - Restricted
 Rights clause in FAR 52.227-19.
  
 Gaussian, Inc.
 340 Quinnipiac St., Bldg. 40, Wallingford CT 06492
  
  
 ---------------------------------------------------------------
 Warning -- This program may not be used in any manner that
 competes with the business of Gaussian, Inc. or will provide
 assistance to any competitor of Gaussian, Inc.  The licensee
 of this program is prohibited from giving any competitor of
 Gaussian, Inc. access to this program.  By using this program,
 the user acknowledges that Gaussian, Inc. is engaged in the
 business of creating and licensing software in the field of
 computational chemistry and represents and warrants to the
 licensee that it is not a competitor of Gaussian, Inc. and that
 it will not use this program in any manner prohibited above.
 ---------------------------------------------------------------
  

 Cite this work as:
 Gaussian 16, Revision C.01,
 M. J. Frisch, G. W. Trucks, H. B. Schlegel, G. E. Scuseria, 
 M. A. Robb, J. R. Cheeseman, G. Scalmani, V. Barone, 
 G. A. Petersson, H. Nakatsuji, X. Li, M. Caricato, A. V. Marenich, 
 J. Bloino, B. G. Janesko, R. Gomperts, B. Mennucci, H. P. Hratchian, 
 J. V. Ortiz, A. F. Izmaylov, J. L. Sonnenberg, D. Williams-Young, 
 F. Ding, F. Lipparini, F. Egidi, J. Goings, B. Peng, A. Petrone, 
 T. Henderson, D. Ranasinghe, V. G. Zakrzewski, J. Gao, N. Rega, 
 G. Zheng, W. Liang, M. Hada, M. Ehara, K. Toyota, R. Fukuda, 
 J. Hasegawa, M. Ishida, T. Nakajima, Y. Honda, O. Kitao, H. Nakai, 
 T. Vreven, K. Throssell, J. A. Montgomery, Jr., J. E. Peralta, 
 F. Ogliaro, M. J. Bearpark, J. J. Heyd, E. N. Brothers, K. N. Kudin, 
 V. N. Staroverov, T. A. Keith, R. Kobayashi, J. Normand, 
 K. Raghavachari, A. P. Rendell, J. C. Burant, S. S. Iyengar, 
 J. Tomasi, M. Cossi, J. M. Millam, M. Klene, C. Adamo, R. Cammi, 
 J. W. Ochterski, R. L. Martin, K. Morokuma, O. Farkas, 
 J. B. Foresman, and D. J. Fox, Gaussian, Inc., Wallingford CT, 2019.
 
 ******************************************
 Gaussian 16:  ES64L-G16RevC.01  3-Jul-2019
                28-Oct-2020 
 ******************************************
 %chk=config_5_16.chk
 %mem=58GB
 %nprocshared=10
 Will use up to   10 processors via shared memory.
 ----------------------------------------------------------------------
 #p opt=addgic freq wb97xd/cc-pvdz nosymm int=ultrafine scrf=(solvent=C
 arbonTetraChloride)
 ----------------------------------------------------------------------
 1/18=20,19=15,26=6,38=1,145=903/1,3;
 2/9=110,12=2,15=1,17=6,18=5,40=1/2;
 3/5=16,11=2,25=1,30=1,70=2201,71=1,72=11,74=-58,75=-5/1,2,3;
 4//1;
 5/5=2,38=5,53=11/2;
 6/7=2,8=2,9=2,10=2,28=1/1;
 7/30=1/1,2,3,16;
 1/18=20,19=15,26=6,145=903/3(2);
 2/9=110,15=1/2;
 99//99;
 2/9=110,15=1/2;
 3/5=16,11=2,25=1,30=1,70=2205,71=1,72=11,74=-58,75=-5/1,2,3;
 4/5=5,16=3,69=1/1;
 5/5=2,38=5,53=11/2;
 7/30=1/1,2,3,16;
 1/18=20,19=15,26=6,145=903/3(-5);
 2/9=110,15=1/2;
 6/7=2,8=2,9=2,10=2,19=2,28=1/1;
 99/9=1/99;
 Leave Link    1 at Wed Oct 28 01:15:44 2020, MaxMem=  7784628224 cpu:               3.3 elap:               0.5
 (Enter /gpfs/loomis/apps/avx/software/Gaussian/16-C.01_AVX/g16/l101.exe)
 ------------------------------------------------
 NM 2D-scan of HBT TD-WB97XD pVDZ in CTC Relaxed.
 ------------------------------------------------
 Symbolic Z-matrix:
 Charge =  0 Multiplicity = 1
 C                     1.54703  -3.25422  -0.00002 
 C                     0.99756  -1.97273  -0.00002 
 C                     1.78342  -0.77723  -0.00003 
 C                     3.19648  -0.93213  -0.00003 
 C                     3.73964  -2.21746  -0.00002 
 C                     2.93597  -3.37614  -0.00002 
 H                     0.89659  -4.13601  -0.00001 
 H                     3.84436  -0.04823  -0.00004 
 H                     4.82894  -2.32899  -0.00002 
 H                     3.39977  -4.36685  -0.00001 
 N                     1.0381    0.36652  -0.00003 
 S                    -0.7025   -1.60369  -0.00003 
 C                    -1.31575   1.06468   0.00001 
 C                    -2.68828   0.73424   0.00002 
 C                    -0.91379   2.47553   0.00004 
 C                    -3.6525    1.74614   0.00003 
 H                    -2.99675  -0.3166    0.00002 
 C                    -1.91993   3.47307   0.00004 
 C                    -3.27453   3.10836   0.00004 
 H                    -4.71318   1.47843   0.00004 
 H                    -1.60995   4.52346   0.00006 
 H                    -4.04639   3.88288   0.00004 
 C                    -0.29782   0.0936   -0.00002 
 O                     0.35844   2.73284   0.00006 
 H                     0.93331   1.74942   0.00002 
 
 Add virtual bond connecting atoms H25        and O24        Dist= 2.15D+00.
 Initializing the GIC definitions file.
 Number of initial coordinates =   131
 Number of input entries/lines =    52
 Number of additional coordinates =     2
 Number of removed coordinates =     0
 Number of frozen coordinates =     2
 Number of final active and frozen coordinates =   133
 ITRead=  0  0  0  0  0  0  0  0  0  0  0  0  0  0  0  0  0  0  0  0
 ITRead=  0  0  0  0  0
 MicOpt= -1 -1 -1 -1 -1 -1 -1 -1 -1 -1 -1 -1 -1 -1 -1 -1 -1 -1 -1 -1
 MicOpt= -1 -1 -1 -1 -1
 NAtoms=     25 NQM=       25 NQMF=       0 NMMI=      0 NMMIF=      0
                NMic=       0 NMicF=      0.
                    Isotopes and Nuclear Properties:
 (Nuclear quadrupole moments (NQMom) in fm**2, nuclear magnetic moments (NMagM)
  in nuclear magnetons)

  Atom         1           2           3           4           5           6           7           8           9          10
 IAtWgt=          12          12          12          12          12          12           1           1           1           1
 AtmWgt=  12.0000000  12.0000000  12.0000000  12.0000000  12.0000000  12.0000000   1.0078250   1.0078250   1.0078250   1.0078250
 NucSpn=           0           0           0           0           0           0           1           1           1           1
 AtZEff=  -0.0000000  -0.0000000  -0.0000000  -0.0000000  -0.0000000  -0.0000000  -0.0000000  -0.0000000  -0.0000000  -0.0000000
 NQMom=    0.0000000   0.0000000   0.0000000   0.0000000   0.0000000   0.0000000   0.0000000   0.0000000   0.0000000   0.0000000
 NMagM=    0.0000000   0.0000000   0.0000000   0.0000000   0.0000000   0.0000000   2.7928460   2.7928460   2.7928460   2.7928460
 AtZNuc=   6.0000000   6.0000000   6.0000000   6.0000000   6.0000000   6.0000000   1.0000000   1.0000000   1.0000000   1.0000000

  Atom        11          12          13          14          15          16          17          18          19          20
 IAtWgt=          14          32          12          12          12          12           1          12          12           1
 AtmWgt=  14.0030740  31.9720718  12.0000000  12.0000000  12.0000000  12.0000000   1.0078250  12.0000000  12.0000000   1.0078250
 NucSpn=           2           0           0           0           0           0           1           0           0           1
 AtZEff=  -0.0000000  -0.0000000  -0.0000000  -0.0000000  -0.0000000  -0.0000000  -0.0000000  -0.0000000  -0.0000000  -0.0000000
 NQMom=    2.0440000   0.0000000   0.0000000   0.0000000   0.0000000   0.0000000   0.0000000   0.0000000   0.0000000   0.0000000
 NMagM=    0.4037610   0.0000000   0.0000000   0.0000000   0.0000000   0.0000000   2.7928460   0.0000000   0.0000000   2.7928460
 AtZNuc=   7.0000000  16.0000000   6.0000000   6.0000000   6.0000000   6.0000000   1.0000000   6.0000000   6.0000000   1.0000000

  Atom        21          22          23          24          25
 IAtWgt=           1           1          12          16           1
 AtmWgt=   1.0078250   1.0078250  12.0000000  15.9949146   1.0078250
 NucSpn=           1           1           0           0           1
 AtZEff=  -0.0000000  -0.0000000  -0.0000000  -0.0000000  -0.0000000
 NQMom=    0.0000000   0.0000000   0.0000000   0.0000000   0.0000000
 NMagM=    2.7928460   2.7928460   0.0000000   0.0000000   2.7928460
 AtZNuc=   1.0000000   1.0000000   6.0000000   8.0000000   1.0000000
 Leave Link  101 at Wed Oct 28 01:15:51 2020, MaxMem=  7784628224 cpu:              38.5 elap:               6.4
 (Enter /gpfs/loomis/apps/avx/software/Gaussian/16-C.01_AVX/g16/l103.exe)

 GradGradGradGradGradGradGradGradGradGradGradGradGradGradGradGradGradGrad
 Berny optimization.
 Initialization pass.
                           ----------------------------
                           !    Initial Parameters    !
                           ! (Angstroms and Degrees)  !
 --------------------------                            --------------------------
 ! Name  Definition              Value          Derivative Info.                !
 --------------------------------------------------------------------------------
 ! R1    R(1,2)                  1.3943         estimate D2E/DX2                !
 ! R2    R(1,6)                  1.3943         estimate D2E/DX2                !
 ! R3    R(1,7)                  1.0957         estimate D2E/DX2                !
 ! R4    R(2,3)                  1.4307         estimate D2E/DX2                !
 ! R5    R(2,12)                 1.7397         estimate D2E/DX2                !
 ! R6    R(3,4)                  1.4215         estimate D2E/DX2                !
 ! R7    R(3,11)                 1.3652         estimate D2E/DX2                !
 ! R8    R(4,5)                  1.3954         estimate D2E/DX2                !
 ! R9    R(4,8)                  1.0959         estimate D2E/DX2                !
 ! R10   R(5,6)                  1.4101         estimate D2E/DX2                !
 ! R11   R(5,9)                  1.095          estimate D2E/DX2                !
 ! R12   R(6,10)                 1.0939         estimate D2E/DX2                !
 ! R13   R(11,23)                1.3635         estimate D2E/DX2                !
 ! R14   R(12,23)                1.7449         estimate D2E/DX2                !
 ! R15   R(13,14)                1.4117         estimate D2E/DX2                !
 ! R16   R(13,15)                1.467          estimate D2E/DX2                !
 ! R17   R(13,23)                1.4068         estimate D2E/DX2                !
 ! R18   R(14,16)                1.3977         estimate D2E/DX2                !
 ! R19   R(14,17)                1.0952         estimate D2E/DX2                !
 ! R20   R(15,18)                1.4168         estimate D2E/DX2                !
 ! R21   R(15,24)                1.298          estimate D2E/DX2                !
 ! R22   R(16,19)                1.4137         estimate D2E/DX2                !
 ! R23   R(16,20)                1.0939         estimate D2E/DX2                !
 ! R24   R(18,19)                1.4028         estimate D2E/DX2                !
 ! R25   R(18,21)                1.0952         estimate D2E/DX2                !
 ! R26   R(19,22)                1.0935         estimate D2E/DX2                !
 ! R27   R(24,25)                1.1391         estimate D2E/DX2                !
 ! A1    A(2,1,6)              118.2252         estimate D2E/DX2                !
 ! A2    A(2,1,7)              120.3777         estimate D2E/DX2                !
 ! A3    A(6,1,7)              121.3971         estimate D2E/DX2                !
 ! A4    A(1,2,3)              123.4726         estimate D2E/DX2                !
 ! A5    A(1,2,12)             125.456          estimate D2E/DX2                !
 ! A6    A(3,2,12)             111.0714         estimate D2E/DX2                !
 ! A7    A(2,3,4)              117.0631         estimate D2E/DX2                !
 ! A8    A(2,3,11)             113.5913         estimate D2E/DX2                !
 ! A9    A(4,3,11)             129.3456         estimate D2E/DX2                !
 ! A10   A(3,4,5)              119.1639         estimate D2E/DX2                !
 ! A11   A(3,4,8)              119.9849         estimate D2E/DX2                !
 ! A12   A(5,4,8)              120.8512         estimate D2E/DX2                !
 ! A13   A(4,5,6)              122.3464         estimate D2E/DX2                !
 ! A14   A(4,5,9)              118.7541         estimate D2E/DX2                !
 ! A15   A(6,5,9)              118.8995         estimate D2E/DX2                !
 ! A16   A(1,6,5)              119.7287         estimate D2E/DX2                !
 ! A17   A(1,6,10)             120.1032         estimate D2E/DX2                !
 ! A18   A(5,6,10)             120.168          estimate D2E/DX2                !
 ! A19   A(3,11,23)            111.5435         estimate D2E/DX2                !
 ! A20   A(2,12,23)             88.8367         estimate D2E/DX2                !
 ! A21   A(14,13,15)           119.4391         estimate D2E/DX2                !
 ! A22   A(14,13,23)           122.8127         estimate D2E/DX2                !
 ! A23   A(15,13,23)           117.7482         estimate D2E/DX2                !
 ! A24   A(13,14,16)           120.0813         estimate D2E/DX2                !
 ! A25   A(13,14,17)           119.8958         estimate D2E/DX2                !
 ! A26   A(16,14,17)           120.0228         estimate D2E/DX2                !
 ! A27   A(13,15,18)           118.8516         estimate D2E/DX2                !
 ! A28   A(13,15,24)           117.3366         estimate D2E/DX2                !
 ! A29   A(18,15,24)           123.8118         estimate D2E/DX2                !
 ! A30   A(14,16,19)           120.8745         estimate D2E/DX2                !
 ! A31   A(14,16,20)           119.4528         estimate D2E/DX2                !
 ! A32   A(19,16,20)           119.6727         estimate D2E/DX2                !
 ! A33   A(15,18,19)           120.1768         estimate D2E/DX2                !
 ! A34   A(15,18,21)           118.3121         estimate D2E/DX2                !
 ! A35   A(19,18,21)           121.5111         estimate D2E/DX2                !
 ! A36   A(16,19,18)           120.5766         estimate D2E/DX2                !
 ! A37   A(16,19,22)           119.5909         estimate D2E/DX2                !
 ! A38   A(18,19,22)           119.8325         estimate D2E/DX2                !
 ! A39   A(11,23,12)           114.9572         estimate D2E/DX2                !
 ! A40   A(11,23,13)           124.8028         estimate D2E/DX2                !
 ! A41   A(12,23,13)           120.24           estimate D2E/DX2                !
 ! A42   A(15,24,25)           108.8748         estimate D2E/DX2                !
 ! D1    D(6,1,2,3)              0.0            estimate D2E/DX2                !
 ! D2    D(6,1,2,12)           180.0            estimate D2E/DX2                !
 ! D3    D(7,1,2,3)            179.9999         estimate D2E/DX2                !
 ! D4    D(7,1,2,12)            -0.0001         estimate D2E/DX2                !
 ! D5    D(2,1,6,5)             -0.0001         estimate D2E/DX2                !
 ! D6    D(2,1,6,10)           179.9999         estimate D2E/DX2                !
 ! D7    D(7,1,6,5)            179.9999         estimate D2E/DX2                !
 ! D8    D(7,1,6,10)             0.0            estimate D2E/DX2                !
 ! D9    D(1,2,3,4)              0.0002         estimate D2E/DX2                !
 ! D10   D(1,2,3,11)          -180.0            estimate D2E/DX2                !
 ! D11   D(12,2,3,4)          -179.9998         estimate D2E/DX2                !
 ! D12   D(12,2,3,11)            0.0            estimate D2E/DX2                !
 ! D13   D(1,2,12,23)          179.9997         estimate D2E/DX2                !
 ! D14   D(3,2,12,23)           -0.0003         estimate D2E/DX2                !
 ! D15   D(2,3,4,5)             -0.0002         estimate D2E/DX2                !
 ! D16   D(2,3,4,8)            179.9999         estimate D2E/DX2                !
 ! D17   D(11,3,4,5)           180.0            estimate D2E/DX2                !
 ! D18   D(11,3,4,8)             0.0            estimate D2E/DX2                !
 ! D19   D(2,3,11,23)            0.0004         estimate D2E/DX2                !
 ! D20   D(4,3,11,23)         -179.9998         estimate D2E/DX2                !
 ! D21   D(3,4,5,6)              0.0            estimate D2E/DX2                !
 ! D22   D(3,4,5,9)           -179.9999         estimate D2E/DX2                !
 ! D23   D(8,4,5,6)            180.0            estimate D2E/DX2                !
 ! D24   D(8,4,5,9)              0.0            estimate D2E/DX2                !
 ! D25   D(4,5,6,1)              0.0001         estimate D2E/DX2                !
 ! D26   D(4,5,6,10)          -179.9999         estimate D2E/DX2                !
 ! D27   D(9,5,6,1)           -179.9999         estimate D2E/DX2                !
 ! D28   D(9,5,6,10)             0.0            estimate D2E/DX2                !
 ! D29   D(3,11,23,12)          -0.0007         estimate D2E/DX2                !
 ! D30   D(3,11,23,13)         179.9983         estimate D2E/DX2                !
 ! D31   D(2,12,23,11)           0.0006         estimate D2E/DX2                !
 ! D32   D(2,12,23,13)        -179.9985         estimate D2E/DX2                !
 ! D33   D(15,13,14,16)          0.0012         estimate D2E/DX2                !
 ! D34   D(15,13,14,17)       -179.9993         estimate D2E/DX2                !
 ! D35   D(23,13,14,16)       -179.9989         estimate D2E/DX2                !
 ! D36   D(23,13,14,17)          0.0006         estimate D2E/DX2                !
 ! D37   D(14,13,15,18)         -0.0014         estimate D2E/DX2                !
 ! D38   D(14,13,15,24)        179.9984         estimate D2E/DX2                !
 ! D39   D(23,13,15,18)        179.9987         estimate D2E/DX2                !
 ! D40   D(23,13,15,24)         -0.0015         estimate D2E/DX2                !
 ! D41   D(14,13,23,11)       -179.9999         estimate D2E/DX2                !
 ! D42   D(14,13,23,12)         -0.0009         estimate D2E/DX2                !
 ! D43   D(15,13,23,11)          0.0001         estimate D2E/DX2                !
 ! D44   D(15,13,23,12)        179.999          estimate D2E/DX2                !
 ! D45   D(13,14,16,19)         -0.0003         estimate D2E/DX2                !
 ! D46   D(13,14,16,20)        179.9997         estimate D2E/DX2                !
 ! D47   D(17,14,16,19)       -179.9998         estimate D2E/DX2                !
 ! D48   D(17,14,16,20)          0.0001         estimate D2E/DX2                !
 ! D49   D(13,15,18,19)          0.0007         estimate D2E/DX2                !
 ! D50   D(13,15,18,21)       -179.9999         estimate D2E/DX2                !
 ! D51   D(24,15,18,19)       -179.999          estimate D2E/DX2                !
 ! D52   D(24,15,18,21)          0.0003         estimate D2E/DX2                !
 ! D53   D(13,15,24,25)          0.0016         estimate D2E/DX2                !
 ! D54   D(18,15,24,25)       -179.9987         estimate D2E/DX2                !
 ! D55   D(14,16,19,18)         -0.0004         estimate D2E/DX2                !
 ! D56   D(14,16,19,22)        179.9998         estimate D2E/DX2                !
 ! D57   D(20,16,19,18)        179.9996         estimate D2E/DX2                !
 ! D58   D(20,16,19,22)         -0.0001         estimate D2E/DX2                !
 ! D59   D(15,18,19,16)          0.0002         estimate D2E/DX2                !
 ! D60   D(15,18,19,22)        179.9999         estimate D2E/DX2                !
 ! D61   D(21,18,19,16)       -179.9992         estimate D2E/DX2                !
 ! D62   D(21,18,19,22)          0.0006         estimate D2E/DX2                !
 ! Qtot  GIC-1                  -10.0           Frozen                          !
 ! Ptot  GIC-2                 160.0            Frozen                          !
 --------------------------------------------------------------------------------
 NOTE: GIC-type coordinates are in arbitrary units.
 Trust Radius=3.00D-01 FncErr=5.00D-06 GrdErr=5.00D-06 EigMax=2.50D+02 EigMin=1.00D-04
 Number of steps in this run=    143 maximum allowed number of steps=    150.
 GradGradGradGradGradGradGradGradGradGradGradGradGradGradGradGradGradGrad

 Leave Link  103 at Wed Oct 28 01:15:51 2020, MaxMem=  7784628224 cpu:               0.2 elap:               0.0
 (Enter /gpfs/loomis/apps/avx/software/Gaussian/16-C.01_AVX/g16/l202.exe)
                          Input orientation:                          
 ---------------------------------------------------------------------
 Center     Atomic      Atomic             Coordinates (Angstroms)
 Number     Number       Type             X           Y           Z
 ---------------------------------------------------------------------
      1          6           0        1.547030   -3.254217   -0.000017
      2          6           0        0.997558   -1.972732   -0.000023
      3          6           0        1.783416   -0.777232   -0.000027
      4          6           0        3.196477   -0.932130   -0.000030
      5          6           0        3.739639   -2.217462   -0.000024
      6          6           0        2.935974   -3.376140   -0.000016
      7          1           0        0.896590   -4.136009   -0.000013
      8          1           0        3.844360   -0.048226   -0.000035
      9          1           0        4.828943   -2.328991   -0.000025
     10          1           0        3.399773   -4.366848   -0.000011
     11          7           0        1.038098    0.366524   -0.000031
     12         16           0       -0.702505   -1.603693   -0.000025
     13          6           0       -1.315749    1.064683    0.000011
     14          6           0       -2.688281    0.734240    0.000022
     15          6           0       -0.913792    2.475528    0.000036
     16          6           0       -3.652500    1.746136    0.000032
     17          1           0       -2.996749   -0.316604    0.000016
     18          6           0       -1.919933    3.473071    0.000040
     19          6           0       -3.274530    3.108357    0.000037
     20          1           0       -4.713178    1.478429    0.000035
     21          1           0       -1.609947    4.523465    0.000058
     22          1           0       -4.046395    3.882880    0.000042
     23          6           0       -0.297818    0.093600   -0.000022
     24          8           0        0.358437    2.732841    0.000057
     25          1           0        0.933307    1.749421    0.000022
 ---------------------------------------------------------------------
                    Distance matrix (angstroms):
                    1          2          3          4          5
     1  C    0.000000
     2  C    1.394318   0.000000
     3  C    2.488238   1.430662   0.000000
     4  C    2.848291   2.432714   1.421526   0.000000
     5  C    2.425365   2.752980   2.429212   1.395386   0.000000
     6  C    1.394285   2.393117   2.843011   2.457854   1.410110
     7  H    1.095733   2.165632   3.473880   3.943897   3.429833
     8  H    3.944123   3.436278   2.186078   1.095919   2.171762
     9  H    3.409838   3.847912   3.418068   2.148526   1.094999
    10  H    2.161159   3.391523   3.936744   3.440729   2.176090
    11  N    3.656333   2.339607   1.365165   2.518949   3.738356
    12  S    2.790096   1.739656   2.619702   3.956395   4.484346
    13  C    5.181544   3.818021   3.605202   4.934314   6.027390
    14  C    5.817701   4.573085   4.720236   6.116140   7.073238
    15  C    6.235833   4.841515   4.225562   5.339142   6.608976
    16  C    7.213781   5.954244   5.993044   7.354019   8.387719
    17  H    5.410683   4.324032   4.802308   6.223739   6.999442
    18  C    7.568106   6.178068   5.637364   6.751552   8.025766
    19  C    7.983094   6.638389   6.378136   7.628858   8.806981
    20  H    7.847811   6.672558   6.877045   8.268824   9.225494
    21  H    8.393976   6.999975   6.293831   7.270848   8.605705
    22  H    9.067775   7.728496   7.463467   8.697328   9.891233
    23  C    3.822478   2.438796   2.256077   3.641733   4.652103
    24  O    6.103901   4.748778   3.788295   4.635352   5.994833
    25  H    5.041135   3.722708   2.665832   3.508940   4.859183
                    6          7          8          9         10
     6  C    0.000000
     7  H    2.176348   0.000000
     8  H    3.449663   5.039774   0.000000
     9  H    2.163296   4.327669   2.484209   0.000000
    10  H    1.093898   2.513805   4.341446   2.489054   0.000000
    11  N    4.196363   4.504756   2.836745   4.651484   5.289832
    12  S    4.047233   2.994951   4.805565   5.578797   4.946081
    13  C    6.148013   5.651694   5.278759   7.019563   7.192891
    14  C    6.966166   6.047365   6.579335   8.117391   7.942639
    15  C    7.004478   6.854918   5.386032   7.487483   8.088569
    16  C    8.345400   7.435983   7.708608   9.409651   9.332906
    17  H    6.675175   5.453984   6.846371   8.080295   7.570996
    18  C    8.395923   8.113625   6.754747   8.900070   9.474366
    19  C    8.978812   8.359371   7.787336   9.758638  10.021228
    20  H    9.059601   7.936713   8.692648  10.273681   9.999363
    21  H    9.114228   9.014944   7.116869   9.402949  10.204654
    22  H   10.072082   9.419962   8.815759  10.833234  11.113210
    23  C    4.743048   4.395021   4.144605   5.670328   5.793771
    24  O    6.630486   6.889900   4.459371   6.753337   7.723685
    25  H    5.502913   5.885545   3.421369   5.639984   6.594862
                   11         12         13         14         15
    11  N    0.000000
    12  S    2.628964   0.000000
    13  C    2.455203   2.737937   0.000000
    14  C    3.744478   3.067448   1.411749   0.000000
    15  C    2.873634   4.084689   1.466988   2.486140   0.000000
    16  C    4.889278   4.463611   2.434088   1.397731   2.834173
    17  H    4.092268   2.630619   2.175710   1.095183   3.483491
    18  C    4.289590   5.220696   2.483017   2.844566   1.416832
    19  C    5.110422   5.368308   2.830800   2.445428   2.444086
    20  H    5.857774   5.058160   3.422530   2.157320   3.928046
    21  H    4.928722   6.193990   3.471271   3.939673   2.163025
    22  H    6.181976   6.425269   3.924112   3.429053   3.434216
    23  C    1.363510   1.744871   1.406835   2.474820   2.460285
    24  O    2.461991   4.464429   2.363399   3.643748   1.297990
    25  H    1.386862   3.730852   2.350983   3.761182   1.984692
                   16         17         18         19         20
    16  C    0.000000
    17  H    2.164464   0.000000
    18  C    2.446241   3.939692   0.000000
    19  C    1.413686   3.436208   1.402836   0.000000
    20  H    1.093940   2.483601   3.432319   2.174023   0.000000
    21  H    3.447546   5.034827   1.095179   2.184803   4.347675
    22  H    2.172746   4.328674   2.165591   1.093463   2.495192
    23  C    3.739621   2.729926   3.748611   4.236694   4.627436
    24  O    4.130521   4.533916   2.395603   3.652323   5.224446
    25  H    4.585808   4.440023   3.333459   4.421832   5.652984
                   21         22         23         24         25
    21  H    0.000000
    22  H    2.519251   0.000000
    23  C    4.620106   5.330147   0.000000
    24  O    2.660991   4.552487   2.719608   0.000000
    25  H    3.763437   5.417479   2.063350   1.139118   0.000000
 Symmetry turned off by external request.
 Stoichiometry    C13H9NOS
 Framework group  C1[X(C13H9NOS)]
 Deg. of freedom    69
 Full point group                 C1      NOp   1
 Rotational constants (GHZ):           1.4043787           0.2864066           0.2378915
 Leave Link  202 at Wed Oct 28 01:15:51 2020, MaxMem=  7784628224 cpu:               0.3 elap:               0.1
 (Enter /gpfs/loomis/apps/avx/software/Gaussian/16-C.01_AVX/g16/l301.exe)
 Standard basis: CC-pVDZ (5D, 7F)
 Ernie: Thresh=  0.10000D-02 Tol=  0.10000D-05 Strict=F.
 Ernie:  40 primitive shells out of 425 were deleted.
   273 basis functions,   629 primitive gaussians,   289 cartesian basis functions
    59 alpha electrons       59 beta electrons
       nuclear repulsion energy      1100.2183240490 Hartrees.
 IExCor= 4639 DFT=T Ex+Corr=wB97XD ExCW=0 ScaHFX=  1.000000
 ScaDFX=  1.000000  1.000000  1.000000  1.000000 ScalE2=  1.000000  1.000000
 IRadAn=      5 IRanWt=     -1 IRanGd=            0 ICorTp=0 IEmpDi=121
 HFx  wShort=  0.000000 wLong=  0.200000 cFull=  0.222036 cShort=  0.000000 cLong=  0.777964
 DFx  wShort=  0.000000 wLong=  0.200000 cFull=  0.000000 cShort=  0.000000 cLong=  1.000000
 NAtoms=   25 NActive=   25 NUniq=   25 SFac= 1.00D+00 NAtFMM=   60 NAOKFM=F Big=F
 Integral buffers will be    131072 words long.
 Raffenetti 2 integral format.
 Two-electron integral symmetry is turned off.
 R6Disp:  Grimme-D2 Dispersion energy=       -0.0138278608 Hartrees.
 Nuclear repulsion after empirical dispersion term =     1100.2044961882 Hartrees.
 ------------------------------------------------------------------------------
 Polarizable Continuum Model (PCM)
 =================================
 Model                : PCM.
 Atomic radii         : UFF (Universal Force Field).
 Polarization charges : Total charges.
 Charge compensation  : None.
 Solution method      : On-the-fly selection.
 Cavity type          : Scaled VdW (van der Waals Surface) (Alpha=1.100).
 Cavity algorithm     : GePol (No added spheres)
                        Default sphere list used, NSphG=   25.
                        Lebedev-Laikov grids with approx.  5.0 points / Ang**2.
                        Smoothing algorithm: York/Karplus (Gamma=1.0000).
                        Polarization charges: spherical gaussians, with
                                              point-specific exponents (IZeta= 3).
                        Self-potential: point-specific (ISelfS= 7).
                        Self-field    : sphere-specific E.n sum rule (ISelfD= 2).
 1st derivatives      : Analytical E(r).r(x)/FMM algorithm (CHGder, D1EAlg=3).
                        Cavity 1st derivative terms included.
 Solvent              : CarbonTetraChloride, Eps=   2.228000 Eps(inf)=   2.131892
 ------------------------------------------------------------------------------
 GePol: Number of generator spheres                  =      25
 GePol: Total number of spheres                      =      25
 GePol: Number of exposed spheres                    =      25 (100.00%)
 GePol: Number of points                             =    2193
 GePol: Average weight of points                     =       0.12
 GePol: Minimum weight of points                     =   0.18D-10
 GePol: Maximum weight of points                     =    0.20577
 GePol: Number of points with low weight             =     152
 GePol: Fraction of low-weight points (<1% of avg)   =       6.93%
 GePol: Cavity surface area                          =    271.753 Ang**2
 GePol: Cavity volume                                =    292.287 Ang**3
 Leave Link  301 at Wed Oct 28 01:15:51 2020, MaxMem=  7784628224 cpu:               0.6 elap:               0.1
 (Enter /gpfs/loomis/apps/avx/software/Gaussian/16-C.01_AVX/g16/l302.exe)
 NPDir=0 NMtPBC=     1 NCelOv=     1 NCel=       1 NClECP=     1 NCelD=      1
         NCelK=      1 NCelE2=     1 NClLst=     1 CellRange=     0.0.
 One-electron integrals computed using PRISM.
 NBasis=   273 RedAO= T EigKep=  3.23D-04  NBF=   273
 NBsUse=   273 1.00D-06 EigRej= -1.00D+00 NBFU=   273
 Precomputing XC quadrature grid using
 IXCGrd= 4 IRadAn=           5 IRanWt=          -1 IRanGd=           0 AccXCQ= 0.00D+00.
 Generated NRdTot=       0 NPtTot=           0 NUsed=           0 NTot=          32
 NSgBfM=   288   288   288   288   288 MxSgAt=    25 MxSgA2=    25.
 Leave Link  302 at Wed Oct 28 01:15:52 2020, MaxMem=  7784628224 cpu:               6.8 elap:               1.2
 (Enter /gpfs/loomis/apps/avx/software/Gaussian/16-C.01_AVX/g16/l303.exe)
 DipDrv:  MaxL=1.
 Leave Link  303 at Wed Oct 28 01:15:52 2020, MaxMem=  7784628224 cpu:               0.8 elap:               0.2
 (Enter /gpfs/loomis/apps/avx/software/Gaussian/16-C.01_AVX/g16/l401.exe)
 ExpMin= 1.22D-01 ExpMax= 1.11D+05 ExpMxC= 1.07D+03 IAcc=3 IRadAn=         5 AccDes= 0.00D+00
 Harris functional with IExCor= 4639 and IRadAn=       5 diagonalized for initial guess.
 HarFok:  IExCor= 4639 AccDes= 0.00D+00 IRadAn=         5 IDoV= 1 UseB2=F ITyADJ=14
 ICtDFT=  3500011 ScaDFX=  1.000000  1.000000  1.000000  1.000000
 FoFCou: FMM=F IPFlag=           0 FMFlag=      100000 FMFlg1=           0
         NFxFlg=           0 DoJE=T BraDBF=F KetDBF=T FulRan=T
         wScrn=  0.000000 ICntrl=       500 IOpCl=  0 I1Cent=   200000004 NGrid=           0
         NMat0=    1 NMatS0=      1 NMatT0=    0 NMatD0=    1 NMtDS0=    0 NMtDT0=    0
 Symmetry not used in FoFCou.
 Harris En= -994.457831180071    
 JPrj=0 DoOrth=F DoCkMO=F.
 Leave Link  401 at Wed Oct 28 01:15:55 2020, MaxMem=  7784628224 cpu:              15.5 elap:               2.5
 (Enter /gpfs/loomis/apps/avx/software/Gaussian/16-C.01_AVX/g16/l502.exe)
 Two-electron integral symmetry not used.
 Closed shell SCF:
 Using DIIS extrapolation, IDIIS=  1040.
 NGot=  7784628224 LenX=  7784455381 LenY=  7784371419
 Requested convergence on RMS density matrix=1.00D-08 within 128 cycles.
 Requested convergence on MAX density matrix=1.00D-06.
 Requested convergence on             energy=1.00D-06.
 No special actions if energy rises.
 Fock matrices will be formed incrementally for  20 cycles.

 Cycle   1  Pass 1  IDiag  1:
 FoFJK:  IHMeth= 1 ICntrl=       0 DoSepK=T KAlg= 0 I1Cent=           0 FoldK=F
 IRaf=         1 NMat=       1 IRICut=       1 DoRegI=T DoRafI=F ISym2E= 0 IDoP0=0 IntGTp=1.
 FoFCou: FMM=F IPFlag=           0 FMFlag=      100000 FMFlg1=           0
         NFxFlg=           0 DoJE=T BraDBF=F KetDBF=F FulRan=T
         wScrn=  0.000000 ICntrl=       500 IOpCl=  0 I1Cent=           0 NGrid=           0
         NMat0=    1 NMatS0=      1 NMatT0=    0 NMatD0=    1 NMtDS0=    0 NMtDT0=    0
 Symmetry not used in FoFCou.
 Inv3:  Mode=1 IEnd=    14427747.
 Iteration    1 A*A^-1 deviation from unit magnitude is 4.66D-15 for   2184.
 Iteration    1 A*A^-1 deviation from orthogonality  is 1.82D-15 for   2170   2112.
 Iteration    1 A^-1*A deviation from unit magnitude is 4.66D-15 for   2184.
 Iteration    1 A^-1*A deviation from orthogonality  is 1.80D-15 for   2175   2089.
 E= -1028.58008980295    
 DIIS: error= 3.20D-02 at cycle   1 NSaved=   1.
 NSaved= 1 IEnMin= 1 EnMin= -1028.58008980295     IErMin= 1 ErrMin= 3.20D-02
 ErrMax= 3.20D-02  0.00D+00 EMaxC= 1.00D-01 BMatC= 3.89D-01 BMatP= 3.89D-01
 IDIUse=3 WtCom= 6.80D-01 WtEn= 3.20D-01
 Coeff-Com:  0.100D+01
 Coeff-En:   0.100D+01
 Coeff:      0.100D+01
 Gap=     0.344 Goal=   None    Shift=    0.000
 GapD=    0.344 DampG=1.000 DampE=0.500 DampFc=0.5000 IDamp=-1.
 Damping current iteration by 5.00D-01
 RMSDP=3.50D-03 MaxDP=2.20D-01              OVMax= 1.71D-01

 Cycle   2  Pass 1  IDiag  1:
 RMSU=  1.74D-03    CP:  9.93D-01
 E= -1028.69540495418     Delta-E=       -0.115315151224 Rises=F Damp=T
 DIIS: error= 1.06D-02 at cycle   2 NSaved=   2.
 NSaved= 2 IEnMin= 2 EnMin= -1028.69540495418     IErMin= 2 ErrMin= 1.06D-02
 ErrMax= 1.06D-02  0.00D+00 EMaxC= 1.00D-01 BMatC= 5.78D-02 BMatP= 3.89D-01
 IDIUse=3 WtCom= 8.94D-01 WtEn= 1.06D-01
 Coeff-Com: -0.296D+00 0.130D+01
 Coeff-En:   0.000D+00 0.100D+01
 Coeff:     -0.264D+00 0.126D+01
 Gap=     0.304 Goal=   None    Shift=    0.000
 RMSDP=1.13D-03 MaxDP=2.37D-02 DE=-1.15D-01 OVMax= 1.10D-01

 Cycle   3  Pass 1  IDiag  1:
 RMSU=  1.07D-03    CP:  9.91D-01  1.20D+00
 E= -1028.79709061487     Delta-E=       -0.101685660698 Rises=F Damp=F
 DIIS: error= 6.23D-03 at cycle   3 NSaved=   3.
 NSaved= 3 IEnMin= 3 EnMin= -1028.79709061487     IErMin= 3 ErrMin= 6.23D-03
 ErrMax= 6.23D-03  0.00D+00 EMaxC= 1.00D-01 BMatC= 1.37D-02 BMatP= 5.78D-02
 IDIUse=3 WtCom= 9.38D-01 WtEn= 6.23D-02
 Coeff-Com: -0.205D+00 0.487D+00 0.718D+00
 Coeff-En:   0.000D+00 0.000D+00 0.100D+01
 Coeff:     -0.192D+00 0.457D+00 0.735D+00
 Gap=     0.263 Goal=   None    Shift=    0.000
 RMSDP=5.28D-04 MaxDP=1.97D-02 DE=-1.02D-01 OVMax= 3.82D-02

 Cycle   4  Pass 1  IDiag  1:
 RMSU=  4.07D-04    CP:  9.89D-01  1.36D+00  8.39D-01
 E= -1028.80970035362     Delta-E=       -0.012609738750 Rises=F Damp=F
 DIIS: error= 2.12D-03 at cycle   4 NSaved=   4.
 NSaved= 4 IEnMin= 4 EnMin= -1028.80970035362     IErMin= 4 ErrMin= 2.12D-03
 ErrMax= 2.12D-03  0.00D+00 EMaxC= 1.00D-01 BMatC= 1.64D-03 BMatP= 1.37D-02
 IDIUse=3 WtCom= 9.79D-01 WtEn= 2.12D-02
 Coeff-Com: -0.720D-01 0.143D+00 0.350D+00 0.579D+00
 Coeff-En:   0.000D+00 0.000D+00 0.000D+00 0.100D+01
 Coeff:     -0.705D-01 0.140D+00 0.343D+00 0.588D+00
 Gap=     0.260 Goal=   None    Shift=    0.000
 RMSDP=1.65D-04 MaxDP=9.48D-03 DE=-1.26D-02 OVMax= 1.34D-02

 Cycle   5  Pass 1  IDiag  1:
 RMSU=  1.01D-04    CP:  9.89D-01  1.37D+00  9.10D-01  7.44D-01
 E= -1028.81137279328     Delta-E=       -0.001672439657 Rises=F Damp=F
 DIIS: error= 3.94D-04 at cycle   5 NSaved=   5.
 NSaved= 5 IEnMin= 5 EnMin= -1028.81137279328     IErMin= 5 ErrMin= 3.94D-04
 ErrMax= 3.94D-04  0.00D+00 EMaxC= 1.00D-01 BMatC= 4.96D-05 BMatP= 1.64D-03
 IDIUse=3 WtCom= 9.96D-01 WtEn= 3.94D-03
 Coeff-Com: -0.157D-02-0.276D-02 0.369D-01 0.161D+00 0.806D+00
 Coeff-En:   0.000D+00 0.000D+00 0.000D+00 0.000D+00 0.100D+01
 Coeff:     -0.156D-02-0.274D-02 0.368D-01 0.160D+00 0.807D+00
 Gap=     0.261 Goal=   None    Shift=    0.000
 RMSDP=5.00D-05 MaxDP=1.53D-03 DE=-1.67D-03 OVMax= 4.58D-03

 Cycle   6  Pass 1  IDiag  1:
 RMSU=  3.19D-05    CP:  9.89D-01  1.37D+00  9.28D-01  8.22D-01  1.07D+00
 E= -1028.81147177302     Delta-E=       -0.000098979738 Rises=F Damp=F
 DIIS: error= 1.71D-04 at cycle   6 NSaved=   6.
 NSaved= 6 IEnMin= 6 EnMin= -1028.81147177302     IErMin= 6 ErrMin= 1.71D-04
 ErrMax= 1.71D-04  0.00D+00 EMaxC= 1.00D-01 BMatC= 8.69D-06 BMatP= 4.96D-05
 IDIUse=3 WtCom= 9.98D-01 WtEn= 1.71D-03
 Coeff-Com:  0.141D-01-0.293D-01-0.532D-01-0.524D-01 0.228D+00 0.892D+00
 Coeff-En:   0.000D+00 0.000D+00 0.000D+00 0.000D+00 0.000D+00 0.100D+01
 Coeff:      0.141D-01-0.292D-01-0.531D-01-0.524D-01 0.228D+00 0.893D+00
 Gap=     0.261 Goal=   None    Shift=    0.000
 RMSDP=2.72D-05 MaxDP=1.46D-03 DE=-9.90D-05 OVMax= 2.51D-03

 Cycle   7  Pass 1  IDiag  1:
 RMSU=  1.45D-05    CP:  9.89D-01  1.37D+00  9.38D-01  8.47D-01  1.23D+00
                    CP:  1.20D+00
 E= -1028.81149508123     Delta-E=       -0.000023308207 Rises=F Damp=F
 DIIS: error= 1.09D-04 at cycle   7 NSaved=   7.
 NSaved= 7 IEnMin= 7 EnMin= -1028.81149508123     IErMin= 7 ErrMin= 1.09D-04
 ErrMax= 1.09D-04  0.00D+00 EMaxC= 1.00D-01 BMatC= 2.26D-06 BMatP= 8.69D-06
 IDIUse=3 WtCom= 9.99D-01 WtEn= 1.09D-03
 Coeff-Com:  0.671D-02-0.129D-01-0.296D-01-0.467D-01-0.933D-02 0.418D+00
 Coeff-Com:  0.674D+00
 Coeff-En:   0.000D+00 0.000D+00 0.000D+00 0.000D+00 0.000D+00 0.000D+00
 Coeff-En:   0.100D+01
 Coeff:      0.671D-02-0.129D-01-0.296D-01-0.467D-01-0.932D-02 0.417D+00
 Coeff:      0.675D+00
 Gap=     0.261 Goal=   None    Shift=    0.000
 RMSDP=9.80D-06 MaxDP=4.36D-04 DE=-2.33D-05 OVMax= 1.11D-03

 Cycle   8  Pass 1  IDiag  1:
 RMSU=  6.10D-06    CP:  9.89D-01  1.37D+00  9.40D-01  8.54D-01  1.26D+00
                    CP:  1.38D+00  1.09D+00
 E= -1028.81149913625     Delta-E=       -0.000004055027 Rises=F Damp=F
 DIIS: error= 3.85D-05 at cycle   8 NSaved=   8.
 NSaved= 8 IEnMin= 8 EnMin= -1028.81149913625     IErMin= 8 ErrMin= 3.85D-05
 ErrMax= 3.85D-05  0.00D+00 EMaxC= 1.00D-01 BMatC= 2.68D-07 BMatP= 2.26D-06
 IDIUse=1 WtCom= 1.00D+00 WtEn= 0.00D+00
 Coeff-Com: -0.105D-02 0.236D-02 0.304D-02-0.292D-05-0.411D-01-0.606D-01
 Coeff-Com:  0.209D+00 0.888D+00
 Coeff:     -0.105D-02 0.236D-02 0.304D-02-0.292D-05-0.411D-01-0.606D-01
 Coeff:      0.209D+00 0.888D+00
 Gap=     0.261 Goal=   None    Shift=    0.000
 RMSDP=4.64D-06 MaxDP=1.60D-04 DE=-4.06D-06 OVMax= 6.33D-04

 Cycle   9  Pass 1  IDiag  1:
 RMSU=  2.16D-06    CP:  9.89D-01  1.37D+00  9.40D-01  8.54D-01  1.27D+00
                    CP:  1.45D+00  1.30D+00  1.15D+00
 E= -1028.81149988413     Delta-E=       -0.000000747878 Rises=F Damp=F
 DIIS: error= 1.43D-05 at cycle   9 NSaved=   9.
 NSaved= 9 IEnMin= 9 EnMin= -1028.81149988413     IErMin= 9 ErrMin= 1.43D-05
 ErrMax= 1.43D-05  0.00D+00 EMaxC= 1.00D-01 BMatC= 3.72D-08 BMatP= 2.68D-07
 IDIUse=1 WtCom= 1.00D+00 WtEn= 0.00D+00
 Coeff-Com: -0.110D-02 0.221D-02 0.445D-02 0.602D-02-0.113D-01-0.757D-01
 Coeff-Com: -0.162D-01 0.264D+00 0.827D+00
 Coeff:     -0.110D-02 0.221D-02 0.445D-02 0.602D-02-0.113D-01-0.757D-01
 Coeff:     -0.162D-01 0.264D+00 0.827D+00
 Gap=     0.261 Goal=   None    Shift=    0.000
 RMSDP=1.97D-06 MaxDP=5.95D-05 DE=-7.48D-07 OVMax= 2.97D-04

 Cycle  10  Pass 1  IDiag  1:
 RMSU=  9.70D-07    CP:  9.89D-01  1.37D+00  9.40D-01  8.53D-01  1.27D+00
                    CP:  1.48D+00  1.37D+00  1.30D+00  1.20D+00
 E= -1028.81150002062     Delta-E=       -0.000000136486 Rises=F Damp=F
 DIIS: error= 7.87D-06 at cycle  10 NSaved=  10.
 NSaved=10 IEnMin=10 EnMin= -1028.81150002062     IErMin=10 ErrMin= 7.87D-06
 ErrMax= 7.87D-06  0.00D+00 EMaxC= 1.00D-01 BMatC= 9.18D-09 BMatP= 3.72D-08
 IDIUse=1 WtCom= 1.00D+00 WtEn= 0.00D+00
 Coeff-Com: -0.158D-03 0.270D-03 0.903D-03 0.224D-02 0.377D-02-0.182D-01
 Coeff-Com: -0.419D-01-0.852D-01 0.291D+00 0.847D+00
 Coeff:     -0.158D-03 0.270D-03 0.903D-03 0.224D-02 0.377D-02-0.182D-01
 Coeff:     -0.419D-01-0.852D-01 0.291D+00 0.847D+00
 Gap=     0.261 Goal=   None    Shift=    0.000
 RMSDP=1.07D-06 MaxDP=3.26D-05 DE=-1.36D-07 OVMax= 1.76D-04

 Cycle  11  Pass 1  IDiag  1:
 RMSU=  4.36D-07    CP:  9.89D-01  1.37D+00  9.40D-01  8.54D-01  1.27D+00
                    CP:  1.49D+00  1.40D+00  1.38D+00  1.48D+00  1.23D+00
 E= -1028.81150005709     Delta-E=       -0.000000036473 Rises=F Damp=F
 DIIS: error= 3.73D-06 at cycle  11 NSaved=  11.
 NSaved=11 IEnMin=11 EnMin= -1028.81150005709     IErMin=11 ErrMin= 3.73D-06
 ErrMax= 3.73D-06  0.00D+00 EMaxC= 1.00D-01 BMatC= 1.58D-09 BMatP= 9.18D-09
 IDIUse=1 WtCom= 1.00D+00 WtEn= 0.00D+00
 Coeff-Com:  0.206D-03-0.425D-03-0.743D-03-0.633D-03 0.384D-02 0.899D-02
 Coeff-Com: -0.303D-02-0.747D-01-0.800D-01 0.209D+00 0.937D+00
 Coeff:      0.206D-03-0.425D-03-0.743D-03-0.633D-03 0.384D-02 0.899D-02
 Coeff:     -0.303D-02-0.747D-01-0.800D-01 0.209D+00 0.937D+00
 Gap=     0.261 Goal=   None    Shift=    0.000
 RMSDP=5.01D-07 MaxDP=1.25D-05 DE=-3.65D-08 OVMax= 9.19D-05

 Cycle  12  Pass 1  IDiag  1:
 RMSU=  1.83D-07    CP:  9.89D-01  1.37D+00  9.40D-01  8.54D-01  1.27D+00
                    CP:  1.49D+00  1.41D+00  1.40D+00  1.61D+00  1.52D+00
                    CP:  1.20D+00
 E= -1028.81150006494     Delta-E=       -0.000000007849 Rises=F Damp=F
 DIIS: error= 1.24D-06 at cycle  12 NSaved=  12.
 NSaved=12 IEnMin=12 EnMin= -1028.81150006494     IErMin=12 ErrMin= 1.24D-06
 ErrMax= 1.24D-06  0.00D+00 EMaxC= 1.00D-01 BMatC= 3.82D-10 BMatP= 1.58D-09
 IDIUse=1 WtCom= 1.00D+00 WtEn= 0.00D+00
 Coeff-Com:  0.101D-03-0.197D-03-0.437D-03-0.700D-03 0.803D-03 0.649D-02
 Coeff-Com:  0.908D-02-0.112D-01-0.952D-01-0.129D+00 0.314D+00 0.906D+00
 Coeff:      0.101D-03-0.197D-03-0.437D-03-0.700D-03 0.803D-03 0.649D-02
 Coeff:      0.908D-02-0.112D-01-0.952D-01-0.129D+00 0.314D+00 0.906D+00
 Gap=     0.261 Goal=   None    Shift=    0.000
 RMSDP=2.70D-07 MaxDP=6.38D-06 DE=-7.85D-09 OVMax= 4.44D-05

 Cycle  13  Pass 1  IDiag  1:
 RMSU=  7.34D-08    CP:  9.89D-01  1.37D+00  9.40D-01  8.54D-01  1.27D+00
                    CP:  1.49D+00  1.41D+00  1.41D+00  1.68D+00  1.66D+00
                    CP:  1.51D+00  1.17D+00
 E= -1028.81150006655     Delta-E=       -0.000000001608 Rises=F Damp=F
 DIIS: error= 3.49D-07 at cycle  13 NSaved=  13.
 NSaved=13 IEnMin=13 EnMin= -1028.81150006655     IErMin=13 ErrMin= 3.49D-07
 ErrMax= 3.49D-07  0.00D+00 EMaxC= 1.00D-01 BMatC= 3.67D-11 BMatP= 3.82D-10
 IDIUse=1 WtCom= 1.00D+00 WtEn= 0.00D+00
 Coeff-Com: -0.698D-05 0.169D-04 0.464D-05-0.872D-04-0.262D-03 0.297D-03
 Coeff-Com:  0.331D-02 0.863D-02-0.997D-02-0.649D-01-0.690D-01 0.235D+00
 Coeff-Com:  0.897D+00
 Coeff:     -0.698D-05 0.169D-04 0.464D-05-0.872D-04-0.262D-03 0.297D-03
 Coeff:      0.331D-02 0.863D-02-0.997D-02-0.649D-01-0.690D-01 0.235D+00
 Coeff:      0.897D+00
 Gap=     0.261 Goal=   None    Shift=    0.000
 RMSDP=6.96D-08 MaxDP=1.71D-06 DE=-1.61D-09 OVMax= 1.03D-05

 Cycle  14  Pass 1  IDiag  1:
 RMSU=  2.49D-08    CP:  9.89D-01  1.37D+00  9.40D-01  8.54D-01  1.27D+00
                    CP:  1.49D+00  1.41D+00  1.41D+00  1.70D+00  1.70D+00
                    CP:  1.58D+00  1.35D+00  1.16D+00
 E= -1028.81150006667     Delta-E=       -0.000000000122 Rises=F Damp=F
 DIIS: error= 9.42D-08 at cycle  14 NSaved=  14.
 NSaved=14 IEnMin=14 EnMin= -1028.81150006667     IErMin=14 ErrMin= 9.42D-08
 ErrMax= 9.42D-08  0.00D+00 EMaxC= 1.00D-01 BMatC= 3.40D-12 BMatP= 3.67D-11
 IDIUse=1 WtCom= 1.00D+00 WtEn= 0.00D+00
 Coeff-Com: -0.990D-05 0.201D-04 0.379D-04 0.319D-04-0.123D-03-0.495D-03
 Coeff-Com:  0.133D-03 0.288D-02 0.540D-02-0.550D-02-0.399D-01-0.653D-02
 Coeff-Com:  0.242D+00 0.802D+00
 Coeff:     -0.990D-05 0.201D-04 0.379D-04 0.319D-04-0.123D-03-0.495D-03
 Coeff:      0.133D-03 0.288D-02 0.540D-02-0.550D-02-0.399D-01-0.653D-02
 Coeff:      0.242D+00 0.802D+00
 Gap=     0.261 Goal=   None    Shift=    0.000
 RMSDP=1.35D-08 MaxDP=3.95D-07 DE=-1.22D-10 OVMax= 1.54D-06

 Cycle  15  Pass 1  IDiag  1:
 RMSU=  8.59D-09    CP:  9.89D-01  1.37D+00  9.40D-01  8.54D-01  1.27D+00
                    CP:  1.49D+00  1.42D+00  1.41D+00  1.70D+00  1.70D+00
                    CP:  1.58D+00  1.38D+00  1.26D+00  1.11D+00
 E= -1028.81150006667     Delta-E=       -0.000000000005 Rises=F Damp=F
 DIIS: error= 5.05D-08 at cycle  15 NSaved=  15.
 NSaved=15 IEnMin=15 EnMin= -1028.81150006667     IErMin=15 ErrMin= 5.05D-08
 ErrMax= 5.05D-08  0.00D+00 EMaxC= 1.00D-01 BMatC= 8.12D-13 BMatP= 3.40D-12
 IDIUse=1 WtCom= 1.00D+00 WtEn= 0.00D+00
 Coeff-Com: -0.276D-05 0.507D-05 0.153D-04 0.283D-04-0.711D-05-0.273D-03
 Coeff-Com: -0.580D-03-0.396D-03 0.403D-02 0.934D-02-0.522D-02-0.506D-01
 Coeff-Com: -0.730D-01 0.296D+00 0.821D+00
 Coeff:     -0.276D-05 0.507D-05 0.153D-04 0.283D-04-0.711D-05-0.273D-03
 Coeff:     -0.580D-03-0.396D-03 0.403D-02 0.934D-02-0.522D-02-0.506D-01
 Coeff:     -0.730D-01 0.296D+00 0.821D+00
 Gap=     0.261 Goal=   None    Shift=    0.000
 RMSDP=8.43D-09 MaxDP=1.93D-07 DE=-4.77D-12 OVMax= 1.00D-06

 Error on total polarization charges =  0.00820
 SCF Done:  E(RwB97XD) =  -1028.81150007     A.U. after   15 cycles
            NFock= 15  Conv=0.84D-08     -V/T= 2.0051
 KE= 1.023589209667D+03 PE=-4.612447333387D+03 EE= 1.459842127465D+03
 Leave Link  502 at Wed Oct 28 01:17:20 2020, MaxMem=  7784628224 cpu:             822.5 elap:              84.7
 (Enter /gpfs/loomis/apps/avx/software/Gaussian/16-C.01_AVX/g16/l601.exe)
 Copying SCF densities to generalized density rwf, IOpCl= 0 IROHF=0.

 **********************************************************************

            Population analysis using the SCF Density.

 **********************************************************************

 Alpha  occ. eigenvalues --  -89.09117 -19.26412 -14.48469 -10.40036 -10.37689
 Alpha  occ. eigenvalues --  -10.36070 -10.34995 -10.32475 -10.32283 -10.32180
 Alpha  occ. eigenvalues --  -10.32019 -10.31810 -10.31739 -10.31736 -10.30366
 Alpha  occ. eigenvalues --  -10.30297  -8.11215  -6.06051  -6.05707  -6.05271
 Alpha  occ. eigenvalues --   -1.15153  -1.08870  -0.96830  -0.95742  -0.92466
 Alpha  occ. eigenvalues --   -0.88774  -0.85334  -0.83960  -0.82325  -0.75799
 Alpha  occ. eigenvalues --   -0.71295  -0.70634  -0.68858  -0.67764  -0.63527
 Alpha  occ. eigenvalues --   -0.60662  -0.59043  -0.58378  -0.55640  -0.54302
 Alpha  occ. eigenvalues --   -0.54301  -0.53376  -0.52932  -0.50697  -0.49923
 Alpha  occ. eigenvalues --   -0.49561  -0.46859  -0.46167  -0.45720  -0.44824
 Alpha  occ. eigenvalues --   -0.44290  -0.42667  -0.42528  -0.40377  -0.36468
 Alpha  occ. eigenvalues --   -0.36332  -0.32296  -0.31294  -0.27928
 Alpha virt. eigenvalues --   -0.01784   0.04701   0.06551   0.07526   0.07553
 Alpha virt. eigenvalues --    0.10777   0.14557   0.15025   0.16915   0.17863
 Alpha virt. eigenvalues --    0.18596   0.20944   0.21417   0.22135   0.22357
 Alpha virt. eigenvalues --    0.23480   0.23917   0.24398   0.27884   0.29586
 Alpha virt. eigenvalues --    0.32379   0.33209   0.34933   0.35554   0.36941
 Alpha virt. eigenvalues --    0.38081   0.39054   0.40657   0.42529   0.43134
 Alpha virt. eigenvalues --    0.47034   0.47801   0.50660   0.51307   0.51339
 Alpha virt. eigenvalues --    0.52009   0.53292   0.53905   0.54057   0.55311
 Alpha virt. eigenvalues --    0.56095   0.56456   0.56678   0.57427   0.58184
 Alpha virt. eigenvalues --    0.58294   0.58505   0.58583   0.59296   0.60500
 Alpha virt. eigenvalues --    0.60579   0.60936   0.61767   0.62804   0.63057
 Alpha virt. eigenvalues --    0.65050   0.65714   0.66646   0.67184   0.69055
 Alpha virt. eigenvalues --    0.69983   0.71009   0.72095   0.72390   0.72796
 Alpha virt. eigenvalues --    0.73056   0.74551   0.75133   0.75893   0.78340
 Alpha virt. eigenvalues --    0.78764   0.79063   0.80098   0.81210   0.82246
 Alpha virt. eigenvalues --    0.84589   0.88310   0.90711   0.91202   0.93696
 Alpha virt. eigenvalues --    0.94856   0.94979   0.95736   0.96784   0.97172
 Alpha virt. eigenvalues --    0.98060   0.98593   1.00427   1.00523   1.01800
 Alpha virt. eigenvalues --    1.02409   1.05671   1.06501   1.07066   1.07372
 Alpha virt. eigenvalues --    1.07986   1.09597   1.09674   1.10440   1.11506
 Alpha virt. eigenvalues --    1.12065   1.12666   1.14259   1.14642   1.15436
 Alpha virt. eigenvalues --    1.15726   1.19810   1.20193   1.22032   1.22294
 Alpha virt. eigenvalues --    1.25376   1.29354   1.33013   1.33814   1.34704
 Alpha virt. eigenvalues --    1.36507   1.36928   1.38986   1.40607   1.47702
 Alpha virt. eigenvalues --    1.48967   1.49236   1.50699   1.54083   1.54576
 Alpha virt. eigenvalues --    1.55510   1.56490   1.56946   1.57509   1.57819
 Alpha virt. eigenvalues --    1.58820   1.60515   1.62489   1.65894   1.66346
 Alpha virt. eigenvalues --    1.68129   1.69176   1.69699   1.69868   1.70775
 Alpha virt. eigenvalues --    1.71993   1.72461   1.73140   1.73361   1.75731
 Alpha virt. eigenvalues --    1.76573   1.78635   1.79833   1.81182   1.82235
 Alpha virt. eigenvalues --    1.82871   1.82873   1.84209   1.84511   1.84990
 Alpha virt. eigenvalues --    1.86529   1.87921   1.88063   1.88814   1.91831
 Alpha virt. eigenvalues --    1.92192   1.92554   1.93381   1.94690   1.96570
 Alpha virt. eigenvalues --    1.98849   1.99882   2.00440   2.02761   2.03262
 Alpha virt. eigenvalues --    2.04539   2.07681   2.08747   2.11109   2.12973
 Alpha virt. eigenvalues --    2.17043   2.17097   2.20108   2.20184   2.23692
 Alpha virt. eigenvalues --    2.25956   2.26368   2.30771   2.36994   2.39183
 Alpha virt. eigenvalues --    2.41193   2.41509   2.43068   2.44373   2.46561
 Alpha virt. eigenvalues --    2.47389   2.49539   2.50835   2.53000   2.61528
 Alpha virt. eigenvalues --    2.62614   2.72044   2.72690   2.75071   2.78734
 Alpha virt. eigenvalues --    2.80684   2.83430   2.85086   2.89117   2.91774
 Alpha virt. eigenvalues --    2.93999   3.02861   3.08700   3.15090   3.35490
 Alpha virt. eigenvalues --    3.44427   3.54910   3.65537   3.88515
          Condensed to atoms (all electrons):
               1          2          3          4          5          6
     1  C    4.742920   0.475842   0.007378  -0.052429  -0.015680   0.519500
     2  C    0.475842   5.295250   0.345049  -0.035130  -0.066986  -0.008800
     3  C    0.007378   0.345049   4.794643   0.488756  -0.004702  -0.061948
     4  C   -0.052429  -0.035130   0.488756   4.784236   0.522189  -0.011896
     5  C   -0.015680  -0.066986  -0.004702   0.522189   4.737908   0.492643
     6  C    0.519500  -0.008800  -0.061948  -0.011896   0.492643   4.741083
     7  H    0.401205  -0.036850   0.008372  -0.000575   0.007913  -0.039648
     8  H   -0.000764   0.011307  -0.034509   0.395277  -0.041988   0.007680
     9  H    0.008984  -0.000737   0.008538  -0.038509   0.404491  -0.045310
    10  H   -0.042362   0.009307  -0.000461   0.008209  -0.042404   0.406249
    11  N    0.006524  -0.056814   0.436575  -0.038618   0.003052  -0.000034
    12  S   -0.071352   0.334211  -0.106059   0.006735   0.000291   0.004023
    13  C   -0.000210   0.002806   0.007356  -0.000522   0.000008   0.000004
    14  C   -0.000012   0.000164   0.000288   0.000007  -0.000000  -0.000000
    15  C    0.000005  -0.000317   0.000258   0.000028  -0.000000  -0.000000
    16  C    0.000000  -0.000008   0.000005  -0.000000   0.000000  -0.000000
    17  H   -0.000011   0.000208  -0.000003   0.000000   0.000000   0.000000
    18  C    0.000000   0.000007  -0.000014  -0.000000  -0.000000  -0.000000
    19  C   -0.000000   0.000000   0.000001   0.000000  -0.000000   0.000000
    20  H   -0.000000  -0.000000  -0.000000   0.000000  -0.000000  -0.000000
    21  H   -0.000000  -0.000000   0.000000   0.000000  -0.000000   0.000000
    22  H    0.000000  -0.000000  -0.000000  -0.000000   0.000000  -0.000000
    23  C    0.004174  -0.050487  -0.121829  -0.000353   0.000270  -0.000184
    24  O    0.000001  -0.000058  -0.001789  -0.000045  -0.000000  -0.000000
    25  H   -0.000043   0.003528  -0.010441  -0.000692  -0.000027   0.000009
               7          8          9         10         11         12
     1  C    0.401205  -0.000764   0.008984  -0.042362   0.006524  -0.071352
     2  C   -0.036850   0.011307  -0.000737   0.009307  -0.056814   0.334211
     3  C    0.008372  -0.034509   0.008538  -0.000461   0.436575  -0.106059
     4  C   -0.000575   0.395277  -0.038509   0.008209  -0.038618   0.006735
     5  C    0.007913  -0.041988   0.404491  -0.042404   0.003052   0.000291
     6  C   -0.039648   0.007680  -0.045310   0.406249  -0.000034   0.004023
     7  H    0.656399   0.000032  -0.000158  -0.011013  -0.000095  -0.007797
     8  H    0.000032   0.652339  -0.012531  -0.000108  -0.001854  -0.000181
     9  H   -0.000158  -0.012531   0.663700  -0.012015  -0.000090   0.000020
    10  H   -0.011013  -0.000108  -0.012015   0.660729   0.000001  -0.000169
    11  N   -0.000095  -0.001854  -0.000090   0.000001   6.496156  -0.066928
    12  S   -0.007797  -0.000181   0.000020  -0.000169  -0.066928  15.475385
    13  C   -0.000000   0.000032  -0.000000  -0.000000  -0.018201  -0.063102
    14  C    0.000001   0.000001   0.000000  -0.000000   0.003508  -0.012687
    15  C   -0.000000  -0.000014   0.000000   0.000000  -0.016168   0.005143
    16  C    0.000000   0.000000  -0.000000  -0.000000  -0.000073   0.000365
    17  H    0.000002   0.000000  -0.000000  -0.000000   0.000224   0.009088
    18  C    0.000000  -0.000000   0.000000  -0.000000  -0.000608  -0.000218
    19  C    0.000000   0.000000  -0.000000  -0.000000   0.000036   0.000028
    20  H    0.000000   0.000000   0.000000   0.000000   0.000001   0.000013
    21  H   -0.000000   0.000000  -0.000000   0.000000   0.000014   0.000005
    22  H    0.000000  -0.000000   0.000000  -0.000000  -0.000000  -0.000001
    23  C    0.000164  -0.000811   0.000006   0.000005   0.525921   0.316972
    24  O   -0.000000  -0.000118   0.000000  -0.000000  -0.071418  -0.000246
    25  H    0.000002   0.000909  -0.000004  -0.000000   0.152088   0.003243
              13         14         15         16         17         18
     1  C   -0.000210  -0.000012   0.000005   0.000000  -0.000011   0.000000
     2  C    0.002806   0.000164  -0.000317  -0.000008   0.000208   0.000007
     3  C    0.007356   0.000288   0.000258   0.000005  -0.000003  -0.000014
     4  C   -0.000522   0.000007   0.000028  -0.000000   0.000000  -0.000000
     5  C    0.000008  -0.000000  -0.000000   0.000000   0.000000  -0.000000
     6  C    0.000004  -0.000000  -0.000000  -0.000000   0.000000  -0.000000
     7  H   -0.000000   0.000001  -0.000000   0.000000   0.000002   0.000000
     8  H    0.000032   0.000001  -0.000014   0.000000   0.000000  -0.000000
     9  H   -0.000000   0.000000   0.000000  -0.000000  -0.000000   0.000000
    10  H   -0.000000  -0.000000   0.000000  -0.000000  -0.000000  -0.000000
    11  N   -0.018201   0.003508  -0.016168  -0.000073   0.000224  -0.000608
    12  S   -0.063102  -0.012687   0.005143   0.000365   0.009088  -0.000218
    13  C    5.311384   0.469507   0.269416  -0.009595  -0.035759  -0.044159
    14  C    0.469507   4.831009  -0.003511   0.532701   0.397652  -0.054847
    15  C    0.269416  -0.003511   4.760818  -0.056078   0.006373   0.488487
    16  C   -0.009595   0.532701  -0.056078   4.740021  -0.031934  -0.019309
    17  H   -0.035759   0.397652   0.006373  -0.031934   0.658355  -0.000624
    18  C   -0.044159  -0.054847   0.488487  -0.019309  -0.000624   4.832366
    19  C   -0.053084  -0.020747  -0.008210   0.493000   0.007822   0.515298
    20  H    0.008757  -0.035352  -0.000183   0.401017  -0.011804   0.008041
    21  H    0.013213  -0.000537  -0.024537   0.007148   0.000043   0.378098
    22  H   -0.001363   0.009603   0.008801  -0.043806  -0.000170  -0.041685
    23  C    0.349313  -0.087526  -0.078188   0.006413  -0.022422   0.007988
    24  O   -0.091854   0.004838   0.549655  -0.000059  -0.000059  -0.056425
    25  H   -0.023007  -0.000826  -0.022089   0.000001  -0.000025   0.003549
              19         20         21         22         23         24
     1  C   -0.000000  -0.000000  -0.000000   0.000000   0.004174   0.000001
     2  C    0.000000  -0.000000  -0.000000  -0.000000  -0.050487  -0.000058
     3  C    0.000001  -0.000000   0.000000  -0.000000  -0.121829  -0.001789
     4  C    0.000000   0.000000   0.000000  -0.000000  -0.000353  -0.000045
     5  C   -0.000000  -0.000000  -0.000000   0.000000   0.000270  -0.000000
     6  C    0.000000  -0.000000   0.000000  -0.000000  -0.000184  -0.000000
     7  H    0.000000   0.000000  -0.000000   0.000000   0.000164  -0.000000
     8  H    0.000000   0.000000   0.000000  -0.000000  -0.000811  -0.000118
     9  H   -0.000000   0.000000  -0.000000   0.000000   0.000006   0.000000
    10  H   -0.000000   0.000000   0.000000  -0.000000   0.000005  -0.000000
    11  N    0.000036   0.000001   0.000014  -0.000000   0.525921  -0.071418
    12  S    0.000028   0.000013   0.000005  -0.000001   0.316972  -0.000246
    13  C   -0.053084   0.008757   0.013213  -0.001363   0.349313  -0.091854
    14  C   -0.020747  -0.035352  -0.000537   0.009603  -0.087526   0.004838
    15  C   -0.008210  -0.000183  -0.024537   0.008801  -0.078188   0.549655
    16  C    0.493000   0.401017   0.007148  -0.043806   0.006413  -0.000059
    17  H    0.007822  -0.011804   0.000043  -0.000170  -0.022422  -0.000059
    18  C    0.515298   0.008041   0.378098  -0.041685   0.007988  -0.056425
    19  C    4.723500  -0.045857  -0.044218   0.405436   0.000814   0.002875
    20  H   -0.045857   0.676951  -0.000136  -0.011887  -0.000382   0.000002
    21  H   -0.044218  -0.000136   0.662161  -0.012033  -0.000427   0.002891
    22  H    0.405436  -0.011887  -0.012033   0.663165  -0.000005  -0.000056
    23  C    0.000814  -0.000382  -0.000427  -0.000005   5.072616  -0.003412
    24  O    0.002875   0.000002   0.002891  -0.000056  -0.003412   7.683292
    25  H   -0.000185  -0.000001  -0.000005   0.000008  -0.005064   0.277891
              25
     1  C   -0.000043
     2  C    0.003528
     3  C   -0.010441
     4  C   -0.000692
     5  C   -0.000027
     6  C    0.000009
     7  H    0.000002
     8  H    0.000909
     9  H   -0.000004
    10  H   -0.000000
    11  N    0.152088
    12  S    0.003243
    13  C   -0.023007
    14  C   -0.000826
    15  C   -0.022089
    16  C    0.000001
    17  H   -0.000025
    18  C    0.003549
    19  C   -0.000185
    20  H   -0.000001
    21  H   -0.000005
    22  H    0.000008
    23  C   -0.005064
    24  O    0.277891
    25  H    0.399116
 Mulliken charges:
               1
     1  C    0.016328
     2  C   -0.221493
     3  C    0.244535
     4  C   -0.026667
     5  C    0.003022
     6  C   -0.003370
     7  H    0.022046
     8  H    0.025301
     9  H    0.023613
    10  H    0.024031
    11  N   -0.353198
    12  S    0.173219
    13  C   -0.090937
    14  C   -0.033234
    15  C    0.120307
    16  C   -0.019811
    17  H    0.023044
    18  C   -0.015944
    19  C    0.023491
    20  H    0.010818
    21  H    0.018320
    22  H    0.023991
    23  C    0.086435
    24  O   -0.295908
    25  H    0.222063
 Sum of Mulliken charges =  -0.00000
 Mulliken charges with hydrogens summed into heavy atoms:
               1
     1  C    0.038373
     2  C   -0.221493
     3  C    0.244535
     4  C   -0.001367
     5  C    0.026636
     6  C    0.020661
    11  N   -0.353198
    12  S    0.173219
    13  C   -0.090937
    14  C   -0.010190
    15  C    0.120307
    16  C   -0.008993
    18  C    0.002376
    19  C    0.047482
    23  C    0.086435
    24  O   -0.073845
 Electronic spatial extent (au):  <R**2>=           4326.2399
 Charge=             -0.0000 electrons
 Dipole moment (field-independent basis, Debye):
    X=             -0.1536    Y=             -3.0977    Z=             -0.0000  Tot=              3.1015
 Quadrupole moment (field-independent basis, Debye-Ang):
   XX=            -83.0677   YY=            -90.8321   ZZ=           -104.3781
   XY=             -7.0006   XZ=             -0.0001   YZ=             -0.0001
 Traceless Quadrupole moment (field-independent basis, Debye-Ang):
   XX=              9.6916   YY=              1.9272   ZZ=            -11.6188
   XY=             -7.0006   XZ=             -0.0001   YZ=             -0.0001
 Octapole moment (field-independent basis, Debye-Ang**2):
  XXX=             12.5864  YYY=            -30.4896  ZZZ=              0.0000  XYY=             -5.7498
  XXY=              0.9468  XXZ=              0.0001  XZZ=              1.2438  YZZ=              3.4603
  YYZ=             -0.0000  XYZ=             -0.0004
 Hexadecapole moment (field-independent basis, Debye-Ang**3):
 XXXX=          -2595.9678 YYYY=          -2609.5079 ZZZZ=           -113.4509 XXXY=            806.2106
 XXXZ=              0.0099 YYYX=            769.4505 YYYZ=             -0.0148 ZZZX=              0.0141
 ZZZY=             -0.0171 XXYY=           -839.7917 XXZZ=           -572.4693 YYZZ=           -545.4318
 XXYZ=             -0.0041 YYXZ=              0.0025 ZZXY=            358.7804
 N-N= 1.100204496188D+03 E-N=-4.612447335606D+03  KE= 1.023589209667D+03
 No NMR shielding tensors so no spin-rotation constants.
 Leave Link  601 at Wed Oct 28 01:17:20 2020, MaxMem=  7784628224 cpu:               1.9 elap:               0.4
 (Enter /gpfs/loomis/apps/avx/software/Gaussian/16-C.01_AVX/g16/l701.exe)
 ... and contract with generalized density number  0.
 Compute integral first derivatives.
 R6Disp: Adding Grimme-D2 dispersion energy 1st derivatives to the gradient.
 D1PCM: PCM CHGder 1st derivatives, ID1Alg=3 FixD1E=F DoIter=F DoCFld=F I1PDM=0.
 GePol: Maximum number of non-zero 1st derivatives   =     252
 Leave Link  701 at Wed Oct 28 01:17:23 2020, MaxMem=  7784628224 cpu:              18.4 elap:               3.1
 (Enter /gpfs/loomis/apps/avx/software/Gaussian/16-C.01_AVX/g16/l702.exe)
 L702 exits ... SP integral derivatives will be done elsewhere.
 Leave Link  702 at Wed Oct 28 01:17:23 2020, MaxMem=  7784628224 cpu:               0.3 elap:               0.1
 (Enter /gpfs/loomis/apps/avx/software/Gaussian/16-C.01_AVX/g16/l703.exe)
 Integral derivatives from FoFJK, PRISM(SPDF).
 Compute integral first derivatives, UseDBF=F ICtDFT=           0.
 Calling FoFJK, ICntrl=      2127 FMM=F ISym2X=0 I1Cent= 0 IOpClX= 0 NMat=1 NMatS=1 NMatT=0.
 FoFJK:  IHMeth= 1 ICntrl=    2127 DoSepK=T KAlg= 0 I1Cent=           0 FoldK=F
 IRaf=         1 NMat=       1 IRICut=       1 DoRegI=T DoRafI=F ISym2E= 0 IDoP0=0 IntGTp=1.
 FoFCou: FMM=F IPFlag=           0 FMFlag=      100000 FMFlg1=         800
         NFxFlg=           0 DoJE=F BraDBF=F KetDBF=F FulRan=T
         wScrn=  0.000000 ICntrl=      2527 IOpCl=  0 I1Cent=           0 NGrid=           0
         NMat0=    1 NMatS0=      1 NMatT0=    0 NMatD0=    1 NMtDS0=    0 NMtDT0=    0
 Symmetry not used in FoFCou.
 Leave Link  703 at Wed Oct 28 01:17:44 2020, MaxMem=  7784628224 cpu:             135.4 elap:              20.8
 (Enter /gpfs/loomis/apps/avx/software/Gaussian/16-C.01_AVX/g16/l716.exe)
 Dipole        =-6.04284214D-02-1.21872396D+00-1.18804831D-05
 -------------------------------------------------------------------
 Center     Atomic                   Forces (Hartrees/Bohr)
 Number     Number              X              Y              Z
 -------------------------------------------------------------------
      1        6           0.005621582   -0.002266626   -0.000000058
      2        6           0.009000994    0.003271945   -0.000000217
      3        6           0.011077298   -0.033630864   -0.000000626
      4        6          -0.011048700    0.003259161    0.000000096
      5        6          -0.000719137    0.000774555    0.000000093
      6        6          -0.002258609    0.006360505   -0.000000145
      7        1           0.002599465    0.002417598   -0.000000042
      8        1          -0.002479850   -0.002660323    0.000000033
      9        1          -0.002444808    0.000735755    0.000000001
     10        1          -0.000835512    0.002384699   -0.000000005
     11        7          -0.048370028    0.000567994    0.000001459
     12       16           0.006288030    0.001550922   -0.000000004
     13        6          -0.018576457    0.043425111    0.000000299
     14        6          -0.003252867    0.015407403   -0.000001051
     15        6          -0.013207312   -0.034298602   -0.000000327
     16        6           0.002348449   -0.004601578    0.000000078
     17        1          -0.000984767    0.002517004   -0.000000039
     18        6          -0.006579691   -0.003662537    0.000000828
     19        6           0.017132208   -0.007730036    0.000000141
     20        1           0.002239213    0.000616115    0.000000055
     21        1          -0.000830949   -0.003003608   -0.000000316
     22        1           0.001562985   -0.000721550   -0.000000007
     23        6           0.041256911   -0.013044594    0.000000478
     24        8           0.025566297   -0.005097775   -0.000001568
     25        1          -0.013104744    0.027429326    0.000000845
 -------------------------------------------------------------------
 Cartesian Forces:  Max     0.048370028 RMS     0.012516609
 Leave Link  716 at Wed Oct 28 01:17:44 2020, MaxMem=  7784628224 cpu:               0.3 elap:               0.1
 (Enter /gpfs/loomis/apps/avx/software/Gaussian/16-C.01_AVX/g16/l103.exe)

 GradGradGradGradGradGradGradGradGradGradGradGradGradGradGradGradGradGrad
 Berny optimization.
 FormGI is forming the generalized inverse of G from B-inverse, IUseBI=4.
 Internal  Forces:  Max     0.037165235 RMS     0.006471934
 Search for a local minimum.
 Step number   1 out of a maximum of  143
 All quantities printed in internal units (Hartrees-Bohrs-Radians)
 RMS Force = .65211D-02 SwitMx=.10000D-02 MixMth= 1
 Mixed Optimization -- RFO/linear search
 Second derivative matrix not updated -- first step.
 ITU=  0
     Eigenvalues ---    0.01488   0.01509   0.01744   0.01757   0.01838
     Eigenvalues ---    0.01871   0.01883   0.01939   0.01953   0.01954
     Eigenvalues ---    0.01982   0.01984   0.01998   0.02009   0.02014
     Eigenvalues ---    0.02033   0.02040   0.02051   0.02084   0.02113
     Eigenvalues ---    0.02164   0.03041   0.16000   0.16000   0.16000
     Eigenvalues ---    0.16000   0.16000   0.16000   0.16000   0.16003
     Eigenvalues ---    0.16187   0.22000   0.22024   0.22534   0.22591
     Eigenvalues ---    0.24475   0.24551   0.25000   0.25000   0.25000
     Eigenvalues ---    0.28836   0.29986   0.30753   0.33821   0.34137
     Eigenvalues ---    0.34158   0.34220   0.34221   0.34241   0.34361
     Eigenvalues ---    0.34366   0.34416   0.37129   0.39474   0.40409
     Eigenvalues ---    0.41594   0.42685   0.43357   0.43769   0.44303
     Eigenvalues ---    0.44596   0.45331   0.46054   0.46474   0.48718
     Eigenvalues ---    0.50838   0.675861000.000001000.000001000.00000
     Eigenvalues --- 1000.000001000.000001000.000001000.000001000.00000
     Eigenvalues --- 1000.000001000.000001000.000001000.000001000.00000
     Eigenvalues --- 1000.000001000.000001000.000001000.000001000.00000
     Eigenvalues --- 1000.000001000.000001000.000001000.000001000.00000
     Eigenvalues --- 1000.000001000.000001000.000001000.000001000.00000
     Eigenvalues --- 1000.000001000.000001000.000001000.000001000.00000
     Eigenvalues --- 1000.000001000.000001000.000001000.000001000.00000
     Eigenvalues --- 1000.000001000.000001000.000001000.000001000.00000
     Eigenvalues --- 1000.000001000.000001000.000001000.000001000.00000
     Eigenvalues --- 1000.000001000.000001000.000001000.000001000.00000
     Eigenvalues --- 1000.000001000.000001000.000001000.000001000.00000
     Eigenvalues --- 1000.000001000.000001000.000001000.000001000.00000
     Eigenvalues --- 1000.000001000.000001000.00000
 RFO step:  Lambda=-1.34605318D-02 EMin= 1.48778439D-02
 Linear search not attempted -- first point.
 Iteration  1 RMS(Cart)=  0.02028207 RMS(Int)=  0.00018482
 Iteration  2 RMS(Cart)=  0.00025941 RMS(Int)=  0.00005619
 Iteration  3 RMS(Cart)=  0.00000009 RMS(Int)=  0.00005618
 Iteration  1 RMS(Cart)=  0.00000005 RMS(Int)=  0.00000001
 ITry= 1 IFail=0 DXMaxC= 7.38D-02 DCOld= 1.00D+10 DXMaxT= 3.00D-01 DXLimC= 3.00D+00 Rises=F
 Variable       Old X    -DE/DX   Delta X   Delta X   Delta X     New X
                                 (Linear)    (Quad)   (Total)
    R1        2.63488  -0.00440   0.00000  -0.00946  -0.00943   2.62545
    R2        2.63482  -0.00882   0.00000  -0.01825  -0.01824   2.61657
    R3        2.07064  -0.00351   0.00000  -0.00987  -0.00987   2.06076
    R4        2.70356  -0.01966   0.00000  -0.04453  -0.04442   2.65914
    R5        3.28747  -0.00216   0.00000  -0.00507  -0.00501   3.28247
    R6        2.68629  -0.01272   0.00000  -0.02937  -0.02938   2.65692
    R7        2.57979   0.02206   0.00000   0.04209   0.04207   2.62186
    R8        2.63690  -0.00238   0.00000  -0.00467  -0.00471   2.63219
    R9        2.07099  -0.00361   0.00000  -0.01018  -0.01018   2.06081
   R10        2.66472  -0.00673   0.00000  -0.01444  -0.01446   2.65026
   R11        2.06925  -0.00254   0.00000  -0.00713  -0.00713   2.06212
   R12        2.06717  -0.00245   0.00000  -0.00686  -0.00686   2.06031
   R13        2.57666  -0.03717   0.00000  -0.07089  -0.07098   2.50568
   R14        3.29733  -0.00985   0.00000  -0.03391  -0.03393   3.26340
   R15        2.66782  -0.00757   0.00000  -0.01728  -0.01713   2.65068
   R16        2.77221  -0.02801   0.00000  -0.07542  -0.07531   2.69689
   R17        2.65853   0.01688   0.00000   0.03655   0.03658   2.69511
   R18        2.64133  -0.01762   0.00000  -0.03749  -0.03740   2.60392
   R19        2.06960  -0.00206   0.00000  -0.00579  -0.00579   2.06381
   R20        2.67742  -0.00263   0.00000  -0.00550  -0.00560   2.67182
   R21        2.45285   0.01312   0.00000   0.01892   0.01893   2.47178
   R22        2.67148  -0.01196   0.00000  -0.02664  -0.02670   2.64478
   R23        2.06725  -0.00219   0.00000  -0.00612  -0.00612   2.06113
   R24        2.65098  -0.01020   0.00000  -0.02143  -0.02158   2.62939
   R25        2.06959  -0.00320   0.00000  -0.00900  -0.00900   2.06059
   R26        2.06635  -0.00153   0.00000  -0.00428  -0.00428   2.06206
   R27        2.15262  -0.01775   0.00000  -0.05665  -0.05669   2.09593
    A1        2.06342  -0.00175   0.00000  -0.00598  -0.00596   2.05746
    A2        2.10099   0.00100   0.00000   0.00370   0.00369   2.10467
    A3        2.11878   0.00074   0.00000   0.00228   0.00227   2.12105
    A4        2.15500   0.00289   0.00000   0.00819   0.00817   2.16317
    A5        2.18962   0.00308   0.00000   0.00810   0.00804   2.19766
    A6        1.93856  -0.00597   0.00000  -0.01629  -0.01621   1.92235
    A7        2.04314   0.00168   0.00000   0.00358   0.00360   2.04674
    A8        1.98254  -0.00394   0.00000  -0.01025  -0.01014   1.97240
    A9        2.25751   0.00226   0.00000   0.00667   0.00654   2.26405
   A10        2.07980  -0.00050   0.00000  -0.00099  -0.00098   2.07882
   A11        2.09413   0.00031   0.00000   0.00087   0.00086   2.09499
   A12        2.10925   0.00019   0.00000   0.00013   0.00012   2.10937
   A13        2.13535  -0.00146   0.00000  -0.00366  -0.00369   2.13166
   A14        2.07265   0.00065   0.00000   0.00142   0.00143   2.07408
   A15        2.07519   0.00080   0.00000   0.00224   0.00225   2.07744
   A16        2.08966  -0.00087   0.00000  -0.00114  -0.00114   2.08852
   A17        2.09620   0.00031   0.00000  -0.00020  -0.00019   2.09601
   A18        2.09733   0.00056   0.00000   0.00133   0.00134   2.09866
   A19        1.94680   0.00599   0.00000   0.01964   0.01963   1.96643
   A20        1.55049   0.00597   0.00000   0.02049   0.02043   1.57093
   A21        2.08461   0.00855   0.00000   0.03203   0.03219   2.11680
   A22        2.14349  -0.00538   0.00000  -0.01992  -0.01999   2.12349
   A23        2.05509  -0.00317   0.00000  -0.01211  -0.01220   2.04289
   A24        2.09581   0.00323   0.00000   0.01236   0.01257   2.10838
   A25        2.09258  -0.00031   0.00000   0.00129   0.00119   2.09376
   A26        2.09479  -0.00291   0.00000  -0.01365  -0.01375   2.08104
   A27        2.07435  -0.00974   0.00000  -0.03678  -0.03678   2.03757
   A28        2.04791   0.00997   0.00000   0.03669   0.03676   2.08467
   A29        2.16092  -0.00023   0.00000   0.00009   0.00002   2.16095
   A30        2.10966  -0.00858   0.00000  -0.03739  -0.03736   2.07230
   A31        2.08484   0.00399   0.00000   0.01698   0.01697   2.10181
   A32        2.08868   0.00458   0.00000   0.02041   0.02039   2.10908
   A33        2.09748   0.00223   0.00000   0.01062   0.01041   2.10789
   A34        2.06494  -0.00072   0.00000  -0.00304  -0.00293   2.06200
   A35        2.12077  -0.00150   0.00000  -0.00758  -0.00747   2.11329
   A36        2.10446   0.00430   0.00000   0.01916   0.01897   2.12343
   A37        2.08726  -0.00213   0.00000  -0.00950  -0.00941   2.07785
   A38        2.09147  -0.00217   0.00000  -0.00966  -0.00957   2.08191
   A39        2.00638  -0.00205   0.00000  -0.01358  -0.01371   1.99267
   A40        2.17822  -0.00289   0.00000  -0.00763  -0.00763   2.17059
   A41        2.09858   0.00495   0.00000   0.02121   0.02133   2.11992
   A42        1.90022  -0.00093   0.00000  -0.00585  -0.00583   1.89439
    D1       -0.00000   0.00000   0.00000   0.00000   0.00000  -0.00000
    D2        3.14159   0.00000   0.00000   0.00000   0.00000  -3.14159
    D3        3.14159  -0.00000   0.00000  -0.00000  -0.00000   3.14159
    D4       -0.00000   0.00000   0.00000   0.00000   0.00000   0.00000
    D5       -0.00000   0.00000   0.00000   0.00000   0.00000  -0.00000
    D6        3.14159  -0.00000   0.00000  -0.00000  -0.00000   3.14159
    D7        3.14159   0.00000   0.00000   0.00000   0.00000   3.14159
    D8       -0.00000  -0.00000   0.00000  -0.00000  -0.00000  -0.00000
    D9        0.00000  -0.00000   0.00000  -0.00000  -0.00000   0.00000
   D10       -3.14159   0.00000   0.00000   0.00000   0.00000  -3.14159
   D11       -3.14159  -0.00000   0.00000  -0.00000  -0.00000  -3.14159
   D12        0.00000   0.00000   0.00000  -0.00000  -0.00000   0.00000
   D13        3.14159   0.00000   0.00000   0.00000   0.00000   3.14159
   D14       -0.00001   0.00000   0.00000   0.00000   0.00000  -0.00000
   D15       -0.00000   0.00000   0.00000   0.00000   0.00000  -0.00000
   D16        3.14159   0.00000   0.00000   0.00000   0.00000   3.14159
   D17        3.14159  -0.00000   0.00000  -0.00000  -0.00000   3.14159
   D18        0.00000  -0.00000   0.00000  -0.00000  -0.00000  -0.00000
   D19        0.00001  -0.00000   0.00000  -0.00001  -0.00001   0.00000
   D20       -3.14159  -0.00000   0.00000  -0.00000  -0.00000  -3.14159
   D21        0.00000   0.00000   0.00000   0.00000   0.00000   0.00000
   D22       -3.14159   0.00000   0.00000   0.00000   0.00000  -3.14159
   D23        3.14159  -0.00000   0.00000  -0.00000  -0.00000   3.14159
   D24        0.00000  -0.00000   0.00000  -0.00000  -0.00000   0.00000
   D25        0.00000  -0.00000   0.00000  -0.00000  -0.00000   0.00000
   D26       -3.14159   0.00000   0.00000   0.00000   0.00000  -3.14159
   D27       -3.14159  -0.00000   0.00000  -0.00000  -0.00000  -3.14159
   D28        0.00000   0.00000   0.00000   0.00000   0.00000   0.00000
   D29       -0.00001   0.00000   0.00000   0.00001   0.00001  -0.00000
   D30        3.14156   0.00000   0.00000   0.00002   0.00002   3.14158
   D31        0.00001  -0.00000   0.00000  -0.00001  -0.00001   0.00000
   D32       -3.14157  -0.00000   0.00000  -0.00002  -0.00002  -3.14158
   D33        0.00002  -0.00000   0.00000  -0.00001  -0.00001   0.00001
   D34       -3.14158  -0.00000   0.00000  -0.00000  -0.00000  -3.14158
   D35       -3.14157  -0.00000   0.00000  -0.00001  -0.00001  -3.14158
   D36        0.00001   0.00000   0.00000  -0.00000  -0.00000   0.00001
   D37       -0.00002   0.00000   0.00000   0.00001   0.00001  -0.00001
   D38        3.14156   0.00000   0.00000   0.00002   0.00002   3.14159
   D39        3.14157   0.00000   0.00000   0.00001   0.00001   3.14158
   D40       -0.00003   0.00000   0.00000   0.00002   0.00002  -0.00001
   D41       -3.14159   0.00000   0.00000   0.00001   0.00001  -3.14158
   D42       -0.00002   0.00000   0.00000   0.00002   0.00002   0.00001
   D43        0.00000   0.00000   0.00000   0.00001   0.00001   0.00001
   D44        3.14157   0.00000   0.00000   0.00002   0.00002  -3.14159
   D45       -0.00000   0.00000   0.00000   0.00001   0.00001   0.00000
   D46        3.14159   0.00000   0.00000   0.00001   0.00001   3.14159
   D47       -3.14159   0.00000   0.00000  -0.00000  -0.00000  -3.14159
   D48        0.00000  -0.00000   0.00000  -0.00000  -0.00000  -0.00000
   D49        0.00001  -0.00000   0.00000  -0.00000  -0.00000   0.00001
[...]
 6,0.00596181,-0.00000056,-0.00246077,-0.00234052,0.00000041,0.06326332
 ,0.03859169,-0.00000275,0.08760146,-0.24861472,0.00000306,0.03106193,-
 0.06891968,0.00000172,0.01014057,0.68040750,0.00000009,-0.00000010,0.0
 0009732,-0.00000020,-0.00000002,0.00063440,-0.00000010,0.00000020,-0.0
 0066916,0.00000013,-0.00000006,-0.00017903,0.,0.00000014,0.00006662,-0
 .00000013,-0.00000004,-0.00003477,0.,0.,0.00000697,0.,0.,0.00001936,0.
 ,0.,0.00002122,0.,0.,-0.00004006,0.00000026,-0.00000038,0.00021262,0.,
 0.00000040,-0.00112244,-0.00000047,-0.00000180,0.00864453,0.00000337,0
 .00000151,-0.06288349,-0.00000128,0.00000179,-0.00516209,-0.00002393,-
 0.00002417,0.12610302,0.00036292,-0.00000363,0.,-0.00081813,0.00038333
 ,-0.00000006,0.00023420,-0.00007585,0.00000001,0.00007723,0.00003556,0
 .00000001,0.00006115,0.00009772,0.,-0.00011209,-0.00012064,0.,-0.00002
 210,-0.00001353,0.,0.00004689,0.00000165,0.,0.00001449,-0.00000194,0.,
 0.00003752,-0.00001417,0.,0.00047795,0.00062515,0.00000003,-0.00196854
 ,0.00234531,0.00000091,-0.00230469,-0.02817972,0.00000126,-0.07903452,
 -0.07403068,0.00000513,-0.00497645,0.00141821,0.00000040,0.01049469,0.
 02177882,-0.00000105,0.07961102,0.00006628,0.00002434,0.,-0.00009602,0
 .00086721,-0.00000029,0.00049450,-0.00033179,0.00000002,0.00004476,0.0
 0014417,0.00000005,0.00001441,0.00005963,0.,-0.00007876,-0.00002167,0.
 00000002,-0.00002479,0.00000884,0.,0.00004373,-0.00000833,0.,-0.000000
 92,0.00000465,0.,0.00001303,-0.00000029,0.,-0.00082756,0.00025632,-0.0
 0000017,0.00184022,-0.00110046,-0.00000070,0.00050116,-0.00420167,0.00
 000037,-0.07274132,-0.32025655,0.00001527,-0.00025996,0.00223392,0.000
 00031,-0.01014593,-0.01581571,0.00000120,0.07636391,0.34101656,-0.0000
 0008,0.00000003,-0.00002151,0.00000017,-0.00000009,-0.00082825,0.00000
 001,-0.00000012,0.00024045,-0.00000006,0.,0.00010282,0.,-0.00000005,-0
 .00003281,0.00000004,0.00000004,0.00003623,0.,0.,-0.00001598,0.,0.,-0.
 00002679,0.,0.,-0.00000386,0.,0.,0.00002791,-0.00000040,-0.00000010,-0
 .00009009,0.00000070,-0.00000089,0.00179264,-0.00000054,0.00000128,0.0
 0280741,0.00000601,0.00001580,-0.03748707,0.00000023,0.00000021,0.0062
 9021,-0.00000004,0.00000001,0.00518336,-0.00000644,-0.00001600,0.02417
 245,0.00002714,0.00066103,0.00000005,0.00057759,0.00009158,-0.00000012
 ,0.00213730,0.00006392,-0.00000020,-0.00066627,0.00011909,-0.00000002,
 -0.00008224,-0.00074520,-0.00000003,0.00065770,0.00000878,0.00000003,-
 0.00006053,0.00003605,0.,0.00008415,-0.00000408,0.,0.00003779,-0.00002
 068,0.,0.00003713,-0.00000559,0.,0.00177029,0.00973090,-0.00000101,-0.
 00054598,-0.00021382,0.00000030,0.05524745,0.03494100,-0.00000274,-0.0
 6561829,0.02141558,0.00000084,-0.18397641,0.04947764,0.00000125,0.0039
 0450,-0.08839787,0.00000343,-0.00081361,0.00033632,0.00000019,0.688540
 79,0.00054959,-0.00044988,-0.00000006,-0.00118038,-0.00002515,-0.00000
 003,-0.00033358,0.00013636,0.00000005,0.00054556,-0.00012908,0.0000000
 2,0.00011042,0.00064821,0.00000002,-0.00062476,-0.00013102,-0.00000002
 ,0.00000568,0.00002968,0.,-0.00000091,-0.00001194,0.,-0.00002309,0.000
 02210,0.,0.00000614,0.00000232,0.,-0.00114798,-0.00104269,0.00000024,0
 .00177429,-0.00021020,-0.00000009,0.00560265,-0.03532927,0.00000177,0.
 01630743,-0.00716516,-0.00000026,0.10580921,-0.23412724,0.00000424,-0.
 03650008,0.00806063,0.00000110,0.00016884,0.00055539,-0.00000009,0.051
 71511,0.72868267,-0.00000006,0.,-0.00009313,0.00000012,0.00000007,-0.0
 0014767,0.00000003,-0.00000014,-0.00108664,-0.00000005,0.00000002,0.00
 002108,0.,-0.00000004,0.00004292,0.00000002,0.00000003,0.00003347,0.,0
 .,-0.00004686,0.,0.,-0.00003754,0.,0.,-0.00000441,0.,0.,0.00002842,0.0
 0000024,0.00000014,0.00191576,-0.00000026,0.,-0.00044932,-0.00000161,-
 0.00000022,0.00886786,0.00000086,-0.00000044,-0.00293625,-0.00000128,0
 .00000648,-0.07109470,0.00000190,0.00000259,0.00768588,0.00000001,-0.0
 0000008,-0.00073563,-0.00001752,-0.00002848,0.12705778,0.00048432,-0.0
 0095898,-0.00000009,-0.00135279,0.00047627,0.00000012,-0.00093685,-0.0
 0003279,0.00000017,0.00094915,-0.00020796,0.00000003,0.00011404,0.0011
 6260,0.00000004,-0.00113830,-0.00006572,-0.00000004,0.00005670,0.00002
 778,0.,-0.00005310,-0.00003455,0.,-0.00007474,0.00004971,0.,-0.0000514
 0,0.00002940,0.,-0.00327468,-0.00423935,0.00000040,0.00166747,0.000979
 97,-0.00000023,-0.03904771,-0.01830371,0.00000159,0.06076401,0.0033224
 4,-0.00000159,-0.05653082,0.05231356,-0.00000047,-0.14601410,-0.022244
 25,0.00000399,-0.00292845,0.00430523,0.00000023,-0.34602574,-0.0952160
 2,0.00001135,0.71687579,0.00021824,-0.00046874,-0.00000003,-0.00048406
 ,0.00030327,0.00000010,-0.00025885,-0.00088967,0.00000006,0.00026309,0
 .00002877,0.,0.00006701,0.00046044,0.00000001,-0.00052711,0.00003936,-
 0.00000001,0.00003320,0.00000010,0.,-0.00002277,-0.00001164,0.,-0.0000
 4065,0.00002652,0.,-0.00002104,0.00001394,0.,-0.00441839,-0.00382908,0
 .00000047,0.00118563,0.00061357,-0.00000025,-0.04172179,-0.02689346,0.
 00000205,0.06017489,-0.05564827,0.00000117,-0.00016635,0.06634136,-0.0
 0000295,-0.09693836,-0.32181484,0.00001529,0.00336919,-0.00156324,0.00
 000008,-0.02279946,-0.14892705,0.00000440,-0.03126808,0.71658585,-0.00
 000002,0.00000005,0.00000854,0.00000006,-0.00000008,0.00003051,0.,0.00
 000009,0.00023670,-0.00000003,0.,0.00000842,0.,-0.00000005,-0.00001911
 ,0.00000006,0.,0.00000205,0.,0.,0.00000191,0.,0.,0.00001520,0.,0.,-0.0
 0000248,0.,0.,-0.00000802,0.00000034,0.00000026,-0.00033300,-0.0000000
 7,-0.00000001,-0.00000302,0.00000298,0.00000144,-0.00431230,-0.0000042
 7,0.00000235,0.00738435,0.00000135,-0.00000441,-0.00082428,0.00000680,
 0.00001263,-0.06363489,0.00000025,0.00000024,0.00750734,0.00000826,0.0
 0000644,-0.05974517,-0.00001383,-0.00002508,0.14475417,0.00001110,-0.0
 0007965,0.,-0.00005108,0.00013355,0.,-0.00006122,-0.00006725,-0.000000
 02,0.00006586,0.00002587,0.,-0.00000965,0.00007617,0.,-0.00008487,0.00
 001052,0.,0.00000554,0.00000668,0.,-0.00000206,-0.00000632,0.,-0.00001
 034,0.00000856,0.,-0.00000953,0.00000652,0.,-0.00041971,0.00033091,0.,
 0.00005274,0.00004155,0.,-0.00053800,0.00394903,0.00000019,-0.01515503
 ,-0.00911861,0.00000098,0.00042654,0.00030248,-0.00000005,-0.33094401,
 -0.06995635,0.00001396,0.00075959,0.00006301,-0.00000018,0.00160474,-0
 .00127166,0.00000025,-0.00371504,0.00227361,0.00000009,0.34809944,0.00
 000251,0.00001899,0.,0.00002057,-0.00006427,0.,0.00008392,0.00006361,0
 .,-0.00001476,-0.00003872,0.,0.00001043,-0.00001223,0.,0.00001721,-0.0
 0000533,0.,0.00000005,-0.00000276,0.,0.00000053,0.00000120,0.,0.000002
 65,-0.00000423,0.,0.00000216,-0.00000101,0.,0.00031498,-0.00019163,-0.
 00000003,0.00000638,0.00005446,0.,0.00268677,-0.00300880,0.00000025,0.
 02310891,0.00903619,-0.00000114,0.00061106,-0.00143761,0.00000002,-0.0
 7069591,-0.07571124,0.00000455,-0.00025304,0.00091704,-0.00000021,-0.0
 0030572,-0.00509690,0.00000052,-0.02971268,-0.00187855,0.00000116,0.07
 462408,0.07557616,0.,0.,0.00000012,0.,0.00000001,-0.00002706,0.,-0.000
 00002,-0.00020258,0.,0.,-0.00001142,0.,0.,0.00001892,0.,0.,-0.00000513
 ,0.,0.,0.00000149,0.,0.,-0.00000732,0.,0.,0.00000374,0.,0.,0.00000385,
 -0.00000005,-0.00000006,-0.00016692,0.00000002,-0.00000004,0.00007239,
 0.,0.00000032,0.00740705,-0.00000009,0.00000002,0.00150054,-0.00000021
 ,0.00000013,-0.00067493,0.00001388,0.00000479,-0.03295773,-0.00000018,
 -0.00000025,-0.00451615,0.00000034,0.00000049,0.00612638,0.00000126,-0
 .00000023,0.00143182,-0.00001511,-0.00000494,0.02483734,-0.00006088,-0
 .00001254,0.,0.00006636,0.00009603,0.,-0.00007599,-0.00003254,0.,-0.00
 000723,0.00000769,0.,-0.00000852,-0.00001140,0.,0.00001114,0.00001553,
 0.,0.00000234,-0.00000495,0.,-0.00000550,0.00000126,0.,-0.00000035,-0.
 00000010,0.,-0.00000491,-0.00000009,0.,0.00023890,-0.00038716,0.000000
 05,-0.00027854,0.00014552,0.00000001,-0.00285962,0.00300859,0.00000009
 ,-0.00144665,0.00042649,0.,0.01003868,0.02213277,-0.00000114,-0.005054
 05,-0.00050787,0.00000035,0.00010600,-0.00006192,-0.00000002,-0.076622
 75,-0.07192490,0.00000432,-0.00255429,-0.02962476,0.00000150,-0.000307
 39,-0.00140699,0.00000009,0.07551709,0.00002949,0.00009299,0.,-0.00003
 808,-0.00014221,0.,0.00008982,0.00006624,0.,-0.00006020,-0.00000713,0.
 ,0.00000896,-0.00007341,0.,0.00007590,-0.00001968,0.,-0.00000604,0.000
 00041,0.,0.00000836,0.00000473,0.,0.00001026,-0.00000594,0.,0.00001189
 ,-0.00000537,0.,0.00016406,0.00033515,0.,0.00017293,-0.00027335,-0.000
 00002,0.00387827,-0.00195659,0.00000025,0.00088936,0.00049142,-0.00000
 010,-0.01140568,-0.01626351,0.00000123,-0.00109384,0.00195718,0.000000
 32,-0.00005195,-0.00009145,-0.00000004,-0.07175862,-0.32779418,0.00001
 588,0.00170755,-0.00293935,0.00000019,0.00005284,-0.00023189,0.0000000
 3,0.07850944,0.34490138,0.,0.,0.00001674,0.,0.00000003,-0.00001827,0.,
 0.,-0.00000229,0.,0.,0.00000067,0.,0.,-0.00000380,0.,0.,0.00000227,0.,
 0.,0.00000145,0.,0.,0.00000372,0.,0.,0.00000208,0.,0.,-0.00000266,-0.0
 0000004,-0.00000001,-0.00001378,-0.00000002,-0.00000001,-0.00003874,0.
 00000014,0.00000032,0.00568060,-0.00000008,-0.00000006,-0.00083247,0.0
 0000048,0.00000018,0.00455477,0.00000036,0.00000027,0.00772757,-0.0000
 0003,-0.00000003,-0.00083899,0.00000445,0.00001592,-0.03460532,0.00000
 003,0.00000098,0.00228679,0.00000002,0.00000005,0.00045236,-0.00000495
 ,-0.00001725,0.02441163,0.00001707,-0.00003727,0.,-0.00002195,0.000112
 73,0.,0.00010051,-0.00005923,0.,0.00002867,0.00000992,0.,-0.00000165,0
 .00004168,0.,-0.00004822,0.00000674,0.,0.00000120,0.00000434,0.,0.0000
 0185,-0.00000469,0.,-0.00000704,0.00000454,0.,-0.00000471,0.00000441,0
 .,-0.00020021,0.00032638,-0.00000005,0.00001682,0.00016487,0.00000002,
 -0.00064390,-0.00062072,0.00000002,0.00114319,-0.00227330,0.00000023,-
 0.00377502,-0.00313065,0.00000048,0.00900955,-0.00798020,0.00000022,0.
 00032381,-0.00041328,-0.00000002,-0.01480199,0.02329946,-0.00000052,-0
 .19658010,0.14249036,-0.00000233,0.00064030,0.00033049,-0.00000011,0.0
 0098651,-0.00015302,-0.00000014,0.20494974,0.00003033,0.00001540,0.,-0
 .00008279,0.00004586,-0.00000002,0.00002988,0.00002501,0.00000001,-0.0
 0000129,-0.00000043,0.,0.00001010,-0.00000279,0.,0.00000322,-0.0000140
 3,0.,-0.00000547,-0.00000115,0.,0.00000556,0.00000190,0.,0.00000484,-0
 .00000199,0.,0.00000637,-0.00000372,0.,0.00010934,-0.00006097,-0.00000
 002,-0.00004978,0.00000897,0.00000005,-0.00103896,0.00016904,-0.000000
 03,-0.00281449,-0.00523308,0.00000065,-0.00281725,0.00049882,0.0000004
 7,0.02343579,-0.01434871,0.00000015,0.00112311,-0.00100217,-0.00000005
 ,-0.00790722,0.00822944,0.00000002,0.14264562,-0.20712444,0.00000383,-
 0.00020289,0.00104631,-0.00000021,0.00017028,0.00078503,-0.00000025,-0
 .15270636,0.21640664,-0.00000002,0.00000002,-0.00002683,0.00000003,0.,
 -0.00010258,0.00000001,-0.00000001,0.00016911,-0.00000002,0.,0.0000122
 0,0.,-0.00000002,-0.00000919,0.00000002,0.,0.00000124,0.,0.,0.00000437
 ,0.,0.,-0.00000259,0.,0.,-0.00000046,0.,0.,0.00000866,-0.00000007,-0.0
 0000005,-0.00026790,0.00000002,-0.00000006,0.00025829,0.00000014,0.000
 00009,-0.00109155,0.00000031,0.00000060,0.00643162,0.00000050,0.000000
 18,0.00876084,-0.00000117,0.00000094,0.00477518,-0.00000009,0.00000008
 ,-0.00022875,0.00000057,-0.00000074,0.00469210,-0.00000214,0.00000399,
 -0.04063928,-0.00000015,-0.00000022,-0.00361765,-0.00000015,-0.0000002
 7,-0.00482307,0.00000221,-0.00000452,0.02685334,-0.00554576,-0.0045708
 2,0.00000004,-0.00296449,0.01807284,0.00000096,-0.08398342,0.04986820,
 0.00000013,0.01375422,-0.00529009,-0.00000011,-0.00276013,0.00825107,0
 .00000034,-0.00398345,-0.00450311,-0.00000047,0.00013626,-0.00103435,0
 .,-0.00047194,-0.00009070,-0.00000004,0.00027125,-0.00003313,0.0000000
 4,-0.00072960,0.00000519,-0.00000008,-0.42069171,-0.05150921,-0.000011
 56,-0.05120678,-0.04261247,-0.00000298,-0.16848529,0.07790337,0.000003
 53,-0.04898528,0.02995449,0.00000033,0.03619371,0.01508667,-0.00000053
 ,0.00078453,-0.01789615,0.00000082,0.00103634,0.00101808,0.00000011,-0
 .00637589,-0.00012971,-0.00000005,0.00697243,0.00679522,-0.00000061,-0
 .00036876,0.00082126,0.00000007,0.00049423,-0.00124256,0.00000008,0.00
 030282,0.00002555,0.00000002,0.75830043,0.00213688,-0.00178089,-0.0000
 0002,0.02949768,-0.03312298,-0.00000181,0.01704382,0.00970493,0.000000
 73,0.00650633,-0.00997858,-0.00000056,-0.00130777,0.00539887,0.0000001
 7,-0.00301043,-0.00421644,-0.00000033,0.00000513,-0.00076431,0.,-0.000
 54150,0.00008107,0.,0.00021411,-0.00045161,0.00000003,-0.00036810,0.00
 010331,0.,-0.07360645,-0.13467782,-0.00000241,-0.01409593,-0.17690409,
 -0.00000838,0.07447763,-0.19261212,-0.00000226,0.01796966,0.01005805,-
 0.00000018,0.01239807,-0.03751736,-0.00000034,-0.00889112,0.01289787,-
 0.00000010,-0.00241605,-0.00091460,-0.00000003,0.00266337,-0.00850839,
 0.00000079,-0.00857311,-0.00738114,0.00000059,-0.00117952,0.00080526,-
 0.00000006,0.00126084,-0.00033322,-0.00000003,-0.00037061,0.00006736,-
 0.00000002,-0.04902961,0.56973702,-0.00000003,-0.00000028,0.00067574,0
 .00000133,-0.00000154,0.00483578,-0.00000124,0.00000186,0.00292888,0.0
 0000074,-0.00000093,0.00277089,-0.00000017,0.00000060,0.00077601,-0.00
 000041,-0.00000042,0.00102440,0.,-0.00000006,-0.00061439,-0.00000003,0
 .00000002,-0.00038908,0.00000004,0.,-0.00046947,-0.00000004,0.00000001
 ,-0.00013184,-0.00001093,-0.00000456,-0.06602230,-0.00000111,-0.000008
 57,-0.03605911,0.00000297,-0.00000309,-0.05451216,0.00000106,-0.000001
 21,-0.00274939,-0.00000062,0.00000066,0.00434719,0.00000027,0.00000079
 ,0.00657174,-0.00000027,-0.00000006,-0.00342785,0.00000023,0.00000010,
 0.00454831,-0.00000028,-0.00000002,-0.00100510,0.00000004,0.00000001,0
 .00106908,-0.00000003,0.00000004,-0.00013751,-0.00000004,-0.00000003,-
 0.00067466,0.00000799,0.00001530,0.13572210,-0.00027194,0.00259579,0.0
 0000034,0.00180310,0.00223747,0.00000034,0.01275144,-0.00078780,-0.000
 00071,-0.00236844,0.00082884,-0.00000010,-0.00027937,-0.00264270,-0.00
 000010,0.00236607,0.00047523,0.00000008,-0.00022487,0.00027447,0.00000
 001,0.00022997,-0.00007764,-0.00000002,-0.00000631,0.00001383,0.,0.000
 05241,0.00006071,-0.00000002,0.00600189,0.05575581,-0.00000476,-0.0006
 7823,0.00100038,0.00000022,-0.02205533,-0.04239703,0.00000280,-0.00776
 935,0.00220008,-0.00000020,-0.37584283,-0.07919645,0.00001342,-0.00469
 304,-0.01563476,0.00000065,-0.00130622,-0.00077518,0.00000017,-0.06282
 605,0.00697194,0.00000182,0.01546965,0.01254341,-0.00000067,-0.0000515
 9,-0.00029702,0.00000011,0.00214736,0.00001559,-0.00000028,-0.00144977
 ,0.00017692,0.,-0.03251413,0.01690417,-0.00000007,0.53533563,-0.000827
 61,-0.00102677,-0.00000031,0.00074352,-0.00406459,-0.00000024,-0.01377
 275,-0.00301811,0.00000139,0.00014853,-0.00055298,-0.00000004,0.000555
 28,0.00064040,0.,-0.00040907,-0.00018816,-0.00000001,0.00018478,-0.000
 38738,0.,0.00011001,0.00021498,0.00000008,0.00015555,-0.00015122,0.,0.
 00007997,-0.00010323,0.00000002,0.02825245,-0.07048028,0.00000449,-0.0
 0076098,-0.00327572,-0.00000027,-0.05255986,-0.00940826,0.00000241,0.0
 1023118,-0.00753876,0.00000026,-0.06337010,-0.13144092,0.00000354,-0.0
 0229872,0.00920639,-0.00000032,-0.00152351,-0.00033571,0.00000002,0.04
 230862,0.01931419,-0.00000173,-0.00425672,-0.01272425,0.00000091,-0.00
 008449,0.00048822,-0.00000008,-0.00245225,0.00189253,-0.00000009,0.001
 75650,0.00044876,-0.00000003,0.01150339,0.00292402,0.00000026,0.020625
 61,0.35717724,0.00000012,0.,-0.00025876,-0.00000029,0.00000013,-0.0001
 4815,0.00000016,0.00000069,0.00222710,0.00000017,-0.00000006,0.0000768
 4,-0.00000003,0.00000011,-0.00008917,-0.00000007,-0.00000006,0.0000471
 2,0.,0.00000002,0.00001117,0.,-0.00000002,0.00003194,0.,0.,-0.00001091
 ,0.,0.,0.00000104,-0.00000249,0.00000102,0.00671897,0.00000023,0.00000
 033,-0.00039174,0.00000279,0.00000230,0.01562656,0.00000045,0.00000033
 ,0.00677923,0.00001383,0.00000449,-0.05617984,0.00000013,0.00000034,-0
 .00092897,0.00000007,0.,0.00011475,0.00000083,-0.00000072,0.00789052,-
 0.00000030,0.00000015,0.00528498,-0.00000002,-0.00000003,-0.00074640,-
 0.00000008,-0.00000024,-0.00353954,-0.00000002,-0.00000003,-0.00025434
 ,0.00000109,-0.00000140,-0.00338154,-0.00001693,-0.00000944,0.05197801
 ,0.00008903,-0.00083868,-0.00000005,-0.00189676,-0.00058905,-0.0000001
 4,-0.00421362,0.00435049,-0.00000018,0.00099493,-0.00028536,0.00000007
 ,0.00012622,0.00073951,0.00000008,-0.00066049,-0.00015268,-0.00000003,
 0.00008659,-0.00007764,0.,-0.00031661,0.00002331,-0.00000004,0.0000451
 3,-0.00003455,0.,-0.00000175,-0.00006331,0.,-0.02213968,-0.02075768,0.
 00000398,-0.00208347,-0.00397746,-0.00000072,-0.00198951,0.00640503,-0
 .00000019,0.00147607,0.00076365,0.00000008,-0.05230672,0.02619568,0.00
 000154,0.00064414,0.00298398,-0.00000012,0.00064100,0.00032100,-0.0000
 0009,0.00378918,-0.00451328,0.00000041,-0.00307545,-0.00112219,0.00000
 017,0.00006242,0.00004215,-0.00000003,-0.00032194,0.00018527,0.,0.0000
 1251,-0.00015041,-0.00000004,0.01082042,-0.01768749,0.00000060,-0.0638
 2005,0.02566067,0.00000037,0.13403842,0.00075611,0.00203605,0.00000039
 ,0.00100526,0.00636346,0.00000075,0.02226623,-0.00236719,-0.00000166,-
 0.00153887,0.00180210,0.,-0.00085611,-0.00192727,-0.00000009,0.0012578
 6,0.00073209,0.00000005,-0.00029673,0.00056974,0.00000003,0.00002893,-
 0.00033943,-0.00000008,-0.00026073,0.00024789,0.,-0.00009650,0.0001704
 8,-0.00000002,-0.01644562,0.01509892,-0.00000570,0.00141165,0.00726640
 ,0.00000114,0.00369270,-0.01430860,-0.00000001,-0.00691853,-0.00075595
 ,-0.00000025,0.05027047,0.02677409,-0.00000240,-0.00018822,-0.00983084
 ,0.00000035,-0.00102608,-0.00044443,0.00000018,-0.02141075,0.00326715,
 0.00000021,0.00809376,0.00768054,-0.00000053,0.00006134,-0.00032226,0.
 00000010,0.00065303,-0.00038980,-0.00000002,-0.00080312,0.00004492,0.0
 0000003,-0.04136343,-0.00261422,0.00000112,0.01912832,-0.14761040,0.00
 000207,-0.01742097,0.10885656,-0.00000024,-0.00000024,0.00046404,0.000
 00036,-0.00000076,0.00066206,-0.00000184,-0.00000115,-0.00271360,-0.00
 000009,0.00000001,-0.00030187,0.00000008,0.,0.00006466,-0.00000004,0.0
 0000005,-0.00008808,0.00000005,-0.00000007,0.00003153,-0.00000003,0.00
 000005,-0.00000157,0.00000002,-0.00000002,0.00002266,0.,-0.00000001,-0
 .00001403,0.00000361,0.00000093,-0.01483583,-0.00000045,-0.00000078,0.
 00164117,-0.00000003,0.00000044,-0.00245966,0.00000010,-0.00000004,-0.
 00050789,-0.00000134,-0.00000248,-0.00093600,0.00000010,0.00000033,-0.
 00013717,0.00000005,0.00000002,-0.00002184,0.00000087,0.00000008,0.002
 07217,-0.00000026,-0.00000018,0.00157390,0.,0.00000001,0.00000819,-0.0
 0000003,-0.00000001,-0.00028420,0.00000003,0.,-0.00022810,0.00000087,0
 .00000031,0.00430429,0.00000388,-0.00000080,-0.03085891,-0.00000566,0.
 00000434,0.04254408\\-0.00145933,0.00323588,-0.00000012,0.00415791,0.0
 0758647,-0.00000066,0.00920936,0.00043728,0.00000060,0.00068709,-0.000
 81074,0.00000009,-0.00093640,-0.00560641,-0.00000024,-0.00147216,-0.00
 123856,0.00000013,-0.00050455,0.00050220,0.00000013,0.00050139,-0.0003
 2883,-0.00000008,-0.00008405,-0.00043549,0.00000002,-0.00033955,-0.000
 21130,0.00000014,-0.00816469,0.00929573,0.00000219,0.00413273,0.014679
 68,0.00000090,-0.00521843,0.00479695,-0.00000033,0.00794347,-0.0025161
 8,-0.00000054,0.01075497,0.00349048,0.00000152,-0.00232484,0.00250091,
 0.00000034,0.00045103,-0.00018807,0.00000013,-0.00500588,-0.00009257,0
 .00000018,-0.00618200,-0.00355885,-0.00000031,-0.00010328,-0.00035002,
 0.00000011,-0.00053095,0.00004386,-0.00000015,-0.00065191,-0.00041842,
 -0.00000015,-0.00448211,-0.00236996,-0.00000198,-0.00698133,-0.0066423
 5,0.00000184,0.00660351,-0.02180171,-0.00000375\\\@
 The archive entry for this job was punched.


 SCIENCE AND PEACE WILL TRIUMPH OVER IGNORANCE AND WAR

                          -- PASTEUR
 Job cpu time:       0 days  1 hours  3 minutes 53.5 seconds.
 Elapsed time:       0 days  0 hours  7 minutes  9.7 seconds.
 File lengths (MBytes):  RWF=    544 Int=      0 D2E=      0 Chk=     40 Scr=      8
 Normal termination of Gaussian 16 at Wed Oct 28 01:38:32 2020.
