 Entering Gaussian System, Link 0=g16
 Initial command:
 /gpfs/loomis/apps/avx/software/Gaussian/16-C.01_AVX/g16/l1.exe "/home/fas/batista/pev4/scratch60/gauss-scratch/Gau-15446.inp" -scrdir="/home/fas/batista/pev4/scratch60/gauss-scratch/"
 Entering Link 1 = /gpfs/loomis/apps/avx/software/Gaussian/16-C.01_AVX/g16/l1.exe PID=     15456.
  
 Copyright (c) 1988-2019, Gaussian, Inc.  All Rights Reserved.
  
 This is part of the Gaussian(R) 16 program.  It is based on
 the Gaussian(R) 09 system (copyright 2009, Gaussian, Inc.),
 the Gaussian(R) 03 system (copyright 2003, Gaussian, Inc.),
 the Gaussian(R) 98 system (copyright 1998, Gaussian, Inc.),
 the Gaussian(R) 94 system (copyright 1995, Gaussian, Inc.),
 the Gaussian 92(TM) system (copyright 1992, Gaussian, Inc.),
 the Gaussian 90(TM) system (copyright 1990, Gaussian, Inc.),
 the Gaussian 88(TM) system (copyright 1988, Gaussian, Inc.),
 the Gaussian 86(TM) system (copyright 1986, Carnegie Mellon
 University), and the Gaussian 82(TM) system (copyright 1983,
 Carnegie Mellon University). Gaussian is a federally registered
 trademark of Gaussian, Inc.
  
 This software contains proprietary and confidential information,
 including trade secrets, belonging to Gaussian, Inc.
  
 This software is provided under written license and may be
 used, copied, transmitted, or stored only in accord with that
 written license.
  
 The following legend is applicable only to US Government
 contracts under FAR:
  
                    RESTRICTED RIGHTS LEGEND
  
 Use, reproduction and disclosure by the US Government is
 subject to restrictions as set forth in subparagraphs (a)
 and (c) of the Commercial Computer Software - Restricted
 Rights clause in FAR 52.227-19.
  
 Gaussian, Inc.
 340 Quinnipiac St., Bldg. 40, Wallingford CT 06492
  
  
 ---------------------------------------------------------------
 Warning -- This program may not be used in any manner that
 competes with the business of Gaussian, Inc. or will provide
 assistance to any competitor of Gaussian, Inc.  The licensee
 of this program is prohibited from giving any competitor of
 Gaussian, Inc. access to this program.  By using this program,
 the user acknowledges that Gaussian, Inc. is engaged in the
 business of creating and licensing software in the field of
 computational chemistry and represents and warrants to the
 licensee that it is not a competitor of Gaussian, Inc. and that
 it will not use this program in any manner prohibited above.
 ---------------------------------------------------------------
  

 Cite this work as:
 Gaussian 16, Revision C.01,
 M. J. Frisch, G. W. Trucks, H. B. Schlegel, G. E. Scuseria, 
 M. A. Robb, J. R. Cheeseman, G. Scalmani, V. Barone, 
 G. A. Petersson, H. Nakatsuji, X. Li, M. Caricato, A. V. Marenich, 
 J. Bloino, B. G. Janesko, R. Gomperts, B. Mennucci, H. P. Hratchian, 
 J. V. Ortiz, A. F. Izmaylov, J. L. Sonnenberg, D. Williams-Young, 
 F. Ding, F. Lipparini, F. Egidi, J. Goings, B. Peng, A. Petrone, 
 T. Henderson, D. Ranasinghe, V. G. Zakrzewski, J. Gao, N. Rega, 
 G. Zheng, W. Liang, M. Hada, M. Ehara, K. Toyota, R. Fukuda, 
 J. Hasegawa, M. Ishida, T. Nakajima, Y. Honda, O. Kitao, H. Nakai, 
 T. Vreven, K. Throssell, J. A. Montgomery, Jr., J. E. Peralta, 
 F. Ogliaro, M. J. Bearpark, J. J. Heyd, E. N. Brothers, K. N. Kudin, 
 V. N. Staroverov, T. A. Keith, R. Kobayashi, J. Normand, 
 K. Raghavachari, A. P. Rendell, J. C. Burant, S. S. Iyengar, 
 J. Tomasi, M. Cossi, J. M. Millam, M. Klene, C. Adamo, R. Cammi, 
 J. W. Ochterski, R. L. Martin, K. Morokuma, O. Farkas, 
 J. B. Foresman, and D. J. Fox, Gaussian, Inc., Wallingford CT, 2019.
 
 ******************************************
 Gaussian 16:  ES64L-G16RevC.01  3-Jul-2019
                27-Oct-2020 
 ******************************************
 %chk=config_9_1.chk
 %mem=58GB
 %nprocshared=10
 Will use up to   10 processors via shared memory.
 ----------------------------------------------------------------------
 #p opt=addgic freq wb97xd/cc-pvdz nosymm int=ultrafine scrf=(solvent=C
 arbonTetraChloride)
 ----------------------------------------------------------------------
 1/18=20,19=15,26=6,38=1,145=903/1,3;
 2/9=110,12=2,15=1,17=6,18=5,40=1/2;
 3/5=16,11=2,25=1,30=1,70=2201,71=1,72=11,74=-58,75=-5/1,2,3;
 4//1;
 5/5=2,38=5,53=11/2;
 6/7=2,8=2,9=2,10=2,28=1/1;
 7/30=1/1,2,3,16;
 1/18=20,19=15,26=6,145=903/3(2);
 2/9=110,15=1/2;
 99//99;
 2/9=110,15=1/2;
 3/5=16,11=2,25=1,30=1,70=2205,71=1,72=11,74=-58,75=-5/1,2,3;
 4/5=5,16=3,69=1/1;
 5/5=2,38=5,53=11/2;
 7/30=1/1,2,3,16;
 1/18=20,19=15,26=6,145=903/3(-5);
 2/9=110,15=1/2;
 6/7=2,8=2,9=2,10=2,19=2,28=1/1;
 99/9=1/99;
 Leave Link    1 at Tue Oct 27 20:22:09 2020, MaxMem=  7784628224 cpu:               3.5 elap:               0.4
 (Enter /gpfs/loomis/apps/avx/software/Gaussian/16-C.01_AVX/g16/l101.exe)
 ------------------------------------------------
 NM 2D-scan of HBT TD-WB97XD pVDZ in CTC Relaxed.
 ------------------------------------------------
 Symbolic Z-matrix:
 Charge =  0 Multiplicity = 1
 C                     1.76363  -3.27066  -0.00003 
 C                     1.006    -2.09346  -0.00002 
 C                     1.65997  -0.83309  -0.00002 
 C                     3.06222  -0.73875  -0.00002 
 C                     3.80189  -1.91324  -0.00002 
 C                     3.16254  -3.1658   -0.00003 
 H                     1.28271  -4.25386  -0.00003 
 H                     3.53695   0.24709  -0.00001 
 H                     4.89453  -1.86336  -0.00002 
 H                     3.76461  -4.07832  -0.00003 
 N                     0.81575   0.22828  -0.00001 
 S                    -0.75381  -1.8599   -0.00002 
 C                    -1.43351   0.99783  0. 
 C                    -2.82851   0.90325  -0.00002 
 C                    -0.84709   2.37982   0.00003 
 C                    -3.6448    2.06221   0.00002 
 H                    -3.30753  -0.08242  -0.00005 
 C                    -1.71449   3.50578   0.00007 
 C                    -3.09917   3.35618   0.00007 
 H                    -4.73042   1.93453   0.00001 
 H                    -1.22765   4.48588   0.00009 
 H                    -3.75373   4.23069   0.0001 
 C                    -0.50193  -0.09318  -0.00001 
 O                     0.41283   2.57665   0.00002 
 H                     0.96333   1.25759  0. 
 
 Initializing the GIC definitions file.
 Number of initial coordinates =   134
 Number of input entries/lines =    52
 Number of additional coordinates =     2
 Number of removed coordinates =     0
 Number of frozen coordinates =     2
 Number of final active and frozen coordinates =   136
 ITRead=  0  0  0  0  0  0  0  0  0  0  0  0  0  0  0  0  0  0  0  0
 ITRead=  0  0  0  0  0
 MicOpt= -1 -1 -1 -1 -1 -1 -1 -1 -1 -1 -1 -1 -1 -1 -1 -1 -1 -1 -1 -1
 MicOpt= -1 -1 -1 -1 -1
 NAtoms=     25 NQM=       25 NQMF=       0 NMMI=      0 NMMIF=      0
                NMic=       0 NMicF=      0.
                    Isotopes and Nuclear Properties:
 (Nuclear quadrupole moments (NQMom) in fm**2, nuclear magnetic moments (NMagM)
  in nuclear magnetons)

  Atom         1           2           3           4           5           6           7           8           9          10
 IAtWgt=          12          12          12          12          12          12           1           1           1           1
 AtmWgt=  12.0000000  12.0000000  12.0000000  12.0000000  12.0000000  12.0000000   1.0078250   1.0078250   1.0078250   1.0078250
 NucSpn=           0           0           0           0           0           0           1           1           1           1
 AtZEff=  -0.0000000  -0.0000000  -0.0000000  -0.0000000  -0.0000000  -0.0000000  -0.0000000  -0.0000000  -0.0000000  -0.0000000
 NQMom=    0.0000000   0.0000000   0.0000000   0.0000000   0.0000000   0.0000000   0.0000000   0.0000000   0.0000000   0.0000000
 NMagM=    0.0000000   0.0000000   0.0000000   0.0000000   0.0000000   0.0000000   2.7928460   2.7928460   2.7928460   2.7928460
 AtZNuc=   6.0000000   6.0000000   6.0000000   6.0000000   6.0000000   6.0000000   1.0000000   1.0000000   1.0000000   1.0000000

  Atom        11          12          13          14          15          16          17          18          19          20
 IAtWgt=          14          32          12          12          12          12           1          12          12           1
 AtmWgt=  14.0030740  31.9720718  12.0000000  12.0000000  12.0000000  12.0000000   1.0078250  12.0000000  12.0000000   1.0078250
 NucSpn=           2           0           0           0           0           0           1           0           0           1
 AtZEff=  -0.0000000  -0.0000000  -0.0000000  -0.0000000  -0.0000000  -0.0000000  -0.0000000  -0.0000000  -0.0000000  -0.0000000
 NQMom=    2.0440000   0.0000000   0.0000000   0.0000000   0.0000000   0.0000000   0.0000000   0.0000000   0.0000000   0.0000000
 NMagM=    0.4037610   0.0000000   0.0000000   0.0000000   0.0000000   0.0000000   2.7928460   0.0000000   0.0000000   2.7928460
 AtZNuc=   7.0000000  16.0000000   6.0000000   6.0000000   6.0000000   6.0000000   1.0000000   6.0000000   6.0000000   1.0000000

  Atom        21          22          23          24          25
 IAtWgt=           1           1          12          16           1
 AtmWgt=   1.0078250   1.0078250  12.0000000  15.9949146   1.0078250
 NucSpn=           1           1           0           0           1
 AtZEff=  -0.0000000  -0.0000000  -0.0000000  -0.0000000  -0.0000000
 NQMom=    0.0000000   0.0000000   0.0000000   0.0000000   0.0000000
 NMagM=    2.7928460   2.7928460   0.0000000   0.0000000   2.7928460
 AtZNuc=   1.0000000   1.0000000   6.0000000   8.0000000   1.0000000
 Leave Link  101 at Tue Oct 27 20:22:12 2020, MaxMem=  7784628224 cpu:              28.2 elap:               3.2
 (Enter /gpfs/loomis/apps/avx/software/Gaussian/16-C.01_AVX/g16/l103.exe)

 GradGradGradGradGradGradGradGradGradGradGradGradGradGradGradGradGradGrad
 Berny optimization.
 Initialization pass.
                           ----------------------------
                           !    Initial Parameters    !
                           ! (Angstroms and Degrees)  !
 --------------------------                            --------------------------
 ! Name  Definition              Value          Derivative Info.                !
 --------------------------------------------------------------------------------
 ! R1    R(1,2)                  1.3999         estimate D2E/DX2                !
 ! R2    R(1,6)                  1.4028         estimate D2E/DX2                !
 ! R3    R(1,7)                  1.0945         estimate D2E/DX2                !
 ! R4    R(2,3)                  1.4199         estimate D2E/DX2                !
 ! R5    R(2,12)                 1.7752         estimate D2E/DX2                !
 ! R6    R(3,4)                  1.4054         estimate D2E/DX2                !
 ! R7    R(3,11)                 1.3562         estimate D2E/DX2                !
 ! R8    R(4,5)                  1.388          estimate D2E/DX2                !
 ! R9    R(4,8)                  1.0942         estimate D2E/DX2                !
 ! R10   R(5,6)                  1.4063         estimate D2E/DX2                !
 ! R11   R(5,9)                  1.0938         estimate D2E/DX2                !
 ! R12   R(6,10)                 1.0932         estimate D2E/DX2                !
 ! R13   R(11,23)                1.3563         estimate D2E/DX2                !
 ! R14   R(11,25)                1.0398         estimate D2E/DX2                !
 ! R15   R(12,23)                1.7846         estimate D2E/DX2                !
 ! R16   R(13,14)                1.3982         estimate D2E/DX2                !
 ! R17   R(13,15)                1.5013         estimate D2E/DX2                !
 ! R18   R(13,23)                1.4346         estimate D2E/DX2                !
 ! R19   R(14,16)                1.4176         estimate D2E/DX2                !
 ! R20   R(14,17)                1.0959         estimate D2E/DX2                !
 ! R21   R(15,18)                1.4213         estimate D2E/DX2                !
 ! R22   R(15,24)                1.2752         estimate D2E/DX2                !
 ! R23   R(16,19)                1.4043         estimate D2E/DX2                !
 ! R24   R(16,20)                1.0931         estimate D2E/DX2                !
 ! R25   R(18,19)                1.3927         estimate D2E/DX2                !
 ! R26   R(18,21)                1.0944         estimate D2E/DX2                !
 ! R27   R(19,22)                1.0923         estimate D2E/DX2                !
 ! A1    A(2,1,6)              118.4779         estimate D2E/DX2                !
 ! A2    A(2,1,7)              121.1699         estimate D2E/DX2                !
 ! A3    A(6,1,7)              120.3521         estimate D2E/DX2                !
 ! A4    A(1,2,3)              119.8118         estimate D2E/DX2                !
 ! A5    A(1,2,12)             130.3247         estimate D2E/DX2                !
 ! A6    A(3,2,12)             109.8635         estimate D2E/DX2                !
 ! A7    A(2,3,4)              121.2722         estimate D2E/DX2                !
 ! A8    A(2,3,11)             114.0776         estimate D2E/DX2                !
 ! A9    A(4,3,11)             124.6502         estimate D2E/DX2                !
 ! A10   A(3,4,5)              118.3531         estimate D2E/DX2                !
 ! A11   A(3,4,8)              119.5615         estimate D2E/DX2                !
 ! A12   A(5,4,8)              122.0855         estimate D2E/DX2                !
 ! A13   A(4,5,6)              120.7567         estimate D2E/DX2                !
 ! A14   A(4,5,9)              119.5883         estimate D2E/DX2                !
 ! A15   A(6,5,9)              119.655          estimate D2E/DX2                !
 ! A16   A(1,6,5)              121.3283         estimate D2E/DX2                !
 ! A17   A(1,6,10)             119.1296         estimate D2E/DX2                !
 ! A18   A(5,6,10)             119.5421         estimate D2E/DX2                !
 ! A19   A(3,11,23)            114.7891         estimate D2E/DX2                !
 ! A20   A(3,11,25)            133.3417         estimate D2E/DX2                !
 ! A21   A(23,11,25)           111.8692         estimate D2E/DX2                !
 ! A22   A(2,12,23)             89.4462         estimate D2E/DX2                !
 ! A23   A(14,13,15)           116.8719         estimate D2E/DX2                !
 ! A24   A(14,13,23)           126.6141         estimate D2E/DX2                !
 ! A25   A(15,13,23)           116.514          estimate D2E/DX2                !
 ! A26   A(13,14,16)           121.2792         estimate D2E/DX2                !
 ! A27   A(13,14,17)           119.7978         estimate D2E/DX2                !
 ! A28   A(16,14,17)           118.923          estimate D2E/DX2                !
 ! A29   A(13,15,18)           119.3974         estimate D2E/DX2                !
 ! A30   A(13,15,24)           121.8721         estimate D2E/DX2                !
 ! A31   A(18,15,24)           118.7305         estimate D2E/DX2                !
 ! A32   A(14,16,19)           121.9783         estimate D2E/DX2                !
 ! A33   A(14,16,20)           118.4502         estimate D2E/DX2                !
 ! A34   A(19,16,20)           119.5715         estimate D2E/DX2                !
 ! A35   A(15,18,19)           121.4433         estimate D2E/DX2                !
 ! A36   A(15,18,21)           115.9756         estimate D2E/DX2                !
 ! A37   A(19,18,21)           122.5811         estimate D2E/DX2                !
 ! A38   A(16,19,18)           119.0299         estimate D2E/DX2                !
 ! A39   A(16,19,22)           120.322          estimate D2E/DX2                !
 ! A40   A(18,19,22)           120.6481         estimate D2E/DX2                !
 ! A41   A(11,23,12)           111.8236         estimate D2E/DX2                !
 ! A42   A(11,23,13)           116.7831         estimate D2E/DX2                !
 ! A43   A(12,23,13)           131.3933         estimate D2E/DX2                !
 ! D1    D(6,1,2,3)              0.0            estimate D2E/DX2                !
 ! D2    D(6,1,2,12)          -179.9999         estimate D2E/DX2                !
 ! D3    D(7,1,2,3)            180.0            estimate D2E/DX2                !
 ! D4    D(7,1,2,12)             0.0            estimate D2E/DX2                !
 ! D5    D(2,1,6,5)              0.0            estimate D2E/DX2                !
 ! D6    D(2,1,6,10)           180.0            estimate D2E/DX2                !
 ! D7    D(7,1,6,5)           -179.9999         estimate D2E/DX2                !
 ! D8    D(7,1,6,10)             0.0001         estimate D2E/DX2                !
 ! D9    D(1,2,3,4)             -0.0001         estimate D2E/DX2                !
 ! D10   D(1,2,3,11)           179.9999         estimate D2E/DX2                !
 ! D11   D(12,2,3,4)           179.9999         estimate D2E/DX2                !
 ! D12   D(12,2,3,11)           -0.0001         estimate D2E/DX2                !
 ! D13   D(1,2,12,23)         -180.0            estimate D2E/DX2                !
 ! D14   D(3,2,12,23)            0.0001         estimate D2E/DX2                !
 ! D15   D(2,3,4,5)              0.0001         estimate D2E/DX2                !
 ! D16   D(2,3,4,8)           -180.0            estimate D2E/DX2                !
 ! D17   D(11,3,4,5)          -179.9999         estimate D2E/DX2                !
 ! D18   D(11,3,4,8)             0.0001         estimate D2E/DX2                !
 ! D19   D(2,3,11,23)            0.0001         estimate D2E/DX2                !
 ! D20   D(2,3,11,25)          179.9994         estimate D2E/DX2                !
 ! D21   D(4,3,11,23)         -179.9999         estimate D2E/DX2                !
 ! D22   D(4,3,11,25)           -0.0006         estimate D2E/DX2                !
 ! D23   D(3,4,5,6)              0.0            estimate D2E/DX2                !
 ! D24   D(3,4,5,9)            180.0            estimate D2E/DX2                !
 ! D25   D(8,4,5,6)           -180.0            estimate D2E/DX2                !
 ! D26   D(8,4,5,9)              0.0            estimate D2E/DX2                !
 ! D27   D(4,5,6,1)             -0.0001         estimate D2E/DX2                !
 ! D28   D(4,5,6,10)           180.0            estimate D2E/DX2                !
 ! D29   D(9,5,6,1)            180.0            estimate D2E/DX2                !
 ! D30   D(9,5,6,10)             0.0            estimate D2E/DX2                !
 ! D31   D(3,11,23,12)          -0.0001         estimate D2E/DX2                !
 ! D32   D(3,11,23,13)         179.9997         estimate D2E/DX2                !
 ! D33   D(25,11,23,12)       -179.9995         estimate D2E/DX2                !
 ! D34   D(25,11,23,13)          0.0002         estimate D2E/DX2                !
 ! D35   D(2,12,23,11)           0.0            estimate D2E/DX2                !
 ! D36   D(2,12,23,13)        -179.9997         estimate D2E/DX2                !
 ! D37   D(15,13,14,16)         -0.001          estimate D2E/DX2                !
 ! D38   D(15,13,14,17)        179.9993         estimate D2E/DX2                !
 ! D39   D(23,13,14,16)        179.9989         estimate D2E/DX2                !
 ! D40   D(23,13,14,17)         -0.0008         estimate D2E/DX2                !
 ! D41   D(14,13,15,18)          0.0011         estimate D2E/DX2                !
 ! D42   D(14,13,15,24)       -179.9989         estimate D2E/DX2                !
 ! D43   D(23,13,15,18)       -179.9988         estimate D2E/DX2                !
 ! D44   D(23,13,15,24)          0.0012         estimate D2E/DX2                !
 ! D45   D(14,13,23,11)        179.9991         estimate D2E/DX2                !
 ! D46   D(14,13,23,12)         -0.0012         estimate D2E/DX2                !
 ! D47   D(15,13,23,11)         -0.001          estimate D2E/DX2                !
 ! D48   D(15,13,23,12)        179.9987         estimate D2E/DX2                !
 ! D49   D(13,14,16,19)          0.0003         estimate D2E/DX2                !
 ! D50   D(13,14,16,20)       -179.9997         estimate D2E/DX2                !
 ! D51   D(17,14,16,19)        179.9999         estimate D2E/DX2                !
 ! D52   D(17,14,16,20)          0.0            estimate D2E/DX2                !
 ! D53   D(13,15,18,19)         -0.0004         estimate D2E/DX2                !
 ! D54   D(13,15,18,21)        179.9997         estimate D2E/DX2                !
 ! D55   D(24,15,18,19)        179.9996         estimate D2E/DX2                !
 ! D56   D(24,15,18,21)         -0.0003         estimate D2E/DX2                !
 ! D57   D(14,16,19,18)          0.0005         estimate D2E/DX2                !
 ! D58   D(14,16,19,22)       -179.9997         estimate D2E/DX2                !
 ! D59   D(20,16,19,18)       -179.9996         estimate D2E/DX2                !
 ! D60   D(20,16,19,22)          0.0002         estimate D2E/DX2                !
 ! D61   D(15,18,19,16)         -0.0004         estimate D2E/DX2                !
 ! D62   D(15,18,19,22)        179.9998         estimate D2E/DX2                !
 ! D63   D(21,18,19,16)        179.9995         estimate D2E/DX2                !
 ! D64   D(21,18,19,22)         -0.0003         estimate D2E/DX2                !
 ! Qtot  GIC-1                  30.0            Frozen                          !
 ! Ptot  GIC-2                -140.0            Frozen                          !
 --------------------------------------------------------------------------------
 NOTE: GIC-type coordinates are in arbitrary units.
 Trust Radius=3.00D-01 FncErr=5.00D-06 GrdErr=5.00D-06 EigMax=2.50D+02 EigMin=1.00D-04
 Number of steps in this run=    146 maximum allowed number of steps=    150.
 GradGradGradGradGradGradGradGradGradGradGradGradGradGradGradGradGradGrad

 Leave Link  103 at Tue Oct 27 20:22:12 2020, MaxMem=  7784628224 cpu:               0.1 elap:               0.0
 (Enter /gpfs/loomis/apps/avx/software/Gaussian/16-C.01_AVX/g16/l202.exe)
                          Input orientation:                          
 ---------------------------------------------------------------------
 Center     Atomic      Atomic             Coordinates (Angstroms)
 Number     Number       Type             X           Y           Z
 ---------------------------------------------------------------------
      1          6           0        1.763630   -3.270662   -0.000025
      2          6           0        1.005999   -2.093460   -0.000021
      3          6           0        1.659966   -0.833089   -0.000017
      4          6           0        3.062222   -0.738752   -0.000017
      5          6           0        3.801889   -1.913240   -0.000022
      6          6           0        3.162536   -3.165801   -0.000026
      7          1           0        1.282705   -4.253859   -0.000027
      8          1           0        3.536946    0.247095   -0.000014
      9          1           0        4.894533   -1.863364   -0.000021
     10          1           0        3.764606   -4.078319   -0.000030
     11          7           0        0.815746    0.228279   -0.000015
     12         16           0       -0.753808   -1.859904   -0.000016
     13          6           0       -1.433512    0.997830   -0.000002
     14          6           0       -2.828514    0.903246   -0.000016
     15          6           0       -0.847088    2.379822    0.000030
     16          6           0       -3.644803    2.062209    0.000020
     17          1           0       -3.307529   -0.082417   -0.000050
     18          6           0       -1.714491    3.505779    0.000067
     19          6           0       -3.099174    3.356180    0.000066
     20          1           0       -4.730419    1.934528    0.000013
     21          1           0       -1.227648    4.485880    0.000094
     22          1           0       -3.753730    4.230686    0.000098
     23          6           0       -0.501935   -0.093178   -0.000012
     24          8           0        0.412833    2.576649    0.000024
     25          1           0        0.963326    1.257592   -0.000005
 ---------------------------------------------------------------------
                    Distance matrix (angstroms):
                    1          2          3          4          5
     1  C    0.000000
     2  C    1.399932   0.000000
     3  C    2.439776   1.419932   0.000000
     4  C    2.845507   2.462374   1.405426   0.000000
     5  C    2.448897   2.801693   2.398867   1.387995   0.000000
     6  C    1.402830   2.408437   2.774754   2.429121   1.406301
     7  H    1.094515   2.178047   3.441509   3.939879   3.438718
     8  H    3.939450   3.447302   2.165607   1.094193   2.176520
     9  H    3.432644   3.895337   3.394686   2.149911   1.093782
    10  H    2.157826   3.398467   3.867948   3.412631   2.165400
    11  N    3.625062   2.329520   1.356175   2.445772   3.674664
    12  S    2.885781   1.775237   2.623099   3.977319   4.556009
    13  C    5.333080   3.937929   3.594700   4.819475   5.990305
    14  C    6.205586   4.866593   4.812620   6.115303   7.203807
    15  C    6.224453   4.841919   4.075306   5.000821   6.327983
    16  C    7.595436   6.236949   6.043452   7.268394   8.441410
    17  H    5.990122   4.759287   5.023894   6.403475   7.341371
    18  C    7.616921   6.225154   5.496611   6.390073   7.732801
    19  C    8.219604   6.822830   6.340299   7.398059   8.682826
    20  H    8.322660   7.009363   6.963958   8.238426   9.359786
    21  H    8.313344   6.948157   6.052251   6.760160   8.139102
    22  H    9.311901   7.915165   7.412822   8.435195   9.738337
    23  C    3.902460   2.504993   2.285013   3.622151   4.672850
    24  O    6.001308   4.707627   3.630655   4.243954   5.625371
    25  H    4.598431   3.351323   2.203691   2.896679   4.255774
                    6          7          8          9         10
     6  C    0.000000
     7  H    2.172011   0.000000
     8  H    3.433372   5.033903   0.000000
     9  H    2.167063   4.331255   2.509398   0.000000
    10  H    1.093242   2.488100   4.331401   2.486516   0.000000
    11  N    4.126403   4.506396   2.721265   4.583828   5.219441
    12  S    4.128330   3.142993   4.780169   5.648342   5.033629
    13  C    6.201571   5.912535   5.026834   6.944824   7.265516
    14  C    7.242225   6.595290   6.399189   8.203633   8.263487
    15  C    6.843319   6.967190   4.875273   7.139387   7.935698
    16  C    8.583236   8.010808   7.407574   9.398424   9.623171
    17  H    7.167216   6.202514   6.852402   8.393187   8.122950
    18  C    8.264101   8.318363   6.180341   8.515098   9.356230
    19  C    9.041308   8.781432   7.328336   9.546884  10.118461
    20  H    9.397451   8.628661   8.437817  10.347158  10.407678
    21  H    8.821674   9.093124   6.377198   8.820090   9.913027
    22  H   10.126340   9.866772   8.308006  10.579693  11.205577
    23  C    4.782192   4.527274   4.053189   5.679386   5.838212
    24  O    6.366835   6.885674   3.897038   6.308672   7.451374
    25  H    4.939932   5.520696   2.764891   5.019437   6.026534
                   11         12         13         14         15
    11  N    0.000000
    12  S    2.612280   0.000000
    13  C    2.377261   2.937455   0.000000
    14  C    3.706240   3.455344   1.398205   0.000000
    15  C    2.719220   4.240752   1.501264   2.471098   0.000000
    16  C    4.822841   4.872455   2.454121   1.417576   2.815685
    17  H    4.134964   3.111423   2.163070   1.095895   3.480860
    18  C    4.140544   5.451006   2.523640   2.830941   1.421326
    19  C    5.011024   5.719115   2.887256   2.467821   2.454621
    20  H    5.802691   5.496467   3.427389   2.163512   3.908777
    21  H    4.722565   6.363450   3.494119   3.924033   2.140165
    22  H    6.074486   6.789317   3.979293   3.453677   3.445906
    23  C    1.356325   1.784590   1.434620   2.530974   2.496970
    24  O    2.382683   4.587380   2.429333   3.647822   1.275203
    25  H    1.039839   3.559119   2.410873   3.808361   2.130024
                   16         17         18         19         20
    16  C    0.000000
    17  H    2.170984   0.000000
    18  C    2.410394   3.925929   0.000000
    19  C    1.404305   3.444903   1.392741   0.000000
    20  H    1.093099   2.468336   3.400684   2.163805   0.000000
    21  H    3.422984   5.019486   1.094355   2.186054   4.333451
    22  H    2.171212   4.336122   2.164252   1.092339   2.495248
    23  C    3.810946   2.805615   3.797734   4.317837   4.689527
    24  O    4.090117   4.572933   2.321377   3.597480   5.183180
    25  H    4.677848   4.476140   3.496434   4.572525   5.733845
                   21         22         23         24         25
    21  H    0.000000
    22  H    2.538940   0.000000
    23  C    4.636208   5.410173   0.000000
    24  O    2.517209   4.482866   2.822193   0.000000
    25  H    3.901565   5.575833   1.992879   1.429319   0.000000
 Symmetry turned off by external request.
 Stoichiometry    C13H9NOS
 Framework group  C1[X(C13H9NOS)]
 Deg. of freedom    69
 Full point group                 C1      NOp   1
 Rotational constants (GHZ):           1.3470931           0.2851951           0.2353655
 Leave Link  202 at Tue Oct 27 20:22:12 2020, MaxMem=  7784628224 cpu:               0.1 elap:               0.0
 (Enter /gpfs/loomis/apps/avx/software/Gaussian/16-C.01_AVX/g16/l301.exe)
 Standard basis: CC-pVDZ (5D, 7F)
 Ernie: Thresh=  0.10000D-02 Tol=  0.10000D-05 Strict=F.
 Ernie:  40 primitive shells out of 425 were deleted.
   273 basis functions,   629 primitive gaussians,   289 cartesian basis functions
    59 alpha electrons       59 beta electrons
       nuclear repulsion energy      1094.6722736039 Hartrees.
 IExCor= 4639 DFT=T Ex+Corr=wB97XD ExCW=0 ScaHFX=  1.000000
 ScaDFX=  1.000000  1.000000  1.000000  1.000000 ScalE2=  1.000000  1.000000
 IRadAn=      5 IRanWt=     -1 IRanGd=            0 ICorTp=0 IEmpDi=121
 HFx  wShort=  0.000000 wLong=  0.200000 cFull=  0.222036 cShort=  0.000000 cLong=  0.777964
 DFx  wShort=  0.000000 wLong=  0.200000 cFull=  0.000000 cShort=  0.000000 cLong=  1.000000
 NAtoms=   25 NActive=   25 NUniq=   25 SFac= 1.00D+00 NAtFMM=   60 NAOKFM=F Big=F
 Integral buffers will be    131072 words long.
 Raffenetti 2 integral format.
 Two-electron integral symmetry is turned off.
 R6Disp:  Grimme-D2 Dispersion energy=       -0.0140786130 Hartrees.
 Nuclear repulsion after empirical dispersion term =     1094.6581949909 Hartrees.
 ------------------------------------------------------------------------------
 Polarizable Continuum Model (PCM)
 =================================
 Model                : PCM.
 Atomic radii         : UFF (Universal Force Field).
 Polarization charges : Total charges.
 Charge compensation  : None.
 Solution method      : On-the-fly selection.
 Cavity type          : Scaled VdW (van der Waals Surface) (Alpha=1.100).
 Cavity algorithm     : GePol (No added spheres)
                        Default sphere list used, NSphG=   25.
                        Lebedev-Laikov grids with approx.  5.0 points / Ang**2.
                        Smoothing algorithm: York/Karplus (Gamma=1.0000).
                        Polarization charges: spherical gaussians, with
                                              point-specific exponents (IZeta= 3).
                        Self-potential: point-specific (ISelfS= 7).
                        Self-field    : sphere-specific E.n sum rule (ISelfD= 2).
 1st derivatives      : Analytical E(r).r(x)/FMM algorithm (CHGder, D1EAlg=3).
                        Cavity 1st derivative terms included.
 Solvent              : CarbonTetraChloride, Eps=   2.228000 Eps(inf)=   2.131892
 ------------------------------------------------------------------------------
 GePol: Number of generator spheres                  =      25
 GePol: Total number of spheres                      =      25
 GePol: Number of exposed spheres                    =      25 (100.00%)
 GePol: Number of points                             =    2199
 GePol: Average weight of points                     =       0.13
 GePol: Minimum weight of points                     =   0.69D-09
 GePol: Maximum weight of points                     =    0.20577
 GePol: Number of points with low weight             =     136
 GePol: Fraction of low-weight points (<1% of avg)   =       6.18%
 GePol: Cavity surface area                          =    276.136 Ang**2
 GePol: Cavity volume                                =    295.017 Ang**3
 Leave Link  301 at Tue Oct 27 20:22:12 2020, MaxMem=  7784628224 cpu:               0.8 elap:               0.1
 (Enter /gpfs/loomis/apps/avx/software/Gaussian/16-C.01_AVX/g16/l302.exe)
 NPDir=0 NMtPBC=     1 NCelOv=     1 NCel=       1 NClECP=     1 NCelD=      1
         NCelK=      1 NCelE2=     1 NClLst=     1 CellRange=     0.0.
 One-electron integrals computed using PRISM.
 NBasis=   273 RedAO= T EigKep=  3.14D-04  NBF=   273
 NBsUse=   273 1.00D-06 EigRej= -1.00D+00 NBFU=   273
 Precomputing XC quadrature grid using
 IXCGrd= 4 IRadAn=           5 IRanWt=          -1 IRanGd=           0 AccXCQ= 0.00D+00.
 Generated NRdTot=       0 NPtTot=           0 NUsed=           0 NTot=          32
 NSgBfM=   288   288   288   288   288 MxSgAt=    25 MxSgA2=    25.
 Leave Link  302 at Tue Oct 27 20:22:12 2020, MaxMem=  7784628224 cpu:               2.5 elap:               0.3
 (Enter /gpfs/loomis/apps/avx/software/Gaussian/16-C.01_AVX/g16/l303.exe)
 DipDrv:  MaxL=1.
 Leave Link  303 at Tue Oct 27 20:22:12 2020, MaxMem=  7784628224 cpu:               0.4 elap:               0.1
 (Enter /gpfs/loomis/apps/avx/software/Gaussian/16-C.01_AVX/g16/l401.exe)
 ExpMin= 1.22D-01 ExpMax= 1.11D+05 ExpMxC= 1.07D+03 IAcc=3 IRadAn=         5 AccDes= 0.00D+00
 Harris functional with IExCor= 4639 and IRadAn=       5 diagonalized for initial guess.
 HarFok:  IExCor= 4639 AccDes= 0.00D+00 IRadAn=         5 IDoV= 1 UseB2=F ITyADJ=14
 ICtDFT=  3500011 ScaDFX=  1.000000  1.000000  1.000000  1.000000
 FoFCou: FMM=F IPFlag=           0 FMFlag=      100000 FMFlg1=           0
         NFxFlg=           0 DoJE=T BraDBF=F KetDBF=T FulRan=T
         wScrn=  0.000000 ICntrl=       500 IOpCl=  0 I1Cent=   200000004 NGrid=           0
         NMat0=    1 NMatS0=      1 NMatT0=    0 NMatD0=    1 NMtDS0=    0 NMtDT0=    0
 Symmetry not used in FoFCou.
 Harris En= -994.458672140292    
 JPrj=0 DoOrth=F DoCkMO=F.
 Leave Link  401 at Tue Oct 27 20:22:14 2020, MaxMem=  7784628224 cpu:              13.8 elap:               1.4
 (Enter /gpfs/loomis/apps/avx/software/Gaussian/16-C.01_AVX/g16/l502.exe)
 Two-electron integral symmetry not used.
 Closed shell SCF:
 Using DIIS extrapolation, IDIIS=  1040.
 NGot=  7784628224 LenX=  7784455381 LenY=  7784371419
 Requested convergence on RMS density matrix=1.00D-08 within 128 cycles.
 Requested convergence on MAX density matrix=1.00D-06.
 Requested convergence on             energy=1.00D-06.
 No special actions if energy rises.
 Fock matrices will be formed incrementally for  20 cycles.

 Cycle   1  Pass 1  IDiag  1:
 FoFJK:  IHMeth= 1 ICntrl=       0 DoSepK=T KAlg= 0 I1Cent=           0 FoldK=F
 IRaf=         1 NMat=       1 IRICut=       1 DoRegI=T DoRafI=F ISym2E= 0 IDoP0=0 IntGTp=1.
 FoFCou: FMM=F IPFlag=           0 FMFlag=      100000 FMFlg1=           0
         NFxFlg=           0 DoJE=T BraDBF=F KetDBF=F FulRan=T
         wScrn=  0.000000 ICntrl=       500 IOpCl=  0 I1Cent=           0 NGrid=           0
         NMat0=    1 NMatS0=      1 NMatT0=    0 NMatD0=    1 NMtDS0=    0 NMtDT0=    0
 Symmetry not used in FoFCou.
 Inv3:  Mode=1 IEnd=    14506803.
 Iteration    1 A*A^-1 deviation from unit magnitude is 4.88D-15 for   2194.
 Iteration    1 A*A^-1 deviation from orthogonality  is 2.69D-15 for   2178   2118.
 Iteration    1 A^-1*A deviation from unit magnitude is 4.88D-15 for   2194.
 Iteration    1 A^-1*A deviation from orthogonality  is 2.00D-15 for   2182   2077.
 E= -1028.55285914844    
 DIIS: error= 4.08D-02 at cycle   1 NSaved=   1.
 NSaved= 1 IEnMin= 1 EnMin= -1028.55285914844     IErMin= 1 ErrMin= 4.08D-02
 ErrMax= 4.08D-02  0.00D+00 EMaxC= 1.00D-01 BMatC= 3.96D-01 BMatP= 3.96D-01
 IDIUse=3 WtCom= 5.92D-01 WtEn= 4.08D-01
 Coeff-Com:  0.100D+01
 Coeff-En:   0.100D+01
 Coeff:      0.100D+01
 Gap=     0.320 Goal=   None    Shift=    0.000
 GapD=    0.320 DampG=1.000 DampE=0.500 DampFc=0.5000 IDamp=-1.
 Damping current iteration by 5.00D-01
 RMSDP=3.62D-03 MaxDP=2.37D-01              OVMax= 1.89D-01

 Cycle   2  Pass 1  IDiag  1:
 RMSU=  1.80D-03    CP:  9.94D-01
 E= -1028.67454640366     Delta-E=       -0.121687255216 Rises=F Damp=T
 DIIS: error= 1.12D-02 at cycle   2 NSaved=   2.
 NSaved= 2 IEnMin= 2 EnMin= -1028.67454640366     IErMin= 2 ErrMin= 1.12D-02
 ErrMax= 1.12D-02  0.00D+00 EMaxC= 1.00D-01 BMatC= 5.85D-02 BMatP= 3.96D-01
 IDIUse=3 WtCom= 8.88D-01 WtEn= 1.12D-01
 Coeff-Com: -0.280D+00 0.128D+01
 Coeff-En:   0.000D+00 0.100D+01
 Coeff:     -0.249D+00 0.125D+01
 Gap=     0.288 Goal=   None    Shift=    0.000
 RMSDP=1.16D-03 MaxDP=2.54D-02 DE=-1.22D-01 OVMax= 1.31D-01

 Cycle   3  Pass 1  IDiag  1:
 RMSU=  1.12D-03    CP:  9.92D-01  1.17D+00
 E= -1028.78374100583     Delta-E=       -0.109194602177 Rises=F Damp=F
 DIIS: error= 7.57D-03 at cycle   3 NSaved=   3.
 NSaved= 3 IEnMin= 3 EnMin= -1028.78374100583     IErMin= 3 ErrMin= 7.57D-03
 ErrMax= 7.57D-03  0.00D+00 EMaxC= 1.00D-01 BMatC= 1.56D-02 BMatP= 5.85D-02
 IDIUse=3 WtCom= 9.24D-01 WtEn= 7.57D-02
 Coeff-Com: -0.204D+00 0.499D+00 0.705D+00
 Coeff-En:   0.000D+00 0.000D+00 0.100D+01
 Coeff:     -0.189D+00 0.461D+00 0.728D+00
 Gap=     0.241 Goal=   None    Shift=    0.000
 RMSDP=5.58D-04 MaxDP=1.89D-02 DE=-1.09D-01 OVMax= 4.41D-02

 Cycle   4  Pass 1  IDiag  1:
 RMSU=  4.41D-04    CP:  9.91D-01  1.33D+00  8.38D-01
 E= -1028.79888168541     Delta-E=       -0.015140679578 Rises=F Damp=F
 DIIS: error= 2.44D-03 at cycle   4 NSaved=   4.
 NSaved= 4 IEnMin= 4 EnMin= -1028.79888168541     IErMin= 4 ErrMin= 2.44D-03
 ErrMax= 2.44D-03  0.00D+00 EMaxC= 1.00D-01 BMatC= 1.99D-03 BMatP= 1.56D-02
 IDIUse=3 WtCom= 9.76D-01 WtEn= 2.44D-02
 Coeff-Com: -0.716D-01 0.142D+00 0.347D+00 0.583D+00
 Coeff-En:   0.000D+00 0.000D+00 0.000D+00 0.100D+01
 Coeff:     -0.699D-01 0.138D+00 0.339D+00 0.593D+00
 Gap=     0.242 Goal=   None    Shift=    0.000
 RMSDP=1.78D-04 MaxDP=1.03D-02 DE=-1.51D-02 OVMax= 1.34D-02

 Cycle   5  Pass 1  IDiag  1:
 RMSU=  1.13D-04    CP:  9.90D-01  1.34D+00  9.14D-01  7.57D-01
 E= -1028.80106143900     Delta-E=       -0.002179753584 Rises=F Damp=F
 DIIS: error= 5.12D-04 at cycle   5 NSaved=   5.
 NSaved= 5 IEnMin= 5 EnMin= -1028.80106143900     IErMin= 5 ErrMin= 5.12D-04
 ErrMax= 5.12D-04  0.00D+00 EMaxC= 1.00D-01 BMatC= 6.03D-05 BMatP= 1.99D-03
 IDIUse=3 WtCom= 9.95D-01 WtEn= 5.12D-03
 Coeff-Com: -0.878D-03-0.461D-02 0.288D-01 0.156D+00 0.821D+00
 Coeff-En:   0.000D+00 0.000D+00 0.000D+00 0.000D+00 0.100D+01
 Coeff:     -0.874D-03-0.458D-02 0.287D-01 0.155D+00 0.822D+00
 Gap=     0.243 Goal=   None    Shift=    0.000
 RMSDP=5.78D-05 MaxDP=1.74D-03 DE=-2.18D-03 OVMax= 6.31D-03

 Cycle   6  Pass 1  IDiag  1:
 RMSU=  3.70D-05    CP:  9.90D-01  1.34D+00  9.31D-01  8.42D-01  1.09D+00
 E= -1028.80120090488     Delta-E=       -0.000139465889 Rises=F Damp=F
 DIIS: error= 2.15D-04 at cycle   6 NSaved=   6.
 NSaved= 6 IEnMin= 6 EnMin= -1028.80120090488     IErMin= 6 ErrMin= 2.15D-04
 ErrMax= 2.15D-04  0.00D+00 EMaxC= 1.00D-01 BMatC= 1.19D-05 BMatP= 6.03D-05
 IDIUse=3 WtCom= 9.98D-01 WtEn= 2.15D-03
 Coeff-Com:  0.161D-01-0.331D-01-0.636D-01-0.712D-01 0.234D+00 0.918D+00
 Coeff-En:   0.000D+00 0.000D+00 0.000D+00 0.000D+00 0.000D+00 0.100D+01
 Coeff:      0.160D-01-0.331D-01-0.635D-01-0.710D-01 0.234D+00 0.918D+00
 Gap=     0.243 Goal=   None    Shift=    0.000
 RMSDP=3.58D-05 MaxDP=1.60D-03 DE=-1.39D-04 OVMax= 3.86D-03

 Cycle   7  Pass 1  IDiag  1:
 RMSU=  1.81D-05    CP:  9.90D-01  1.34D+00  9.42D-01  8.76D-01  1.28D+00
                    CP:  1.31D+00
 E= -1028.80123854555     Delta-E=       -0.000037640669 Rises=F Damp=F
 DIIS: error= 9.85D-05 at cycle   7 NSaved=   7.
 NSaved= 7 IEnMin= 7 EnMin= -1028.80123854555     IErMin= 7 ErrMin= 9.85D-05
 ErrMax= 9.85D-05  0.00D+00 EMaxC= 1.00D-01 BMatC= 2.48D-06 BMatP= 1.19D-05
 IDIUse=1 WtCom= 1.00D+00 WtEn= 0.00D+00
 Coeff-Com:  0.697D-02-0.132D-01-0.300D-01-0.524D-01-0.691D-02 0.381D+00
 Coeff-Com:  0.715D+00
 Coeff:      0.697D-02-0.132D-01-0.300D-01-0.524D-01-0.691D-02 0.381D+00
 Coeff:      0.715D+00
 Gap=     0.244 Goal=   None    Shift=    0.000
 RMSDP=1.26D-05 MaxDP=4.78D-04 DE=-3.76D-05 OVMax= 1.78D-03

 Cycle   8  Pass 1  IDiag  1:
 RMSU=  7.39D-06    CP:  9.90D-01  1.34D+00  9.45D-01  8.82D-01  1.32D+00
                    CP:  1.52D+00  1.15D+00
 E= -1028.80124472142     Delta-E=       -0.000006175871 Rises=F Damp=F
 DIIS: error= 4.66D-05 at cycle   8 NSaved=   8.
 NSaved= 8 IEnMin= 8 EnMin= -1028.80124472142     IErMin= 8 ErrMin= 4.66D-05
 ErrMax= 4.66D-05  0.00D+00 EMaxC= 1.00D-01 BMatC= 5.26D-07 BMatP= 2.48D-06
 IDIUse=1 WtCom= 1.00D+00 WtEn= 0.00D+00
 Coeff-Com: -0.154D-02 0.340D-02 0.640D-02 0.157D-02-0.420D-01-0.103D+00
 Coeff-Com:  0.242D+00 0.894D+00
 Coeff:     -0.154D-02 0.340D-02 0.640D-02 0.157D-02-0.420D-01-0.103D+00
 Coeff:      0.242D+00 0.894D+00
 Gap=     0.244 Goal=   None    Shift=    0.000
 RMSDP=7.48D-06 MaxDP=1.77D-04 DE=-6.18D-06 OVMax= 1.09D-03

 Cycle   9  Pass 1  IDiag  1:
 RMSU=  3.17D-06    CP:  9.90D-01  1.34D+00  9.44D-01  8.81D-01  1.34D+00
                    CP:  1.63D+00  1.43D+00  1.21D+00
 E= -1028.80124640587     Delta-E=       -0.000001684447 Rises=F Damp=F
 DIIS: error= 2.78D-05 at cycle   9 NSaved=   9.
 NSaved= 9 IEnMin= 9 EnMin= -1028.80124640587     IErMin= 9 ErrMin= 2.78D-05
 ErrMax= 2.78D-05  0.00D+00 EMaxC= 1.00D-01 BMatC= 8.04D-08 BMatP= 5.26D-07
 IDIUse=1 WtCom= 1.00D+00 WtEn= 0.00D+00
 Coeff-Com: -0.127D-02 0.252D-02 0.584D-02 0.719D-02-0.992D-02-0.978D-01
 Coeff-Com: -0.236D-01 0.252D+00 0.865D+00
 Coeff:     -0.127D-02 0.252D-02 0.584D-02 0.719D-02-0.992D-02-0.978D-01
 Coeff:     -0.236D-01 0.252D+00 0.865D+00
 Gap=     0.244 Goal=   None    Shift=    0.000
 RMSDP=3.61D-06 MaxDP=1.13D-04 DE=-1.68D-06 OVMax= 6.48D-04

 Cycle  10  Pass 1  IDiag  1:
 RMSU=  1.57D-06    CP:  9.90D-01  1.34D+00  9.44D-01  8.81D-01  1.35D+00
                    CP:  1.68D+00  1.53D+00  1.43D+00  1.24D+00
 E= -1028.80124678553     Delta-E=       -0.000000379654 Rises=F Damp=F
 DIIS: error= 1.39D-05 at cycle  10 NSaved=  10.
 NSaved=10 IEnMin=10 EnMin= -1028.80124678553     IErMin=10 ErrMin= 1.39D-05
 ErrMax= 1.39D-05  0.00D+00 EMaxC= 1.00D-01 BMatC= 3.34D-08 BMatP= 8.04D-08
 IDIUse=1 WtCom= 1.00D+00 WtEn= 0.00D+00
 Coeff-Com: -0.118D-03 0.157D-03 0.912D-03 0.244D-02 0.663D-02-0.190D-01
 Coeff-Com: -0.607D-01-0.141D+00 0.409D+00 0.802D+00
 Coeff:     -0.118D-03 0.157D-03 0.912D-03 0.244D-02 0.663D-02-0.190D-01
 Coeff:     -0.607D-01-0.141D+00 0.409D+00 0.802D+00
 Gap=     0.244 Goal=   None    Shift=    0.000
 RMSDP=2.04D-06 MaxDP=4.66D-05 DE=-3.80D-07 OVMax= 3.20D-04

 Cycle  11  Pass 1  IDiag  1:
 RMSU=  6.76D-07    CP:  9.90D-01  1.34D+00  9.44D-01  8.81D-01  1.35D+00
                    CP:  1.70D+00  1.59D+00  1.52D+00  1.61D+00  1.11D+00
 E= -1028.80124688785     Delta-E=       -0.000000102320 Rises=F Damp=F
 DIIS: error= 5.32D-06 at cycle  11 NSaved=  11.
 NSaved=11 IEnMin=11 EnMin= -1028.80124688785     IErMin=11 ErrMin= 5.32D-06
 ErrMax= 5.32D-06  0.00D+00 EMaxC= 1.00D-01 BMatC= 3.86D-09 BMatP= 3.34D-08
 IDIUse=1 WtCom= 1.00D+00 WtEn= 0.00D+00
 Coeff-Com:  0.301D-03-0.621D-03-0.110D-02-0.103D-02 0.560D-02 0.138D-01
 Coeff-Com: -0.117D-01-0.108D+00-0.577D-02 0.221D+00 0.887D+00
 Coeff:      0.301D-03-0.621D-03-0.110D-02-0.103D-02 0.560D-02 0.138D-01
 Coeff:     -0.117D-01-0.108D+00-0.577D-02 0.221D+00 0.887D+00
 Gap=     0.244 Goal=   None    Shift=    0.000
 RMSDP=7.70D-07 MaxDP=2.02D-05 DE=-1.02D-07 OVMax= 1.44D-04

 Cycle  12  Pass 1  IDiag  1:
 RMSU=  2.53D-07    CP:  9.90D-01  1.34D+00  9.44D-01  8.82D-01  1.35D+00
                    CP:  1.70D+00  1.60D+00  1.56D+00  1.76D+00  1.34D+00
                    CP:  1.18D+00
 E= -1028.80124690369     Delta-E=       -0.000000015840 Rises=F Damp=F
 DIIS: error= 1.36D-06 at cycle  12 NSaved=  12.
 NSaved=12 IEnMin=12 EnMin= -1028.80124690369     IErMin=12 ErrMin= 1.36D-06
 ErrMax= 1.36D-06  0.00D+00 EMaxC= 1.00D-01 BMatC= 9.36D-10 BMatP= 3.86D-09
 IDIUse=1 WtCom= 1.00D+00 WtEn= 0.00D+00
 Coeff-Com:  0.142D-03-0.278D-03-0.596D-03-0.944D-03 0.125D-02 0.891D-02
 Coeff-Com:  0.724D-02-0.200D-01-0.749D-01-0.947D-01 0.335D+00 0.839D+00
 Coeff:      0.142D-03-0.278D-03-0.596D-03-0.944D-03 0.125D-02 0.891D-02
 Coeff:      0.724D-02-0.200D-01-0.749D-01-0.947D-01 0.335D+00 0.839D+00
 Gap=     0.244 Goal=   None    Shift=    0.000
 RMSDP=3.72D-07 MaxDP=9.06D-06 DE=-1.58D-08 OVMax= 5.83D-05

 Cycle  13  Pass 1  IDiag  1:
 RMSU=  9.69D-08    CP:  9.90D-01  1.34D+00  9.45D-01  8.82D-01  1.35D+00
                    CP:  1.70D+00  1.61D+00  1.57D+00  1.83D+00  1.42D+00
                    CP:  1.41D+00  1.11D+00
 E= -1028.80124690648     Delta-E=       -0.000000002792 Rises=F Damp=F
 DIIS: error= 6.40D-07 at cycle  13 NSaved=  13.
 NSaved=13 IEnMin=13 EnMin= -1028.80124690648     IErMin=13 ErrMin= 6.40D-07
 ErrMax= 6.40D-07  0.00D+00 EMaxC= 1.00D-01 BMatC= 6.16D-11 BMatP= 9.36D-10
 IDIUse=1 WtCom= 1.00D+00 WtEn= 0.00D+00
 Coeff-Com: -0.648D-05 0.162D-04 0.131D-04-0.943D-04-0.235D-03 0.404D-03
 Coeff-Com:  0.298D-02 0.747D-02-0.121D-01-0.529D-01-0.334D-01 0.185D+00
 Coeff-Com:  0.903D+00
 Coeff:     -0.648D-05 0.162D-04 0.131D-04-0.943D-04-0.235D-03 0.404D-03
 Coeff:      0.298D-02 0.747D-02-0.121D-01-0.529D-01-0.334D-01 0.185D+00
 Coeff:      0.903D+00
 Gap=     0.244 Goal=   None    Shift=    0.000
 RMSDP=9.10D-08 MaxDP=2.38D-06 DE=-2.79D-09 OVMax= 1.28D-05

 Cycle  14  Pass 1  IDiag  1:
 RMSU=  3.83D-08    CP:  9.90D-01  1.34D+00  9.45D-01  8.82D-01  1.35D+00
                    CP:  1.70D+00  1.61D+00  1.57D+00  1.85D+00  1.44D+00
                    CP:  1.47D+00  1.25D+00  1.14D+00
 E= -1028.80124690667     Delta-E=       -0.000000000191 Rises=F Damp=F
 DIIS: error= 2.49D-07 at cycle  14 NSaved=  14.
 NSaved=14 IEnMin=14 EnMin= -1028.80124690667     IErMin=14 ErrMin= 2.49D-07
 ErrMax= 2.49D-07  0.00D+00 EMaxC= 1.00D-01 BMatC= 1.30D-11 BMatP= 6.16D-11
 IDIUse=1 WtCom= 1.00D+00 WtEn= 0.00D+00
 Coeff-Com: -0.151D-04 0.310D-04 0.590D-04 0.423D-04-0.204D-03-0.625D-03
 Coeff-Com:  0.631D-03 0.493D-02 0.255D-02-0.134D-01-0.441D-01-0.627D-02
 Coeff-Com:  0.397D+00 0.660D+00
 Coeff:     -0.151D-04 0.310D-04 0.590D-04 0.423D-04-0.204D-03-0.625D-03
 Coeff:      0.631D-03 0.493D-02 0.255D-02-0.134D-01-0.441D-01-0.627D-02
 Coeff:      0.397D+00 0.660D+00
 Gap=     0.244 Goal=   None    Shift=    0.000
 RMSDP=2.09D-08 MaxDP=5.06D-07 DE=-1.91D-10 OVMax= 1.69D-06

 Cycle  15  Pass 1  IDiag  1:
 RMSU=  1.44D-08    CP:  9.90D-01  1.34D+00  9.45D-01  8.82D-01  1.35D+00
                    CP:  1.70D+00  1.61D+00  1.57D+00  1.85D+00  1.45D+00
                    CP:  1.48D+00  1.28D+00  1.25D+00  9.71D-01
 E= -1028.80124690669     Delta-E=       -0.000000000024 Rises=F Damp=F
 DIIS: error= 7.08D-08 at cycle  15 NSaved=  15.
 NSaved=15 IEnMin=15 EnMin= -1028.80124690669     IErMin=15 ErrMin= 7.08D-08
 ErrMax= 7.08D-08  0.00D+00 EMaxC= 1.00D-01 BMatC= 1.18D-12 BMatP= 1.30D-11
 IDIUse=1 WtCom= 1.00D+00 WtEn= 0.00D+00
 Coeff-Com: -0.366D-05 0.684D-05 0.179D-04 0.345D-04-0.278D-04-0.333D-03
 Coeff-Com: -0.478D-03-0.335D-04 0.358D-02 0.702D-02-0.611D-02-0.437D-01
 Coeff-Com: -0.461D-01 0.166D+00 0.920D+00
 Coeff:     -0.366D-05 0.684D-05 0.179D-04 0.345D-04-0.278D-04-0.333D-03
 Coeff:     -0.478D-03-0.335D-04 0.358D-02 0.702D-02-0.611D-02-0.437D-01
 Coeff:     -0.461D-01 0.166D+00 0.920D+00
 Gap=     0.244 Goal=   None    Shift=    0.000
 RMSDP=1.09D-08 MaxDP=2.46D-07 DE=-2.41D-11 OVMax= 1.34D-06

 Cycle  16  Pass 1  IDiag  1:
 RMSU=  5.05D-09    CP:  9.90D-01  1.34D+00  9.45D-01  8.82D-01  1.35D+00
                    CP:  1.70D+00  1.61D+00  1.57D+00  1.85D+00  1.45D+00
                    CP:  1.48D+00  1.29D+00  1.31D+00  1.13D+00  1.12D+00
 E= -1028.80124690669     Delta-E=       -0.000000000000 Rises=F Damp=F
 DIIS: error= 2.53D-08 at cycle  16 NSaved=  16.
 NSaved=16 IEnMin=16 EnMin= -1028.80124690669     IErMin=16 ErrMin= 2.53D-08
 ErrMax= 2.53D-08  0.00D+00 EMaxC= 1.00D-01 BMatC= 1.95D-13 BMatP= 1.18D-12
 IDIUse=1 WtCom= 1.00D+00 WtEn= 0.00D+00
 Coeff-Com: -0.120D-06 0.414D-07 0.180D-05 0.900D-05 0.458D-05-0.625D-04
 Coeff-Com: -0.212D-03-0.352D-03 0.854D-03 0.320D-02 0.128D-02-0.152D-01
 Coeff-Com: -0.460D-01-0.276D-01 0.296D+00 0.788D+00
 Coeff:     -0.120D-06 0.414D-07 0.180D-05 0.900D-05 0.458D-05-0.625D-04
 Coeff:     -0.212D-03-0.352D-03 0.854D-03 0.320D-02 0.128D-02-0.152D-01
 Coeff:     -0.460D-01-0.276D-01 0.296D+00 0.788D+00
 Gap=     0.244 Goal=   None    Shift=    0.000
 RMSDP=3.84D-09 MaxDP=9.96D-08 DE=-4.55D-13 OVMax= 4.67D-07

 Error on total polarization charges =  0.00877
 SCF Done:  E(RwB97XD) =  -1028.80124691     A.U. after   16 cycles
            NFock= 16  Conv=0.38D-08     -V/T= 2.0050
 KE= 1.023634032778D+03 PE=-4.601170681686D+03 EE= 1.454077207011D+03
 Leave Link  502 at Tue Oct 27 20:23:43 2020, MaxMem=  7784628224 cpu:             881.0 elap:              88.8
 (Enter /gpfs/loomis/apps/avx/software/Gaussian/16-C.01_AVX/g16/l601.exe)
 Copying SCF densities to generalized density rwf, IOpCl= 0 IROHF=0.

 **********************************************************************

            Population analysis using the SCF Density.

 **********************************************************************

 Alpha  occ. eigenvalues --  -89.10706 -19.21975 -14.50642 -10.41830 -10.36975
 Alpha  occ. eigenvalues --  -10.36439 -10.36353 -10.33489 -10.32649 -10.32437
 Alpha  occ. eigenvalues --  -10.32359 -10.31788 -10.31691 -10.31021 -10.29497
 Alpha  occ. eigenvalues --  -10.28714  -8.12572  -6.07459  -6.07093  -6.06587
 Alpha  occ. eigenvalues --   -1.13220  -1.09792  -0.97867  -0.94880  -0.92919
 Alpha  occ. eigenvalues --   -0.89056  -0.86078  -0.83870  -0.81358  -0.75975
 Alpha  occ. eigenvalues --   -0.72612  -0.71514  -0.68910  -0.67769  -0.64666
 Alpha  occ. eigenvalues --   -0.60733  -0.59493  -0.56957  -0.55465  -0.55346
 Alpha  occ. eigenvalues --   -0.54637  -0.53433  -0.52942  -0.50984  -0.49471
 Alpha  occ. eigenvalues --   -0.48873  -0.48256  -0.46671  -0.45197  -0.45038
 Alpha  occ. eigenvalues --   -0.44229  -0.42979  -0.41929  -0.40458  -0.36689
 Alpha  occ. eigenvalues --   -0.33389  -0.32719  -0.31331  -0.26367
 Alpha virt. eigenvalues --   -0.01991   0.03846   0.06090   0.06115   0.08838
 Alpha virt. eigenvalues --    0.10339   0.12219   0.14654   0.16024   0.17489
 Alpha virt. eigenvalues --    0.18959   0.20327   0.21202   0.21390   0.22771
 Alpha virt. eigenvalues --    0.23419   0.23813   0.24971   0.28765   0.29814
 Alpha virt. eigenvalues --    0.31265   0.33063   0.35441   0.35772   0.36441
 Alpha virt. eigenvalues --    0.38338   0.38714   0.40129   0.42652   0.43880
 Alpha virt. eigenvalues --    0.46179   0.48422   0.49591   0.51239   0.51398
 Alpha virt. eigenvalues --    0.52476   0.52955   0.53401   0.54367   0.55393
 Alpha virt. eigenvalues --    0.55775   0.56111   0.56150   0.56722   0.57726
 Alpha virt. eigenvalues --    0.57972   0.58679   0.59177   0.59473   0.59830
 Alpha virt. eigenvalues --    0.60171   0.61377   0.61702   0.62091   0.62866
 Alpha virt. eigenvalues --    0.64694   0.65707   0.67069   0.68210   0.68640
 Alpha virt. eigenvalues --    0.69917   0.70488   0.71927   0.72041   0.72680
 Alpha virt. eigenvalues --    0.73304   0.74826   0.75100   0.76291   0.76889
 Alpha virt. eigenvalues --    0.79023   0.79284   0.79939   0.81766   0.82231
 Alpha virt. eigenvalues --    0.82615   0.86997   0.88903   0.90912   0.92136
 Alpha virt. eigenvalues --    0.93493   0.94687   0.95722   0.96273   0.96775
 Alpha virt. eigenvalues --    0.98478   0.99092   0.99684   1.00159   1.00985
 Alpha virt. eigenvalues --    1.02377   1.04734   1.05246   1.06427   1.07254
 Alpha virt. eigenvalues --    1.07668   1.08224   1.10224   1.10464   1.11412
 Alpha virt. eigenvalues --    1.11574   1.12439   1.13128   1.14610   1.15504
 Alpha virt. eigenvalues --    1.16566   1.18110   1.20110   1.23505   1.24339
 Alpha virt. eigenvalues --    1.26554   1.27213   1.31955   1.32485   1.34243
 Alpha virt. eigenvalues --    1.35044   1.35504   1.38565   1.40745   1.45268
 Alpha virt. eigenvalues --    1.49000   1.49443   1.53097   1.53590   1.54958
 Alpha virt. eigenvalues --    1.56272   1.56707   1.57351   1.58192   1.59547
 Alpha virt. eigenvalues --    1.59592   1.61334   1.64318   1.64847   1.67822
 Alpha virt. eigenvalues --    1.68025   1.69162   1.69763   1.70326   1.71827
 Alpha virt. eigenvalues --    1.72038   1.72262   1.72776   1.73639   1.74783
 Alpha virt. eigenvalues --    1.77647   1.79481   1.79753   1.81141   1.81784
 Alpha virt. eigenvalues --    1.82488   1.83323   1.84370   1.85153   1.85502
 Alpha virt. eigenvalues --    1.86827   1.88992   1.90585   1.91200   1.91904
 Alpha virt. eigenvalues --    1.92425   1.92605   1.94485   1.96222   1.97052
 Alpha virt. eigenvalues --    1.98271   1.99904   2.01239   2.03822   2.04099
 Alpha virt. eigenvalues --    2.05507   2.06743   2.08794   2.09964   2.11511
 Alpha virt. eigenvalues --    2.14982   2.17062   2.18781   2.20944   2.23478
 Alpha virt. eigenvalues --    2.26749   2.30254   2.33859   2.37968   2.39102
 Alpha virt. eigenvalues --    2.41305   2.41672   2.46113   2.46747   2.48179
 Alpha virt. eigenvalues --    2.48381   2.50201   2.52201   2.53382   2.60772
 Alpha virt. eigenvalues --    2.61649   2.69032   2.72617   2.74725   2.79398
 Alpha virt. eigenvalues --    2.81027   2.82219   2.85034   2.86910   2.88450
 Alpha virt. eigenvalues --    2.92047   3.00547   3.13672   3.28158   3.42954
 Alpha virt. eigenvalues --    3.48946   3.54436   3.56115   3.77564
          Condensed to atoms (all electrons):
               1          2          3          4          5          6
     1  C    4.730250   0.482333   0.002065  -0.048233  -0.013286   0.521363
     2  C    0.482333   5.350274   0.312408  -0.062312  -0.061907  -0.012684
     3  C    0.002065   0.312408   4.802079   0.521765  -0.006275  -0.062698
     4  C   -0.048233  -0.062312   0.521765   4.790874   0.521741  -0.019061
     5  C   -0.013286  -0.061907  -0.006275   0.521741   4.717371   0.497648
     6  C    0.521363  -0.012684  -0.062698  -0.019061   0.497648   4.741409
     7  H    0.404556  -0.041813   0.008364  -0.000455   0.007940  -0.036624
     8  H   -0.000598   0.010239  -0.023819   0.392781  -0.040533   0.007161
     9  H    0.008255  -0.000325   0.008038  -0.038605   0.405422  -0.042977
    10  H   -0.041783   0.009492  -0.000650   0.008773  -0.043085   0.406816
    11  N    0.004235  -0.042230   0.411454  -0.051426   0.002697   0.000408
    12  S   -0.058584   0.336223  -0.121566   0.004117   0.000236   0.003285
    13  C   -0.000156   0.002014   0.012673  -0.000658   0.000010  -0.000001
    14  C   -0.000002   0.000012   0.000146   0.000005  -0.000000  -0.000000
    15  C    0.000000  -0.000262   0.000907   0.000102  -0.000000   0.000000
    16  C    0.000000  -0.000001   0.000004   0.000000   0.000000   0.000000
    17  H   -0.000001   0.000033  -0.000004  -0.000000   0.000000  -0.000000
    18  C    0.000000   0.000008  -0.000046  -0.000000  -0.000000   0.000000
    19  C   -0.000000   0.000000   0.000002  -0.000000   0.000000   0.000000
    20  H   -0.000000  -0.000000  -0.000000   0.000000  -0.000000  -0.000000
    21  H   -0.000000   0.000000   0.000001  -0.000000   0.000000   0.000000
    22  H    0.000000  -0.000000  -0.000000  -0.000000  -0.000000  -0.000000
    23  C    0.003216  -0.050007  -0.105230   0.003812   0.000168  -0.000191
    24  O    0.000002  -0.000202  -0.001070   0.000005  -0.000001  -0.000000
    25  H    0.000107   0.008177  -0.025396  -0.007227  -0.000116  -0.000008
               7          8          9         10         11         12
     1  C    0.404556  -0.000598   0.008255  -0.041783   0.004235  -0.058584
     2  C   -0.041813   0.010239  -0.000325   0.009492  -0.042230   0.336223
     3  C    0.008364  -0.023819   0.008038  -0.000650   0.411454  -0.121566
     4  C   -0.000455   0.392781  -0.038605   0.008773  -0.051426   0.004117
     5  C    0.007940  -0.040533   0.405422  -0.043085   0.002697   0.000236
     6  C   -0.036624   0.007161  -0.042977   0.406816   0.000408   0.003285
     7  H    0.647082   0.000028  -0.000128  -0.011840  -0.000106  -0.005765
     8  H    0.000028   0.636156  -0.011032  -0.000126  -0.004621  -0.000236
     9  H   -0.000128  -0.011032   0.655501  -0.011980  -0.000115   0.000021
    10  H   -0.011840  -0.000126  -0.011980   0.656919   0.000003  -0.000117
    11  N   -0.000106  -0.004621  -0.000115   0.000003   6.127535  -0.051862
    12  S   -0.005765  -0.000236   0.000021  -0.000117  -0.051862  15.427004
    13  C    0.000006   0.000069  -0.000000  -0.000000  -0.032178  -0.059101
    14  C    0.000000   0.000001   0.000000  -0.000000   0.002894  -0.004033
    15  C   -0.000000  -0.000007   0.000000   0.000000  -0.000580   0.003111
    16  C   -0.000000  -0.000000  -0.000000   0.000000  -0.000096  -0.000073
    17  H    0.000000   0.000000  -0.000000  -0.000000   0.000226   0.004558
    18  C   -0.000000  -0.000000  -0.000000  -0.000000  -0.000534  -0.000068
    19  C    0.000000   0.000000  -0.000000   0.000000   0.000060   0.000015
    20  H   -0.000000  -0.000000   0.000000   0.000000   0.000001  -0.000001
    21  H   -0.000000   0.000000  -0.000000   0.000000   0.000026   0.000003
    22  H    0.000000  -0.000000  -0.000000  -0.000000  -0.000000  -0.000000
    23  C    0.000084  -0.000657   0.000007   0.000003   0.521775   0.321518
    24  O   -0.000000  -0.000320   0.000000  -0.000000  -0.075948  -0.000344
    25  H    0.000004   0.001382  -0.000013  -0.000000   0.313565   0.003084
              13         14         15         16         17         18
     1  C   -0.000156  -0.000002   0.000000   0.000000  -0.000001   0.000000
     2  C    0.002014   0.000012  -0.000262  -0.000001   0.000033   0.000008
     3  C    0.012673   0.000146   0.000907   0.000004  -0.000004  -0.000046
     4  C   -0.000658   0.000005   0.000102   0.000000  -0.000000  -0.000000
     5  C    0.000010  -0.000000  -0.000000   0.000000   0.000000  -0.000000
     6  C   -0.000001  -0.000000   0.000000   0.000000  -0.000000   0.000000
     7  H    0.000006   0.000000  -0.000000  -0.000000   0.000000  -0.000000
     8  H    0.000069   0.000001  -0.000007  -0.000000   0.000000  -0.000000
     9  H   -0.000000   0.000000   0.000000  -0.000000  -0.000000  -0.000000
    10  H   -0.000000  -0.000000   0.000000   0.000000  -0.000000  -0.000000
    11  N   -0.032178   0.002894  -0.000580  -0.000096   0.000226  -0.000534
    12  S   -0.059101  -0.004033   0.003111  -0.000073   0.004558  -0.000068
    13  C    5.429091   0.442052   0.216452  -0.007418  -0.041843  -0.038973
    14  C    0.442052   4.827780   0.011950   0.533968   0.401659  -0.058301
    15  C    0.216452   0.011950   4.736290  -0.058961   0.007070   0.492897
    16  C   -0.007418   0.533968  -0.058961   4.781432  -0.035146  -0.020436
    17  H   -0.041843   0.401659   0.007070  -0.035146   0.683065  -0.000874
    18  C   -0.038973  -0.058301   0.492897  -0.020436  -0.000874   4.847281
    19  C   -0.047711  -0.016568  -0.013702   0.475411   0.008424   0.503849
    20  H    0.008959  -0.036442  -0.000243   0.400410  -0.012553   0.008281
    21  H    0.014343  -0.000683  -0.022065   0.007538   0.000048   0.373153
    22  H   -0.001315   0.008999   0.008873  -0.046109  -0.000172  -0.038954
    23  C    0.343099  -0.095258  -0.080464   0.007008  -0.018681   0.008419
    24  O   -0.081255   0.005483   0.596405  -0.000080  -0.000067  -0.064709
    25  H   -0.030368  -0.000394  -0.022635   0.000034  -0.000046   0.004290
              19         20         21         22         23         24
     1  C   -0.000000  -0.000000  -0.000000   0.000000   0.003216   0.000002
     2  C    0.000000  -0.000000   0.000000  -0.000000  -0.050007  -0.000202
     3  C    0.000002  -0.000000   0.000001  -0.000000  -0.105230  -0.001070
     4  C   -0.000000   0.000000  -0.000000  -0.000000   0.003812   0.000005
     5  C    0.000000  -0.000000   0.000000  -0.000000   0.000168  -0.000001
     6  C    0.000000  -0.000000   0.000000  -0.000000  -0.000191  -0.000000
     7  H    0.000000  -0.000000  -0.000000   0.000000   0.000084  -0.000000
     8  H    0.000000  -0.000000   0.000000  -0.000000  -0.000657  -0.000320
     9  H   -0.000000   0.000000  -0.000000  -0.000000   0.000007   0.000000
    10  H    0.000000   0.000000   0.000000  -0.000000   0.000003  -0.000000
    11  N    0.000060   0.000001   0.000026  -0.000000   0.521775  -0.075948
    12  S    0.000015  -0.000001   0.000003  -0.000000   0.321518  -0.000344
    13  C   -0.047711   0.008959   0.014343  -0.001315   0.343099  -0.081255
    14  C   -0.016568  -0.036442  -0.000683   0.008999  -0.095258   0.005483
    15  C   -0.013702  -0.000243  -0.022065   0.008873  -0.080464   0.596405
    16  C    0.475411   0.400410   0.007538  -0.046109   0.007008  -0.000080
    17  H    0.008424  -0.012553   0.000048  -0.000172  -0.018681  -0.000067
    18  C    0.503849   0.008281   0.373153  -0.038954   0.008419  -0.064709
    19  C    4.747488  -0.047526  -0.047333   0.403264   0.000191   0.004658
    20  H   -0.047526   0.686438  -0.000179  -0.012207  -0.000326   0.000001
    21  H   -0.047333  -0.000179   0.675106  -0.012192  -0.000411   0.006001
    22  H    0.403264  -0.012207  -0.012192   0.673003   0.000010  -0.000092
    23  C    0.000191  -0.000326  -0.000411   0.000010   5.094424  -0.013932
    24  O    0.004658   0.000001   0.006001  -0.000092  -0.013932   7.879970
    25  H   -0.000428  -0.000001   0.000012   0.000009   0.004683   0.142126
              25
     1  C    0.000107
     2  C    0.008177
     3  C   -0.025396
     4  C   -0.007227
     5  C   -0.000116
     6  C   -0.000008
     7  H    0.000004
     8  H    0.001382
     9  H   -0.000013
    10  H   -0.000000
    11  N    0.313565
    12  S    0.003084
    13  C   -0.030368
    14  C   -0.000394
    15  C   -0.022635
    16  C    0.000034
    17  H   -0.000046
    18  C    0.004290
    19  C   -0.000428
    20  H   -0.000001
    21  H    0.000012
    22  H    0.000009
    23  C    0.004683
    24  O    0.142126
    25  H    0.470895
 Mulliken charges:
               1
     1  C    0.006263
     2  C   -0.239472
     3  C    0.266850
     4  C   -0.015998
     5  C    0.011972
     6  C   -0.003844
     7  H    0.028668
     8  H    0.034133
     9  H    0.027931
    10  H    0.027577
    11  N   -0.125181
    12  S    0.198576
    13  C   -0.127788
    14  C   -0.023267
    15  C    0.124863
    16  C   -0.037486
    17  H    0.004304
    18  C   -0.015283
    19  C    0.029908
    20  H    0.005386
    21  H    0.006631
    22  H    0.016883
    23  C    0.056741
    24  O   -0.396631
    25  H    0.138264
 Sum of Mulliken charges =  -0.00000
 Mulliken charges with hydrogens summed into heavy atoms:
               1
     1  C    0.034930
     2  C   -0.239472
     3  C    0.266850
     4  C    0.018135
     5  C    0.039904
     6  C    0.023733
    11  N    0.013083
    12  S    0.198576
    13  C   -0.127788
    14  C   -0.018963
    15  C    0.124863
    16  C   -0.032099
    18  C   -0.008652
    19  C    0.046791
    23  C    0.056741
    24  O   -0.396631
 Electronic spatial extent (au):  <R**2>=           4368.2481
 Charge=             -0.0000 electrons
 Dipole moment (field-independent basis, Debye):
    X=              1.2868    Y=             -4.8056    Z=             -0.0000  Tot=              4.9749
 Quadrupole moment (field-independent basis, Debye-Ang):
   XX=            -83.0451   YY=            -93.0974   ZZ=           -104.3922
   XY=             -6.7231   XZ=             -0.0001   YZ=              0.0002
 Traceless Quadrupole moment (field-independent basis, Debye-Ang):
   XX=             10.4665   YY=              0.4142   ZZ=            -10.8807
   XY=             -6.7231   XZ=             -0.0001   YZ=              0.0002
 Octapole moment (field-independent basis, Debye-Ang**2):
  XXX=             32.9821  YYY=            -46.6901  ZZZ=             -0.0001  XYY=              0.4488
  XXY=             -8.5246  XXZ=             -0.0001  XZZ=              1.9926  YZZ=              1.2804
  YYZ=              0.0005  XYZ=             -0.0006
 Hexadecapole moment (field-independent basis, Debye-Ang**3):
 XXXX=          -2616.9006 YYYY=          -2665.7558 ZZZZ=           -113.6060 XXXY=            812.4633
 XXXZ=              0.0096 YYYX=            766.7011 YYYZ=             -0.0109 ZZZX=              0.0127
 ZZZY=             -0.0190 XXYY=           -856.9809 XXZZ=           -575.1256 YYZZ=           -555.1240
 XXYZ=             -0.0026 YYXZ=             -0.0005 ZZXY=            357.8444
 N-N= 1.094658194991D+03 E-N=-4.601170684023D+03  KE= 1.023634032778D+03
 No NMR shielding tensors so no spin-rotation constants.
 Leave Link  601 at Tue Oct 27 20:23:43 2020, MaxMem=  7784628224 cpu:               1.3 elap:               0.2
 (Enter /gpfs/loomis/apps/avx/software/Gaussian/16-C.01_AVX/g16/l701.exe)
 ... and contract with generalized density number  0.
 Compute integral first derivatives.
 R6Disp: Adding Grimme-D2 dispersion energy 1st derivatives to the gradient.
 D1PCM: PCM CHGder 1st derivatives, ID1Alg=3 FixD1E=F DoIter=F DoCFld=F I1PDM=0.
 GePol: Maximum number of non-zero 1st derivatives   =     271
 Leave Link  701 at Tue Oct 27 20:23:44 2020, MaxMem=  7784628224 cpu:              14.0 elap:               1.4
 (Enter /gpfs/loomis/apps/avx/software/Gaussian/16-C.01_AVX/g16/l702.exe)
 L702 exits ... SP integral derivatives will be done elsewhere.
 Leave Link  702 at Tue Oct 27 20:23:44 2020, MaxMem=  7784628224 cpu:               0.3 elap:               0.1
 (Enter /gpfs/loomis/apps/avx/software/Gaussian/16-C.01_AVX/g16/l703.exe)
 Integral derivatives from FoFJK, PRISM(SPDF).
 Compute integral first derivatives, UseDBF=F ICtDFT=           0.
 Calling FoFJK, ICntrl=      2127 FMM=F ISym2X=0 I1Cent= 0 IOpClX= 0 NMat=1 NMatS=1 NMatT=0.
 FoFJK:  IHMeth= 1 ICntrl=    2127 DoSepK=T KAlg= 0 I1Cent=           0 FoldK=F
 IRaf=         1 NMat=       1 IRICut=       1 DoRegI=T DoRafI=F ISym2E= 0 IDoP0=0 IntGTp=1.
 FoFCou: FMM=F IPFlag=           0 FMFlag=      100000 FMFlg1=         800
         NFxFlg=           0 DoJE=F BraDBF=F KetDBF=F FulRan=T
         wScrn=  0.000000 ICntrl=      2527 IOpCl=  0 I1Cent=           0 NGrid=           0
         NMat0=    1 NMatS0=      1 NMatT0=    0 NMatD0=    1 NMtDS0=    0 NMtDT0=    0
 Symmetry not used in FoFCou.
 Leave Link  703 at Tue Oct 27 20:23:58 2020, MaxMem=  7784628224 cpu:             137.3 elap:              13.8
 (Enter /gpfs/loomis/apps/avx/software/Gaussian/16-C.01_AVX/g16/l716.exe)
 Dipole        = 5.06264430D-01-1.89066416D+00-1.79421427D-05
 -------------------------------------------------------------------
 Center     Atomic                   Forces (Hartrees/Bohr)
 Number     Number              X              Y              Z
 -------------------------------------------------------------------
      1        6           0.002455709    0.000946489    0.000000065
      2        6           0.008331065    0.010417064   -0.000000008
      3        6           0.016937093   -0.019875087   -0.000000019
      4        6          -0.005479969   -0.001000907   -0.000000047
      5        6          -0.001202979   -0.003442447   -0.000000050
      6        6          -0.006080463    0.001098273    0.000000056
      7        1           0.000889761    0.002750826   -0.000000048
      8        1          -0.000730125   -0.002672685   -0.000000007
      9        1          -0.002149854   -0.000328058   -0.000000006
     10        1          -0.001419704    0.001302987    0.000000010
     11        7          -0.039862354   -0.045812180   -0.000000337
     12       16           0.007746709    0.017414281   -0.000000061
     13        6           0.013878534    0.021827561    0.000000492
     14        6          -0.026954423    0.019928769    0.000001516
     15        6           0.010608354   -0.016981963   -0.000000781
     16        6           0.003146027   -0.033081470   -0.000001083
     17        1          -0.000017635    0.001747394    0.000000150
     18        6          -0.022372198    0.002073051    0.000000294
     19        6           0.024382087   -0.002452471   -0.000000339
     20        1           0.001451622   -0.000592506   -0.000000096
     21        1          -0.001808164   -0.002362168    0.000000013
     22        1           0.000353290   -0.000501000   -0.000000126
     23        6           0.012307797    0.012457984   -0.000000340
     24        8          -0.001151252    0.004438891    0.000000345
     25        1           0.006741072    0.032699370    0.000000405
 -------------------------------------------------------------------
 Cartesian Forces:  Max     0.045812180 RMS     0.012047219
 Leave Link  716 at Tue Oct 27 20:23:58 2020, MaxMem=  7784628224 cpu:               0.3 elap:               0.0
 (Enter /gpfs/loomis/apps/avx/software/Gaussian/16-C.01_AVX/g16/l103.exe)

 GradGradGradGradGradGradGradGradGradGradGradGradGradGradGradGradGradGrad
 Berny optimization.
 FormGI is forming the generalized inverse of G from B-inverse, IUseBI=4.
 GSVD:  received Info=                   1 from GESDD.
 Internal  Forces:  Max     0.031261544 RMS     0.006066641
 Search for a local minimum.
 Step number   1 out of a maximum of  146
 All quantities printed in internal units (Hartrees-Bohrs-Radians)
 RMS Force = .61117D-02 SwitMx=.10000D-02 MixMth= 1
 Mixed Optimization -- RFO/linear search
 Second derivative matrix not updated -- first step.
 ITU=  0
     Eigenvalues ---    0.01178   0.01384   0.01401   0.01569   0.01583
     Eigenvalues ---    0.01631   0.01726   0.01933   0.01950   0.01996
     Eigenvalues ---    0.02010   0.02027   0.02032   0.02053   0.02053
     Eigenvalues ---    0.02071   0.02076   0.02109   0.02115   0.02120
     Eigenvalues ---    0.02163   0.02271   0.16000   0.16000   0.16000
     Eigenvalues ---    0.16000   0.16000   0.16000   0.16000   0.16003
     Eigenvalues ---    0.17614   0.22002   0.22014   0.22535   0.22584
     Eigenvalues ---    0.24334   0.24466   0.24594   0.25000   0.25000
     Eigenvalues ---    0.26685   0.27752   0.30907   0.33177   0.34140
     Eigenvalues ---    0.34298   0.34314   0.34333   0.34379   0.34441
     Eigenvalues ---    0.34457   0.34544   0.38543   0.39625   0.40375
     Eigenvalues ---    0.41348   0.42444   0.42975   0.43287   0.44788
     Eigenvalues ---    0.44908   0.45171   0.46459   0.47027   0.49893
     Eigenvalues ---    0.52413   0.730371000.000001000.000001000.00000
     Eigenvalues --- 1000.000001000.000001000.000001000.000001000.00000
     Eigenvalues --- 1000.000001000.000001000.000001000.000001000.00000
     Eigenvalues --- 1000.000001000.000001000.000001000.000001000.00000
     Eigenvalues --- 1000.000001000.000001000.000001000.000001000.00000
     Eigenvalues --- 1000.000001000.000001000.000001000.000001000.00000
     Eigenvalues --- 1000.000001000.000001000.000001000.000001000.00000
     Eigenvalues --- 1000.000001000.000001000.000001000.000001000.00000
     Eigenvalues --- 1000.000001000.000001000.000001000.000001000.00000
     Eigenvalues --- 1000.000001000.000001000.000001000.000001000.00000
     Eigenvalues --- 1000.000001000.000001000.000001000.000001000.00000
     Eigenvalues --- 1000.000001000.000001000.000001000.000001000.00000
     Eigenvalues --- 1000.000001000.000001000.000001000.000001000.00000
     Eigenvalues --- 1000.000001000.000001000.000001000.000001000.00000
     Eigenvalues --- 1000.00000
 RFO step:  Lambda=-1.31867377D-02 EMin= 1.17756991D-02
 Linear search not attempted -- first point.
 Iteration  1 RMS(Cart)=  0.02019181 RMS(Int)=  0.00023033
 Iteration  2 RMS(Cart)=  0.00044445 RMS(Int)=  0.00006248
 Iteration  3 RMS(Cart)=  0.00000011 RMS(Int)=  0.00006248
 Iteration  1 RMS(Cart)=  0.00000001 RMS(Int)=  0.00000001
 ITry= 1 IFail=0 DXMaxC= 7.51D-02 DCOld= 1.00D+10 DXMaxT= 3.00D-01 DXLimC= 3.00D+00 Rises=F
 Variable       Old X    -DE/DX   Delta X   Delta X   Delta X     New X
                                 (Linear)    (Quad)   (Total)
    R1        2.64549  -0.00411   0.00000  -0.00787  -0.00786   2.63763
    R2        2.65097  -0.00672   0.00000  -0.01331  -0.01334   2.63763
    R3        2.06833  -0.00298   0.00000  -0.00818  -0.00818   2.06015
    R4        2.68328  -0.02100   0.00000  -0.04315  -0.04296   2.64032
    R5        3.35471   0.00167   0.00000   0.00582   0.00574   3.36045
    R6        2.65587  -0.00891   0.00000  -0.02028  -0.02025   2.63562
    R7        2.56280   0.00943   0.00000   0.01668   0.01680   2.57959
    R8        2.62293  -0.00342   0.00000  -0.00744  -0.00744   2.61549
    R9        2.06772  -0.00263   0.00000  -0.00738  -0.00738   2.06035
   R10        2.65752  -0.00504   0.00000  -0.00881  -0.00882   2.64870
   R11        2.06695  -0.00212   0.00000  -0.00589  -0.00589   2.06106
   R12        2.06593  -0.00191   0.00000  -0.00531  -0.00531   2.06062
   R13        2.56308  -0.02357   0.00000  -0.04615  -0.04617   2.51691
   R14        1.96501   0.02704   0.00000   0.07596   0.07616   2.04118
   R15        3.37239  -0.01069   0.00000  -0.02972  -0.02974   3.34264
   R16        2.64222   0.01281   0.00000   0.02973   0.02987   2.67209
   R17        2.83698  -0.01551   0.00000  -0.04106  -0.04097   2.79601
   R18        2.71104  -0.00283   0.00000  -0.00948  -0.00952   2.70152
   R19        2.67883  -0.03126   0.00000  -0.07350  -0.07348   2.60535
   R20        2.07094  -0.00164   0.00000  -0.00457  -0.00457   2.06637
   R21        2.68592   0.00354   0.00000   0.00512   0.00499   2.69091
   R22        2.40978  -0.00225   0.00000  -0.00044  -0.00036   2.40942
   R23        2.65375   0.00457   0.00000   0.01049   0.01048   2.66423
   R24        2.06566  -0.00137   0.00000  -0.00390  -0.00390   2.06175
   R25        2.63190  -0.01476   0.00000  -0.03335  -0.03349   2.59841
   R26        2.06803  -0.00285   0.00000  -0.00793  -0.00793   2.06011
   R27        2.06422  -0.00050   0.00000  -0.00149  -0.00149   2.06273
    A1        2.06783  -0.00057   0.00000  -0.00313  -0.00316   2.06467
    A2        2.11481   0.00003   0.00000   0.00074   0.00076   2.11558
    A3        2.10054   0.00053   0.00000   0.00239   0.00240   2.10294
    A4        2.09111   0.00009   0.00000  -0.00252  -0.00249   2.08862
    A5        2.27459   0.00388   0.00000   0.01582   0.01577   2.29037
    A6        1.91748  -0.00397   0.00000  -0.01330  -0.01329   1.90419
    A7        2.11660   0.00477   0.00000   0.01534   0.01531   2.13191
    A8        1.99103  -0.00645   0.00000  -0.01956  -0.01936   1.97167
    A9        2.17556   0.00168   0.00000   0.00422   0.00405   2.17961
   A10        2.06565  -0.00151   0.00000  -0.00577  -0.00571   2.05994
   A11        2.08674   0.00107   0.00000   0.00421   0.00418   2.09092
   A12        2.13079   0.00045   0.00000   0.00156   0.00153   2.13232
   A13        2.10760  -0.00221   0.00000  -0.00597  -0.00597   2.10164
   A14        2.08721   0.00104   0.00000   0.00242   0.00242   2.08962
   A15        2.08837   0.00118   0.00000   0.00355   0.00355   2.09193
   A16        2.11758  -0.00057   0.00000   0.00205   0.00202   2.11959
   A17        2.07920   0.00012   0.00000  -0.00187  -0.00185   2.07736
   A18        2.08640   0.00045   0.00000  -0.00018  -0.00017   2.08624
   A19        2.00345   0.01453   0.00000   0.04621   0.04624   2.04968
   A20        2.32725  -0.01203   0.00000  -0.03659  -0.03651   2.29075
   A21        1.95249  -0.00250   0.00000  -0.00962  -0.00973   1.94276
   A22        1.56113   0.00669   0.00000   0.02431   0.02404   1.58517
   A23        2.03980   0.00819   0.00000   0.03297   0.03310   2.07290
   A24        2.20983  -0.00453   0.00000  -0.02070  -0.02083   2.18901
   A25        2.03355  -0.00366   0.00000  -0.01227  -0.01228   2.02127
   A26        2.11672   0.00110   0.00000   0.00367   0.00383   2.12056
   A27        2.09087   0.00048   0.00000   0.00442   0.00434   2.09520
   A28        2.07560  -0.00158   0.00000  -0.00809  -0.00817   2.06743
   A29        2.08388  -0.01214   0.00000  -0.04207  -0.04210   2.04178
   A30        2.12707   0.00685   0.00000   0.03257   0.03267   2.15974
   A31        2.07224   0.00529   0.00000   0.00951   0.00943   2.08167
   A32        2.12892  -0.00738   0.00000  -0.03344  -0.03339   2.09553
   A33        2.06735   0.00325   0.00000   0.01413   0.01411   2.08146
   A34        2.08692   0.00414   0.00000   0.01930   0.01928   2.10620
   A35        2.11959   0.00207   0.00000   0.00636   0.00617   2.12576
   A36        2.02416  -0.00064   0.00000  -0.00128  -0.00118   2.02297
   A37        2.13944  -0.00142   0.00000  -0.00509  -0.00499   2.13445
   A38        2.07746   0.00817   0.00000   0.03251   0.03238   2.10984
   A39        2.10002  -0.00390   0.00000  -0.01455  -0.01448   2.08554
   A40        2.10571  -0.00427   0.00000  -0.01796  -0.01790   2.08780
   A41        1.95169  -0.01080   0.00000  -0.03765  -0.03763   1.91406
   A42        2.03825   0.00448   0.00000   0.01395   0.01396   2.05221
   A43        2.29325   0.00632   0.00000   0.02370   0.02366   2.31691
    D1        0.00000   0.00000   0.00000   0.00000   0.00000   0.00000
    D2       -3.14159  -0.00000   0.00000   0.00000   0.00000  -3.14159
    D3        3.14159   0.00000   0.00000   0.00000   0.00000  -3.14159
    D4        0.00000   0.00000   0.00000   0.00000   0.00000   0.00000
    D5        0.00000   0.00000   0.00000   0.00000   0.00000   0.00000
    D6        3.14159   0.00000   0.00000   0.00000   0.00000  -3.14159
    D7       -3.14159  -0.00000   0.00000  -0.00000  -0.00000  -3.14159
    D8        0.00000  -0.00000   0.00000  -0.00000  -0.00000   0.00000
    D9       -0.00000  -0.00000   0.00000  -0.00000  -0.00000  -0.00000
   D10        3.14159  -0.00000   0.00000  -0.00000  -0.00000   3.14159
   D11        3.14159  -0.00000   0.00000  -0.00000  -0.00000   3.14159
   D12       -0.00000  -0.00000   0.00000  -0.00000  -0.00000  -0.00001
   D13       -3.14159   0.00000   0.00000   0.00000   0.00000  -3.14159
   D14        0.00000   0.00000   0.00000   0.00000   0.00000   0.00001
   D15        0.00000   0.00000   0.00000   0.00000   0.00000   0.00000
   D16       -3.14159  -0.00000   0.00000   0.00000   0.00000  -3.14159
   D17       -3.14159   0.00000   0.00000   0.00000   0.00000  -3.14159
   D18        0.00000   0.00000   0.00000   0.00000   0.00000   0.00000
   D19        0.00000   0.00000   0.00000  -0.00000  -0.00000   0.00000
   D20        3.14158   0.00000   0.00000   0.00000   0.00000   3.14158
   D21       -3.14159  -0.00000   0.00000  -0.00000  -0.00000  -3.14159
   D22       -0.00001   0.00000   0.00000  -0.00000  -0.00000  -0.00001
   D23        0.00000  -0.00000   0.00000  -0.00000  -0.00000  -0.00000
   D24        3.14159  -0.00000   0.00000  -0.00000  -0.00000   3.14159
   D25       -3.14159   0.00000   0.00000   0.00000   0.00000  -3.14159
   D26        0.00000   0.00000   0.00000   0.00000   0.00000   0.00000
   D27       -0.00000  -0.00000   0.00000  -0.00000  -0.00000  -0.00000
   D28        3.14159  -0.00000   0.00000  -0.00000  -0.00000   3.14159
   D29        3.14159   0.00000   0.00000  -0.00000  -0.00000   3.14159
   D30        0.00000   0.00000   0.00000   0.00000   0.00000   0.00000
   D31       -0.00000   0.00000   0.00000   0.00000   0.00000   0.00000
[...]
 ,0.00001945,0.,-0.00480428,0.00039883,-0.00000018,0.00012260,0.0012216
 5,0.00000003,-0.04000072,0.02548967,-0.00000017,-0.21852652,0.15998201
 ,0.00000212,0.00363169,0.01146557,0.00000071,0.76353380,-0.00149841,0.
 00199939,0.,0.00296338,-0.00152387,-0.00000002,0.00038560,0.00166267,0
 .00000008,-0.00154299,0.00002963,0.00000003,0.00001396,-0.00228844,-0.
 00000001,0.00251688,0.00030561,-0.00000002,-0.00008697,-0.00009749,0.,
 0.00004239,0.00006340,0.,0.00016880,-0.00007839,0.,0.00011559,-0.00004
 015,0.,0.01433815,0.00939782,0.00000010,-0.00295311,-0.00331959,-0.000
 00012,0.07058973,0.00718329,0.00000059,0.09390626,-0.29733683,-0.00000
 436,0.02679419,-0.05779651,-0.00000075,-0.02224075,0.66961400,-0.00000
 005,0.00000006,0.00001591,0.00000011,-0.00000004,0.00024605,0.00000003
 ,0.,-0.00062676,-0.00000006,0.00000001,-0.00008851,0.,-0.00000008,0.00
 005186,0.00000008,0.00000001,-0.00000548,0.,0.,-0.00000477,0.,0.,-0.00
 000792,0.,0.,0.00001271,0.,0.,-0.00001470,0.00000024,0.00000029,0.0001
 4124,-0.00000007,-0.00000011,-0.00056399,0.00000145,0.00000035,0.00869
 333,0.00000033,-0.00000388,-0.06240221,0.00000105,-0.00000135,-0.00547
 724,0.00000833,0.00001632,0.12195631,0.00023216,0.00002904,0.,-0.00057
 315,0.00027597,0.00000004,0.00036990,-0.00018703,0.,0.00000457,0.00003
 832,0.,0.00003941,0.00006177,0.,-0.00007623,-0.00006537,0.,-0.00001203
 ,-0.00000487,0.,0.00003304,0.00000390,0.,0.00000578,0.00000103,0.,0.00
 002364,-0.00000194,0.,0.00005625,0.00041419,0.00000001,-0.00081051,0.0
 0164780,-0.00000016,-0.00749066,-0.02807487,-0.00000070,-0.10639599,-0
 .10627580,-0.00000360,-0.00491624,0.00307774,-0.00000014,0.01143069,0.
 01775134,0.00000054,0.10878729,0.00002361,-0.00009828,0.,-0.00015486,0
 .00041891,0.,0.00018898,-0.00014327,0.,0.00003126,0.00003490,0.,0.0000
 0142,0.00008943,0.,-0.00011856,0.00001449,0.,-0.00000202,0.00001540,0.
 ,0.00001228,-0.00000499,0.,-0.00001039,0.00000475,0.,-0.00001064,0.000
 00377,0.,-0.00089176,0.00010023,0.00000003,-0.00035766,0.00023389,0.00
 000005,0.00112978,0.00097913,-0.00000006,-0.10316692,-0.29003598,-0.00
 000776,0.00072095,0.00201825,-0.00000011,-0.01487557,-0.01725968,-0.00
 000080,0.11213831,0.30675120,0.00000001,0.,0.00000484,-0.00000003,0.00
 000001,-0.00037640,0.,0.00000001,0.00013612,0.,0.,0.00006142,0.,0.,-0.
 00001310,0.,0.,0.00001642,0.,0.,-0.00000592,0.,0.,-0.00000866,0.,0.,-0
 .00000453,0.,0.,0.00001037,0.00000012,0.00000008,-0.00024228,-0.000000
 16,0.00000010,0.00082122,0.00000028,-0.00000049,0.00307993,-0.00000392
 ,-0.00000782,-0.03754292,0.00000002,-0.00000021,0.00526581,-0.00000012
 ,-0.00000052,0.00543556,0.00000398,0.00000865,0.02467120,-0.00041442,0
 .00111048,0.,0.00126714,-0.00040908,0.,0.00230627,0.00034465,0.0000000
 2,-0.00101833,-0.00003727,0.00000002,0.00006269,-0.00119794,0.,0.00119
 067,0.00017492,-0.00000001,-0.00008137,0.00000975,0.,0.00016017,0.0000
 2449,0.,0.00006316,-0.00003020,0.,0.00006160,0.00000569,0.,0.00823496,
 0.01347038,0.00000016,-0.00041542,-0.00091504,-0.00000008,0.05117097,0
 .00460677,0.00000060,-0.05028556,0.02747956,0.00000017,-0.13870031,0.0
 4525122,0.00000234,-0.01418606,-0.07842039,-0.00000283,-0.00036192,0.0
 0060029,-0.00000012,0.77113377,0.00079598,-0.00070215,0.00000001,-0.00
 165948,0.00004629,0.00000003,-0.00064720,-0.00034551,0.,0.00075583,-0.
 00001789,-0.00000002,0.00003091,0.00100709,0.,-0.00102577,-0.00023084,
 0.,0.00001697,0.00003454,0.,-0.00003324,-0.00001292,0.,-0.00005029,0.0
 0003135,0.,-0.00001063,0.00000333,0.,-0.00524391,-0.00374022,-0.000000
 09,0.00200734,0.00047320,0.00000009,-0.00550774,-0.02500472,-0.0000014
 2,0.01933344,-0.01283517,-0.00000009,0.08217472,-0.24028871,-0.0000069
 6,-0.03581286,0.02181287,0.00000007,0.00017244,0.00050299,0.00000002,0
 .07028126,0.68270437,0.00000004,-0.00000002,-0.00016644,-0.00000007,-0
 .00000003,-0.00017294,-0.00000005,0.00000009,-0.00085622,0.00000005,0.
 ,0.00007386,0.,0.00000005,0.00001090,-0.00000004,-0.00000002,0.0000445
 4,0.,0.,-0.00005144,0.,0.,-0.00003705,0.,0.,-0.00001649,0.,0.,0.000044
 18,-0.00000018,-0.00000024,0.00202425,0.00000013,0.00000006,-0.0007379
 8,0.00000032,-0.00000014,0.00859576,0.00000049,-0.00000023,-0.00188823
 ,0.00000347,-0.00000758,-0.07453805,-0.00000166,-0.00000005,0.00816540
 ,-0.00000001,0.00000004,-0.00050994,0.00001026,0.00002433,0.11976654,0
 .00103361,-0.00138579,0.,-0.00221605,0.00083730,0.,-0.00089030,-0.0007
 9052,-0.00000005,0.00122994,0.00000518,-0.00000002,-0.00002918,0.00168
 158,0.,-0.00177549,-0.00026297,0.00000001,0.00006134,0.00006151,0.,-0.
 00006236,-0.00004412,0.,-0.00011557,0.00005857,0.,-0.00007407,0.000021
 91,0.,-0.00943919,-0.00699634,-0.00000002,0.00206443,0.00177674,0.0000
 0009,-0.04162773,0.00010072,-0.00000020,0.06053099,-0.01418469,0.00000
 012,-0.05119383,0.04956232,0.00000025,-0.15797546,-0.03607083,-0.00000
 229,-0.00191375,0.00437660,-0.00000005,-0.41900529,-0.06528716,-0.0000
 0657,0.75821220,0.00068928,-0.00093255,0.,-0.00127352,0.00066644,0.,-0
 .00039042,-0.00109610,-0.00000002,0.00059348,0.00005828,-0.00000001,-0
 .00001756,0.00099129,0.,-0.00114502,-0.00013402,0.,0.00004789,0.000028
 97,0.,-0.00004736,-0.00002444,0.,-0.00007373,0.00003636,0.,-0.00004880
 ,0.00001316,0.,-0.00893614,-0.00642546,-0.00000012,0.00125882,0.001289
 75,0.00000008,-0.03745431,-0.00566188,-0.00000037,0.03780032,-0.060806
 78,-0.00000173,0.00802624,0.05099107,0.00000181,-0.10621542,-0.2768534
 9,-0.00000893,0.00309518,-0.00279867,-0.00000016,0.00060455,-0.1377115
 0,-0.00000367,-0.03349906,0.69121765,0.00000004,-0.00000005,-0.0000025
 5,-0.00000007,0.00000004,0.00007672,0.,-0.00000006,0.00034611,0.000000
 03,0.,-0.00000712,0.,0.00000005,-0.00002439,-0.00000006,0.,0.00000068,
 0.,0.,0.00000818,0.,0.,0.00001803,0.,0.,-0.00000077,0.,0.,-0.00000823,
 -0.00000040,-0.00000021,-0.00047270,0.00000006,0.00000004,-0.00003004,
 -0.00000179,-0.00000015,-0.00411748,0.00000188,-0.00000213,0.00664434,
 0.00000013,0.00000247,-0.00062278,-0.00000474,-0.00000833,-0.06264009,
 -0.00000004,-0.00000019,0.00809364,-0.00000389,-0.00000396,-0.05755224
 ,0.00000519,0.00001996,0.14370673,0.00002611,-0.00007500,0.,-0.0000570
 8,0.00012213,0.,0.00000401,-0.00012129,0.,0.00003371,0.00003248,0.,-0.
 00001094,0.00006181,0.,-0.00008031,0.00000635,0.,0.00000296,0.00000833
 ,0.,0.00000535,-0.00000486,0.,-0.00001053,0.00000568,0.,-0.00000897,0.
 00000464,0.,-0.00045842,0.00037248,0.00000001,0.00002096,0.00008999,0.
 ,0.00048589,0.00338671,-0.00000002,-0.01300759,-0.00574786,-0.00000034
 ,0.00057439,-0.00003426,0.,-0.34452149,-0.02914459,-0.00000488,0.00077
 963,0.00013629,0.00000008,0.00118363,-0.00235612,-0.00000014,-0.007846
 70,0.00307690,0.,0.36304271,-0.00000700,0.00003462,0.,0.00003769,-0.00
 006399,0.,0.00008992,0.00008364,0.,-0.00001482,-0.00004189,0.,0.000014
 80,-0.00002365,0.,0.00003452,-0.00000285,0.,-0.00000098,-0.00000361,0.
 ,0.00000100,0.00000215,0.,0.00000546,-0.00000477,0.,0.00000404,-0.0000
 0151,0.,0.00043248,-0.00019685,0.00000001,0.00000731,0.00003944,0.,0.0
 0189790,-0.00386934,-0.00000026,0.02687203,0.00589785,0.00000045,0.000
 35033,-0.00149156,-0.00000002,-0.03009778,-0.06000884,-0.00000130,-0.0
 0020937,0.00096739,0.00000017,-0.00104953,-0.00502591,-0.00000037,-0.0
 2931794,0.00172527,-0.00000031,0.03122601,0.06005974,0.,0.,-0.00000577
 ,0.,0.,-0.00004978,0.,0.,-0.00033103,0.,0.,-0.00001935,0.,0.,0.0000299
 4,0.,0.,-0.00000491,0.,0.,-0.00000131,0.,0.,-0.00001192,0.,0.,0.000006
 40,0.,0.,0.00000624,0.00000006,0.00000002,-0.00037683,0.,0.,0.00009456
 ,-0.00000008,-0.00000035,0.00765089,0.00000060,-0.00000004,0.00131951,
 0.00000006,-0.00000002,-0.00077654,-0.00000473,-0.00000126,-0.03096151
 ,0.00000005,0.00000016,-0.00518708,-0.00000016,-0.00000035,0.00507122,
 -0.00000098,0.00000014,0.00079621,0.00000527,0.00000152,0.02390042,-0.
 00006024,0.00001057,0.,0.00005803,0.00007522,0.,-0.00003575,0.00001799
 ,0.,-0.00001879,0.00000401,0.,-0.00000677,-0.00003971,0.,0.00004104,0.
 00001569,0.,0.00000187,-0.00000363,0.,-0.00000746,0.00000130,0.,0.0000
 0230,-0.00000093,0.,-0.00000236,-0.00000193,0.,0.00026812,-0.00025965,
 -0.00000001,-0.00027120,0.00002443,0.,-0.00163015,0.00205769,0.0000000
 1,-0.00115081,0.00059099,0.00000001,0.00918279,0.01865793,0.00000080,-
 0.00492887,0.00077507,-0.00000012,0.00009337,-0.00011406,0.,-0.1056797
 9,-0.11041429,-0.00000537,-0.00681909,-0.02885190,-0.00000130,-0.00051
 740,-0.00136994,-0.00000004,0.10867224,0.00002818,0.00010073,0.,-0.000
 06062,-0.00016273,0.,0.00007373,0.00015061,0.,-0.00003576,-0.00002088,
 0.,0.00001723,-0.00005187,0.,0.00006604,-0.00001938,0.,-0.00000748,0.0
 0000025,0.,0.00000608,0.00000335,0.,0.00000955,-0.00000440,0.,0.000012
 65,-0.00000178,0.,0.00013846,0.00063051,0.,0.00025316,-0.00031413,0.,0
 .00378515,-0.00281720,-0.00000033,0.00124351,0.00021437,0.00000008,-0.
 01584699,-0.01848638,-0.00000101,-0.00001422,0.00222649,-0.00000035,-0
 .00007447,-0.00005550,0.00000005,-0.10887247,-0.29628420,-0.00001266,0
 .00246130,0.00145442,0.00000002,0.00009841,-0.00003152,-0.00000003,0.1
 1857862,0.31077890,0.,0.,0.00004368,0.,-0.00000002,0.00000686,0.,0.,-0
 .00007956,0.,0.,0.00000130,0.,0.,0.00000239,0.,0.,-0.00000389,0.,0.,0.
 00000241,0.,0.,0.00000064,0.,0.,0.00000307,0.,0.,-0.00000707,0.0000000
 3,0.,0.00004526,0.00000001,0.,0.00003026,0.00000015,-0.00000032,0.0043
 9993,0.00000005,0.00000007,-0.00077782,-0.00000078,-0.00000097,0.00462
 823,-0.00000014,-0.00000022,0.00845587,0.,0.00000001,-0.00088855,-0.00
 000553,-0.00001234,-0.03435604,0.00000009,-0.00000036,0.00279458,0.,-0
 .00000003,0.00055695,0.00000588,0.00001365,0.02445903,0.00004114,-0.00
 006004,0.,-0.00006048,0.00012333,0.,0.00012246,-0.00011700,0.,0.000025
 55,0.00000948,0.,-0.00000275,0.00006136,0.,-0.00007702,0.00000049,0.,0
 .00000129,0.00000628,0.,0.00000776,-0.00000323,0.,-0.00000894,0.000004
 13,0.,-0.00000622,0.00000387,0.,-0.00024084,0.00032538,0.,0.00002474,0
 .00026024,0.,-0.00101119,0.00012529,0.,0.00027865,-0.00306698,-0.00000
 013,-0.00386873,-0.00309204,-0.00000037,0.01045115,-0.01125598,-0.0000
 0036,0.00038814,-0.00061760,0.,-0.01217004,0.02761334,0.00000100,-0.15
 732842,0.13363786,0.00000382,0.00065334,0.00047029,0.00000003,0.000988
 22,-0.00031768,0.00000008,0.16294069,0.00000489,0.00003173,0.,-0.00004
 599,-0.00002681,0.,-0.00002533,0.00006898,0.,-0.00000189,-0.00000787,0
 .,0.00000722,-0.00001589,0.,0.00002553,-0.00000956,0.,-0.00000297,-0.0
 0000347,0.,-0.00000195,0.00000288,0.,0.00000589,-0.00000194,0.,0.00000
 625,-0.00000306,0.,0.00017703,-0.00015873,0.00000001,-0.00005836,-0.00
 002942,-0.00000001,-0.00062550,0.00052599,0.00000005,-0.00389527,-0.00
 418982,-0.00000041,-0.00207362,0.00111655,-0.00000039,0.01986702,-0.01
 562483,-0.00000055,0.00090959,-0.00115129,0.00000002,-0.00466535,0.005
 65247,-0.00000003,0.13455837,-0.24365369,-0.00000639,-0.00016930,0.001
 01629,0.00000015,0.00013890,0.00078563,0.00000024,-0.14455077,0.255157
 66,0.,0.,0.00000061,-0.00000001,0.,-0.00002546,0.,-0.00000001,0.000154
 17,0.,0.,-0.00000504,0.,0.,-0.00000422,0.,0.,-0.00000614,0.,0.,0.00000
 673,0.,0.,0.00000508,0.,0.,0.00000129,0.,0.,0.00000145,-0.00000002,0.,
 -0.00029842,0.,0.,0.00021195,-0.00000019,0.,-0.00107200,-0.00000010,-0
 .00000044,0.00540839,-0.00000039,-0.00000014,0.01049555,0.00000086,-0.
 00000059,0.00452939,0.00000006,-0.00000006,-0.00025714,-0.00000005,0.0
 0000011,0.00636412,0.00000363,-0.00000658,-0.04207018,0.00000004,0.000
 00015,-0.00289020,0.00000007,0.00000029,-0.00546399,-0.00000414,0.0000
 0722,0.02697145,-0.00580893,-0.00355078,0.00000003,0.00183661,0.017701
 32,0.00000012,-0.07679037,0.04102237,0.00000032,0.01187794,-0.00234528
 ,-0.00000005,-0.00368869,0.00440425,0.00000001,-0.00024493,-0.00401983
 ,0.00000001,0.00030858,-0.00093693,-0.00000001,-0.00051387,-0.00017784
 ,0.,0.00042793,-0.00006622,-0.00000002,-0.00063342,-0.00019061,0.00000
 002,-0.39540467,-0.05370891,0.00000399,-0.05687933,-0.03299335,-0.0000
 0009,-0.14848965,0.06544908,-0.00000056,-0.04964695,0.03747289,0.00000
 072,0.05067679,0.01533426,0.00000140,0.00063675,-0.02623049,-0.0000007
 6,0.00124568,0.00127755,-0.00000009,-0.01194221,0.00468215,0.00000030,
 0.01388383,0.01109775,0.00000053,-0.00017363,0.00090361,-0.00000004,0.
 00005897,-0.00141046,-0.00000011,0.00058895,-0.00007314,0.00000003,0.7
 1305589,0.00294171,-0.00369078,0.,0.02327695,-0.01997828,0.00000003,0.
 01051101,0.01466982,-0.00000034,0.00938452,-0.00827072,-0.00000004,-0.
 00177216,0.00700036,0.00000003,-0.00470434,-0.00460254,0.00000003,0.00
 034166,-0.00058276,0.00000001,-0.00054659,-0.00006381,0.,0.00014433,-0
 .00030177,0.,-0.00048284,0.00004288,0.,-0.07468168,-0.15480543,0.00000
 070,0.00791634,-0.13913749,0.00000035,0.06166362,-0.19454982,-0.000000
 36,0.02851373,-0.00020778,-0.00000014,-0.00277489,-0.04054699,-0.00000
 112,-0.00827497,0.02195184,0.00000043,-0.00196305,-0.00029235,0.000000
 13,0.00600465,-0.01145080,-0.00000056,-0.01414336,-0.01047925,-0.00000
 050,-0.00096997,0.00073393,0.00000004,0.00129692,-0.00056625,0.,-0.000
 52545,0.00022804,-0.00000003,-0.03526677,0.53038015,0.00000008,0.00000
 004,-0.00059506,-0.00000019,0.00000004,0.00261774,0.00000059,-0.000000
 46,0.00340030,-0.00000011,0.00000009,0.00223378,0.00000003,-0.00000006
 ,0.00091676,0.00000002,0.00000004,0.00087212,0.,0.00000002,-0.00036441
 ,0.,0.,-0.00038970,-0.00000001,0.,-0.00040203,0.,0.,0.00001235,0.00000
 328,0.00000133,-0.06348505,0.00000008,0.00000022,-0.03611513,-0.000000
 39,-0.00000048,-0.05495320,0.00000013,0.00000050,-0.00615306,0.0000001
 0,-0.00000066,0.00278799,-0.00000020,-0.00000007,0.00584024,0.00000006
 ,0.00000008,-0.00268986,0.00000003,-0.00000024,0.00382019,-0.00000005,
 -0.00000011,-0.00082198,-0.00000002,-0.00000003,0.00154097,0.,-0.00000
 001,-0.00028129,0.,0.00000003,-0.00071353,-0.00000431,-0.00000050,0.14
 046414,-0.00130685,0.00318913,0.,0.00303327,0.00086298,-0.00000009,0.0
 1062329,0.00015355,-0.00000016,-0.00316951,0.00007816,0.00000007,0.000
 17020,-0.00335676,0.,0.00322363,0.00078281,-0.00000003,-0.00024844,0.0
 0015470,0.,0.00049366,0.00004325,-0.00000003,0.00007358,-0.00004123,0.
 ,0.00010840,0.00007109,0.,0.03059838,0.06234276,0.00000078,-0.00140190
 ,-0.00193575,-0.00000012,-0.01414067,-0.06135567,-0.00000296,-0.015092
 71,0.00590075,-0.00000004,-0.46331937,-0.05489200,-0.00001496,-0.00456
 217,-0.02343298,-0.00000085,-0.00128794,-0.00043122,-0.00000005,-0.085
 28175,0.02318423,-0.00000182,0.02370441,0.01934104,0.00000072,-0.00018
 812,-0.00029790,-0.00000004,0.00181743,-0.00027762,0.00000024,-0.00174
 832,0.00057766,0.00000023,-0.04539645,0.02776977,0.00000038,0.57406329
 ,-0.00040180,-0.00133350,0.00000006,-0.00002619,-0.00397396,0.00000011
 ,-0.01419712,-0.00478939,-0.00000024,0.00054127,-0.00061290,-0.0000000
 3,0.00051543,0.00103477,0.,-0.00063734,-0.00032209,0.,0.00026913,-0.00
 036683,-0.00000001,0.00007372,0.00013641,-0.00000002,0.00016973,-0.000
 13020,0.,0.00009510,-0.00008984,0.,0.01361541,-0.09360471,-0.00000249,
 -0.00020797,-0.00417777,0.00000010,-0.04896051,0.00315413,-0.00000212,
 0.01222722,-0.01014623,-0.00000043,-0.07554568,-0.11515037,-0.00000507
 ,-0.00170276,0.01237618,0.00000038,-0.00175274,-0.00022767,0.00000004,
 0.05202622,0.01220331,0.00000150,-0.00732644,-0.01383362,-0.00000072,0
 .00001732,0.00061187,0.00000006,-0.00178549,0.00331213,0.00000025,0.00
 163954,0.00006305,-0.00000007,0.01702060,0.00070413,-0.00000023,0.0741
 1857,0.19332281,-0.00000009,-0.00000003,-0.00028029,0.00000014,-0.0000
 0030,-0.00030453,-0.00000092,-0.00000048,0.00209616,-0.00000006,-0.000
 00003,0.00010515,0.00000005,-0.00000004,-0.00007848,0.00000005,0.,0.00
 004089,0.00000002,-0.00000003,0.00002567,0.00000002,0.00000001,0.00001
 465,0.00000002,-0.00000001,-0.00001109,0.00000001,0.,0.00000676,0.0000
 0165,-0.00000578,0.00822024,-0.00000016,-0.00000054,-0.00046349,-0.000
 00167,-0.00000119,0.01622885,-0.00000019,0.00000004,0.00552210,-0.0000
 1792,-0.00000576,-0.06852531,-0.00000026,-0.00000031,-0.00069967,-0.00
 000003,0.,0.00015050,0.00000024,0.00000075,0.01518020,0.00000054,-0.00
 000040,0.00515095,0.,0.00000004,-0.00053504,0.00000001,0.00000035,-0.0
 0346916,0.00000011,0.00000006,-0.00109554,0.00000037,0.00000077,-0.001
 48457,0.00002002,0.00000916,0.04436703,0.00114979,0.00006310,0.,-0.004
 20586,0.00267909,0.00000002,0.00823126,0.01591888,-0.00000027,0.001736
 77,0.00012960,-0.00000003,-0.00011882,0.00042782,0.,-0.00053928,-0.000
 19933,0.,-0.00014096,0.00020852,0.,-0.00099194,-0.00029051,0.,0.000011
 34,-0.00001424,0.,-0.00003286,-0.00007098,0.,-0.07891188,-0.05112354,0
 .00000023,-0.00324763,-0.00310845,0.00000015,-0.00263608,0.00527273,0.
 ,0.00193184,-0.00012770,-0.00000004,-0.02763984,0.01385828,0.00000099,
 0.00028611,0.00251616,0.00000009,0.00034887,0.00011392,0.00000001,0.00
 270745,-0.00299991,-0.00000013,-0.00240829,-0.00131609,-0.00000010,0.0
 0006850,0.00001787,0.,-0.00005570,0.00014568,0.00000002,0.00001087,-0.
 00008891,0.,0.00101517,-0.03365915,0.00000052,-0.01076534,-0.01978522,
 -0.00000194,0.11419654,-0.00057102,0.00272064,-0.00000003,0.00364253,0
 .00610934,-0.00000007,0.02077832,-0.00437806,-0.00000012,-0.00321477,0
 .00238855,0.00000006,-0.00062852,-0.00328544,0.,0.00207994,0.00132513,
 -0.00000002,-0.00035877,0.00048251,0.,0.00033290,-0.00009631,0.,-0.000
 28329,0.00022993,0.,-0.00008082,0.00015856,0.,-0.02560094,-0.15439345,
 0.00000275,0.00060220,0.00781220,-0.00000019,0.01142135,-0.02860167,-0
 .00000034,-0.01445483,0.00176245,0.00000022,0.07585147,0.01964244,0.00
 000320,0.00069426,-0.01639506,-0.00000054,-0.00100711,-0.00006705,-0.0
 0000006,-0.02639761,0.00917873,-0.00000050,0.01380709,0.01193879,0.000
 00043,-0.00002229,-0.00040591,-0.00000004,0.00059618,-0.00084116,0.000
 00002,-0.00067412,0.00022709,0.00000013,-0.05539522,0.01381565,0.00000
 045,-0.07254931,0.02184030,0.00000374,0.07143238,0.10883180,0.00000002
 ,0.00000008,0.00077400,0.00000007,0.00000026,0.00175700,0.00000096,-0.
 00000019,-0.00352493,-0.00000014,0.00000001,-0.00075167,0.,-0.00000009
 ,-0.00016778,0.00000005,0.00000005,-0.00010168,-0.00000002,0.00000002,
 0.00001936,-0.00000002,0.,0.00019588,0.,0.,0.00005229,0.,0.,0.00000595
 ,0.00000099,0.00000789,-0.02770960,0.,0.00000003,0.00385861,0.00000027
 ,-0.00000108,-0.00342414,-0.00000050,-0.00000004,-0.00098236,0.0000018
 0,0.00000139,0.00188448,0.00000012,-0.00000048,-0.00005104,-0.00000007
 ,0.,-0.00002065,-0.00000118,0.00000003,0.00172188,0.00000028,0.0000004
 5,0.00073438,-0.00000001,-0.00000002,0.00017794,0.00000005,-0.00000004
 ,-0.00010310,-0.00000006,0.00000001,-0.00024835,-0.00000182,0.00000107
 ,0.00394229,-0.00000128,-0.00000025,-0.02016197,0.00000048,-0.00000911
 ,0.04212320\\0.00175134,0.00118918,-0.00000001,0.00181208,0.00188384,0
 .00000017,0.00255573,-0.00042914,0.00000051,-0.00121311,0.00181711,0.,
 0.00028794,0.00100038,0.,0.00192197,0.00182466,-0.00000010,0.00013954,
 0.00009393,-0.00000005,-0.00007259,0.00013722,0.,0.00002990,0.00024204
 ,0.,0.00019789,0.00017474,-0.00000004,-0.00632699,0.00228803,0.0000016
 3,0.00023950,-0.00145378,-0.00000034,-0.00352170,0.00143183,0.00000161
 ,0.00176203,0.00084023,0.00000031,0.00533308,0.00023369,-0.00000804,-0
 .00087888,0.00450542,-0.00000011,-0.00005192,0.00012192,0.,0.00008453,
 0.00038221,0.00000187,-0.00059429,0.00134490,0.00000020,-0.00006050,0.
 00032512,0.00000004,0.00014599,-0.00001118,0.00000013,-0.00001069,0.00
 014291,-0.00000007,-0.00414292,-0.00314190,0.00000101,-0.00220842,-0.0
 0509812,0.00000542,0.00282049,-0.00984527,-0.00000411\\\@
 The archive entry for this job was punched.


 WERE I TO AWAIT PERFECTION, MY BOOK WOULD NEVER BE FINISHED.
                                    -- HISTORY OF CHINESE WRITING

                                       TAI T'UNG, 13TH CENTURY
 Job cpu time:       0 days  1 hours  0 minutes 21.5 seconds.
 Elapsed time:       0 days  0 hours  6 minutes  4.5 seconds.
 File lengths (MBytes):  RWF=    544 Int=      0 D2E=      0 Chk=     36 Scr=      8
 Normal termination of Gaussian 16 at Tue Oct 27 20:40:08 2020.
