 Entering Gaussian System, Link 0=g16
 Initial command:
 /gpfs/loomis/apps/avx/software/Gaussian/16-C.01_AVX/g16/l1.exe "/home/fas/batista/pev4/scratch60/gauss-scratch/Gau-13005.inp" -scrdir="/home/fas/batista/pev4/scratch60/gauss-scratch/"
 Entering Link 1 = /gpfs/loomis/apps/avx/software/Gaussian/16-C.01_AVX/g16/l1.exe PID=     13006.
  
 Copyright (c) 1988-2019, Gaussian, Inc.  All Rights Reserved.
  
 This is part of the Gaussian(R) 16 program.  It is based on
 the Gaussian(R) 09 system (copyright 2009, Gaussian, Inc.),
 the Gaussian(R) 03 system (copyright 2003, Gaussian, Inc.),
 the Gaussian(R) 98 system (copyright 1998, Gaussian, Inc.),
 the Gaussian(R) 94 system (copyright 1995, Gaussian, Inc.),
 the Gaussian 92(TM) system (copyright 1992, Gaussian, Inc.),
 the Gaussian 90(TM) system (copyright 1990, Gaussian, Inc.),
 the Gaussian 88(TM) system (copyright 1988, Gaussian, Inc.),
 the Gaussian 86(TM) system (copyright 1986, Carnegie Mellon
 University), and the Gaussian 82(TM) system (copyright 1983,
 Carnegie Mellon University). Gaussian is a federally registered
 trademark of Gaussian, Inc.
  
 This software contains proprietary and confidential information,
 including trade secrets, belonging to Gaussian, Inc.
  
 This software is provided under written license and may be
 used, copied, transmitted, or stored only in accord with that
 written license.
  
 The following legend is applicable only to US Government
 contracts under FAR:
  
                    RESTRICTED RIGHTS LEGEND
  
 Use, reproduction and disclosure by the US Government is
 subject to restrictions as set forth in subparagraphs (a)
 and (c) of the Commercial Computer Software - Restricted
 Rights clause in FAR 52.227-19.
  
 Gaussian, Inc.
 340 Quinnipiac St., Bldg. 40, Wallingford CT 06492
  
  
 ---------------------------------------------------------------
 Warning -- This program may not be used in any manner that
 competes with the business of Gaussian, Inc. or will provide
 assistance to any competitor of Gaussian, Inc.  The licensee
 of this program is prohibited from giving any competitor of
 Gaussian, Inc. access to this program.  By using this program,
 the user acknowledges that Gaussian, Inc. is engaged in the
 business of creating and licensing software in the field of
 computational chemistry and represents and warrants to the
 licensee that it is not a competitor of Gaussian, Inc. and that
 it will not use this program in any manner prohibited above.
 ---------------------------------------------------------------
  

 Cite this work as:
 Gaussian 16, Revision C.01,
 M. J. Frisch, G. W. Trucks, H. B. Schlegel, G. E. Scuseria, 
 M. A. Robb, J. R. Cheeseman, G. Scalmani, V. Barone, 
 G. A. Petersson, H. Nakatsuji, X. Li, M. Caricato, A. V. Marenich, 
 J. Bloino, B. G. Janesko, R. Gomperts, B. Mennucci, H. P. Hratchian, 
 J. V. Ortiz, A. F. Izmaylov, J. L. Sonnenberg, D. Williams-Young, 
 F. Ding, F. Lipparini, F. Egidi, J. Goings, B. Peng, A. Petrone, 
 T. Henderson, D. Ranasinghe, V. G. Zakrzewski, J. Gao, N. Rega, 
 G. Zheng, W. Liang, M. Hada, M. Ehara, K. Toyota, R. Fukuda, 
 J. Hasegawa, M. Ishida, T. Nakajima, Y. Honda, O. Kitao, H. Nakai, 
 T. Vreven, K. Throssell, J. A. Montgomery, Jr., J. E. Peralta, 
 F. Ogliaro, M. J. Bearpark, J. J. Heyd, E. N. Brothers, K. N. Kudin, 
 V. N. Staroverov, T. A. Keith, R. Kobayashi, J. Normand, 
 K. Raghavachari, A. P. Rendell, J. C. Burant, S. S. Iyengar, 
 J. Tomasi, M. Cossi, J. M. Millam, M. Klene, C. Adamo, R. Cammi, 
 J. W. Ochterski, R. L. Martin, K. Morokuma, O. Farkas, 
 J. B. Foresman, and D. J. Fox, Gaussian, Inc., Wallingford CT, 2019.
 
 ******************************************
 Gaussian 16:  ES64L-G16RevC.01  3-Jul-2019
                28-Oct-2020 
 ******************************************
 %chk=config_3_17.chk
 %mem=58GB
 %nprocshared=10
 Will use up to   10 processors via shared memory.
 ----------------------------------------------------------------------
 #p opt=addgic freq wb97xd/cc-pvdz nosymm int=ultrafine scrf=(solvent=C
 arbonTetraChloride)
 ----------------------------------------------------------------------
 1/18=20,19=15,26=6,38=1,145=903/1,3;
 2/9=110,12=2,15=1,17=6,18=5,40=1/2;
 3/5=16,11=2,25=1,30=1,70=2201,71=1,72=11,74=-58,75=-5/1,2,3;
 4//1;
 5/5=2,38=5,53=11/2;
 6/7=2,8=2,9=2,10=2,28=1/1;
 7/30=1/1,2,3,16;
 1/18=20,19=15,26=6,145=903/3(2);
 2/9=110,15=1/2;
 99//99;
 2/9=110,15=1/2;
 3/5=16,11=2,25=1,30=1,70=2205,71=1,72=11,74=-58,75=-5/1,2,3;
 4/5=5,16=3,69=1/1;
 5/5=2,38=5,53=11/2;
 7/30=1/1,2,3,16;
 1/18=20,19=15,26=6,145=903/3(-5);
 2/9=110,15=1/2;
 6/7=2,8=2,9=2,10=2,19=2,28=1/1;
 99/9=1/99;
 Leave Link    1 at Wed Oct 28 01:15:09 2020, MaxMem=  7784628224 cpu:               3.7 elap:               0.6
 (Enter /gpfs/loomis/apps/avx/software/Gaussian/16-C.01_AVX/g16/l101.exe)
 ------------------------------------------------
 NM 2D-scan of HBT TD-WB97XD pVDZ in CTC Relaxed.
 ------------------------------------------------
 Symbolic Z-matrix:
 Charge =  0 Multiplicity = 1
 C                     1.53196  -3.25534  -0.00002 
 C                     0.9939   -1.96926  -0.00002 
 C                     1.78591  -0.77341  -0.00003 
 C                     3.20597  -0.94592  -0.00003 
 C                     3.73568  -2.23603  -0.00002 
 C                     2.92019  -3.3909   -0.00002 
 H                     0.87234  -4.1316   -0.00001 
 H                     3.8629   -0.06727  -0.00004 
 H                     4.82487  -2.35976  -0.00002 
 H                     3.37567  -4.38641  -0.00001 
 N                     1.05975   0.37105  -0.00003 
 S                    -0.69981  -1.58863  -0.00003 
 C                    -1.30317   1.06616   0.00001 
 C                    -2.68365   0.72348   0.00002 
 C                    -0.92659   2.48013   0.00004 
 C                    -3.65136   1.72075   0.00003 
 H                    -2.97746  -0.3325    0.00002 
 C                    -1.9316    3.4707    0.00004 
 C                    -3.2831    3.09249   0.00003 
 H                    -4.7111    1.44742   0.00004 
 H                    -1.63388   4.52581   0.00006 
 H                    -4.06269   3.86039   0.00004 
 C                    -0.27935   0.10923  -0.00002 
 O                     0.35819   2.74809   0.00006 
 H                     0.87373   1.97522   0.00003 
 
 Initializing the GIC definitions file.
 Number of initial coordinates =   131
 Number of input entries/lines =    52
 Number of additional coordinates =     2
 Number of removed coordinates =     0
 Number of frozen coordinates =     2
 Number of final active and frozen coordinates =   133
 ITRead=  0  0  0  0  0  0  0  0  0  0  0  0  0  0  0  0  0  0  0  0
 ITRead=  0  0  0  0  0
 MicOpt= -1 -1 -1 -1 -1 -1 -1 -1 -1 -1 -1 -1 -1 -1 -1 -1 -1 -1 -1 -1
 MicOpt= -1 -1 -1 -1 -1
 NAtoms=     25 NQM=       25 NQMF=       0 NMMI=      0 NMMIF=      0
                NMic=       0 NMicF=      0.
                    Isotopes and Nuclear Properties:
 (Nuclear quadrupole moments (NQMom) in fm**2, nuclear magnetic moments (NMagM)
  in nuclear magnetons)

  Atom         1           2           3           4           5           6           7           8           9          10
 IAtWgt=          12          12          12          12          12          12           1           1           1           1
 AtmWgt=  12.0000000  12.0000000  12.0000000  12.0000000  12.0000000  12.0000000   1.0078250   1.0078250   1.0078250   1.0078250
 NucSpn=           0           0           0           0           0           0           1           1           1           1
 AtZEff=  -0.0000000  -0.0000000  -0.0000000  -0.0000000  -0.0000000  -0.0000000  -0.0000000  -0.0000000  -0.0000000  -0.0000000
 NQMom=    0.0000000   0.0000000   0.0000000   0.0000000   0.0000000   0.0000000   0.0000000   0.0000000   0.0000000   0.0000000
 NMagM=    0.0000000   0.0000000   0.0000000   0.0000000   0.0000000   0.0000000   2.7928460   2.7928460   2.7928460   2.7928460
 AtZNuc=   6.0000000   6.0000000   6.0000000   6.0000000   6.0000000   6.0000000   1.0000000   1.0000000   1.0000000   1.0000000

  Atom        11          12          13          14          15          16          17          18          19          20
 IAtWgt=          14          32          12          12          12          12           1          12          12           1
 AtmWgt=  14.0030740  31.9720718  12.0000000  12.0000000  12.0000000  12.0000000   1.0078250  12.0000000  12.0000000   1.0078250
 NucSpn=           2           0           0           0           0           0           1           0           0           1
 AtZEff=  -0.0000000  -0.0000000  -0.0000000  -0.0000000  -0.0000000  -0.0000000  -0.0000000  -0.0000000  -0.0000000  -0.0000000
 NQMom=    2.0440000   0.0000000   0.0000000   0.0000000   0.0000000   0.0000000   0.0000000   0.0000000   0.0000000   0.0000000
 NMagM=    0.4037610   0.0000000   0.0000000   0.0000000   0.0000000   0.0000000   2.7928460   0.0000000   0.0000000   2.7928460
 AtZNuc=   7.0000000  16.0000000   6.0000000   6.0000000   6.0000000   6.0000000   1.0000000   6.0000000   6.0000000   1.0000000

  Atom        21          22          23          24          25
 IAtWgt=           1           1          12          16           1
 AtmWgt=   1.0078250   1.0078250  12.0000000  15.9949146   1.0078250
 NucSpn=           1           1           0           0           1
 AtZEff=  -0.0000000  -0.0000000  -0.0000000  -0.0000000  -0.0000000
 NQMom=    0.0000000   0.0000000   0.0000000   0.0000000   0.0000000
 NMagM=    2.7928460   2.7928460   0.0000000   0.0000000   2.7928460
 AtZNuc=   1.0000000   1.0000000   6.0000000   8.0000000   1.0000000
 Leave Link  101 at Wed Oct 28 01:15:13 2020, MaxMem=  7784628224 cpu:              27.6 elap:               3.7
 (Enter /gpfs/loomis/apps/avx/software/Gaussian/16-C.01_AVX/g16/l103.exe)

 GradGradGradGradGradGradGradGradGradGradGradGradGradGradGradGradGradGrad
 Berny optimization.
 Initialization pass.
                           ----------------------------
                           !    Initial Parameters    !
                           ! (Angstroms and Degrees)  !
 --------------------------                            --------------------------
 ! Name  Definition              Value          Derivative Info.                !
 --------------------------------------------------------------------------------
 ! R1    R(1,2)                  1.3941         estimate D2E/DX2                !
 ! R2    R(1,6)                  1.3948         estimate D2E/DX2                !
 ! R3    R(1,7)                  1.0968         estimate D2E/DX2                !
 ! R4    R(2,3)                  1.4343         estimate D2E/DX2                !
 ! R5    R(2,12)                 1.736          estimate D2E/DX2                !
 ! R6    R(3,4)                  1.4305         estimate D2E/DX2                !
 ! R7    R(3,11)                 1.3554         estimate D2E/DX2                !
 ! R8    R(4,5)                  1.3946         estimate D2E/DX2                !
 ! R9    R(4,8)                  1.0971         estimate D2E/DX2                !
 ! R10   R(5,6)                  1.4138         estimate D2E/DX2                !
 ! R11   R(5,9)                  1.0962         estimate D2E/DX2                !
 ! R12   R(6,10)                 1.0948         estimate D2E/DX2                !
 ! R13   R(11,23)                1.3645         estimate D2E/DX2                !
 ! R14   R(12,23)                1.7491         estimate D2E/DX2                !
 ! R15   R(13,14)                1.4224         estimate D2E/DX2                !
 ! R16   R(13,15)                1.4633         estimate D2E/DX2                !
 ! R17   R(13,23)                1.4014         estimate D2E/DX2                !
 ! R18   R(14,16)                1.3896         estimate D2E/DX2                !
 ! R19   R(14,17)                1.0961         estimate D2E/DX2                !
 ! R20   R(15,18)                1.4111         estimate D2E/DX2                !
 ! R21   R(15,24)                1.3124         estimate D2E/DX2                !
 ! R22   R(16,19)                1.4203         estimate D2E/DX2                !
 ! R23   R(16,20)                1.0944         estimate D2E/DX2                !
 ! R24   R(18,19)                1.4034         estimate D2E/DX2                !
 ! R25   R(18,21)                1.0963         estimate D2E/DX2                !
 ! R26   R(19,22)                1.0943         estimate D2E/DX2                !
 ! R27   R(24,25)                0.929          estimate D2E/DX2                !
 ! A1    A(2,1,6)              118.2802         estimate D2E/DX2                !
 ! A2    A(2,1,7)              120.3253         estimate D2E/DX2                !
 ! A3    A(6,1,7)              121.3945         estimate D2E/DX2                !
 ! A4    A(1,2,3)              123.7806         estimate D2E/DX2                !
 ! A5    A(1,2,12)             125.369          estimate D2E/DX2                !
 ! A6    A(3,2,12)             110.8504         estimate D2E/DX2                !
 ! A7    A(2,3,4)              116.5896         estimate D2E/DX2                !
 ! A8    A(2,3,11)             114.0885         estimate D2E/DX2                !
 ! A9    A(4,3,11)             129.3219         estimate D2E/DX2                !
 ! A10   A(3,4,5)              119.2493         estimate D2E/DX2                !
 ! A11   A(3,4,8)              119.8569         estimate D2E/DX2                !
 ! A12   A(5,4,8)              120.8938         estimate D2E/DX2                !
 ! A13   A(4,5,6)              122.4498         estimate D2E/DX2                !
 ! A14   A(4,5,9)              118.8033         estimate D2E/DX2                !
 ! A15   A(6,5,9)              118.7468         estimate D2E/DX2                !
 ! A16   A(1,6,5)              119.6504         estimate D2E/DX2                !
 ! A17   A(1,6,10)             120.1632         estimate D2E/DX2                !
 ! A18   A(5,6,10)             120.1864         estimate D2E/DX2                !
 ! A19   A(3,11,23)            111.3324         estimate D2E/DX2                !
 ! A20   A(2,12,23)             88.757          estimate D2E/DX2                !
 ! A21   A(14,13,15)           118.8544         estimate D2E/DX2                !
 ! A22   A(14,13,23)           122.9933         estimate D2E/DX2                !
 ! A23   A(15,13,23)           118.1522         estimate D2E/DX2                !
 ! A24   A(13,14,16)           120.1971         estimate D2E/DX2                !
 ! A25   A(13,14,17)           119.4897         estimate D2E/DX2                !
 ! A26   A(16,14,17)           120.3132         estimate D2E/DX2                !
 ! A27   A(13,15,18)           119.6719         estimate D2E/DX2                !
 ! A28   A(13,15,24)           116.6946         estimate D2E/DX2                !
 ! A29   A(18,15,24)           123.6335         estimate D2E/DX2                !
 ! A30   A(14,16,19)           120.8344         estimate D2E/DX2                !
 ! A31   A(14,16,20)           119.675          estimate D2E/DX2                !
 ! A32   A(19,16,20)           119.4906         estimate D2E/DX2                !
 ! A33   A(15,18,19)           119.7805         estimate D2E/DX2                !
 ! A34   A(15,18,21)           118.8281         estimate D2E/DX2                !
 ! A35   A(19,18,21)           121.3914         estimate D2E/DX2                !
 ! A36   A(16,19,18)           120.6617         estimate D2E/DX2                !
 ! A37   A(16,19,22)           119.5395         estimate D2E/DX2                !
 ! A38   A(18,19,22)           119.7988         estimate D2E/DX2                !
 ! A39   A(11,23,12)           114.9718         estimate D2E/DX2                !
 ! A40   A(11,23,13)           125.8714         estimate D2E/DX2                !
 ! A41   A(12,23,13)           119.1568         estimate D2E/DX2                !
 ! A42   A(15,24,25)           111.9244         estimate D2E/DX2                !
 ! D1    D(6,1,2,3)              0.0            estimate D2E/DX2                !
 ! D2    D(6,1,2,12)           180.0            estimate D2E/DX2                !
 ! D3    D(7,1,2,3)            179.9999         estimate D2E/DX2                !
 ! D4    D(7,1,2,12)            -0.0001         estimate D2E/DX2                !
 ! D5    D(2,1,6,5)             -0.0001         estimate D2E/DX2                !
 ! D6    D(2,1,6,10)           179.9999         estimate D2E/DX2                !
 ! D7    D(7,1,6,5)            179.9999         estimate D2E/DX2                !
 ! D8    D(7,1,6,10)             0.0            estimate D2E/DX2                !
 ! D9    D(1,2,3,4)              0.0002         estimate D2E/DX2                !
 ! D10   D(1,2,3,11)          -179.9999         estimate D2E/DX2                !
 ! D11   D(12,2,3,4)          -179.9998         estimate D2E/DX2                !
 ! D12   D(12,2,3,11)            0.0001         estimate D2E/DX2                !
 ! D13   D(1,2,12,23)          179.9996         estimate D2E/DX2                !
 ! D14   D(3,2,12,23)           -0.0004         estimate D2E/DX2                !
 ! D15   D(2,3,4,5)             -0.0002         estimate D2E/DX2                !
 ! D16   D(2,3,4,8)            179.9999         estimate D2E/DX2                !
 ! D17   D(11,3,4,5)           180.0            estimate D2E/DX2                !
 ! D18   D(11,3,4,8)             0.0            estimate D2E/DX2                !
 ! D19   D(2,3,11,23)            0.0004         estimate D2E/DX2                !
 ! D20   D(4,3,11,23)         -179.9998         estimate D2E/DX2                !
 ! D21   D(3,4,5,6)              0.0            estimate D2E/DX2                !
 ! D22   D(3,4,5,9)           -179.9999         estimate D2E/DX2                !
 ! D23   D(8,4,5,6)            180.0            estimate D2E/DX2                !
 ! D24   D(8,4,5,9)              0.0            estimate D2E/DX2                !
 ! D25   D(4,5,6,1)              0.0001         estimate D2E/DX2                !
 ! D26   D(4,5,6,10)          -179.9999         estimate D2E/DX2                !
 ! D27   D(9,5,6,1)           -179.9999         estimate D2E/DX2                !
 ! D28   D(9,5,6,10)             0.0            estimate D2E/DX2                !
 ! D29   D(3,11,23,12)          -0.0007         estimate D2E/DX2                !
 ! D30   D(3,11,23,13)         179.9982         estimate D2E/DX2                !
 ! D31   D(2,12,23,11)           0.0006         estimate D2E/DX2                !
 ! D32   D(2,12,23,13)        -179.9984         estimate D2E/DX2                !
 ! D33   D(15,13,14,16)          0.0013         estimate D2E/DX2                !
 ! D34   D(15,13,14,17)       -179.9992         estimate D2E/DX2                !
 ! D35   D(23,13,14,16)       -179.9988         estimate D2E/DX2                !
 ! D36   D(23,13,14,17)          0.0007         estimate D2E/DX2                !
 ! D37   D(14,13,15,18)         -0.0015         estimate D2E/DX2                !
 ! D38   D(14,13,15,24)        179.9982         estimate D2E/DX2                !
 ! D39   D(23,13,15,18)        179.9985         estimate D2E/DX2                !
 ! D40   D(23,13,15,24)         -0.0017         estimate D2E/DX2                !
 ! D41   D(14,13,23,11)       -179.9998         estimate D2E/DX2                !
 ! D42   D(14,13,23,12)         -0.0009         estimate D2E/DX2                !
 ! D43   D(15,13,23,11)          0.0001         estimate D2E/DX2                !
 ! D44   D(15,13,23,12)        179.999          estimate D2E/DX2                !
 ! D45   D(13,14,16,19)         -0.0003         estimate D2E/DX2                !
 ! D46   D(13,14,16,20)        179.9996         estimate D2E/DX2                !
 ! D47   D(17,14,16,19)       -179.9998         estimate D2E/DX2                !
 ! D48   D(17,14,16,20)          0.0001         estimate D2E/DX2                !
 ! D49   D(13,15,18,19)          0.0008         estimate D2E/DX2                !
 ! D50   D(13,15,18,21)       -179.9999         estimate D2E/DX2                !
 ! D51   D(24,15,18,19)       -179.999          estimate D2E/DX2                !
 ! D52   D(24,15,18,21)          0.0004         estimate D2E/DX2                !
 ! D53   D(13,15,24,25)          0.0018         estimate D2E/DX2                !
 ! D54   D(18,15,24,25)       -179.9984         estimate D2E/DX2                !
 ! D55   D(14,16,19,18)         -0.0005         estimate D2E/DX2                !
 ! D56   D(14,16,19,22)        179.9998         estimate D2E/DX2                !
 ! D57   D(20,16,19,18)        179.9996         estimate D2E/DX2                !
 ! D58   D(20,16,19,22)         -0.0001         estimate D2E/DX2                !
 ! D59   D(15,18,19,16)          0.0002         estimate D2E/DX2                !
 ! D60   D(15,18,19,22)        179.9999         estimate D2E/DX2                !
 ! D61   D(21,18,19,16)       -179.9991         estimate D2E/DX2                !
 ! D62   D(21,18,19,22)          0.0006         estimate D2E/DX2                !
 ! Qtot  GIC-1                 -30.0            Frozen                          !
 ! Ptot  GIC-2                 180.0            Frozen                          !
 --------------------------------------------------------------------------------
 NOTE: GIC-type coordinates are in arbitrary units.
 Trust Radius=3.00D-01 FncErr=5.00D-06 GrdErr=5.00D-06 EigMax=2.50D+02 EigMin=1.00D-04
 Number of steps in this run=    143 maximum allowed number of steps=    150.
 GradGradGradGradGradGradGradGradGradGradGradGradGradGradGradGradGradGrad

 Leave Link  103 at Wed Oct 28 01:15:13 2020, MaxMem=  7784628224 cpu:               0.1 elap:               0.0
 (Enter /gpfs/loomis/apps/avx/software/Gaussian/16-C.01_AVX/g16/l202.exe)
                          Input orientation:                          
 ---------------------------------------------------------------------
 Center     Atomic      Atomic             Coordinates (Angstroms)
 Number     Number       Type             X           Y           Z
 ---------------------------------------------------------------------
      1          6           0        1.531964   -3.255340   -0.000017
      2          6           0        0.993905   -1.969263   -0.000023
      3          6           0        1.785914   -0.773406   -0.000028
      4          6           0        3.205975   -0.945924   -0.000030
      5          6           0        3.735683   -2.236034   -0.000024
      6          6           0        2.920186   -3.390896   -0.000016
      7          1           0        0.872338   -4.131597   -0.000012
      8          1           0        3.862901   -0.067268   -0.000036
      9          1           0        4.824870   -2.359760   -0.000025
     10          1           0        3.375674   -4.386407   -0.000010
     11          7           0        1.059753    0.371053   -0.000032
     12         16           0       -0.699811   -1.588626   -0.000026
     13          6           0       -1.303172    1.066158    0.000012
     14          6           0       -2.683647    0.723479    0.000025
     15          6           0       -0.926587    2.480127    0.000036
     16          6           0       -3.651358    1.720754    0.000033
     17          1           0       -2.977464   -0.332500    0.000021
     18          6           0       -1.931600    3.470700    0.000039
     19          6           0       -3.283095    3.092489    0.000035
     20          1           0       -4.711099    1.447417    0.000037
     21          1           0       -1.633884    4.525806    0.000055
     22          1           0       -4.062694    3.860394    0.000038
     23          6           0       -0.279353    0.109232   -0.000022
     24          8           0        0.358185    2.748086    0.000059
     25          1           0        0.873730    1.975218    0.000030
 ---------------------------------------------------------------------
                    Distance matrix (angstroms):
                    1          2          3          4          5
     1  C    0.000000
     2  C    1.394096   0.000000
     3  C    2.494892   1.434347   0.000000
     4  C    2.852317   2.437309   1.430502   0.000000
     5  C    2.428036   2.754726   2.437392   1.394624   0.000000
     6  C    1.394824   2.394076   2.852687   2.461618   1.413769
     7  H    1.096782   2.165748   3.480239   3.948970   3.433933
     8  H    3.949313   3.442198   2.193742   1.097082   2.172494
     9  H    3.412520   3.850816   3.428085   2.149361   1.096192
    10  H    2.163002   3.393436   3.947291   3.444665   2.180300
    11  N    3.657008   2.341242   1.355395   2.518074   3.735974
    12  S    2.785454   1.735960   2.615991   3.958311   4.482493
    13  C    5.168495   3.806618   3.595337   4.937700   6.024494
    14  C    5.796755   4.557987   4.713559   6.121646   7.068699
    15  C    6.240197   4.846169   4.235934   5.368043   6.631661
    16  C    7.185287   5.932512   5.982037   7.357594   8.380009
    17  H    5.373820   4.295436   4.783741   6.213792   6.977807
    18  C    7.565441   6.176712   5.642016   6.775045   8.042693
    19  C    7.967417   6.626768   6.374951   7.643089   8.812287
    20  H    7.816122   6.649870   6.866093   8.270921   9.214984
    21  H    8.400526   7.006511   6.306875   7.305071   8.634508
    22  H    9.051733   7.717130   7.461791   8.714026   9.898541
    23  C    3.821154   2.437484   2.245969   3.641547   4.649815
    24  O    6.117098   4.759992   3.799910   4.664292   6.020710
    25  H    5.271813   3.946311   2.896035   3.737973   5.091701
                    6          7          8          9         10
     6  C    0.000000
     7  H    2.177686   0.000000
     8  H    3.454738   5.046011   0.000000
     9  H    2.165886   4.331502   2.486143   0.000000
    10  H    1.094765   2.516270   4.346533   2.491478   0.000000
    11  N    4.196840   4.506548   2.837211   4.651177   5.291210
    12  S    4.043829   2.989708   4.809664   5.578238   4.943395
    13  C    6.140202   5.634669   5.288948   7.020670   7.184849
    14  C    6.952051   6.018038   6.594131   8.116907   7.926304
    15  C    7.019015   6.852081   5.424796   7.516898   8.103007
    16  C    8.325513   7.396881   7.724061   9.407287   9.310027
    17  H    6.643498   5.408708   6.845506   8.061402   7.536347
    18  C    8.403649   8.102900   6.789216   8.924357   9.481628
    19  C    8.973014   8.333969   7.813407   9.770676  10.013645
    20  H    9.035805   7.893045   8.706764  10.267877   9.971429
    21  H    9.133111   9.012867   7.163168   9.440684  10.223659
    22  H   10.066867   9.392894   8.845427  10.848000  11.105811
    23  C    4.742145   4.394431   4.146012   5.670010   5.793961
    24  O    6.652139   6.898869   4.495470   6.785379   7.746368
    25  H    5.743097   6.106815   3.620344   5.865453   6.835934
                   11         12         13         14         15
    11  N    0.000000
    12  S    2.633705   0.000000
    13  C    2.463044   2.722484   0.000000
    14  C    3.759952   3.046544   1.422371   0.000000
    15  C    2.897195   4.075068   1.463258   2.484567   0.000000
    16  C    4.900639   4.434369   2.437719   1.389613   2.828609
    17  H    4.098061   2.601069   2.181627   1.096093   3.480944
    18  C    4.307668   5.207118   2.485306   2.848298   1.411129
    19  C    5.125089   5.346606   2.833039   2.443675   2.434773
    20  H    5.870374   5.030704   3.429187   2.152824   3.922885
    21  H    4.951530   6.185367   3.475419   3.944578   2.164503
    22  H    6.197981   6.403187   3.927177   3.426662   3.426413
    23  C    1.364461   1.749144   1.401397   2.481517   2.457652
    24  O    2.478404   4.463903   2.364105   3.654009   1.312418
    25  H    1.614915   3.895769   2.359087   3.771177   1.869779
                   16         17         18         19         20
    16  C    0.000000
    17  H    2.161015   0.000000
    18  C    2.453545   3.944384   0.000000
    19  C    1.420307   3.438598   1.403419   0.000000
    20  H    1.094424   2.484671   3.437920   2.178407   0.000000
    21  H    3.455216   5.040669   1.096304   2.185017   4.352670
    22  H    2.178820   4.331060   2.166431   1.094282   2.498578
    23  C    3.737302   2.734033   3.745582   4.233472   4.629375
    24  O    4.139064   4.540548   2.401101   3.657532   5.233487
    25  H    4.532237   4.489684   3.179047   4.304357   5.609714
                   21         22         23         24         25
    21  H    0.000000
    22  H    2.518311   0.000000
    23  C    4.619619   5.327747   0.000000
    24  O    2.669949   4.558663   2.714776   0.000000
    25  H    3.576818   5.284143   2.193514   0.929038   0.000000
 Symmetry turned off by external request.
 Stoichiometry    C13H9NOS
 Framework group  C1[X(C13H9NOS)]
 Deg. of freedom    69
 Full point group                 C1      NOp   1
 Rotational constants (GHZ):           1.4014860           0.2864460           0.2378354
 Leave Link  202 at Wed Oct 28 01:15:13 2020, MaxMem=  7784628224 cpu:               0.3 elap:               0.1
 (Enter /gpfs/loomis/apps/avx/software/Gaussian/16-C.01_AVX/g16/l301.exe)
 Standard basis: CC-pVDZ (5D, 7F)
 Ernie: Thresh=  0.10000D-02 Tol=  0.10000D-05 Strict=F.
 Ernie:  40 primitive shells out of 425 were deleted.
   273 basis functions,   629 primitive gaussians,   289 cartesian basis functions
    59 alpha electrons       59 beta electrons
       nuclear repulsion energy      1100.1110077660 Hartrees.
 IExCor= 4639 DFT=T Ex+Corr=wB97XD ExCW=0 ScaHFX=  1.000000
 ScaDFX=  1.000000  1.000000  1.000000  1.000000 ScalE2=  1.000000  1.000000
 IRadAn=      5 IRanWt=     -1 IRanGd=            0 ICorTp=0 IEmpDi=121
 HFx  wShort=  0.000000 wLong=  0.200000 cFull=  0.222036 cShort=  0.000000 cLong=  0.777964
 DFx  wShort=  0.000000 wLong=  0.200000 cFull=  0.000000 cShort=  0.000000 cLong=  1.000000
 NAtoms=   25 NActive=   25 NUniq=   25 SFac= 1.00D+00 NAtFMM=   60 NAOKFM=F Big=F
 Integral buffers will be    131072 words long.
 Raffenetti 2 integral format.
 Two-electron integral symmetry is turned off.
 R6Disp:  Grimme-D2 Dispersion energy=       -0.0138058660 Hartrees.
 Nuclear repulsion after empirical dispersion term =     1100.0972019000 Hartrees.
 ------------------------------------------------------------------------------
 Polarizable Continuum Model (PCM)
 =================================
 Model                : PCM.
 Atomic radii         : UFF (Universal Force Field).
 Polarization charges : Total charges.
 Charge compensation  : None.
 Solution method      : On-the-fly selection.
 Cavity type          : Scaled VdW (van der Waals Surface) (Alpha=1.100).
 Cavity algorithm     : GePol (No added spheres)
                        Default sphere list used, NSphG=   25.
                        Lebedev-Laikov grids with approx.  5.0 points / Ang**2.
                        Smoothing algorithm: York/Karplus (Gamma=1.0000).
                        Polarization charges: spherical gaussians, with
                                              point-specific exponents (IZeta= 3).
                        Self-potential: point-specific (ISelfS= 7).
                        Self-field    : sphere-specific E.n sum rule (ISelfD= 2).
 1st derivatives      : Analytical E(r).r(x)/FMM algorithm (CHGder, D1EAlg=3).
                        Cavity 1st derivative terms included.
 Solvent              : CarbonTetraChloride, Eps=   2.228000 Eps(inf)=   2.131892
 ------------------------------------------------------------------------------
 GePol: Number of generator spheres                  =      25
 GePol: Total number of spheres                      =      25
 GePol: Number of exposed spheres                    =      25 (100.00%)
 GePol: Number of points                             =    2188
 GePol: Average weight of points                     =       0.12
 GePol: Minimum weight of points                     =   0.58D-07
 GePol: Maximum weight of points                     =    0.20577
 GePol: Number of points with low weight             =     144
 GePol: Fraction of low-weight points (<1% of avg)   =       6.58%
 GePol: Cavity surface area                          =    271.898 Ang**2
 GePol: Cavity volume                                =    292.492 Ang**3
 Leave Link  301 at Wed Oct 28 01:15:13 2020, MaxMem=  7784628224 cpu:               1.2 elap:               0.2
 (Enter /gpfs/loomis/apps/avx/software/Gaussian/16-C.01_AVX/g16/l302.exe)
 NPDir=0 NMtPBC=     1 NCelOv=     1 NCel=       1 NClECP=     1 NCelD=      1
         NCelK=      1 NCelE2=     1 NClLst=     1 CellRange=     0.0.
 One-electron integrals computed using PRISM.
 NBasis=   273 RedAO= T EigKep=  3.29D-04  NBF=   273
 NBsUse=   273 1.00D-06 EigRej= -1.00D+00 NBFU=   273
 Precomputing XC quadrature grid using
 IXCGrd= 4 IRadAn=           5 IRanWt=          -1 IRanGd=           0 AccXCQ= 0.00D+00.
 Generated NRdTot=       0 NPtTot=           0 NUsed=           0 NTot=          32
 NSgBfM=   288   288   288   288   288 MxSgAt=    25 MxSgA2=    25.
 Leave Link  302 at Wed Oct 28 01:15:15 2020, MaxMem=  7784628224 cpu:               8.6 elap:               1.1
 (Enter /gpfs/loomis/apps/avx/software/Gaussian/16-C.01_AVX/g16/l303.exe)
 DipDrv:  MaxL=1.
 Leave Link  303 at Wed Oct 28 01:15:15 2020, MaxMem=  7784628224 cpu:               0.5 elap:               0.1
 (Enter /gpfs/loomis/apps/avx/software/Gaussian/16-C.01_AVX/g16/l401.exe)
 ExpMin= 1.22D-01 ExpMax= 1.11D+05 ExpMxC= 1.07D+03 IAcc=3 IRadAn=         5 AccDes= 0.00D+00
 Harris functional with IExCor= 4639 and IRadAn=       5 diagonalized for initial guess.
 HarFok:  IExCor= 4639 AccDes= 0.00D+00 IRadAn=         5 IDoV= 1 UseB2=F ITyADJ=14
 ICtDFT=  3500011 ScaDFX=  1.000000  1.000000  1.000000  1.000000
 FoFCou: FMM=F IPFlag=           0 FMFlag=      100000 FMFlg1=           0
         NFxFlg=           0 DoJE=T BraDBF=F KetDBF=T FulRan=T
         wScrn=  0.000000 ICntrl=       500 IOpCl=  0 I1Cent=   200000004 NGrid=           0
         NMat0=    1 NMatS0=      1 NMatT0=    0 NMatD0=    1 NMtDS0=    0 NMtDT0=    0
 Symmetry not used in FoFCou.
 Harris En= -994.442291265815    
 JPrj=0 DoOrth=F DoCkMO=F.
 Leave Link  401 at Wed Oct 28 01:15:16 2020, MaxMem=  7784628224 cpu:              13.7 elap:               1.4
 (Enter /gpfs/loomis/apps/avx/software/Gaussian/16-C.01_AVX/g16/l502.exe)
 Two-electron integral symmetry not used.
 Closed shell SCF:
 Using DIIS extrapolation, IDIIS=  1040.
 NGot=  7784628224 LenX=  7784455381 LenY=  7784371419
 Requested convergence on RMS density matrix=1.00D-08 within 128 cycles.
 Requested convergence on MAX density matrix=1.00D-06.
 Requested convergence on             energy=1.00D-06.
 No special actions if energy rises.
 Fock matrices will be formed incrementally for  20 cycles.

 Cycle   1  Pass 1  IDiag  1:
 FoFJK:  IHMeth= 1 ICntrl=       0 DoSepK=T KAlg= 0 I1Cent=           0 FoldK=F
 IRaf=         1 NMat=       1 IRICut=       1 DoRegI=T DoRafI=F ISym2E= 0 IDoP0=0 IntGTp=1.
 FoFCou: FMM=F IPFlag=           0 FMFlag=      100000 FMFlg1=           0
         NFxFlg=           0 DoJE=T BraDBF=F KetDBF=F FulRan=T
         wScrn=  0.000000 ICntrl=       500 IOpCl=  0 I1Cent=           0 NGrid=           0
         NMat0=    1 NMatS0=      1 NMatT0=    0 NMatD0=    1 NMtDS0=    0 NMtDT0=    0
 Symmetry not used in FoFCou.
 Inv3:  Mode=1 IEnd=    14362032.
 Iteration    1 A*A^-1 deviation from unit magnitude is 3.44D-15 for   2151.
 Iteration    1 A*A^-1 deviation from orthogonality  is 1.41D-15 for   2186   2094.
 Iteration    1 A^-1*A deviation from unit magnitude is 3.66D-15 for   2151.
 Iteration    1 A^-1*A deviation from orthogonality  is 1.41D-15 for   1774    241.
 E= -1028.59153859979    
 DIIS: error= 2.89D-02 at cycle   1 NSaved=   1.
 NSaved= 1 IEnMin= 1 EnMin= -1028.59153859979     IErMin= 1 ErrMin= 2.89D-02
 ErrMax= 2.89D-02  0.00D+00 EMaxC= 1.00D-01 BMatC= 3.78D-01 BMatP= 3.78D-01
 IDIUse=3 WtCom= 7.11D-01 WtEn= 2.89D-01
 Coeff-Com:  0.100D+01
 Coeff-En:   0.100D+01
 Coeff:      0.100D+01
 Gap=     0.350 Goal=   None    Shift=    0.000
 GapD=    0.350 DampG=1.000 DampE=0.500 DampFc=0.5000 IDamp=-1.
 Damping current iteration by 5.00D-01
 RMSDP=3.42D-03 MaxDP=2.19D-01              OVMax= 1.66D-01

 Cycle   2  Pass 1  IDiag  1:
 RMSU=  1.70D-03    CP:  9.93D-01
 E= -1028.70203050003     Delta-E=       -0.110491900234 Rises=F Damp=T
 DIIS: error= 1.06D-02 at cycle   2 NSaved=   2.
 NSaved= 2 IEnMin= 2 EnMin= -1028.70203050003     IErMin= 2 ErrMin= 1.06D-02
 ErrMax= 1.06D-02  0.00D+00 EMaxC= 1.00D-01 BMatC= 5.72D-02 BMatP= 3.78D-01
 IDIUse=3 WtCom= 8.94D-01 WtEn= 1.06D-01
 Coeff-Com: -0.322D+00 0.132D+01
 Coeff-En:   0.000D+00 0.100D+01
 Coeff:     -0.288D+00 0.129D+01
 Gap=     0.306 Goal=   None    Shift=    0.000
 RMSDP=1.10D-03 MaxDP=2.18D-02 DE=-1.10D-01 OVMax= 1.08D-01

 Cycle   3  Pass 1  IDiag  1:
 RMSU=  1.04D-03    CP:  9.91D-01  1.21D+00
 E= -1028.79874034969     Delta-E=       -0.096709849664 Rises=F Damp=F
 DIIS: error= 5.39D-03 at cycle   3 NSaved=   3.
 NSaved= 3 IEnMin= 3 EnMin= -1028.79874034969     IErMin= 3 ErrMin= 5.39D-03
 ErrMax= 5.39D-03  0.00D+00 EMaxC= 1.00D-01 BMatC= 1.16D-02 BMatP= 5.72D-02
 IDIUse=3 WtCom= 9.46D-01 WtEn= 5.39D-02
 Coeff-Com: -0.205D+00 0.476D+00 0.729D+00
 Coeff-En:   0.000D+00 0.000D+00 0.100D+01
 Coeff:     -0.194D+00 0.451D+00 0.743D+00
 Gap=     0.265 Goal=   None    Shift=    0.000
 RMSDP=4.83D-04 MaxDP=1.56D-02 DE=-9.67D-02 OVMax= 3.72D-02

 Cycle   4  Pass 1  IDiag  1:
 RMSU=  3.60D-04    CP:  9.89D-01  1.38D+00  8.62D-01
 E= -1028.81004774129     Delta-E=       -0.011307391602 Rises=F Damp=F
 DIIS: error= 1.91D-03 at cycle   4 NSaved=   4.
 NSaved= 4 IEnMin= 4 EnMin= -1028.81004774129     IErMin= 4 ErrMin= 1.91D-03
 ErrMax= 1.91D-03  0.00D+00 EMaxC= 1.00D-01 BMatC= 1.30D-03 BMatP= 1.16D-02
 IDIUse=3 WtCom= 9.81D-01 WtEn= 1.91D-02
 Coeff-Com: -0.736D-01 0.146D+00 0.349D+00 0.579D+00
 Coeff-En:   0.000D+00 0.000D+00 0.000D+00 0.100D+01
 Coeff:     -0.722D-01 0.143D+00 0.343D+00 0.587D+00
 Gap=     0.263 Goal=   None    Shift=    0.000
 RMSDP=1.45D-04 MaxDP=7.51D-03 DE=-1.13D-02 OVMax= 1.02D-02

 Cycle   5  Pass 1  IDiag  1:
 RMSU=  9.60D-05    CP:  9.89D-01  1.39D+00  9.23D-01  7.61D-01
 E= -1028.81142910614     Delta-E=       -0.001381364848 Rises=F Damp=F
 DIIS: error= 4.07D-04 at cycle   5 NSaved=   5.
 NSaved= 5 IEnMin= 5 EnMin= -1028.81142910614     IErMin= 5 ErrMin= 4.07D-04
 ErrMax= 4.07D-04  0.00D+00 EMaxC= 1.00D-01 BMatC= 5.24D-05 BMatP= 1.30D-03
 IDIUse=3 WtCom= 9.96D-01 WtEn= 4.07D-03
 Coeff-Com: -0.203D-02-0.164D-02 0.409D-01 0.179D+00 0.783D+00
 Coeff-En:   0.000D+00 0.000D+00 0.000D+00 0.000D+00 0.100D+01
 Coeff:     -0.202D-02-0.163D-02 0.407D-01 0.179D+00 0.784D+00
 Gap=     0.264 Goal=   None    Shift=    0.000
 RMSDP=4.96D-05 MaxDP=1.49D-03 DE=-1.38D-03 OVMax= 4.65D-03

 Cycle   6  Pass 1  IDiag  1:
 RMSU=  3.27D-05    CP:  9.89D-01  1.39D+00  9.41D-01  8.46D-01  1.05D+00
 E= -1028.81152691746     Delta-E=       -0.000097811321 Rises=F Damp=F
 DIIS: error= 1.53D-04 at cycle   6 NSaved=   6.
 NSaved= 6 IEnMin= 6 EnMin= -1028.81152691746     IErMin= 6 ErrMin= 1.53D-04
 ErrMax= 1.53D-04  0.00D+00 EMaxC= 1.00D-01 BMatC= 8.07D-06 BMatP= 5.24D-05
 IDIUse=3 WtCom= 9.98D-01 WtEn= 1.53D-03
 Coeff-Com:  0.146D-01-0.302D-01-0.537D-01-0.484D-01 0.227D+00 0.890D+00
 Coeff-En:   0.000D+00 0.000D+00 0.000D+00 0.000D+00 0.000D+00 0.100D+01
 Coeff:      0.146D-01-0.302D-01-0.536D-01-0.483D-01 0.227D+00 0.890D+00
 Gap=     0.265 Goal=   None    Shift=    0.000
 RMSDP=2.73D-05 MaxDP=1.51D-03 DE=-9.78D-05 OVMax= 2.34D-03

 Cycle   7  Pass 1  IDiag  1:
 RMSU=  1.49D-05    CP:  9.89D-01  1.39D+00  9.53D-01  8.77D-01  1.21D+00
                    CP:  1.15D+00
 E= -1028.81155011355     Delta-E=       -0.000023196088 Rises=F Damp=F
 DIIS: error= 7.33D-05 at cycle   7 NSaved=   7.
 NSaved= 7 IEnMin= 7 EnMin= -1028.81155011355     IErMin= 7 ErrMin= 7.33D-05
 ErrMax= 7.33D-05  0.00D+00 EMaxC= 1.00D-01 BMatC= 1.85D-06 BMatP= 8.07D-06
 IDIUse=1 WtCom= 1.00D+00 WtEn= 0.00D+00
 Coeff-Com:  0.659D-02-0.127D-01-0.287D-01-0.454D-01-0.187D-01 0.381D+00
 Coeff-Com:  0.718D+00
 Coeff:      0.659D-02-0.127D-01-0.287D-01-0.454D-01-0.187D-01 0.381D+00
 Coeff:      0.718D+00
 Gap=     0.265 Goal=   None    Shift=    0.000
 RMSDP=9.57D-06 MaxDP=4.61D-04 DE=-2.32D-05 OVMax= 9.80D-04

 Cycle   8  Pass 1  IDiag  1:
 RMSU=  5.59D-06    CP:  9.89D-01  1.39D+00  9.55D-01  8.84D-01  1.24D+00
                    CP:  1.33D+00  1.11D+00
 E= -1028.81155368334     Delta-E=       -0.000003569790 Rises=F Damp=F
 DIIS: error= 2.69D-05 at cycle   8 NSaved=   8.
 NSaved= 8 IEnMin= 8 EnMin= -1028.81155368334     IErMin= 8 ErrMin= 2.69D-05
 ErrMax= 2.69D-05  0.00D+00 EMaxC= 1.00D-01 BMatC= 1.78D-07 BMatP= 1.85D-06
 IDIUse=1 WtCom= 1.00D+00 WtEn= 0.00D+00
 Coeff-Com: -0.132D-02 0.287D-02 0.392D-02 0.990D-03-0.404D-01-0.648D-01
 Coeff-Com:  0.181D+00 0.918D+00
 Coeff:     -0.132D-02 0.287D-02 0.392D-02 0.990D-03-0.404D-01-0.648D-01
 Coeff:      0.181D+00 0.918D+00
 Gap=     0.265 Goal=   None    Shift=    0.000
 RMSDP=4.12D-06 MaxDP=1.41D-04 DE=-3.57D-06 OVMax= 5.38D-04

 Cycle   9  Pass 1  IDiag  1:
 RMSU=  1.87D-06    CP:  9.89D-01  1.39D+00  9.54D-01  8.84D-01  1.25D+00
                    CP:  1.39D+00  1.30D+00  1.15D+00
 E= -1028.81155422770     Delta-E=       -0.000000544358 Rises=F Damp=F
 DIIS: error= 1.27D-05 at cycle   9 NSaved=   9.
 NSaved= 9 IEnMin= 9 EnMin= -1028.81155422770     IErMin= 9 ErrMin= 1.27D-05
 ErrMax= 1.27D-05  0.00D+00 EMaxC= 1.00D-01 BMatC= 2.46D-08 BMatP= 1.78D-07
 IDIUse=1 WtCom= 1.00D+00 WtEn= 0.00D+00
 Coeff-Com: -0.103D-02 0.204D-02 0.401D-02 0.546D-02-0.959D-02-0.635D-01
 Coeff-Com: -0.267D-01 0.240D+00 0.849D+00
 Coeff:     -0.103D-02 0.204D-02 0.401D-02 0.546D-02-0.959D-02-0.635D-01
 Coeff:     -0.267D-01 0.240D+00 0.849D+00
 Gap=     0.265 Goal=   None    Shift=    0.000
 RMSDP=1.63D-06 MaxDP=5.96D-05 DE=-5.44D-07 OVMax= 1.85D-04

 Cycle  10  Pass 1  IDiag  1:
 RMSU=  8.00D-07    CP:  9.89D-01  1.39D+00  9.54D-01  8.84D-01  1.26D+00
                    CP:  1.41D+00  1.36D+00  1.29D+00  1.19D+00
 E= -1028.81155431164     Delta-E=       -0.000000083940 Rises=F Damp=F
 DIIS: error= 6.76D-06 at cycle  10 NSaved=  10.
 NSaved=10 IEnMin=10 EnMin= -1028.81155431164     IErMin=10 ErrMin= 6.76D-06
 ErrMax= 6.76D-06  0.00D+00 EMaxC= 1.00D-01 BMatC= 5.59D-09 BMatP= 2.46D-08
 IDIUse=1 WtCom= 1.00D+00 WtEn= 0.00D+00
 Coeff-Com: -0.130D-03 0.225D-03 0.707D-03 0.192D-02 0.308D-02-0.152D-01
 Coeff-Com: -0.350D-01-0.607D-01 0.307D+00 0.798D+00
 Coeff:     -0.130D-03 0.225D-03 0.707D-03 0.192D-02 0.308D-02-0.152D-01
 Coeff:     -0.350D-01-0.607D-01 0.307D+00 0.798D+00
 Gap=     0.265 Goal=   None    Shift=    0.000
 RMSDP=7.41D-07 MaxDP=2.23D-05 DE=-8.39D-08 OVMax= 1.23D-04

 Cycle  11  Pass 1  IDiag  1:
 RMSU=  3.74D-07    CP:  9.89D-01  1.39D+00  9.54D-01  8.84D-01  1.26D+00
                    CP:  1.41D+00  1.38D+00  1.34D+00  1.41D+00  1.13D+00
 E= -1028.81155433089     Delta-E=       -0.000000019247 Rises=F Damp=F
 DIIS: error= 3.27D-06 at cycle  11 NSaved=  11.
 NSaved=11 IEnMin=11 EnMin= -1028.81155433089     IErMin=11 ErrMin= 3.27D-06
 ErrMax= 3.27D-06  0.00D+00 EMaxC= 1.00D-01 BMatC= 1.62D-09 BMatP= 5.59D-09
 IDIUse=1 WtCom= 1.00D+00 WtEn= 0.00D+00
 Coeff-Com:  0.151D-03-0.315D-03-0.511D-03-0.189D-03 0.329D-02 0.456D-02
 Coeff-Com: -0.608D-02-0.676D-01-0.511D-01 0.345D+00 0.772D+00
 Coeff:      0.151D-03-0.315D-03-0.511D-03-0.189D-03 0.329D-02 0.456D-02
 Coeff:     -0.608D-02-0.676D-01-0.511D-01 0.345D+00 0.772D+00
 Gap=     0.265 Goal=   None    Shift=    0.000
 RMSDP=3.51D-07 MaxDP=8.05D-06 DE=-1.92D-08 OVMax= 5.36D-05

 Cycle  12  Pass 1  IDiag  1:
 RMSU=  1.53D-07    CP:  9.89D-01  1.39D+00  9.54D-01  8.84D-01  1.26D+00
                    CP:  1.41D+00  1.39D+00  1.35D+00  1.52D+00  1.38D+00
                    CP:  1.08D+00
 E= -1028.81155433565     Delta-E=       -0.000000004765 Rises=F Damp=F
 DIIS: error= 1.11D-06 at cycle  12 NSaved=  12.
 NSaved=12 IEnMin=12 EnMin= -1028.81155433565     IErMin=12 ErrMin= 1.11D-06
 ErrMax= 1.11D-06  0.00D+00 EMaxC= 1.00D-01 BMatC= 2.74D-10 BMatP= 1.62D-09
 IDIUse=1 WtCom= 1.00D+00 WtEn= 0.00D+00
 Coeff-Com:  0.992D-04-0.194D-03-0.423D-03-0.616D-03 0.786D-03 0.574D-02
 Coeff-Com:  0.819D-02-0.124D-01-0.117D+00-0.719D-01 0.258D+00 0.929D+00
 Coeff:      0.992D-04-0.194D-03-0.423D-03-0.616D-03 0.786D-03 0.574D-02
 Coeff:      0.819D-02-0.124D-01-0.117D+00-0.719D-01 0.258D+00 0.929D+00
 Gap=     0.265 Goal=   None    Shift=    0.000
 RMSDP=2.22D-07 MaxDP=5.43D-06 DE=-4.76D-09 OVMax= 3.57D-05

 Cycle  13  Pass 1  IDiag  1:
 RMSU=  6.47D-08    CP:  9.89D-01  1.39D+00  9.54D-01  8.84D-01  1.26D+00
                    CP:  1.41D+00  1.39D+00  1.36D+00  1.58D+00  1.53D+00
                    CP:  1.36D+00  1.25D+00
 E= -1028.81155433692     Delta-E=       -0.000000001272 Rises=F Damp=F
 DIIS: error= 3.20D-07 at cycle  13 NSaved=  13.
 NSaved=13 IEnMin=13 EnMin= -1028.81155433692     IErMin=13 ErrMin= 3.20D-07
 ErrMax= 3.20D-07  0.00D+00 EMaxC= 1.00D-01 BMatC= 3.44D-11 BMatP= 2.74D-10
 IDIUse=1 WtCom= 1.00D+00 WtEn= 0.00D+00
 Coeff-Com: -0.333D-05 0.930D-05-0.118D-04-0.108D-03-0.220D-03 0.501D-03
 Coeff-Com:  0.347D-02 0.817D-02-0.194D-01-0.681D-01-0.811D-01 0.237D+00
 Coeff-Com:  0.920D+00
 Coeff:     -0.333D-05 0.930D-05-0.118D-04-0.108D-03-0.220D-03 0.501D-03
 Coeff:      0.347D-02 0.817D-02-0.194D-01-0.681D-01-0.811D-01 0.237D+00
 Coeff:      0.920D+00
 Gap=     0.265 Goal=   None    Shift=    0.000
 RMSDP=6.85D-08 MaxDP=1.51D-06 DE=-1.27D-09 OVMax= 9.95D-06

 Cycle  14  Pass 1  IDiag  1:
 RMSU=  2.40D-08    CP:  9.89D-01  1.39D+00  9.54D-01  8.84D-01  1.26D+00
                    CP:  1.41D+00  1.39D+00  1.36D+00  1.59D+00  1.57D+00
                    CP:  1.44D+00  1.46D+00  1.22D+00
 E= -1028.81155433705     Delta-E=       -0.000000000130 Rises=F Damp=F
 DIIS: error= 1.13D-07 at cycle  14 NSaved=  14.
 NSaved=14 IEnMin=14 EnMin= -1028.81155433705     IErMin=14 ErrMin= 1.13D-07
 ErrMax= 1.13D-07  0.00D+00 EMaxC= 1.00D-01 BMatC= 3.62D-12 BMatP= 3.44D-11
 IDIUse=1 WtCom= 1.00D+00 WtEn= 0.00D+00
 Coeff-Com: -0.105D-04 0.214D-04 0.381D-04 0.265D-04-0.126D-03-0.444D-03
 Coeff-Com:  0.255D-03 0.335D-02 0.531D-02-0.107D-01-0.488D-01-0.128D-01
 Coeff-Com:  0.276D+00 0.788D+00
 Coeff:     -0.105D-04 0.214D-04 0.381D-04 0.265D-04-0.126D-03-0.444D-03
 Coeff:      0.255D-03 0.335D-02 0.531D-02-0.107D-01-0.488D-01-0.128D-01
 Coeff:      0.276D+00 0.788D+00
 Gap=     0.265 Goal=   None    Shift=    0.000
 RMSDP=1.49D-08 MaxDP=3.54D-07 DE=-1.30D-10 OVMax= 2.00D-06

 Cycle  15  Pass 1  IDiag  1:
 RMSU=  8.63D-09    CP:  9.89D-01  1.39D+00  9.54D-01  8.84D-01  1.26D+00
                    CP:  1.41D+00  1.39D+00  1.36D+00  1.59D+00  1.58D+00
                    CP:  1.45D+00  1.51D+00  1.34D+00  1.10D+00
 E= -1028.81155433705     Delta-E=       -0.000000000001 Rises=F Damp=F
 DIIS: error= 4.29D-08 at cycle  15 NSaved=  15.
 NSaved=15 IEnMin=15 EnMin= -1028.81155433705     IErMin=15 ErrMin= 4.29D-08
 ErrMax= 4.29D-08  0.00D+00 EMaxC= 1.00D-01 BMatC= 6.34D-13 BMatP= 3.62D-12
 IDIUse=1 WtCom= 1.00D+00 WtEn= 0.00D+00
 Coeff-Com: -0.249D-05 0.455D-05 0.144D-04 0.272D-04-0.371D-05-0.259D-03
 Coeff-Com: -0.608D-03-0.404D-03 0.536D-02 0.946D-02-0.244D-02-0.507D-01
 Coeff-Com: -0.872D-01 0.236D+00 0.891D+00
 Coeff:     -0.249D-05 0.455D-05 0.144D-04 0.272D-04-0.371D-05-0.259D-03
 Coeff:     -0.608D-03-0.404D-03 0.536D-02 0.946D-02-0.244D-02-0.507D-01
 Coeff:     -0.872D-01 0.236D+00 0.891D+00
 Gap=     0.265 Goal=   None    Shift=    0.000
 RMSDP=8.14D-09 MaxDP=1.85D-07 DE=-1.14D-12 OVMax= 9.37D-07

 Error on total polarization charges =  0.00798
 SCF Done:  E(RwB97XD) =  -1028.81155434     A.U. after   15 cycles
            NFock= 15  Conv=0.81D-08     -V/T= 2.0049
 KE= 1.023747579678D+03 PE=-4.612359895522D+03 EE= 1.459703559607D+03
 Leave Link  502 at Wed Oct 28 01:16:39 2020, MaxMem=  7784628224 cpu:             810.2 elap:              82.8
 (Enter /gpfs/loomis/apps/avx/software/Gaussian/16-C.01_AVX/g16/l601.exe)
 Copying SCF densities to generalized density rwf, IOpCl= 0 IROHF=0.

 **********************************************************************

            Population analysis using the SCF Density.

 **********************************************************************

 Alpha  occ. eigenvalues --  -89.08565 -19.28164 -14.46931 -10.39288 -10.38435
 Alpha  occ. eigenvalues --  -10.35252 -10.34442 -10.32542 -10.32419 -10.32302
 Alpha  occ. eigenvalues --  -10.32091 -10.31813 -10.31490 -10.31446 -10.31075
 Alpha  occ. eigenvalues --  -10.30878  -8.10670  -6.05498  -6.05160  -6.04738
 Alpha  occ. eigenvalues --   -1.18752  -1.07988  -0.96746  -0.95648  -0.92061
 Alpha  occ. eigenvalues --   -0.88674  -0.85134  -0.84594  -0.82331  -0.76135
 Alpha  occ. eigenvalues --   -0.71599  -0.70148  -0.69830  -0.68065  -0.64258
 Alpha  occ. eigenvalues --   -0.60334  -0.59213  -0.58583  -0.55999  -0.54561
 Alpha  occ. eigenvalues --   -0.53926  -0.53490  -0.52762  -0.50561  -0.50471
 Alpha  occ. eigenvalues --   -0.49219  -0.47487  -0.45976  -0.45714  -0.44793
 Alpha  occ. eigenvalues --   -0.43931  -0.43041  -0.42123  -0.39840  -0.37251
 Alpha  occ. eigenvalues --   -0.36387  -0.31928  -0.31586  -0.28266
 Alpha virt. eigenvalues --   -0.01786   0.05106   0.06757   0.06933   0.08026
 Alpha virt. eigenvalues --    0.11084   0.14436   0.15252   0.17124   0.17947
 Alpha virt. eigenvalues --    0.18582   0.21204   0.21558   0.22229   0.22548
 Alpha virt. eigenvalues --    0.23826   0.23955   0.24074   0.28108   0.30238
 Alpha virt. eigenvalues --    0.32327   0.33352   0.34798   0.35806   0.37092
 Alpha virt. eigenvalues --    0.37912   0.38936   0.40708   0.43287   0.44463
 Alpha virt. eigenvalues --    0.46649   0.48746   0.50666   0.51246   0.51443
 Alpha virt. eigenvalues --    0.52218   0.53472   0.54293   0.54844   0.55688
 Alpha virt. eigenvalues --    0.56023   0.56351   0.57049   0.57811   0.57955
 Alpha virt. eigenvalues --    0.58533   0.58742   0.58892   0.59442   0.60234
 Alpha virt. eigenvalues --    0.60860   0.60879   0.61615   0.62749   0.63334
 Alpha virt. eigenvalues --    0.65136   0.66061   0.66570   0.67547   0.69213
 Alpha virt. eigenvalues --    0.70476   0.71219   0.72389   0.72616   0.72876
 Alpha virt. eigenvalues --    0.73296   0.74272   0.75405   0.75928   0.78679
 Alpha virt. eigenvalues --    0.78734   0.79133   0.80161   0.81423   0.82195
 Alpha virt. eigenvalues --    0.85158   0.89379   0.91161   0.92419   0.94081
 Alpha virt. eigenvalues --    0.95026   0.95183   0.95428   0.97171   0.97273
 Alpha virt. eigenvalues --    0.97891   0.98701   1.00518   1.00745   1.02077
 Alpha virt. eigenvalues --    1.02429   1.05795   1.06562   1.07287   1.07825
 Alpha virt. eigenvalues --    1.08105   1.08904   1.09744   1.10378   1.11241
 Alpha virt. eigenvalues --    1.12188   1.12500   1.14485   1.14625   1.15600
 Alpha virt. eigenvalues --    1.16010   1.19922   1.20185   1.21666   1.22093
 Alpha virt. eigenvalues --    1.25057   1.29953   1.32670   1.34215   1.35109
 Alpha virt. eigenvalues --    1.36780   1.36891   1.39221   1.40606   1.46551
 Alpha virt. eigenvalues --    1.48568   1.48833   1.51125   1.51971   1.53291
 Alpha virt. eigenvalues --    1.54737   1.56179   1.56332   1.56968   1.57099
 Alpha virt. eigenvalues --    1.58334   1.59498   1.61856   1.65599   1.66450
 Alpha virt. eigenvalues --    1.67435   1.69114   1.69420   1.70002   1.71014
 Alpha virt. eigenvalues --    1.72116   1.72424   1.72589   1.73465   1.75111
 Alpha virt. eigenvalues --    1.75743   1.77360   1.79584   1.80866   1.81922
 Alpha virt. eigenvalues --    1.82648   1.82915   1.84482   1.84574   1.84835
 Alpha virt. eigenvalues --    1.86164   1.87968   1.88636   1.89131   1.91828
 Alpha virt. eigenvalues --    1.91990   1.92919   1.93215   1.94389   1.96804
 Alpha virt. eigenvalues --    1.99981   2.00286   2.02285   2.02967   2.03249
 Alpha virt. eigenvalues --    2.05044   2.07627   2.08433   2.11383   2.12301
 Alpha virt. eigenvalues --    2.17239   2.17416   2.19834   2.23806   2.23915
 Alpha virt. eigenvalues --    2.25604   2.28579   2.35751   2.37527   2.39676
 Alpha virt. eigenvalues --    2.41785   2.41807   2.45136   2.45189   2.46727
 Alpha virt. eigenvalues --    2.47000   2.49373   2.51248   2.53308   2.61631
 Alpha virt. eigenvalues --    2.62975   2.71930   2.73361   2.75106   2.78661
 Alpha virt. eigenvalues --    2.80623   2.83179   2.86034   2.89296   2.92220
 Alpha virt. eigenvalues --    3.00742   3.04641   3.10934   3.13156   3.31692
 Alpha virt. eigenvalues --    3.45871   3.54589   3.68338   4.00556
          Condensed to atoms (all electrons):
               1          2          3          4          5          6
     1  C    4.760066   0.456981   0.012797  -0.054425  -0.015321   0.519425
     2  C    0.456981   5.311787   0.341013  -0.028428  -0.067903  -0.006630
     3  C    0.012797   0.341013   4.776818   0.479142  -0.003859  -0.062515
     4  C   -0.054425  -0.028428   0.479142   4.792329   0.523484  -0.011134
     5  C   -0.015321  -0.067903  -0.003859   0.523484   4.743795   0.488816
     6  C    0.519425  -0.006630  -0.062515  -0.011134   0.488816   4.746750
     7  H    0.400085  -0.036086   0.008154  -0.000551   0.007850  -0.039889
     8  H   -0.000978   0.011980  -0.036680   0.394792  -0.042885   0.007886
     9  H    0.009101  -0.000889   0.008641  -0.038912   0.404263  -0.045759
    10  H   -0.042412   0.009324  -0.000484   0.008161  -0.042489   0.405764
    11  N    0.008164  -0.063600   0.489953  -0.040220   0.003138  -0.000178
    12  S   -0.073314   0.338807  -0.101439   0.007567   0.000260   0.004054
    13  C   -0.000208   0.003354   0.006617  -0.000520   0.000008   0.000005
    14  C   -0.000016   0.000099   0.000397   0.000007  -0.000000  -0.000000
    15  C    0.000008  -0.000144  -0.000768   0.000009  -0.000000  -0.000000
    16  C    0.000000  -0.000009   0.000007  -0.000000   0.000000  -0.000000
    17  H   -0.000012   0.000219  -0.000006   0.000000   0.000000   0.000000
    18  C    0.000000   0.000008  -0.000026  -0.000000  -0.000000  -0.000000
    19  C   -0.000000   0.000000   0.000002   0.000000   0.000000   0.000000
    20  H   -0.000000  -0.000000  -0.000000  -0.000000  -0.000000  -0.000000
    21  H   -0.000000  -0.000000   0.000000   0.000000  -0.000000   0.000000
    22  H    0.000000  -0.000000  -0.000000  -0.000000   0.000000  -0.000000
    23  C    0.004785  -0.054422  -0.127694  -0.001167   0.000295  -0.000202
    24  O    0.000001  -0.000025  -0.001854  -0.000037  -0.000000  -0.000000
    25  H   -0.000066   0.002213  -0.003878  -0.000323  -0.000017   0.000009
               7          8          9         10         11         12
     1  C    0.400085  -0.000978   0.009101  -0.042412   0.008164  -0.073314
     2  C   -0.036086   0.011980  -0.000889   0.009324  -0.063600   0.338807
     3  C    0.008154  -0.036680   0.008641  -0.000484   0.489953  -0.101439
     4  C   -0.000551   0.394792  -0.038912   0.008161  -0.040220   0.007567
     5  C    0.007850  -0.042885   0.404263  -0.042489   0.003138   0.000260
     6  C   -0.039889   0.007886  -0.045759   0.405764  -0.000178   0.004054
     7  H    0.659378   0.000034  -0.000161  -0.010955  -0.000097  -0.007797
     8  H    0.000034   0.658550  -0.012748  -0.000106  -0.001166  -0.000132
     9  H   -0.000161  -0.012748   0.666850  -0.011974  -0.000086   0.000019
    10  H   -0.010955  -0.000106  -0.011974   0.662802   0.000000  -0.000175
    11  N   -0.000097  -0.001166  -0.000086   0.000000   6.507304  -0.074981
    12  S   -0.007797  -0.000132   0.000019  -0.000175  -0.074981  15.501646
    13  C   -0.000001   0.000031  -0.000000  -0.000000  -0.014655  -0.062300
    14  C    0.000001   0.000001   0.000000  -0.000000   0.003792  -0.013622
    15  C   -0.000000  -0.000021   0.000000   0.000000  -0.022965   0.005755
    16  C    0.000000   0.000000  -0.000000  -0.000000  -0.000068   0.000427
    17  H    0.000002   0.000000  -0.000000  -0.000000   0.000217   0.009384
    18  C    0.000000  -0.000000   0.000000  -0.000000  -0.000594  -0.000224
    19  C   -0.000000   0.000000  -0.000000  -0.000000   0.000031   0.000026
    20  H    0.000000   0.000000   0.000000   0.000000   0.000001   0.000015
    21  H   -0.000000   0.000000  -0.000000   0.000000   0.000007   0.000004
    22  H    0.000000  -0.000000  -0.000000  -0.000000  -0.000000  -0.000000
    23  C    0.000142  -0.000902   0.000007   0.000005   0.532821   0.305792
    24  O   -0.000000  -0.000084   0.000000  -0.000000  -0.051932  -0.000155
    25  H    0.000001   0.000894  -0.000002   0.000000   0.086510   0.003068
              13         14         15         16         17         18
     1  C   -0.000208  -0.000016   0.000008   0.000000  -0.000012   0.000000
     2  C    0.003354   0.000099  -0.000144  -0.000009   0.000219   0.000008
     3  C    0.006617   0.000397  -0.000768   0.000007  -0.000006  -0.000026
     4  C   -0.000520   0.000007   0.000009  -0.000000   0.000000  -0.000000
     5  C    0.000008  -0.000000  -0.000000   0.000000   0.000000  -0.000000
     6  C    0.000005  -0.000000  -0.000000  -0.000000   0.000000  -0.000000
     7  H   -0.000001   0.000001  -0.000000   0.000000   0.000002   0.000000
     8  H    0.000031   0.000001  -0.000021   0.000000   0.000000  -0.000000
     9  H   -0.000000   0.000000   0.000000  -0.000000  -0.000000   0.000000
    10  H   -0.000000  -0.000000   0.000000  -0.000000  -0.000000  -0.000000
    11  N   -0.014655   0.003792  -0.022965  -0.000068   0.000217  -0.000594
    12  S   -0.062300  -0.013622   0.005755   0.000427   0.009384  -0.000224
    13  C    5.302641   0.486785   0.279835  -0.011618  -0.034120  -0.057819
    14  C    0.486785   4.820527  -0.012843   0.531382   0.398278  -0.053267
    15  C    0.279835  -0.012843   4.813567  -0.057050   0.006536   0.483933
    16  C   -0.011618   0.531382  -0.057050   4.732034  -0.032884  -0.018180
    17  H   -0.034120   0.398278   0.006536  -0.032884   0.652870  -0.000605
    18  C   -0.057819  -0.053267   0.483933  -0.018180  -0.000605   4.829624
    19  C   -0.051468  -0.021550  -0.009335   0.494765   0.007768   0.516620
    20  H    0.008636  -0.034857  -0.000224   0.401464  -0.011798   0.008001
    21  H    0.012294  -0.000460  -0.024677   0.006914   0.000040   0.380201
    22  H   -0.001239   0.009481   0.008838  -0.042757  -0.000160  -0.042174
    23  C    0.333434  -0.085234  -0.076649   0.006679  -0.022935   0.007888
    24  O   -0.096074   0.003987   0.533534  -0.000036  -0.000054  -0.053623
    25  H   -0.036099  -0.001147  -0.006735   0.000000  -0.000000   0.005500
              19         20         21         22         23         24
     1  C   -0.000000  -0.000000  -0.000000   0.000000   0.004785   0.000001
     2  C    0.000000  -0.000000  -0.000000  -0.000000  -0.054422  -0.000025
     3  C    0.000002  -0.000000   0.000000  -0.000000  -0.127694  -0.001854
     4  C    0.000000  -0.000000   0.000000  -0.000000  -0.001167  -0.000037
     5  C    0.000000  -0.000000  -0.000000   0.000000   0.000295  -0.000000
     6  C    0.000000  -0.000000   0.000000  -0.000000  -0.000202  -0.000000
     7  H   -0.000000   0.000000  -0.000000   0.000000   0.000142  -0.000000
     8  H    0.000000   0.000000   0.000000  -0.000000  -0.000902  -0.000084
     9  H   -0.000000   0.000000  -0.000000  -0.000000   0.000007   0.000000
    10  H   -0.000000   0.000000   0.000000  -0.000000   0.000005  -0.000000
    11  N    0.000031   0.000001   0.000007  -0.000000   0.532821  -0.051932
    12  S    0.000026   0.000015   0.000004  -0.000000   0.305792  -0.000155
    13  C   -0.051468   0.008636   0.012294  -0.001239   0.333434  -0.096074
    14  C   -0.021550  -0.034857  -0.000460   0.009481  -0.085234   0.003987
    15  C   -0.009335  -0.000224  -0.024677   0.008838  -0.076649   0.533534
    16  C    0.494765   0.401464   0.006914  -0.042757   0.006679  -0.000036
    17  H    0.007768  -0.011798   0.000040  -0.000160  -0.022935  -0.000054
    18  C    0.516620   0.008001   0.380201  -0.042174   0.007888  -0.053623
    19  C    4.723964  -0.045552  -0.042646   0.406249   0.000933   0.002426
    20  H   -0.045552   0.671528  -0.000127  -0.011594  -0.000367   0.000003
    21  H   -0.042646  -0.000127   0.653624  -0.011763  -0.000417   0.002026
    22  H    0.406249  -0.011594  -0.011763   0.657993  -0.000009  -0.000048
    23  C    0.000933  -0.000367  -0.000417  -0.000009   5.091317  -0.000629
    24  O    0.002426   0.000003   0.002026  -0.000048  -0.000629   7.409441
    25  H   -0.000081  -0.000001   0.000039   0.000007  -0.000362   0.377613
              25
     1  C   -0.000066
     2  C    0.002213
     3  C   -0.003878
     4  C   -0.000323
     5  C   -0.000017
     6  C    0.000009
     7  H    0.000001
     8  H    0.000894
     9  H   -0.000002
    10  H    0.000000
    11  N    0.086510
    12  S    0.003068
    13  C   -0.036099
    14  C   -0.001147
    15  C   -0.006735
    16  C    0.000000
    17  H   -0.000000
    18  C    0.005500
    19  C   -0.000081
    20  H   -0.000001
    21  H    0.000039
    22  H    0.000007
    23  C   -0.000362
    24  O    0.377613
    25  H    0.470451
 Mulliken charges:
               1
     1  C    0.015338
     2  C   -0.217649
     3  C    0.215663
     4  C   -0.029776
     5  C    0.000566
     6  C   -0.006402
     7  H    0.019892
     8  H    0.021535
     9  H    0.021649
    10  H    0.022540
    11  N   -0.361396
    12  S    0.157314
    13  C   -0.067517
    14  C   -0.031742
    15  C    0.079396
    16  C   -0.011071
    17  H    0.027260
    18  C   -0.005262
    19  C    0.017849
    20  H    0.014874
    21  H    0.024941
    22  H    0.027177
    23  C    0.086893
    24  O   -0.124480
    25  H    0.102406
 Sum of Mulliken charges =  -0.00000
 Mulliken charges with hydrogens summed into heavy atoms:
               1
     1  C    0.035230
     2  C   -0.217649
     3  C    0.215663
     4  C   -0.008240
     5  C    0.022216
     6  C    0.016138
    11  N   -0.361396
    12  S    0.157314
    13  C   -0.067517
    14  C   -0.004482
    15  C    0.079396
    16  C    0.003803
    18  C    0.019679
    19  C    0.045026
    23  C    0.086893
    24  O   -0.022074
 Electronic spatial extent (au):  <R**2>=           4326.9425
 Charge=             -0.0000 electrons
 Dipole moment (field-independent basis, Debye):
    X=             -0.8789    Y=             -1.9579    Z=             -0.0000  Tot=              2.1461
 Quadrupole moment (field-independent basis, Debye-Ang):
   XX=            -83.1077   YY=            -88.7439   ZZ=           -104.3764
   XY=             -7.1761   XZ=             -0.0001   YZ=             -0.0000
 Traceless Quadrupole moment (field-independent basis, Debye-Ang):
   XX=              8.9683   YY=              3.3321   ZZ=            -12.3004
   XY=             -7.1761   XZ=             -0.0001   YZ=             -0.0000
 Octapole moment (field-independent basis, Debye-Ang**2):
  XXX=              3.2889  YYY=            -16.4475  ZZZ=              0.0001  XYY=             -8.5552
  XXY=              5.2699  XXZ=              0.0002  XZZ=              0.8450  YZZ=              4.2218
  YYZ=              0.0001  XYZ=             -0.0004
 Hexadecapole moment (field-independent basis, Debye-Ang**3):
 XXXX=          -2591.5727 YYYY=          -2587.3250 ZZZZ=           -113.5789 XXXY=            803.4350
 XXXZ=              0.0099 YYYX=            768.7315 YYYZ=             -0.0147 ZZZX=              0.0142
 ZZZY=             -0.0170 XXYY=           -837.8945 XXZZ=           -572.3204 YYZZ=           -545.3732
 XXYZ=             -0.0042 YYXZ=              0.0027 ZZXY=            358.6478
 N-N= 1.100097201900D+03 E-N=-4.612359900559D+03  KE= 1.023747579678D+03
 No NMR shielding tensors so no spin-rotation constants.
 Leave Link  601 at Wed Oct 28 01:16:39 2020, MaxMem=  7784628224 cpu:               1.6 elap:               0.3
 (Enter /gpfs/loomis/apps/avx/software/Gaussian/16-C.01_AVX/g16/l701.exe)
 ... and contract with generalized density number  0.
 Compute integral first derivatives.
 R6Disp: Adding Grimme-D2 dispersion energy 1st derivatives to the gradient.
 D1PCM: PCM CHGder 1st derivatives, ID1Alg=3 FixD1E=F DoIter=F DoCFld=F I1PDM=0.
 GePol: Maximum number of non-zero 1st derivatives   =     248
 Leave Link  701 at Wed Oct 28 01:16:42 2020, MaxMem=  7784628224 cpu:              17.6 elap:               3.0
 (Enter /gpfs/loomis/apps/avx/software/Gaussian/16-C.01_AVX/g16/l702.exe)
 L702 exits ... SP integral derivatives will be done elsewhere.
 Leave Link  702 at Wed Oct 28 01:16:42 2020, MaxMem=  7784628224 cpu:               0.3 elap:               0.1
 (Enter /gpfs/loomis/apps/avx/software/Gaussian/16-C.01_AVX/g16/l703.exe)
 Integral derivatives from FoFJK, PRISM(SPDF).
 Compute integral first derivatives, UseDBF=F ICtDFT=           0.
 Calling FoFJK, ICntrl=      2127 FMM=F ISym2X=0 I1Cent= 0 IOpClX= 0 NMat=1 NMatS=1 NMatT=0.
 FoFJK:  IHMeth= 1 ICntrl=    2127 DoSepK=T KAlg= 0 I1Cent=           0 FoldK=F
 IRaf=         1 NMat=       1 IRICut=       1 DoRegI=T DoRafI=F ISym2E= 0 IDoP0=0 IntGTp=1.
 FoFCou: FMM=F IPFlag=           0 FMFlag=      100000 FMFlg1=         800
         NFxFlg=           0 DoJE=F BraDBF=F KetDBF=F FulRan=T
         wScrn=  0.000000 ICntrl=      2527 IOpCl=  0 I1Cent=           0 NGrid=           0
         NMat0=    1 NMatS0=      1 NMatT0=    0 NMatD0=    1 NMtDS0=    0 NMtDT0=    0
 Symmetry not used in FoFCou.
 Leave Link  703 at Wed Oct 28 01:17:03 2020, MaxMem=  7784628224 cpu:             135.7 elap:              20.4
 (Enter /gpfs/loomis/apps/avx/software/Gaussian/16-C.01_AVX/g16/l716.exe)
 Dipole        =-3.45789051D-01-7.70278373D-01-1.46643289D-06
 -------------------------------------------------------------------
 Center     Atomic                   Forces (Hartrees/Bohr)
 Number     Number              X              Y              Z
 -------------------------------------------------------------------
      1        6           0.006893588   -0.004247732   -0.000000046
      2        6           0.009345144    0.003284340   -0.000000230
      3        6           0.012481840   -0.041560826   -0.000000813
      4        6          -0.014820933    0.003736177    0.000000087
      5        6          -0.001019248    0.000018459    0.000000110
      6        6          -0.002690200    0.007708739   -0.000000170
      7        1           0.003154524    0.002743638   -0.000000038
      8        1          -0.002989805   -0.003135992    0.000000036
      9        1          -0.003098399    0.000914532    0.000000002
     10        1          -0.001003557    0.002927695   -0.000000007
     11        7          -0.049999524   -0.000172442    0.000001170
     12       16           0.006728494    0.000857952    0.000000108
     13        6          -0.032251329    0.053705563    0.000000685
     14        6           0.010457061    0.011251680   -0.000001354
     15        6          -0.017428123   -0.041963761   -0.000000612
     16        6           0.000088122    0.008190065    0.000000168
     17        1          -0.000901433    0.003456980   -0.000000035
     18        6          -0.002486422   -0.004133732    0.000000956
     19        6           0.012288416   -0.013162648    0.000000174
     20        1           0.002586695    0.000775594    0.000000056
     21        1          -0.000825926   -0.003893098   -0.000000324
     22        1           0.002145025   -0.001260843   -0.000000003
     23        6           0.056913316   -0.020836315    0.000000274
     24        8          -0.027692423    0.086784583    0.000001725
     25        1           0.034125096   -0.051988609   -0.000001920
 -------------------------------------------------------------------
 Cartesian Forces:  Max     0.086784583 RMS     0.019138510
 Leave Link  716 at Wed Oct 28 01:17:03 2020, MaxMem=  7784628224 cpu:               0.2 elap:               0.1
 (Enter /gpfs/loomis/apps/avx/software/Gaussian/16-C.01_AVX/g16/l103.exe)

 GradGradGradGradGradGradGradGradGradGradGradGradGradGradGradGradGradGrad
 Berny optimization.
 FormGI is forming the generalized inverse of G from B-inverse, IUseBI=4.
 Internal  Forces:  Max     0.075789398 RMS     0.010079980
 Search for a local minimum.
 Step number   1 out of a maximum of  143
 All quantities printed in internal units (Hartrees-Bohrs-Radians)
 RMS Force = .10157D-01 SwitMx=.10000D-02 MixMth= 1
 Mixed Optimization -- RFO/linear search
 Second derivative matrix not updated -- first step.
 ITU=  0
     Eigenvalues ---    0.01483   0.01503   0.01728   0.01739   0.01847
     Eigenvalues ---    0.01857   0.01859   0.01903   0.01911   0.01927
     Eigenvalues ---    0.01973   0.01993   0.02003   0.02007   0.02011
     Eigenvalues ---    0.02040   0.02069   0.02070   0.02086   0.02104
     Eigenvalues ---    0.02162   0.02850   0.16000   0.16000   0.16000
     Eigenvalues ---    0.16000   0.16000   0.16000   0.16000   0.16003
     Eigenvalues ---    0.16198   0.22000   0.22024   0.22533   0.22588
     Eigenvalues ---    0.24477   0.24549   0.25000   0.25000   0.25000
     Eigenvalues ---    0.29200   0.31049   0.33872   0.34007   0.34041
     Eigenvalues ---    0.34094   0.34107   0.34118   0.34268   0.34306
     Eigenvalues ---    0.34323   0.36736   0.38961   0.39810   0.40933
     Eigenvalues ---    0.42245   0.42827   0.43681   0.44377   0.44891
     Eigenvalues ---    0.45955   0.46491   0.46557   0.49293   0.51788
     Eigenvalues ---    0.60747   0.638011000.000001000.000001000.00000
     Eigenvalues --- 1000.000001000.000001000.000001000.000001000.00000
     Eigenvalues --- 1000.000001000.000001000.000001000.000001000.00000
     Eigenvalues --- 1000.000001000.000001000.000001000.000001000.00000
     Eigenvalues --- 1000.000001000.000001000.000001000.000001000.00000
     Eigenvalues --- 1000.000001000.000001000.000001000.000001000.00000
     Eigenvalues --- 1000.000001000.000001000.000001000.000001000.00000
     Eigenvalues --- 1000.000001000.000001000.000001000.000001000.00000
     Eigenvalues --- 1000.000001000.000001000.000001000.000001000.00000
     Eigenvalues --- 1000.000001000.000001000.000001000.000001000.00000
     Eigenvalues --- 1000.000001000.000001000.000001000.000001000.00000
     Eigenvalues --- 1000.000001000.000001000.000001000.000001000.00000
     Eigenvalues --- 1000.000001000.000001000.000001000.000001000.00000
     Eigenvalues --- 1000.000001000.000001000.00000
 RFO step:  Lambda=-2.66641939D-02 EMin= 1.48293860D-02
 Linear search not attempted -- first point.
 Iteration  1 RMS(Cart)=  0.02503078 RMS(Int)=  0.00027515
 Iteration  2 RMS(Cart)=  0.00049571 RMS(Int)=  0.00004156
 Iteration  3 RMS(Cart)=  0.00000010 RMS(Int)=  0.00004156
 Iteration  1 RMS(Cart)=  0.00000000 RMS(Int)=  0.00000000
 ITry= 1 IFail=0 DXMaxC= 1.13D-01 DCOld= 1.00D+10 DXMaxT= 3.00D-01 DXLimC= 3.00D+00 Rises=F
 Variable       Old X    -DE/DX   Delta X   Delta X   Delta X     New X
                                 (Linear)    (Quad)   (Total)
    R1        2.63446  -0.00258   0.00000  -0.00634  -0.00634   2.62812
    R2        2.63584  -0.00891   0.00000  -0.01880  -0.01884   2.61699
    R3        2.07262  -0.00415   0.00000  -0.01134  -0.01134   2.06128
    R4        2.71052  -0.02306   0.00000  -0.05216  -0.05201   2.65851
    R5        3.28049  -0.00042   0.00000  -0.00102  -0.00103   3.27946
    R6        2.70326  -0.01833   0.00000  -0.04148  -0.04144   2.66182
    R7        2.56133   0.02308   0.00000   0.04340   0.04350   2.60483
    R8        2.63546  -0.00486   0.00000  -0.00832  -0.00832   2.62714
    R9        2.07318  -0.00428   0.00000  -0.01166  -0.01166   2.06153
   R10        2.67164  -0.00859   0.00000  -0.01861  -0.01865   2.65298
   R11        2.07150  -0.00320   0.00000  -0.00873  -0.00873   2.06277
   R12        2.06881  -0.00305   0.00000  -0.00823  -0.00823   2.06057
   R13        2.57846  -0.04230   0.00000  -0.07783  -0.07787   2.50059
   R14        3.30540  -0.00416   0.00000  -0.02317  -0.02332   3.28209
   R15        2.68789  -0.01496   0.00000  -0.03580  -0.03577   2.65213
   R16        2.76516  -0.02548   0.00000  -0.07408  -0.07409   2.69107
   R17        2.64826   0.03720   0.00000   0.07348   0.07347   2.72172
   R18        2.62599  -0.00796   0.00000  -0.01556  -0.01552   2.61046
   R19        2.07132  -0.00305   0.00000  -0.00827  -0.00827   2.06304
   R20        2.66665  -0.00572   0.00000  -0.01037  -0.01039   2.65625
   R21        2.48011   0.00957   0.00000   0.01329   0.01329   2.49340
   R22        2.68399  -0.02086   0.00000  -0.04580  -0.04582   2.63817
   R23        2.06816  -0.00259   0.00000  -0.00694  -0.00693   2.06123
   R24        2.65208  -0.01201   0.00000  -0.02238  -0.02241   2.62967
   R25        2.07172  -0.00403   0.00000  -0.01100  -0.01100   2.06071
   R26        2.06789  -0.00230   0.00000  -0.00617  -0.00617   2.06172
   R27        1.75563   0.07579   0.00000   0.11986   0.11988   1.87550
    A1        2.06438  -0.00264   0.00000  -0.00734  -0.00733   2.05705
    A2        2.10007   0.00176   0.00000   0.00557   0.00557   2.10564
    A3        2.11873   0.00087   0.00000   0.00177   0.00177   2.12050
    A4        2.16038   0.00085   0.00000   0.00308   0.00310   2.16348
    A5        2.18810   0.00835   0.00000   0.02126   0.02113   2.20923
    A6        1.93470  -0.00919   0.00000  -0.02434  -0.02423   1.91048
    A7        2.03487   0.00427   0.00000   0.00994   0.00992   2.04479
    A8        1.99122  -0.00123   0.00000  -0.00352  -0.00339   1.98783
    A9        2.25709  -0.00303   0.00000  -0.00642  -0.00653   2.25056
   A10        2.08129   0.00003   0.00000  -0.00004   0.00001   2.08130
   A11        2.09190  -0.00017   0.00000  -0.00037  -0.00039   2.09150
   A12        2.10999   0.00013   0.00000   0.00041   0.00038   2.11038
   A13        2.13715  -0.00224   0.00000  -0.00648  -0.00649   2.13066
   A14        2.07351   0.00083   0.00000   0.00198   0.00199   2.07549
   A15        2.07252   0.00142   0.00000   0.00450   0.00451   2.07703
   A16        2.08829  -0.00027   0.00000   0.00084   0.00080   2.08909
   A17        2.09724   0.00020   0.00000  -0.00038  -0.00036   2.09689
   A18        2.09765   0.00007   0.00000  -0.00046  -0.00044   2.09721
   A19        1.94312   0.00816   0.00000   0.02470   0.02473   1.96785
   A20        1.54910   0.00785   0.00000   0.02642   0.02627   1.57537
   A21        2.07440   0.00206   0.00000   0.01269   0.01276   2.08716
   A22        2.14664  -0.00886   0.00000  -0.02540  -0.02546   2.12118
   A23        2.06215   0.00679   0.00000   0.01271   0.01270   2.07484
   A24        2.09784   0.00544   0.00000   0.01892   0.01901   2.11685
   A25        2.08549  -0.00117   0.00000  -0.00148  -0.00153   2.08396
   A26        2.09986  -0.00427   0.00000  -0.01744  -0.01748   2.08238
   A27        2.08867  -0.00553   0.00000  -0.02158  -0.02162   2.06705
   A28        2.03670   0.01787   0.00000   0.04845   0.04844   2.08514
   A29        2.15781  -0.01234   0.00000  -0.02687  -0.02681   2.13100
   A30        2.10896  -0.00684   0.00000  -0.02903  -0.02901   2.07995
   A31        2.08872   0.00333   0.00000   0.01378   0.01377   2.10249
   A32        2.08550   0.00352   0.00000   0.01525   0.01524   2.10075
   A33        2.09056   0.00357   0.00000   0.01293   0.01284   2.10341
   A34        2.07394  -0.00172   0.00000  -0.00574  -0.00570   2.06825
   A35        2.11868  -0.00185   0.00000  -0.00719  -0.00715   2.11153
   A36        2.10594   0.00130   0.00000   0.00607   0.00601   2.11196
   A37        2.08636  -0.00050   0.00000  -0.00272  -0.00270   2.08366
   A38        2.09088  -0.00080   0.00000  -0.00335  -0.00332   2.08757
   A39        2.00664  -0.00559   0.00000  -0.02326  -0.02338   1.98326
   A40        2.19687  -0.00204   0.00000  -0.00420  -0.00408   2.19279
   A41        2.07968   0.00763   0.00000   0.02746   0.02746   2.10714
   A42        1.95345  -0.00805   0.00000  -0.05038  -0.05039   1.90305
    D1       -0.00000   0.00000   0.00000   0.00000   0.00000  -0.00000
    D2        3.14159   0.00000   0.00000   0.00000   0.00000  -3.14159
    D3        3.14159   0.00000   0.00000  -0.00000  -0.00000   3.14159
    D4       -0.00000   0.00000   0.00000   0.00000   0.00000  -0.00000
    D5       -0.00000   0.00000   0.00000   0.00000   0.00000  -0.00000
    D6        3.14159  -0.00000   0.00000  -0.00000  -0.00000   3.14159
    D7        3.14159   0.00000   0.00000   0.00000   0.00000   3.14159
    D8       -0.00000  -0.00000   0.00000  -0.00000   0.00000  -0.00000
    D9        0.00000  -0.00000   0.00000  -0.00000  -0.00000   0.00000
   D10       -3.14159   0.00000   0.00000   0.00000   0.00000  -3.14159
   D11       -3.14159  -0.00000   0.00000  -0.00000  -0.00000  -3.14159
   D12        0.00000   0.00000   0.00000   0.00000   0.00000   0.00000
   D13        3.14159   0.00000   0.00000   0.00000   0.00000   3.14159
   D14       -0.00001   0.00000   0.00000   0.00000   0.00000  -0.00000
   D15       -0.00000   0.00000   0.00000   0.00000   0.00000  -0.00000
   D16        3.14159   0.00000   0.00000   0.00000   0.00000   3.14159
   D17        3.14159  -0.00000   0.00000  -0.00000  -0.00000   3.14159
   D18        0.00000  -0.00000   0.00000  -0.00000  -0.00000  -0.00000
   D19        0.00001  -0.00000   0.00000  -0.00000  -0.00000   0.00000
   D20       -3.14159  -0.00000   0.00000  -0.00000  -0.00000  -3.14159
   D21        0.00000   0.00000   0.00000   0.00000   0.00000   0.00000
   D22       -3.14159   0.00000   0.00000   0.00000   0.00000  -3.14159
   D23        3.14159  -0.00000   0.00000  -0.00000  -0.00000   3.14159
   D24        0.00000  -0.00000   0.00000  -0.00000  -0.00000   0.00000
   D25        0.00000  -0.00000   0.00000  -0.00000  -0.00000   0.00000
   D26       -3.14159   0.00000   0.00000   0.00000   0.00000  -3.14159
   D27       -3.14159  -0.00000   0.00000  -0.00000  -0.00000  -3.14159
   D28        0.00000   0.00000   0.00000   0.00000   0.00000   0.00000
   D29       -0.00001   0.00000   0.00000   0.00001   0.00001  -0.00000
   D30        3.14156   0.00000   0.00000   0.00002   0.00002   3.14158
   D31        0.00001  -0.00000   0.00000  -0.00001  -0.00001   0.00000
   D32       -3.14156  -0.00000   0.00000  -0.00002  -0.00002  -3.14158
   D33        0.00002  -0.00000   0.00000  -0.00001  -0.00001   0.00001
   D34       -3.14158  -0.00000   0.00000  -0.00000  -0.00000  -3.14158
   D35       -3.14157  -0.00000   0.00000  -0.00001  -0.00001  -3.14158
   D36        0.00001   0.00000   0.00000  -0.00000  -0.00000   0.00001
   D37       -0.00003   0.00000   0.00000   0.00001   0.00001  -0.00002
   D38        3.14156   0.00000   0.00000   0.00001   0.00001   3.14157
   D39        3.14157   0.00000   0.00000   0.00001   0.00001   3.14157
   D40       -0.00003   0.00000   0.00000   0.00001   0.00001  -0.00002
   D41       -3.14159   0.00000   0.00000   0.00000   0.00000  -3.14159
   D42       -0.00002   0.00000   0.00000   0.00001   0.00001  -0.00000
   D43        0.00000   0.00000   0.00000   0.00000   0.00000   0.00001
   D44        3.14158   0.00000   0.00000   0.00001   0.00001   3.14159
   D45       -0.00001   0.00000   0.00000   0.00001   0.00001  -0.00000
   D46        3.14159   0.00000   0.00000   0.00000   0.00000   3.14159
   D47       -3.14159   0.00000   0.00000  -0.00000  -0.00000  -3.14159
   D48        0.00000  -0.00000   0.00000  -0.00000  -0.00000   0.00000
   D49        0.00001  -0.00000   0.00000  -0.00000  -0.00000   0.00001
   D50       -3.14159   0.00000   0.00000   0.00000   0.00000  -3.14159
   D51       -3.14157  -0.00000   0.00000  -0.00001  -0.00001  -3.14158
[...]
 0.00116290,-0.00012871,0.00000002,-0.00007281,-0.00005128,0.,0.0000517
 8,0.00004103,0.,0.00009728,-0.00005281,0.,0.00006769,-0.00004250,0.,0.
 00552035,0.00373045,-0.00000027,-0.00208453,-0.00189620,0.00000017,0.0
 6050139,0.04370489,-0.00000128,0.08826605,-0.24616854,-0.00000116,0.03
 127661,-0.07050988,-0.00000021,0.01025106,0.68404511,0.00000004,-0.000
 00004,0.00010866,-0.00000009,-0.00000002,0.00064181,-0.00000005,0.0000
 0012,-0.00065067,0.00000006,-0.00000003,-0.00018134,0.,0.00000005,0.00
 006870,-0.00000005,-0.00000002,-0.00003613,0.,0.,0.00000946,0.,0.,0.00
 002228,0.,0.,0.00002133,0.,0.,-0.00004359,0.00000024,-0.00000013,0.000
 16556,-0.00000002,0.00000016,-0.00112376,0.00000083,-0.00000057,0.0081
 8727,0.00000397,-0.00000245,-0.06264343,-0.00000028,-0.00000004,-0.004
 93695,-0.00001489,-0.00000443,0.12731693,0.00037910,-0.00000724,0.,-0.
 00089105,0.00035896,-0.00000012,0.00021067,-0.00001714,0.00000001,0.00
 007892,0.00002442,0.00000001,0.00006701,0.00009988,0.,-0.00011609,-0.0
 0012456,0.,-0.00002081,-0.00001558,0.,0.00004532,0.00000299,0.,0.00001
 549,-0.00000227,0.,0.00003875,-0.00001535,0.,0.00054347,0.00053686,0.,
 -0.00167195,0.00175237,0.00000039,-0.00204017,-0.02793858,0.00000031,-
 0.07727087,-0.07251996,0.00000166,-0.00516361,0.00098491,0.00000027,0.
 01019164,0.02237378,-0.00000029,0.07796777,0.00000136,0.00002029,0.,0.
 00012300,0.00082478,-0.00000004,0.00042993,-0.00031111,0.,0.00002622,0
 .00012513,0.00000002,0.00001338,0.00004101,0.,-0.00005933,-0.00000007,
 0.,-0.00002035,0.00000758,0.,0.00003723,-0.00000543,0.,-0.00000157,0.0
 0000359,0.,0.00000712,0.,0.,-0.00071917,0.00021528,-0.00000006,0.00124
 716,-0.00092188,-0.00000028,0.00056891,-0.00451351,0.00000011,-0.07131
 997,-0.32246369,0.00000453,-0.00057958,0.00208389,0.00000010,-0.009532
 57,-0.01564656,0.00000038,0.07481707,0.34282520,-0.00000004,0.00000001
 ,-0.00002504,0.00000010,-0.00000002,-0.00083918,0.,-0.00000005,0.00019
 089,-0.00000003,0.,0.00010396,0.,-0.00000003,-0.00003372,0.00000002,0.
 00000002,0.00003743,0.,0.,-0.00001806,0.,0.,-0.00003023,0.,0.,-0.00000
 349,0.,0.,0.00003044,-0.00000017,-0.00000003,0.00002516,0.00000037,-0.
 00000040,0.00182412,-0.00000015,0.00000071,0.00278982,0.00000188,0.000
 00489,-0.03749383,0.00000018,0.00000003,0.00621286,-0.00000007,-0.0000
 0041,0.00517106,-0.00000223,-0.00000468,0.02419822,0.00011612,0.000439
 74,0.00000002,0.00039130,0.00008450,-0.00000007,0.00154084,0.00000675,
 -0.00000009,-0.00046984,0.00002240,-0.00000001,-0.00007390,-0.00049640
 ,0.,0.00042945,-0.00005972,0.,-0.00004663,0.00001840,0.,0.00007651,-0.
 00000159,0.,0.00003601,-0.00001897,0.,0.00003002,-0.00000602,0.,0.0013
 2061,0.00608370,-0.00000045,-0.00033696,0.00000533,0.00000015,0.054646
 26,0.04078180,-0.00000114,-0.06708863,0.02066670,0.00000106,-0.1962834
 8,0.05581132,0.00000251,0.00604444,-0.08915858,0.00000061,-0.00087828,
 0.00037960,0.00000004,0.70754399,0.00048429,-0.00035509,-0.00000003,-0
 .00107179,-0.00007529,0.,-0.00020857,0.00016796,0.00000004,0.00046219,
 -0.00009633,0.,0.00011554,0.00054079,0.00000001,-0.00052292,-0.0001011
 7,0.,-0.00000004,0.00002958,0.,0.00000658,-0.00001172,0.,-0.00002024,0
 .00001883,0.,0.00001029,0.00000168,0.,-0.00076850,-0.00047701,0.000000
 08,0.00163982,-0.00035095,-0.00000003,0.00638505,-0.03538367,0.0000002
 5,0.01653089,-0.00710842,-0.00000030,0.12013071,-0.23924668,-0.0000012
 6,-0.03722237,0.00678631,0.00000074,0.00017693,0.00057848,0.,0.0461812
 0,0.73705165,-0.00000002,-0.00000001,-0.00012794,0.00000002,0.00000004
 ,-0.00010852,0.,-0.00000006,-0.00084703,0.,0.,0.00000680,0.,0.,0.00003
 231,0.,0.00000001,0.00002833,0.,0.,-0.00003360,0.,0.,-0.00002474,0.,0.
 ,-0.00000341,0.,0.,0.00003019,0.00000009,0.,0.00141835,-0.00000009,-0.
 00000001,-0.00031481,-0.00000099,-0.00000074,0.00858177,0.00000106,-0.
 00000042,-0.00323595,0.00000164,0.00000027,-0.07085177,0.00000047,0.00
 000185,0.00779099,0.,-0.00000002,-0.00085623,-0.00001287,-0.00000664,0
 .12702613,0.00037484,-0.00077657,-0.00000004,-0.00118207,0.00039500,0.
 00000005,-0.00068575,0.00002228,0.00000008,0.00077896,-0.00013495,0.00
 000001,0.00012170,0.00094761,0.00000002,-0.00093325,-0.00000205,-0.000
 00002,0.00004678,0.00003713,0.,-0.00004274,-0.00003450,0.,-0.00007002,
 0.00004428,0.,-0.00004360,0.00002785,0.,-0.00250220,-0.00257266,0.0000
 0019,0.00142105,0.00064647,-0.00000009,-0.03745975,-0.02237810,0.00000
 076,0.06036182,0.00504597,-0.00000106,-0.05761234,0.05303121,0.0000008
 5,-0.14418090,-0.01825772,0.00000194,-0.00299554,0.00415817,0.00000025
 ,-0.35094443,-0.09953412,0.00000647,0.72645715,0.00011609,-0.00029154,
 0.,-0.00028010,0.00024649,0.00000005,0.00003526,-0.00093259,0.00000002
 ,0.00007506,0.00010416,0.,0.00006701,0.00023718,0.,-0.00032099,0.00009
 669,0.,0.00002334,0.00000627,0.,-0.00001531,-0.00000922,0.,-0.00003464
 ,0.00002096,0.,-0.00001342,0.00001149,0.,-0.00381075,-0.00198305,0.000
 00021,0.00097391,0.00032078,-0.00000012,-0.04117570,-0.03031618,0.0000
 0089,0.06204139,-0.05442641,-0.00000061,-0.00170113,0.06855466,-0.0000
 0064,-0.09293423,-0.32510335,0.00000417,0.00338638,-0.00140726,-0.0000
 0004,-0.02692743,-0.15057676,0.00000139,-0.03178344,0.71606414,0.,0.00
 000002,0.00001355,0.00000003,-0.00000003,-0.00000318,0.,0.00000003,0.0
 0021289,-0.00000002,0.,0.00001185,0.,-0.00000002,-0.00001735,0.0000000
 2,0.,0.00000293,0.,0.,0.00000003,0.,0.,0.00001344,0.,0.,-0.00000238,0.
 ,0.,-0.00000798,0.00000010,0.00000006,-0.00023156,-0.00000003,0.,0.000
 02642,0.00000111,0.00000067,-0.00424657,-0.00000170,0.00000032,0.00736
 730,0.00000118,-0.00000176,-0.00026798,0.00000241,0.00000241,-0.064049
 74,0.00000022,-0.00000001,0.00748462,0.00000563,0.00000279,-0.05956934
 ,-0.00001088,-0.00000423,0.14391417,0.00001042,-0.00007770,0.,-0.00005
 321,0.00013543,0.,-0.00006274,-0.00005870,-0.00000001,0.00006479,0.000
 02760,0.,-0.00000837,0.00007457,0.,-0.00008316,0.00001240,0.,0.0000053
 4,0.00000767,0.,-0.00000148,-0.00000655,0.,-0.00001050,0.00000852,0.,-
 0.00000938,0.00000661,0.,-0.00040490,0.00033980,0.,0.00005238,0.000033
 78,0.,-0.00061542,0.00393794,0.00000018,-0.01548293,-0.00947604,0.0000
 0046,0.00043016,0.00038310,-0.00000003,-0.32832535,-0.07465203,0.00000
 747,0.00073934,0.00005638,-0.00000011,0.00161130,-0.00120365,0.0000001
 3,-0.00321910,0.00219379,0.00000010,0.34537146,0.00000287,0.00001569,0
 .,0.00001736,-0.00006530,0.,0.00007163,0.00006082,0.,-0.00001006,-0.00
 003999,0.,0.00000982,-0.00000802,0.,0.00001342,-0.00000641,0.,0.000000
 45,-0.00000308,0.,0.,0.00000120,0.,0.00000252,-0.00000404,0.,0.0000019
 4,-0.00000090,0.,0.00031783,-0.00024165,-0.00000001,0.00000607,0.00005
 434,0.,0.00275573,-0.00285192,-0.00000002,0.02277044,0.00917345,-0.000
 00057,0.00065520,-0.00146471,0.,-0.07545009,-0.07853104,0.00000215,-0.
 00018444,0.00092576,-0.00000004,-0.00029022,-0.00521867,0.00000010,-0.
 02977784,-0.00235099,0.00000068,0.07962737,0.07870830,0.,0.,0.00000086
 ,0.,0.,-0.00001444,0.,0.,-0.00018660,0.,0.,-0.00000792,0.,0.,0.0000174
 1,0.,0.,-0.00000566,0.,0.,0.00000196,0.,0.,-0.00000667,0.,0.,0.0000025
 9,0.,0.,0.00000374,-0.00000002,-0.00000002,-0.00014150,0.,-0.00000002,
 0.00005029,0.00000009,0.00000003,0.00740049,0.00000031,0.00000016,0.00
 170119,-0.00000010,0.00000004,-0.00066614,0.00000744,0.00000227,-0.033
 55362,-0.00000011,-0.00000006,-0.00452118,0.00000023,0.00000009,0.0062
 8062,0.00000022,-0.00000018,0.00165308,-0.00000810,-0.00000227,0.02506
 150,-0.00005370,-0.00001549,0.,0.00005264,0.00010253,0.,-0.00006585,-0
 .00001798,0.,-0.00000244,0.00000705,0.,-0.00000905,-0.00000679,0.,0.00
 000619,0.00001456,0.,0.00000265,-0.00000372,0.,-0.00000598,0.00000072,
 0.,-0.00000085,0.00000037,0.,-0.00000510,0.00000014,0.,0.00017906,-0.0
 0028989,0.00000003,-0.00026289,0.00014149,0.,-0.00299481,0.00285390,0.
 00000015,-0.00141903,0.00039086,0.,0.00953578,0.02241987,-0.00000031,-
 0.00508671,-0.00060374,0.00000025,0.00010252,-0.00005945,-0.00000002,-
 0.07601142,-0.07115971,0.00000157,-0.00200135,-0.02946452,0.00000041,-
 0.00027596,-0.00141059,0.00000002,0.07479502,0.00002816,0.00008623,0.,
 -0.00002923,-0.00013232,0.,0.00009380,0.00004548,0.,-0.00005612,-0.000
 00723,0.,0.00000731,-0.00006728,0.,0.00006929,-0.00002055,0.,-0.000006
 19,-0.00000082,0.,0.00000781,0.00000484,0.,0.00000981,-0.00000550,0.,0
 .00001116,-0.00000513,0.,0.00015086,0.00027486,0.,0.00016406,-0.000236
 90,0.,0.00382045,-0.00167254,0.,0.00083288,0.00052742,-0.00000004,-0.0
 1096359,-0.01637825,0.00000045,-0.00115227,0.00189727,0.00000010,-0.00
 004354,-0.00008829,0.,-0.07022076,-0.32919311,0.00000470,0.00166681,-0
 .00299533,0.00000002,0.00005864,-0.00023353,0.,0.07716457,0.34610845,0
 .,0.,0.00001291,0.,0.,-0.00002481,0.,0.,-0.00000497,0.,0.,-0.00000024,
 0.,0.,-0.00000377,0.,0.,0.00000333,0.,0.,0.00000098,0.,0.,0.00000370,0
 .,0.,0.00000199,0.,0.,-0.00000178,-0.00000002,0.,-0.00002075,0.,-0.000
 00001,-0.00005858,0.00000016,-0.00000003,0.00560360,0.00000006,-0.0000
 0002,-0.00086005,-0.00000005,-0.00000019,0.00466504,0.00000022,0.00000
 013,0.00761195,-0.00000002,0.,-0.00076122,0.00000178,0.00000473,-0.034
 87601,-0.00000003,0.00000058,0.00240299,0.00000001,0.00000003,0.000420
 90,-0.00000183,-0.00000512,0.02458256,0.00001211,-0.00003291,0.,-0.000
 01612,0.00009800,0.,0.00008129,-0.00005586,0.,0.00002330,0.00001003,0.
 ,-0.00000043,0.00003553,0.,-0.00004122,0.00000826,0.,0.00000142,0.0000
 0418,0.,0.00000234,-0.00000441,0.,-0.00000652,0.00000397,0.,-0.0000042
 8,0.00000414,0.,-0.00016470,0.00022803,-0.00000002,0.00001007,0.000134
 93,0.00000001,-0.00061632,-0.00068512,0.,0.00117934,-0.00218599,0.0000
 0011,-0.00366206,-0.00312839,0.00000027,0.00880579,-0.00763043,-0.0000
 0003,0.00031027,-0.00038992,-0.00000001,-0.01496825,0.02312503,0.00000
 015,-0.20166695,0.14289626,0.00000171,0.00064268,0.00033498,-0.0000000
 7,0.00102352,-0.00014555,-0.00000011,0.21033753,0.00002955,0.00001516,
 0.,-0.00007719,0.00004934,0.,0.00003308,0.00001959,0.,-0.00000197,0.00
 000006,0.,0.00001016,-0.00000325,0.,0.00000305,-0.00001382,0.,-0.00000
 538,-0.00000186,0.,0.00000557,0.00000216,0.,0.00000486,-0.00000196,0.,
 0.00000634,-0.00000378,0.,0.00010904,-0.00004968,0.,-0.00004196,-0.000
 00183,0.00000001,-0.00104055,0.00006027,0.,-0.00270812,-0.00525096,0.0
 0000017,-0.00281599,0.00045061,0.00000014,0.02373516,-0.01387945,-0.00
 000032,0.00113493,-0.00095367,-0.00000003,-0.00827653,0.00859460,0.000
 00010,0.14327626,-0.20304570,-0.00000119,-0.00018957,0.00104958,-0.000
 00004,0.00019750,0.00074260,-0.00000005,-0.15334159,0.21165282,0.,0.,-
 0.00002416,0.00000002,0.,-0.00010436,0.,0.,0.00012658,0.,0.,0.00001528
 ,0.,-0.00000001,-0.00000813,0.00000001,0.,0.00000222,0.,0.,0.00000243,
 0.,0.,-0.00000494,0.,0.,-0.00000060,0.,0.,0.00000884,-0.00000003,-0.00
 000002,-0.00017391,0.,-0.00000003,0.00023849,0.00000004,0.00000005,-0.
 00107564,0.00000012,0.00000015,0.00658122,0.00000031,0.00000003,0.0086
 6526,-0.00000027,0.00000021,0.00463427,-0.00000003,0.00000003,-0.00021
 333,0.00000036,-0.00000043,0.00460546,0.00000175,-0.00000109,-0.040563
 50,-0.00000010,-0.00000005,-0.00367619,-0.00000011,-0.00000006,-0.0047
 2198,-0.00000203,0.00000121,0.02683501,-0.00467351,-0.00563298,-0.0000
 0010,-0.00298108,0.01691780,0.00000046,-0.08826473,0.05229059,-0.00000
 015,0.01513481,-0.00572163,0.,-0.00264511,0.00988505,0.00000021,-0.005
 28876,-0.00491985,-0.00000027,0.00024314,-0.00106773,0.,-0.00048205,-0
 .00007659,-0.00000002,0.00023680,0.00001032,0.00000002,-0.00075530,0.0
 0000855,-0.00000003,-0.43572227,-0.05239925,-0.00000719,-0.04954344,-0
 .03595961,-0.00000121,-0.16531033,0.07498347,0.00000244,-0.04568070,0.
 02848256,0.00000058,0.03045905,0.01479225,-0.00000043,0.00038404,-0.01
 495471,0.00000016,0.00084332,0.00112181,-0.00000002,-0.00397018,-0.001
 23217,0.00000005,0.00477904,0.00514133,-0.00000019,-0.00039582,0.00079
 289,0.00000005,0.00051459,-0.00115431,0.00000002,0.00025805,0.00002067
 ,0.,0.76933503,0.00187289,-0.00176262,-0.00000005,0.02943692,-0.032656
 81,-0.00000071,0.01989026,0.00615556,0.00000042,0.00651903,-0.00993778
 ,-0.00000025,-0.00125861,0.00537700,0.00000008,-0.00299792,-0.00416558
 ,-0.00000017,0.00004459,-0.00078817,0.,-0.00047999,0.00011937,0.,0.000
 23024,-0.00044822,0.00000001,-0.00037061,0.00009791,0.,-0.07174761,-0.
 12607862,-0.00000168,-0.01091486,-0.15301377,-0.00000371,0.07307088,-0
 .18893172,-0.00000213,0.01513918,0.01090428,-0.00000003,0.01526213,-0.
 03514071,-0.00000040,-0.00840549,0.01060603,0.00000014,-0.00243048,-0.
 00064324,0.,0.00115916,-0.00749869,0.00000022,-0.00699673,-0.00612098,
 0.00000021,-0.00120929,0.00081794,-0.00000001,0.00119824,-0.00032789,-
 0.00000003,-0.00031720,0.00007126,0.,-0.05954613,0.53145590,0.00000005
 ,-0.00000025,0.00067409,0.00000047,-0.00000061,0.00483485,-0.00000087,
 0.00000107,0.00335977,0.00000051,-0.00000053,0.00295997,-0.00000007,0.
 00000044,0.00069916,-0.00000033,-0.00000024,0.00097016,0.00000001,-0.0
 0000003,-0.00057026,-0.00000002,0.,-0.00037788,0.00000002,0.,-0.000480
 16,-0.00000002,0.,-0.00011419,-0.00000643,-0.00000254,-0.06449525,-0.0
 0000036,-0.00000409,-0.03738391,0.00000185,-0.00000196,-0.05379316,0.0
 0000067,-0.00000059,-0.00224053,-0.00000020,-0.00000020,0.00374492,0.0
 0000015,0.00000041,0.00658643,-0.00000013,-0.00000002,-0.00343586,0.00
 000013,-0.00000006,0.00478283,-0.00000018,-0.00000003,-0.00101462,0.00
 000002,-0.00000001,0.00094959,0.,0.00000001,-0.00004677,-0.00000002,0.
 ,-0.00072321,0.00000446,0.00000848,0.13574057,-0.00025343,0.00212718,0
 .00000015,0.00157408,0.00143892,0.00000011,0.00985214,-0.00114248,-0.0
 0000027,-0.00201785,0.00058205,-0.00000005,-0.00021346,-0.00217607,-0.
 00000004,0.00200447,0.00031014,0.00000004,-0.00017763,0.00019196,0.,0.
 00024467,-0.00005444,0.,0.00001824,-0.00000829,0.,0.00005486,0.0000431
 2,-0.00000001,0.00484120,0.03361261,-0.00000183,-0.00056696,0.00060153
 ,0.,-0.01841804,-0.03478718,0.00000146,-0.00680226,0.00249090,0.000000
 06,-0.34865766,-0.09118568,0.00000883,-0.00438353,-0.01396075,0.000000
 15,-0.00107290,-0.00058166,0.00000006,-0.06372834,0.00239205,0.0000021
 5,0.01352048,0.01158916,-0.00000018,-0.00004336,-0.00027033,0.00000004
 ,0.00223763,-0.00046152,-0.00000019,-0.00144533,0.00010164,-0.00000001
 ,-0.02511690,0.01398473,0.00000005,0.55417287,-0.00064317,-0.00049826,
 -0.00000011,0.00057086,-0.00274091,-0.00000005,-0.00927155,-0.00143242
 ,0.00000056,-0.00007316,-0.00036141,-0.00000001,0.00039841,0.00021360,
 0.,-0.00008552,-0.00008986,0.,0.00011805,-0.00026551,0.,0.00006197,0.0
 0015337,0.00000003,0.00012051,-0.00011179,0.,0.00006826,-0.00007674,0.
 ,0.01823516,-0.03863846,0.00000135,-0.00085730,-0.00258251,-0.00000010
 ,-0.05010304,-0.01271539,0.00000144,0.00895877,-0.00718230,-0.00000008
 ,-0.06032216,-0.13746187,0.00000112,-0.00260498,0.00705207,0.,-0.00164
 456,-0.00041408,0.00000001,0.03902690,0.02012526,-0.00000097,-0.002286
 74,-0.01115743,0.00000023,-0.00009170,0.00043624,-0.00000002,-0.001903
 66,0.00192449,0.,0.00162520,0.00047730,-0.00000001,0.00597940,0.004570
 31,0.00000008,-0.04120785,0.43760075,0.00000004,-0.00000003,-0.0001659
 3,-0.00000011,0.,-0.00007104,-0.00000016,0.00000029,0.00147354,0.00000
 009,-0.00000003,0.00008890,0.,0.00000008,-0.00005676,-0.00000006,-0.00
 000003,0.00004047,0.,0.,-0.00000279,0.,0.,0.00000242,0.,0.,-0.00001322
 ,0.,0.,-0.00000320,-0.00000089,-0.00000032,0.00446918,0.00000010,0.000
 00016,-0.00041496,0.00000110,0.00000112,0.01384672,0.00000045,0.000000
 05,0.00680679,0.00001014,0.00000253,-0.05367595,0.00000004,0.00000040,
 -0.00098087,0.00000005,0.,0.00020017,0.00000189,-0.00000005,0.00801078
 ,-0.00000023,-0.00000029,0.00513586,0.,0.,-0.00073378,-0.00000016,-0.0
 0000002,-0.00352739,0.00000005,0.,-0.00017376,0.00000087,-0.00000079,-
 0.00352315,-0.00001800,0.00000461,0.04663064,0.00000736,-0.00062424,-0
 .00000002,-0.00117930,-0.00034066,-0.00000005,-0.00329453,0.00288954,-
 0.00000008,0.00079189,-0.00014416,0.00000004,0.00005771,0.00051704,0.0
 0000003,-0.00049272,-0.00008439,-0.00000001,0.00006377,-0.00006207,0.,
 -0.00029800,0.00002942,-0.00000003,0.00002717,-0.00001783,0.,-0.000007
 12,-0.00004909,0.,-0.01338932,-0.00936599,0.00000159,-0.00150880,-0.00
 267306,-0.00000027,0.00003145,0.00465579,-0.00000018,0.00056404,0.0009
 4220,0.00000001,-0.05134318,0.03106244,0.00000233,0.00072312,0.0019393
 1,-0.00000002,0.00058767,0.00027623,-0.00000004,0.00101349,-0.00469648
 ,0.00000020,-0.00232185,-0.00007733,0.00000008,0.00006382,0.00001304,-
 0.00000001,-0.00025446,0.00014747,0.,-0.00009555,-0.00016896,-0.000000
 03,0.00864229,-0.01113333,0.00000024,-0.11562295,0.09593191,0.00000480
 ,0.17723400,0.00053967,0.00124398,0.00000016,0.00071741,0.00428854,0.0
 0000024,0.01504894,-0.00254741,-0.00000065,-0.00102260,0.00128143,-0.0
 0000002,-0.00060265,-0.00117852,-0.00000003,0.00077297,0.00048375,0.00
 000001,-0.00019604,0.00039883,0.00000001,0.00009849,-0.00024002,-0.000
 00003,-0.00019171,0.00017482,0.,-0.00007797,0.00012685,0.,-0.00821032,
 0.00916982,-0.00000246,0.00130080,0.00527433,0.00000041,0.00084952,-0.
 00874025,0.00000005,-0.00429691,-0.00058467,-0.00000006,0.02666889,0.0
 2239323,-0.00000061,-0.00027371,-0.00645769,0.00000003,-0.00070580,-0.
 00028220,0.00000006,-0.01521127,0.00179842,0.00000021,0.00523639,0.005
 05397,-0.00000018,0.00006162,-0.00022306,0.00000004,0.00044371,-0.0002
 4698,0.,-0.00059117,0.00002063,0.00000002,-0.02776173,-0.00266076,0.00
 000064,0.11637025,-0.25682444,-0.00000767,-0.10896679,0.22827740,-0.00
 000009,-0.00000008,0.00029128,0.00000012,-0.00000030,0.00038947,-0.000
 00070,-0.00000040,-0.00153562,-0.00000002,0.,-0.00023399,0.00000004,0.
 ,0.00002993,0.,0.00000002,-0.00005925,0.00000002,-0.00000003,0.0000289
 0,-0.00000002,0.00000002,0.00003665,0.,0.,0.00001932,0.,0.,-0.00000847
 ,0.00000148,0.00000037,-0.00988320,-0.00000019,-0.00000037,0.00106124,
 -0.00000016,0.00000014,-0.00203625,0.00000001,-0.00000009,-0.00040178,
 0.00000017,-0.00000151,-0.00071273,0.00000005,0.00000010,-0.00013658,0
 .,0.,-0.00003737,0.00000023,0.00000008,0.00225479,-0.00000008,-0.00000
 004,0.00173506,0.,0.,-0.00003052,0.,0.,-0.00040163,0.,0.,-0.00025135,0
 .00000031,0.00000038,0.00289661,0.00000748,-0.00000808,-0.02336270,-0.
 00000859,0.00000982,0.03034817\\-0.00112199,0.00155158,-0.00000002,0.0
 0197488,0.00379556,-0.00000012,0.00453319,0.00038708,0.00000032,0.0006
 2081,-0.00084402,0.,-0.00062766,-0.00331731,-0.00000006,-0.00129376,-0
 .00107909,0.00000004,-0.00032265,0.00024203,0.,0.00029352,-0.00020604,
 0.,-0.00005578,-0.00030362,0.,-0.00022255,-0.00016346,0.00000001,-0.00
 307705,0.00497709,0.00000142,0.00228219,0.00846349,0.00000025,-0.00222
 103,0.00247411,0.00000011,0.00400317,-0.00158080,-0.00000046,0.0048265
 7,0.00190849,0.00000119,-0.00102669,0.00044255,0.00000017,0.00027273,-
 0.00013283,0.00000005,-0.00284489,-0.00013808,0.00000010,-0.00329454,-
 0.00227054,-0.00000019,-0.00003984,-0.00027244,0.00000007,-0.00033603,
 0.00003943,-0.00000005,-0.00034271,-0.00025501,-0.00000012,-0.00163073
 ,-0.00080186,-0.00000107,-0.00343630,-0.00257194,0.00000121,0.00308715
 ,-0.01034436,-0.00000287\\\@
 The archive entry for this job was punched.


 I (ERNEST RUTHERFORD) CAME INTO THE ROOM, WHICH WAS HALF DARK, AND PRESENTLY
 SPOTTED LORD KELVIN IN THE AUDIENCE AND REALIZED I WAS IN TROUBLE AT
 THE LAST PART OF MY SPEECH DEALING THE AGE OF THE EARTH, WHERE MY VIEWS
 CONFLICTED WITH HIS.  TO MY RELIEF KELVIN FELL FAST ASLEEP, BUT AS I CAME
 TO THE IMPORTANT POINT, I SAW THE OLD BIRD SIT UP AND COCK A BALEFUL GLANCE
 AT ME! THEN A SUDDEN INSPIRATION CAME AND I SAID LORD KELVIN HAD LIMITED
 THE AGE OF THE EARTH PROVIDED NO NEW SOURCE WAS DISCOVERED. THAT
 PROPHETIC UTTERANCE REFERS TO WHAT WE ARE NOW CONSIDERING TONIGHT, RADIUM!
 BEHOLD!  THE OLD BOY BEAMED UPON ME.
 Job cpu time:       0 days  1 hours  0 minutes 55.8 seconds.
 Elapsed time:       0 days  0 hours  6 minutes 27.7 seconds.
 File lengths (MBytes):  RWF=    544 Int=      0 D2E=      0 Chk=     40 Scr=      8
 Normal termination of Gaussian 16 at Wed Oct 28 01:31:31 2020.
